Protein in INSANE! Membrane UpperLeaflet>POPC=1.0 LowerLeaflet>POPC=1.0
246639
    1AU     AUC    1  18.338  29.156   7.506
    1AU     AUC    2  18.611  29.137   7.349
    1AU     AUC    3  18.599  29.138   7.676
    1AU     AUC    4  18.074  29.171   7.338
    1AU     AUC    5  18.069  29.175   7.667
    1AU     AUC    6  18.194  29.436   7.499
    1AU     AUC    7  18.521  29.415   7.508
    1AU     AUC    8  18.152  28.898   7.502
    1AU     AUC    9  18.482  28.875   7.505
    1AU     AUC   10  18.319  28.992   7.772
    1AU     AUC   11  18.346  29.322   7.773
    1AU     AUC   12  18.335  28.989   7.240
    1AU     AUC   13  18.357  29.318   7.237
    1AU     AUC   14  18.879  29.130   7.199
    1AU     AUC   15  18.879  29.115   7.514
    1AU     AUC   16  18.850  29.118   7.833
    1AU     AUC   17  17.823  29.178   7.169
    1AU     AUC   18  17.795  29.186   7.505
    1AU     AUC   19  17.813  29.198   7.829
    1AU     AUC   20  18.061  29.712   7.492
    1AU     AUC   21  18.375  29.711   7.489
    1AU     AUC   22  18.696  29.664   7.510
    1AU     AUC   23  17.969  28.653   7.501
    1AU     AUC   24  18.298  28.611   7.491
    1AU     AUC   25  18.620  28.597   7.512
    1AU     AUC   26  18.297  28.830   8.028
    1AU     AUC   27  18.321  29.151   8.059
    1AU     AUC   28  18.355  29.474   8.033
    1AU     AUC   29  18.344  28.831   6.987
    1AU     AUC   30  18.372  29.154   6.963
    1AU     AUC   31  18.379  29.465   6.972
    1AU     AUC   32  18.579  28.966   7.953
    1AU     AUC   33  18.618  29.305   7.955
    1AU     AUC   34  18.621  28.983   7.073
    1AU     AUC   35  18.646  29.314   7.081
    1AU     AUC   36  18.047  29.010   7.946
    1AU     AUC   37  18.072  29.340   7.943
    1AU     AUC   38  18.067  29.000   7.070
    1AU     AUC   39  18.086  29.321   7.052
    1AU     AUC   40  18.808  29.392   7.361
    1AU     AUC   41  18.792  29.407   7.691
    1AU     AUC   42  17.923  29.460   7.322
    1AU     AUC   43  17.919  29.468   7.668
    1AU     AUC   44  18.764  28.845   7.349
    1AU     AUC   45  18.743  28.845   7.676
    1AU     AUC   46  17.869  28.909   7.340
    1AU     AUC   47  17.875  28.905   7.678
    1AU     AUC   48  18.202  29.613   7.765
    1AU     AUC   49  18.533  29.592   7.778
    1AU     AUC   50  18.134  28.729   7.777
    1AU     AUC   51  18.465  28.704   7.775
    1AU     AUC   52  18.209  29.607   7.223
    1AU     AUC   53  18.538  29.585   7.230
    1AU     AUC   54  18.140  28.719   7.229
    1AU     AUC   55  18.480  28.698   7.228
    1AU    AUSL   56  18.803  29.078   8.119
    1AU    AUSL   57  18.601  28.718   8.113
    1AU     AUL   58  18.687  29.028   8.426
    1AU       S   59  18.908  28.341   8.258
    1AU     LIG   60  18.791  27.943   8.443
    1AU     LIG   61  18.995  27.579   8.658
    1AU     LIG   62  19.195  27.426   9.048
    1AU     LIG   63  19.115  27.517   9.512
    1AU       S   64  19.083  28.746   8.467
    1AU     LIG   65  19.165  28.856   8.908
    1AU     LIG   66  19.295  28.815   9.356
    1AU     LIG   67  19.644  28.836   9.676
    1AU     LIG   68  20.076  28.927   9.858
    1AU    AUSL   69  18.399  28.941   8.262
    1AU    AUSL   70  18.197  29.304   8.275
    1AU     AUL   71  18.379  29.133   8.583
    1AU       S   72  18.708  28.597   8.646
    1AU     LIG   73  18.798  28.574   9.129
    1AU     LIG   74  18.953  28.490   9.583
    1AU     LIG   75  19.183  28.515  10.007
    1AU     LIG   76  19.198  28.455  10.501
    1AU       S   77  17.902  29.171   8.742
    1AU     LIG   78  17.762  29.125   9.195
    1AU     LIG   79  17.649  29.103   9.664
    1AU     LIG   80  17.633  29.184  10.143
    1AU     LIG   81  17.742  29.426  10.568
    1AU    AUSL   82  18.544  29.331   8.250
    1AU    AUSL   83  18.917  29.404   8.008
    1AU     AUL   84  18.927  29.291   8.375
    1AU       S   85  18.556  29.624   8.611
    1AU     LIG   86  18.865  29.795   8.920
    1AU     LIG   87  18.964  29.915   9.369
    1AU     LIG   88  18.927  30.035   9.832
    1AU     LIG   89  18.973  30.097  10.300
    1AU       S   90  19.169  29.724   8.297
    1AU     LIG   91  19.591  29.685   8.439
    1AU     LIG   92  19.905  29.940   8.646
    1AU     LIG   93  20.151  30.189   8.955
    1AU     LIG   94  20.592  30.178   9.162
    1AU    AUSL   95  18.829  29.236   6.885
    1AU    AUSL   96  18.689  29.566   6.940
    1AU     AUL   97  18.631  29.605   6.622
    1AU       S   98  19.038  29.266   6.470
    1AU     LIG   99  19.322  29.119   6.142
    1AU     LIG  100  19.379  28.911   5.729
    1AU     LIG  101  19.473  28.836   5.266
    1AU     LIG  102  19.862  28.761   4.979
    1AU       S  103  19.126  29.704   6.684
    1AU     LIG  104  19.335  29.939   6.335
    1AU     LIG  105  19.671  30.214   6.143
    1AU     LIG  106  19.775  30.419   5.728
    1AU     LIG  107  19.483  30.504   5.348
    1AU    AUSL  108  18.624  28.969   6.788
    1AU    AUSL  109  18.867  28.841   7.042
    1AU     AUL  110  19.087  29.010   6.900
    1AU       S  111  19.067  28.564   6.655
    1AU     LIG  112  19.408  28.324   6.405
    1AU     LIG  113  19.734  27.969   6.385
    1AU     LIG  114  19.987  27.635   6.177
    1AU     LIG  115  19.932  27.224   5.926
    1AU       S  116  18.898  28.965   6.405
    1AU     LIG  117  19.069  28.640   6.114
    1AU     LIG  118  19.020  28.551   5.640
    1AU     LIG  119  19.001  28.559   5.151
    1AU     LIG  120  18.995  28.466   4.677
    1AU    AUSL  121  18.523  29.297   6.747
    1AU    AUSL  122  18.229  28.993   6.792
    1AU     AUL  123  18.394  29.027   6.492
    1AU       S  124  17.867  29.004   6.334
    1AU     LIG  125  17.774  28.628   6.071
    1AU     LIG  126  17.755  28.566   5.610
    1AU     LIG  127  17.602  28.576   5.161
    1AU     LIG  128  17.431  28.645   4.727
    1AU       S  129  18.822  29.244   6.308
    1AU     LIG  130  18.884  29.053   5.867
    1AU     LIG  131  18.990  29.017   5.403
    1AU     LIG  132  19.082  29.050   4.940
    1AU     LIG  133  19.025  29.359   4.570
    1AU    AUSL  134  17.869  29.258   8.145
    1AU    AUSL  135  18.076  29.580   8.070
    1AU     AUL  136  18.004  29.555   8.417
    1AU       S  137  17.671  29.200   8.612
    1AU     LIG  138  17.430  28.891   8.869
    1AU     LIG  139  17.359  28.812   9.333
    1AU     LIG  140  17.165  28.900   9.758
    1AU     LIG  141  16.761  28.925  10.013
    1AU       S  142  17.649  29.901   8.248
    1AU     LIG  143  17.653  30.045   8.694
    1AU     LIG  144  17.595  30.424   8.955
    1AU     LIG  145  17.272  30.700   9.157
    1AU     LIG  146  16.992  30.731   9.536
    1AU    AUSL  147  18.049  28.980   8.229
    1AU    AUSL  148  17.788  28.901   7.971
    1AU     AUL  149  17.592  29.068   8.142
    1AU       S  150  17.580  28.601   8.354
    1AU     LIG  151  17.136  28.452   8.406
    1AU     LIG  152  16.863  28.088   8.498
    1AU     LIG  153  16.724  27.787   8.819
    1AU     LIG  154  16.413  27.566   9.084
    1AU       S  155  17.874  28.932   8.598
    1AU     LIG  156  17.878  28.666   8.970
    1AU     LIG  157  17.837  28.661   9.440
    1AU     LIG  158  17.594  28.613   9.842
    1AU     LIG  159  17.496  28.377  10.245
    1AU    AUSL  160  17.913  29.132   6.841
    1AU    AUSL  161  18.022  28.739   6.940
    1AU     AUL  162  18.150  28.740   6.636
    1AU       S  163  17.684  29.111   6.484
    1AU     LIG  164  17.367  28.889   6.212
    1AU     LIG  165  17.308  28.795   5.736
    1AU     LIG  166  17.173  28.837   5.262
    1AU     LIG  167  17.034  28.966   4.823
    1AU       S  168  17.649  28.616   6.605
    1AU     LIG  169  17.349  28.346   6.321
    1AU     LIG  170  17.019  27.967   6.280
    1AU     LIG  171  16.801  27.555   6.144
    1AU     LIG  172  16.566  27.369   5.768
    1AU    AUSL  173  18.189  29.338   6.738
    1AU    AUSL  174  17.782  29.451   7.004
    1AU     AUL  175  17.924  29.522   6.668
    1AU       S  176  17.437  29.658   6.742
    1AU     LIG  177  17.125  30.018   6.784
    1AU     LIG  178  17.004  30.304   6.454
    1AU     LIG  179  16.906  30.163   6.045
    1AU     LIG  180  16.565  29.860   5.954
    1AU       S  181  17.968  29.235   6.263
    1AU     LIG  182  17.724  29.097   5.860
    1AU     LIG  183  17.637  29.039   5.404
    1AU     LIG  184  17.521  29.101   4.957
    1AU     LIG  185  17.455  29.326   4.544
    1AU    AUSL  186  19.010  29.567   7.500
    1AU    AUSL  187  18.991  29.431   7.133
    1AU     AUL  188  19.077  29.869   7.352
    1AU       S  189  19.290  29.533   6.881
    1AU     LIG  190  19.551  29.495   6.480
    1AU     LIG  191  19.874  29.740   6.208
    1AU     LIG  192  20.118  30.049   5.922
    1AU     LIG  193  20.320  30.391   5.681
    1AU       S  194  19.518  29.625   7.335
    1AU     LIG  195  19.951  29.885   7.477
    1AU     LIG  196  20.197  30.179   7.815
    1AU     LIG  197  20.588  30.483   7.845
    1AU     LIG  198  20.918  30.825   7.689
    1AU    AUSL  199  19.132  29.232   7.384
    1AU    AUSL  200  19.059  28.953   7.661
    1AU     AUL  201  19.365  29.120   7.753
    1AU       S  202  19.516  29.301   7.267
    1AU     LIG  203  19.975  29.413   7.181
    1AU     LIG  204  20.381  29.591   7.285
    1AU     LIG  205  20.773  29.517   7.070
    1AU     LIG  206  21.225  29.402   7.033
    1AU       S  207  19.510  28.642   7.583
    1AU     LIG  208  19.848  28.376   7.791
    1AU     LIG  209  20.282  28.205   7.844
    1AU     LIG  210  20.714  28.383   7.814
    1AU     LIG  211  21.076  28.177   8.034
    1AU    AUSL  212  19.064  29.296   7.715
    1AU    AUSL  213  18.848  29.706   7.793
    1AU     AUL  214  19.199  29.593   7.809
    1AU       S  215  19.143  29.975   8.144
    1AU     LIG  216  19.553  30.173   8.285
    1AU     LIG  217  19.932  30.402   8.407
    1AU     LIG  218  20.073  30.662   8.730
    1AU     LIG  219  20.417  30.979   8.718
    1AU       S  220  19.604  29.482   7.518
    1AU     LIG  221  20.051  29.438   7.697
    1AU     LIG  222  20.418  29.714   7.790
    1AU     LIG  223  20.829  29.932   7.881
    1AU     LIG  224  21.158  29.797   8.228
    1AU    AUSL  225  17.776  29.691   7.522
    1AU    AUSL  226  17.756  29.502   7.926
    1AU     AUL  227  17.468  29.710   7.710
    1AU       S  228  17.487  29.644   8.235
    1AU     LIG  229  17.196  29.914   8.491
    1AU     LIG  230  17.136  30.247   8.812
    1AU     LIG  231  16.881  30.358   9.192
    1AU     LIG  232  16.576  30.384   9.554
    1AU       S  233  17.661  30.157   7.514
    1AU     LIG  234  17.165  30.255   7.447
    1AU     LIG  235  16.740  30.493   7.561
    1AU     LIG  236  16.376  30.798   7.520
    1AU     LIG  237  15.921  30.771   7.495
    1AU    AUSL  238  17.646  29.360   7.298
    1AU    AUSL  239  17.902  29.756   7.203
    1AU     AUL  240  17.535  29.677   7.249
    1AU       S  241  17.272  29.238   6.944
    1AU     LIG  242  16.912  29.571   6.980
    1AU     LIG  243  16.463  29.698   7.071
    1AU     LIG  244  16.000  29.689   7.013
    1AU     LIG  245  15.563  29.719   6.798
    1AU       S  246  17.660  30.127   7.014
    1AU     LIG  247  17.408  30.455   6.745
    1AU     LIG  248  17.236  30.799   6.434
    1AU     LIG  249  16.976  31.082   6.141
    1AU     LIG  250  16.482  31.134   6.119
    1AU    AUSL  251  17.602  29.362   7.661
    1AU    AUSL  252  17.557  29.039   7.350
    1AU     AUL  253  17.333  29.406   7.431
    1AU       S  254  17.087  28.959   7.406
    1AU     LIG  255  16.665  28.987   7.258
    1AU     LIG  256  16.333  28.695   7.097
    1AU     LIG  257  15.823  28.635   7.060
    1AU     LIG  258  15.393  28.350   6.994
    1AU       S  259  17.178  29.348   7.940
    1AU     LIG  260  16.729  29.467   7.821
    1AU     LIG  261  16.341  29.730   7.936
    1AU     LIG  262  15.883  29.770   7.932
    1AU     LIG  263  15.548  29.967   8.191
    1AU    AUSL  264  18.942  28.638   7.569
    1AU    AUSL  265  18.874  28.805   7.921
    1AU     AUL  266  19.194  28.836   7.929
    1AU       S  267  19.330  28.432   7.620
    1AU     LIG  268  19.638  28.177   7.374
    1AU     LIG  269  20.011  27.933   7.501
    1AU     LIG  270  20.371  27.623   7.492
    1AU     LIG  271  20.787  27.418   7.549
    1AU       S  272  19.113  28.375   8.107
    1AU     LIG  273  19.299  28.040   8.405
    1AU     LIG  274  19.484  27.760   8.733
    1AU     LIG  275  19.879  27.621   8.942
    1AU     LIG  276  20.336  27.470   8.977
    1AU    AUSL  277  19.069  28.901   7.317
    1AU    AUSL  278  18.762  28.555   7.233
    1AU     AUL  279  19.077  28.562   7.204
    1AU       S  280  19.511  28.759   7.365
    1AU     LIG  281  19.961  28.590   7.308
    1AU     LIG  282  20.214  28.379   6.976
    1AU     LIG  283  20.605  28.168   6.881
    1AU     LIG  284  20.951  28.297   7.028
    1AU       S  285  19.037  28.322   6.765
    1AU     LIG  286  19.314  27.924   6.725
    1AU     LIG  287  19.547  27.516   6.570
    1AU     LIG  288  19.876  27.206   6.431
    1AU     LIG  289  20.321  27.210   6.230
    1AU    AUSL  290  17.667  28.731   7.521
    1AU    AUSL  291  17.730  28.923   7.062
    1AU     AUL  292  17.485  28.679   7.245
    1AU       S  293  17.447  28.774   6.743
    1AU     LIG  294  17.012  28.559   6.658
    1AU     LIG  295  16.685  28.205   6.595
    1AU     LIG  296  16.397  28.061   6.249
    1AU     LIG  297  16.497  27.890   5.842
    1AU       S  298  17.083  28.722   7.541
    1AU     LIG  299  16.637  28.516   7.503
    1AU     LIG  300  16.401  28.153   7.710
    1AU     LIG  301  15.938  28.040   7.781
    1AU     LIG  302  15.635  27.660   7.866
    1AU    AUSL  303  17.582  29.025   7.709
    1AU    AUSL  304  17.829  28.588   7.804
    1AU     AUL  305  17.494  28.705   7.845
    1AU       S  306  17.590  28.354   8.196
    1AU     LIG  307  17.273  27.989   8.189
    1AU     LIG  308  16.942  27.625   8.254
    1AU     LIG  309  16.565  27.451   8.457
    1AU     LIG  310  16.475  27.151   8.791
    1AU       S  311  17.100  28.967   7.641
    1AU     LIG  312  16.674  28.938   7.793
    1AU     LIG  313  16.302  28.658   7.908
    1AU     LIG  314  15.831  28.652   7.841
    1AU     LIG  315  15.454  28.482   8.060
    1AU    AUSL  316  18.345  29.795   7.946
    1AU    AUSL  317  17.964  29.786   7.816
    1AU     AUL  318  18.159  29.852   8.227
    1AU       S  319  17.732  30.094   8.013
    1AU     LIG  320  17.453  30.361   8.344
    1AU     LIG  321  17.312  30.718   8.635
    1AU     LIG  322  17.057  31.075   8.822
    1AU     LIG  323  16.632  31.292   8.770
    1AU       S  324  18.258  30.307   8.052
    1AU     LIG  325  18.461  30.586   8.390
    1AU     LIG  326  18.578  31.017   8.514
    1AU     LIG  327  18.565  31.477   8.589
    1AU     LIG  328  18.551  31.929   8.709
    1AU    AUSL  329  18.216  29.940   7.628
    1AU    AUSL  330  18.554  29.904   7.311
    1AU     AUL  331  18.504  30.185   7.489
    1AU       S  332  18.122  30.352   7.802
    1AU     LIG  333  18.192  30.838   8.007
    1AU     LIG  334  18.409  31.277   8.095
    1AU     LIG  335  18.300  31.721   8.207
    1AU     LIG  336  17.849  31.888   8.220
    1AU       S  337  18.494  30.375   7.034
    1AU     LIG  338  18.703  30.789   7.072
    1AU     LIG  339  18.821  31.128   6.800
    1AU     LIG  340  18.768  31.564   6.765
    1AU     LIG  341  18.727  31.833   6.426
    1AU    AUSL  342  18.567  29.887   7.673
    1AU    AUSL  343  18.630  29.617   8.073
    1AU     AUL  344  18.661  29.968   7.989
    1AU       S  345  18.940  29.842   8.393
    1AU     LIG  346  19.284  30.022   8.697
    1AU     LIG  347  19.630  30.328   8.830
    1AU     LIG  348  19.850  30.564   9.171
    1AU     LIG  349  19.873  30.976   9.359
    1AU       S  350  18.473  30.431   7.911
    1AU     LIG  351  18.722  30.865   8.029
    1AU     LIG  352  18.909  31.296   8.218
    1AU     LIG  353  18.828  31.782   8.265
    1AU     LIG  354  18.952  32.171   8.483
    1AU    AUSL  355  18.332  28.526   7.938
    1AU    AUSL  356  18.681  28.528   7.819
    1AU     AUL  357  18.422  28.446   8.216
    1AU       S  358  18.467  27.981   8.006
    1AU     LIG  359  18.298  27.525   8.149
    1AU     LIG  360  18.200  27.055   8.287
    1AU     LIG  361  18.381  26.723   8.582
    1AU     LIG  362  18.261  26.439   8.937
    1AU       S  363  18.916  28.235   7.963
    1AU     LIG  364  19.046  27.783   8.034
    1AU     LIG  365  19.337  27.484   8.301
    1AU     LIG  366  19.537  27.243   8.678
    1AU     LIG  367  19.969  27.131   8.831
    1AU    AUSL  368  18.116  28.470   7.665
    1AU    AUSL  369  18.051  28.674   8.078
    1AU     AUL  370  18.044  28.311   7.976
    1AU       S  371  18.286  27.886   7.765
    1AU     LIG  372  18.080  27.458   7.684
    1AU     LIG  373  17.839  27.112   7.908
    1AU     LIG  374  17.637  26.710   8.049
    1AU     LIG  375  17.543  26.296   8.298
    1AU       S  376  17.819  28.475   8.415
    1AU     LIG  377  17.499  28.169   8.650
    1AU     LIG  378  17.240  27.766   8.654
    1AU     LIG  379  17.008  27.371   8.745
    1AU     LIG  380  16.825  27.251   9.149
    1AU    AUSL  381  18.430  28.366   7.642
    1AU    AUSL  382  18.103  28.408   7.323
    1AU     AUL  383  17.963  28.227   7.605
    1AU       S  384  18.146  27.938   7.232
    1AU     LIG  385  17.941  27.533   7.186
    1AU     LIG  386  17.831  27.138   6.974
    1AU     LIG  387  17.931  26.716   6.809
    1AU     LIG  388  18.098  26.459   6.485
    1AU       S  389  18.549  27.995   7.729
    1AU     LIG  390  18.641  27.530   7.767
    1AU     LIG  391  18.439  27.112   7.840
    1AU     LIG  392  18.528  26.704   8.083
    1AU     LIG  393  18.491  26.266   8.268
    1AU    AUSL  394  18.411  29.777   7.004
    1AU    AUSL  395  18.808  29.690   7.241
    1AU     AUL  396  18.757  29.930   6.993
    1AU       S  397  18.410  30.268   6.805
    1AU     LIG  398  18.623  30.631   6.586
    1AU     LIG  399  18.555  31.029   6.365
    1AU     LIG  400  18.451  31.447   6.204
    1AU     LIG  401  18.269  31.851   6.072
    1AU       S  402  19.272  29.818   6.890
    1AU     LIG  403  19.715  29.949   6.677
    1AU     LIG  404  20.106  30.157   6.432
    1AU     LIG  405  20.241  30.551   6.167
    1AU     LIG  406  20.252  31.045   6.127
    1AU    AUSL  407  18.199  29.916   7.276
    1AU    AUSL  408  18.104  29.591   6.967
    1AU     AUL  409  18.103  29.887   6.890
    1AU       S  410  18.180  30.354   7.094
    1AU     LIG  411  18.225  30.807   6.866
    1AU     LIG  412  18.314  31.278   6.753
    1AU     LIG  413  18.229  31.724   6.587
    1AU     LIG  414  17.959  32.123   6.489
    1AU       S  415  17.622  29.926   6.762
    1AU     LIG  416  17.463  30.092   6.366
    1AU     LIG  417  17.336  30.437   6.072
    1AU     LIG  418  17.087  30.560   5.693
    1AU     LIG  419  17.158  30.642   5.222
    1AU    AUSL  420  18.285  28.510   7.028
    1AU    AUSL  421  17.836  28.612   7.217
    1AU     AUL  422  17.963  28.371   6.973
    1AU       S  423  17.498  28.467   6.794
    1AU     LIG  424  17.199  28.084   6.761
    1AU     LIG  425  16.885  27.718   6.722
    1AU     LIG  426  16.478  27.665   6.539
    1AU     LIG  427  16.269  27.530   6.158
    1AU       S  428  18.258  27.950   6.976
    1AU     LIG  429  18.288  27.491   6.817
    1AU     LIG  430  18.204  27.086   6.579
    1AU     LIG  431  18.124  26.864   6.188
    1AU     LIG  432  18.129  26.463   5.957
    1AU    AUSL  433  18.465  28.395   7.312
    1AU    AUSL  434  18.579  28.664   6.928
    1AU     AUL  435  18.605  28.315   7.009
    1AU       S  436  18.417  27.912   7.264
    1AU     LIG  437  18.427  27.413   7.307
    1AU     LIG  438  18.332  27.003   7.065
    1AU     LIG  439  18.412  26.577   6.867
    1AU     LIG  440  18.609  26.214   6.681
    1AU       S  441  18.795  28.496   6.568
    1AU     LIG  442  18.939  28.147   6.297
    1AU     LIG  443  19.259  27.823   6.229
    1AU     LIG  444  19.508  27.492   6.040
    1AU     LIG  445  19.601  27.405   5.584
    2AU     AUC  446   6.166  18.444   7.495
    2AU     AUC  447   6.440  18.423   7.340
    2AU     AUC  448   6.426  18.426   7.667
    2AU     AUC  449   5.905  18.459   7.325
    2AU     AUC  450   5.897  18.466   7.653
    2AU     AUC  451   6.025  18.725   7.484
    2AU     AUC  452   6.353  18.703   7.495
    2AU     AUC  453   5.978  18.184   7.493
    2AU     AUC  454   6.305  18.161   7.501
    2AU     AUC  455   6.143  18.281   7.762
    2AU     AUC  456   6.175  18.612   7.760
    2AU     AUC  457   6.165  18.275   7.231
    2AU     AUC  458   6.190  18.604   7.225
    2AU     AUC  459   6.710  18.409   7.188
    2AU     AUC  460   6.706  18.399   7.506
    2AU     AUC  461   6.678  18.405   7.826
    2AU     AUC  462   5.655  18.467   7.152
    2AU     AUC  463   5.623  18.477   7.486
    2AU     AUC  464   5.641  18.493   7.811
    2AU     AUC  465   5.891  18.999   7.472
    2AU     AUC  466   6.210  19.001   7.471
    2AU     AUC  467   6.531  18.951   7.492
    2AU     AUC  468   5.796  17.935   7.493
    2AU     AUC  469   6.118  17.889   7.492
    2AU     AUC  470   6.438  17.885   7.515
    2AU     AUC  471   6.116  18.122   8.019
    2AU     AUC  472   6.147  18.445   8.047
    2AU     AUC  473   6.186  18.767   8.018
    2AU     AUC  474   6.176  18.113   6.978
    2AU     AUC  475   6.206  18.436   6.953
    2AU     AUC  476   6.216  18.748   6.960
    2AU     AUC  477   6.404  18.257   7.945
    2AU     AUC  478   6.447  18.595   7.944
    2AU     AUC  479   6.452  18.265   7.065
    2AU     AUC  480   6.481  18.595   7.070
    2AU     AUC  481   5.872  18.304   7.935
    2AU     AUC  482   5.901  18.634   7.926
    2AU     AUC  483   5.899  18.286   7.058
    2AU     AUC  484   5.921  18.606   7.038
    2AU     AUC  485   6.639  18.676   7.348
    2AU     AUC  486   6.622  18.692   7.678
    2AU     AUC  487   5.753  18.747   7.303
    2AU     AUC  488   5.747  18.758   7.648
    2AU     AUC  489   6.588  18.137   7.348
    2AU     AUC  490   6.567  18.133   7.673
    2AU     AUC  491   5.698  18.199   7.327
    2AU     AUC  492   5.702  18.197   7.663
    2AU     AUC  493   6.032  18.903   7.749
    2AU     AUC  494   6.366  18.883   7.761
    2AU     AUC  495   5.955  18.010   7.767
    2AU     AUC  496   6.284  17.991   7.772
    2AU     AUC  497   6.043  18.893   7.208
    2AU     AUC  498   6.376  18.872   7.214
    2AU     AUC  499   5.969  18.006   7.218
    2AU     AUC  500   6.301  17.986   7.227
    2AU    AUSL  501   6.625  18.368   8.112
    2AU    AUSL  502   6.423  18.016   8.107
    2AU     AUL  503   6.507  18.325   8.425
    2AU       S  504   6.701  17.622   8.255
    2AU     LIG  505   6.703  17.378   8.629
    2AU     LIG  506   6.966  17.044   8.791
    2AU     LIG  507   7.264  16.740   8.975
    2AU     LIG  508   7.566  16.635   9.291
    2AU       S  509   6.898  18.029   8.453
    2AU     LIG  510   7.037  18.116   8.878
    2AU     LIG  511   7.145  18.114   9.328
    2AU     LIG  512   7.277  17.966   9.753
    2AU     LIG  513   7.611  17.921  10.086
    2AU    AUSL  514   6.223  18.239   8.253
    2AU    AUSL  515   6.025  18.602   8.261
    2AU     AUL  516   6.192  18.425   8.575
    2AU       S  517   6.541  17.892   8.640
    2AU     LIG  518   6.657  17.850   9.102
    2AU     LIG  519   6.793  17.812   9.556
    2AU     LIG  520   6.867  17.737  10.016
    2AU     LIG  521   6.799  17.625  10.474
    2AU       S  522   5.715  18.496   8.724
    2AU     LIG  523   5.528  18.536   9.162
    2AU     LIG  524   5.483  18.388   9.617
    2AU     LIG  525   5.359  18.411  10.074
    2AU     LIG  526   5.305  18.666  10.471
    2AU    AUSL  527   6.372  18.624   8.239
    2AU    AUSL  528   6.749  18.691   7.997
    2AU     AUL  529   6.756  18.578   8.364
    2AU       S  530   6.391  18.912   8.604
    2AU     LIG  531   6.661  19.054   8.983
    2AU     LIG  532   6.709  19.057   9.477
    2AU     LIG  533   6.708  18.991   9.970
    2AU     LIG  534   6.700  19.062  10.453
    2AU       S  535   7.010  19.004   8.284
    2AU     LIG  536   7.441  19.015   8.412
    2AU     LIG  537   7.753  19.289   8.608
    2AU     LIG  538   7.970  19.601   8.882
    2AU     LIG  539   8.128  19.782   9.289
    2AU    AUSL  540   6.667  18.510   6.873
    2AU    AUSL  541   6.526  18.844   6.928
    2AU     AUL  542   6.480  18.874   6.602
    2AU       S  543   6.873  18.525   6.448
    2AU     LIG  544   7.107  18.306   6.090
    2AU     LIG  545   7.101  18.114   5.663
    2AU     LIG  546   7.207  18.091   5.211
    2AU     LIG  547   7.552  18.051   4.917
    2AU       S  548   6.972  18.973   6.664
    2AU     LIG  549   7.129  19.248   6.285
    2AU     LIG  550   7.356  19.565   5.957
    2AU     LIG  551   7.660  19.910   5.749
    2AU     LIG  552   7.964  20.094   5.408
    2AU    AUSL  553   6.453  18.245   6.777
    2AU    AUSL  554   6.698  18.123   7.032
    2AU     AUL  555   6.919  18.276   6.881
    2AU       S  556   6.870  17.822   6.644
    2AU     LIG  557   7.159  17.555   6.354
    2AU     LIG  558   7.476  17.186   6.298
    2AU     LIG  559   7.907  17.059   6.080
    2AU     LIG  560   8.297  17.253   5.851
    2AU       S  561   6.709  18.216   6.395
    2AU     LIG  562   6.767  17.899   6.058
    2AU     LIG  563   6.668  17.854   5.581
    2AU     LIG  564   6.783  17.820   5.112
    2AU     LIG  565   7.081  17.804   4.746
    2AU    AUSL  566   6.361  18.576   6.738
    2AU    AUSL  567   6.063  18.276   6.785
    2AU     AUL  568   6.218  18.325   6.484
    2AU       S  569   5.700  18.295   6.321
    2AU     LIG  570   5.664  17.946   6.022
    2AU     LIG  571   5.672  17.836   5.555
    2AU     LIG  572   5.591  17.867   5.089
    2AU     LIG  573   5.291  17.886   4.725
    2AU       S  574   6.654  18.502   6.288
    2AU     LIG  575   6.664  18.352   5.812
    2AU     LIG  576   6.738  18.302   5.316
    2AU     LIG  577   6.868  18.270   4.837
    2AU     LIG  578   6.953  18.521   4.429
    2AU    AUSL  579   5.701  18.561   8.129
    2AU    AUSL  580   5.906  18.876   8.048
    2AU     AUL  581   5.849  18.866   8.395
    2AU       S  582   5.492  18.541   8.588
    2AU     LIG  583   5.205  18.284   8.832
    2AU     LIG  584   5.123  18.201   9.282
    2AU     LIG  585   4.995  18.217   9.735
    2AU     LIG  586   4.707  18.412  10.063
    2AU       S  587   5.465  19.181   8.230
    2AU     LIG  588   5.404  19.355   8.655
    2AU     LIG  589   5.342  19.608   9.031
    2AU     LIG  590   5.109  19.641   9.417
    2AU     LIG  591   4.848  19.700   9.801
    2AU    AUSL  592   5.872  18.279   8.221
    2AU    AUSL  593   5.612  18.203   7.956
    2AU     AUL  594   5.424  18.376   8.126
    2AU       S  595   5.353  17.916   8.330
    2AU     LIG  596   4.852  17.895   8.306
    2AU     LIG  597   4.457  17.634   8.423
    2AU     LIG  598   4.349  17.317   8.750
    2AU     LIG  599   4.119  16.976   8.992
    2AU       S  600   5.675  18.241   8.592
    2AU     LIG  601   5.620  18.050   9.022
    2AU     LIG  602   5.502  17.898   9.451
    2AU     LIG  603   5.413  17.923   9.907
    2AU     LIG  604   5.598  17.890  10.339
    2AU    AUSL  605   5.750  18.422   6.825
    2AU    AUSL  606   5.856  18.022   6.929
    2AU     AUL  607   5.985  18.031   6.621
    2AU       S  608   5.516  18.414   6.466
    2AU     LIG  609   5.221  18.143   6.202
    2AU     LIG  610   5.220  17.979   5.756
    2AU     LIG  611   5.123  17.960   5.280
    2AU     LIG  612   4.890  18.157   4.920
    2AU       S  613   5.489  17.903   6.584
    2AU     LIG  614   5.240  17.560   6.322
    2AU     LIG  615   4.961  17.153   6.323
    2AU     LIG  616   4.728  16.786   6.124
    2AU     LIG  617   4.553  16.595   5.740
    2AU    AUSL  618   6.028  18.621   6.725
    2AU    AUSL  619   5.618  18.736   6.982
    2AU     AUL  620   5.781  18.814   6.648
    2AU       S  621   5.287  18.914   6.704
    2AU     LIG  622   4.988  19.171   6.465
    2AU     LIG  623   4.928  19.401   6.063
    2AU     LIG  624   4.693  19.622   5.722
    2AU     LIG  625   4.231  19.597   5.586
    2AU       S  626   5.796  18.525   6.246
    2AU     LIG  627   5.514  18.421   5.868
    2AU     LIG  628   5.481  18.301   5.426
    2AU     LIG  629   5.376  18.335   4.978
    2AU     LIG  630   5.244  18.363   4.521
    2AU    AUSL  631   6.841  18.843   7.484
    2AU    AUSL  632   6.824  18.709   7.123
    2AU     AUL  633   6.930  19.137   7.351
    2AU       S  634   7.124  18.809   6.870
    2AU     LIG  635   7.469  18.907   6.558
    2AU     LIG  636   7.644  19.222   6.246
    2AU     LIG  637   7.880  19.501   5.957
    2AU     LIG  638   8.166  19.667   5.613
    2AU       S  639   7.362  18.874   7.313
    2AU     LIG  640   7.884  18.898   7.411
    2AU     LIG  641   8.330  19.041   7.463
    2AU     LIG  642   8.629  19.387   7.548
    2AU     LIG  643   8.646  19.860   7.586
    2AU    AUSL  644   6.958  18.506   7.375
    2AU    AUSL  645   6.884  18.236   7.654
    2AU     AUL  646   7.190  18.396   7.752
    2AU       S  647   7.339  18.560   7.251
    2AU     LIG  648   7.724  18.670   6.988
    2AU     LIG  649   8.192  18.829   7.005
    2AU     LIG  650   8.649  19.019   7.063
    2AU     LIG  651   9.030  19.077   6.792
    2AU       S  652   7.329  17.938   7.541
    2AU     LIG  653   7.725  17.855   7.702
    2AU     LIG  654   8.145  17.766   7.847
    2AU     LIG  655   8.562  17.802   8.031
    2AU     LIG  656   8.937  17.838   8.299
    2AU    AUSL  657   6.894  18.580   7.705
    2AU    AUSL  658   6.680  18.989   7.773
    2AU     AUL  659   7.029  18.883   7.792
    2AU       S  660   6.987  19.257   8.138
    2AU     LIG  661   7.342  19.515   8.336
    2AU     LIG  662   7.700  19.800   8.473
    2AU     LIG  663   7.989  20.094   8.680
    2AU     LIG  664   8.118  20.250   9.081
    2AU       S  665   7.421  18.746   7.495
    2AU     LIG  666   7.731  18.700   7.851
    2AU     LIG  667   8.176  18.781   7.887
    2AU     LIG  668   8.623  18.867   7.848
    2AU     LIG  669   8.994  19.129   7.976
    2AU    AUSL  670   5.603  18.979   7.496
    2AU    AUSL  671   5.582  18.793   7.904
    2AU     AUL  672   5.293  18.999   7.681
    2AU       S  673   5.312  18.934   8.208
    2AU     LIG  674   4.983  19.125   8.468
    2AU     LIG  675   4.918  19.344   8.881
    2AU     LIG  676   4.733  19.731   9.073
    2AU     LIG  677   4.388  20.067   9.096
    2AU       S  678   5.495  19.444   7.481
    2AU     LIG  679   5.023  19.599   7.469
    2AU     LIG  680   4.550  19.744   7.514
    2AU     LIG  681   4.160  20.008   7.531
    2AU     LIG  682   3.956  20.315   7.833
    2AU    AUSL  683   5.472  18.647   7.273
    2AU    AUSL  684   5.734  19.043   7.181
    2AU     AUL  685   5.363  18.962   7.219
    2AU       S  686   5.089  18.521   6.923
    2AU     LIG  687   4.706  18.813   6.766
    2AU     LIG  688   4.231  18.982   6.839
    2AU     LIG  689   3.841  19.251   6.758
    2AU     LIG  690   3.431  19.441   6.860
    2AU       S  691   5.493  19.407   6.978
    2AU     LIG  692   5.157  19.624   6.681
    2AU     LIG  693   4.967  19.871   6.297
    2AU     LIG  694   4.712  20.268   6.116
    2AU     LIG  695   4.597  20.749   6.058
    2AU    AUSL  696   5.430  18.656   7.637
    2AU    AUSL  697   5.384  18.327   7.332
    2AU     AUL  698   5.155  18.682   7.409
    2AU       S  699   4.904  18.228   7.404
    2AU     LIG  700   4.466  18.070   7.328
    2AU     LIG  701   4.157  17.798   7.147
    2AU     LIG  702   3.732  17.751   7.236
    2AU     LIG  703   3.296  17.840   7.063
    2AU       S  704   5.003  18.638   7.919
    2AU     LIG  705   4.646  18.926   8.041
    2AU     LIG  706   4.198  19.084   8.111
    2AU     LIG  707   3.915  19.451   8.186
    2AU     LIG  708   3.466  19.590   8.174
    2AU    AUSL  709   6.766  17.920   7.567
    2AU    AUSL  710   6.702  18.094   7.918
    2AU     AUL  711   7.028  18.104   7.918
    2AU       S  712   7.159  17.716   7.601
    2AU     LIG  713   7.498  17.427   7.522
    2AU     LIG  714   7.963  17.378   7.510
    2AU     LIG  715   8.255  17.030   7.697
    2AU     LIG  716   8.398  16.606   7.928
    2AU       S  717   6.917  17.655   8.108
    2AU     LIG  718   7.152  17.344   8.370
    2AU     LIG  719   7.425  17.015   8.553
    2AU     LIG  720   7.746  16.800   8.817
    2AU     LIG  721   8.036  16.826   9.189
    2AU    AUSL  722   6.891  18.176   7.310
    2AU    AUSL  723   6.577  17.872   7.254
    2AU     AUL  724   6.884  17.825   7.193
    2AU       S  725   7.323  18.042   7.331
    2AU     LIG  726   7.683  17.764   7.182
    2AU     LIG  727   8.116  17.625   7.017
    2AU     LIG  728   8.443  17.709   6.697
    2AU     LIG  729   8.953  17.829   6.788
    2AU       S  730   6.828  17.587   6.743
    2AU     LIG  731   7.095  17.188   6.716
    2AU     LIG  732   7.121  16.718   6.604
    2AU     LIG  733   7.426  16.364   6.424
    2AU     LIG  734   7.734  16.233   6.068
    2AU    AUSL  735   5.493  18.020   7.505
    2AU    AUSL  736   5.563  18.216   7.044
    2AU     AUL  737   5.312  17.977   7.222
    2AU       S  738   5.291  18.074   6.722
    2AU     LIG  739   4.904  17.886   6.526
    2AU     LIG  740   4.618  17.527   6.437
    2AU     LIG  741   4.395  17.121   6.319
    2AU     LIG  742   4.177  16.778   6.064
    2AU       S  743   4.922  17.970   7.532
    2AU     LIG  744   4.602  17.598   7.464
    2AU     LIG  745   4.290  17.296   7.222
    2AU     LIG  746   3.903  16.972   7.211
    2AU     LIG  747   3.500  17.003   7.461
    2AU    AUSL  748   5.409  18.321   7.689
    2AU    AUSL  749   5.654  17.886   7.788
    2AU     AUL  750   5.329  18.014   7.826
    2AU       S  751   5.355  17.652   8.166
    2AU     LIG  752   4.901  17.420   8.132
    2AU     LIG  753   4.478  17.164   8.216
    2AU     LIG  754   4.260  16.849   8.505
    2AU     LIG  755   3.970  16.484   8.659
    2AU       S  756   4.911  18.241   7.637
    2AU     LIG  757   4.527  18.009   7.838
    2AU     LIG  758   4.162  17.777   7.656
    2AU     LIG  759   3.727  17.777   7.773
    2AU     LIG  760   3.267  17.806   7.900
    2AU    AUSL  761   6.186  19.087   7.930
    2AU    AUSL  762   5.783  19.075   7.793
    2AU     AUL  763   5.973  19.162   8.192
    2AU       S  764   5.541  19.381   7.979
    2AU     LIG  765   5.169  19.576   8.239
    2AU     LIG  766   5.050  19.778   8.638
    2AU     LIG  767   4.864  20.162   8.818
    2AU     LIG  768   4.564  20.500   8.822
    2AU       S  769   6.151  19.601   8.046
    2AU     LIG  770   6.346  19.824   8.397
    2AU     LIG  771   6.324  20.260   8.543
    2AU     LIG  772   6.484  20.693   8.616
    2AU     LIG  773   6.569  21.083   8.876
    2AU    AUSL  774   6.041  19.219   7.617
    2AU    AUSL  775   6.397  19.195   7.289
    2AU     AUL  776   6.254  19.462   7.446
    2AU       S  777   5.969  19.641   7.833
    2AU     LIG  778   6.107  20.119   8.044
    2AU     LIG  779   6.201  20.597   8.156
    2AU     LIG  780   5.926  20.957   8.234
    2AU     LIG  781   5.703  21.278   8.482
    2AU       S  782   6.386  19.677   7.016
    2AU     LIG  783   6.590  20.132   6.945
    2AU     LIG  784   6.851  20.528   6.808
    2AU     LIG  785   7.124  20.933   6.735
    2AU     LIG  786   7.055  21.391   6.640
    2AU    AUSL  787   6.403  19.185   7.648
    2AU    AUSL  788   6.465  18.905   8.060
    2AU     AUL  789   6.514  19.245   7.965
    2AU       S  790   6.773  19.127   8.383
    2AU     LIG  791   7.089  19.275   8.716
    2AU     LIG  792   7.421  19.596   8.857
    2AU     LIG  793   7.655  19.952   9.075
    2AU     LIG  794   7.725  19.998   9.533
    2AU       S  795   6.338  19.704   7.867
    2AU     LIG  796   6.625  20.032   8.017
    2AU     LIG  797   6.691  20.424   8.224
    2AU     LIG  798   6.730  20.876   8.168
    2AU     LIG  799   6.915  21.246   8.348
    2AU    AUSL  800   6.141  17.811   7.932
    2AU    AUSL  801   6.497  17.825   7.822
    2AU     AUL  802   6.223  17.789   8.228
    2AU       S  803   6.283  17.311   8.067
    2AU     LIG  804   6.103  16.936   8.325
    2AU     LIG  805   6.091  16.498   8.470
    2AU     LIG  806   5.983  16.039   8.454
    2AU     LIG  807   6.104  15.641   8.674
    2AU       S  808   6.729  17.524   7.958
    2AU     LIG  809   6.742  17.114   8.182
    2AU     LIG  810   7.003  16.760   8.353
    2AU     LIG  811   7.361  16.501   8.539
    2AU     LIG  812   7.613  16.288   8.886
    2AU    AUSL  813   5.926  17.713   7.664
    2AU    AUSL  814   5.863  17.973   8.073
    2AU     AUL  815   5.828  17.620   7.985
    2AU       S  816   6.095  17.205   7.913
    2AU     LIG  817   5.712  16.901   7.982
    2AU     LIG  818   5.611  16.432   7.962
    2AU     LIG  819   5.633  15.977   8.061
    2AU     LIG  820   5.706  15.595   8.330
    2AU       S  821   5.574  17.790   8.400
    2AU     LIG  822   5.160  17.538   8.602
    2AU     LIG  823   4.827  17.205   8.600
    2AU     LIG  824   4.625  16.890   8.874
    2AU     LIG  825   4.601  16.739   9.314
    2AU    AUSL  826   6.265  17.644   7.643
    2AU    AUSL  827   5.926  17.703   7.305
    2AU     AUL  828   5.920  17.423   7.506
    2AU       S  829   6.004  17.218   7.046
    2AU     LIG  830   5.886  16.748   7.122
    2AU     LIG  831   5.755  16.279   7.077
    2AU     LIG  832   5.497  15.962   6.835
    2AU     LIG  833   5.296  15.612   6.587
    2AU       S  834   6.357  17.237   7.778
    2AU     LIG  835   6.163  16.728   7.848
    2AU     LIG  836   6.131  16.303   7.999
    2AU     LIG  837   6.424  16.014   8.188
    2AU     LIG  838   6.541  15.591   8.365
    2AU    AUSL  839   6.248  19.059   6.987
    2AU    AUSL  840   6.651  18.980   7.222
    2AU     AUL  841   6.592  19.205   6.963
    2AU       S  842   6.254  19.544   6.779
    2AU     LIG  843   6.469  19.866   6.520
    2AU     LIG  844   6.479  20.333   6.462
    2AU     LIG  845   6.265  20.744   6.309
    2AU     LIG  846   6.139  20.953   5.893
    2AU       S  847   7.100  19.103   6.879
    2AU     LIG  848   7.414  19.414   6.676
    2AU     LIG  849   7.605  19.752   6.368
    2AU     LIG  850   7.703  20.207   6.195
    2AU     LIG  851   7.946  20.400   5.839
    2AU    AUSL  852   6.036  19.200   7.256
    2AU    AUSL  853   5.942  18.873   6.956
    2AU     AUL  854   5.937  19.168   6.870
    2AU       S  855   6.033  19.648   7.023
    2AU     LIG  856   6.098  20.081   6.809
    2AU     LIG  857   6.169  20.564   6.801
    2AU     LIG  858   5.978  21.011   6.718
    2AU     LIG  859   5.625  21.295   6.540
    2AU       S  860   5.456  19.199   6.723
    2AU     LIG  861   5.412  19.418   6.288
    2AU     LIG  862   5.302  19.715   5.921
    2AU     LIG  863   5.098  19.969   5.569
    2AU     LIG  864   5.230  20.269   5.217
    2AU    AUSL  865   6.123  17.793   7.014
    2AU    AUSL  866   5.662  17.909   7.206
    2AU     AUL  867   5.776  17.664   6.976
    2AU       S  868   5.329  17.774   6.770
    2AU     LIG  869   4.995  17.432   6.781
    2AU     LIG  870   4.675  17.067   6.751
    2AU     LIG  871   4.481  16.650   6.567
    2AU     LIG  872   4.187  16.346   6.337
    2AU       S  873   6.166  17.359   6.809
    2AU     LIG  874   6.096  16.937   6.617
    2AU     LIG  875   6.057  16.478   6.691
    2AU     LIG  876   6.014  16.036   6.583
    2AU     LIG  877   5.982  15.798   6.167
    2AU    AUSL  878   6.280  17.681   7.312
    2AU    AUSL  879   6.414  17.944   6.930
    2AU     AUL  880   6.494  17.620   7.095
    2AU       S  881   6.251  17.193   7.124
    2AU     LIG  882   6.368  16.752   6.995
    2AU     LIG  883   6.292  16.318   7.125
    2AU     LIG  884   6.309  15.866   6.999
    2AU     LIG  885   6.428  15.487   6.761
    2AU       S  886   6.569  17.743   6.588
    2AU     LIG  887   6.672  17.413   6.288
    2AU     LIG  888   6.964  17.060   6.237
    2AU     LIG  889   7.274  16.756   6.081
    2AU     LIG  890   7.336  16.516   5.695
    3AU     AUC  891  10.813   0.185   7.508
    3AU     AUC  892  11.086   0.173   7.350
    3AU     AUC  893  11.077   0.177   7.677
    3AU     AUC  894  10.548   0.194   7.342
    3AU     AUC  895  10.544   0.203   7.669
    3AU     AUC  896  10.662   0.462   7.497
    3AU     AUC  897  10.990   0.449   7.504
    3AU     AUC  898  10.632  44.921   7.510
    3AU     AUC  899  10.963  44.906   7.513
    3AU     AUC  900  10.799   0.023   7.776
    3AU     AUC  901  10.819   0.355   7.772
    3AU     AUC  902  10.813   0.016   7.246
    3AU     AUC  903  10.826   0.344   7.236
    3AU     AUC  904  11.354   0.171   7.199
    3AU     AUC  905  11.357   0.164   7.514
    3AU     AUC  906  11.331   0.170   7.833
    3AU     AUC  907  10.294   0.197   7.173
    3AU     AUC  908  10.268   0.211   7.509
    3AU     AUC  909  10.288   0.228   7.832
    3AU     AUC  910  10.525   0.736   7.484
    3AU     AUC  911  10.837   0.739   7.478
    3AU     AUC  912  11.159   0.702   7.497
    3AU     AUC  913  10.453  44.668   7.513
    3AU     AUC  914  10.779  44.628   7.509
    3AU     AUC  915  11.111  44.638   7.524
    3AU     AUC  916  10.780  44.866   8.032
    3AU     AUC  917  10.799   0.189   8.061
    3AU     AUC  918  10.826   0.512   8.029
    3AU     AUC  919  10.828  44.855   6.994
    3AU     AUC  920  10.846   0.175   6.965
    3AU     AUC  921  10.844   0.484   6.967
    3AU     AUC  922  11.064   0.008   7.954
    3AU     AUC  923  11.093   0.348   7.954
    3AU     AUC  924  11.101   0.012   7.079
    3AU     AUC  925  11.114   0.343   7.077
    3AU     AUC  926  10.529   0.044   7.952
    3AU     AUC  927  10.545   0.373   7.942
    3AU     AUC  928  10.545   0.024   7.076
    3AU     AUC  929  10.554   0.337   7.051
    3AU     AUC  930  11.275   0.436   7.353
    3AU     AUC  931  11.262   0.450   7.686
    3AU     AUC  932  10.389   0.480   7.321
    3AU     AUC  933  10.388   0.495   7.666
    3AU     AUC  934  11.248  44.889   7.357
    3AU     AUC  935  11.232  44.892   7.681
    3AU     AUC  936  10.346  44.932   7.349
    3AU     AUC  937  10.358  44.931   7.683
    3AU     AUC  938  10.670   0.644   7.757
    3AU     AUC  939  11.000   0.628   7.770
    3AU     AUC  940  10.618  44.746   7.781
    3AU     AUC  941  10.956  44.736   7.786
    3AU     AUC  942  10.670   0.627   7.217
    3AU     AUC  943  11.002   0.616   7.221
    3AU     AUC  944  10.622  44.743   7.240
    3AU     AUC  945  10.963  44.730   7.240
    3AU    AUSL  946  11.282   0.129   8.120
    3AU    AUSL  947  11.094  44.758   8.111
    3AU     AUL  948  11.166   0.073   8.430
    3AU       S  949  11.472  44.391   8.245
    3AU     LIG  950  11.661  44.079   8.521
    3AU     LIG  951  11.836  43.697   8.761
    3AU     LIG  952  11.902  43.516   9.178
    3AU     LIG  953  12.055  43.818   9.507
    3AU       S  954  11.582  44.814   8.458
    3AU     LIG  955  11.707  44.783   8.899
    3AU     LIG  956  11.786  44.796   9.362
    3AU     LIG  957  12.095  44.790   9.716
    3AU     LIG  958  12.199  44.777  10.167
    3AU    AUSL  959  10.886  44.976   8.258
    3AU    AUSL  960  10.671   0.348   8.275
    3AU     AUL  961  10.848   0.160   8.578
    3AU       S  962  11.225  44.631   8.621
    3AU     LIG  963  11.272  44.584   9.088
    3AU     LIG  964  11.387  44.515   9.536
    3AU     LIG  965  11.676  44.556   9.903
    3AU     LIG  966  11.776  44.544  10.363
    3AU       S  967  10.377   0.229   8.746
    3AU     LIG  968  10.217   0.159   9.178
    3AU     LIG  969  10.113   0.095   9.626
    3AU     LIG  970   9.945   0.155  10.050
    3AU     LIG  971   9.869   0.526  10.342
    3AU    AUSL  972  11.018   0.373   8.250
    3AU    AUSL  973  11.392   0.456   8.005
    3AU     AUL  974  11.400   0.345   8.374
    3AU       S  975  11.020   0.657   8.616
    3AU     LIG  976  11.239   0.831   8.996
    3AU     LIG  977  11.289   0.893   9.472
    3AU     LIG  978  11.409   0.948   9.934
    3AU     LIG  979  11.578   1.154  10.333
    3AU       S  980  11.646   0.780   8.294
    3AU     LIG  981  12.046   0.996   8.445
    3AU     LIG  982  12.329   1.163   8.783
    3AU     LIG  983  12.641   1.368   9.065
    3AU     LIG  984  13.092   1.438   9.206
    3AU    AUSL  985  11.299   0.269   6.884
    3AU    AUSL  986  11.146   0.594   6.934
    3AU     AUL  987  11.083   0.620   6.616
    3AU       S  988  11.510   0.288   6.461
    3AU     LIG  989  11.827   0.021   6.207
    3AU     LIG  990  11.890  44.784   5.812
    3AU     LIG  991  11.979  44.737   5.346
    3AU     LIG  992  12.166  44.816   4.916
    3AU       S  993  11.573   0.740   6.670
    3AU     LIG  994  11.715   0.958   6.278
    3AU     LIG  995  11.911   1.282   5.986
    3AU     LIG  996  12.237   1.585   5.849
    3AU     LIG  997  12.364   1.857   5.505
    3AU    AUSL  998  11.108  44.988   6.798
    3AU    AUSL  999  11.352  44.879   7.049
    3AU     AUL 1000  11.568   0.056   6.905
    3AU       S 1001  11.556  44.600   6.675
    3AU     LIG 1002  11.909  44.485   6.384
    3AU     LIG 1003  12.226  44.160   6.213
    3AU     LIG 1004  12.301  43.854   5.858
    3AU     LIG 1005  12.645  43.536   5.709
    3AU       S 1006  11.379  44.978   6.413
    3AU     LIG 1007  11.485  44.611   6.123
    3AU     LIG 1008  11.484  44.509   5.654
    3AU     LIG 1009  11.519  44.583   5.173
    3AU     LIG 1010  11.703  44.656   4.733
    3AU    AUSL 1011  10.992   0.306   6.739
    3AU    AUSL 1012  10.709   0.012   6.792
    3AU     AUL 1013  10.883  44.991   6.504
    3AU       S 1014  10.384   0.027   6.321
    3AU     LIG 1015  10.329  44.684   6.025
    3AU     LIG 1016  10.290  44.684   5.569
    3AU     LIG 1017  10.179  44.671   5.121
    3AU     LIG 1018   9.971  44.635   4.706
    3AU       S 1019  11.282   0.256   6.312
    3AU     LIG 1020  11.411   0.065   5.899
    3AU     LIG 1021  11.552   0.010   5.469
    3AU     LIG 1022  11.715   0.075   5.036
    3AU     LIG 1023  11.890   0.144   4.596
    3AU    AUSL 1024  10.343   0.291   8.145
    3AU    AUSL 1025  10.545   0.614   8.063
    3AU     AUL 1026  10.473   0.597   8.409
    3AU       S 1027  10.137   0.264   8.618
    3AU     LIG 1028   9.865  44.968   8.847
    3AU     LIG 1029   9.789  44.853   9.296
    3AU     LIG 1030   9.596  44.913   9.722
    3AU     LIG 1031   9.202  44.853   9.987
    3AU       S 1032  10.120   0.946   8.235
    3AU     LIG 1033  10.206   1.162   8.640
    3AU     LIG 1034  10.179   1.452   8.984
    3AU     LIG 1035   9.846   1.693   9.168
    3AU     LIG 1036   9.710   1.994   9.491
    3AU    AUSL 1037  10.533   0.023   8.244
    3AU    AUSL 1038  10.273  44.936   7.976
    3AU     AUL 1039  10.075   0.084   8.160
    3AU       S 1040  10.051  44.610   8.355
    3AU     LIG 1041   9.675  44.433   8.576
    3AU     LIG 1042   9.189  44.446   8.672
    3AU     LIG 1043   8.798  44.403   8.964
    3AU     LIG 1044   8.593  44.026   9.151
    3AU       S 1045  10.338  44.980   8.618
    3AU     LIG 1046  10.271  44.686   8.973
    3AU     LIG 1047  10.223  44.623   9.439
    3AU     LIG 1048  10.013  44.643   9.861
    3AU     LIG 1049   9.945  44.527  10.311
    3AU    AUSL 1050  10.387   0.143   6.842
    3AU    AUSL 1051  10.505  44.772   6.961
    3AU     AUL 1052  10.608  44.742   6.656
    3AU       S 1053  10.190   0.097   6.463
    3AU     LIG 1054   9.888  44.878   6.181
    3AU     LIG 1055   9.810  44.823   5.705
    3AU     LIG 1056   9.694  44.834   5.222
    3AU     LIG 1057   9.566  44.932   4.767
    3AU       S 1058  10.111  44.622   6.619
    3AU     LIG 1059   9.984  44.200   6.409
    3AU     LIG 1060   9.701  43.948   6.166
    3AU     LIG 1061   9.392  43.553   6.128
    3AU     LIG 1062   9.174  43.256   5.815
    3AU    AUSL 1063  10.659   0.357   6.736
    3AU    AUSL 1064  10.240   0.459   7.003
    3AU     AUL 1065  10.376   0.525   6.668
    3AU       S 1066   9.893   0.659   6.738
    3AU     LIG 1067   9.605   0.953   6.516
    3AU     LIG 1068   9.349   1.092   6.139
    3AU     LIG 1069   9.055   1.159   5.755
    3AU     LIG 1070   8.761   1.008   5.402
    3AU       S 1071  10.492   0.259   6.261
    3AU     LIG 1072  10.212   0.157   5.857
    3AU     LIG 1073  10.089   0.131   5.391
    3AU     LIG 1074  10.037   0.127   4.919
    3AU     LIG 1075  10.182   0.340   4.525
    3AU    AUSL 1076  11.469   0.612   7.488
    3AU    AUSL 1077  11.454   0.475   7.129
    3AU     AUL 1078  11.545   0.908   7.360
    3AU       S 1079  11.739   0.592   6.872
    3AU     LIG 1080  12.076   0.719   6.570
    3AU     LIG 1081  12.250   1.042   6.283
    3AU     LIG 1082  12.513   1.169   5.922
    3AU     LIG 1083  12.694   1.465   5.593
    3AU       S 1084  11.986   0.668   7.299
    3AU     LIG 1085  12.496   0.762   7.325
    3AU     LIG 1086  12.898   0.930   7.552
    3AU     LIG 1087  13.060   1.280   7.842
    3AU     LIG 1088  13.277   1.704   7.810
    3AU    AUSL 1089  11.605   0.284   7.379
    3AU    AUSL 1090  11.545   0.012   7.661
    3AU     AUL 1091  11.851   0.189   7.741
    3AU       S 1092  11.995   0.352   7.249
    3AU     LIG 1093  12.484   0.246   7.257
    3AU     LIG 1094  12.953   0.394   7.180
    3AU     LIG 1095  13.440   0.451   7.154
    3AU     LIG 1096  13.753   0.734   6.946
    3AU       S 1097  12.006  44.717   7.567
    3AU     LIG 1098  12.394  44.463   7.640
    3AU     LIG 1099  12.787  44.299   7.817
    3AU     LIG 1100  13.235  44.329   7.950
    3AU     LIG 1101  13.656  44.286   8.154
    3AU    AUSL 1102  11.541   0.355   7.711
    3AU    AUSL 1103  11.310   0.748   7.784
    3AU     AUL 1104  11.664   0.662   7.797
    3AU       S 1105  11.590   1.028   8.148
    3AU     LIG 1106  11.746   1.409   8.370
    3AU     LIG 1107  12.157   1.559   8.489
    3AU     LIG 1108  12.462   1.747   8.757
    3AU     LIG 1109  12.692   2.156   8.764
    3AU       S 1110  12.059   0.557   7.489
    3AU     LIG 1111  12.434   0.451   7.730
    3AU     LIG 1112  12.882   0.417   7.676
    3AU     LIG 1113  13.308   0.594   7.639
    3AU     LIG 1114  13.619   0.609   7.972
    3AU    AUSL 1115  10.242   0.715   7.517
    3AU    AUSL 1116  10.225   0.533   7.926
    3AU     AUL 1117   9.935   0.739   7.706
    3AU       S 1118   9.960   0.673   8.230
    3AU     LIG 1119   9.849   0.791   8.669
    3AU     LIG 1120   9.739   1.167   8.948
    3AU     LIG 1121   9.419   1.303   9.277
    3AU     LIG 1122   9.029   1.204   9.549
    3AU       S 1123  10.145   1.188   7.496
    3AU     LIG 1124   9.731   1.424   7.366
    3AU     LIG 1125   9.221   1.487   7.431
    3AU     LIG 1126   8.721   1.552   7.491
    3AU     LIG 1127   8.332   1.536   7.209
    3AU    AUSL 1128  10.113   0.382   7.304
    3AU    AUSL 1129  10.358   0.769   7.194
    3AU     AUL 1130   9.993   0.693   7.249
    3AU       S 1131   9.727   0.248   6.955
    3AU     LIG 1132   9.397   0.617   6.918
    3AU     LIG 1133   8.925   0.737   6.881
    3AU     LIG 1134   8.420   0.800   6.875
    3AU     LIG 1135   7.961   0.953   7.008
    3AU       S 1136  10.125   1.138   7.001
    3AU     LIG 1137   9.861   1.417   6.712
    3AU     LIG 1138   9.877   1.813   6.435
    3AU     LIG 1139   9.631   2.202   6.251
    3AU     LIG 1140   9.303   2.507   6.059
    3AU    AUSL 1141  10.071   0.388   7.665
    3AU    AUSL 1142  10.030   0.061   7.359
    3AU     AUL 1143   9.796   0.415   7.437
    3AU       S 1144   9.545  44.962   7.436
    3AU     LIG 1145   9.183  44.820   7.186
    3AU     LIG 1146   8.720  44.708   7.266
    3AU     LIG 1147   8.304  44.460   7.240
    3AU     LIG 1148   7.963  44.472   6.900
    3AU       S 1149   9.655   0.364   7.947
    3AU     LIG 1150   9.183   0.466   7.847
    3AU     LIG 1151   8.793   0.780   7.896
    3AU     LIG 1152   8.461   1.158   7.910
    3AU     LIG 1153   8.060   1.308   8.127
    3AU    AUSL 1154  11.440  44.695   7.576
    3AU    AUSL 1155  11.370  44.860   7.927
    3AU     AUL 1156  11.692  44.909   7.924
    3AU       S 1157  11.848  44.504   7.622
    3AU     LIG 1158  12.042  44.183   7.362
    3AU     LIG 1159  12.101  43.758   7.261
    3AU     LIG 1160  12.435  43.483   7.319
    3AU     LIG 1161  12.836  43.357   7.598
    3AU       S 1162  11.643  44.445   8.093
    3AU     LIG 1163  12.051  44.310   8.281
    3AU     LIG 1164  12.157  44.088   8.674
    3AU     LIG 1165  12.287  43.803   9.002
    3AU     LIG 1166  12.426  43.514   9.315
    3AU    AUSL 1167  11.553  44.953   7.319
    3AU    AUSL 1168  11.251  44.602   7.257
    3AU     AUL 1169  11.561  44.609   7.223
    3AU       S 1170  11.997  44.828   7.345
    3AU     LIG 1171  12.332  44.564   7.138
    3AU     LIG 1172  12.734  44.351   7.174
    3AU     LIG 1173  13.041  44.109   6.927
    3AU     LIG 1174  13.492  44.154   6.848
    3AU       S 1175  11.560  44.377   6.790
    3AU     LIG 1176  12.022  44.094   6.694
    3AU     LIG 1177  11.964  43.739   6.336
    3AU     LIG 1178  11.997  43.303   6.280
    3AU     LIG 1179  12.386  42.992   6.289
    3AU    AUSL 1180  10.146  44.753   7.532
    3AU    AUSL 1181  10.204  44.946   7.068
    3AU     AUL 1182   9.955  44.720   7.256
    3AU       S 1183   9.927  44.790   6.749
    3AU     LIG 1184   9.594  44.547   6.476
    3AU     LIG 1185   9.175  44.477   6.254
    3AU     LIG 1186   8.726  44.310   6.236
    3AU     LIG 1187   8.400  44.039   6.080
    3AU       S 1188   9.567  44.709   7.581
    3AU     LIG 1189   9.090  44.552   7.595
    3AU     LIG 1190   8.704  44.264   7.517
    3AU     LIG 1191   8.467  43.880   7.375
    3AU     LIG 1192   8.383  43.410   7.468
    3AU    AUSL 1193  10.062   0.051   7.715
    3AU    AUSL 1194  10.322  44.621   7.807
    3AU     AUL 1195   9.991  44.742   7.859
    3AU       S 1196  10.042  44.369   8.187
    3AU     LIG 1197   9.560  44.393   8.079
    3AU     LIG 1198   9.245  44.092   8.247
    3AU     LIG 1199   9.128  43.672   8.411
    3AU     LIG 1200   8.888  43.315   8.557
    3AU       S 1201   9.577  44.970   7.660
    3AU     LIG 1202   9.209  44.928   7.917
    3AU     LIG 1203   8.754  44.794   7.906
    3AU     LIG 1204   8.369  44.690   7.691
    3AU     LIG 1205   7.911  44.606   7.696
    3AU    AUSL 1206  10.809   0.829   7.934
    3AU    AUSL 1207  10.434   0.815   7.807
    3AU     AUL 1208  10.634   0.879   8.222
    3AU       S 1209  10.213   1.122   7.991
    3AU     LIG 1210  10.047   1.475   8.270
    3AU     LIG 1211   9.947   1.770   8.646
    3AU     LIG 1212   9.694   2.115   8.877
    3AU     LIG 1213   9.368   2.478   8.866
    3AU       S 1214  10.703   1.327   8.034
    3AU     LIG 1215  10.899   1.469   8.440
    3AU     LIG 1216  11.064   1.887   8.535
    3AU     LIG 1217  10.972   2.331   8.594
    3AU     LIG 1218  10.587   2.511   8.793
    3AU    AUSL 1219  10.681   0.971   7.612
    3AU    AUSL 1220  11.004   0.934   7.295
    3AU     AUL 1221  10.985   1.215   7.472
    3AU       S 1222  10.597   1.387   7.793
    3AU     LIG 1223  10.722   1.814   8.124
    3AU     LIG 1224  10.763   2.240   8.121
    3AU     LIG 1225  10.516   2.587   8.286
    3AU     LIG 1226  10.548   3.007   8.499
    3AU       S 1227  10.917   1.411   7.027
    3AU     LIG 1228  11.158   1.836   7.036
    3AU     LIG 1229  11.370   2.159   6.757
    3AU     LIG 1230  11.658   2.546   6.735
    3AU     LIG 1231  11.786   3.019   6.823
    3AU    AUSL 1232  11.028   0.917   7.658
    3AU    AUSL 1233  11.096   0.659   8.068
    3AU     AUL 1234  11.122   1.005   7.970
    3AU       S 1235  11.385   0.890   8.385
    3AU     LIG 1236  11.627   1.063   8.734
    3AU     LIG 1237  11.892   1.397   8.903
    3AU     LIG 1238  12.164   1.436   9.277
    3AU     LIG 1239  12.196   1.499   9.759
    3AU       S 1240  10.917   1.451   7.891
    3AU     LIG 1241  11.211   1.817   7.943
    3AU     LIG 1242  11.383   2.147   8.221
    3AU     LIG 1243  11.483   2.582   8.364
    3AU     LIG 1244  11.723   3.007   8.320
    3AU    AUSL 1245  10.805  44.562   7.947
    3AU    AUSL 1246  11.200  44.572   7.820
    3AU     AUL 1247  10.983  44.444   8.183
    3AU       S 1248  10.794  43.985   8.077
    3AU     LIG 1249  10.514  43.758   8.397
    3AU     LIG 1250  10.573  43.283   8.463
    3AU     LIG 1251  10.571  43.007   8.786
    3AU     LIG 1252  10.728  42.673   9.021
    3AU       S 1253  11.456  44.275   7.931
    3AU     LIG 1254  11.881  44.042   7.885
    3AU     LIG 1255  12.005  43.778   8.242
    3AU     LIG 1256  12.334  43.606   8.510
    3AU     LIG 1257  12.533  43.369   8.845
    3AU    AUSL 1258  10.586  44.432   7.674
    3AU    AUSL 1259  10.533  44.723   8.093
    3AU     AUL 1260  10.514  44.398   8.018
    3AU       S 1261  10.576  43.934   7.862
    3AU     LIG 1262  10.479  43.599   7.552
    3AU     LIG 1263  10.252  43.236   7.756
    3AU     LIG 1264  10.179  42.847   8.068
    3AU     LIG 1265  10.093  42.421   8.338
    3AU       S 1266  10.273  44.523   8.440
    3AU     LIG 1267  10.137  44.094   8.604
    3AU     LIG 1268   9.849  43.749   8.730
    3AU     LIG 1269   9.412  43.529   8.849
    3AU     LIG 1270   9.424  43.175   9.089
    3AU    AUSL 1271  10.950  44.401   7.671
    3AU    AUSL 1272  10.578  44.436   7.320
    3AU     AUL 1273  10.755  44.182   7.481
    3AU       S 1274  10.536  43.946   7.096
    3AU     LIG 1275  10.277  43.541   7.078
    3AU     LIG 1276  10.263  43.086   7.107
    3AU     LIG 1277  10.198  42.770   6.770
    3AU     LIG 1278  10.183  42.475   6.375
    3AU       S 1279  10.953  43.956   7.893
    3AU     LIG 1280  10.647  43.485   8.001
    3AU     LIG 1281  10.667  43.035   8.018
    3AU     LIG 1282  10.882  42.764   8.323
    3AU     LIG 1283  10.918  42.273   8.417
    3AU    AUSL 1284  10.860   0.796   6.994
    3AU    AUSL 1285  11.275   0.744   7.222
    3AU     AUL 1286  11.182   0.967   6.959
    3AU       S 1287  10.810   1.304   6.816
    3AU     LIG 1288  10.905   1.696   6.593
    3AU     LIG 1289  10.981   2.037   6.320
    3AU     LIG 1290  11.007   2.229   5.893
    3AU     LIG 1291  10.863   2.554   5.580
    3AU       S 1292  11.694   0.889   6.878
    3AU     LIG 1293  11.936   1.236   6.651
    3AU     LIG 1294  12.115   1.589   6.367
    3AU     LIG 1295  12.371   1.957   6.192
    3AU     LIG 1296  12.715   2.224   5.987
    3AU    AUSL 1297  10.651   0.934   7.262
    3AU    AUSL 1298  10.561   0.600   6.966
    3AU     AUL 1299  10.556   0.884   6.867
    3AU       S 1300  10.600   1.351   7.104
    3AU     LIG 1301  10.637   1.833   7.002
    3AU     LIG 1302  10.792   2.208   6.792
    3AU     LIG 1303  10.628   2.665   6.836
    3AU     LIG 1304  10.709   3.154   6.895
    3AU       S 1305  10.068   0.929   6.761
    3AU     LIG 1306  10.123   1.146   6.367
    3AU     LIG 1307  10.088   1.504   6.082
    3AU     LIG 1308   9.876   1.844   5.838
    3AU     LIG 1309   9.881   2.023   5.390
    3AU    AUSL 1310  10.778  44.536   7.031
    3AU    AUSL 1311  10.308  44.639   7.231
    3AU     AUL 1312  10.441  44.430   6.977
    3AU       S 1313   9.957  44.469   6.831
    3AU     LIG 1314   9.591  44.143   6.809
    3AU     LIG 1315   9.271  43.822   6.862
    3AU     LIG 1316   8.988  43.578   6.573
    3AU     LIG 1317   8.595  43.395   6.346
    3AU       S 1318  10.754  44.055   6.848
    3AU     LIG 1319  10.648  43.611   6.716
    3AU     LIG 1320  10.510  43.206   6.635
    3AU     LIG 1321  10.693  42.967   6.290
    3AU     LIG 1322  10.806  42.789   5.865
    3AU    AUSL 1323  10.950  44.436   7.327
    3AU    AUSL 1324  11.073  44.685   6.945
    3AU     AUL 1325  11.129  44.341   7.064
    3AU       S 1326  10.874  43.906   7.080
    3AU     LIG 1327  10.799  43.442   7.162
    3AU     LIG 1328  10.762  43.004   7.019
    3AU     LIG 1329  11.075  42.760   6.777
    3AU     LIG 1330  11.094  42.352   6.614
    3AU       S 1331  11.285  44.499   6.596
    3AU     LIG 1332  11.220  44.160   6.263
    3AU     LIG 1333  11.420  43.693   6.170
    3AU     LIG 1334  11.617  43.360   5.935
    3AU     LIG 1335  11.812  43.131   5.577
    4AU     AUC 1336  21.153  39.738   7.507
    4AU     AUC 1337  21.422  39.717   7.344
    4AU     AUC 1338  21.419  39.713   7.672
    4AU     AUC 1339  20.886  39.759   7.343
    4AU     AUC 1340  20.887  39.760   7.673
    4AU     AUC 1341  21.012  40.019   7.504
    4AU     AUC 1342  21.341  39.991   7.507
    4AU     AUC 1343  20.963  39.484   7.505
    4AU     AUC 1344  21.292  39.454   7.501
    4AU     AUC 1345  21.137  39.572   7.772
    4AU     AUC 1346  21.169  39.899   7.775
    4AU     AUC 1347  21.143  39.574   7.239
    4AU     AUC 1348  21.167  39.903   7.238
    4AU     AUC 1349  21.684  39.709   7.188
    4AU     AUC 1350  21.697  39.689   7.502
    4AU     AUC 1351  21.675  39.688   7.824
    4AU     AUC 1352  20.630  39.770   7.179
    4AU     AUC 1353  20.609  39.776   7.515
    4AU     AUC 1354  20.636  39.787   7.841
    4AU     AUC 1355  20.884  40.299   7.502
    4AU     AUC 1356  21.194  40.286   7.492
    4AU     AUC 1357  21.518  40.234   7.506
    4AU     AUC 1358  20.778  39.242   7.505
    4AU     AUC 1359  21.105  39.194   7.487
    4AU     AUC 1360  21.425  39.174   7.503
    4AU     AUC 1361  21.115  39.409   8.029
    4AU     AUC 1362  21.145  39.729   8.061
    4AU     AUC 1363  21.185  40.050   8.035
    4AU     AUC 1364  21.148  39.419   6.984
    4AU     AUC 1365  21.177  39.740   6.962
    4AU     AUC 1366  21.184  40.053   6.974
    4AU     AUC 1367  21.401  39.540   7.951
    4AU     AUC 1368  21.446  39.877   7.951
    4AU     AUC 1369  21.426  39.567   7.068
    4AU     AUC 1370  21.451  39.899   7.076
    4AU     AUC 1371  20.869  39.594   7.953
    4AU     AUC 1372  20.898  39.924   7.950
    4AU     AUC 1373  20.873  39.592   7.073
    4AU     AUC 1374  20.892  39.910   7.056
    4AU     AUC 1375  21.619  39.973   7.348
    4AU     AUC 1376  21.624  39.971   7.683
    4AU     AUC 1377  20.735  40.048   7.333
    4AU     AUC 1378  20.744  40.056   7.680
    4AU     AUC 1379  21.572  39.421   7.340
    4AU     AUC 1380  21.552  39.416   7.673
    4AU     AUC 1381  20.677  39.502   7.347
    4AU     AUC 1382  20.691  39.493   7.685
    4AU     AUC 1383  21.033  40.195   7.769
    4AU     AUC 1384  21.362  40.159   7.778
    4AU     AUC 1385  20.949  39.312   7.779
    4AU     AUC 1386  21.278  39.282   7.773
    4AU     AUC 1387  21.017  40.191   7.227
    4AU     AUC 1388  21.350  40.170   7.231
    4AU     AUC 1389  20.945  39.309   7.229
    4AU     AUC 1390  21.284  39.280   7.222
    4AU    AUSL 1391  21.626  39.651   8.112
    4AU    AUSL 1392  21.418  39.294   8.110
    4AU     AUL 1393  21.512  39.607   8.422
    4AU       S 1394  21.740  38.919   8.257
    4AU     LIG 1395  21.836  38.479   8.372
    4AU     LIG 1396  22.044  38.181   8.665
    4AU     LIG 1397  22.408  38.032   8.924
    4AU     LIG 1398  22.446  37.678   9.192
    4AU       S 1399  21.912  39.329   8.460
    4AU     LIG 1400  22.235  39.366   8.796
    4AU     LIG 1401  22.308  39.566   9.222
    4AU     LIG 1402  22.426  39.506   9.670
    4AU     LIG 1403  22.648  39.481  10.088
    4AU    AUSL 1404  21.222  39.518   8.263
    4AU    AUSL 1405  21.025  39.883   8.279
    4AU     AUL 1406  21.202  39.704   8.586
    4AU       S 1407  21.525  39.175   8.640
    4AU     LIG 1408  21.375  39.214   9.104
    4AU     LIG 1409  21.394  39.187   9.589
    4AU     LIG 1410  21.502  39.095  10.052
    4AU     LIG 1411  21.714  39.085  10.488
    4AU       S 1412  20.725  39.759   8.744
    4AU     LIG 1413  20.624  39.696   9.202
    4AU     LIG 1414  20.500  39.659   9.657
    4AU     LIG 1415  20.335  39.708  10.090
    4AU     LIG 1416  20.213  40.053  10.404
    4AU    AUSL 1417  21.372  39.906   8.248
    4AU    AUSL 1418  21.753  39.967   7.987
    4AU     AUL 1419  21.760  39.863   8.357
    4AU       S 1420  21.400  40.189   8.613
    4AU     LIG 1421  21.621  40.372   8.987
    4AU     LIG 1422  21.661  40.425   9.462
    4AU     LIG 1423  21.727  40.397   9.936
    4AU     LIG 1424  21.734  40.559  10.388
    4AU       S 1425  22.023  40.288   8.283
    4AU     LIG 1426  22.407  40.471   8.461
    4AU     LIG 1427  22.559  40.612   8.874
    4AU     LIG 1428  22.884  40.890   9.068
    4AU     LIG 1429  23.228  41.001   9.379
    4AU    AUSL 1430  21.632  39.824   6.880
    4AU    AUSL 1431  21.489  40.156   6.944
    4AU     AUL 1432  21.422  40.193   6.627
    4AU       S 1433  21.843  39.866   6.469
    4AU     LIG 1434  22.128  39.692   6.143
    4AU     LIG 1435  22.153  39.467   5.729
    4AU     LIG 1436  22.178  39.343   5.267
    4AU     LIG 1437  22.302  39.389   4.798
    4AU       S 1438  21.911  40.316   6.679
    4AU     LIG 1439  22.072  40.570   6.317
    4AU     LIG 1440  22.279  40.898   6.030
    4AU     LIG 1441  22.536  41.184   5.738
    4AU     LIG 1442  22.818  41.273   5.354
    4AU    AUSL 1443  21.431  39.554   6.786
    4AU    AUSL 1444  21.670  39.427   7.035
    4AU     AUL 1445  21.895  39.599   6.894
    4AU       S 1446  21.878  39.153   6.644
    4AU     LIG 1447  22.236  38.963   6.379
    4AU     LIG 1448  22.591  38.645   6.305
    4AU     LIG 1449  22.796  38.304   6.044
    4AU     LIG 1450  23.254  38.125   5.999
    4AU       S 1451  21.709  39.557   6.401
    4AU     LIG 1452  21.846  39.229   6.094
    4AU     LIG 1453  21.764  39.145   5.616
    4AU     LIG 1454  21.710  39.169   5.128
    4AU     LIG 1455  21.833  39.239   4.667
    4AU    AUSL 1456  21.326  39.879   6.742
    4AU    AUSL 1457  21.034  39.581   6.786
    4AU     AUL 1458  21.207  39.588   6.491
    4AU       S 1459  20.692  39.600   6.321
    4AU     LIG 1460  20.588  39.241   6.016
    4AU     LIG 1461  20.500  39.093   5.565
    4AU     LIG 1462  20.479  39.137   5.101
    4AU     LIG 1463  20.251  39.215   4.697
    4AU       S 1464  21.621  39.839   6.311
    4AU     LIG 1465  21.681  39.665   5.874
    4AU     LIG 1466  21.760  39.623   5.415
    4AU     LIG 1467  21.880  39.654   4.972
    4AU     LIG 1468  21.953  39.808   4.542
    4AU    AUSL 1469  20.694  39.843   8.154
    4AU    AUSL 1470  20.910  40.164   8.077
    4AU     AUL 1471  20.845  40.141   8.423
    4AU       S 1472  20.493  39.815   8.616
    4AU     LIG 1473  20.236  39.554   8.884
    4AU     LIG 1474  20.195  39.403   9.319
    4AU     LIG 1475  20.037  39.421   9.759
    4AU     LIG 1476  19.682  39.374  10.060
    4AU       S 1477  20.505  40.513   8.255
    4AU     LIG 1478  20.398  40.798   8.604
    4AU     LIG 1479  20.345  41.029   9.006
    4AU     LIG 1480  20.107  41.078   9.397
    4AU     LIG 1481  19.774  41.162   9.714
    4AU    AUSL 1482  20.871  39.561   8.237
    4AU    AUSL 1483  20.612  39.490   7.978
    4AU     AUL 1484  20.417  39.641   8.159
    4AU       S 1485  20.401  39.169   8.369
    4AU     LIG 1486  20.005  38.904   8.514
    4AU     LIG 1487  19.693  38.539   8.585
    4AU     LIG 1488  19.259  38.371   8.698
    4AU     LIG 1489  18.866  38.238   8.938
    4AU       S 1490  20.687  39.516   8.611
    4AU     LIG 1491  20.629  39.232   8.979
    4AU     LIG 1492  20.649  39.204   9.462
    4AU     LIG 1493  20.483  39.199   9.917
    4AU     LIG 1494  20.436  38.962  10.337
    4AU    AUSL 1495  20.718  39.719   6.844
    4AU    AUSL 1496  20.822  39.337   6.944
    4AU     AUL 1497  20.938  39.320   6.642
    4AU       S 1498  20.502  39.698   6.466
    4AU     LIG 1499  20.187  39.478   6.213
    4AU     LIG 1500  20.127  39.398   5.753
    4AU     LIG 1501  20.036  39.327   5.290
    4AU     LIG 1502  19.770  39.302   4.893
    4AU       S 1503  20.431  39.226   6.611
    4AU     LIG 1504  20.202  38.853   6.366
    4AU     LIG 1505  20.005  38.392   6.398
    4AU     LIG 1506  19.842  38.042   6.131
    4AU     LIG 1507  19.904  38.050   5.676
    4AU    AUSL 1508  20.993  39.929   6.743
    4AU    AUSL 1509  20.587  40.039   7.018
    4AU     AUL 1510  20.721  40.101   6.675
    4AU       S 1511  20.255  40.275   6.755
    4AU     LIG 1512  20.040  40.399   6.391
    4AU     LIG 1513  20.024  40.748   6.104
    4AU     LIG 1514  19.735  41.034   5.910
    4AU     LIG 1515  19.362  41.270   5.773
    4AU       S 1516  20.799  39.837   6.261
    4AU     LIG 1517  20.529  39.728   5.857
    4AU     LIG 1518  20.485  39.585   5.394
    4AU     LIG 1519  20.537  39.609   4.909
    4AU     LIG 1520  20.426  39.776   4.475
    4AU    AUSL 1521  21.824  40.122   7.493
    4AU    AUSL 1522  21.795  40.025   7.119
    4AU     AUL 1523  21.919  40.423   7.369
    4AU       S 1524  22.077  40.154   6.867
    4AU     LIG 1525  22.327  40.136   6.457
    4AU     LIG 1526  22.550  40.444   6.158
    4AU     LIG 1527  22.800  40.811   5.979
    4AU     LIG 1528  23.058  41.170   5.804
    4AU       S 1529  22.355  40.173   7.355
    4AU     LIG 1530  22.833  40.354   7.429
    4AU     LIG 1531  23.295  40.558   7.467
    4AU     LIG 1532  23.572  40.766   7.803
    4AU     LIG 1533  23.858  41.146   7.727
    4AU    AUSL 1534  21.933  39.806   7.342
    4AU    AUSL 1535  21.845  39.511   7.649
    4AU     AUL 1536  22.173  39.571   7.548
    4AU       S 1537  22.339  39.927   7.222
    4AU     LIG 1538  22.810  39.893   7.210
    4AU     LIG 1539  23.242  40.089   7.237
    4AU     LIG 1540  23.658  40.277   7.210
    4AU     LIG 1541  24.000  40.402   6.944
    4AU       S 1542  22.253  39.056   7.662
    4AU     LIG 1543  22.707  39.179   7.716
    4AU     LIG 1544  23.078  38.936   7.870
    4AU     LIG 1545  23.534  38.846   7.865
    4AU     LIG 1546  23.925  38.765   8.145
    4AU    AUSL 1547  21.927  39.845   7.700
    4AU    AUSL 1548  21.678  40.275   7.787
    4AU     AUL 1549  22.018  40.173   7.790
    4AU       S 1550  21.976  40.551   8.136
    4AU     LIG 1551  22.200  40.929   8.348
    4AU     LIG 1552  22.604  41.024   8.583
    4AU     LIG 1553  22.819  41.366   8.826
    4AU     LIG 1554  23.143  41.727   8.845
    4AU       S 1555  22.432  39.997   7.559
    4AU     LIG 1556  22.777  40.064   7.849
    4AU     LIG 1557  23.210  40.222   7.829
    4AU     LIG 1558  23.663  40.246   7.728
    4AU     LIG 1559  23.938  40.459   8.017
    4AU    AUSL 1560  20.601  40.282   7.539
    4AU    AUSL 1561  20.588  40.098   7.943
    4AU     AUL 1562  20.295  40.304   7.732
    4AU       S 1563  20.334  40.245   8.253
    4AU     LIG 1564  20.250  40.303   8.708
    4AU     LIG 1565  20.060  40.596   9.033
    4AU     LIG 1566  19.726  40.732   9.346
    4AU     LIG 1567  19.344  40.929   9.528
    4AU       S 1568  20.487  40.749   7.515
    4AU     LIG 1569  19.971  40.761   7.425
    4AU     LIG 1570  19.472  40.856   7.461
    4AU     LIG 1571  19.149  41.178   7.655
    4AU     LIG 1572  18.737  41.357   7.835
    4AU    AUSL 1573  20.454  39.954   7.317
    4AU    AUSL 1574  20.710  40.340   7.213
    4AU     AUL 1575  20.350  40.268   7.276
    4AU       S 1576  20.037  39.930   6.999
    4AU     LIG 1577  19.839  40.463   7.014
    4AU     LIG 1578  19.248  40.530   7.051
    4AU     LIG 1579  18.731  40.325   7.049
    4AU     LIG 1580  18.127  40.495   6.881
    4AU       S 1581  20.441  40.707   7.014
    4AU     LIG 1582  20.088  40.867   6.673
    4AU     LIG 1583  20.036  41.219   6.324
    4AU     LIG 1584  19.793  41.536   6.052
    4AU     LIG 1585  19.357  41.748   5.983
    4AU    AUSL 1586  20.430  39.955   7.683
    4AU    AUSL 1587  20.364  39.631   7.362
    4AU     AUL 1588  20.154  39.987   7.480
    4AU       S 1589  19.891  39.521   7.417
    4AU     LIG 1590  19.362  39.448   7.278
    4AU     LIG 1591  18.893  39.379   7.269
    4AU     LIG 1592  18.658  38.949   7.159
    4AU     LIG 1593  18.268  38.694   6.996
    4AU       S 1594  20.007  39.944   7.979
    4AU     LIG 1595  19.556  40.110   7.889
    4AU     LIG 1596  19.211  40.358   8.126
    4AU     LIG 1597  18.760  40.524   8.250
    4AU     LIG 1598  18.328  40.327   8.201
    4AU    AUSL 1599  21.742  39.203   7.551
    4AU    AUSL 1600  21.699  39.372   7.926
    4AU     AUL 1601  22.028  39.441   7.879
    4AU       S 1602  22.044  38.920   7.599
    4AU     LIG 1603  22.264  38.584   7.361
    4AU     LIG 1604  22.637  38.356   7.185
    4AU     LIG 1605  23.043  38.135   7.317
    4AU     LIG 1606  23.470  38.097   7.539
    4AU       S 1607  21.941  38.987   8.097
    4AU     LIG 1608  22.258  38.774   8.376
    4AU     LIG 1609  22.481  38.389   8.542
    4AU     LIG 1610  22.794  38.372   8.843
    4AU     LIG 1611  23.094  38.732   8.854
    4AU    AUSL 1612  21.884  39.467   7.309
    4AU    AUSL 1613  21.564  39.129   7.219
    4AU     AUL 1614  21.882  39.163   7.179
    4AU       S 1615  22.321  39.104   7.391
    4AU     LIG 1616  22.629  38.869   7.111
    4AU     LIG 1617  23.036  38.643   7.066
    4AU     LIG 1618  23.464  38.851   7.102
    4AU     LIG 1619  23.866  38.804   6.876
    4AU       S 1620  21.841  38.902   6.757
    4AU     LIG 1621  22.260  38.659   6.795
    4AU     LIG 1622  22.472  38.266   6.636
    4AU     LIG 1623  22.448  37.914   6.322
    4AU     LIG 1624  22.719  37.511   6.294
    4AU    AUSL 1625  20.478  39.324   7.534
    4AU    AUSL 1626  20.531  39.523   7.071
    4AU     AUL 1627  20.296  39.263   7.261
    4AU       S 1628  20.239  39.415   6.770
    4AU     LIG 1629  19.865  39.210   6.554
    4AU     LIG 1630  19.670  38.782   6.425
    4AU     LIG 1631  19.459  38.361   6.308
    4AU     LIG 1632  19.015  38.150   6.288
    4AU       S 1633  19.908  39.323   7.575
    4AU     LIG 1634  19.616  39.039   7.406
    4AU     LIG 1635  19.181  38.946   7.304
    4AU     LIG 1636  18.954  38.619   7.488
    4AU     LIG 1637  18.961  38.147   7.490
    4AU    AUSL 1638  20.399  39.618   7.722
    4AU    AUSL 1639  20.644  39.175   7.810
    4AU     AUL 1640  20.317  39.300   7.868
    4AU       S 1641  20.405  38.933   8.202
    4AU     LIG 1642  20.139  38.521   8.186
    4AU     LIG 1643  19.807  38.174   8.234
    4AU     LIG 1644  19.475  37.952   8.485
    4AU     LIG 1645  19.275  37.906   8.910
    4AU       S 1646  19.918  39.562   7.669
    4AU     LIG 1647  19.485  39.591   7.746
    4AU     LIG 1648  19.187  39.248   7.715
    4AU     LIG 1649  18.765  39.070   7.656
    4AU     LIG 1650  18.482  38.843   7.934
    4AU    AUSL 1651  21.178  40.370   7.952
    4AU    AUSL 1652  20.808  40.376   7.822
    4AU     AUL 1653  21.013  40.429   8.239
    4AU       S 1654  20.601  40.685   8.000
    4AU     LIG 1655  20.607  41.106   8.221
    4AU     LIG 1656  20.383  41.334   8.589
    4AU     LIG 1657  20.046  41.609   8.773
    4AU     LIG 1658  19.599  41.734   8.799
    4AU       S 1659  21.064  40.883   8.046
    4AU     LIG 1660  21.077  41.136   8.448
    4AU     LIG 1661  21.293  41.532   8.572
    4AU     LIG 1662  21.427  41.960   8.747
    4AU     LIG 1663  21.459  42.411   8.923
    4AU    AUSL 1664  21.067  40.531   7.631
    4AU    AUSL 1665  21.359  40.484   7.322
    4AU     AUL 1666  21.456  40.744   7.524
    4AU       S 1667  20.982  40.945   7.754
    4AU     LIG 1668  21.095  41.415   8.035
    4AU     LIG 1669  21.021  41.907   8.080
    4AU     LIG 1670  20.731  42.197   8.292
    4AU     LIG 1671  20.608  42.661   8.380
    4AU       S 1672  21.280  40.964   7.111
    4AU     LIG 1673  21.557  41.338   6.949
    4AU     LIG 1674  21.676  41.775   6.797
    4AU     LIG 1675  21.659  42.239   6.830
    4AU     LIG 1676  21.926  42.647   6.870
    4AU    AUSL 1677  21.393  40.438   7.677
    4AU    AUSL 1678  21.468  40.187   8.069
    4AU     AUL 1679  21.494  40.542   7.984
    4AU       S 1680  21.777  40.401   8.376
    4AU     LIG 1681  21.989  40.619   8.711
    4AU     LIG 1682  22.187  40.977   8.887
    4AU     LIG 1683  22.471  41.176   9.163
    4AU     LIG 1684  22.762  41.181   9.529
    4AU       S 1685  21.266  40.980   7.910
    4AU     LIG 1686  21.599  41.336   7.977
    4AU     LIG 1687  21.504  41.753   8.161
    4AU     LIG 1688  21.413  42.192   8.288
    4AU     LIG 1689  21.615  42.626   8.249
    4AU    AUSL 1690  21.145  39.104   7.937
    4AU    AUSL 1691  21.494  39.103   7.816
    4AU     AUL 1692  21.248  39.015   8.213
    4AU       S 1693  21.272  38.556   7.991
    4AU     LIG 1694  21.075  38.125   8.160
    4AU     LIG 1695  20.866  37.712   8.336
    4AU     LIG 1696  20.735  37.357   8.613
    4AU     LIG 1697  20.958  37.049   8.866
    4AU       S 1698  21.726  38.811   7.970
    4AU     LIG 1699  22.115  38.530   7.937
    4AU     LIG 1700  22.253  38.141   8.169
    4AU     LIG 1701  22.497  37.832   8.459
    4AU     LIG 1702  22.645  37.469   8.768
    4AU    AUSL 1703  20.927  39.056   7.664
    4AU    AUSL 1704  20.870  39.257   8.083
    4AU     AUL 1705  20.855  38.895   7.975
    4AU       S 1706  21.097  38.478   7.766
    4AU     LIG 1707  20.848  38.106   7.696
    4AU     LIG 1708  20.617  37.783   7.898
    4AU     LIG 1709  20.706  37.353   7.974
    4AU     LIG 1710  20.659  37.012   8.237
    4AU       S 1711  20.647  39.055   8.421
    4AU     LIG 1712  20.439  38.641   8.609
    4AU     LIG 1713  20.132  38.259   8.637
    4AU     LIG 1714  19.763  38.107   8.882
    4AU     LIG 1715  19.452  38.298   9.183
    4AU    AUSL 1716  21.241  38.949   7.635
    4AU    AUSL 1717  20.900  38.998   7.319
    4AU     AUL 1718  20.773  38.814   7.605
    4AU       S 1719  20.904  38.522   7.214
    4AU     LIG 1720  20.659  38.113   7.227
    4AU     LIG 1721  20.733  37.654   7.134
    4AU     LIG 1722  20.543  37.311   6.885
    4AU     LIG 1723  20.456  37.045   6.527
    4AU       S 1724  21.365  38.568   7.710
    4AU     LIG 1725  21.367  38.067   7.732
    4AU     LIG 1726  21.140  37.672   7.889
    4AU     LIG 1727  21.219  37.197   7.995
    4AU     LIG 1728  21.442  36.744   7.957
    4AU    AUSL 1729  21.210  40.366   7.014
    4AU    AUSL 1730  21.628  40.291   7.240
    4AU     AUL 1731  21.536  40.526   6.988
    4AU       S 1732  21.192  40.899   6.875
    4AU     LIG 1733  21.108  41.332   6.692
    4AU     LIG 1734  21.248  41.703   6.447
    4AU     LIG 1735  21.180  42.064   6.124
    4AU     LIG 1736  21.253  42.337   5.744
    4AU       S 1737  22.043  40.464   6.880
    4AU     LIG 1738  22.233  40.903   6.671
    4AU     LIG 1739  22.493  41.220   6.366
    4AU     LIG 1740  22.814  41.515   6.140
    4AU     LIG 1741  23.188  41.846   6.145
    4AU    AUSL 1742  21.007  40.496   7.290
    4AU    AUSL 1743  20.906  40.186   6.966
    4AU     AUL 1744  20.906  40.497   6.910
    4AU       S 1745  20.991  40.933   7.204
    4AU     LIG 1746  21.121  41.426   7.192
    4AU     LIG 1747  21.180  41.826   6.958
    4AU     LIG 1748  21.113  42.156   6.623
    4AU     LIG 1749  20.705  42.368   6.477
    4AU       S 1750  20.425  40.507   6.770
    4AU     LIG 1751  20.475  40.727   6.370
    4AU     LIG 1752  20.448  41.072   6.060
    4AU     LIG 1753  20.172  41.296   5.772
    4AU     LIG 1754  19.804  41.404   5.519
    4AU    AUSL 1755  21.082  39.100   7.022
    4AU    AUSL 1756  20.642  39.212   7.222
    4AU     AUL 1757  20.753  38.973   6.970
    4AU       S 1758  20.289  39.097   6.797
    4AU     LIG 1759  19.986  38.717   6.824
    4AU     LIG 1760  19.668  38.332   6.790
    4AU     LIG 1761  19.368  37.974   6.640
    4AU     LIG 1762  19.358  37.789   6.193
    4AU       S 1763  21.033  38.542   6.965
    4AU     LIG 1764  20.936  38.082   6.801
    4AU     LIG 1765  20.864  37.628   6.635
    4AU     LIG 1766  20.792  37.343   6.258
    4AU     LIG 1767  21.009  37.202   5.856
    4AU    AUSL 1768  21.263  38.976   7.302
    4AU    AUSL 1769  21.381  39.247   6.920
    4AU     AUL 1770  21.397  38.894   6.992
    4AU       S 1771  21.184  38.504   7.255
    4AU     LIG 1772  21.158  38.006   7.258
    4AU     LIG 1773  21.235  37.550   7.063
    4AU     LIG 1774  21.411  37.082   6.989
    4AU     LIG 1775  21.500  36.653   6.770
    4AU       S 1776  21.606  39.081   6.560
    4AU     LIG 1777  21.791  38.735   6.281
    4AU     LIG 1778  22.140  38.416   6.217
    4AU     LIG 1779  22.308  38.139   5.865
    4AU     LIG 1780  22.216  37.923   5.430
    5AU     AUC 1781  16.340  20.920   7.502
    5AU     AUC 1782  16.612  20.897   7.345
    5AU     AUC 1783  16.603  20.899   7.673
    5AU     AUC 1784  16.077  20.939   7.332
    5AU     AUC 1785  16.070  20.947   7.660
    5AU     AUC 1786  16.201  21.200   7.491
    5AU     AUC 1787  16.531  21.173   7.500
    5AU     AUC 1788  16.148  20.665   7.502
    5AU     AUC 1789  16.476  20.637   7.509
    5AU     AUC 1790  16.315  20.759   7.770
    5AU     AUC 1791  16.351  21.086   7.767
    5AU     AUC 1792  16.333  20.752   7.238
    5AU     AUC 1793  16.364  21.082   7.230
    5AU     AUC 1794  16.875  20.870   7.200
    5AU     AUC 1795  16.882  20.868   7.517
    5AU     AUC 1796  16.858  20.875   7.832
    5AU     AUC 1797  15.827  20.951   7.161
    5AU     AUC 1798  15.796  20.964   7.496
    5AU     AUC 1799  15.816  20.983   7.818
    5AU     AUC 1800  16.075  21.479   7.478
    5AU     AUC 1801  16.386  21.460   7.477
    5AU     AUC 1802  16.716  21.414   7.496
    5AU     AUC 1803  15.961  20.421   7.505
    5AU     AUC 1804  16.285  20.372   7.503
    5AU     AUC 1805  16.605  20.360   7.527
    5AU     AUC 1806  16.286  20.603   8.029
    5AU     AUC 1807  16.320  20.923   8.054
    5AU     AUC 1808  16.363  21.245   8.025
    5AU     AUC 1809  16.338  20.587   6.986
    5AU     AUC 1810  16.378  20.918   6.955
    5AU     AUC 1811  16.395  21.234   6.966
    5AU     AUC 1812  16.576  20.732   7.953
    5AU     AUC 1813  16.624  21.068   7.949
    5AU     AUC 1814  16.614  20.727   7.074
    5AU     AUC 1815  16.646  21.076   7.069
    5AU     AUC 1816  16.045  20.788   7.942
    5AU     AUC 1817  16.078  21.118   7.932
    5AU     AUC 1818  16.066  20.765   7.066
    5AU     AUC 1819  16.094  21.087   7.046
    5AU     AUC 1820  16.809  21.155   7.347
    5AU     AUC 1821  16.815  21.158   7.676
    5AU     AUC 1822  15.928  21.230   7.312
    5AU     AUC 1823  15.929  21.246   7.655
    5AU     AUC 1824  16.761  20.607   7.357
    5AU     AUC 1825  16.737  20.604   7.684
    5AU     AUC 1826  15.867  20.682   7.338
    5AU     AUC 1827  15.872  20.683   7.673
    5AU     AUC 1828  16.217  21.383   7.752
    5AU     AUC 1829  16.544  21.343   7.770
    5AU     AUC 1830  16.123  20.495   7.779
    5AU     AUC 1831  16.452  20.468   7.783
    5AU     AUC 1832  16.215  21.365   7.215
    5AU     AUC 1833  16.556  21.351   7.219
    5AU     AUC 1834  16.134  20.484   7.228
    5AU     AUC 1835  16.468  20.461   7.236
    5AU    AUSL 1836  16.795  20.839   8.120
    5AU    AUSL 1837  16.593  20.493   8.116
    5AU     AUL 1838  16.672  20.805   8.435
    5AU       S 1839  16.877  20.093   8.266
    5AU     LIG 1840  16.859  19.624   8.348
    5AU     LIG 1841  17.047  19.342   8.666
    5AU     LIG 1842  17.349  19.138   8.943
    5AU     LIG 1843  17.430  19.041   9.383
    5AU       S 1844  17.068  20.514   8.466
    5AU     LIG 1845  17.202  20.542   8.910
    5AU     LIG 1846  17.303  20.618   9.362
    5AU     LIG 1847  17.453  20.560   9.802
    5AU     LIG 1848  17.768  20.397  10.106
    5AU    AUSL 1849  16.390  20.716   8.262
    5AU    AUSL 1850  16.199  21.082   8.265
    5AU     AUL 1851  16.358  20.910   8.582
    5AU       S 1852  16.713  20.372   8.647
    5AU     LIG 1853  16.747  20.422   9.117
    5AU     LIG 1854  16.923  20.319   9.540
    5AU     LIG 1855  17.170  20.141   9.897
    5AU     LIG 1856  17.254  20.234  10.339
    5AU       S 1857  15.876  20.976   8.722
    5AU     LIG 1858  15.745  20.969   9.177
    5AU     LIG 1859  15.679  20.812   9.628
    5AU     LIG 1860  15.486  20.826  10.056
    5AU     LIG 1861  15.376  21.135  10.397
    5AU    AUSL 1862  16.547  21.102   8.244
    5AU    AUSL 1863  16.924  21.154   7.996
    5AU     AUL 1864  16.926  21.050   8.368
    5AU       S 1865  16.580  21.391   8.610
    5AU     LIG 1866  16.891  21.525   8.961
    5AU     LIG 1867  17.012  21.542   9.442
    5AU     LIG 1868  17.064  21.506   9.935
    5AU     LIG 1869  17.072  21.585  10.417
    5AU       S 1870  17.230  21.435   8.263
    5AU     LIG 1871  17.672  21.519   8.258
    5AU     LIG 1872  17.932  21.734   8.578
    5AU     LIG 1873  18.124  22.045   8.894
    5AU     LIG 1874  18.415  22.109   9.264
    5AU    AUSL 1875  16.820  20.924   6.909
    5AU    AUSL 1876  16.705  21.360   6.924
    5AU     AUL 1877  16.975  21.191   6.720
    5AU       S 1878  16.944  20.812   6.366
    5AU     LIG 1879  17.320  20.724   6.150
    5AU     LIG 1880  17.463  20.696   5.720
    5AU     LIG 1881  17.530  20.626   5.276
    5AU     LIG 1882  17.655  20.683   4.840
    5AU       S 1883  17.144  21.670   6.773
    5AU     LIG 1884  17.408  21.888   6.444
    5AU     LIG 1885  17.690  22.101   6.134
    5AU     LIG 1886  17.789  22.227   5.690
    5AU     LIG 1887  18.110  22.321   5.367
    5AU    AUSL 1888  16.588  20.719   6.768
    5AU    AUSL 1889  16.876  20.589   7.038
    5AU     AUL 1890  17.075  20.770   6.843
    5AU       S 1891  17.043  20.303   6.642
    5AU     LIG 1892  17.354  19.985   6.395
    5AU     LIG 1893  17.672  19.619   6.286
    5AU     LIG 1894  17.963  19.391   5.990
    5AU     LIG 1895  18.298  19.598   5.722
    5AU       S 1896  16.782  20.637   6.374
    5AU     LIG 1897  16.997  20.324   6.103
    5AU     LIG 1898  17.110  20.329   5.629
    5AU     LIG 1899  17.126  20.336   5.142
    5AU     LIG 1900  17.215  20.379   4.669
    5AU    AUSL 1901  16.558  21.088   6.735
    5AU    AUSL 1902  16.220  20.755   6.800
    5AU     AUL 1903  16.350  20.862   6.499
    5AU       S 1904  15.826  20.768   6.338
    5AU     LIG 1905  15.666  20.425   6.047
    5AU     LIG 1906  15.609  20.306   5.583
    5AU     LIG 1907  15.645  20.330   5.109
    5AU     LIG 1908  15.513  20.360   4.655
    5AU       S 1909  16.776  21.006   6.275
    5AU     LIG 1910  16.906  20.786   5.852
    5AU     LIG 1911  17.050  20.792   5.401
    5AU     LIG 1912  17.161  20.824   4.947
    5AU     LIG 1913  17.135  21.025   4.524
    5AU    AUSL 1914  15.873  21.048   8.133
    5AU    AUSL 1915  16.085  21.362   8.058
    5AU     AUL 1916  16.036  21.346   8.405
    5AU       S 1917  15.655  21.044   8.584
    5AU     LIG 1918  15.380  20.793   8.842
    5AU     LIG 1919  15.327  20.656   9.277
    5AU     LIG 1920  15.232  20.524   9.712
    5AU     LIG 1921  15.066  20.462  10.148
    5AU       S 1922  15.675  21.685   8.233
    5AU     LIG 1923  15.690  21.807   8.685
    5AU     LIG 1924  15.563  22.128   8.995
    5AU     LIG 1925  15.411  22.366   9.358
    5AU     LIG 1926  15.539  22.555   9.771
    5AU    AUSL 1927  16.039  20.763   8.227
    5AU    AUSL 1928  15.787  20.692   7.965
    5AU     AUL 1929  15.588  20.860   8.128
    5AU       S 1930  15.538  20.398   8.347
    5AU     LIG 1931  15.060  20.317   8.369
    5AU     LIG 1932  14.753  19.994   8.551
    5AU     LIG 1933  14.441  19.639   8.702
    5AU     LIG 1934  14.055  19.321   8.752
    5AU       S 1935  15.839  20.729   8.596
    5AU     LIG 1936  15.761  20.483   9.003
    5AU     LIG 1937  15.683  20.329   9.460
    5AU     LIG 1938  15.651  20.340   9.938
    5AU     LIG 1939  15.505  20.216  10.371
    5AU    AUSL 1940  15.916  20.913   6.832
    5AU    AUSL 1941  16.023  20.493   6.936
    5AU     AUL 1942  16.153  20.531   6.616
    5AU       S 1943  15.663  20.916   6.494
    5AU     LIG 1944  15.323  20.768   6.210
    5AU     LIG 1945  15.230  20.600   5.771
    5AU     LIG 1946  15.213  20.536   5.294
    5AU     LIG 1947  15.070  20.559   4.843
    5AU       S 1948  15.663  20.373   6.601
    5AU     LIG 1949  15.476  20.028   6.319
    5AU     LIG 1950  15.263  19.608   6.242
    5AU     LIG 1951  15.004  19.358   5.939
    5AU     LIG 1952  14.973  19.162   5.498
    5AU    AUSL 1953  16.210  21.103   6.740
    5AU    AUSL 1954  15.790  21.221   6.989
    5AU     AUL 1955  15.963  21.300   6.651
    5AU       S 1956  15.469  21.410   6.721
    5AU     LIG 1957  15.157  21.733   6.602
    5AU     LIG 1958  14.968  21.943   6.244
    5AU     LIG 1959  14.569  21.848   6.009
    5AU     LIG 1960  14.153  21.642   5.885
    5AU       S 1961  15.916  21.003   6.257
    5AU     LIG 1962  15.681  20.899   5.853
    5AU     LIG 1963  15.640  20.792   5.404
    5AU     LIG 1964  15.518  20.807   4.952
    5AU     LIG 1965  15.510  20.970   4.521
    5AU    AUSL 1966  17.045  21.304   7.451
    5AU    AUSL 1967  16.959  21.178   7.104
    5AU     AUL 1968  17.272  21.055   7.089
    5AU       S 1969  17.308  21.535   6.952
    5AU     LIG 1970  17.692  21.516   6.642
    5AU     LIG 1971  17.944  21.628   6.231
    5AU     LIG 1972  18.151  21.966   5.952
    5AU     LIG 1973  18.249  22.415   5.866
    5AU       S 1974  17.489  21.466   7.424
    5AU     LIG 1975  17.708  21.849   7.587
    5AU     LIG 1976  18.122  22.054   7.440
    5AU     LIG 1977  18.526  22.257   7.382
    5AU     LIG 1978  18.876  22.428   7.639
    5AU    AUSL 1979  17.099  20.977   7.376
    5AU    AUSL 1980  17.050  20.701   7.661
    5AU     AUL 1981  17.377  20.791   7.531
    5AU       S 1982  17.601  21.240   7.424
    5AU     LIG 1983  18.003  21.073   7.263
    5AU     LIG 1984  18.437  21.226   7.229
    5AU     LIG 1985  18.848  21.130   7.057
    5AU     LIG 1986  19.278  21.290   7.042
    5AU       S 1987  17.468  20.288   7.656
    5AU     LIG 1988  17.942  20.190   7.711
    5AU     LIG 1989  18.296  20.013   7.981
    5AU     LIG 1990  18.731  19.838   8.019
    5AU     LIG 1991  19.174  19.707   7.903
    5AU    AUSL 1992  17.111  21.039   7.722
    5AU    AUSL 1993  16.851  21.454   7.781
    5AU     AUL 1994  17.139  21.383   7.775
    5AU       S 1995  17.165  21.716   8.151
    5AU     LIG 1996  17.517  22.002   8.316
    5AU     LIG 1997  17.900  22.231   8.459
    5AU     LIG 1998  18.113  22.545   8.708
    5AU     LIG 1999  18.144  22.961   8.858
    5AU       S 2000  17.600  21.225   7.710
    5AU     LIG 2001  18.037  21.203   7.786
    5AU     LIG 2002  18.451  21.378   7.730
    5AU     LIG 2003  18.894  21.472   7.891
    5AU     LIG 2004  19.333  21.541   8.064
    5AU    AUSL 2005  15.792  21.471   7.509
    5AU    AUSL 2006  15.768  21.291   7.906
    5AU     AUL 2007  15.483  21.508   7.687
    5AU       S 2008  15.511  21.436   8.206
    5AU     LIG 2009  15.296  21.494   8.583
    5AU     LIG 2010  15.170  21.882   8.782
    5AU     LIG 2011  14.988  22.168   9.101
    5AU     LIG 2012  14.595  22.169   9.362
    5AU       S 2013  15.712  21.943   7.486
    5AU     LIG 2014  15.304  22.139   7.305
    5AU     LIG 2015  14.896  22.380   7.413
    5AU     LIG 2016  14.440  22.313   7.514
    5AU     LIG 2017  14.038  22.453   7.341
    5AU    AUSL 2018  15.650  21.133   7.283
    5AU    AUSL 2019  15.902  21.518   7.183
    5AU     AUL 2020  15.538  21.449   7.239
    5AU       S 2021  15.284  21.000   6.922
    5AU     LIG 2022  14.933  21.320   6.911
    5AU     LIG 2023  14.514  21.516   6.992
    5AU     LIG 2024  14.132  21.632   6.757
    5AU     LIG 2025  13.758  21.895   6.693
    5AU       S 2026  15.679  21.885   6.994
    5AU     LIG 2027  15.382  22.173   6.773
    5AU     LIG 2028  15.443  22.450   6.393
    5AU     LIG 2029  15.434  22.862   6.145
    5AU     LIG 2030  15.134  23.253   6.066
    5AU    AUSL 2031  15.604  21.152   7.646
    5AU    AUSL 2032  15.556  20.815   7.343
    5AU     AUL 2033  15.331  21.174   7.410
    5AU       S 2034  15.075  20.730   7.427
    5AU     LIG 2035  14.654  20.580   7.320
    5AU     LIG 2036  14.255  20.546   7.178
    5AU     LIG 2037  13.858  20.420   7.293
    5AU     LIG 2038  13.586  20.469   6.957
    5AU       S 2039  15.169  21.162   7.920
    5AU     LIG 2040  14.657  21.266   7.891
    5AU     LIG 2041  14.229  21.518   8.012
    5AU     LIG 2042  13.815  21.780   8.172
    5AU     LIG 2043  13.349  21.609   8.137
    5AU    AUSL 2044  16.930  20.390   7.579
    5AU    AUSL 2045  16.878  20.563   7.932
    5AU     AUL 2046  17.209  20.626   7.909
    5AU       S 2047  17.254  20.121   7.640
    5AU     LIG 2048  17.591  19.797   7.641
    5AU     LIG 2049  18.021  19.662   7.593
    5AU     LIG 2050  18.461  19.675   7.612
    5AU     LIG 2051  18.834  19.469   7.572
    5AU       S 2052  17.102  20.164   8.121
    5AU     LIG 2053  17.296  19.864   8.464
    5AU     LIG 2054  17.554  19.482   8.605
    5AU     LIG 2055  17.960  19.357   8.829
    5AU     LIG 2056  18.232  19.635   9.118
    5AU    AUSL 2057  17.075  20.634   7.321
    5AU    AUSL 2058  16.744  20.345   7.261
    5AU     AUL 2059  17.050  20.297   7.204
    5AU       S 2060  17.505  20.311   7.400
    5AU     LIG 2061  17.831  20.020   7.237
    5AU     LIG 2062  18.248  19.838   7.163
    5AU     LIG 2063  18.692  19.719   7.132
    5AU     LIG 2064  19.128  19.918   7.072
    5AU       S 2065  17.003  20.085   6.748
    5AU     LIG 2066  17.166  19.638   6.750
    5AU     LIG 2067  17.501  19.310   6.650
    5AU     LIG 2068  17.737  19.047   6.334
    5AU     LIG 2069  17.785  18.688   6.020
    5AU    AUSL 2070  15.658  20.510   7.519
    5AU    AUSL 2071  15.736  20.697   7.054
    5AU     AUL 2072  15.472  20.466   7.237
    5AU       S 2073  15.473  20.546   6.731
    5AU     LIG 2074  15.131  20.376   6.474
    5AU     LIG 2075  14.943  19.984   6.359
    5AU     LIG 2076  14.584  19.742   6.216
    5AU     LIG 2077  14.150  19.683   6.004
    5AU       S 2078  15.086  20.487   7.567
    5AU     LIG 2079  14.752  20.243   7.829
    5AU     LIG 2080  14.534  19.827   7.828
    5AU     LIG 2081  14.281  19.595   7.496
    5AU     LIG 2082  13.845  19.430   7.466
    5AU    AUSL 2083  15.582  20.816   7.701
    5AU    AUSL 2084  15.817  20.371   7.801
    5AU     AUL 2085  15.500  20.511   7.848
    5AU       S 2086  15.528  20.136   8.175
    5AU     LIG 2087  15.089  19.862   8.146
    5AU     LIG 2088  14.692  19.573   8.253
    5AU     LIG 2089  14.518  19.176   8.481
    5AU     LIG 2090  14.494  18.732   8.691
    5AU       S 2091  15.092  20.751   7.657
    5AU     LIG 2092  14.648  20.745   7.805
    5AU     LIG 2093  14.212  20.621   7.679
    5AU     LIG 2094  13.745  20.550   7.787
    5AU     LIG 2095  13.402  20.235   7.965
    5AU    AUSL 2096  16.360  21.563   7.935
    5AU    AUSL 2097  15.994  21.569   7.795
    5AU     AUL 2098  16.188  21.640   8.213
    5AU       S 2099  15.766  21.885   7.989
    5AU     LIG 2100  15.467  22.124   8.351
    5AU     LIG 2101  15.227  22.391   8.688
    5AU     LIG 2102  14.864  22.711   8.759
    5AU     LIG 2103  14.599  23.035   8.498
    5AU       S 2104  16.253  22.075   7.977
    5AU     LIG 2105  16.424  22.309   8.321
    5AU     LIG 2106  16.414  22.734   8.474
    5AU     LIG 2107  16.352  23.183   8.586
    5AU     LIG 2108  16.227  23.397   8.980
    5AU    AUSL 2109  16.264  21.708   7.598
    5AU    AUSL 2110  16.546  21.659   7.318
    5AU     AUL 2111  16.723  21.881   7.509
    5AU       S 2112  16.165  22.110   7.688
    5AU     LIG 2113  16.184  22.579   7.955
    5AU     LIG 2114  16.448  23.018   8.065
    5AU     LIG 2115  16.322  23.480   8.155
    5AU     LIG 2116  16.176  23.942   8.122
    5AU       S 2117  16.415  22.155   7.215
    5AU     LIG 2118  16.663  22.539   7.013
    5AU     LIG 2119  16.716  22.958   6.794
    5AU     LIG 2120  16.795  23.418   6.730
    5AU     LIG 2121  16.869  23.873   6.593
    5AU    AUSL 2122  16.577  21.614   7.667
    5AU    AUSL 2123  16.644  21.384   8.065
    5AU     AUL 2124  16.681  21.745   7.972
    5AU       S 2125  16.967  21.584   8.368
    5AU     LIG 2126  17.314  21.700   8.676
    5AU     LIG 2127  17.599  22.004   8.865
    5AU     LIG 2128  17.763  22.010   9.297
    5AU     LIG 2129  17.675  22.138   9.750
    5AU       S 2130  16.438  22.175   7.790
    5AU     LIG 2131  16.696  22.560   7.951
    5AU     LIG 2132  16.957  22.888   8.175
    5AU     LIG 2133  17.010  23.340   8.188
    5AU     LIG 2134  16.790  23.739   8.280
    5AU    AUSL 2135  16.311  20.292   7.947
    5AU    AUSL 2136  16.664  20.297   7.833
    5AU     AUL 2137  16.397  20.259   8.240
    5AU       S 2138  16.456  19.787   8.061
    5AU     LIG 2139  16.366  19.447   8.352
    5AU     LIG 2140  16.234  19.014   8.385
    5AU     LIG 2141  16.219  18.574   8.534
    5AU     LIG 2142  16.240  18.176   8.810
    5AU       S 2143  16.899  19.999   7.978
    5AU     LIG 2144  17.239  19.669   8.000
    5AU     LIG 2145  17.299  19.230   8.229
    5AU     LIG 2146  17.604  18.956   8.512
    5AU     LIG 2147  17.899  18.586   8.605
    5AU    AUSL 2148  16.095  20.212   7.677
    5AU    AUSL 2149  16.032  20.454   8.082
    5AU     AUL 2150  16.000  20.095   7.989
    5AU       S 2151  16.268  19.671   7.906
    5AU     LIG 2152  15.965  19.296   8.034
    5AU     LIG 2153  15.964  18.798   7.988
    5AU     LIG 2154  15.834  18.317   7.964
    5AU     LIG 2155  15.662  18.004   8.276
    5AU       S 2156  15.758  20.267   8.411
    5AU     LIG 2157  15.374  19.975   8.612
    5AU     LIG 2158  15.079  19.598   8.599
    5AU     LIG 2159  14.850  19.316   8.877
    5AU     LIG 2160  14.966  19.208   9.320
    5AU    AUSL 2161  16.422  20.122   7.657
    5AU    AUSL 2162  16.093  20.183   7.323
    5AU     AUL 2163  16.022  19.928   7.560
    5AU       S 2164  16.176  19.704   7.122
    5AU     LIG 2165  15.935  19.330   7.031
    5AU     LIG 2166  15.784  18.893   7.057
    5AU     LIG 2167  15.934  18.509   6.865
    5AU     LIG 2168  15.813  18.171   6.602
    5AU       S 2169  16.520  19.725   7.766
    5AU     LIG 2170  16.428  19.197   7.888
    5AU     LIG 2171  16.479  18.732   8.035
    5AU     LIG 2172  16.339  18.264   8.145
    5AU     LIG 2173  16.436  17.874   8.429
    5AU    AUSL 2174  16.410  21.539   7.008
    5AU    AUSL 2175  16.841  21.491   7.243
    5AU     AUL 2176  16.693  21.729   6.985
    5AU       S 2177  16.340  22.093   6.935
    5AU     LIG 2178  16.402  22.366   6.571
    5AU     LIG 2179  16.605  22.703   6.323
    5AU     LIG 2180  16.588  23.143   6.319
    5AU     LIG 2181  16.662  23.573   6.204
    5AU       S 2182  17.193  21.737   7.123
    5AU     LIG 2183  17.602  21.940   6.940
    5AU     LIG 2184  17.919  21.991   6.597
    5AU     LIG 2185  18.146  22.326   6.372
    5AU     LIG 2186  18.082  22.773   6.215
    5AU    AUSL 2187  16.196  21.664   7.263
    5AU    AUSL 2188  16.114  21.354   6.963
    5AU     AUL 2189  16.125  21.650   6.862
    5AU       S 2190  16.123  22.087   7.184
    5AU     LIG 2191  16.169  22.557   6.992
    5AU     LIG 2192  16.245  22.852   6.662
    5AU     LIG 2193  16.252  23.308   6.697
    5AU     LIG 2194  16.020  23.652   6.957
    5AU       S 2195  15.639  21.691   6.746
    5AU     LIG 2196  15.604  21.949   6.366
    5AU     LIG 2197  15.635  22.213   5.982
    5AU     LIG 2198  15.421  22.531   5.729
    5AU     LIG 2199  15.185  22.560   5.334
    5AU    AUSL 2200  16.290  20.266   7.029
    5AU    AUSL 2201  15.826  20.389   7.221
    5AU     AUL 2202  15.941  20.138   6.996
    5AU       S 2203  15.498  20.251   6.788
    5AU     LIG 2204  15.253  19.858   6.750
    5AU     LIG 2205  14.919  19.546   6.627
    5AU     LIG 2206  14.701  19.233   6.353
    5AU     LIG 2207  14.507  18.790   6.275
    5AU       S 2208  16.312  19.797   6.879
    5AU     LIG 2209  16.310  19.397   6.667
    5AU     LIG 2210  16.090  18.994   6.649
    5AU     LIG 2211  16.206  18.598   6.444
    5AU     LIG 2212  16.050  18.268   6.151
    5AU    AUSL 2213  16.449  20.162   7.328
    5AU    AUSL 2214  16.581  20.419   6.938
    5AU     AUL 2215  16.658  20.088   7.095
    5AU       S 2216  16.407  19.680   7.237
    5AU     LIG 2217  16.432  19.213   7.122
    5AU     LIG 2218  16.287  18.791   7.091
    5AU     LIG 2219  16.463  18.417   6.872
    5AU     LIG 2220  16.862  18.148   6.769
    5AU       S 2221  16.737  20.200   6.597
    5AU     LIG 2222  16.867  19.828   6.337
    5AU     LIG 2223  17.171  19.475   6.264
    5AU     LIG 2224  17.453  19.267   5.961
    5AU     LIG 2225  17.455  18.908   5.666
    6AU     AUC 2226  28.825  33.767   7.503
    6AU     AUC 2227  29.099  33.743   7.351
    6AU     AUC 2228  29.084  33.742   7.682
    6AU     AUC 2229  28.562  33.790   7.329
    6AU     AUC 2230  28.555  33.790   7.660
    6AU     AUC 2231  28.687  34.046   7.497
    6AU     AUC 2232  29.016  34.018   7.514
    6AU     AUC 2233  28.635  33.513   7.492
    6AU     AUC 2234  28.964  33.485   7.504
    6AU     AUC 2235  28.800  33.601   7.769
    6AU     AUC 2236  28.834  33.928   7.776
    6AU     AUC 2237  28.822  33.604   7.232
    6AU     AUC 2238  28.850  33.931   7.236
    6AU     AUC 2239  29.375  33.729   7.209
    6AU     AUC 2240  29.365  33.715   7.530
    6AU     AUC 2241  29.333  33.715   7.849
    6AU     AUC 2242  28.311  33.809   7.157
    6AU     AUC 2243  28.283  33.811   7.490
    6AU     AUC 2244  28.298  33.820   7.818
    6AU     AUC 2245  28.557  34.316   7.494
    6AU     AUC 2246  28.885  34.308   7.502
    6AU     AUC 2247  29.196  34.268   7.524
    6AU     AUC 2248  28.451  33.270   7.485
    6AU     AUC 2249  28.782  33.224   7.479
    6AU     AUC 2250  29.100  33.209   7.512
    6AU     AUC 2251  28.769  33.435   8.022
    6AU     AUC 2252  28.799  33.757   8.059
    6AU     AUC 2253  28.844  34.079   8.037
    6AU     AUC 2254  28.822  33.447   6.974
    6AU     AUC 2255  28.849  33.772   6.959
    6AU     AUC 2256  28.877  34.089   6.975
    6AU     AUC 2257  29.056  33.566   7.959
    6AU     AUC 2258  29.105  33.903   7.965
    6AU     AUC 2259  29.112  33.593   7.061
    6AU     AUC 2260  29.138  33.917   7.087
    6AU     AUC 2261  28.529  33.624   7.939
    6AU     AUC 2262  28.556  33.954   7.940
    6AU     AUC 2263  28.548  33.622   7.059
    6AU     AUC 2264  28.577  33.956   7.044
    6AU     AUC 2265  29.300  33.990   7.374
    6AU     AUC 2266  29.284  34.005   7.703
    6AU     AUC 2267  28.416  34.083   7.315
    6AU     AUC 2268  28.409  34.085   7.662
    6AU     AUC 2269  29.250  33.460   7.360
    6AU     AUC 2270  29.221  33.449   7.689
    6AU     AUC 2271  28.353  33.529   7.326
    6AU     AUC 2272  28.359  33.524   7.663
    6AU     AUC 2273  28.698  34.218   7.768
    6AU     AUC 2274  29.032  34.194   7.787
    6AU     AUC 2275  28.610  33.341   7.765
    6AU     AUC 2276  28.938  33.310   7.771
    6AU     AUC 2277  28.707  34.210   7.213
    6AU     AUC 2278  29.038  34.197   7.238
    6AU     AUC 2279  28.626  33.336   7.214
    6AU     AUC 2280  28.967  33.319   7.220
    6AU    AUSL 2281  29.277  33.672   8.131
    6AU    AUSL 2282  29.064  33.312   8.114
    6AU     AUL 2283  29.158  33.613   8.433
    6AU       S 2284  29.348  32.904   8.261
    6AU     LIG 2285  29.393  32.441   8.386
    6AU     LIG 2286  29.631  32.175   8.717
    6AU     LIG 2287  29.960  32.093   9.061
    6AU     LIG 2288  30.350  32.145   9.324
    6AU       S 2289  29.533  33.307   8.483
    6AU     LIG 2290  29.787  33.503   8.827
    6AU     LIG 2291  30.088  33.622   9.165
    6AU     LIG 2292  30.169  33.780   9.594
    6AU     LIG 2293  30.436  33.817   9.979
    6AU    AUSL 2294  28.871  33.545   8.261
    6AU    AUSL 2295  28.672  33.918   8.274
    6AU     AUL 2296  28.857  33.744   8.580
    6AU       S 2297  29.146  33.175   8.640
    6AU     LIG 2298  29.293  33.303   9.071
    6AU     LIG 2299  29.366  33.247   9.541
    6AU     LIG 2300  29.434  33.045   9.968
    6AU     LIG 2301  29.489  33.072  10.436
    6AU       S 2302  28.381  33.792   8.726
    6AU     LIG 2303  28.325  33.822   9.176
    6AU     LIG 2304  28.220  33.688   9.598
    6AU     LIG 2305  27.946  33.723   9.960
    6AU     LIG 2306  27.847  34.054  10.285
    6AU    AUSL 2307  29.020  33.928   8.258
    6AU    AUSL 2308  29.412  33.992   8.024
    6AU     AUL 2309  29.394  33.878   8.394
    6AU       S 2310  29.034  34.234   8.618
    6AU     LIG 2311  29.320  34.353   8.988
    6AU     LIG 2312  29.387  34.361   9.478
    6AU     LIG 2313  29.383  34.294   9.969
    6AU     LIG 2314  29.388  34.329  10.458
    6AU       S 2315  29.702  34.266   8.309
    6AU     LIG 2316  30.150  34.177   8.413
    6AU     LIG 2317  30.427  34.427   8.661
    6AU     LIG 2318  30.658  34.771   8.893
    6AU     LIG 2319  30.835  35.145   9.121
    6AU    AUSL 2320  29.323  33.823   6.887
    6AU    AUSL 2321  29.198  34.163   6.957
    6AU     AUL 2322  29.157  34.222   6.643
    6AU       S 2323  29.564  33.853   6.471
    6AU     LIG 2324  29.848  33.552   6.254
    6AU     LIG 2325  29.927  33.432   5.791
    6AU     LIG 2326  29.895  33.412   5.308
    6AU     LIG 2327  29.905  33.390   4.839
    6AU       S 2328  29.658  34.272   6.708
    6AU     LIG 2329  29.790  34.388   6.282
    6AU     LIG 2330  29.960  34.714   5.975
    6AU     LIG 2331  30.136  35.101   5.752
    6AU     LIG 2332  30.080  35.505   5.475
    6AU    AUSL 2333  29.017  33.576   6.740
    6AU    AUSL 2334  29.403  33.468   7.059
    6AU     AUL 2335  29.338  33.507   6.748
    6AU       S 2336  29.786  33.293   6.854
    6AU     LIG 2337  30.182  33.105   6.693
    6AU     LIG 2338  30.140  32.761   6.411
    6AU     LIG 2339  30.354  32.454   6.170
    6AU     LIG 2340  30.288  32.283   5.737
    6AU       S 2341  29.290  33.610   6.274
    6AU     LIG 2342  29.464  33.300   5.975
    6AU     LIG 2343  29.536  33.124   5.542
    6AU     LIG 2344  29.486  33.175   5.068
    6AU     LIG 2345  29.503  33.118   4.584
    6AU    AUSL 2346  29.021  33.922   6.758
    6AU    AUSL 2347  28.677  33.620   6.782
    6AU     AUL 2348  28.833  33.755   6.472
    6AU       S 2349  28.286  33.623   6.346
    6AU     LIG 2350  28.250  33.274   6.039
    6AU     LIG 2351  28.189  33.196   5.573
    6AU     LIG 2352  28.042  33.204   5.117
    6AU     LIG 2353  28.132  33.302   4.672
    6AU       S 2354  29.331  33.879   6.319
    6AU     LIG 2355  29.559  33.813   5.902
    6AU     LIG 2356  29.475  33.637   5.479
    6AU     LIG 2357  29.514  33.696   5.010
    6AU     LIG 2358  29.434  33.905   4.589
    6AU    AUSL 2359  28.348  33.873   8.136
    6AU    AUSL 2360  28.566  34.199   8.064
    6AU     AUL 2361  28.466  34.179   8.401
    6AU       S 2362  28.155  33.799   8.615
    6AU     LIG 2363  27.963  33.526   8.970
    6AU     LIG 2364  27.786  33.478   9.420
    6AU     LIG 2365  27.559  33.383   9.831
    6AU     LIG 2366  27.168  33.264  10.089
    6AU       S 2367  28.151  34.563   8.201
    6AU     LIG 2368  28.253  34.931   8.459
    6AU     LIG 2369  28.024  35.063   8.810
    6AU     LIG 2370  27.736  35.289   9.085
    6AU     LIG 2371  27.595  35.371   9.512
    6AU    AUSL 2372  28.524  33.590   8.223
    6AU    AUSL 2373  28.274  33.527   7.957
    6AU     AUL 2374  28.074  33.680   8.141
    6AU       S 2375  28.035  33.204   8.331
    6AU     LIG 2376  27.561  33.080   8.272
    6AU     LIG 2377  27.159  32.834   8.296
    6AU     LIG 2378  26.813  32.743   8.618
    6AU     LIG 2379  26.705  32.797   9.097
    6AU       S 2380  28.351  33.528   8.588
    6AU     LIG 2381  28.446  33.346   8.993
    6AU     LIG 2382  28.234  33.224   9.375
    6AU     LIG 2383  28.057  33.223   9.807
    6AU     LIG 2384  28.019  33.005  10.221
    6AU    AUSL 2385  28.382  33.776   6.835
    6AU    AUSL 2386  28.511  33.343   6.927
    6AU     AUL 2387  28.630  33.396   6.606
    6AU       S 2388  28.115  33.760   6.505
    6AU     LIG 2389  27.826  33.520   6.187
    6AU     LIG 2390  27.765  33.460   5.708
    6AU     LIG 2391  27.640  33.500   5.244
    6AU     LIG 2392  27.630  33.392   4.781
    6AU       S 2393  28.145  33.198   6.600
    6AU     LIG 2394  27.805  32.874   6.396
    6AU     LIG 2395  27.467  32.518   6.373
    6AU     LIG 2396  27.349  32.193   6.031
    6AU     LIG 2397  27.255  32.348   5.611
    6AU    AUSL 2398  28.681  33.967   6.750
    6AU    AUSL 2399  28.291  34.098   6.994
    6AU     AUL 2400  28.437  34.140   6.646
    6AU       S 2401  27.977  34.344   6.708
    6AU     LIG 2402  27.846  34.680   6.357
    6AU     LIG 2403  27.573  34.859   5.989
    6AU     LIG 2404  27.138  34.897   5.790
    6AU     LIG 2405  26.731  34.659   5.667
    6AU       S 2406  28.371  33.842   6.258
    6AU     LIG 2407  28.187  33.737   5.831
    6AU     LIG 2408  28.121  33.666   5.364
    6AU     LIG 2409  27.993  33.744   4.915
    6AU     LIG 2410  27.943  34.042   4.541
    6AU    AUSL 2411  29.506  34.161   7.509
    6AU    AUSL 2412  29.479  34.023   7.149
    6AU     AUL 2413  29.582  34.457   7.358
    6AU       S 2414  29.796  34.072   6.893
    6AU     LIG 2415  30.128  34.095   6.554
    6AU     LIG 2416  30.311  34.393   6.224
    6AU     LIG 2417  30.482  34.724   5.920
    6AU     LIG 2418  30.725  35.030   5.652
    6AU       S 2419  30.010  34.179   7.342
    6AU     LIG 2420  30.385  34.465   7.232
    6AU     LIG 2421  30.818  34.650   7.413
    6AU     LIG 2422  31.241  34.660   7.648
    6AU     LIG 2423  31.597  34.920   7.846
    6AU    AUSL 2424  29.621  33.819   7.400
    6AU    AUSL 2425  29.543  33.554   7.693
    6AU     AUL 2426  29.843  33.719   7.789
    6AU       S 2427  30.011  33.858   7.288
    6AU     LIG 2428  30.458  33.958   7.125
    6AU     LIG 2429  30.885  34.209   7.082
    6AU     LIG 2430  31.221  34.574   7.109
    6AU     LIG 2431  31.639  34.658   6.912
    6AU       S 2432  29.997  33.284   7.561
    6AU     LIG 2433  30.372  33.134   7.695
    6AU     LIG 2434  30.788  32.997   7.737
    6AU     LIG 2435  31.193  32.899   7.861
    6AU     LIG 2436  31.417  32.950   8.248
    6AU    AUSL 2437  29.551  33.896   7.726
    6AU    AUSL 2438  29.346  34.298   7.808
    6AU     AUL 2439  29.694  34.191   7.811
    6AU       S 2440  29.651  34.537   8.180
    6AU     LIG 2441  30.049  34.680   8.365
    6AU     LIG 2442  30.413  34.928   8.477
    6AU     LIG 2443  30.586  35.302   8.690
    6AU     LIG 2444  30.650  35.774   8.728
    6AU       S 2445  30.113  34.054   7.545
    6AU     LIG 2446  30.455  33.972   7.932
    6AU     LIG 2447  30.944  33.939   7.908
    6AU     LIG 2448  31.290  34.215   8.000
    6AU     LIG 2449  31.689  34.404   7.891
    6AU    AUSL 2450  28.264  34.311   7.513
    6AU    AUSL 2451  28.242  34.123   7.921
    6AU     AUL 2452  27.957  34.334   7.699
    6AU       S 2453  27.972  34.304   8.222
    6AU     LIG 2454  27.782  34.665   8.518
    6AU     LIG 2455  27.559  34.845   8.889
    6AU     LIG 2456  27.329  34.960   9.283
    6AU     LIG 2457  26.965  34.803   9.559
    6AU       S 2458  28.116  34.782   7.486
    6AU     LIG 2459  27.734  35.112   7.504
    6AU     LIG 2460  27.357  35.364   7.704
    6AU     LIG 2461  26.894  35.535   7.787
    6AU     LIG 2462  26.409  35.651   7.642
    6AU    AUSL 2463  28.134  33.992   7.276
    6AU    AUSL 2464  28.404  34.384   7.205
    6AU     AUL 2465  28.030  34.311   7.227
    6AU       S 2466  27.768  33.916   6.911
    6AU     LIG 2467  27.264  34.094   6.924
    6AU     LIG 2468  26.858  34.411   6.845
    6AU     LIG 2469  26.415  34.607   6.676
    6AU     LIG 2470  25.975  34.826   6.696
    6AU       S 2471  28.142  34.758   6.981
    6AU     LIG 2472  27.968  35.084   6.659
    6AU     LIG 2473  27.661  35.254   6.306
    6AU     LIG 2474  27.240  35.479   6.177
    6AU     LIG 2475  27.061  35.918   6.285
    6AU    AUSL 2476  28.093  33.989   7.647
    6AU    AUSL 2477  28.045  33.672   7.334
    6AU     AUL 2478  27.817  34.023   7.416
    6AU       S 2479  27.561  33.567   7.430
    6AU     LIG 2480  27.163  33.335   7.314
    6AU     LIG 2481  26.840  33.014   7.341
    6AU     LIG 2482  26.403  33.017   7.317
    6AU     LIG 2483  25.983  32.849   7.153
    6AU       S 2484  27.677  33.969   7.934
    6AU     LIG 2485  27.252  34.038   8.101
    6AU     LIG 2486  26.866  34.251   7.961
    6AU     LIG 2487  26.433  34.380   8.043
    6AU     LIG 2488  25.977  34.509   8.168
    6AU    AUSL 2489  29.417  33.242   7.601
    6AU    AUSL 2490  29.350  33.396   7.940
    6AU     AUL 2491  29.683  33.412   7.950
    6AU       S 2492  29.855  33.041   7.622
    6AU     LIG 2493  29.901  32.601   7.445
    6AU     LIG 2494  30.137  32.183   7.503
    6AU     LIG 2495  30.602  32.115   7.479
    6AU     LIG 2496  30.991  32.032   7.698
    6AU       S 2497  29.558  32.957   8.112
    6AU     LIG 2498  29.826  32.717   8.399
    6AU     LIG 2499  30.068  32.463   8.702
    6AU     LIG 2500  30.474  32.406   8.897
    6AU     LIG 2501  30.870  32.173   8.958
    6AU    AUSL 2502  29.550  33.485   7.357
    6AU    AUSL 2503  29.242  33.206   7.235
    6AU     AUL 2504  29.494  33.109   7.286
    6AU       S 2505  29.952  33.338   7.337
    6AU     LIG 2506  30.226  32.978   7.212
    6AU     LIG 2507  30.616  32.904   6.989
    6AU     LIG 2508  31.026  32.679   6.889
    6AU     LIG 2509  31.477  32.669   7.053
    6AU       S 2510  29.665  33.025   6.839
    6AU     LIG 2511  29.950  32.676   6.884
    6AU     LIG 2512  30.065  32.300   6.627
    6AU     LIG 2513  30.403  31.988   6.489
    6AU     LIG 2514  30.561  31.674   6.170
    6AU    AUSL 2515  28.147  33.352   7.504
    6AU    AUSL 2516  28.224  33.544   7.045
    6AU     AUL 2517  27.965  33.342   7.218
    6AU       S 2518  27.957  33.354   6.712
    6AU     LIG 2519  27.501  33.213   6.634
    6AU     LIG 2520  27.127  32.891   6.577
    6AU     LIG 2521  26.661  32.812   6.414
    6AU     LIG 2522  26.463  32.827   6.014
    6AU       S 2523  27.593  33.292   7.550
    6AU     LIG 2524  27.373  32.925   7.790
    6AU     LIG 2525  27.011  32.638   7.831
    6AU     LIG 2526  26.694  32.505   7.510
    6AU     LIG 2527  26.375  32.202   7.621
    6AU    AUSL 2528  28.071  33.652   7.690
    6AU    AUSL 2529  28.304  33.209   7.785
    6AU     AUL 2530  27.991  33.354   7.844
    6AU       S 2531  28.036  32.955   8.142
    6AU     LIG 2532  27.683  32.602   8.115
    6AU     LIG 2533  27.643  32.146   8.241
    6AU     LIG 2534  27.352  31.868   8.477
    6AU     LIG 2535  27.107  31.576   8.746
    6AU       S 2536  27.586  33.582   7.641
    6AU     LIG 2537  27.308  33.415   7.948
    6AU     LIG 2538  26.940  33.235   7.796
    6AU     LIG 2539  26.491  33.359   7.843
    6AU     LIG 2540  26.128  33.052   7.973
    6AU    AUSL 2541  28.855  34.396   7.951
    6AU    AUSL 2542  28.455  34.400   7.806
    6AU     AUL 2543  28.651  34.478   8.214
    6AU       S 2544  28.261  34.740   7.959
    6AU     LIG 2545  27.886  35.007   8.114
    6AU     LIG 2546  27.633  35.173   8.485
    6AU     LIG 2547  27.597  35.604   8.687
    6AU     LIG 2548  27.249  35.948   8.685
    6AU       S 2549  28.829  34.920   8.034
    6AU     LIG 2550  28.905  35.189   8.416
    6AU     LIG 2551  28.927  35.641   8.580
    6AU     LIG 2552  28.924  36.057   8.813
    6AU     LIG 2553  28.942  36.526   8.941
    6AU    AUSL 2554  28.722  34.531   7.638
    6AU    AUSL 2555  29.061  34.539   7.333
    6AU     AUL 2556  28.668  34.776   7.375
    6AU       S 2557  28.717  34.960   7.840
    6AU     LIG 2558  28.930  35.406   7.962
    6AU     LIG 2559  28.901  35.846   7.966
    6AU     LIG 2560  28.631  36.101   8.181
    6AU     LIG 2561  28.685  36.405   8.510
    6AU       S 2562  29.148  34.957   7.221
    6AU     LIG 2563  29.291  35.417   7.216
    6AU     LIG 2564  29.314  35.876   7.033
    6AU     LIG 2565  29.515  36.257   6.835
    6AU     LIG 2566  29.456  36.477   6.437
    6AU    AUSL 2567  29.080  34.498   7.678
    6AU    AUSL 2568  29.128  34.207   8.086
    6AU     AUL 2569  29.174  34.554   8.018
    6AU       S 2570  29.453  34.407   8.418
    6AU     LIG 2571  29.794  34.467   8.758
    6AU     LIG 2572  30.124  34.768   8.887
    6AU     LIG 2573  30.314  35.113   9.116
    6AU     LIG 2574  30.180  35.390   9.472
    6AU       S 2575  29.048  34.962   7.731
    6AU     LIG 2576  29.359  35.338   7.728
    6AU     LIG 2577  29.386  35.741   8.013
    6AU     LIG 2578  29.242  36.190   8.163
    6AU     LIG 2579  29.451  36.628   8.216
    6AU    AUSL 2580  28.797  33.130   7.924
    6AU    AUSL 2581  29.146  33.128   7.820
    6AU     AUL 2582  28.870  33.049   8.207
    6AU       S 2583  28.921  32.585   7.995
    6AU     LIG 2584  28.813  32.147   8.221
    6AU     LIG 2585  28.539  31.751   8.363
    6AU     LIG 2586  28.453  31.313   8.566
    6AU     LIG 2587  28.738  30.979   8.707
    6AU       S 2588  29.370  32.823   7.957
    6AU     LIG 2589  29.671  32.465   7.953
    6AU     LIG 2590  29.915  32.211   8.265
    6AU     LIG 2591  30.067  31.915   8.600
    6AU     LIG 2592  30.432  31.876   8.888
    6AU    AUSL 2593  28.587  33.079   7.648
    6AU    AUSL 2594  28.519  33.285   8.067
    6AU     AUL 2595  28.504  32.922   7.953
    6AU       S 2596  28.748  32.497   7.754
    6AU     LIG 2597  28.451  32.130   7.825
    6AU     LIG 2598  28.164  31.767   7.973
    6AU     LIG 2599  28.186  31.349   8.144
    6AU     LIG 2600  27.940  31.086   8.451
    6AU       S 2601  28.260  33.077   8.384
    6AU     LIG 2602  27.882  32.776   8.573
    6AU     LIG 2603  27.498  32.490   8.613
    6AU     LIG 2604  27.398  32.282   9.039
    6AU     LIG 2605  27.624  32.383   9.446
    6AU    AUSL 2606  28.902  32.975   7.624
    6AU    AUSL 2607  28.601  33.032   7.302
    6AU     AUL 2608  28.441  32.837   7.561
    6AU       S 2609  28.656  32.543   7.207
    6AU     LIG 2610  28.453  32.102   7.261
    6AU     LIG 2611  28.415  31.687   7.021
    6AU     LIG 2612  28.311  31.304   6.754
    6AU     LIG 2613  28.193  30.934   6.486
    6AU       S 2614  29.010  32.573   7.718
    6AU     LIG 2615  28.976  32.041   7.757
    6AU     LIG 2616  28.668  31.672   7.885
    6AU     LIG 2617  28.734  31.265   8.119
    6AU     LIG 2618  29.105  31.115   8.356
    6AU    AUSL 2619  28.934  34.396   7.003
    6AU    AUSL 2620  29.297  34.288   7.264
    6AU     AUL 2621  29.292  34.510   7.014
    6AU       S 2622  29.016  34.874   6.815
    6AU     LIG 2623  28.935  35.118   6.425
    6AU     LIG 2624  29.131  35.544   6.337
    6AU     LIG 2625  28.955  35.963   6.284
    6AU     LIG 2626  29.037  36.334   6.034
    6AU       S 2627  29.791  34.368   6.912
    6AU     LIG 2628  30.093  34.601   6.658
    6AU     LIG 2629  30.257  34.913   6.346
    6AU     LIG 2630  30.517  35.223   6.103
    6AU     LIG 2631  30.824  35.593   6.111
    6AU    AUSL 2632  28.735  34.452   7.292
    6AU    AUSL 2633  28.609  34.262   6.935
    6AU     AUL 2634  28.630  34.605   7.003
    6AU       S 2635  28.951  35.008   7.044
    6AU     LIG 2636  28.985  35.422   6.822
    6AU     LIG 2637  28.864  35.840   6.777
    6AU     LIG 2638  28.680  36.235   6.660
    6AU     LIG 2639  28.569  36.688   6.659
    6AU       S 2640  28.218  34.594   6.709
    6AU     LIG 2641  28.344  34.908   6.374
    6AU     LIG 2642  28.075  35.004   6.018
    6AU     LIG 2643  27.826  35.292   5.782
    6AU     LIG 2644  27.664  35.334   5.351
    6AU    AUSL 2645  28.797  33.132   7.008
    6AU    AUSL 2646  28.316  33.224   7.206
    6AU     AUL 2647  28.470  32.982   6.963
    6AU       S 2648  27.986  33.050   6.819
    6AU     LIG 2649  27.583  32.773   6.886
    6AU     LIG 2650  27.366  32.364   6.859
    6AU     LIG 2651  27.247  32.057   6.515
    6AU     LIG 2652  26.870  32.002   6.233
    6AU       S 2653  28.793  32.582   6.949
    6AU     LIG 2654  28.714  32.101   6.805
    6AU     LIG 2655  28.692  31.642   6.599
    6AU     LIG 2656  28.539  31.307   6.289
    6AU     LIG 2657  28.635  31.157   5.848
    6AU    AUSL 2658  28.967  33.009   7.296
    6AU    AUSL 2659  29.100  33.296   6.924
    6AU     AUL 2660  29.142  32.958   6.974
    6AU       S 2661  28.934  32.565   7.236
    6AU     LIG 2662  28.962  32.096   7.250
    6AU     LIG 2663  29.034  31.705   6.985
    6AU     LIG 2664  29.293  31.335   6.860
    6AU     LIG 2665  29.339  30.962   6.564
    6AU       S 2666  29.521  33.063   6.637
    6AU     LIG 2667  29.648  32.650   6.455
    6AU     LIG 2668  29.846  32.466   6.064
    6AU     LIG 2669  29.804  32.421   5.588
    6AU     LIG 2670  29.943  32.178   5.197
    7AU     AUC 2671   0.983  33.968   7.510
    7AU     AUC 2672   1.254  33.953   7.351
    7AU     AUC 2673   1.250  33.953   7.677
    7AU     AUC 2674   0.719  33.983   7.340
    7AU     AUC 2675   0.716  33.986   7.673
    7AU     AUC 2676   0.837  34.245   7.502
    7AU     AUC 2677   1.165  34.227   7.510
    7AU     AUC 2678   0.797  33.708   7.510
    7AU     AUC 2679   1.126  33.688   7.513
    7AU     AUC 2680   0.967  33.805   7.779
    7AU     AUC 2681   0.995  34.134   7.778
    7AU     AUC 2682   0.979  33.803   7.245
    7AU     AUC 2683   0.997  34.132   7.238
    7AU     AUC 2684   1.521  33.947   7.196
    7AU     AUC 2685   1.530  33.934   7.510
    7AU     AUC 2686   1.509  33.936   7.830
    7AU     AUC 2687   0.467  33.987   7.168
    7AU     AUC 2688   0.441  33.995   7.505
    7AU     AUC 2689   0.462  34.009   7.836
    7AU     AUC 2690   0.695  34.511   7.498
    7AU     AUC 2691   1.021  34.515   7.498
    7AU     AUC 2692   1.334  34.482   7.511
    7AU     AUC 2693   0.617  33.456   7.512
    7AU     AUC 2694   0.938  33.414   7.510
    7AU     AUC 2695   1.264  33.415   7.524
    7AU     AUC 2696   0.950  33.648   8.040
    7AU     AUC 2697   0.976  33.968   8.065
    7AU     AUC 2698   1.010  34.290   8.035
    7AU     AUC 2699   0.991  33.644   6.993
    7AU     AUC 2700   1.014  33.968   6.966
    7AU     AUC 2701   1.013  34.285   6.969
    7AU     AUC 2702   1.238  33.783   7.953
    7AU     AUC 2703   1.274  34.119   7.956
    7AU     AUC 2704   1.264  33.797   7.078
    7AU     AUC 2705   1.282  34.129   7.082
    7AU     AUC 2706   0.697  33.824   7.962
    7AU     AUC 2707   0.721  34.153   7.951
    7AU     AUC 2708   0.713  33.814   7.072
    7AU     AUC 2709   0.726  34.141   7.047
    7AU     AUC 2710   1.444  34.209   7.359
    7AU     AUC 2711   1.444  34.220   7.687
    7AU     AUC 2712   0.562  34.267   7.325
    7AU     AUC 2713   0.563  34.276   7.674
    7AU     AUC 2714   1.411  33.668   7.356
    7AU     AUC 2715   1.396  33.664   7.679
    7AU     AUC 2716   0.514  33.721   7.344
    7AU     AUC 2717   0.524  33.716   7.680
    7AU     AUC 2718   0.847  34.423   7.770
    7AU     AUC 2719   1.185  34.406   7.779
    7AU     AUC 2720   0.778  33.533   7.784
    7AU     AUC 2721   1.116  33.520   7.784
    7AU     AUC 2722   0.842  34.406   7.214
    7AU     AUC 2723   1.170  34.407   7.231
    7AU     AUC 2724   0.786  33.534   7.235
    7AU     AUC 2725   1.119  33.514   7.240
    7AU    AUSL 2726   1.458  33.895   8.120
    7AU    AUSL 2727   1.266  33.537   8.114
    7AU     AUL 2728   1.354  33.845   8.444
    7AU       S 2729   1.580  33.146   8.236
    7AU     LIG 2730   1.565  32.740   8.402
    7AU     LIG 2731   1.820  32.602   8.752
    7AU     LIG 2732   2.085  32.295   8.978
    7AU     LIG 2733   2.436  32.359   9.291
    7AU       S 2734   1.757  33.564   8.445
    7AU     LIG 2735   1.942  33.684   8.860
    7AU     LIG 2736   2.127  33.715   9.292
    7AU     LIG 2737   2.232  33.619   9.739
    7AU     LIG 2738   2.518  33.687  10.105
    7AU    AUSL 2739   1.077  33.768   8.260
    7AU    AUSL 2740   0.850  34.135   8.276
    7AU     AUL 2741   1.036  33.953   8.576
    7AU       S 2742   1.414  33.401   8.624
    7AU     LIG 2743   1.498  33.511   9.062
    7AU     LIG 2744   1.685  33.522   9.482
    7AU     LIG 2745   1.820  33.346   9.886
    7AU     LIG 2746   2.157  33.318  10.208
    7AU       S 2747   0.576  34.079   8.762
    7AU     LIG 2748   0.425  34.047   9.214
    7AU     LIG 2749   0.336  33.986   9.676
    7AU     LIG 2750   0.202  34.009  10.124
    7AU     LIG 2751   0.286  34.085  10.586
    7AU    AUSL 2752   1.199  34.144   8.254
    7AU    AUSL 2753   1.580  34.216   7.999
    7AU     AUL 2754   1.582  34.111   8.369
    7AU       S 2755   1.215  34.448   8.607
    7AU     LIG 2756   1.493  34.643   8.933
    7AU     LIG 2757   1.730  34.683   9.340
    7AU     LIG 2758   1.720  34.735   9.818
    7AU     LIG 2759   1.817  34.814  10.278
    7AU       S 2760   1.859  34.523   8.278
    7AU     LIG 2761   2.261  34.395   8.450
    7AU     LIG 2762   2.526  34.595   8.743
    7AU     LIG 2763   2.650  34.976   8.943
    7AU     LIG 2764   2.812  35.333   9.172
    7AU    AUSL 2765   1.470  34.049   6.886
    7AU    AUSL 2766   1.319  34.376   6.942
    7AU     AUL 2767   1.271  34.412   6.621
    7AU       S 2768   1.681  34.075   6.469
    7AU     LIG 2769   1.969  33.873   6.158
    7AU     LIG 2770   2.008  33.663   5.745
    7AU     LIG 2771   2.064  33.608   5.278
    7AU     LIG 2772   2.213  33.733   4.846
    7AU       S 2773   1.764  34.521   6.680
    7AU     LIG 2774   1.982  34.762   6.357
    7AU     LIG 2775   2.123  34.981   5.982
    7AU     LIG 2776   2.237  35.346   5.737
    7AU     LIG 2777   2.326  35.424   5.288
    7AU    AUSL 2778   1.269  33.777   6.794
    7AU    AUSL 2779   1.512  33.658   7.045
    7AU     AUL 2780   1.733  33.821   6.899
    7AU       S 2781   1.699  33.364   6.661
    7AU     LIG 2782   2.052  33.067   6.480
    7AU     LIG 2783   2.315  32.675   6.506
    7AU     LIG 2784   2.742  32.725   6.358
    7AU     LIG 2785   3.027  32.941   6.064
    7AU       S 2786   1.542  33.760   6.411
    7AU     LIG 2787   1.660  33.440   6.099
    7AU     LIG 2788   1.591  33.391   5.621
    7AU     LIG 2789   1.592  33.448   5.140
    7AU     LIG 2790   1.791  33.456   4.714
    7AU    AUSL 2791   1.163  34.104   6.747
    7AU    AUSL 2792   0.879  33.808   6.792
    7AU     AUL 2793   1.046  33.826   6.496
    7AU       S 2794   0.546  33.800   6.316
    7AU     LIG 2795   0.425  33.447   6.027
    7AU     LIG 2796   0.292  33.410   5.564
    7AU     LIG 2797   0.136  33.478   5.111
    7AU     LIG 2798   0.079  33.567   4.638
    7AU       S 2799   1.469  34.049   6.315
    7AU     LIG 2800   1.531  33.885   5.881
    7AU     LIG 2801   1.642  33.873   5.435
    7AU     LIG 2802   1.765  33.953   5.000
    7AU     LIG 2803   1.839  34.348   4.753
    7AU    AUSL 2804   0.520  34.059   8.160
    7AU    AUSL 2805   0.728  34.405   8.061
    7AU     AUL 2806   0.677  34.404   8.390
    7AU       S 2807   0.325  34.103   8.617
    7AU     LIG 2808   0.070  33.842   8.905
    7AU     LIG 2809  44.993  33.762   9.362
    7AU     LIG 2810  44.815  33.935   9.770
    7AU     LIG 2811  44.427  34.058  10.025
    7AU       S 2812   0.276  34.705   8.246
    7AU     LIG 2813   0.302  34.869   8.675
    7AU     LIG 2814   0.241  35.178   9.000
    7AU     LIG 2815  44.907  35.390   9.218
    7AU     LIG 2816  44.721  35.702   9.496
    7AU    AUSL 2817   0.731  33.798   8.269
    7AU    AUSL 2818   0.429  33.729   7.967
    7AU     AUL 2819   0.314  33.767   8.250
    7AU       S 2820   0.118  33.290   8.269
    7AU     LIG 2821  44.675  33.086   8.204
    7AU     LIG 2822  44.395  32.744   8.418
    7AU     LIG 2823  44.082  32.604   8.765
    7AU     LIG 2824  43.643  32.617   8.972
    7AU       S 2825   0.548  33.808   8.696
    7AU     LIG 2826   0.470  33.555   9.068
    7AU     LIG 2827   0.406  33.495   9.513
    7AU     LIG 2828   0.142  33.542   9.888
    7AU     LIG 2829   0.136  33.550  10.364
    7AU    AUSL 2830   0.560  33.935   6.837
    7AU    AUSL 2831   0.672  33.554   6.946
    7AU     AUL 2832   0.808  33.544   6.647
    7AU       S 2833   0.360  33.890   6.448
    7AU     LIG 2834   0.022  33.691   6.207
    7AU     LIG 2835  44.901  33.683   5.747
    7AU     LIG 2836  44.750  33.780   5.310
    7AU     LIG 2837  44.455  33.934   4.984
    7AU       S 2838   0.315  33.419   6.598
    7AU     LIG 2839   0.217  33.029   6.359
    7AU     LIG 2840  44.886  32.701   6.331
    7AU     LIG 2841  44.529  32.575   6.067
    7AU     LIG 2842  44.395  32.383   5.661
    7AU    AUSL 2843   0.829  34.157   6.743
    7AU    AUSL 2844   0.428  34.262   7.008
    7AU     AUL 2845   0.542  34.303   6.667
    7AU       S 2846   0.081  34.491   6.742
    7AU     LIG 2847  44.781  34.792   6.584
    7AU     LIG 2848  44.665  35.034   6.202
    7AU     LIG 2849  44.491  34.830   5.814
    7AU     LIG 2850  44.162  34.708   5.492
    7AU       S 2851   0.642  34.052   6.250
    7AU     LIG 2852   0.358  33.933   5.862
    7AU     LIG 2853   0.245  33.906   5.402
    7AU     LIG 2854   0.079  33.984   4.962
    7AU     LIG 2855   0.079  34.141   4.517
    7AU    AUSL 2856   1.647  34.381   7.489
    7AU    AUSL 2857   1.617  34.260   7.131
    7AU     AUL 2858   1.693  34.691   7.361
    7AU       S 2859   1.906  34.370   6.872
    7AU     LIG 2860   2.300  34.448   6.636
    7AU     LIG 2861   2.483  34.662   6.242
    7AU     LIG 2862   2.633  35.019   5.939
    7AU     LIG 2863   2.744  35.368   5.638
    7AU       S 2864   2.142  34.459   7.312
    7AU     LIG 2865   2.593  34.654   7.364
    7AU     LIG 2866   2.791  34.904   7.695
    7AU     LIG 2867   3.183  35.161   7.735
    7AU     LIG 2868   3.633  35.146   7.893
    7AU    AUSL 2869   1.773  34.051   7.364
    7AU    AUSL 2870   1.710  33.770   7.653
    7AU     AUL 2871   2.031  33.919   7.694
    7AU       S 2872   2.153  34.146   7.234
    7AU     LIG 2873   2.579  34.226   7.079
    7AU     LIG 2874   3.030  34.145   7.198
    7AU     LIG 2875   3.439  34.062   6.992
    7AU     LIG 2876   3.777  34.355   6.762
    7AU       S 2877   2.158  33.425   7.559
    7AU     LIG 2878   2.585  33.205   7.600
    7AU     LIG 2879   2.922  32.926   7.771
    7AU     LIG 2880   3.358  32.965   7.912
    7AU     LIG 2881   3.812  33.019   7.946
    7AU    AUSL 2882   1.730  34.114   7.703
    7AU    AUSL 2883   1.495  34.520   7.787
    7AU     AUL 2884   1.841  34.423   7.786
    7AU       S 2885   1.815  34.793   8.135
    7AU     LIG 2886   2.289  34.800   8.139
    7AU     LIG 2887   2.628  34.984   8.391
    7AU     LIG 2888   2.649  35.399   8.636
    7AU     LIG 2889   2.624  35.760   8.948
    7AU       S 2890   2.243  34.320   7.496
    7AU     LIG 2891   2.567  34.430   7.826
    7AU     LIG 2892   2.998  34.272   7.892
    7AU     LIG 2893   3.442  34.303   8.051
    7AU     LIG 2894   3.646  34.635   8.293
    7AU    AUSL 2895   0.403  34.491   7.523
    7AU    AUSL 2896   0.405  34.304   7.941
    7AU     AUL 2897   0.098  34.496   7.729
    7AU       S 2898   0.141  34.441   8.253
    7AU     LIG 2899  44.849  34.672   8.543
    7AU     LIG 2900  44.788  34.940   8.924
    7AU     LIG 2901  44.551  35.025   9.329
    7AU     LIG 2902  44.199  34.970   9.646
    7AU       S 2903   0.249  34.944   7.505
    7AU     LIG 2904  44.821  35.069   7.635
    7AU     LIG 2905  44.419  35.275   7.535
    7AU     LIG 2906  43.987  35.465   7.588
    7AU     LIG 2907  43.642  35.722   7.783
    7AU    AUSL 2908   0.286  34.164   7.299
    7AU    AUSL 2909   0.532  34.562   7.208
    7AU     AUL 2910   0.166  34.468   7.251
    7AU       S 2911  44.908  34.073   6.949
    7AU     LIG 2912  44.597  34.484   6.976
    7AU     LIG 2913  44.174  34.734   7.021
    7AU     LIG 2914  43.685  34.828   6.977
    7AU     LIG 2915  43.283  34.927   6.709
    7AU       S 2916   0.236  34.909   7.003
    7AU     LIG 2917  44.956  35.221   6.809
    7AU     LIG 2918  44.913  35.450   6.418
    7AU     LIG 2919  44.817  35.682   6.044
    7AU     LIG 2920  44.445  35.894   5.870
    7AU    AUSL 2921   0.256  34.171   7.669
    7AU    AUSL 2922   0.199  33.842   7.346
    7AU     AUL 2923  44.974  34.193   7.451
    7AU       S 2924  44.719  33.742   7.429
    7AU     LIG 2925  44.246  33.702   7.383
    7AU     LIG 2926  43.767  33.695   7.317
    7AU     LIG 2927  43.423  33.436   7.164
    7AU     LIG 2928  42.979  33.478   7.080
    7AU       S 2929  44.870  34.101   7.987
    7AU     LIG 2930  44.452  34.251   7.801
    7AU     LIG 2931  44.058  34.525   7.788
    7AU     LIG 2932  43.690  34.809   7.911
    7AU     LIG 2933  43.289  34.843   8.179
    7AU    AUSL 2934   1.594  33.456   7.570
    7AU    AUSL 2935   1.540  33.626   7.923
    7AU     AUL 2936   1.868  33.657   7.908
    7AU       S 2937   1.969  33.231   7.609
    7AU     LIG 2938   2.207  32.897   7.396
    7AU     LIG 2939   2.623  32.687   7.413
    7AU     LIG 2940   3.090  32.664   7.374
    7AU     LIG 2941   3.523  32.672   7.497
    7AU       S 2942   1.780  33.198   8.095
    7AU     LIG 2943   2.050  32.925   8.395
    7AU     LIG 2944   2.332  32.577   8.621
    7AU     LIG 2945   2.586  32.215   8.826
    7AU     LIG 2946   2.879  32.072   9.181
    7AU    AUSL 2947   1.721  33.715   7.312
    7AU    AUSL 2948   1.397  33.395   7.261
    7AU     AUL 2949   1.706  33.370   7.202
    7AU       S 2950   2.162  33.534   7.333
    7AU     LIG 2951   2.482  33.239   7.101
    7AU     LIG 2952   2.813  32.889   6.986
    7AU     LIG 2953   3.301  32.932   6.972
    7AU     LIG 2954   3.753  32.840   7.049
    7AU       S 2955   1.649  33.127   6.766
    7AU     LIG 2956   1.917  32.738   6.852
    7AU     LIG 2957   2.001  32.278   6.772
    7AU     LIG 2958   2.224  31.996   6.444
    7AU     LIG 2959   2.649  31.819   6.290
    7AU    AUSL 2960   0.310  33.534   7.524
    7AU    AUSL 2961   0.373  33.738   7.057
    7AU     AUL 2962   0.123  33.493   7.235
    7AU       S 2963   0.096  33.587   6.727
    7AU     LIG 2964  44.765  33.258   6.484
    7AU     LIG 2965  44.443  32.876   6.519
    7AU     LIG 2966  44.086  32.624   6.326
    7AU     LIG 2967  44.026  32.683   5.873
    7AU       S 2968  44.749  33.494   7.572
    7AU     LIG 2969  44.352  33.276   7.653
    7AU     LIG 2970  43.941  33.224   7.429
    7AU     LIG 2971  43.593  32.942   7.370
    7AU     LIG 2972  43.650  32.507   7.553
    7AU    AUSL 2973   0.233  33.837   7.697
    7AU    AUSL 2974   0.481  33.403   7.804
    7AU     AUL 2975   0.159  33.551   7.857
    7AU       S 2976   0.196  33.080   8.061
    7AU     LIG 2977  44.907  32.663   8.016
    7AU     LIG 2978  44.536  32.347   8.110
    7AU     LIG 2979  44.238  32.207   8.463
    7AU     LIG 2980  44.061  31.862   8.774
    7AU       S 2981  44.743  33.758   7.651
    7AU     LIG 2982  44.369  33.739   7.884
    7AU     LIG 2983  43.939  33.593   7.798
    7AU     LIG 2984  43.519  33.413   7.706
    7AU     LIG 2985  43.114  33.409   7.958
    7AU    AUSL 2986   1.011  34.606   7.950
    7AU    AUSL 2987   0.587  34.598   7.809
    7AU     AUL 2988   0.783  34.720   8.183
    7AU       S 2989   0.334  34.909   7.997
    7AU     LIG 2990   0.019  35.131   8.323
    7AU     LIG 2991  44.876  35.405   8.696
    7AU     LIG 2992  44.693  35.794   8.939
    7AU     LIG 2993  44.420  36.210   8.951
    7AU       S 2994   1.014  35.145   8.014
    7AU     LIG 2995   1.343  35.384   8.223
    7AU     LIG 2996   1.356  35.789   8.434
    7AU     LIG 2997   1.161  36.118   8.691
    7AU     LIG 2998   0.995  36.490   8.909
    7AU    AUSL 2999   0.856  34.734   7.643
    7AU    AUSL 3000   1.182  34.750   7.325
    7AU     AUL 3001   0.791  34.982   7.384
    7AU       S 3002   0.853  35.173   7.842
    7AU     LIG 3003   0.967  35.651   7.979
    7AU     LIG 3004   0.999  36.081   8.186
    7AU     LIG 3005   0.953  36.473   8.390
    7AU     LIG 3006   0.775  36.903   8.312
    7AU       S 3007   1.271  35.175   7.210
    7AU     LIG 3008   1.394  35.651   7.209
    7AU     LIG 3009   1.462  36.094   7.037
    7AU     LIG 3010   1.725  36.377   6.745
    7AU     LIG 3011   1.646  36.822   6.537
    7AU    AUSL 3012   1.218  34.710   7.667
    7AU    AUSL 3013   1.294  34.422   8.074
    7AU     AUL 3014   1.329  34.761   8.005
    7AU       S 3015   1.625  34.644   8.396
    7AU     LIG 3016   1.964  34.694   8.743
    7AU     LIG 3017   2.185  34.844   9.123
    7AU     LIG 3018   2.409  35.109   9.438
    7AU     LIG 3019   2.454  35.586   9.457
    7AU       S 3020   1.195  35.173   7.721
    7AU     LIG 3021   1.436  35.584   7.759
    7AU     LIG 3022   1.475  35.996   7.978
    7AU     LIG 3023   1.472  36.365   8.275
    7AU     LIG 3024   1.710  36.776   8.360
    7AU    AUSL 3025   0.971  33.356   7.943
    7AU    AUSL 3026   1.339  33.353   7.825
    7AU     AUL 3027   1.092  33.282   8.224
    7AU       S 3028   1.064  32.807   8.061
    7AU     LIG 3029   0.904  32.465   8.340
    7AU     LIG 3030   0.707  32.079   8.513
    7AU     LIG 3031   0.941  31.682   8.641
    7AU     LIG 3032   1.109  31.278   8.848
    7AU       S 3033   1.564  33.048   7.947
    7AU     LIG 3034   1.843  32.700   7.962
    7AU     LIG 3035   1.975  32.418   8.289
    7AU     LIG 3036   2.194  32.063   8.515
    7AU     LIG 3037   2.366  31.702   8.777
    7AU    AUSL 3038   0.746  33.221   7.686
    7AU    AUSL 3039   0.679  33.511   8.093
    7AU     AUL 3040   0.696  33.190   8.044
    7AU       S 3041   0.801  32.727   7.922
    7AU     LIG 3042   0.483  32.405   8.053
    7AU     LIG 3043   0.414  31.944   8.060
    7AU     LIG 3044   0.319  31.499   7.939
    7AU     LIG 3045   0.223  31.047   8.077
    7AU       S 3046   0.335  33.231   8.384
    7AU     LIG 3047   0.022  32.824   8.487
    7AU     LIG 3048  44.751  32.407   8.577
    7AU     LIG 3049  44.449  32.268   8.918
    7AU     LIG 3050  44.275  32.539   9.257
    7AU    AUSL 3051   1.097  33.178   7.664
    7AU    AUSL 3052   0.742  33.233   7.323
    7AU     AUL 3053   0.828  32.953   7.483
    7AU       S 3054   0.800  32.746   7.027
    7AU     LIG 3055   0.623  32.315   7.046
    7AU     LIG 3056   0.619  31.845   7.141
    7AU     LIG 3057   0.379  31.472   6.991
    7AU     LIG 3058   0.106  31.296   6.621
    7AU       S 3059   1.155  32.770   7.838
    7AU     LIG 3060   0.978  32.290   7.840
    7AU     LIG 3061   0.957  31.906   8.108
    7AU     LIG 3062   1.321  31.637   8.275
    7AU     LIG 3063   1.507  31.251   8.519
    7AU    AUSL 3064   1.048  34.599   6.999
    7AU    AUSL 3065   1.423  34.509   7.250
    7AU     AUL 3066   1.393  34.724   6.997
    7AU       S 3067   1.119  35.094   6.818
    7AU     LIG 3068   1.391  35.464   6.728
    7AU     LIG 3069   1.330  35.900   6.586
    7AU     LIG 3070   1.407  36.153   6.235
    7AU     LIG 3071   1.151  36.273   5.896
    7AU       S 3072   1.894  34.654   6.902
    7AU     LIG 3073   2.219  34.956   6.768
    7AU     LIG 3074   2.406  35.147   6.385
    7AU     LIG 3075   2.547  35.520   6.121
    7AU     LIG 3076   2.940  35.767   5.975
    7AU    AUSL 3077   0.855  34.660   7.291
    7AU    AUSL 3078   0.734  34.445   6.935
    7AU     AUL 3079   0.738  34.797   6.990
    7AU       S 3080   1.056  35.215   7.044
    7AU     LIG 3081   0.961  35.686   6.926
    7AU     LIG 3082   0.971  36.153   6.887
    7AU     LIG 3083   0.735  36.518   6.671
    7AU     LIG 3084   0.699  36.833   6.335
    7AU       S 3085   0.300  34.746   6.727
    7AU     LIG 3086   0.178  35.012   6.347
    7AU     LIG 3087   0.075  35.232   5.928
    7AU     LIG 3088   0.242  35.292   5.477
    7AU     LIG 3089   0.243  35.539   5.073
    7AU    AUSL 3090   0.938  33.323   7.030
    7AU    AUSL 3091   0.478  33.438   7.224
    7AU     AUL 3092   0.590  33.198   7.001
    7AU       S 3093   0.156  33.307   6.777
    7AU     LIG 3094  44.953  32.894   6.811
    7AU     LIG 3095  44.690  32.513   6.790
    7AU     LIG 3096  44.448  32.269   6.486
    7AU     LIG 3097  44.211  32.154   6.097
    7AU       S 3098   0.964  32.894   6.803
    7AU     LIG 3099   0.948  32.446   6.640
    7AU     LIG 3100   0.872  31.996   6.696
    7AU     LIG 3101   0.817  31.531   6.698
    7AU     LIG 3102   0.964  31.163   6.447
    7AU    AUSL 3103   1.098  33.208   7.328
    7AU    AUSL 3104   1.229  33.473   6.943
    7AU     AUL 3105   1.296  33.140   7.102
    7AU       S 3106   1.068  32.700   7.091
    7AU     LIG 3107   1.114  32.207   7.102
    7AU     LIG 3108   1.122  31.724   7.069
    7AU     LIG 3109   1.262  31.301   6.914
    7AU     LIG 3110   1.461  31.073   6.554
    7AU       S 3111   1.400  33.277   6.600
    7AU     LIG 3112   1.587  32.962   6.302
    7AU     LIG 3113   1.801  32.551   6.354
    7AU     LIG 3114   1.685  32.185   6.093
    7AU     LIG 3115   1.723  32.050   5.634
    8AU     AUC 3116  15.482   9.112   7.503
    8AU     AUC 3117  15.755   9.092   7.343
    8AU     AUC 3118  15.747   9.092   7.671
    8AU     AUC 3119  15.218   9.128   7.336
    8AU     AUC 3120  15.214   9.130   7.664
    8AU     AUC 3121  15.335   9.392   7.498
    8AU     AUC 3122  15.665   9.369   7.504
    8AU     AUC 3123  15.297   8.854   7.500
    8AU     AUC 3124  15.627   8.829   7.503
    8AU     AUC 3125  15.465   8.948   7.770
    8AU     AUC 3126  15.491   9.277   7.770
    8AU     AUC 3127  15.478   8.945   7.236
    8AU     AUC 3128  15.501   9.277   7.235
    8AU     AUC 3129  16.023   9.076   7.199
    8AU     AUC 3130  16.029   9.069   7.507
    8AU     AUC 3131  16.001   9.073   7.827
    8AU     AUC 3132  14.966   9.138   7.167
    8AU     AUC 3133  14.938   9.140   7.501
    8AU     AUC 3134  14.958   9.152   7.825
    8AU     AUC 3135  15.197   9.668   7.494
    8AU     AUC 3136  15.514   9.666   7.491
    8AU     AUC 3137  15.836   9.615   7.506
    8AU     AUC 3138  15.116   8.608   7.499
    8AU     AUC 3139  15.443   8.566   7.490
    8AU     AUC 3140  15.763   8.552   7.512
    8AU     AUC 3141  15.442   8.786   8.028
    8AU     AUC 3142  15.467   9.107   8.056
    8AU     AUC 3143  15.501   9.430   8.030
    8AU     AUC 3144  15.483   8.785   6.981
    8AU     AUC 3145  15.517   9.117   6.959
    8AU     AUC 3146  15.526   9.432   6.971
    8AU     AUC 3147  15.727   8.923   7.953
    8AU     AUC 3148  15.767   9.260   7.949
    8AU     AUC 3149  15.758   8.925   7.074
    8AU     AUC 3150  15.788   9.279   7.072
    8AU     AUC 3151  15.195   8.965   7.945
    8AU     AUC 3152  15.216   9.294   7.940
    8AU     AUC 3153  15.209   8.959   7.067
    8AU     AUC 3154  15.230   9.282   7.054
    8AU     AUC 3155  15.946   9.346   7.346
    8AU     AUC 3156  15.946   9.353   7.682
    8AU     AUC 3157  15.061   9.417   7.322
    8AU     AUC 3158  15.059   9.421   7.666
    8AU     AUC 3159  15.912   8.797   7.347
    8AU     AUC 3160  15.885   8.797   7.678
    8AU     AUC 3161  15.014   8.865   7.337
    8AU     AUC 3162  15.023   8.859   7.674
    8AU     AUC 3163  15.344   9.568   7.766
    8AU     AUC 3164  15.678   9.545   7.774
    8AU     AUC 3165  15.281   8.684   7.776
    8AU     AUC 3166  15.610   8.660   7.776
    8AU     AUC 3167  15.349   9.567   7.227
    8AU     AUC 3168  15.679   9.546   7.223
    8AU     AUC 3169  15.284   8.676   7.223
    8AU     AUC 3170  15.624   8.652   7.226
    8AU    AUSL 3171  15.949   9.040   8.114
    8AU    AUSL 3172  15.745   8.680   8.115
    8AU     AUL 3173  15.833   8.993   8.422
    8AU       S 3174  16.062   8.314   8.270
    8AU     LIG 3175  16.052   7.872   8.371
    8AU     LIG 3176  16.351   7.612   8.601
    8AU     LIG 3177  16.647   7.385   8.879
    8AU     LIG 3178  16.765   7.231   9.293
    8AU       S 3179  16.239   8.727   8.470
    8AU     LIG 3180  16.332   8.905   8.891
    8AU     LIG 3181  16.325   8.997   9.348
    8AU     LIG 3182  16.519   8.866   9.751
    8AU     LIG 3183  16.930   8.828   9.968
    8AU    AUSL 3184  15.545   8.903   8.264
    8AU    AUSL 3185  15.341   9.262   8.273
    8AU     AUL 3186  15.527   9.101   8.583
    8AU       S 3187  15.863   8.571   8.655
    8AU     LIG 3188  15.954   8.649   9.135
    8AU     LIG 3189  16.064   8.635   9.610
    8AU     LIG 3190  16.189   8.566  10.070
    8AU     LIG 3191  16.106   8.421  10.525
    8AU       S 3192  15.047   9.124   8.734
    8AU     LIG 3193  14.874   9.091   9.164
    8AU     LIG 3194  14.804   9.044   9.621
    8AU     LIG 3195  14.668   9.055  10.065
    8AU     LIG 3196  14.418   9.322  10.364
    8AU    AUSL 3197  15.687   9.290   8.245
    8AU    AUSL 3198  16.076   9.355   7.986
    8AU     AUL 3199  16.068   9.256   8.362
    8AU       S 3200  15.703   9.594   8.602
    8AU     LIG 3201  15.976   9.662   8.992
    8AU     LIG 3202  16.065   9.626   9.471
    8AU     LIG 3203  16.037   9.667   9.960
    8AU     LIG 3204  16.169   9.716  10.422
    8AU       S 3205  16.346   9.664   8.276
    8AU     LIG 3206  16.765   9.674   8.410
    8AU     LIG 3207  16.987   9.912   8.722
    8AU     LIG 3208  17.184  10.208   9.025
    8AU     LIG 3209  17.475  10.565   9.110
    8AU    AUSL 3210  15.955   9.130   6.926
    8AU    AUSL 3211  15.829   9.553   6.915
    8AU     AUL 3212  16.046   9.365   6.688
    8AU       S 3213  16.108   8.970   6.364
    8AU     LIG 3214  16.428   8.796   6.100
    8AU     LIG 3215  16.486   8.778   5.637
    8AU     LIG 3216  16.558   8.814   5.172
    8AU     LIG 3217  16.765   8.891   4.754
    8AU       S 3218  16.227   9.825   6.668
    8AU     LIG 3219  16.389   9.935   6.242
    8AU     LIG 3220  16.628  10.191   5.934
    8AU     LIG 3221  16.838  10.453   5.614
    8AU     LIG 3222  16.820  10.817   5.324
    8AU    AUSL 3223  15.733   8.923   6.766
    8AU    AUSL 3224  16.024   8.792   7.037
    8AU     AUL 3225  16.214   9.001   6.846
    8AU       S 3226  16.213   8.530   6.647
    8AU     LIG 3227  16.586   8.341   6.403
    8AU     LIG 3228  16.969   8.032   6.339
    8AU     LIG 3229  17.429   7.926   6.188
    8AU     LIG 3230  17.890   8.072   6.153
    8AU       S 3231  15.912   8.843   6.372
    8AU     LIG 3232  15.997   8.527   6.055
    8AU     LIG 3233  16.055   8.502   5.580
    8AU     LIG 3234  16.123   8.536   5.099
    8AU     LIG 3235  16.346   8.603   4.686
    8AU    AUSL 3236  15.686   9.279   6.738
    8AU    AUSL 3237  15.362   8.958   6.799
    8AU     AUL 3238  15.483   9.071   6.499
    8AU       S 3239  14.965   8.984   6.342
    8AU     LIG 3240  14.880   8.628   6.050
    8AU     LIG 3241  14.857   8.511   5.591
    8AU     LIG 3242  14.686   8.526   5.147
    8AU     LIG 3243  14.612   8.529   4.674
    8AU       S 3244  15.907   9.164   6.246
    8AU     LIG 3245  16.028   8.987   5.825
    8AU     LIG 3246  16.089   8.984   5.357
    8AU     LIG 3247  16.184   9.055   4.901
    8AU     LIG 3248  16.208   9.345   4.529
    8AU    AUSL 3249  15.014   9.212   8.142
    8AU    AUSL 3250  15.217   9.533   8.065
    8AU     AUL 3251  15.143   9.512   8.413
    8AU       S 3252  14.815   9.151   8.607
    8AU     LIG 3253  14.563   8.833   8.835
    8AU     LIG 3254  14.464   8.789   9.297
    8AU     LIG 3255  14.295   8.931   9.711
    8AU     LIG 3256  14.188   8.889  10.162
    8AU       S 3257  14.771   9.842   8.242
    8AU     LIG 3258  14.686   9.953   8.678
    8AU     LIG 3259  14.614  10.269   9.003
    8AU     LIG 3260  14.389  10.628   9.175
    8AU     LIG 3261  14.066  10.669   9.493
    8AU    AUSL 3262  15.196   8.936   8.228
    8AU    AUSL 3263  14.941   8.860   7.969
    8AU     AUL 3264  14.739   9.022   8.136
    8AU       S 3265  14.718   8.562   8.356
    8AU     LIG 3266  14.242   8.501   8.316
    8AU     LIG 3267  13.846   8.242   8.237
    8AU     LIG 3268  13.627   7.893   8.486
    8AU     LIG 3269  13.429   7.546   8.751
    8AU       S 3270  15.024   8.885   8.595
    8AU     LIG 3271  15.013   8.629   8.973
    8AU     LIG 3272  14.916   8.579   9.428
    8AU     LIG 3273  14.654   8.582   9.826
    8AU     LIG 3274  14.540   8.526  10.282
    8AU    AUSL 3275  15.054   9.108   6.839
    8AU    AUSL 3276  15.167   8.692   6.929
    8AU     AUL 3277  15.289   8.734   6.611
    8AU       S 3278  14.794   9.113   6.504
    8AU     LIG 3279  14.472   8.872   6.237
    8AU     LIG 3280  14.438   8.754   5.771
    8AU     LIG 3281  14.302   8.830   5.315
    8AU     LIG 3282  14.209   8.797   4.846
    8AU       S 3283  14.793   8.582   6.595
    8AU     LIG 3284  14.415   8.361   6.345
    8AU     LIG 3285  14.189   7.938   6.296
    8AU     LIG 3286  13.963   7.613   6.033
    8AU     LIG 3287  13.916   7.527   5.562
    8AU    AUSL 3288  15.340   9.307   6.747
    8AU    AUSL 3289  14.923   9.414   7.002
    8AU     AUL 3290  15.089   9.503   6.670
    8AU       S 3291  14.589   9.601   6.729
    8AU     LIG 3292  14.233   9.934   6.663
    8AU     LIG 3293  14.058  10.289   6.382
    8AU     LIG 3294  13.933  10.420   5.931
    8AU     LIG 3295  13.656  10.250   5.588
    8AU       S 3296  15.047   9.219   6.266
    8AU     LIG 3297  14.802   9.110   5.872
    8AU     LIG 3298  14.778   8.992   5.416
    8AU     LIG 3299  14.675   9.001   4.951
    8AU     LIG 3300  14.498   9.076   4.518
    8AU    AUSL 3301  16.144   9.500   7.490
    8AU    AUSL 3302  16.126   9.399   7.105
    8AU     AUL 3303  16.215   9.807   7.379
    8AU       S 3304  16.438   9.607   6.903
    8AU     LIG 3305  16.691   9.613   6.529
    8AU     LIG 3306  16.921   9.886   6.238
    8AU     LIG 3307  17.148  10.160   5.936
    8AU     LIG 3308  17.310  10.232   5.509
    8AU       S 3309  16.660   9.565   7.358
    8AU     LIG 3310  17.110   9.697   7.301
    8AU     LIG 3311  17.543   9.878   7.367
    8AU     LIG 3312  17.867  10.209   7.323
    8AU     LIG 3313  17.901  10.599   7.074
    8AU    AUSL 3314  16.263   9.188   7.343
    8AU    AUSL 3315  16.180   8.898   7.659
    8AU     AUL 3316  16.506   8.974   7.567
    8AU       S 3317  16.672   9.316   7.228
    8AU     LIG 3318  17.098   9.266   7.027
    8AU     LIG 3319  17.535   9.429   7.117
    8AU     LIG 3320  17.988   9.443   7.131
    8AU     LIG 3321  18.376   9.444   6.892
    8AU       S 3322  16.606   8.468   7.698
    8AU     LIG 3323  17.068   8.317   7.801
    8AU     LIG 3324  17.539   8.173   7.809
    8AU     LIG 3325  17.964   8.413   7.949
    8AU     LIG 3326  18.382   8.612   8.083
    8AU    AUSL 3327  16.253   9.234   7.703
    8AU    AUSL 3328  15.990   9.658   7.779
    8AU     AUL 3329  16.331   9.567   7.781
    8AU       S 3330  16.303   9.922   8.146
    8AU     LIG 3331  16.622  10.170   8.415
    8AU     LIG 3332  16.950  10.445   8.633
    8AU     LIG 3333  17.246  10.820   8.700
    8AU     LIG 3334  17.483  11.166   8.507
    8AU       S 3335  16.766   9.404   7.573
    8AU     LIG 3336  17.152   9.607   7.805
    8AU     LIG 3337  17.642   9.606   7.782
    8AU     LIG 3338  18.085   9.447   7.886
    8AU     LIG 3339  18.553   9.583   7.823
    8AU    AUSL 3340  14.908   9.642   7.521
    8AU    AUSL 3341  14.894   9.451   7.922
    8AU     AUL 3342  14.599   9.653   7.704
    8AU       S 3343  14.622   9.585   8.229
    8AU     LIG 3344  14.266   9.832   8.393
    8AU     LIG 3345  14.193  10.155   8.722
    8AU     LIG 3346  13.978  10.315   9.107
    8AU     LIG 3347  13.595  10.258   9.389
    8AU       S 3348  14.767  10.111   7.518
    8AU     LIG 3349  14.288  10.340   7.460
    8AU     LIG 3350  13.799  10.458   7.585
    8AU     LIG 3351  13.344  10.637   7.536
    8AU     LIG 3352  13.122  10.949   7.249
    8AU    AUSL 3353  14.782   9.312   7.291
    8AU    AUSL 3354  15.036   9.716   7.208
    8AU     AUL 3355  14.665   9.626   7.247
    8AU       S 3356  14.409   9.189   6.937
    8AU     LIG 3357  13.949   9.390   6.979
    8AU     LIG 3358  13.544   9.677   7.007
    8AU     LIG 3359  13.214  10.011   6.868
    8AU     LIG 3360  12.753  10.116   6.791
    8AU       S 3361  14.800  10.081   7.025
    8AU     LIG 3362  14.462  10.368   6.859
    8AU     LIG 3363  14.427  10.628   6.478
    8AU     LIG 3364  14.094  10.815   6.229
    8AU     LIG 3365  13.880  11.230   6.289
    8AU    AUSL 3366  14.741   9.312   7.656
    8AU    AUSL 3367  14.701   8.989   7.348
    8AU     AUL 3368  14.464   9.339   7.428
    8AU       S 3369  14.224   8.880   7.428
    8AU     LIG 3370  13.781   8.753   7.430
    8AU     LIG 3371  13.354   8.672   7.354
    8AU     LIG 3372  12.898   8.648   7.337
    8AU     LIG 3373  12.576   8.651   7.032
    8AU       S 3374  14.316   9.292   7.941
    8AU     LIG 3375  13.940   9.605   8.021
    8AU     LIG 3376  13.530   9.841   8.135
    8AU     LIG 3377  13.128  10.104   8.182
    8AU     LIG 3378  12.670  10.033   8.149
    8AU    AUSL 3379  16.082   8.586   7.566
    8AU    AUSL 3380  16.027   8.759   7.933
    8AU     AUL 3381  16.351   8.839   7.901
    8AU       S 3382  16.395   8.315   7.632
    8AU     LIG 3383  16.726   7.993   7.563
    8AU     LIG 3384  17.157   7.856   7.577
    8AU     LIG 3385  17.488   7.644   7.793
    8AU     LIG 3386  17.686   7.257   7.759
    8AU       S 3387  16.270   8.377   8.117
    8AU     LIG 3388  16.528   8.087   8.411
    8AU     LIG 3389  16.846   7.788   8.621
    8AU     LIG 3390  17.175   7.511   8.827
    8AU     LIG 3391  17.629   7.402   8.947
    8AU    AUSL 3392  16.225   8.844   7.321
    8AU    AUSL 3393  15.910   8.510   7.235
    8AU     AUL 3394  16.234   8.530   7.196
    8AU       S 3395  16.670   8.505   7.433
    8AU     LIG 3396  17.092   8.295   7.283
    8AU     LIG 3397  17.492   8.308   7.020
    8AU     LIG 3398  17.807   8.587   6.788
    8AU     LIG 3399  18.270   8.580   6.719
    8AU       S 3400  16.189   8.275   6.767
    8AU     LIG 3401  16.507   7.916   6.686
    8AU     LIG 3402  16.857   7.581   6.583
    8AU     LIG 3403  17.102   7.163   6.576
    8AU     LIG 3404  17.079   6.878   6.200
    8AU    AUSL 3405  14.815   8.679   7.518
    8AU    AUSL 3406  14.879   8.885   7.055
    8AU     AUL 3407  14.634   8.642   7.234
    8AU       S 3408  14.599   8.740   6.736
    8AU     LIG 3409  14.144   8.600   6.718
    8AU     LIG 3410  13.899   8.229   6.602
    8AU     LIG 3411  13.663   7.936   6.337
    8AU     LIG 3412  13.429   7.647   6.046
    8AU       S 3413  14.257   8.625   7.559
    8AU     LIG 3414  14.013   8.245   7.683
    8AU     LIG 3415  13.645   8.037   7.493
    8AU     LIG 3416  13.284   7.784   7.642
    8AU     LIG 3417  12.833   7.840   7.768
    8AU    AUSL 3418  14.731   8.976   7.705
    8AU    AUSL 3419  14.979   8.544   7.802
    8AU     AUL 3420  14.661   8.666   7.854
    8AU       S 3421  14.724   8.304   8.189
    8AU     LIG 3422  14.319   8.053   8.083
    8AU     LIG 3423  13.945   7.749   8.098
    8AU     LIG 3424  13.790   7.404   8.387
    8AU     LIG 3425  13.707   7.101   8.731
    8AU       S 3426  14.254   8.884   7.657
    8AU     LIG 3427  13.923   8.673   7.932
    8AU     LIG 3428  13.538   8.442   7.784
    8AU     LIG 3429  13.094   8.648   7.822
    8AU     LIG 3430  12.715   8.429   7.783
    8AU    AUSL 3431  15.497   9.747   7.954
    8AU    AUSL 3432  15.095   9.737   7.814
    8AU     AUL 3433  15.280   9.809   8.220
    8AU       S 3434  14.850  10.038   8.008
    8AU     LIG 3435  14.537  10.285   8.308
    8AU     LIG 3436  14.441  10.608   8.647
    8AU     LIG 3437  14.178  10.958   8.823
    8AU     LIG 3438  13.738  11.069   8.799
    8AU       S 3439  15.443  10.252   8.075
    8AU     LIG 3440  15.666  10.521   8.398
    8AU     LIG 3441  15.761  10.963   8.516
    8AU     LIG 3442  15.769  11.344   8.794
    8AU     LIG 3443  15.610  11.724   9.044
    8AU    AUSL 3444  15.352   9.889   7.638
    8AU    AUSL 3445  15.689   9.859   7.319
    8AU     AUL 3446  15.605  10.138   7.481
    8AU       S 3447  15.264  10.287   7.840
    8AU     LIG 3448  15.301  10.730   8.082
    8AU     LIG 3449  15.407  11.172   8.171
    8AU     LIG 3450  15.104  11.542   8.190
    8AU     LIG 3451  14.780  11.732   8.452
    8AU       S 3452  15.644  10.362   7.040
    8AU     LIG 3453  15.887  10.793   6.963
    8AU     LIG 3454  16.149  11.196   6.932
    8AU     LIG 3455  16.188  11.665   6.872
    8AU     LIG 3456  15.862  11.890   6.614
    8AU    AUSL 3457  15.707   9.846   7.673
    8AU    AUSL 3458  15.788   9.567   8.066
    8AU     AUL 3459  15.825   9.916   7.982
    8AU       S 3460  16.103   9.788   8.386
    8AU     LIG 3461  16.403   9.858   8.751
    8AU     LIG 3462  16.643  10.191   8.981
    8AU     LIG 3463  16.831  10.358   9.379
    8AU     LIG 3464  16.886  10.519   9.826
    8AU       S 3465  15.625  10.377   7.909
    8AU     LIG 3466  15.812  10.835   8.010
    8AU     LIG 3467  16.052  11.242   8.176
    8AU     LIG 3468  16.433  11.579   8.191
    8AU     LIG 3469  16.591  11.942   8.473
    8AU    AUSL 3470  15.477   8.480   7.942
    8AU    AUSL 3471  15.826   8.487   7.826
    8AU     AUL 3472  15.570   8.414   8.229
    8AU       S 3473  15.616   7.951   8.017
    8AU     LIG 3474  15.429   7.573   8.237
    8AU     LIG 3475  15.166   7.186   8.344
    8AU     LIG 3476  15.176   6.769   8.566
    8AU     LIG 3477  15.053   6.432   8.859
    8AU       S 3478  16.056   8.205   7.985
    8AU     LIG 3479  16.390   7.879   7.966
    8AU     LIG 3480  16.671   7.555   8.196
    8AU     LIG 3481  16.917   7.224   8.469
    8AU     LIG 3482  17.036   7.021   8.902
    8AU    AUSL 3483  15.265   8.423   7.665
    8AU    AUSL 3484  15.196   8.629   8.080
    8AU     AUL 3485  15.184   8.269   7.979
    8AU       S 3486  15.435   7.851   7.791
    8AU     LIG 3487  15.148   7.467   7.810
    8AU     LIG 3488  14.882   7.077   7.920
    8AU     LIG 3489  14.831   6.728   8.202
    8AU     LIG 3490  14.973   6.325   8.372
    8AU       S 3491  14.943   8.428   8.414
    8AU     LIG 3492  14.531   8.173   8.619
    8AU     LIG 3493  14.145   7.901   8.555
    8AU     LIG 3494  13.951   7.597   8.843
    8AU     LIG 3495  14.137   7.550   9.271
    8AU    AUSL 3496  15.581   8.322   7.644
    8AU    AUSL 3497  15.243   8.367   7.318
    8AU     AUL 3498  15.118   8.178   7.602
    8AU       S 3499  15.259   7.890   7.208
    8AU     LIG 3500  14.982   7.512   7.103
    8AU     LIG 3501  14.803   7.074   7.034
    8AU     LIG 3502  14.705   6.705   6.772
    8AU     LIG 3503  14.869   6.259   6.655
    8AU       S 3504  15.704   7.940   7.735
    8AU     LIG 3505  15.677   7.427   7.800
    8AU     LIG 3506  15.411   7.030   7.921
    8AU     LIG 3507  15.317   6.581   8.078
    8AU     LIG 3508  15.519   6.192   8.287
    8AU    AUSL 3509  15.545   9.743   7.008
    8AU    AUSL 3510  15.945   9.649   7.236
    8AU     AUL 3511  15.876   9.910   7.025
    8AU       S 3512  15.538  10.228   6.805
    8AU     LIG 3513  15.735  10.553   6.534
    8AU     LIG 3514  15.814  11.016   6.462
    8AU     LIG 3515  15.714  11.467   6.296
    8AU     LIG 3516  15.677  11.756   5.903
    8AU       S 3517  16.377   9.855   6.906
    8AU     LIG 3518  16.665  10.123   6.634
    8AU     LIG 3519  16.922  10.405   6.343
    8AU     LIG 3520  17.280  10.729   6.291
    8AU     LIG 3521  17.599  11.067   6.140
    8AU    AUSL 3522  15.334   9.875   7.281
    8AU    AUSL 3523  15.246   9.550   6.982
    8AU     AUL 3524  15.235   9.842   6.892
    8AU       S 3525  15.314  10.315   7.081
    8AU     LIG 3526  15.384  10.762   6.861
    8AU     LIG 3527  15.534  11.229   6.828
    8AU     LIG 3528  15.367  11.646   6.651
    8AU     LIG 3529  15.047  11.876   6.367
    8AU       S 3530  14.751   9.882   6.767
    8AU     LIG 3531  14.621  10.150   6.403
    8AU     LIG 3532  14.439  10.376   6.030
    8AU     LIG 3533  14.338  10.648   5.660
    8AU     LIG 3534  14.377  10.844   5.210
    8AU    AUSL 3535  15.433   8.465   7.023
    8AU    AUSL 3536  14.982   8.574   7.211
    8AU     AUL 3537  15.104   8.332   6.967
    8AU       S 3538  14.645   8.443   6.781
    8AU     LIG 3539  14.342   8.094   6.803
    8AU     LIG 3540  14.017   7.743   6.743
    8AU     LIG 3541  13.758   7.441   6.490
    8AU     LIG 3542  13.429   7.169   6.313
    8AU       S 3543  15.402   7.917   6.968
    8AU     LIG 3544  15.321   7.530   6.720
    8AU     LIG 3545  15.072   7.149   6.595
    8AU     LIG 3546  15.119   6.692   6.477
    8AU     LIG 3547  15.312   6.266   6.378
    8AU    AUSL 3548  15.606   8.353   7.313
    8AU    AUSL 3549  15.730   8.619   6.928
    8AU     AUL 3550  15.759   8.267   7.024
    8AU       S 3551  15.534   7.879   7.272
    8AU     LIG 3552  15.470   7.398   7.205
    8AU     LIG 3553  15.337   6.959   6.990
    8AU     LIG 3554  15.424   6.484   6.844
    8AU     LIG 3555  15.712   6.119   6.666
    8AU       S 3556  15.950   8.412   6.580
    8AU     LIG 3557  16.154   8.088   6.296
    8AU     LIG 3558  16.518   7.811   6.182
    8AU     LIG 3559  16.722   7.466   5.924
    8AU     LIG 3560  16.710   7.335   5.463
    9AU     AUC 3561  31.721  25.645   7.508
    9AU     AUC 3562  31.992  25.624   7.351
    9AU     AUC 3563  31.985  25.624   7.678
    9AU     AUC 3564  31.456  25.662   7.339
    9AU     AUC 3565  31.453  25.665   7.671
    9AU     AUC 3566  31.578  25.922   7.502
    9AU     AUC 3567  31.907  25.901   7.511
    9AU     AUC 3568  31.533  25.388   7.506
    9AU     AUC 3569  31.863  25.362   7.508
    9AU     AUC 3570  31.704  25.482   7.775
    9AU     AUC 3571  31.733  25.810   7.777
    9AU     AUC 3572  31.715  25.479   7.242
    9AU     AUC 3573  31.739  25.807   7.237
    9AU     AUC 3574  32.257  25.614   7.199
    9AU     AUC 3575  32.261  25.599   7.514
    9AU     AUC 3576  32.239  25.602   7.834
    9AU     AUC 3577  31.204  25.670   7.171
    9AU     AUC 3578  31.177  25.677   7.508
    9AU     AUC 3579  31.200  25.690   7.835
    9AU     AUC 3580  31.441  26.188   7.499
    9AU     AUC 3581  31.767  26.189   7.500
    9AU     AUC 3582  32.081  26.155   7.513
    9AU     AUC 3583  31.348  25.143   7.507
    9AU     AUC 3584  31.677  25.098   7.496
    9AU     AUC 3585  31.999  25.083   7.515
    9AU     AUC 3586  31.684  25.322   8.031
    9AU     AUC 3587  31.709  25.642   8.063
    9AU     AUC 3588  31.745  25.964   8.037
    9AU     AUC 3589  31.722  25.322   6.990
    9AU     AUC 3590  31.752  25.645   6.964
    9AU     AUC 3591  31.758  25.961   6.969
    9AU     AUC 3592  31.968  25.455   7.955
    9AU     AUC 3593  32.008  25.791   7.958
    9AU     AUC 3594  32.001  25.469   7.075
    9AU     AUC 3595  32.023  25.800   7.083
    9AU     AUC 3596  31.436  25.503   7.952
    9AU     AUC 3597  31.459  25.832   7.949
    9AU     AUC 3598  31.448  25.495   7.073
    9AU     AUC 3599  31.467  25.821   7.046
    9AU     AUC 3600  32.187  25.879   7.363
    9AU     AUC 3601  32.179  25.892   7.693
    9AU     AUC 3602  31.304  25.948   7.325
    9AU     AUC 3603  31.301  25.956   7.673
    9AU     AUC 3604  32.143  25.330   7.350
    9AU     AUC 3605  32.130  25.330   7.678
    9AU     AUC 3606  31.247  25.402   7.345
    9AU     AUC 3607  31.260  25.396   7.682
    9AU     AUC 3608  31.587  26.099   7.772
    9AU     AUC 3609  31.924  26.080   7.781
    9AU     AUC 3610  31.519  25.219   7.782
    9AU     AUC 3611  31.850  25.193   7.779
    9AU     AUC 3612  31.588  26.083   7.212
    9AU     AUC 3613  31.919  26.080   7.233
    9AU     AUC 3614  31.516  25.211   7.234
    9AU     AUC 3615  31.854  25.187   7.231
    9AU    AUSL 3616  32.189  25.564   8.121
    9AU    AUSL 3617  31.991  25.212   8.114
    9AU     AUL 3618  32.076  25.519   8.434
    9AU       S 3619  32.261  24.802   8.264
    9AU     LIG 3620  32.202  24.410   8.516
    9AU     LIG 3621  32.505  24.139   8.762
    9AU     LIG 3622  32.838  23.928   9.016
    9AU     LIG 3623  33.024  23.775   9.420
    9AU       S 3624  32.463  25.222   8.459
    9AU     LIG 3625  32.521  25.321   8.917
    9AU     LIG 3626  32.674  25.412   9.353
    9AU     LIG 3627  33.046  25.463   9.647
    9AU     LIG 3628  33.427  25.364   9.918
    9AU    AUSL 3629  31.790  25.433   8.265
    9AU    AUSL 3630  31.585  25.801   8.280
    9AU     AUL 3631  31.765  25.624   8.586
    9AU       S 3632  32.101  25.083   8.643
    9AU     LIG 3633  32.080  25.131   9.102
    9AU     LIG 3634  32.291  25.069   9.506
    9AU     LIG 3635  32.237  24.925   9.949
    9AU     LIG 3636  32.267  25.076  10.388
    9AU       S 3637  31.292  25.681   8.746
    9AU     LIG 3638  31.162  25.646   9.209
    9AU     LIG 3639  31.047  25.617   9.674
    9AU     LIG 3640  30.928  25.637  10.132
    9AU     LIG 3641  30.964  25.903  10.545
    9AU    AUSL 3642  31.933  25.818   8.254
    9AU    AUSL 3643  32.312  25.887   8.008
    9AU     AUL 3644  32.318  25.777   8.374
    9AU       S 3645  31.949  26.115   8.611
    9AU     LIG 3646  32.273  26.212   8.945
    9AU     LIG 3647  32.397  26.269   9.405
    9AU     LIG 3648  32.384  26.315   9.886
    9AU     LIG 3649  32.264  26.418  10.345
    9AU       S 3650  32.607  26.188   8.298
    9AU     LIG 3651  33.040  26.254   8.518
    9AU     LIG 3652  33.416  26.357   8.798
    9AU     LIG 3653  33.623  26.730   8.968
    9AU     LIG 3654  33.616  27.171   9.162
    9AU    AUSL 3655  32.211  25.722   6.888
    9AU    AUSL 3656  32.068  26.046   6.949
    9AU     AUL 3657  32.026  26.093   6.631
    9AU       S 3658  32.422  25.747   6.470
    9AU     LIG 3659  32.715  25.565   6.154
    9AU     LIG 3660  32.756  25.377   5.729
    9AU     LIG 3661  32.877  25.356   5.269
    9AU     LIG 3662  33.297  25.350   5.013
    9AU       S 3663  32.526  26.179   6.689
    9AU     LIG 3664  32.751  26.417   6.342
    9AU     LIG 3665  32.968  26.702   6.019
    9AU     LIG 3666  33.178  26.892   5.643
    9AU     LIG 3667  33.298  27.085   5.233
    9AU    AUSL 3668  32.008  25.456   6.795
    9AU    AUSL 3669  32.245  25.321   7.040
    9AU     AUL 3670  32.468  25.496   6.904
    9AU       S 3671  32.456  25.046   6.658
    9AU     LIG 3672  32.811  24.748   6.465
    9AU     LIG 3673  32.954  24.297   6.314
    9AU     LIG 3674  33.239  23.951   6.122
    9AU     LIG 3675  33.644  23.947   5.881
    9AU       S 3676  32.291  25.449   6.408
    9AU     LIG 3677  32.405  25.137   6.084
    9AU     LIG 3678  32.352  25.089   5.604
    9AU     LIG 3679  32.416  25.110   5.122
    9AU     LIG 3680  32.316  25.047   4.650
    9AU    AUSL 3681  31.904  25.781   6.741
    9AU    AUSL 3682  31.614  25.484   6.787
    9AU     AUL 3683  31.792  25.477   6.499
    9AU       S 3684  31.299  25.503   6.315
    9AU     LIG 3685  31.233  25.122   6.062
    9AU     LIG 3686  31.137  25.030   5.614
    9AU     LIG 3687  30.922  25.042   5.194
    9AU     LIG 3688  30.726  25.016   4.763
    9AU       S 3689  32.197  25.730   6.309
    9AU     LIG 3690  32.286  25.586   5.859
    9AU     LIG 3691  32.402  25.562   5.393
    9AU     LIG 3692  32.408  25.600   4.919
    9AU     LIG 3693  32.311  25.922   4.575
    9AU    AUSL 3694  31.258  25.752   8.152
    9AU    AUSL 3695  31.464  26.079   8.072
    9AU     AUL 3696  31.397  26.064   8.414
    9AU       S 3697  31.065  25.710   8.616
    9AU     LIG 3698  30.821  25.424   8.891
    9AU     LIG 3699  30.726  25.369   9.351
    9AU     LIG 3700  30.554  25.455   9.785
    9AU     LIG 3701  30.166  25.498  10.059
    9AU       S 3702  31.022  26.396   8.243
    9AU     LIG 3703  30.844  26.494   8.664
    9AU     LIG 3704  30.705  26.725   9.037
    9AU     LIG 3705  30.568  27.130   9.210
    9AU     LIG 3706  30.436  27.454   9.525
    9AU    AUSL 3707  31.439  25.473   8.237
    9AU    AUSL 3708  31.181  25.399   7.978
    9AU     AUL 3709  30.982  25.554   8.153
    9AU       S 3710  30.952  25.085   8.365
    9AU     LIG 3711  30.492  24.868   8.357
    9AU     LIG 3712  30.187  24.489   8.300
    9AU     LIG 3713  29.813  24.288   8.530
    9AU     LIG 3714  29.668  24.034   8.900
    9AU       S 3715  31.259  25.423   8.606
    9AU     LIG 3716  31.264  25.184   8.999
    9AU     LIG 3717  31.184  25.161   9.465
    9AU     LIG 3718  30.960  25.136   9.887
    9AU     LIG 3719  30.869  24.923  10.308
    9AU    AUSL 3720  31.295  25.611   6.841
    9AU    AUSL 3721  31.398  25.240   6.949
    9AU     AUL 3722  31.517  25.212   6.650
    9AU       S 3723  31.100  25.561   6.440
    9AU     LIG 3724  30.791  25.345   6.163
    9AU     LIG 3725  30.708  25.314   5.683
    9AU     LIG 3726  30.585  25.425   5.224
    9AU     LIG 3727  30.253  25.569   4.908
    9AU       S 3728  31.012  25.107   6.610
    9AU     LIG 3729  30.696  24.820   6.351
    9AU     LIG 3730  30.465  24.374   6.329
    9AU     LIG 3731  30.289  23.953   6.181
    9AU     LIG 3732  30.097  23.677   5.830
    9AU    AUSL 3733  31.570  25.834   6.745
    9AU    AUSL 3734  31.174  25.948   7.011
    9AU     AUL 3735  31.271  25.969   6.675
    9AU       S 3736  30.828  26.202   6.736
    9AU     LIG 3737  30.417  26.283   6.500
    9AU     LIG 3738  30.136  26.395   6.135
    9AU     LIG 3739  29.762  26.431   5.840
    9AU     LIG 3740  29.410  26.608   5.568
    9AU       S 3741  31.404  25.740   6.253
    9AU     LIG 3742  31.148  25.584   5.844
    9AU     LIG 3743  31.086  25.503   5.381
    9AU     LIG 3744  30.985  25.646   4.941
    9AU     LIG 3745  31.037  26.054   4.686
    9AU    AUSL 3746  32.391  26.047   7.499
    9AU    AUSL 3747  32.365  25.921   7.141
    9AU     AUL 3748  32.463  26.349   7.368
    9AU       S 3749  32.668  26.020   6.892
    9AU     LIG 3750  33.043  26.064   6.613
    9AU     LIG 3751  33.279  26.363   6.312
    9AU     LIG 3752  33.488  26.675   6.013
    9AU     LIG 3753  33.685  26.972   5.693
    9AU       S 3754  32.899  26.089   7.334
    9AU     LIG 3755  33.366  26.263   7.401
    9AU     LIG 3756  33.645  26.592   7.620
    9AU     LIG 3757  33.952  26.943   7.589
    9AU     LIG 3758  34.033  27.356   7.343
    9AU    AUSL 3759  32.511  25.711   7.383
    9AU    AUSL 3760  32.445  25.433   7.657
    9AU     AUL 3761  32.741  25.593   7.766
    9AU       S 3762  32.891  25.772   7.268
    9AU     LIG 3763  33.307  25.849   7.071
    9AU     LIG 3764  33.729  26.017   7.111
    9AU     LIG 3765  34.166  26.060   6.981
    9AU     LIG 3766  34.492  26.377   6.971
    9AU       S 3767  32.924  25.176   7.517
    9AU     LIG 3768  33.343  24.950   7.582
    9AU     LIG 3769  33.748  24.745   7.745
    9AU     LIG 3770  34.103  24.965   7.957
    9AU     LIG 3771  34.449  24.970   8.243
    9AU    AUSL 3772  32.450  25.778   7.713
    9AU    AUSL 3773  32.237  26.192   7.793
    9AU     AUL 3774  32.588  26.080   7.800
    9AU       S 3775  32.544  26.448   8.150
    9AU     LIG 3776  32.912  26.704   8.310
    9AU     LIG 3777  33.350  26.753   8.467
    9AU     LIG 3778  33.543  27.128   8.648
    9AU     LIG 3779  33.470  27.556   8.840
    9AU       S 3780  32.997  25.933   7.516
    9AU     LIG 3781  33.372  25.974   7.842
    9AU     LIG 3782  33.784  25.784   8.022
    9AU     LIG 3783  34.220  25.932   7.911
    9AU     LIG 3784  34.604  26.137   8.042
    9AU    AUSL 3785  31.151  26.176   7.522
    9AU    AUSL 3786  31.140  25.990   7.933
    9AU     AUL 3787  30.848  26.191   7.720
    9AU       S 3788  30.870  26.131   8.243
    9AU     LIG 3789  30.451  26.269   8.417
    9AU     LIG 3790  30.252  26.378   8.826
    9AU     LIG 3791  30.139  26.653   9.175
    9AU     LIG 3792  29.770  26.815   9.412
    9AU       S 3793  30.987  26.634   7.496
    9AU     LIG 3794  30.514  26.634   7.324
    9AU     LIG 3795  30.044  26.766   7.388
    9AU     LIG 3796  29.603  26.933   7.397
    9AU     LIG 3797  29.277  27.191   7.167
    9AU    AUSL 3798  31.024  25.848   7.297
    9AU    AUSL 3799  31.284  26.247   7.207
    9AU     AUL 3800  30.916  26.159   7.247
    9AU       S 3801  30.654  25.776   6.940
    9AU     LIG 3802  30.369  26.200   6.998
    9AU     LIG 3803  29.939  26.312   6.802
    9AU     LIG 3804  29.458  26.382   6.691
    9AU     LIG 3805  28.987  26.489   6.599
    9AU       S 3806  31.003  26.598   6.992
    9AU     LIG 3807  30.667  26.742   6.684
    9AU     LIG 3808  30.629  27.127   6.382
    9AU     LIG 3809  30.391  27.560   6.297
    9AU     LIG 3810  30.341  28.005   6.122
    9AU    AUSL 3811  30.986  25.852   7.666
    9AU    AUSL 3812  30.934  25.529   7.359
    9AU     AUL 3813  30.709  25.878   7.442
    9AU       S 3814  30.452  25.424   7.449
    9AU     LIG 3815  30.039  25.205   7.338
    9AU     LIG 3816  29.602  25.020   7.264
    9AU     LIG 3817  29.154  24.906   7.166
    9AU     LIG 3818  28.711  24.745   7.047
    9AU       S 3819  30.555  25.836   7.953
    9AU     LIG 3820  30.189  26.158   7.984
    9AU     LIG 3821  29.973  26.557   7.871
    9AU     LIG 3822  29.521  26.678   7.850
    9AU     LIG 3823  29.063  26.818   7.888
    9AU    AUSL 3824  32.326  25.116   7.563
    9AU    AUSL 3825  32.269  25.292   7.926
    9AU     AUL 3826  32.597  25.268   7.903
    9AU       S 3827  32.771  24.934   7.558
    9AU     LIG 3828  33.018  24.578   7.438
    9AU     LIG 3829  33.454  24.457   7.406
    9AU     LIG 3830  33.859  24.307   7.480
    9AU     LIG 3831  34.041  23.917   7.411
    9AU       S 3832  32.470  24.842   8.133
    9AU     LIG 3833  32.676  24.454   8.332
    9AU     LIG 3834  32.987  24.190   8.586
    9AU     LIG 3835  33.333  24.020   8.872
    9AU     LIG 3836  33.795  24.009   8.997
    9AU    AUSL 3837  32.444  25.381   7.312
    9AU    AUSL 3838  32.129  25.044   7.238
    9AU     AUL 3839  32.436  25.028   7.203
    9AU       S 3840  32.874  25.261   7.299
    9AU     LIG 3841  33.157  24.949   7.101
    9AU     LIG 3842  33.610  24.851   7.110
    9AU     LIG 3843  33.999  24.572   7.065
    9AU     LIG 3844  34.458  24.698   7.022
    9AU       S 3845  32.401  24.801   6.756
    9AU     LIG 3846  32.542  24.340   6.657
    9AU     LIG 3847  32.724  23.896   6.552
    9AU     LIG 3848  33.027  23.561   6.402
    9AU     LIG 3849  33.104  23.374   6.000
    9AU    AUSL 3850  31.045  25.218   7.529
    9AU    AUSL 3851  31.103  25.422   7.065
    9AU     AUL 3852  30.855  25.187   7.246
    9AU       S 3853  30.813  25.287   6.743
    9AU     LIG 3854  30.356  25.056   6.682
    9AU     LIG 3855  30.089  24.659   6.552
    9AU     LIG 3856  29.918  24.257   6.381
    9AU     LIG 3857  29.866  24.133   5.929
    9AU       S 3858  30.483  25.157   7.587
    9AU     LIG 3859  30.235  24.843   7.893
    9AU     LIG 3860  29.810  24.588   7.929
    9AU     LIG 3861  29.522  24.516   7.564
    9AU     LIG 3862  29.291  24.174   7.431
    9AU    AUSL 3863  30.969  25.517   7.716
    9AU    AUSL 3864  31.216  25.083   7.808
    9AU     AUL 3865  30.895  25.212   7.868
    9AU       S 3866  30.966  24.843   8.195
    9AU     LIG 3867  30.690  24.470   8.094
    9AU     LIG 3868  30.514  24.075   8.223
    9AU     LIG 3869  30.117  23.906   8.379
    9AU     LIG 3870  29.886  23.619   8.679
    9AU       S 3871  30.484  25.433   7.671
    9AU     LIG 3872  30.066  25.330   7.842
    9AU     LIG 3873  29.713  25.065   7.754
    9AU     LIG 3874  29.269  24.958   7.678
    9AU     LIG 3875  28.859  24.938   7.876
    9AU    AUSL 3876  31.745  26.282   7.951
    9AU    AUSL 3877  31.336  26.275   7.815
    9AU     AUL 3878  31.534  26.379   8.206
    9AU       S 3879  31.112  26.598   7.985
    9AU     LIG 3880  30.819  26.860   8.290
    9AU     LIG 3881  30.583  27.068   8.666
    9AU     LIG 3882  30.325  27.440   8.862
    9AU     LIG 3883  29.988  27.798   8.876
    9AU       S 3884  31.719  26.818   8.020
    9AU     LIG 3885  31.889  27.136   8.312
    9AU     LIG 3886  32.083  27.538   8.420
    9AU     LIG 3887  31.900  27.937   8.574
    9AU     LIG 3888  31.744  28.275   8.856
    9AU    AUSL 3889  31.599  26.411   7.641
    9AU    AUSL 3890  31.935  26.421   7.326
    9AU     AUL 3891  31.532  26.649   7.375
    9AU       S 3892  31.573  26.849   7.833
    9AU     LIG 3893  31.726  27.328   7.870
    9AU     LIG 3894  31.763  27.746   8.095
    9AU     LIG 3895  31.643  28.211   8.201
    9AU     LIG 3896  31.493  28.686   8.251
    9AU       S 3897  32.032  26.831   7.235
    9AU     LIG 3898  32.332  27.196   7.165
    9AU     LIG 3899  32.375  27.668   7.086
    9AU     LIG 3900  32.303  28.092   6.871
    9AU     LIG 3901  32.243  28.535   6.657
    9AU    AUSL 3902  31.959  26.384   7.669
    9AU    AUSL 3903  32.027  26.099   8.076
    9AU     AUL 3904  32.061  26.448   8.001
    9AU       S 3905  32.347  26.309   8.392
    9AU     LIG 3906  32.618  26.516   8.696
    9AU     LIG 3907  33.010  26.689   8.840
    9AU     LIG 3908  33.184  26.902   9.193
    9AU     LIG 3909  33.307  27.140   9.583
    9AU       S 3910  31.912  26.858   7.726
    9AU     LIG 3911  32.180  27.275   7.665
    9AU     LIG 3912  32.293  27.669   7.917
    9AU     LIG 3913  32.189  28.058   8.153
    9AU     LIG 3914  32.314  28.514   8.167
    9AU    AUSL 3915  31.717  25.016   7.944
    9AU    AUSL 3916  32.066  25.021   7.826
    9AU     AUL 3917  31.790  24.980   8.234
    9AU       S 3918  31.869  24.507   8.066
    9AU     LIG 3919  31.833  24.092   8.308
    9AU     LIG 3920  31.496  23.758   8.394
    9AU     LIG 3921  31.513  23.293   8.500
    9AU     LIG 3922  31.498  22.840   8.679
    9AU       S 3923  32.304  24.710   7.957
    9AU     LIG 3924  32.309  24.208   8.056
    9AU     LIG 3925  32.628  23.897   8.316
    9AU     LIG 3926  33.014  23.673   8.578
    9AU     LIG 3927  33.205  23.536   9.006
    9AU    AUSL 3928  31.503  24.955   7.673
    9AU    AUSL 3929  31.436  25.168   8.085
    9AU     AUL 3930  31.416  24.813   7.980
    9AU       S 3931  31.717  24.419   7.899
    9AU     LIG 3932  31.378  24.157   8.036
    9AU     LIG 3933  31.311  23.751   7.895
    9AU     LIG 3934  31.249  23.344   8.067
    9AU     LIG 3935  31.203  22.932   8.276
    9AU       S 3936  31.190  24.961   8.421
    9AU     LIG 3937  30.865  24.592   8.603
    9AU     LIG 3938  30.495  24.283   8.677
    9AU     LIG 3939  30.213  23.977   8.889
    9AU     LIG 3940  30.018  24.022   9.297
    9AU    AUSL 3941  31.823  24.852   7.649
    9AU    AUSL 3942  31.469  24.900   7.327
    9AU     AUL 3943  31.399  24.675   7.610
    9AU       S 3944  31.485  24.425   7.180
    9AU     LIG 3945  31.254  24.054   7.009
    9AU     LIG 3946  31.137  23.615   7.050
    9AU     LIG 3947  31.070  23.166   7.061
    9AU     LIG 3948  31.030  22.846   6.752
    9AU       S 3949  31.927  24.457   7.748
    9AU     LIG 3950  31.796  23.950   7.831
    9AU     LIG 3951  31.766  23.524   8.042
    9AU     LIG 3952  31.953  23.104   8.138
    9AU     LIG 3953  31.929  22.614   8.221
    9AU    AUSL 3954  31.800  26.273   7.001
    9AU    AUSL 3955  32.182  26.186   7.250
    9AU     AUL 3956  32.143  26.394   6.986
    9AU       S 3957  31.879  26.792   6.853
    9AU     LIG 3958  31.897  26.978   6.436
    9AU     LIG 3959  32.036  27.199   6.038
    9AU     LIG 3960  32.007  27.645   5.919
    9AU     LIG 3961  31.899  27.991   5.634
    9AU       S 3962  32.653  26.309   6.906
    9AU     LIG 3963  33.029  26.564   6.745
    9AU     LIG 3964  33.222  26.880   6.430
    9AU     LIG 3965  33.325  27.177   6.062
    9AU     LIG 3966  33.647  27.471   5.856
    9AU    AUSL 3967  31.610  26.328   7.295
    9AU    AUSL 3968  31.482  26.128   6.928
    9AU     AUL 3969  31.502  26.480   6.998
    9AU       S 3970  31.823  26.905   7.078
    9AU     LIG 3971  31.535  27.278   6.950
    9AU     LIG 3972  31.579  27.737   6.806
    9AU     LIG 3973  31.265  28.136   6.807
    9AU     LIG 3974  31.030  28.574   6.762
    9AU       S 3975  31.085  26.441   6.705
    9AU     LIG 3976  31.090  26.827   6.392
    9AU     LIG 3977  31.092  27.104   5.977
    9AU     LIG 3978  30.981  27.207   5.503
    9AU     LIG 3979  30.735  27.350   5.105
    9AU    AUSL 3980  31.658  25.002   7.032
    9AU    AUSL 3981  31.206  25.110   7.222
    9AU     AUL 3982  31.331  24.879   6.972
    9AU       S 3983  30.860  24.968   6.802
    9AU     LIG 3984  30.548  24.587   6.806
    9AU     LIG 3985  30.258  24.200   6.785
    9AU     LIG 3986  30.040  23.801   6.625
    9AU     LIG 3987  29.834  23.616   6.257
    9AU       S 3988  31.628  24.460   6.959
    9AU     LIG 3989  31.748  24.029   6.862
    9AU     LIG 3990  31.526  23.692   6.651
    9AU     LIG 3991  31.704  23.373   6.351
    9AU     LIG 3992  31.740  23.153   5.930
    9AU    AUSL 3993  31.831  24.882   7.318
    9AU    AUSL 3994  31.953  25.149   6.927
    9AU     AUL 3995  31.984  24.804   7.022
    9AU       S 3996  31.767  24.409   7.272
    9AU     LIG 3997  31.626  23.945   7.346
    9AU     LIG 3998  31.657  23.529   7.116
    9AU     LIG 3999  32.028  23.214   7.068
    9AU     LIG 4000  32.283  22.821   6.924
    9AU       S 4001  32.172  24.977   6.569
    9AU     LIG 4002  32.347  24.639   6.270
    9AU     LIG 4003  32.473  24.185   6.161
    9AU     LIG 4004  32.744  23.819   6.031
    9AU     LIG 4005  33.039  23.744   5.665
   10AU     AUC 4006  30.143  14.504   7.504
   10AU     AUC 4007  30.415  14.480   7.348
   10AU     AUC 4008  30.404  14.484   7.675
   10AU     AUC 4009  29.880  14.525   7.336
   10AU     AUC 4010  29.874  14.527   7.664
   10AU     AUC 4011  30.004  14.786   7.496
   10AU     AUC 4012  30.331  14.760   7.505
   10AU     AUC 4013  29.951  14.247   7.501
   10AU     AUC 4014  30.280  14.220   7.507
   10AU     AUC 4015  30.120  14.340   7.770
   10AU     AUC 4016  30.154  14.670   7.771
   10AU     AUC 4017  30.136  14.336   7.239
   10AU     AUC 4018  30.166  14.665   7.235
   10AU     AUC 4019  30.685  14.464   7.197
   10AU     AUC 4020  30.683  14.456   7.514
   10AU     AUC 4021  30.656  14.464   7.834
   10AU     AUC 4022  29.629  14.540   7.167
   10AU     AUC 4023  29.600  14.545   7.502
   10AU     AUC 4024  29.620  14.553   7.824
   10AU     AUC 4025  29.875  15.063   7.488
   10AU     AUC 4026  30.191  15.059   7.483
   10AU     AUC 4027  30.511  15.007   7.504
   10AU     AUC 4028  29.766  14.002   7.498
   10AU     AUC 4029  30.089  13.953   7.494
   10AU     AUC 4030  30.412  13.944   7.519
   10AU     AUC 4031  30.095  14.179   8.025
   10AU     AUC 4032  30.124  14.501   8.056
   10AU     AUC 4033  30.164  14.824   8.030
   10AU     AUC 4034  30.142  14.177   6.985
   10AU     AUC 4035  30.178  14.498   6.962
   10AU     AUC 4036  30.194  14.809   6.970
   10AU     AUC 4037  30.382  14.317   7.953
   10AU     AUC 4038  30.425  14.654   7.954
   10AU     AUC 4039  30.423  14.320   7.073
   10AU     AUC 4040  30.456  14.651   7.078
   10AU     AUC 4041  29.850  14.359   7.942
   10AU     AUC 4042  29.879  14.691   7.939
   10AU     AUC 4043  29.869  14.358   7.067
   10AU     AUC 4044  29.896  14.674   7.049
   10AU     AUC 4045  30.618  14.731   7.358
   10AU     AUC 4046  30.601  14.750   7.687
   10AU     AUC 4047  29.733  14.816   7.319
   10AU     AUC 4048  29.728  14.822   7.665
   10AU     AUC 4049  30.562  14.187   7.354
   10AU     AUC 4050  30.546  14.192   7.679
   10AU     AUC 4051  29.668  14.270   7.337
   10AU     AUC 4052  29.678  14.258   7.673
   10AU     AUC 4053  30.014  14.962   7.762
   10AU     AUC 4054  30.345  14.940   7.773
   10AU     AUC 4055  29.934  14.071   7.773
   10AU     AUC 4056  30.263  14.051   7.778
   10AU     AUC 4057  30.024  14.957   7.221
   10AU     AUC 4058  30.353  14.928   7.224
   10AU     AUC 4059  29.932  14.072   7.225
   10AU     AUC 4060  30.270  14.044   7.232
   10AU    AUSL 4061  30.601  14.428   8.122
   10AU    AUSL 4062  30.402  14.076   8.114
   10AU     AUL 4063  30.482  14.385   8.433
   10AU       S 4064  30.672  13.675   8.264
   10AU     LIG 4065  30.679  13.395   8.609
   10AU     LIG 4066  30.993  13.090   8.762
   10AU     LIG 4067  31.115  12.699   8.962
   10AU     LIG 4068  31.202  12.393   9.300
   10AU       S 4069  30.873  14.092   8.473
   10AU     LIG 4070  30.960  14.207   8.924
   10AU     LIG 4071  31.085  14.374   9.350
   10AU     LIG 4072  31.336  14.313   9.743
   10AU     LIG 4073  31.686  14.197  10.042
   10AU    AUSL 4074  30.199  14.296   8.262
   10AU    AUSL 4075  30.002  14.652   8.272
   10AU     AUL 4076  30.170  14.481   8.587
   10AU       S 4077  30.517  13.950   8.646
   10AU     LIG 4078  30.536  13.984   9.112
   10AU     LIG 4079  30.720  14.061   9.533
   10AU     LIG 4080  30.925  14.081   9.951
   10AU     LIG 4081  30.982  13.988  10.402
   10AU       S 4082  29.688  14.524   8.729
   10AU     LIG 4083  29.472  14.539   9.144
   10AU     LIG 4084  29.421  14.409   9.593
   10AU     LIG 4085  29.292  14.448  10.036
   10AU     LIG 4086  29.124  14.710  10.380
   10AU    AUSL 4087  30.348  14.684   8.249
   10AU    AUSL 4088  30.728  14.749   8.007
   10AU     AUL 4089  30.732  14.637   8.374
   10AU       S 4090  30.363  14.970   8.610
   10AU     LIG 4091  30.629  15.050   8.990
   10AU     LIG 4092  30.836  15.010   9.419
   10AU     LIG 4093  30.894  15.007   9.895
   10AU     LIG 4094  30.951  14.997  10.362
   10AU       S 4095  30.987  15.063   8.293
   10AU     LIG 4096  31.413  15.082   8.450
   10AU     LIG 4097  31.743  15.357   8.620
   10AU     LIG 4098  31.986  15.623   8.919
   10AU     LIG 4099  32.335  15.895   9.089
   10AU    AUSL 4100  30.640  14.561   6.882
   10AU    AUSL 4101  30.503  14.899   6.932
   10AU     AUL 4102  30.459  14.924   6.607
   10AU       S 4103  30.853  14.574   6.464
   10AU     LIG 4104  31.121  14.366   6.141
   10AU     LIG 4105  31.183  14.224   5.698
   10AU     LIG 4106  31.278  14.199   5.230
   10AU     LIG 4107  31.606  14.108   4.896
   10AU       S 4108  30.953  15.023   6.674
   10AU     LIG 4109  31.176  15.326   6.360
   10AU     LIG 4110  31.434  15.634   6.072
   10AU     LIG 4111  31.594  15.988   5.786
   10AU     LIG 4112  31.815  16.205   5.412
   10AU    AUSL 4113  30.424  14.297   6.787
   10AU    AUSL 4114  30.662  14.170   7.047
   10AU     AUL 4115  30.887  14.318   6.894
   10AU       S 4116  30.835  13.857   6.667
   10AU     LIG 4117  31.057  13.545   6.363
   10AU     LIG 4118  31.371  13.179   6.310
   10AU     LIG 4119  31.711  13.014   6.002
   10AU     LIG 4120  31.926  13.168   5.599
   10AU       S 4121  30.689  14.258   6.407
   10AU     LIG 4122  30.805  13.950   6.070
   10AU     LIG 4123  30.781  13.930   5.580
   10AU     LIG 4124  30.837  13.966   5.093
   10AU     LIG 4125  30.943  14.028   4.618
   10AU    AUSL 4126  30.335  14.628   6.746
   10AU    AUSL 4127  30.033  14.345   6.787
   10AU     AUL 4128  30.195  14.373   6.488
   10AU       S 4129  29.675  14.372   6.322
   10AU     LIG 4130  29.525  14.015   6.044
   10AU     LIG 4131  29.396  13.876   5.606
   10AU     LIG 4132  29.286  13.911   5.142
   10AU     LIG 4133  29.348  13.924   4.663
   10AU       S 4134  30.640  14.545   6.306
   10AU     LIG 4135  30.701  14.406   5.844
   10AU     LIG 4136  30.816  14.412   5.376
   10AU     LIG 4137  30.894  14.455   4.909
   10AU     LIG 4138  30.795  14.596   4.460
   10AU    AUSL 4139  29.676  14.612   8.140
   10AU    AUSL 4140  29.887  14.930   8.067
   10AU     AUL 4141  29.818  14.907   8.414
   10AU       S 4142  29.464  14.567   8.596
   10AU     LIG 4143  29.176  14.268   8.801
   10AU     LIG 4144  29.067  14.208   9.252
   10AU     LIG 4145  28.916  14.315   9.688
   10AU     LIG 4146  28.805  14.284  10.150
   10AU       S 4147  29.460  15.251   8.248
   10AU     LIG 4148  29.427  15.367   8.693
   10AU     LIG 4149  29.376  15.750   8.942
   10AU     LIG 4150  29.068  16.027   9.155
   10AU     LIG 4151  28.846  16.375   9.390
   10AU    AUSL 4152  29.848  14.330   8.224
   10AU    AUSL 4153  29.590  14.253   7.966
   10AU     AUL 4154  29.396  14.433   8.126
   10AU       S 4155  29.345  13.973   8.338
   10AU     LIG 4156  28.856  13.899   8.281
   10AU     LIG 4157  28.483  13.601   8.356
   10AU     LIG 4158  28.249  13.259   8.617
   10AU     LIG 4159  28.073  13.082   9.021
   10AU       S 4160  29.659  14.282   8.593
   10AU     LIG 4161  29.594  14.059   9.007
   10AU     LIG 4162  29.455  13.920   9.442
   10AU     LIG 4163  29.246  13.955   9.867
   10AU     LIG 4164  29.202  14.013  10.335
   10AU    AUSL 4165  29.721  14.496   6.835
   10AU    AUSL 4166  29.816  14.106   6.938
   10AU     AUL 4167  29.938  14.095   6.632
   10AU       S 4168  29.497  14.494   6.473
   10AU     LIG 4169  29.151  14.301   6.228
   10AU     LIG 4170  29.039  14.205   5.776
   10AU     LIG 4171  28.923  14.256   5.310
   10AU     LIG 4172  28.665  14.367   4.930
   10AU       S 4173  29.433  14.004   6.592
   10AU     LIG 4174  29.157  13.732   6.302
   10AU     LIG 4175  28.783  13.428   6.275
   10AU     LIG 4176  28.587  13.052   6.065
   10AU     LIG 4177  28.661  12.777   5.684
   10AU    AUSL 4178  30.004  14.693   6.736
   10AU    AUSL 4179  29.593  14.810   7.000
   10AU     AUL 4180  29.751  14.891   6.666
   10AU       S 4181  29.260  15.007   6.730
   10AU     LIG 4182  28.956  15.281   6.507
   10AU     LIG 4183  28.780  15.504   6.142
   10AU     LIG 4184  28.451  15.575   5.823
   10AU     LIG 4185  28.002  15.644   5.885
   10AU       S 4186  29.780  14.606   6.258
   10AU     LIG 4187  29.488  14.498   5.869
   10AU     LIG 4188  29.411  14.360   5.420
   10AU     LIG 4189  29.293  14.403   4.957
   10AU     LIG 4190  29.376  14.716   4.609
   10AU    AUSL 4191  30.822  14.905   7.494
   10AU    AUSL 4192  30.802  14.761   7.129
   10AU     AUL 4193  30.893  15.203   7.348
   10AU       S 4194  31.103  14.854   6.880
   10AU     LIG 4195  31.457  14.935   6.571
   10AU     LIG 4196  31.700  15.243   6.282
   10AU     LIG 4197  31.957  15.331   5.878
   10AU     LIG 4198  32.411  15.470   5.787
   10AU       S 4199  31.327  14.944   7.331
   10AU     LIG 4200  31.785  15.128   7.415
   10AU     LIG 4201  32.207  15.270   7.538
   10AU     LIG 4202  32.377  15.691   7.419
   10AU     LIG 4203  32.541  16.101   7.307
   10AU    AUSL 4204  30.939  14.565   7.385
   10AU    AUSL 4205  30.865  14.295   7.661
   10AU     AUL 4206  31.163  14.464   7.772
   10AU       S 4207  31.328  14.624   7.266
   10AU     LIG 4208  31.744  14.789   7.051
   10AU     LIG 4209  32.232  14.913   7.137
   10AU     LIG 4210  32.724  14.917   7.066
   10AU     LIG 4211  33.206  14.943   7.031
   10AU       S 4212  31.331  14.026   7.549
   10AU     LIG 4213  31.772  13.994   7.718
   10AU     LIG 4214  32.048  13.633   7.771
   10AU     LIG 4215  32.413  13.471   8.010
   10AU     LIG 4216  32.793  13.340   8.284
   10AU    AUSL 4217  30.867  14.638   7.712
   10AU    AUSL 4218  30.662  15.047   7.786
   10AU     AUL 4219  31.015  14.933   7.802
   10AU       S 4220  30.965  15.313   8.147
   10AU     LIG 4221  31.284  15.577   8.422
   10AU     LIG 4222  31.614  15.868   8.643
   10AU     LIG 4223  32.012  16.129   8.751
   10AU     LIG 4224  32.482  16.198   8.695
   10AU       S 4225  31.421  14.789   7.509
   10AU     LIG 4226  31.827  14.794   7.798
   10AU     LIG 4227  32.239  14.958   7.994
   10AU     LIG 4228  32.702  14.944   8.085
   10AU     LIG 4229  33.115  15.138   8.224
   10AU    AUSL 4230  29.590  15.047   7.519
   10AU    AUSL 4231  29.565  14.856   7.922
   10AU     AUL 4232  29.282  15.073   7.704
   10AU       S 4233  29.299  14.999   8.231
   10AU     LIG 4234  28.982  15.261   8.451
   10AU     LIG 4235  28.920  15.582   8.787
   10AU     LIG 4236  28.707  15.656   9.205
   10AU     LIG 4237  28.372  15.591   9.546
   10AU       S 4238  29.498  15.518   7.517
   10AU     LIG 4239  29.084  15.733   7.364
   10AU     LIG 4240  28.690  15.980   7.495
   10AU     LIG 4241  28.288  16.137   7.663
   10AU     LIG 4242  27.834  16.056   7.664
   10AU    AUSL 4243  29.451  14.722   7.293
   10AU    AUSL 4244  29.718  15.113   7.202
   10AU     AUL 4245  29.347  15.039   7.246
   10AU       S 4246  29.069  14.607   6.942
   10AU     LIG 4247  28.709  14.910   6.809
   10AU     LIG 4248  28.285  15.163   6.819
   10AU     LIG 4249  27.845  15.338   6.870
   10AU     LIG 4250  27.409  15.296   6.693
   10AU       S 4251  29.488  15.486   7.020
   10AU     LIG 4252  29.075  15.657   6.842
   10AU     LIG 4253  28.936  15.877   6.462
   10AU     LIG 4254  28.668  16.185   6.244
   10AU     LIG 4255  28.237  16.347   6.330
   10AU    AUSL 4256  29.407  14.721   7.657
   10AU    AUSL 4257  29.357  14.405   7.353
   10AU     AUL 4258  29.135  14.768   7.428
   10AU       S 4259  28.886  14.322   7.454
   10AU     LIG 4260  28.507  14.313   7.238
   10AU     LIG 4261  28.222  13.991   7.070
   10AU     LIG 4262  27.854  13.952   7.299
   10AU     LIG 4263  27.474  14.065   7.169
   10AU       S 4264  28.980  14.724   7.941
   10AU     LIG 4265  28.528  14.860   8.060
   10AU     LIG 4266  28.062  15.058   8.029
   10AU     LIG 4267  27.584  15.131   8.133
   10AU     LIG 4268  27.318  15.511   8.262
   10AU    AUSL 4269  30.744  13.979   7.572
   10AU    AUSL 4270  30.683  14.158   7.928
   10AU     AUL 4271  31.008  14.154   7.920
   10AU       S 4272  31.163  13.783   7.597
   10AU     LIG 4273  31.566  13.559   7.513
   10AU     LIG 4274  31.812  13.191   7.401
   10AU     LIG 4275  32.072  12.838   7.490
   10AU     LIG 4276  32.519  12.762   7.561
   10AU       S 4277  30.883  13.726   8.141
   10AU     LIG 4278  31.149  13.505   8.445
   10AU     LIG 4279  31.459  13.193   8.579
   10AU     LIG 4280  31.589  12.942   8.942
   10AU     LIG 4281  31.971  12.805   9.171
   10AU    AUSL 4282  30.867  14.236   7.316
   10AU    AUSL 4283  30.547  13.900   7.259
   10AU     AUL 4284  30.864  13.889   7.206
   10AU       S 4285  31.303  14.111   7.333
   10AU     LIG 4286  31.741  13.961   7.214
   10AU     LIG 4287  32.079  13.641   7.262
   10AU     LIG 4288  32.507  13.568   7.099
   10AU     LIG 4289  32.566  13.403   6.659
   10AU       S 4290  30.803  13.599   6.791
   10AU     LIG 4291  30.942  13.115   6.674
   10AU     LIG 4292  31.245  12.747   6.564
   10AU     LIG 4293  31.502  12.564   6.212
   10AU     LIG 4294  31.810  12.324   5.954
   10AU    AUSL 4295  29.464  14.091   7.515
   10AU    AUSL 4296  29.527  14.297   7.057
   10AU     AUL 4297  29.269  14.061   7.236
   10AU       S 4298  29.248  14.168   6.734
   10AU     LIG 4299  28.831  14.041   6.539
   10AU     LIG 4300  28.438  13.774   6.495
   10AU     LIG 4301  28.256  13.424   6.227
   10AU     LIG 4302  28.052  13.058   6.025
   10AU       S 4303  28.885  14.067   7.564
   10AU     LIG 4304  28.742  13.677   7.814
   10AU     LIG 4305  28.384  13.347   7.858
   10AU     LIG 4306  27.948  13.129   7.832
   10AU     LIG 4307  27.578  13.172   7.541
   10AU    AUSL 4308  29.387  14.385   7.709
   10AU    AUSL 4309  29.635  13.940   7.789
   10AU     AUL 4310  29.312  14.054   7.831
   10AU       S 4311  29.352  13.705   8.187
   10AU     LIG 4312  28.953  13.399   8.199
   10AU     LIG 4313  28.582  13.082   8.268
   10AU     LIG 4314  28.345  12.721   8.497
   10AU     LIG 4315  28.144  12.293   8.574
   10AU       S 4316  28.908  14.322   7.672
   10AU     LIG 4317  28.480  14.295   7.826
   10AU     LIG 4318  28.022  14.212   7.732
   10AU     LIG 4319  27.752  13.895   7.866
   10AU     LIG 4320  27.311  13.838   8.039
   10AU    AUSL 4321  30.162  15.145   7.943
   10AU    AUSL 4322  29.775  15.137   7.815
   10AU     AUL 4323  29.970  15.200   8.224
   10AU       S 4324  29.540  15.446   8.019
   10AU     LIG 4325  29.256  15.709   8.351
   10AU     LIG 4326  29.091  16.068   8.632
   10AU     LIG 4327  28.854  16.411   8.874
   10AU     LIG 4328  28.418  16.426   9.086
   10AU       S 4329  30.088  15.649   8.055
   10AU     LIG 4330  30.284  15.907   8.405
   10AU     LIG 4331  30.403  16.356   8.517
   10AU     LIG 4332  30.380  16.842   8.547
   10AU     LIG 4333  30.202  17.164   8.850
   10AU    AUSL 4334  30.027  15.283   7.626
   10AU    AUSL 4335  30.381  15.251   7.303
   10AU     AUL 4336  30.286  15.526   7.477
   10AU       S 4337  29.932  15.693   7.814
   10AU     LIG 4338  29.986  16.151   8.050
   10AU     LIG 4339  30.138  16.599   8.148
   10AU     LIG 4340  29.894  16.995   8.206
   10AU     LIG 4341  29.523  17.058   7.949
   10AU       S 4342  30.366  15.727   7.031
   10AU     LIG 4343  30.623  16.144   7.018
   10AU     LIG 4344  30.804  16.569   6.909
   10AU     LIG 4345  30.732  16.881   6.585
   10AU     LIG 4346  30.444  17.230   6.567
   10AU    AUSL 4347  30.382  15.234   7.664
   10AU    AUSL 4348  30.444  14.965   8.069
   10AU     AUL 4349  30.488  15.314   7.975
   10AU       S 4350  30.747  15.184   8.390
   10AU     LIG 4351  31.034  15.274   8.757
   10AU     LIG 4352  31.383  15.516   8.949
   10AU     LIG 4353  31.606  15.858   9.185
   10AU     LIG 4354  31.687  16.000   9.632
   10AU       S 4355  30.284  15.768   7.904
   10AU     LIG 4356  30.505  16.182   8.029
   10AU     LIG 4357  30.672  16.614   8.140
   10AU     LIG 4358  30.611  17.063   8.121
   10AU     LIG 4359  30.788  17.374   8.399
   10AU    AUSL 4360  30.125  13.866   7.939
   10AU    AUSL 4361  30.479  13.889   7.829
   10AU     AUL 4362  30.199  13.858   8.237
   10AU       S 4363  30.280  13.385   8.078
   10AU     LIG 4364  30.161  13.013   8.366
   10AU     LIG 4365  30.091  12.543   8.376
   10AU     LIG 4366  29.991  12.098   8.530
   10AU     LIG 4367  29.876  11.784   8.846
   10AU       S 4368  30.733  13.594   7.964
   10AU     LIG 4369  31.075  13.279   7.993
   10AU     LIG 4370  31.130  12.918   8.283
   10AU     LIG 4371  31.398  12.672   8.550
   10AU     LIG 4372  31.767  12.475   8.782
   10AU    AUSL 4373  29.918  13.787   7.664
   10AU    AUSL 4374  29.844  14.022   8.074
   10AU     AUL 4375  29.811  13.660   7.968
   10AU       S 4376  30.129  13.258   7.910
   10AU     LIG 4377  29.879  12.904   7.734
   10AU     LIG 4378  29.714  12.614   8.031
   10AU     LIG 4379  29.664  12.180   8.154
   10AU     LIG 4380  29.624  11.750   8.380
   10AU       S 4381  29.572  13.833   8.401
   10AU     LIG 4382  29.148  13.633   8.642
   10AU     LIG 4383  28.783  13.322   8.684
   10AU     LIG 4384  28.577  12.960   8.899
   10AU     LIG 4385  28.569  12.741   9.316
   10AU    AUSL 4386  30.255  13.707   7.646
   10AU    AUSL 4387  29.871  13.764   7.309
   10AU     AUL 4388  29.899  13.495   7.543
   10AU       S 4389  29.867  13.289   7.077
   10AU     LIG 4390  29.674  12.875   7.221
   10AU     LIG 4391  29.740  12.423   7.096
   10AU     LIG 4392  29.710  12.076   6.766
   10AU     LIG 4393  29.886  11.715   6.542
   10AU       S 4394  30.372  13.313   7.795
   10AU     LIG 4395  30.319  12.782   7.946
   10AU     LIG 4396  30.126  12.327   7.883
   10AU     LIG 4397  30.052  11.867   8.051
   10AU     LIG 4398  30.368  11.634   8.303
   10AU    AUSL 4399  30.230  15.120   6.999
   10AU    AUSL 4400  30.624  15.026   7.231
   10AU     AUL 4401  30.578  15.259   6.975
   10AU       S 4402  30.240  15.607   6.802
   10AU     LIG 4403  30.440  15.953   6.569
   10AU     LIG 4404  30.457  16.411   6.539
   10AU     LIG 4405  30.268  16.805   6.355
   10AU     LIG 4406  30.419  17.113   6.023
   10AU       S 4407  31.088  15.146   6.889
   10AU     LIG 4408  31.485  15.406   6.769
   10AU     LIG 4409  31.719  15.725   6.499
   10AU     LIG 4410  32.017  16.081   6.370
   10AU     LIG 4411  31.950  16.516   6.166
   10AU    AUSL 4412  30.023  15.265   7.270
   10AU    AUSL 4413  29.920  14.941   6.972
   10AU     AUL 4414  29.919  15.235   6.885
   10AU       S 4415  30.024  15.710   7.065
   10AU     LIG 4416  30.125  16.188   6.915
   10AU     LIG 4417  30.225  16.687   6.898
   10AU     LIG 4418  29.966  17.048   6.736
   10AU     LIG 4419  29.601  17.327   6.592
   10AU       S 4420  29.432  15.280   6.765
   10AU     LIG 4421  29.374  15.572   6.419
   10AU     LIG 4422  29.209  15.761   6.034
   10AU     LIG 4423  28.893  15.828   5.709
   10AU     LIG 4424  28.949  15.997   5.273
   10AU    AUSL 4425  30.072  13.861   7.017
   10AU    AUSL 4426  29.619  13.985   7.211
   10AU     AUL 4427  29.725  13.759   6.964
   10AU       S 4428  29.263  13.863   6.780
   10AU     LIG 4429  28.859  13.579   6.761
   10AU     LIG 4430  28.450  13.299   6.694
   10AU     LIG 4431  28.121  12.982   6.528
   10AU     LIG 4432  28.062  12.575   6.260
   10AU       S 4433  30.063  13.395   6.827
   10AU     LIG 4434  29.923  12.982   6.647
   10AU     LIG 4435  29.981  12.509   6.622
   10AU     LIG 4436  29.974  12.156   6.301
   10AU     LIG 4437  29.836  11.780   6.019
   10AU    AUSL 4438  30.226  13.747   7.316
   10AU    AUSL 4439  30.376  13.996   6.940
   10AU     AUL 4440  30.414  13.659   7.082
   10AU       S 4441  30.129  13.255   7.124
   10AU     LIG 4442  30.135  12.778   7.053
   10AU     LIG 4443  30.358  12.411   6.966
   10AU     LIG 4444  30.261  12.040   6.731
   10AU     LIG 4445  30.356  11.595   6.669
   10AU       S 4446  30.554  13.787   6.600
   10AU     LIG 4447  30.566  13.355   6.408
   10AU     LIG 4448  30.861  13.108   6.143
   10AU     LIG 4449  31.207  12.886   5.926
   10AU     LIG 4450  31.455  12.952   5.544
   11POPC   NC3 4451  11.445  10.570   9.427
   11POPC   PO4 4452  11.011  10.152   9.387
   11POPC   GL1 4453  11.199  10.398   9.005
   11POPC   GL2 4454  11.141  10.749   9.020
   11POPC   C1A 4455  11.181  10.542   8.556
   11POPC   D2A 4456  10.878  10.419   8.261
   11POPC   C3A 4457  11.022  10.392   7.858
   11POPC   C4A 4458  11.447  10.410   7.682
   11POPC   C1B 4459  11.513  10.894   8.770
   11POPC   C2B 4460  11.634  11.020   8.341
   11POPC   C3B 4461  11.401  10.760   8.036
   11POPC   C4B 4462  11.134  10.828   7.645
   12POPC   NC3 4463  11.838  10.001   9.523
   12POPC   PO4 4464  12.464   9.691   9.477
   12POPC   GL1 4465  12.199   9.774   9.125
   12POPC   GL2 4466  11.987  10.051   9.041
   12POPC   C1A 4467  12.283   9.815   8.683
   12POPC   D2A 4468  12.165   9.529   8.347
   12POPC   C3A 4469  12.231   9.826   8.026
   12POPC   C4A 4470  12.402   9.775   7.632
   12POPC   C1B 4471  11.777   9.743   8.745
   12POPC   C2B 4472  11.744   9.818   8.286
   12POPC   C3B 4473  11.767   9.829   7.833
   12POPC   C4B 4474  11.678  10.019   7.467
   13POPC   NC3 4475  32.338  34.963   9.524
   13POPC   PO4 4476  32.356  35.507   9.946
   13POPC   GL1 4477  32.327  35.418   9.362
   13POPC   GL2 4478  32.547  35.427   9.061
   13POPC   C1A 4479  32.087  35.318   8.926
   13POPC   D2A 4480  31.983  35.473   8.467
   13POPC   C3A 4481  32.074  35.254   8.044
   13POPC   C4A 4482  32.041  35.094   7.608
   13POPC   C1B 4483  32.473  35.426   8.600
   13POPC   C2B 4484  32.564  35.189   8.209
   13POPC   C3B 4485  32.512  35.240   7.760
   13POPC   C4B 4486  32.447  35.609   7.505
   14POPC   NC3 4487  24.846  28.147   9.459
   14POPC   PO4 4488  24.194  28.136   9.304
   14POPC   GL1 4489  24.291  28.231   8.913
   14POPC   GL2 4490  24.630  28.144   8.994
   14POPC   C1A 4491  24.238  28.594   8.645
   14POPC   D2A 4492  24.351  28.627   8.210
   14POPC   C3A 4493  24.449  28.291   7.971
   14POPC   C4A 4494  24.246  28.223   7.575
   14POPC   C1B 4495  24.727  28.411   8.656
   14POPC   C2B 4496  24.850  28.681   8.313
   14POPC   C3B 4497  24.797  28.686   7.872
   14POPC   C4B 4498  24.432  28.711   7.621
   15POPC   NC3 4499   3.101  31.472   9.623
   15POPC   PO4 4500   2.449  31.418   9.470
   15POPC   GL1 4501   2.743  31.295   9.151
   15POPC   GL2 4502   2.982  31.535   9.133
   15POPC   C1A 4503   2.885  31.235   8.734
   15POPC   D2A 4504   2.779  31.441   8.352
   15POPC   C3A 4505   2.719  31.281   7.948
   15POPC   C4A 4506   2.554  31.277   7.518
   15POPC   C1B 4507   2.883  31.767   8.780
   15POPC   C2B 4508   2.699  31.935   8.413
   15POPC   C3B 4509   2.847  31.852   7.995
   15POPC   C4B 4510   2.941  31.647   7.629
   16POPC   NC3 4511   5.459  31.008   9.774
   16POPC   PO4 4512   4.966  31.411   9.496
   16POPC   GL1 4513   4.986  31.534   9.086
   16POPC   GL2 4514   4.981  31.206   8.893
   16POPC   C1A 4515   5.188  31.685   8.730
   16POPC   D2A 4516   5.438  31.461   8.449
   16POPC   C3A 4517   5.251  31.462   8.032
   16POPC   C4A 4518   5.048  31.809   7.806
   16POPC   C1B 4519   4.755  31.404   8.602
   16POPC   C2B 4520   4.803  31.634   8.228
   16POPC   C3B 4521   4.762  31.396   7.845
   16POPC   C4B 4522   4.577  30.991   7.827
   17POPC   NC3 4523  38.756  37.297   9.315
   17POPC   PO4 4524  38.398  37.890   9.577
   17POPC   GL1 4525  38.546  37.752   9.226
   17POPC   GL2 4526  38.280  37.647   9.130
   17POPC   C1A 4527  38.668  37.643   8.788
   17POPC   D2A 4528  38.788  37.860   8.411
   17POPC   C3A 4529  38.723  37.633   8.022
   17POPC   C4A 4530  38.780  37.853   7.596
   17POPC   C1B 4531  38.175  37.668   8.746
   17POPC   C2B 4532  38.348  37.480   8.385
   17POPC   C3B 4533  38.225  37.526   7.967
   17POPC   C4B 4534  38.306  37.609   7.551
   18POPC   NC3 4535   8.448   7.682   9.820
   18POPC   PO4 4536   7.999   7.414   9.436
   18POPC   GL1 4537   8.162   7.641   9.119
   18POPC   GL2 4538   8.490   7.655   9.228
   18POPC   C1A 4539   8.064   7.574   8.666
   18POPC   D2A 4540   7.862   7.227   8.396
   18POPC   C3A 4541   8.090   7.162   8.010
   18POPC   C4A 4542   8.292   7.330   7.651
   18POPC   C1B 4543   8.558   7.463   8.777
   18POPC   C2B 4544   8.453   7.430   8.293
   18POPC   C3B 4545   8.490   7.730   7.898
   18POPC   C4B 4546   8.368   7.782   7.435
   19POPC   NC3 4547  32.383  29.434   9.549
   19POPC   PO4 4548  31.811  29.311   9.369
   19POPC   GL1 4549  32.145  29.250   9.103
   19POPC   GL2 4550  32.514  29.228   9.116
   19POPC   C1A 4551  32.196  29.031   8.722
   19POPC   D2A 4552  31.972  28.917   8.339
   19POPC   C3A 4553  32.241  28.992   7.989
   19POPC   C4A 4554  32.205  29.135   7.577
   19POPC   C1B 4555  32.710  29.189   8.745
   19POPC   C2B 4556  32.618  29.126   8.338
   19POPC   C3B 4557  32.701  29.229   7.935
   19POPC   C4B 4558  32.658  28.919   7.656
   20POPC   NC3 4559  21.017  25.588   9.448
   20POPC   PO4 4560  20.396  25.251   9.474
   20POPC   GL1 4561  20.663  25.346   9.078
   20POPC   GL2 4562  21.010  25.495   8.963
   20POPC   C1A 4563  20.839  25.099   8.701
   20POPC   D2A 4564  20.611  24.946   8.350
   20POPC   C3A 4565  20.683  25.079   7.945
   20POPC   C4A 4566  20.383  25.321   7.728
   20POPC   C1B 4567  20.711  25.596   8.643
   20POPC   C2B 4568  20.481  25.444   8.304
   20POPC   C3B 4569  20.741  25.590   8.000
   20POPC   C4B 4570  20.838  25.493   7.592
   21POPC   NC3 4571  42.648  23.675   9.257
   21POPC   PO4 4572  42.084  23.989   9.533
   21POPC   GL1 4573  42.161  23.824   9.136
   21POPC   GL2 4574  42.126  23.482   9.169
   21POPC   C1A 4575  42.250  23.878   8.700
   21POPC   D2A 4576  42.261  24.095   8.297
   21POPC   C3A 4577  42.345  23.784   7.973
   21POPC   C4A 4578  42.386  23.803   7.531
   21POPC   C1B 4579  42.241  23.329   8.791
   21POPC   C2B 4580  42.283  23.453   8.395
   21POPC   C3B 4581  42.504  23.251   8.100
   21POPC   C4B 4582  42.460  23.318   7.683
   22POPC   NC3 4583  23.119  28.676   9.592
   22POPC   PO4 4584  22.700  29.123   9.738
   22POPC   GL1 4585  22.895  29.088   9.361
   22POPC   GL2 4586  22.579  29.099   9.231
   22POPC   C1A 4587  22.991  29.026   8.921
   22POPC   D2A 4588  22.885  29.230   8.550
   22POPC   C3A 4589  22.937  29.071   8.144
   22POPC   C4A 4590  23.126  29.304   7.812
   22POPC   C1B 4591  22.493  29.010   8.839
   22POPC   C2B 4592  22.495  28.879   8.425
   22POPC   C3B 4593  22.419  29.001   8.044
   22POPC   C4B 4594  22.669  29.056   7.709
   23POPC   NC3 4595   2.497  30.947   9.424
   23POPC   PO4 4596   3.128  31.038   9.457
   23POPC   GL1 4597   2.896  30.790   9.149
   23POPC   GL2 4598   2.696  30.478   9.222
   23POPC   C1A 4599   2.760  30.733   8.738
   23POPC   D2A 4600   2.738  30.925   8.346
   23POPC   C3A 4601   2.397  30.873   8.086
   23POPC   C4A 4602   2.602  30.831   7.743
   23POPC   C1B 4603   3.044  30.358   8.911
   23POPC   C2B 4604   3.151  30.493   8.464
   23POPC   C3B 4605   3.124  30.372   8.015
   23POPC   C4B 4606   2.801  30.390   7.674
   24POPC   NC3 4607  38.553  23.886   9.525
   24POPC   PO4 4608  38.828  23.309   9.271
   24POPC   GL1 4609  38.669  23.703   9.036
   24POPC   GL2 4610  38.352  23.866   9.062
   24POPC   C1A 4611  38.556  23.772   8.590
   24POPC   D2A 4612  38.580  23.430   8.292
   24POPC   C3A 4613  38.722  23.614   7.937
   24POPC   C4A 4614  38.660  23.927   7.654
   24POPC   C1B 4615  38.118  24.054   8.773
   24POPC   C2B 4616  38.046  23.900   8.403
   24POPC   C3B 4617  38.298  23.829   8.075
   24POPC   C4B 4618  38.164  23.763   7.647
   25POPC   NC3 4619  43.797  13.978   9.478
   25POPC   PO4 4620  44.121  13.369   9.295
   25POPC   GL1 4621  43.908  13.686   9.069
   25POPC   GL2 4622  43.551  13.719   9.096
   25POPC   C1A 4623  43.796  13.502   8.701
   25POPC   D2A 4624  44.083  13.272   8.464
   25POPC   C3A 4625  44.038  13.301   8.053
   25POPC   C4A 4626  43.811  13.397   7.712
   25POPC   C1B 4627  43.472  13.915   8.755
   25POPC   C2B 4628  43.506  14.094   8.359
   25POPC   C3B 4629  43.315  13.976   7.981
   25POPC   C4B 4630  43.568  13.824   7.661
   26POPC   NC3 4631  23.523  27.144   9.474
   26POPC   PO4 4632  23.551  27.784   9.407
   26POPC   GL1 4633  23.634  27.509   9.072
   26POPC   GL2 4634  23.430  27.739   8.879
   26POPC   C1A 4635  23.680  27.402   8.622
   26POPC   D2A 4636  23.699  27.704   8.296
   26POPC   C3A 4637  23.673  27.571   7.871
   26POPC   C4A 4638  23.359  27.456   7.601
   26POPC   C1B 4639  23.914  27.857   8.742
   26POPC   C2B 4640  24.182  28.042   8.400
   26POPC   C3B 4641  24.054  27.922   7.972
   26POPC   C4B 4642  24.030  27.759   7.539
   27POPC   NC3 4643  15.123  36.288   9.871
   27POPC   PO4 4644  15.087  36.670   9.344
   27POPC   GL1 4645  15.150  36.276   9.174
   27POPC   GL2 4646  14.914  36.019   9.111
   27POPC   C1A 4647  15.264  36.135   8.761
   27POPC   D2A 4648  15.340  36.391   8.425
   27POPC   C3A 4649  15.365  36.161   8.062
   27POPC   C4A 4650  15.325  36.372   7.698
   27POPC   C1B 4651  14.734  35.973   8.702
   27POPC   C2B 4652  14.988  35.918   8.332
   27POPC   C3B 4653  15.030  35.823   7.885
   27POPC   C4B 4654  14.798  35.905   7.501
   28POPC   NC3 4655   4.139  27.339   9.537
   28POPC   PO4 4656   4.656  27.733   9.712
   28POPC   GL1 4657   4.553  27.529   9.288
   28POPC   GL2 4658   4.631  27.190   9.372
   28POPC   C1A 4659   4.254  27.476   8.888
   28POPC   D2A 4660   4.168  27.253   8.472
   28POPC   C3A 4661   4.025  27.513   8.135
   28POPC   C4A 4662   3.963  27.552   7.715
   28POPC   C1B 4663   4.676  27.201   8.917
   28POPC   C2B 4664   4.695  27.311   8.492
   28POPC   C3B 4665   4.507  27.320   8.098
   28POPC   C4B 4666   4.466  27.413   7.681
   29POPC   NC3 4667  41.712  27.348   9.450
   29POPC   PO4 4668  41.136  27.787   9.573
   29POPC   GL1 4669  41.347  27.671   9.145
   29POPC   GL2 4670  41.724  27.635   9.040
   29POPC   C1A 4671  41.436  27.854   8.714
   29POPC   D2A 4672  41.833  27.728   8.452
   29POPC   C3A 4673  41.834  27.755   7.992
   29POPC   C4A 4674  41.534  27.789   7.658
   29POPC   C1B 4675  41.605  27.316   8.727
   29POPC   C2B 4676  41.665  27.144   8.306
   29POPC   C3B 4677  41.553  27.323   7.905
   29POPC   C4B 4678  41.662  27.325   7.448
   30POPC   NC3 4679  25.138   7.789   9.422
   30POPC   PO4 4680  25.536   7.272   9.578
   30POPC   GL1 4681  25.274   7.218   9.209
   30POPC   GL2 4682  25.494   7.449   9.018
   30POPC   C1A 4683  25.087   7.162   8.775
   30POPC   D2A 4684  25.212   7.363   8.379
   30POPC   C3A 4685  25.037   7.280   7.965
   30POPC   C4A 4686  25.306   7.289   7.599
   30POPC   C1B 4687  25.242   7.736   8.755
   30POPC   C2B 4688  25.054   7.856   8.330
   30POPC   C3B 4689  25.235   7.764   7.924
   30POPC   C4B 4690  25.370   8.050   7.597
   31POPC   NC3 4691   3.904  13.760   9.471
   31POPC   PO4 4692   4.478  13.447   9.303
   31POPC   GL1 4693   4.310  13.598   9.006
   31POPC   GL2 4694   4.464  13.923   9.042
   31POPC   C1A 4695   4.311  13.407   8.593
   31POPC   D2A 4696   4.558  13.525   8.224
   31POPC   C3A 4697   4.524  13.466   7.757
   31POPC   C4A 4698   4.176  13.607   7.433
   31POPC   C1B 4699   4.722  13.708   8.712
   31POPC   C2B 4700   4.944  13.842   8.350
   31POPC   C3B 4701   4.740  13.926   7.948
   31POPC   C4B 4702   4.583  13.911   7.540
   32POPC   NC3 4703  14.014  22.532   9.438
   32POPC   PO4 4704  13.690  21.962   9.468
   32POPC   GL1 4705  13.572  22.302   9.165
   32POPC   GL2 4706  13.564  22.008   8.950
   32POPC   C1A 4707  13.500  22.446   8.709
   32POPC   D2A 4708  13.833  22.279   8.429
   32POPC   C3A 4709  13.814  22.384   7.980
   32POPC   C4A 4710  14.001  22.092   7.688
   32POPC   C1B 4711  13.455  21.893   8.555
   32POPC   C2B 4712  13.389  22.146   8.214
   32POPC   C3B 4713  13.515  21.999   7.810
   32POPC   C4B 4714  13.342  21.679   7.562
   33POPC   NC3 4715   9.539  43.562   9.576
   33POPC   PO4 4716   9.475  44.213   9.585
   33POPC   GL1 4717   9.580  43.901   9.178
   33POPC   GL2 4718   9.862  43.555   9.180
   33POPC   C1A 4719   9.432  44.001   8.707
   33POPC   D2A 4720   9.739  43.960   8.304
   33POPC   C3A 4721   9.652  43.924   7.889
   33POPC   C4A 4722   9.299  44.116   7.716
   33POPC   C1B 4723  10.246  43.466   8.840
   33POPC   C2B 4724  10.107  43.446   8.369
   33POPC   C3B 4725  10.139  43.703   7.994
   33POPC   C4B 4726   9.982  43.686   7.544
   34POPC   NC3 4727  34.277   1.179   9.533
   34POPC   PO4 4728  33.792   1.650   9.548
   34POPC   GL1 4729  33.890   1.426   9.098
   34POPC   GL2 4730  33.929   1.079   9.182
   34POPC   C1A 4731  33.722   1.390   8.605
   34POPC   D2A 4732  33.454   1.532   8.202
   34POPC   C3A 4733  33.697   1.577   7.793
   34POPC   C4A 4734  34.060   1.304   7.634
   34POPC   C1B 4735  33.537   1.051   8.952
   34POPC   C2B 4736  33.522   0.885   8.537
   34POPC   C3B 4737  33.507   1.021   8.132
   34POPC   C4B 4738  33.633   1.062   7.753
   35POPC   NC3 4739  11.741   7.487   9.438
   35POPC   PO4 4740  12.432   7.725   9.486
   35POPC   GL1 4741  12.125   7.572   9.103
   35POPC   GL2 4742  12.139   7.199   9.023
   35POPC   C1A 4743  11.770   7.612   8.774
   35POPC   D2A 4744  11.604   7.550   8.321
   35POPC   C3A 4745  11.895   7.460   7.948
   35POPC   C4A 4746  12.064   7.579   7.521
   35POPC   C1B 4747  12.088   7.261   8.591
   35POPC   C2B 4748  12.163   7.640   8.341
   35POPC   C3B 4749  12.384   7.609   7.936
   35POPC   C4B 4750  12.404   7.157   7.847
   36POPC   NC3 4751   7.700  14.820   9.482
   36POPC   PO4 4752   7.858  15.423   9.459
   36POPC   GL1 4753   7.719  15.172   9.109
   36POPC   GL2 4754   7.369  15.083   9.151
   36POPC   C1A 4755   7.524  15.278   8.697
   36POPC   D2A 4756   7.635  15.256   8.266
   36POPC   C3A 4757   7.361  15.321   7.933
   36POPC   C4A 4758   7.563  15.386   7.576
   36POPC   C1B 4759   7.506  14.780   8.815
   36POPC   C2B 4760   7.607  14.744   8.364
   36POPC   C3B 4761   7.515  14.823   7.916
   36POPC   C4B 4762   7.162  14.625   7.751
   37POPC   NC3 4763  39.397  24.239   9.530
   37POPC   PO4 4764  38.897  24.639   9.318
   37POPC   GL1 4765  39.299  24.575   9.129
   37POPC   GL2 4766  39.230  24.237   9.060
   37POPC   C1A 4767  39.509  24.476   8.719
   37POPC   D2A 4768  39.367  24.340   8.316
   37POPC   C3A 4769  39.096  24.566   8.009
   37POPC   C4A 4770  39.345  24.480   7.670
   37POPC   C1B 4771  39.085  24.093   8.682
   37POPC   C2B 4772  38.875  24.183   8.283
   37POPC   C3B 4773  39.085  24.072   7.891
   37POPC   C4B 4774  39.089  24.106   7.426
   38POPC   NC3 4775  40.586   0.615   9.369
   38POPC   PO4 4776  41.070   0.206   9.465
   38POPC   GL1 4777  40.891   0.317   9.057
   38POPC   GL2 4778  40.843   0.660   8.943
   38POPC   C1A 4779  40.891   0.309   8.589
   38POPC   D2A 4780  40.572   0.104   8.328
   38POPC   C3A 4781  40.638   0.243   7.879
   38POPC   C4A 4782  41.038   0.262   7.672
   38POPC   C1B 4783  40.461   0.553   8.699
   38POPC   C2B 4784  40.582   0.601   8.259
   38POPC   C3B 4785  40.878   0.703   7.898
   38POPC   C4B 4786  40.779   0.667   7.463
   39POPC   NC3 4787   4.294  24.122   9.442
   39POPC   PO4 4788   4.475  23.491   9.609
   39POPC   GL1 4789   4.254  23.473   9.221
   39POPC   GL2 4790   4.042  23.777   9.124
   39POPC   C1A 4791   4.215  23.414   8.770
   39POPC   D2A 4792   4.152  23.738   8.427
   39POPC   C3A 4793   4.326  23.626   8.016
   39POPC   C4A 4794   4.582  23.773   7.681
   39POPC   C1B 4795   4.097  24.123   8.791
   39POPC   C2B 4796   4.143  24.268   8.355
   39POPC   C3B 4797   4.023  24.033   7.991
   39POPC   C4B 4798   4.147  24.010   7.567
   40POPC   NC3 4799  10.335  30.244   9.504
   40POPC   PO4 4800  10.707  29.592   9.542
   40POPC   GL1 4801  10.577  29.904   9.247
   40POPC   GL2 4802  10.771  30.178   9.108
   40POPC   C1A 4803  10.320  29.963   8.865
   40POPC   D2A 4804  10.516  30.016   8.484
   40POPC   C3A 4805  10.321  29.907   8.107
   40POPC   C4A 4806  10.535  29.981   7.712
   40POPC   C1B 4807  10.791  29.751   8.840
   40POPC   C2B 4808  10.907  29.645   8.461
   40POPC   C3B 4809  10.800  29.738   8.064
   40POPC   C4B 4810  10.988  29.634   7.671
   41POPC   NC3 4811   9.554  20.124   9.468
   41POPC   PO4 4812  10.135  19.746   9.539
   41POPC   GL1 4813   9.961  19.806   9.141
   41POPC   GL2 4814   9.873  20.116   9.023
   41POPC   C1A 4815   9.833  19.671   8.723
   41POPC   D2A 4816   9.832  19.422   8.340
   41POPC   C3A 4817   9.570  19.518   7.999
   41POPC   C4A 4818   9.886  19.724   7.786
   41POPC   C1B 4819   9.865  20.337   8.620
   41POPC   C2B 4820   9.707  20.353   8.206
   41POPC   C3B 4821   9.894  20.228   7.809
   41POPC   C4B 4822   9.867  20.066   7.367
   42POPC   NC3 4823  14.970  22.891   9.509
   42POPC   PO4 4824  14.351  22.823   9.326
   42POPC   GL1 4825  14.046  23.083   9.102
   42POPC   GL2 4826  13.770  22.879   9.155
   42POPC   C1A 4827  14.114  23.187   8.660
   42POPC   D2A 4828  14.131  23.093   8.240
   42POPC   C3A 4829  14.498  23.098   7.973
   42POPC   C4A 4830  14.688  22.730   7.747
   42POPC   C1B 4831  13.958  22.668   8.800
   42POPC   C2B 4832  14.250  22.653   8.496
   42POPC   C3B 4833  14.277  22.604   8.068
   42POPC   C4B 4834  14.184  22.785   7.701
   43POPC   NC3 4835  44.895  16.840   9.429
   43POPC   PO4 4836  44.296  17.229   9.614
   43POPC   GL1 4837  44.421  17.007   9.217
   43POPC   GL2 4838  44.731  17.123   9.044
   43POPC   C1A 4839  44.469  16.737   8.809
   43POPC   D2A 4840  44.740  16.451   8.526
   43POPC   C3A 4841  44.694  16.542   8.076
   43POPC   C4A 4842  44.723  16.660   7.647
   43POPC   C1B 4843  44.989  16.844   8.766
   43POPC   C2B 4844   0.166  16.854   8.348
   43POPC   C3B 4845   0.082  17.210   8.052
   43POPC   C4B 4846  44.699  17.157   7.826
   44POPC   NC3 4847  39.382  40.323   9.491
   44POPC   PO4 4848  39.224  40.993   9.456
   44POPC   GL1 4849  39.186  40.683   9.152
   44POPC   GL2 4850  38.924  40.896   9.000
   44POPC   C1A 4851  39.164  40.575   8.707
   44POPC   D2A 4852  39.055  40.905   8.416
   44POPC   C3A 4853  39.184  40.811   8.028
   44POPC   C4A 4854  39.200  40.468   7.739
   44POPC   C1B 4855  39.175  41.204   8.805
   44POPC   C2B 4856  39.472  41.246   8.437
   44POPC   C3B 4857  39.620  41.163   8.005
   44POPC   C4B 4858  39.452  40.951   7.624
   45POPC   NC3 4859  28.399  38.392   9.774
   45POPC   PO4 4860  28.051  38.932   9.479
   45POPC   GL1 4861  28.186  38.642   9.168
   45POPC   GL2 4862  28.169  38.296   9.227
   45POPC   C1A 4863  28.438  38.697   8.786
   45POPC   D2A 4864  28.575  38.903   8.425
   45POPC   C3A 4865  28.410  38.782   8.036
   45POPC   C4A 4866  28.586  38.690   7.665
   45POPC   C1B 4867  28.225  38.227   8.780
   45POPC   C2B 4868  28.419  38.386   8.397
   45POPC   C3B 4869  28.436  38.248   8.024
   45POPC   C4B 4870  28.284  38.303   7.642
   46POPC   NC3 4871   4.178  29.741   9.344
   46POPC   PO4 4872   4.485  30.148   9.780
   46POPC   GL1 4873   4.439  30.181   9.285
   46POPC   GL2 4874   4.751  30.313   9.261
   46POPC   C1A 4875   4.288  30.058   8.816
   46POPC   D2A 4876   4.395  29.914   8.374
   46POPC   C3A 4877   4.118  29.940   7.998
   46POPC   C4A 4878   4.135  29.756   7.562
   46POPC   C1B 4879   4.781  30.159   8.841
   46POPC   C2B 4880   4.601  30.365   8.520
   46POPC   C3B 4881   4.577  30.318   8.093
   46POPC   C4B 4882   4.448  30.165   7.683
   47POPC   NC3 4883  13.693  26.562   9.382
   47POPC   PO4 4884  13.572  27.115   9.705
   47POPC   GL1 4885  13.450  27.069   9.183
   47POPC   GL2 4886  13.361  26.737   9.043
   47POPC   C1A 4887  13.593  27.091   8.698
   47POPC   D2A 4888  13.971  27.000   8.373
   47POPC   C3A 4889  13.888  27.013   7.899
   47POPC   C4A 4890  13.580  27.164   7.603
   47POPC   C1B 4891  13.650  26.550   8.718
   47POPC   C2B 4892  13.729  26.347   8.323
   47POPC   C3B 4893  13.500  26.421   7.935
   47POPC   C4B 4894  13.692  26.629   7.569
   48POPC   NC3 4895  38.144  41.322   9.258
   48POPC   PO4 4896  37.533  41.152   9.446
   48POPC   GL1 4897  37.662  41.457   9.065
   48POPC   GL2 4898  37.663  41.847   9.090
   48POPC   C1A 4899  37.921  41.431   8.660
   48POPC   D2A 4900  38.018  41.702   8.306
   48POPC   C3A 4901  38.040  41.481   7.929
   48POPC   C4A 4902  37.946  41.488   7.459
   48POPC   C1B 4903  37.603  41.834   8.612
   48POPC   C2B 4904  37.531  41.884   8.148
   48POPC   C3B 4905  37.761  41.872   7.741
   48POPC   C4B 4906  37.589  41.823   7.315
   49POPC   NC3 4907   9.306   3.692   9.880
   49POPC   PO4 4908   9.862   3.605   9.555
   49POPC   GL1 4909   9.750   3.590   9.137
   49POPC   GL2 4910   9.887   3.927   9.106
   49POPC   C1A 4911   9.623   3.348   8.774
   49POPC   D2A 4912   9.715   3.242   8.351
   49POPC   C3A 4913   9.479   3.383   7.983
   49POPC   C4A 4914   9.608   3.323   7.568
   49POPC   C1B 4915   9.622   3.863   8.738
   49POPC   C2B 4916   9.633   3.750   8.345
   49POPC   C3B 4917   9.888   3.694   8.018
   49POPC   C4B 4918   9.857   3.815   7.604
   50POPC   NC3 4919  24.841  14.245   9.416
   50POPC   PO4 4920  25.269  14.565   9.920
   50POPC   GL1 4921  25.336  14.394   9.377
   50POPC   GL2 4922  25.105  14.427   9.045
   50POPC   C1A 4923  25.531  14.336   8.865
   50POPC   D2A 4924  25.344  14.480   8.478
   50POPC   C3A 4925  25.456  14.439   8.044
   50POPC   C4A 4926  25.353  14.746   7.695
   50POPC   C1B 4927  25.024  14.133   8.723
   50POPC   C2B 4928  24.898  14.275   8.335
   50POPC   C3B 4929  24.989  14.648   8.113
   50POPC   C4B 4930  25.015  14.378   7.774
   51POPC   NC3 4931  16.061  33.326   9.513
   51POPC   PO4 4932  15.929  33.933   9.548
   51POPC   GL1 4933  15.822  33.895   9.146
   51POPC   GL2 4934  15.817  33.540   9.097
   51POPC   C1A 4935  15.802  33.882   8.701
   51POPC   D2A 4936  16.003  33.905   8.314
   51POPC   C3A 4937  15.762  34.019   7.967
   51POPC   C4A 4938  16.064  34.113   7.656
   51POPC   C1B 4939  16.005  33.398   8.699
   51POPC   C2B 4940  16.242  33.459   8.326
   51POPC   C3B 4941  15.914  33.464   8.039
   51POPC   C4B 4942  15.920  33.624   7.666
   52POPC   NC3 4943  17.748  36.246   9.486
   52POPC   PO4 4944  17.029  36.328   9.284
   52POPC   GL1 4945  17.169  35.984   9.049
   52POPC   GL2 4946  17.497  36.092   9.013
   52POPC   C1A 4947  17.223  35.990   8.590
   52POPC   D2A 4948  17.545  36.144   8.316
   52POPC   C3A 4949  17.423  36.102   7.914
   52POPC   C4A 4950  17.066  36.123   7.691
   52POPC   C1B 4951  17.637  36.416   8.748
   52POPC   C2B 4952  17.856  36.560   8.377
   52POPC   C3B 4953  17.876  36.356   7.968
   52POPC   C4B 4954  17.875  35.968   7.718
   53POPC   NC3 4955  26.897   9.558   9.546
   53POPC   PO4 4956  27.153  10.182   9.574
   53POPC   GL1 4957  26.898  10.064   9.193
   53POPC   GL2 4958  26.874   9.731   9.055
   53POPC   C1A 4959  26.741  10.140   8.745
   53POPC   D2A 4960  26.833  10.005   8.288
   53POPC   C3A 4961  26.637   9.836   7.891
   53POPC   C4A 4962  26.767   9.954   7.413
   53POPC   C1B 4963  26.677   9.657   8.638
   53POPC   C2B 4964  26.844   9.466   8.240
   53POPC   C3B 4965  26.755   9.352   7.819
   53POPC   C4B 4966  26.551   9.494   7.414
   54POPC   NC3 4967   6.770  14.828   9.528
   54POPC   PO4 4968   6.502  15.395   9.511
   54POPC   GL1 4969   6.505  15.067   9.140
   54POPC   GL2 4970   6.858  14.975   9.052
   54POPC   C1A 4971   6.496  15.129   8.671
   54POPC   D2A 4972   6.607  15.083   8.207
   54POPC   C3A 4973   6.518  15.398   7.834
   54POPC   C4A 4974   6.474  15.465   7.348
   54POPC   C1B 4975   7.067  15.014   8.645
   54POPC   C2B 4976   7.099  14.922   8.200
   54POPC   C3B 4977   6.928  15.072   7.795
   54POPC   C4B 4978   6.814  14.876   7.415
   55POPC   NC3 4979  28.968  27.695   9.813
   55POPC   PO4 4980  29.612  27.571   9.784
   55POPC   GL1 4981  29.396  27.748   9.375
   55POPC   GL2 4982  29.035  27.706   9.208
   55POPC   C1A 4983  29.435  27.745   8.891
   55POPC   D2A 4984  29.228  27.996   8.553
   55POPC   C3A 4985  29.272  27.856   8.129
   55POPC   C4A 4986  28.939  27.824   7.848
   55POPC   C1B 4987  28.923  27.605   8.743
   55POPC   C2B 4988  29.038  27.438   8.300
   55POPC   C3B 4989  29.125  27.340   7.835
   55POPC   C4B 4990  28.868  27.126   7.496
   56POPC   NC3 4991  20.531  26.785   9.792
   56POPC   PO4 4992  21.055  27.033   9.856
   56POPC   GL1 4993  20.868  26.865   9.414
   56POPC   GL2 4994  20.643  26.540   9.350
   56POPC   C1A 4995  20.512  26.959   9.079
   56POPC   D2A 4996  20.406  26.919   8.617
   56POPC   C3A 4997  20.761  26.982   8.286
   56POPC   C4A 4998  20.755  26.956   7.792
   56POPC   C1B 4999  20.401  26.468   8.944
   56POPC   C2B 5000  20.389  26.420   8.490
   56POPC   C3B 5001  20.438  26.639   8.118
   56POPC   C4B 5002  20.528  26.498   7.713
   57POPC   NC3 5003  15.802   3.094   9.528
   57POPC   PO4 5004  16.070   2.559   9.681
   57POPC   GL1 5005  15.921   2.695   9.213
   57POPC   GL2 5006  15.823   2.979   9.048
   57POPC   C1A 5007  16.123   2.723   8.761
   57POPC   D2A 5008  15.982   2.543   8.387
   57POPC   C3A 5009  16.004   2.560   7.983
   57POPC   C4A 5010  15.974   2.735   7.601
   57POPC   C1B 5011  15.640   2.874   8.641
   57POPC   C2B 5012  15.714   2.950   8.186
   57POPC   C3B 5013  15.556   3.022   7.745
   57POPC   C4B 5014  15.591   3.199   7.315
   58POPC   NC3 5015  34.144   4.439   9.565
   58POPC   PO4 5016  33.536   4.199   9.683
   58POPC   GL1 5017  33.689   4.273   9.221
   58POPC   GL2 5018  33.925   4.517   9.109
   58POPC   C1A 5019  33.855   4.163   8.761
   58POPC   D2A 5020  33.931   4.345   8.338
   58POPC   C3A 5021  33.591   4.344   8.032
   58POPC   C4A 5022  33.434   4.087   7.700
   58POPC   C1B 5023  34.166   4.721   8.755
   58POPC   C2B 5024  34.147   4.843   8.310
   58POPC   C3B 5025  34.144   4.603   7.919
   58POPC   C4B 5026  33.981   4.255   7.679
   59POPC   NC3 5027  15.179  26.491   9.607
   59POPC   PO4 5028  14.964  25.907   9.467
   59POPC   GL1 5029  15.162  26.108   9.113
   59POPC   GL2 5030  15.008  26.430   9.115
   59POPC   C1A 5031  15.078  26.065   8.651
   59POPC   D2A 5032  15.327  25.889   8.295
   59POPC   C3A 5033  15.216  25.988   7.870
   59POPC   C4A 5034  15.417  25.941   7.473
   59POPC   C1B 5035  15.326  26.489   8.788
   59POPC   C2B 5036  15.442  26.412   8.344
   59POPC   C3B 5037  15.377  26.472   7.901
   59POPC   C4B 5038  15.116  26.380   7.522
   60POPC   NC3 5039  24.806  38.232   9.623
   60POPC   PO4 5040  24.166  38.268   9.758
   60POPC   GL1 5041  24.347  38.271   9.317
   60POPC   GL2 5042  24.661  38.485   9.193
   60POPC   C1A 5043  24.225  38.454   8.913
   60POPC   D2A 5044  24.203  38.406   8.462
   60POPC   C3A 5045  24.435  38.635   8.162
   60POPC   C4A 5046  24.637  38.677   7.781
   60POPC   C1B 5047  24.636  38.147   8.826
   60POPC   C2B 5048  24.555  38.018   8.373
   60POPC   C3B 5049  24.481  38.174   7.922
   60POPC   C4B 5050  24.809  38.125   7.561
   61POPC   NC3 5051  28.251   7.714   9.807
   61POPC   PO4 5052  28.240   7.141   9.727
   61POPC   GL1 5053  28.153   7.420   9.351
   61POPC   GL2 5054  28.090   7.801   9.330
   61POPC   C1A 5055  28.397   7.509   8.953
   61POPC   D2A 5056  28.311   7.553   8.484
   61POPC   C3A 5057  28.434   7.228   8.149
   61POPC   C4A 5058  28.403   7.357   7.707
   61POPC   C1B 5059  28.027   7.864   8.888
   61POPC   C2B 5060  27.839   7.764   8.481
   61POPC   C3B 5061  27.869   7.876   8.062
   61POPC   C4B 5062  28.064   7.722   7.689
   62POPC   NC3 5063  30.889   1.822   9.638
   62POPC   PO4 5064  30.803   2.498   9.621
   62POPC   GL1 5065  30.664   2.118   9.193
   62POPC   GL2 5066  30.708   1.722   9.151
   62POPC   C1A 5067  30.620   2.037   8.758
   62POPC   D2A 5068  30.433   2.072   8.350
   62POPC   C3A 5069  30.615   2.198   7.994
   62POPC   C4A 5070  30.993   2.113   7.800
   62POPC   C1B 5071  30.900   1.599   8.751
   62POPC   C2B 5072  30.883   1.788   8.345
   62POPC   C3B 5073  30.628   1.694   8.016
   62POPC   C4B 5074  30.634   1.816   7.596
   63POPC   NC3 5075  38.639  30.628   9.465
   63POPC   PO4 5076  38.010  30.919   9.545
   63POPC   GL1 5077  38.155  30.696   9.176
   63POPC   GL2 5078  38.286  30.356   9.226
   63POPC   C1A 5079  38.386  30.829   8.790
   63POPC   D2A 5080  38.634  31.009   8.415
   63POPC   C3A 5081  38.548  30.879   7.988
   63POPC   C4A 5082  38.533  30.948   7.527
   63POPC   C1B 5083  38.591  30.366   8.846
   63POPC   C2B 5084  38.597  30.506   8.385
   63POPC   C3B 5085  38.640  30.376   7.945
   63POPC   C4B 5086  38.629  30.440   7.483
   64POPC   NC3 5087   9.641  32.841   9.592
   64POPC   PO4 5088  10.172  33.141   9.497
   64POPC   GL1 5089   9.932  32.932   9.173
   64POPC   GL2 5090   9.548  32.977   9.095
   64POPC   C1A 5091   9.935  32.918   8.738
   64POPC   D2A 5092   9.680  32.983   8.349
   64POPC   C3A 5093   9.907  32.869   7.979
   64POPC   C4A 5094   9.986  33.192   7.682
   64POPC   C1B 5095   9.480  32.676   8.710
   64POPC   C2B 5096   9.421  32.560   8.239
   64POPC   C3B 5097   9.396  32.860   7.861
   64POPC   C4B 5098   9.482  33.213   7.533
   65POPC   NC3 5099   8.078   4.467   9.846
   65POPC   PO4 5100   8.045   4.026   9.345
   65POPC   GL1 5101   8.174   4.204   9.025
   65POPC   GL2 5102   8.253   4.497   9.179
   65POPC   C1A 5103   8.204   4.202   8.603
   65POPC   D2A 5104   8.111   4.470   8.296
   65POPC   C3A 5105   8.175   4.274   7.926
   65POPC   C4A 5106   8.036   3.975   7.690
   65POPC   C1B 5107   8.232   4.698   8.778
   65POPC   C2B 5108   8.375   4.880   8.395
   65POPC   C3B 5109   8.440   4.726   8.011
   65POPC   C4B 5110   8.133   4.741   7.740
   66POPC   NC3 5111   9.381   8.953   9.442
   66POPC   PO4 5112  10.031   8.876   9.482
   66POPC   GL1 5113   9.802   8.839   9.111
   66POPC   GL2 5114   9.466   8.971   8.963
   66POPC   C1A 5115   9.907   8.971   8.716
   66POPC   D2A 5116   9.652   9.070   8.415
   66POPC   C3A 5117   9.761   8.874   8.083
   66POPC   C4A 5118   9.932   8.772   7.707
   66POPC   C1B 5119   9.392   9.371   8.787
   66POPC   C2B 5120   9.327   9.485   8.348
   66POPC   C3B 5121   9.572   9.362   8.000
   66POPC   C4B 5122   9.525   9.084   7.668
   67POPC   NC3 5123  32.435  17.686   9.439
   67POPC   PO4 5124  31.947  17.251   9.579
   67POPC   GL1 5125  32.096  17.373   9.177
   67POPC   GL2 5126  32.017  17.711   9.129
   67POPC   C1A 5127  32.368  17.441   8.788
   67POPC   D2A 5128  32.318  17.638   8.380
   67POPC   C3A 5129  32.471  17.535   7.966
   67POPC   C4A 5130  32.356  17.763   7.627
   67POPC   C1B 5131  31.911  17.644   8.731
   67POPC   C2B 5132  31.804  17.455   8.361
   67POPC   C3B 5133  31.942  17.583   7.973
   67POPC   C4B 5134  31.872  17.883   7.677
   68POPC   NC3 5135  13.116  25.070   9.497
   68POPC   PO4 5136  12.606  25.481   9.462
   68POPC   GL1 5137  12.862  25.439   9.103
   68POPC   GL2 5138  13.125  25.207   9.019
   68POPC   C1A 5139  12.728  25.297   8.692
   68POPC   D2A 5140  12.832  25.165   8.294
   68POPC   C3A 5141  12.896  25.368   7.919
   68POPC   C4A 5142  12.704  25.268   7.564
   68POPC   C1B 5143  13.048  24.887   8.681
   68POPC   C2B 5144  13.211  24.830   8.256
   68POPC   C3B 5145  12.966  24.848   7.898
   68POPC   C4B 5146  13.013  24.868   7.465
   69POPC   NC3 5147  22.931   6.253   9.403
   69POPC   PO4 5148  23.193   6.809   9.444
   69POPC   GL1 5149  22.853   6.717   9.140
   69POPC   GL2 5150  23.127   6.515   8.988
   69POPC   C1A 5151  22.680   6.470   8.776
   69POPC   D2A 5152  22.882   6.223   8.435
   69POPC   C3A 5153  22.762   6.293   8.011
   69POPC   C4A 5154  22.751   6.712   7.841
   69POPC   C1B 5155  23.131   6.904   8.743
   69POPC   C2B 5156  23.298   6.910   8.318
   69POPC   C3B 5157  23.207   6.969   7.868
   69POPC   C4B 5158  23.209   6.910   7.379
   70POPC   NC3 5159   1.640   6.482   9.465
   70POPC   PO4 5160   1.022   6.821   9.389
   70POPC   GL1 5161   1.349   6.719   9.090
   70POPC   GL2 5162   1.296   6.365   9.046
   70POPC   C1A 5163   1.417   6.998   8.719
   70POPC   D2A 5164   1.194   6.974   8.276
   70POPC   C3A 5165   1.337   6.707   7.892
   70POPC   C4A 5166   1.401   6.846   7.392
   70POPC   C1B 5167   1.124   6.571   8.663
   70POPC   C2B 5168   0.917   6.430   8.287
   70POPC   C3B 5169   0.804   6.683   7.946
   70POPC   C4B 5170   0.947   6.668   7.536
   71POPC   NC3 5171  17.171  16.580   9.358
   71POPC   PO4 5172  16.554  16.753   9.504
   71POPC   GL1 5173  16.810  16.904   9.206
   71POPC   GL2 5174  16.790  16.588   9.012
   71POPC   C1A 5175  16.824  17.058   8.802
   71POPC   D2A 5176  16.813  16.858   8.392
   71POPC   C3A 5177  16.793  17.080   8.005
   71POPC   C4A 5178  16.587  17.098   7.599
   71POPC   C1B 5179  16.401  16.414   8.839
   71POPC   C2B 5180  16.383  16.175   8.451
   71POPC   C3B 5181  16.607  16.250   8.080
   71POPC   C4B 5182  16.564  16.643   7.866
   72POPC   NC3 5183  25.302  34.965   9.873
   72POPC   PO4 5184  25.268  35.557   9.537
   72POPC   GL1 5185  25.312  35.637   9.133
   72POPC   GL2 5186  25.178  35.351   8.948
   72POPC   C1A 5187  25.470  35.704   8.724
   72POPC   D2A 5188  25.299  35.485   8.355
   72POPC   C3A 5189  25.489  35.547   7.921
   72POPC   C4A 5190  25.475  35.254   7.558
   72POPC   C1B 5191  25.281  34.958   8.764
   72POPC   C2B 5192  25.385  34.970   8.362
   72POPC   C3B 5193  25.228  35.109   7.979
   72POPC   C4B 5194  25.183  34.836   7.635
   73POPC   NC3 5195  13.812   9.278   9.291
   73POPC   PO4 5196  13.240   9.064   9.414
   73POPC   GL1 5197  13.395   9.064   9.047
   73POPC   GL2 5198  13.337   9.421   9.048
   73POPC   C1A 5199  13.450   8.832   8.653
   73POPC   D2A 5200  13.447   8.633   8.229
   73POPC   C3A 5201  13.501   8.936   7.845
   73POPC   C4A 5202  13.865   9.167   7.753
   73POPC   C1B 5203  13.542   9.350   8.645
   73POPC   C2B 5204  13.584   9.268   8.209
   73POPC   C3B 5205  13.464   9.456   7.812
   73POPC   C4B 5206  13.730   9.726   7.533
   74POPC   NC3 5207  13.741  36.468   9.470
   74POPC   PO4 5208  13.367  36.976   9.516
   74POPC   GL1 5209  13.481  36.790   9.156
   74POPC   GL2 5210  13.840  36.781   9.084
   74POPC   C1A 5211  13.428  36.688   8.750
   74POPC   D2A 5212  13.413  36.945   8.403
   74POPC   C3A 5213  13.512  36.775   8.023
   74POPC   C4A 5214  13.316  36.858   7.674
   74POPC   C1B 5215  13.768  37.087   8.768
   74POPC   C2B 5216  13.910  37.029   8.366
   74POPC   C3B 5217  13.811  37.188   8.000
   74POPC   C4B 5218  13.841  36.965   7.649
   75POPC   NC3 5219  38.828  21.671   9.592
   75POPC   PO4 5220  39.224  21.171   9.636
   75POPC   GL1 5221  39.226  21.470   9.298
   75POPC   GL2 5222  39.298  21.188   9.126
   75POPC   C1A 5223  39.363  21.586   8.836
   75POPC   D2A 5224  39.388  21.325   8.455
   75POPC   C3A 5225  39.277  21.571   8.098
   75POPC   C4A 5226  39.134  21.650   7.682
   75POPC   C1B 5227  38.998  21.045   8.860
   75POPC   C2B 5228  39.093  20.899   8.503
   75POPC   C3B 5229  39.019  21.111   8.127
   75POPC   C4B 5230  39.272  21.146   7.792
   76POPC   NC3 5231   5.575   5.827   9.524
   76POPC   PO4 5232   6.090   6.049   9.420
   76POPC   GL1 5233   5.742   6.075   9.096
   76POPC   GL2 5234   5.427   5.923   9.064
   76POPC   C1A 5235   5.640   6.248   8.710
   76POPC   D2A 5236   5.907   6.240   8.327
   76POPC   C3A 5237   5.713   6.177   7.930
   76POPC   C4A 5238   6.049   6.135   7.652
   76POPC   C1B 5239   5.559   5.727   8.676
   76POPC   C2B 5240   5.754   5.740   8.267
   76POPC   C3B 5241   6.096   5.708   7.957
   76POPC   C4B 5242   6.034   5.658   7.499
   77POPC   NC3 5243   5.602  21.822   9.522
   77POPC   PO4 5244   6.167  22.154   9.453
   77POPC   GL1 5245   5.795  22.248   9.199
   77POPC   GL2 5246   5.667  21.939   9.044
   77POPC   C1A 5247   5.882  22.322   8.767
   77POPC   D2A 5248   6.149  22.311   8.390
   77POPC   C3A 5249   5.969  22.375   7.975
   77POPC   C4A 5250   5.910  22.270   7.521
   77POPC   C1B 5251   5.737  21.838   8.636
   77POPC   C2B 5252   5.786  21.962   8.225
   77POPC   C3B 5253   5.796  21.876   7.802
   77POPC   C4B 5254   5.786  21.814   7.330
   78POPC   NC3 5255   8.740  20.910   9.408
   78POPC   PO4 5256   9.204  20.452   9.549
   78POPC   GL1 5257   9.232  20.484   9.124
   78POPC   GL2 5258   9.112  20.801   9.085
   78POPC   C1A 5259   8.985  20.499   8.706
   78POPC   D2A 5260   8.795  20.402   8.325
   78POPC   C3A 5261   9.008  20.358   7.929
   78POPC   C4A 5262   8.919  20.302   7.508
   78POPC   C1B 5263   8.854  21.014   8.760
   78POPC   C2B 5264   8.816  20.972   8.332
   78POPC   C3B 5265   8.627  20.752   8.019
   78POPC   C4B 5266   8.666  20.744   7.624
   79POPC   NC3 5267  28.060  42.684   9.543
   79POPC   PO4 5268  27.491  42.207   9.413
   79POPC   GL1 5269  27.855  42.243   9.169
   79POPC   GL2 5270  27.784  42.542   9.146
   79POPC   C1A 5271  27.850  42.198   8.716
   79POPC   D2A 5272  27.609  42.210   8.316
   79POPC   C3A 5273  27.830  42.295   7.924
   79POPC   C4A 5274  27.713  42.200   7.499
   79POPC   C1B 5275  27.466  42.528   8.861
   79POPC   C2B 5276  27.388  42.652   8.496
   79POPC   C3B 5277  27.519  42.777   8.110
   79POPC   C4B 5278  27.497  42.641   7.694
   80POPC   NC3 5279  44.179  15.333   9.553
   80POPC   PO4 5280  43.500  15.243   9.642
   80POPC   GL1 5281  43.700  15.461   9.290
   80POPC   GL2 5282  43.891  15.140   9.172
   80POPC   C1A 5283  43.726  15.461   8.820
   80POPC   D2A 5284  43.815  15.098   8.543
   80POPC   C3A 5285  43.745  15.202   8.131
   80POPC   C4A 5286  43.749  15.297   7.723
   80POPC   C1B 5287  44.208  15.248   8.849
   80POPC   C2B 5288  44.341  15.186   8.407
   80POPC   C3B 5289  44.242  15.278   7.962
   80POPC   C4B 5290  44.147  15.007   7.610
   81POPC   NC3 5291   3.301   4.080   9.469
   81POPC   PO4 5292   3.915   4.432   9.381
   81POPC   GL1 5293   3.546   4.443   9.173
   81POPC   GL2 5294   3.582   4.106   9.041
   81POPC   C1A 5295   3.343   4.475   8.783
   81POPC   D2A 5296   3.492   4.552   8.357
   81POPC   C3A 5297   3.349   4.265   8.030
   81POPC   C4A 5298   3.172   4.453   7.665
   81POPC   C1B 5299   3.845   4.294   8.718
   81POPC   C2B 5300   3.894   4.199   8.293
   81POPC   C3B 5301   3.897   4.343   7.893
   81POPC   C4B 5302   3.652   4.309   7.536
   82POPC   NC3 5303  10.760   7.677   9.477
   82POPC   PO4 5304  11.309   7.421   9.583
   82POPC   GL1 5305  11.315   7.250   9.173
   82POPC   GL2 5306  10.955   7.287   9.143
   82POPC   C1A 5307  11.367   7.228   8.711
   82POPC   D2A 5308  11.182   7.126   8.276
   82POPC   C3A 5309  11.453   7.213   7.910
   82POPC   C4A 5310  11.533   7.581   7.601
   82POPC   C1B 5311  11.082   7.648   8.894
   82POPC   C2B 5312  11.099   7.591   8.460
   82POPC   C3B 5313  11.177   7.667   8.038
   82POPC   C4B 5314  11.043   7.427   7.714
   83POPC   NC3 5315  16.128  34.329   9.625
   83POPC   PO4 5316  15.559  34.622   9.627
   83POPC   GL1 5317  15.698  34.480   9.251
   83POPC   GL2 5318  15.815  34.811   9.168
   83POPC   C1A 5319  15.824  34.384   8.844
   83POPC   D2A 5320  15.734  34.336   8.399
   83POPC   C3A 5321  16.063  34.439   8.080
   83POPC   C4A 5322  16.089  34.613   7.658
   83POPC   C1B 5323  15.666  34.999   8.779
   83POPC   C2B 5324  15.681  34.913   8.315
   83POPC   C3B 5325  15.616  34.682   7.916
   83POPC   C4B 5326  15.607  34.568   7.465
   84POPC   NC3 5327  26.585  21.158   9.500
   84POPC   PO4 5328  27.030  21.591   9.312
   84POPC   GL1 5329  26.848  21.293   9.083
   84POPC   GL2 5330  26.566  21.507   9.016
   84POPC   C1A 5331  26.709  21.139   8.715
   84POPC   D2A 5332  26.489  21.395   8.444
   84POPC   C3A 5333  26.616  21.197   8.108
   84POPC   C4A 5334  26.691  21.158   7.713
   84POPC   C1B 5335  26.880  21.639   8.687
   84POPC   C2B 5336  27.030  21.459   8.307
   84POPC   C3B 5337  26.933  21.569   7.929
   84POPC   C4B 5338  26.750  21.968   7.880
   85POPC   NC3 5339  41.290   9.323   9.582
   85POPC   PO4 5340  41.647   8.878   9.223
   85POPC   GL1 5341  41.441   9.119   8.979
   85POPC   GL2 5342  41.221   8.869   8.915
   85POPC   C1A 5343  41.528   9.156   8.542
   85POPC   D2A 5344  41.827   8.953   8.283
   85POPC   C3A 5345  41.696   8.942   7.880
   85POPC   C4A 5346  41.440   9.220   7.659
   85POPC   C1B 5347  41.488   8.596   8.664
   85POPC   C2B 5348  41.434   8.609   8.245
   85POPC   C3B 5349  41.210   8.867   7.986
   85POPC   C4B 5350  41.282   8.746   7.606
   86POPC   NC3 5351  41.628  25.125   9.521
   86POPC   PO4 5352  41.627  25.728   9.240
   86POPC   GL1 5353  41.531  25.328   9.053
   86POPC   GL2 5354  41.853  25.116   9.074
   86POPC   C1A 5355  41.411  25.171   8.629
   86POPC   D2A 5356  41.206  25.324   8.235
   86POPC   C3A 5357  41.247  25.055   7.879
   86POPC   C4A 5358  41.425  24.888   7.475
   86POPC   C1B 5359  41.907  25.340   8.703
   86POPC   C2B 5360  41.861  25.165   8.309
   86POPC   C3B 5361  41.694  25.364   7.971
   86POPC   C4B 5362  41.864  25.751   7.867
   87POPC   NC3 5363  37.025  21.811   9.433
   87POPC   PO4 5364  36.849  22.498   9.491
   87POPC   GL1 5365  36.930  22.422   9.090
   87POPC   GL2 5366  36.771  22.109   9.101
   87POPC   C1A 5367  37.210  22.270   8.783
   87POPC   D2A 5368  37.018  22.116   8.432
   87POPC   C3A 5369  37.101  22.324   8.061
   87POPC   C4A 5370  36.789  22.341   7.781
   87POPC   C1B 5371  36.614  21.950   8.731
   87POPC   C2B 5372  36.606  21.800   8.306
   87POPC   C3B 5373  36.584  21.876   7.843
   87POPC   C4B 5374  36.394  21.594   7.533
   88POPC   NC3 5375  22.854  31.136   9.545
   88POPC   PO4 5376  23.388  30.529   9.455
   88POPC   GL1 5377  23.090  30.591   9.105
   88POPC   GL2 5378  22.820  30.817   9.160
   88POPC   C1A 5379  23.010  30.725   8.688
   88POPC   D2A 5380  22.841  30.681   8.301
   88POPC   C3A 5381  23.141  30.742   8.028
   88POPC   C4A 5382  23.051  30.361   7.857
   88POPC   C1B 5383  22.543  30.876   8.820
   88POPC   C2B 5384  22.482  31.039   8.428
   88POPC   C3B 5385  22.478  30.912   8.013
   88POPC   C4B 5386  22.759  30.780   7.698
   89POPC   NC3 5387   6.086  26.058   9.556
   89POPC   PO4 5388   5.452  25.782   9.535
   89POPC   GL1 5389   5.727  25.882   9.179
   89POPC   GL2 5390   5.847  26.232   9.117
   89POPC   C1A 5391   5.735  25.913   8.725
   89POPC   D2A 5392   5.448  25.971   8.384
   89POPC   C3A 5393   5.644  25.973   7.976
   89POPC   C4A 5394   6.042  25.777   7.898
   89POPC   C1B 5395   6.118  26.250   8.742
   89POPC   C2B 5396   6.153  26.058   8.327
   89POPC   C3B 5397   6.092  26.282   7.919
   89POPC   C4B 5398   6.157  26.212   7.474
   90POPC   NC3 5399  35.318   3.231   9.437
   90POPC   PO4 5400  35.136   3.859   9.578
   90POPC   GL1 5401  35.172   3.677   9.166
   90POPC   GL2 5402  35.530   3.595   9.118
   90POPC   C1A 5403  35.156   3.514   8.734
   90POPC   D2A 5404  35.346   3.437   8.344
   90POPC   C3A 5405  35.061   3.456   8.008
   90POPC   C4A 5406  35.014   3.352   7.598
   90POPC   C1B 5407  35.663   3.314   8.788
   90POPC   C2B 5408  35.869   3.285   8.407
   90POPC   C3B 5409  35.715   3.333   8.011
   90POPC   C4B 5410  35.499   3.474   7.663
   91POPC   NC3 5411   4.327  11.251   9.785
   91POPC   PO4 5412   4.409  10.618   9.467
   91POPC   GL1 5413   4.256  10.482   9.093
   91POPC   GL2 5414   4.082  10.804   9.113
   91POPC   C1A 5415   4.288  10.601   8.661
   91POPC   D2A 5416   4.427  10.959   8.438
   91POPC   C3A 5417   4.382  10.825   7.999
   91POPC   C4A 5418   4.368  10.405   7.775
   91POPC   C1B 5419   3.965  10.999   8.775
   91POPC   C2B 5420   3.823  10.781   8.453
   91POPC   C3B 5421   3.878  10.828   8.036
   91POPC   C4B 5422   3.969  10.671   7.669
   92POPC   NC3 5423   9.556  24.769   9.438
   92POPC   PO4 5424  10.255  24.631   9.697
   92POPC   GL1 5425  10.040  24.587   9.288
   92POPC   GL2 5426   9.951  24.898   9.127
   92POPC   C1A 5427  10.015  24.367   8.866
   92POPC   D2A 5428  10.140  24.505   8.421
   92POPC   C3A 5429  10.058  24.254   8.047
   92POPC   C4A 5430   9.736  24.015   7.826
   92POPC   C1B 5431   9.822  24.804   8.729
   92POPC   C2B 5432   9.497  24.530   8.540
   92POPC   C3B 5433   9.455  24.324   8.134
   92POPC   C4B 5434   9.641  24.514   7.765
   93POPC   NC3 5435  40.391  35.323   9.475
   93POPC   PO4 5436  40.831  35.709   9.340
   93POPC   GL1 5437  40.788  35.415   9.049
   93POPC   GL2 5438  40.439  35.480   8.986
   93POPC   C1A 5439  41.021  35.327   8.654
   93POPC   D2A 5440  40.798  35.321   8.241
   93POPC   C3A 5441  41.037  35.371   7.851
   93POPC   C4A 5442  41.036  35.625   7.484
   93POPC   C1B 5443  40.650  35.671   8.631
   93POPC   C2B 5444  40.526  35.778   8.247
   93POPC   C3B 5445  40.679  35.741   7.858
   93POPC   C4B 5446  40.563  35.466   7.540
   94POPC   NC3 5447  21.700  11.584   9.250
   94POPC   PO4 5448  22.267  11.367   9.525
   94POPC   GL1 5449  22.248  11.549   9.140
   94POPC   GL2 5450  22.613  11.653   9.112
   94POPC   C1A 5451  22.057  11.368   8.745
   94POPC   D2A 5452  22.101  11.524   8.328
   94POPC   C3A 5453  22.231  11.230   7.999
   94POPC   C4A 5454  22.027  11.440   7.655
   94POPC   C1B 5455  22.497  11.605   8.695
   94POPC   C2B 5456  22.615  11.416   8.328
   94POPC   C3B 5457  22.486  11.675   8.001
   94POPC   C4B 5458  22.522  11.519   7.615
   95POPC   NC3 5459   6.025  14.240   9.541
   95POPC   PO4 5460   5.348  14.285   9.287
   95POPC   GL1 5461   5.658  14.437   9.039
   95POPC   GL2 5462   6.024  14.444   9.091
   95POPC   C1A 5463   5.807  14.254   8.676
   95POPC   D2A 5464   5.739  14.367   8.282
   95POPC   C3A 5465   5.490  14.279   7.970
   95POPC   C4A 5466   5.717  14.502   7.702
   95POPC   C1B 5467   6.181  14.739   8.817
   95POPC   C2B 5468   6.270  14.741   8.400
   95POPC   C3B 5469   6.127  14.569   8.027
   95POPC   C4B 5470   6.229  14.542   7.640
   96POPC   NC3 5471  11.792  30.556   9.580
   96POPC   PO4 5472  12.182  31.012   9.370
   96POPC   GL1 5473  12.051  30.802   9.104
   96POPC   GL2 5474  11.746  30.753   9.109
   96POPC   C1A 5475  12.042  30.959   8.710
   96POPC   D2A 5476  11.902  30.787   8.362
   96POPC   C3A 5477  12.139  30.855   8.049
   96POPC   C4A 5478  12.122  30.728   7.658
   96POPC   C1B 5479  11.898  30.464   8.752
   96POPC   C2B 5480  12.027  30.289   8.389
   96POPC   C3B 5481  11.924  30.350   7.953
   96POPC   C4B 5482  12.154  30.232   7.558
   97POPC   NC3 5483   9.235  18.580   9.587
   97POPC   PO4 5484   9.737  18.066   9.584
   97POPC   GL1 5485   9.592  18.259   9.133
   97POPC   GL2 5486   9.885  18.411   9.034
   97POPC   C1A 5487   9.564  18.386   8.633
   97POPC   D2A 5488   9.545  18.421   8.147
   97POPC   C3A 5489   9.697  18.046   7.867
   97POPC   C4A 5490   9.748  17.842   7.402
   97POPC   C1B 5491  10.080  18.281   8.621
   97POPC   C2B 5492  10.061  18.464   8.205
   97POPC   C3B 5493   9.868  18.623   7.824
   97POPC   C4B 5494   9.788  18.348   7.475
   98POPC   NC3 5495  30.451  40.254   9.452
   98POPC   PO4 5496  31.053  39.804   9.473
   98POPC   GL1 5497  30.687  39.835   9.209
   98POPC   GL2 5498  30.410  39.578   9.267
   98POPC   C1A 5499  30.704  40.034   8.799
   98POPC   D2A 5500  30.843  40.380   8.532
   98POPC   C3A 5501  30.709  40.295   8.111
   98POPC   C4A 5502  30.312  40.290   7.906
   98POPC   C1B 5503  30.575  39.480   8.850
   98POPC   C2B 5504  30.509  39.680   8.454
   98POPC   C3B 5505  30.483  39.825   8.037
   98POPC   C4B 5506  30.843  39.713   7.815
   99POPC   NC3 5507   4.841  10.515   9.620
   99POPC   PO4 5508   5.430  10.239   9.784
   99POPC   GL1 5509   5.225  10.343   9.309
   99POPC   GL2 5510   4.875  10.354   9.135
   99POPC   C1A 5511   5.297  10.463   8.847
   99POPC   D2A 5512   5.229  10.805   8.545
   99POPC   C3A 5513   5.231  10.711   8.095
   99POPC   C4A 5514   5.342  10.293   7.975
   99POPC   C1B 5515   4.787  10.642   8.797
   99POPC   C2B 5516   4.783  10.621   8.324
   99POPC   C3B 5517   4.825  10.322   7.966
   99POPC   C4B 5518   4.995  10.033   7.642
  100POPC   NC3 5519  17.129   2.095   9.531
  100POPC   PO4 5520  17.800   2.279   9.418
  100POPC   GL1 5521  17.687   2.033   9.048
  100POPC   GL2 5522  17.492   1.779   9.225
  100POPC   C1A 5523  17.680   1.838   8.622
  100POPC   D2A 5524  17.585   2.123   8.271
  100POPC   C3A 5525  17.662   2.086   7.836
  100POPC   C4A 5526  17.695   1.716   7.576
  100POPC   C1B 5527  17.218   1.903   8.876
  100POPC   C2B 5528  17.185   1.795   8.439
  100POPC   C3B 5529  17.435   1.681   8.072
  100POPC   C4B 5530  17.211   1.827   7.704
  101POPC   NC3 5531  35.793  17.890   9.931
  101POPC   PO4 5532  36.258  17.605   9.466
  101POPC   GL1 5533  35.929  17.475   9.171
  101POPC   GL2 5534  35.767  17.709   8.953
  101POPC   C1A 5535  35.914  17.236   8.802
  101POPC   D2A 5536  36.069  17.330   8.393
  101POPC   C3A 5537  35.915  17.544   8.028
  101POPC   C4A 5538  36.061  17.492   7.572
  101POPC   C1B 5539  36.242  17.648   8.778
  101POPC   C2B 5540  36.394  17.760   8.331
  101POPC   C3B 5541  36.409  17.713   7.873
  101POPC   C4B 5542  36.346  17.963   7.467
  102POPC   NC3 5543  15.084  33.122   9.566
  102POPC   PO4 5544  15.212  32.474   9.829
  102POPC   GL1 5545  15.329  32.712   9.366
  102POPC   GL2 5546  14.997  32.877   9.152
  102POPC   C1A 5547  15.445  32.800   8.891
  102POPC   D2A 5548  15.539  33.175   8.579
  102POPC   C3A 5549  15.443  33.055   8.153
  102POPC   C4A 5550  15.330  32.836   7.746
  102POPC   C1B 5551  15.117  33.202   8.883
  102POPC   C2B 5552  15.045  33.041   8.483
  102POPC   C3B 5553  14.928  33.085   8.056
  102POPC   C4B 5554  14.994  33.229   7.661
  103POPC   NC3 5555  44.140  17.992   9.461
  103POPC   PO4 5556  44.005  18.660   9.488
  103POPC   GL1 5557  44.060  18.383   9.137
  103POPC   GL2 5558  43.750  18.173   9.073
  103POPC   C1A 5559  44.127  18.159   8.758
  103POPC   D2A 5560  43.970  18.246   8.388
  103POPC   C3A 5561  44.063  18.027   8.042
  103POPC   C4A 5562  44.070  18.196   7.644
  103POPC   C1B 5563  43.573  18.043   8.657
  103POPC   C2B 5564  43.539  17.983   8.169
  103POPC   C3B 5565  43.551  18.104   7.712
  103POPC   C4B 5566  43.395  17.912   7.307
  104POPC   NC3 5567  23.894   8.597   9.486
  104POPC   PO4 5568  23.337   8.402   9.700
  104POPC   GL1 5569  23.380   8.308   9.212
  104POPC   GL2 5570  23.199   8.022   9.191
  104POPC   C1A 5571  23.669   8.348   8.791
  104POPC   D2A 5572  23.954   8.080   8.486
  104POPC   C3A 5573  23.852   8.174   8.043
  104POPC   C4A 5574  23.680   8.572   7.911
  104POPC   C1B 5575  23.271   7.945   8.800
  104POPC   C2B 5576  23.447   8.067   8.430
  104POPC   C3B 5577  23.356   8.055   8.027
  104POPC   C4B 5578  23.469   8.205   7.638
  105POPC   NC3 5579  16.499   5.447   9.401
  105POPC   PO4 5580  16.765   4.772   9.401
  105POPC   GL1 5581  16.735   5.084   9.119
  105POPC   GL2 5582  16.956   5.398   9.124
  105POPC   C1A 5583  16.420   5.141   8.808
  105POPC   D2A 5584  16.301   4.986   8.437
  105POPC   C3A 5585  16.609   5.080   8.116
  105POPC   C4A 5586  16.776   5.138   7.684
  105POPC   C1B 5587  16.931   5.202   8.685
  105POPC   C2B 5588  16.898   5.445   8.317
  105POPC   C3B 5589  17.138   5.370   7.981
  105POPC   C4B 5590  17.241   5.265   7.550
  106POPC   NC3 5591  41.450  34.813   9.617
  106POPC   PO4 5592  42.063  34.700   9.376
  106POPC   GL1 5593  41.635  34.607   9.200
  106POPC   GL2 5594  41.543  34.257   9.267
  106POPC   C1A 5595  41.388  34.520   8.821
  106POPC   D2A 5596  41.494  34.690   8.400
  106POPC   C3A 5597  41.351  34.576   7.984
  106POPC   C4A 5598  41.232  34.916   7.721
  106POPC   C1B 5599  41.824  34.240   8.920
  106POPC   C2B 5600  41.897  34.448   8.602
  106POPC   C3B 5601  41.843  34.379   8.172
  106POPC   C4B 5602  41.815  34.484   7.762
  107POPC   NC3 5603  43.384   9.801   9.607
  107POPC   PO4 5604  42.686   9.662   9.618
  107POPC   GL1 5605  42.783   9.833   9.244
  107POPC   GL2 5606  43.071  10.055   9.237
  107POPC   C1A 5607  42.671   9.765   8.829
  107POPC   D2A 5608  42.889   9.852   8.449
  107POPC   C3A 5609  42.753   9.866   8.046
  107POPC   C4A 5610  42.947  10.063   7.697
  107POPC   C1B 5611  43.176   9.802   8.872
  107POPC   C2B 5612  43.388   9.828   8.460
  107POPC   C3B 5613  43.286   9.874   8.034
  107POPC   C4B 5614  43.318   9.699   7.628
  108POPC   NC3 5615  39.010   6.982   9.443
  108POPC   PO4 5616  39.452   7.487   9.471
  108POPC   GL1 5617  39.445   7.210   9.082
  108POPC   GL2 5618  39.080   7.201   8.995
  108POPC   C1A 5619  39.543   7.295   8.616
  108POPC   D2A 5620  39.649   7.632   8.318
  108POPC   C3A 5621  39.278   7.639   8.082
  108POPC   C4A 5622  39.337   7.447   7.692
  108POPC   C1B 5623  39.037   7.373   8.598
  108POPC   C2B 5624  38.871   7.313   8.216
  108POPC   C3B 5625  38.949   7.084   7.854
  108POPC   C4B 5626  38.918   7.175   7.421
  109POPC   NC3 5627  26.819  32.571   9.866
  109POPC   PO4 5628  27.070  32.065   9.654
  109POPC   GL1 5629  26.855  32.263   9.275
  109POPC   GL2 5630  26.904  31.973   9.051
  109POPC   C1A 5631  26.583  32.345   8.896
  109POPC   D2A 5632  26.544  32.332   8.441
  109POPC   C3A 5633  26.700  32.202   8.016
  109POPC   C4A 5634  26.938  32.101   7.622
  109POPC   C1B 5635  27.035  32.264   8.686
  109POPC   C2B 5636  27.149  32.314   8.240
  109POPC   C3B 5637  27.365  32.262   7.826
  109POPC   C4B 5638  27.415  32.136   7.369
  110POPC   NC3 5639  24.400  20.837   9.502
  110POPC   PO4 5640  24.196  20.233   9.389
  110POPC   GL1 5641  24.440  20.514   9.067
  110POPC   GL2 5642  24.581  20.876   9.027
  110POPC   C1A 5643  24.485  20.451   8.645
  110POPC   D2A 5644  24.529  20.175   8.306
  110POPC   C3A 5645  24.357  20.295   7.932
  110POPC   C4A 5646  24.493  20.469   7.515
  110POPC   C1B 5647  24.494  20.970   8.602
  110POPC   C2B 5648  24.499  20.729   8.216
  110POPC   C3B 5649  24.270  20.804   7.848
  110POPC   C4B 5650  24.607  20.970   7.599
  111POPC   NC3 5651  41.472   1.029   9.363
  111POPC   PO4 5652  41.624   1.707   9.479
  111POPC   GL1 5653  41.468   1.542   9.103
  111POPC   GL2 5654  41.785   1.349   9.072
  111POPC   C1A 5655  41.464   1.341   8.676
  111POPC   D2A 5656  41.652   1.118   8.331
  111POPC   C3A 5657  41.530   1.238   7.927
  111POPC   C4A 5658  41.418   1.657   7.815
  111POPC   C1B 5659  41.912   1.020   8.778
  111POPC   C2B 5660  42.026   0.763   8.421
  111POPC   C3B 5661  41.873   0.809   7.979
  111POPC   C4B 5662  41.919   1.084   7.628
  112POPC   NC3 5663  18.375  18.642   9.367
  112POPC   PO4 5664  17.941  18.362   9.840
  112POPC   GL1 5665  18.173  18.159   9.374
  112POPC   GL2 5666  18.551  18.140   9.276
  112POPC   C1A 5667  18.225  18.250   8.864
  112POPC   D2A 5668  18.374  18.439   8.483
  112POPC   C3A 5669  18.162  18.429   8.087
  112POPC   C4A 5670  18.460  18.572   7.765
  112POPC   C1B 5671  18.476  17.830   8.941
  112POPC   C2B 5672  18.296  17.854   8.517
  112POPC   C3B 5673  18.360  17.946   8.080
  112POPC   C4B 5674  18.270  18.129   7.668
  113POPC   NC3 5675  14.520  13.243   9.399
  113POPC   PO4 5676  14.132  12.685   9.381
  113POPC   GL1 5677  14.354  12.864   9.078
  113POPC   GL2 5678  14.668  12.788   9.181
  113POPC   C1A 5679  14.367  12.992   8.668
  113POPC   D2A 5680  14.134  12.837   8.304
  113POPC   C3A 5681  14.281  12.992   7.930
  113POPC   C4A 5682  14.512  12.875   7.577
  113POPC   C1B 5683  14.643  12.560   8.785
  113POPC   C2B 5684  14.641  12.717   8.357
  113POPC   C3B 5685  14.607  12.566   7.964
  113POPC   C4B 5686  14.834  12.391   7.674
  114POPC   NC3 5687  19.712  17.612  10.004
  114POPC   PO4 5688  20.193  17.677   9.564
  114POPC   GL1 5689  19.895  17.563   9.239
  114POPC   GL2 5690  19.699  17.851   9.159
  114POPC   C1A 5691  19.985  17.563   8.785
  114POPC   D2A 5692  19.800  17.484   8.356
  114POPC   C3A 5693  20.096  17.330   8.058
  114POPC   C4A 5694  20.316  17.495   7.702
  114POPC   C1B 5695  19.491  17.694   8.766
  114POPC   C2B 5696  19.391  17.825   8.349
  114POPC   C3B 5697  19.476  17.692   7.921
  114POPC   C4B 5698  19.799  17.502   7.663
  115POPC   NC3 5699  19.392  15.629   9.527
  115POPC   PO4 5700  18.847  15.093   9.489
  115POPC   GL1 5701  18.856  15.320   9.099
  115POPC   GL2 5702  19.127  15.113   9.022
  115POPC   C1A 5703  18.769  15.197   8.661
  115POPC   D2A 5704  19.019  15.114   8.266
  115POPC   C3A 5705  18.681  15.145   7.958
  115POPC   C4A 5706  18.644  15.289   7.554
  115POPC   C1B 5707  19.381  15.201   8.660
  115POPC   C2B 5708  19.548  14.899   8.376
  115POPC   C3B 5709  19.429  14.777   7.962
  115POPC   C4B 5710  19.126  14.994   7.738
  116POPC   NC3 5711   6.453  44.728   9.689
  116POPC   PO4 5712   5.731  44.720   9.537
  116POPC   GL1 5713   5.840  44.714   9.131
  116POPC   GL2 5714   6.126  44.480   9.088
  116POPC   C1A 5715   6.004  44.839   8.737
  116POPC   D2A 5716   6.203  44.872   8.342
  116POPC   C3A 5717   5.977  44.756   7.955
  116POPC   C4A 5718   6.085   0.038   7.663
  116POPC   C1B 5719   5.839  44.341   8.770
  116POPC   C2B 5720   5.832  44.473   8.371
  116POPC   C3B 5721   5.804  44.226   8.009
  116POPC   C4B 5722   5.873  44.328   7.589
  117POPC   NC3 5723   1.764  15.199   9.521
  117POPC   PO4 5724   2.306  15.518   9.374
  117POPC   GL1 5725   2.044  15.364   9.111
  117POPC   GL2 5726   2.055  14.999   9.060
  117POPC   C1A 5727   1.830  15.356   8.763
  117POPC   D2A 5728   1.708  15.086   8.476
  117POPC   C3A 5729   1.758  15.371   8.139
  117POPC   C4A 5730   1.833  15.289   7.743
  117POPC   C1B 5731   2.346  14.834   8.732
  117POPC   C2B 5732   2.299  14.778   8.309
  117POPC   C3B 5733   1.942  14.871   8.063
  117POPC   C4B 5734   1.905  14.793   7.643
  118POPC   NC3 5735   8.962  22.608   9.369
  118POPC   PO4 5736   8.789  23.258   9.593
  118POPC   GL1 5737   9.024  23.101   9.211
  118POPC   GL2 5738   8.838  22.823   8.958
  118POPC   C1A 5739   9.277  22.997   8.842
  118POPC   D2A 5740   9.004  22.937   8.460
  118POPC   C3A 5741   9.177  22.936   8.049
  118POPC   C4A 5742   9.195  23.234   7.686
  118POPC   C1B 5743   8.900  22.469   8.644
  118POPC   C2B 5744   8.800  22.552   8.202
  118POPC   C3B 5745   8.690  22.780   7.848
  118POPC   C4B 5746   8.973  22.785   7.562
  119POPC   NC3 5747  37.038  36.577   9.619
  119POPC   PO4 5748  36.745  36.356   9.082
  119POPC   GL1 5749  36.761  36.806   9.072
  119POPC   GL2 5750  36.942  37.083   9.260
  119POPC   C1A 5751  36.580  36.945   8.701
  119POPC   D2A 5752  36.411  36.905   8.314
  119POPC   C3A 5753  36.721  36.753   8.047
  119POPC   C4A 5754  37.159  36.830   7.900
  119POPC   C1B 5755  36.943  37.242   8.843
  119POPC   C2B 5756  36.975  37.122   8.401
  119POPC   C3B 5757  36.868  37.241   8.002
  119POPC   C4B 5758  37.081  37.324   7.618
  120POPC   NC3 5759  37.977  21.667   9.560
  120POPC   PO4 5760  37.786  21.009   9.572
  120POPC   GL1 5761  37.928  21.284   9.201
  120POPC   GL2 5762  37.710  21.592   9.122
  120POPC   C1A 5763  37.962  21.341   8.733
  120POPC   D2A 5764  37.916  21.622   8.338
  120POPC   C3A 5765  37.838  21.403   7.953
  120POPC   C4A 5766  37.960  21.167   7.597
  120POPC   C1B 5767  37.534  21.632   8.686
  120POPC   C2B 5768  37.474  21.917   8.298
  120POPC   C3B 5769  37.550  21.802   7.879
  120POPC   C4B 5770  37.401  21.428   7.685
  121POPC   NC3 5771  22.080   0.839   9.549
  121POPC   PO4 5772  22.541   0.309   9.505
  121POPC   GL1 5773  22.355   0.550   9.195
  121POPC   GL2 5774  22.535   0.878   9.296
  121POPC   C1A 5775  22.187   0.460   8.757
  121POPC   D2A 5776  21.852   0.460   8.408
  121POPC   C3A 5777  22.006   0.370   7.987
  121POPC   C4A 5778  22.382   0.261   7.776
  121POPC   C1B 5779  22.558   0.847   8.840
  121POPC   C2B 5780  22.323   0.853   8.435
  121POPC   C3B 5781  22.446   0.649   8.087
  121POPC   C4B 5782  22.574   0.729   7.654
  122POPC   NC3 5783   2.998  24.094   9.441
  122POPC   PO4 5784   3.312  23.530   9.453
  122POPC   GL1 5785   3.059  23.687   9.127
  122POPC   GL2 5786   2.915  23.369   9.107
  122POPC   C1A 5787   2.928  23.939   8.754
  122POPC   D2A 5788   2.833  23.760   8.358
  122POPC   C3A 5789   2.764  23.928   7.963
  122POPC   C4A 5790   3.072  24.007   7.700
  122POPC   C1B 5791   2.659  23.474   8.752
  122POPC   C2B 5792   2.484  23.403   8.366
  122POPC   C3B 5793   2.653  23.425   7.949
  122POPC   C4B 5794   2.712  23.582   7.545
  123POPC   NC3 5795  27.159   6.716   9.446
  123POPC   PO4 5796  27.839   6.601   9.644
  123POPC   GL1 5797  27.713   6.449   9.240
  123POPC   GL2 5798  27.511   6.710   9.081
  123POPC   C1A 5799  27.817   6.392   8.816
  123POPC   D2A 5800  27.673   6.699   8.465
  123POPC   C3A 5801  27.589   6.510   8.054
  123POPC   C4A 5802  27.741   6.691   7.669
  123POPC   C1B 5803  27.435   7.052   8.798
  123POPC   C2B 5804  27.290   7.131   8.378
  123POPC   C3B 5805  27.474   7.013   7.970
  123POPC   C4B 5806  27.494   7.104   7.502
  124POPC   NC3 5807   9.462  29.758   9.537
  124POPC   PO4 5808  10.135  29.813   9.497
  124POPC   GL1 5809   9.880  29.897   9.199
  124POPC   GL2 5810   9.675  30.194   9.279
  124POPC   C1A 5811   9.833  29.787   8.781
  124POPC   D2A 5812   9.603  29.873   8.408
  124POPC   C3A 5813   9.768  29.682   8.036
  124POPC   C4A 5814  10.033  29.771   7.712
  124POPC   C1B 5815   9.897  30.307   8.890
  124POPC   C2B 5816  10.018  30.175   8.478
  124POPC   C3B 5817   9.898  30.202   8.043
  124POPC   C4B 5818  10.126  30.271   7.660
  125POPC   NC3 5819  32.752  43.010   9.601
  125POPC   PO4 5820  33.361  43.406   9.574
  125POPC   GL1 5821  33.161  43.094   9.277
  125POPC   GL2 5822  32.900  43.260   9.176
  125POPC   C1A 5823  33.070  42.799   8.909
  125POPC   D2A 5824  33.334  42.639   8.578
  125POPC   C3A 5825  33.250  42.732   8.129
  125POPC   C4A 5826  33.280  43.058   7.804
  125POPC   C1B 5827  32.681  43.116   8.803
  125POPC   C2B 5828  32.920  43.008   8.462
  125POPC   C3B 5829  32.846  43.076   8.053
  125POPC   C4B 5830  32.779  43.125   7.600
  126POPC   NC3 5831  42.768  14.446   9.166
  126POPC   PO4 5832  43.448  14.312   9.389
  126POPC   GL1 5833  43.290  14.369   9.004
  126POPC   GL2 5834  43.038  14.113   8.904
  126POPC   C1A 5835  43.473  14.693   8.735
  126POPC   D2A 5836  43.631  14.640   8.329
  126POPC   C3A 5837  43.301  14.561   8.040
  126POPC   C4A 5838  43.230  14.779   7.663
  126POPC   C1B 5839  42.711  14.131   8.576
  126POPC   C2B 5840  42.737  14.087   8.134
  126POPC   C3B 5841  42.713  14.260   7.737
  126POPC   C4B 5842  43.031  14.343   7.431
  127POPC   NC3 5843  32.754  35.391   9.729
  127POPC   PO4 5844  33.207  34.816   9.613
  127POPC   GL1 5845  33.334  34.999   9.104
  127POPC   GL2 5846  33.000  35.203   8.976
  127POPC   C1A 5847  33.310  35.189   8.616
  127POPC   D2A 5848  33.053  35.361   8.249
  127POPC   C3A 5849  32.981  35.071   7.881
  127POPC   C4A 5850  32.866  35.057   7.433
  127POPC   C1B 5851  32.940  35.579   8.722
  127POPC   C2B 5852  32.713  35.839   8.406
  127POPC   C3B 5853  32.666  35.677   7.988
  127POPC   C4B 5854  32.996  35.540   7.730
  128POPC   NC3 5855  11.081  20.784   9.495
  128POPC   PO4 5856  11.475  20.303   9.674
  128POPC   GL1 5857  11.422  20.439   9.233
  128POPC   GL2 5858  11.709  20.240   9.201
  128POPC   C1A 5859  11.291  20.675   8.806
  128POPC   D2A 5860  11.236  20.874   8.359
  128POPC   C3A 5861  11.167  20.734   7.911
  128POPC   C4A 5862  11.037  20.906   7.468
  128POPC   C1B 5863  11.776  20.520   8.856
  128POPC   C2B 5864  11.606  20.488   8.434
  128POPC   C3B 5865  11.636  20.314   8.046
  128POPC   C4B 5866  11.350  20.234   7.712
  129POPC   NC3 5867  44.045  25.857   9.559
  129POPC   PO4 5868  43.426  26.179   9.501
  129POPC   GL1 5869  43.684  25.991   9.189
  129POPC   GL2 5870  43.941  26.231   9.199
  129POPC   C1A 5871  44.020  25.811   8.902
  129POPC   D2A 5872  44.108  25.711   8.461
  129POPC   C3A 5873  44.098  25.950   8.086
  129POPC   C4A 5874  43.896  26.032   7.705
  129POPC   C1B 5875  43.796  26.272   8.782
  129POPC   C2B 5876  43.632  26.623   8.566
  129POPC   C3B 5877  43.593  26.627   8.136
  129POPC   C4B 5878  43.745  26.528   7.732
  130POPC   NC3 5879  21.982  23.533   9.469
  130POPC   PO4 5880  21.329  23.791   9.549
  130POPC   GL1 5881  21.511  23.536   9.207
  130POPC   GL2 5882  21.627  23.821   9.063
  130POPC   C1A 5883  21.582  23.398   8.758
  130POPC   D2A 5884  21.570  23.768   8.490
  130POPC   C3A 5885  21.443  23.787   8.065
  130POPC   C4A 5886  21.391  23.474   7.760
  130POPC   C1B 5887  21.865  24.088   8.777
  130POPC   C2B 5888  21.729  24.281   8.421
  130POPC   C3B 5889  21.623  24.283   7.993
  130POPC   C4B 5890  21.457  24.064   7.616
  131POPC   NC3 5891   4.583  21.403   9.360
  131POPC   PO4 5892   3.866  21.439   9.480
  131POPC   GL1 5893   3.985  21.351   9.069
  131POPC   GL2 5894   4.104  21.709   9.009
  131POPC   C1A 5895   3.969  21.367   8.622
  131POPC   D2A 5896   4.035  21.788   8.435
  131POPC   C3A 5897   4.224  21.637   8.070
  131POPC   C4A 5898   4.219  21.274   7.835
  131POPC   C1B 5899   4.430  21.571   8.704
  131POPC   C2B 5900   4.482  21.265   8.346
  131POPC   C3B 5901   4.707  21.344   7.966
  131POPC   C4B 5902   4.649  21.773   7.817
  132POPC   NC3 5903  14.727  35.500   9.536
  132POPC   PO4 5904  14.120  35.411   9.456
  132POPC   GL1 5905  14.422  35.289   9.160
  132POPC   GL2 5906  14.510  35.620   9.073
  132POPC   C1A 5907  14.420  35.040   8.783
  132POPC   D2A 5908  14.561  35.133   8.364
  132POPC   C3A 5909  14.317  35.288   8.006
  132POPC   C4A 5910  14.341  35.108   7.596
  132POPC   C1B 5911  14.325  35.535   8.689
  132POPC   C2B 5912  14.505  35.672   8.329
  132POPC   C3B 5913  14.524  35.787   7.938
  132POPC   C4B 5914  14.366  35.617   7.555
  133POPC   NC3 5915  23.951  41.347   9.562
  133POPC   PO4 5916  23.420  41.803   9.513
  133POPC   GL1 5917  23.600  41.839   9.069
  133POPC   GL2 5918  23.964  41.887   9.041
  133POPC   C1A 5919  23.632  41.511   8.709
  133POPC   D2A 5920  23.753  41.313   8.275
  133POPC   C3A 5921  23.423  41.392   7.949
  133POPC   C4A 5922  23.252  41.818   7.844
  133POPC   C1B 5923  23.853  41.950   8.619
  133POPC   C2B 5924  23.641  41.818   8.267
  133POPC   C3B 5925  23.847  41.663   7.897
  133POPC   C4B 5926  23.997  41.850   7.504
  134POPC   NC3 5927   3.102  28.869   9.298
  134POPC   PO4 5928   3.475  29.314   9.711
  134POPC   GL1 5929   3.588  29.013   9.351
  134POPC   GL2 5930   3.405  29.233   9.120
  134POPC   C1A 5931   3.606  28.840   8.882
  134POPC   D2A 5932   3.403  28.967   8.495
  134POPC   C3A 5933   3.735  29.131   8.244
  134POPC   C4A 5934   3.708  29.151   7.827
  134POPC   C1B 5935   3.603  29.366   8.726
  134POPC   C2B 5936   3.418  29.521   8.372
  134POPC   C3B 5937   3.261  29.332   7.990
  134POPC   C4B 5938   2.999  29.526   7.662
  135POPC   NC3 5939  32.444  36.783   9.463
  135POPC   PO4 5940  31.960  37.177   9.303
  135POPC   GL1 5941  32.133  36.842   9.051
  135POPC   GL2 5942  32.457  36.712   8.970
  135POPC   C1A 5943  32.101  36.928   8.624
  135POPC   D2A 5944  32.284  37.263   8.369
  135POPC   C3A 5945  32.198  37.125   7.959
  135POPC   C4A 5946  31.963  36.764   7.844
  135POPC   C1B 5947  32.588  37.006   8.688
  135POPC   C2B 5948  32.609  36.884   8.236
  135POPC   C3B 5949  32.471  36.624   7.899
  135POPC   C4B 5950  32.395  36.826   7.545
  136POPC   NC3 5951  41.866  17.463   9.522
  136POPC   PO4 5952  41.296  17.160   9.506
  136POPC   GL1 5953  41.316  17.527   9.174
  136POPC   GL2 5954  41.657  17.546   9.078
  136POPC   C1A 5955  41.360  17.791   8.748
  136POPC   D2A 5956  41.533  17.663   8.325
  136POPC   C3A 5957  41.425  17.452   7.920
  136POPC   C4A 5958  41.408  17.061   7.735
  136POPC   C1B 5959  41.864  17.589   8.720
  136POPC   C2B 5960  42.042  17.692   8.329
  136POPC   C3B 5961  41.867  17.719   7.929
  136POPC   C4B 5962  41.728  17.717   7.510
  137POPC   NC3 5963  31.630   9.588   9.581
  137POPC   PO4 5964  31.118   9.896   9.432
  137POPC   GL1 5965  31.427   9.760   9.118
  137POPC   GL2 5966  31.677   9.508   9.087
  137POPC   C1A 5967  31.583   9.840   8.697
  137POPC   D2A 5968  31.569  10.093   8.333
  137POPC   C3A 5969  31.384   9.902   7.988
  137POPC   C4A 5970  31.620   9.626   7.745
  137POPC   C1B 5971  31.326   9.408   8.781
  137POPC   C2B 5972  31.192   9.577   8.412
  137POPC   C3B 5973  31.256   9.390   8.044
  137POPC   C4B 5974  31.396   9.185   7.679
  138POPC   NC3 5975  37.416  22.593   9.832
  138POPC   PO4 5976  37.629  21.996   9.535
  138POPC   GL1 5977  37.772  22.123   9.132
  138POPC   GL2 5978  37.645  22.449   9.174
  138POPC   C1A 5979  37.744  22.098   8.681
  138POPC   D2A 5980  37.914  22.178   8.248
  138POPC   C3A 5981  37.657  22.291   7.877
  138POPC   C4A 5982  37.557  22.115   7.458
  138POPC   C1B 5983  37.679  22.596   8.754
  138POPC   C2B 5984  37.494  22.497   8.344
  138POPC   C3B 5985  37.438  22.728   7.914
  138POPC   C4B 5986  37.462  22.610   7.413
  139POPC   NC3 5987  10.641   5.395   9.632
  139POPC   PO4 5988  10.087   5.076   9.750
  139POPC   GL1 5989  10.354   5.141   9.325
  139POPC   GL2 5990  10.411   4.906   9.147
  139POPC   C1A 5991  10.476   5.384   8.920
  139POPC   D2A 5992  10.184   5.440   8.553
  139POPC   C3A 5993  10.333   5.436   8.116
  139POPC   C4A 5994  10.741   5.270   7.946
  139POPC   C1B 5995  10.108   5.017   8.838
  139POPC   C2B 5996  10.066   4.975   8.389
  139POPC   C3B 5997  10.344   4.924   8.040
  139POPC   C4B 5998  10.321   4.597   7.789
  140POPC   NC3 5999   2.080  38.855   9.362
  140POPC   PO4 6000   1.565  38.441   9.454
  140POPC   GL1 6001   1.818  38.300   9.142
  140POPC   GL2 6002   2.191  38.374   9.223
  140POPC   C1A 6003   1.770  38.443   8.716
  140POPC   D2A 6004   2.042  38.663   8.480
  140POPC   C3A 6005   1.917  38.853   8.120
  140POPC   C4A 6006   2.008  38.778   7.702
  140POPC   C1B 6007   2.214  38.205   8.819
  140POPC   C2B 6008   2.024  38.104   8.418
  140POPC   C3B 6009   2.173  38.300   8.074
  140POPC   C4B 6010   2.373  38.376   7.695
  141POPC   NC3 6011  15.859  38.171   9.600
  141POPC   PO4 6012  16.361  38.630   9.607
  141POPC   GL1 6013  16.328  38.589   9.158
  141POPC   GL2 6014  16.157  38.268   9.178
  141POPC   C1A 6015  16.165  38.527   8.725
  141POPC   D2A 6016  16.007  38.289   8.374
  141POPC   C3A 6017  16.097  38.469   7.980
  141POPC   C4A 6018  15.854  38.586   7.632
  141POPC   C1B 6019  15.768  38.213   8.876
  141POPC   C2B 6020  15.542  38.111   8.442
  141POPC   C3B 6021  15.674  38.154   7.951
  141POPC   C4B 6022  15.632  38.139   7.469
  142POPC   NC3 6023   9.096  25.442   9.500
  142POPC   PO4 6024   9.084  24.818   9.383
  142POPC   GL1 6025   8.846  25.161   9.148
  142POPC   GL2 6026   8.581  25.416   9.290
  142POPC   C1A 6027   8.884  25.237   8.727
  142POPC   D2A 6028   9.000  24.995   8.388
  142POPC   C3A 6029   8.941  25.108   7.985
  142POPC   C4A 6030   9.182  25.466   7.787
  142POPC   C1B 6031   8.478  25.520   8.857
  142POPC   C2B 6032   8.702  25.710   8.530
  142POPC   C3B 6033   8.749  25.557   8.124
  142POPC   C4B 6034   8.587  25.425   7.713
  143POPC   NC3 6035  31.227   8.688   9.416
  143POPC   PO4 6036  30.576   9.048   9.418
  143POPC   GL1 6037  30.716   9.144   9.022
  143POPC   GL2 6038  30.881   8.841   9.046
  143POPC   C1A 6039  30.879   9.209   8.603
  143POPC   D2A 6040  30.818   8.996   8.177
  143POPC   C3A 6041  30.884   9.179   7.758
  143POPC   C4A 6042  31.081   8.992   7.357
  143POPC   C1B 6043  30.848   8.709   8.643
  143POPC   C2B 6044  30.616   8.506   8.337
  143POPC   C3B 6045  30.381   8.524   7.963
  143POPC   C4B 6046  30.340   8.527   7.520
  144POPC   NC3 6047  28.740  11.203   9.375
  144POPC   PO4 6048  29.341  11.524   9.533
  144POPC   GL1 6049  29.142  11.397   9.136
  144POPC   GL2 6050  29.266  11.115   9.145
  144POPC   C1A 6051  28.951  11.225   8.731
  144POPC   D2A 6052  29.091  11.293   8.318
  144POPC   C3A 6053  28.927  11.202   7.946
  144POPC   C4A 6054  29.097  11.516   7.761
  144POPC   C1B 6055  29.343  10.913   8.755
  144POPC   C2B 6056  29.239  10.808   8.358
  144POPC   C3B 6057  29.358  10.951   7.957
  144POPC   C4B 6058  29.312  10.812   7.528
  145POPC   NC3 6059  33.845  28.443   9.698
  145POPC   PO4 6060  33.901  27.765   9.507
  145POPC   GL1 6061  33.825  28.240   9.219
  145POPC   GL2 6062  33.963  28.627   9.244
  145POPC   C1A 6063  33.727  28.537   8.811
  145POPC   D2A 6064  33.626  28.744   8.377
  145POPC   C3A 6065  33.655  28.528   7.964
  145POPC   C4A 6066  33.579  28.193   7.645
  145POPC   C1B 6067  34.218  28.729   8.868
  145POPC   C2B 6068  34.127  28.576   8.444
  145POPC   C3B 6069  34.237  28.441   8.021
  145POPC   C4B 6070  34.081  28.504   7.616
  146POPC   NC3 6071  19.910   8.424   9.618
  146POPC   PO4 6072  19.786   9.041   9.489
  146POPC   GL1 6073  19.931   8.940   9.138
  146POPC   GL2 6074  20.219   8.745   9.266
  146POPC   C1A 6075  19.822   9.110   8.750
  146POPC   D2A 6076  19.568   9.318   8.448
  146POPC   C3A 6077  19.681   9.064   8.102
  146POPC   C4A 6078  19.821   9.088   7.706
  146POPC   C1B 6079  20.252   8.758   8.804
  146POPC   C2B 6080  20.068   8.774   8.419
  146POPC   C3B 6081  20.164   8.830   7.966
  146POPC   C4B 6082  20.148   8.717   7.526
  147POPC   NC3 6083   7.650  40.401   9.444
  147POPC   PO4 6084   7.149  40.872   9.481
  147POPC   GL1 6085   7.398  40.754   9.152
  147POPC   GL2 6086   7.239  40.423   9.119
  147POPC   C1A 6087   7.620  40.978   8.808
  147POPC   D2A 6088   7.553  41.225   8.417
  147POPC   C3A 6089   7.323  40.987   8.092
  147POPC   C4A 6090   7.260  40.671   7.752
  147POPC   C1B 6091   7.571  40.427   8.798
  147POPC   C2B 6092   7.519  40.660   8.424
  147POPC   C3B 6093   7.680  40.616   8.022
  147POPC   C4B 6094   7.717  40.394   7.617
  148POPC   NC3 6095  10.761  23.463   9.553
  148POPC   PO4 6096  10.471  24.040   9.585
  148POPC   GL1 6097  10.364  23.721   9.270
  148POPC   GL2 6098  10.656  23.596   9.074
  148POPC   C1A 6099  10.215  23.579   8.847
  148POPC   D2A 6100  10.481  23.620   8.475
  148POPC   C3A 6101  10.532  23.722   8.039
  148POPC   C4A 6102  10.254  23.917   7.707
  148POPC   C1B 6103  10.934  23.505   8.729
  148POPC   C2B 6104  10.898  23.386   8.290
  148POPC   C3B 6105  10.890  23.390   7.840
  148POPC   C4B 6106  10.626  23.603   7.548
  149POPC   NC3 6107  34.187   8.003   9.226
  149POPC   PO4 6108  34.757   8.152   9.483
  149POPC   GL1 6109  34.637   8.235   9.102
  149POPC   GL2 6110  34.651   7.882   9.053
  149POPC   C1A 6111  34.471   8.478   8.754
  149POPC   D2A 6112  34.282   8.566   8.367
  149POPC   C3A 6113  34.538   8.414   8.037
  149POPC   C4A 6114  34.507   8.513   7.621
  149POPC   C1B 6115  34.518   7.963   8.666
  149POPC   C2B 6116  34.695   7.905   8.318
  149POPC   C3B 6117  34.576   7.928   7.911
  149POPC   C4B 6118  34.297   7.878   7.651
  150POPC   NC3 6119  20.651  17.668   9.464
  150POPC   PO4 6120  20.562  17.052   9.205
  150POPC   GL1 6121  20.475  17.468   9.020
  150POPC   GL2 6122  20.316  17.815   9.101
  150POPC   C1A 6123  20.753  17.525   8.685
  150POPC   D2A 6124  20.944  17.387   8.317
  150POPC   C3A 6125  20.613  17.285   8.107
  150POPC   C4A 6126  20.609  17.089   7.766
  150POPC   C1B 6127  20.411  17.909   8.718
  150POPC   C2B 6128  20.339  17.661   8.386
  150POPC   C3B 6129  20.530  17.807   8.053
  150POPC   C4B 6130  20.802  17.658   7.784
  151POPC   NC3 6131  26.792  11.378   9.448
  151POPC   PO4 6132  26.413  10.840   9.433
  151POPC   GL1 6133  26.677  11.042   9.090
  151POPC   GL2 6134  27.048  11.030   9.155
  151POPC   C1A 6135  26.889  11.377   8.809
  151POPC   D2A 6136  27.258  11.426   8.535
  151POPC   C3A 6137  27.116  11.482   8.101
  151POPC   C4A 6138  26.776  11.465   7.784
  151POPC   C1B 6139  27.133  10.939   8.746
  151POPC   C2B 6140  26.881  11.067   8.392
  151POPC   C3B 6141  26.770  10.959   7.982
  151POPC   C4B 6142  27.055  10.777   7.718
  152POPC   NC3 6143  20.879  14.097   9.457
  152POPC   PO4 6144  20.361  14.673   9.438
  152POPC   GL1 6145  20.514  14.668   9.036
  152POPC   GL2 6146  20.756  14.441   9.102
  152POPC   C1A 6147  20.609  14.525   8.594
  152POPC   D2A 6148  20.447  14.144   8.366
  152POPC   C3A 6149  20.350  14.185   7.948
  152POPC   C4A 6150  20.446  14.481   7.622
  152POPC   C1B 6151  20.731  14.089   8.826
  152POPC   C2B 6152  20.962  14.116   8.455
  152POPC   C3B 6153  20.859  14.297   8.043
  152POPC   C4B 6154  20.764  14.071   7.653
  153POPC   NC3 6155   1.743  27.698   9.565
  153POPC   PO4 6156   2.281  27.298   9.442
  153POPC   GL1 6157   2.115  27.708   9.200
  153POPC   GL2 6158   1.808  27.597   9.079
  153POPC   C1A 6159   2.005  27.886   8.739
  153POPC   D2A 6160   2.083  27.654   8.382
  153POPC   C3A 6161   2.162  27.842   8.046
  153POPC   C4A 6162   2.224  27.714   7.671
  153POPC   C1B 6163   1.852  27.347   8.709
  153POPC   C2B 6164   1.651  27.399   8.283
  153POPC   C3B 6165   1.714  27.582   7.846
  153POPC   C4B 6166   1.620  27.421   7.406
  154POPC   NC3 6167  32.713  42.338   9.420
  154POPC   PO4 6168  32.211  42.751   9.564
  154POPC   GL1 6169  32.198  42.437   9.221
  154POPC   GL2 6170  31.960  42.701   9.129
  154POPC   C1A 6171  32.125  42.245   8.802
  154POPC   D2A 6172  31.974  42.204   8.374
  154POPC   C3A 6173  32.300  42.400   8.145
  154POPC   C4A 6174  32.318  42.386   7.699
  154POPC   C1B 6175  31.780  42.645   8.779
  154POPC   C2B 6176  31.942  42.735   8.401
  154POPC   C3B 6177  31.842  42.573   8.007
  154POPC   C4B 6178  31.930  42.699   7.623
  155POPC   NC3 6179  21.558  12.483   9.522
  155POPC   PO4 6180  21.344  11.752   9.509
  155POPC   GL1 6181  21.521  12.069   9.218
  155POPC   GL2 6182  21.274  12.223   9.066
  155POPC   C1A 6183  21.707  12.353   8.840
  155POPC   D2A 6184  21.432  12.344   8.428
  155POPC   C3A 6185  21.594  12.231   8.014
  155POPC   C4A 6186  21.863  12.295   7.682
  155POPC   C1B 6187  21.496  11.918   8.740
  155POPC   C2B 6188  21.712  11.875   8.366
  155POPC   C3B 6189  21.560  11.687   8.009
  155POPC   C4B 6190  21.209  11.652   7.750
  156POPC   NC3 6191  14.814  38.387   9.532
  156POPC   PO4 6192  15.421  38.081   9.533
  156POPC   GL1 6193  15.300  38.344   9.161
  156POPC   GL2 6194  15.069  38.618   9.153
  156POPC   C1A 6195  15.355  38.489   8.727
  156POPC   D2A 6196  15.180  38.453   8.306
  156POPC   C3A 6197  15.432  38.669   7.969
  156POPC   C4A 6198  15.504  39.030   7.678
  156POPC   C1B 6199  14.981  38.822   8.761
  156POPC   C2B 6200  14.827  38.820   8.373
  156POPC   C3B 6201  14.896  38.685   7.944
  156POPC   C4B 6202  14.949  38.773   7.526
  157POPC   NC3 6203  14.586   1.070   9.429
  157POPC   PO4 6204  14.379   1.685   9.662
  157POPC   GL1 6205  14.430   1.468   9.180
  157POPC   GL2 6206  14.730   1.423   9.052
  157POPC   C1A 6207  14.374   1.294   8.720
  157POPC   D2A 6208  14.354   1.266   8.244
  157POPC   C3A 6209  14.413   0.848   7.997
  157POPC   C4A 6210  14.322   0.824   7.524
  157POPC   C1B 6211  14.893   1.110   8.777
  157POPC   C2B 6212  14.807   0.907   8.377
  157POPC   C3B 6213  14.796   1.178   8.035
  157POPC   C4B 6214  14.522   1.303   7.683
  158POPC   NC3 6215  36.544  22.846   9.413
  158POPC   PO4 6216  37.079  23.211   9.385
  158POPC   GL1 6217  36.855  23.013   9.039
  158POPC   GL2 6218  36.557  23.197   9.035
  158POPC   C1A 6219  37.004  22.809   8.669
  158POPC   D2A 6220  37.225  22.943   8.322
  158POPC   C3A 6221  37.009  23.079   7.950
  158POPC   C4A 6222  37.025  22.751   7.651
  158POPC   C1B 6223  36.539  23.065   8.612
  158POPC   C2B 6224  36.685  22.823   8.254
  158POPC   C3B 6225  36.554  22.882   7.815
  158POPC   C4B 6226  36.606  22.713   7.392
  159POPC   NC3 6227  19.785  19.602   9.649
  159POPC   PO4 6228  19.882  20.174   9.414
  159POPC   GL1 6229  19.769  19.777   9.130
  159POPC   GL2 6230  20.090  19.651   8.896
  159POPC   C1A 6231  19.621  19.716   8.716
  159POPC   D2A 6232  19.900  19.755   8.361
  159POPC   C3A 6233  19.738  19.756   7.926
  159POPC   C4A 6234  19.650  19.437   7.606
  159POPC   C1B 6235  19.985  20.098   8.762
  159POPC   C2B 6236  20.144  20.340   8.400
  159POPC   C3B 6237  20.235  20.357   7.963
  159POPC   C4B 6238  19.898  20.210   7.742
  160POPC   NC3 6239  39.265  32.301   9.647
  160POPC   PO4 6240  39.018  31.735   9.395
  160POPC   GL1 6241  39.137  32.005   9.089
  160POPC   GL2 6242  39.352  32.281   9.144
  160POPC   C1A 6243  39.144  32.139   8.682
  160POPC   D2A 6244  39.411  32.246   8.375
  160POPC   C3A 6245  39.367  32.026   8.001
  160POPC   C4A 6246  39.044  32.001   7.720
  160POPC   C1B 6247  39.498  32.530   8.800
  160POPC   C2B 6248  39.579  32.731   8.401
  160POPC   C3B 6249  39.496  32.576   7.991
  160POPC   C4B 6250  39.708  32.313   7.724
  161POPC   NC3 6251  41.134   3.566   9.680
  161POPC   PO4 6252  40.612   3.323   9.573
  161POPC   GL1 6253  40.782   3.582   9.264
  161POPC   GL2 6254  40.456   3.680   9.112
  161POPC   C1A 6255  40.942   3.581   8.854
  161POPC   D2A 6256  40.856   3.349   8.472
  161POPC   C3A 6257  40.749   3.547   8.074
  161POPC   C4A 6258  41.045   3.591   7.731
  161POPC   C1B 6259  40.497   3.274   8.850
  161POPC   C2B 6260  40.438   3.069   8.421
  161POPC   C3B 6261  40.365   3.186   8.006
  161POPC   C4B 6262  40.633   3.260   7.647
  162POPC   NC3 6263  25.589  24.996   9.563
  162POPC   PO4 6264  25.307  25.568   9.496
  162POPC   GL1 6265  25.294  25.282   9.172
  162POPC   GL2 6266  25.336  25.597   8.978
  162POPC   C1A 6267  25.441  24.971   8.846
  162POPC   D2A 6268  25.658  25.015   8.468
  162POPC   C3A 6269  25.507  25.034   8.045
  162POPC   C4A 6270  25.537  25.201   7.629
  162POPC   C1B 6271  25.109  25.324   8.693
  162POPC   C2B 6272  25.027  25.155   8.284
  162POPC   C3B 6273  25.047  25.321   7.863
  162POPC   C4B 6274  25.259  25.606   7.535
  163POPC   NC3 6275   6.955  26.001   9.430
  163POPC   PO4 6276   7.667  25.773   9.400
  163POPC   GL1 6277   7.372  25.966   9.073
  163POPC   GL2 6278   7.091  26.250   9.004
  163POPC   C1A 6279   7.244  25.905   8.637
  163POPC   D2A 6280   7.178  25.573   8.328
  163POPC   C3A 6281   7.491  25.661   8.004
  163POPC   C4A 6282   7.485  26.016   7.725
  163POPC   C1B 6283   7.429  26.410   8.760
  163POPC   C2B 6284   7.504  26.299   8.344
  163POPC   C3B 6285   7.176  26.269   8.055
  163POPC   C4B 6286   7.126  26.404   7.653
  164POPC   NC3 6287  38.701  11.202   9.552
  164POPC   PO4 6288  39.337  11.303   9.518
  164POPC   GL1 6289  39.323  11.381   9.112
  164POPC   GL2 6290  38.995  11.202   9.107
  164POPC   C1A 6291  39.569  11.358   8.738
  164POPC   D2A 6292  39.574  11.198   8.344
  164POPC   C3A 6293  39.186  11.193   8.112
  164POPC   C4A 6294  39.353  11.279   7.696
  164POPC   C1B 6295  39.096  11.169   8.676
  164POPC   C2B 6296  38.810  11.351   8.436
  164POPC   C3B 6297  38.811  11.556   8.077
  164POPC   C4B 6298  38.868  11.397   7.703
  165POPC   NC3 6299   0.863  24.723   9.554
  165POPC   PO4 6300   0.223  24.560   9.610
  165POPC   GL1 6301   0.227  24.665   9.192
  165POPC   GL2 6302   0.536  24.514   9.179
  165POPC   C1A 6303   0.194  24.499   8.759
  165POPC   D2A 6304   0.152  24.253   8.388
  165POPC   C3A 6305   0.211  24.438   8.009
  165POPC   C4A 6306   0.606  24.474   7.799
  165POPC   C1B 6307   0.675  24.361   8.793
  165POPC   C2B 6308   0.703  24.317   8.369
  165POPC   C3B 6309   1.002  24.283   8.064
  165POPC   C4B 6310   1.079  24.250   7.647
  166POPC   NC3 6311  32.439  41.662   9.476
  166POPC   PO4 6312  31.864  41.957   9.490
  166POPC   GL1 6313  32.069  41.830   9.107
  166POPC   GL2 6314  32.457  41.968   9.086
  166POPC   C1A 6315  31.897  41.510   8.778
  166POPC   D2A 6316  31.765  41.514   8.326
  166POPC   C3A 6317  32.027  41.231   8.095
  166POPC   C4A 6318  32.416  41.156   7.860
  166POPC   C1B 6319  32.406  41.593   8.817
  166POPC   C2B 6320  32.231  41.742   8.438
  166POPC   C3B 6321  32.366  41.904   8.051
  166POPC   C4B 6322  32.271  41.652   7.720
  167POPC   NC3 6323   8.411  40.388   9.571
  167POPC   PO4 6324   8.709  39.792   9.519
  167POPC   GL1 6325   8.948  39.882   9.134
  167POPC   GL2 6326   9.232  39.636   9.051
  167POPC   C1A 6327   9.208  40.089   8.832
  167POPC   D2A 6328   9.279  40.068   8.391
  167POPC   C3A 6329   8.919  40.002   8.158
  167POPC   C4A 6330   8.853  40.135   7.749
  167POPC   C1B 6331   9.079  39.638   8.601
  167POPC   C2B 6332   9.203  39.577   8.150
  167POPC   C3B 6333   9.094  39.692   7.698
  167POPC   C4B 6334   8.956  39.473   7.277
  168POPC   NC3 6335  37.879  31.286   9.279
  168POPC   PO4 6336  37.264  31.577   9.501
  168POPC   GL1 6337  37.440  31.499   9.099
  168POPC   GL2 6338  37.574  31.206   8.882
  168POPC   C1A 6339  37.615  31.696   8.750
  168POPC   D2A 6340  37.807  31.577   8.356
  168POPC   C3A 6341  37.602  31.665   7.943
  168POPC   C4A 6342  37.506  31.641   7.487
  168POPC   C1B 6343  38.017  31.195   8.666
  168POPC   C2B 6344  38.160  31.141   8.250
  168POPC   C3B 6345  38.115  31.088   7.805
  168POPC   C4B 6346  38.054  31.023   7.364
  169POPC   NC3 6347  16.769  14.092   9.510
  169POPC   PO4 6348  16.498  13.510   9.722
  169POPC   GL1 6349  16.676  13.611   9.236
  169POPC   GL2 6350  16.850  13.926   9.060
  169POPC   C1A 6351  16.655  13.613   8.724
  169POPC   D2A 6352  16.796  13.407   8.311
  169POPC   C3A 6353  16.714  13.618   7.931
  169POPC   C4A 6354  16.397  13.941   7.863
  169POPC   C1B 6355  17.122  13.907   8.732
  169POPC   C2B 6356  16.981  13.873   8.363
  169POPC   C3B 6357  17.202  13.827   8.066
  169POPC   C4B 6358  17.196  13.680   7.697
  170POPC   NC3 6359  27.033  29.368   9.580
  170POPC   PO4 6360  26.358  29.187   9.633
  170POPC   GL1 6361  26.633  29.070   9.323
  170POPC   GL2 6362  26.680  29.392   9.208
  170POPC   C1A 6363  26.835  28.991   8.932
  170POPC   D2A 6364  26.838  28.900   8.491
  170POPC   C3A 6365  26.886  29.128   8.128
  170POPC   C4A 6366  26.960  29.200   7.687
  170POPC   C1B 6367  26.738  29.499   8.806
  170POPC   C2B 6368  26.843  29.561   8.401
  170POPC   C3B 6369  26.896  29.620   7.990
  170POPC   C4B 6370  26.634  29.586   7.616
  171POPC   NC3 6371  14.552   3.978   9.406
  171POPC   PO4 6372  14.640   3.282   9.440
  171POPC   GL1 6373  14.454   3.481   9.137
  171POPC   GL2 6374  14.788   3.638   9.098
  171POPC   C1A 6375  14.192   3.399   8.772
  171POPC   D2A 6376  14.152   3.544   8.323
  171POPC   C3A 6377  14.202   3.277   7.962
  171POPC   C4A 6378  13.990   3.000   7.669
  171POPC   C1B 6379  14.608   3.717   8.705
  171POPC   C2B 6380  14.340   3.981   8.496
  171POPC   C3B 6381  14.241   4.011   8.082
  171POPC   C4B 6382  14.275   3.751   7.767
  172POPC   NC3 6383  15.313  35.851   9.410
  172POPC   PO4 6384  15.092  35.188   9.534
  172POPC   GL1 6385  15.284  35.357   9.217
  172POPC   GL2 6386  15.009  35.519   9.096
  172POPC   C1A 6387  15.401  35.429   8.792
  172POPC   D2A 6388  15.383  35.617   8.430
  172POPC   C3A 6389  15.466  35.349   8.093
  172POPC   C4A 6390  15.274  35.408   7.697
  172POPC   C1B 6391  14.879  35.464   8.656
  172POPC   C2B 6392  14.953  35.420   8.199
  172POPC   C3B 6393  14.774  35.358   7.807
  172POPC   C4B 6394  14.818  35.426   7.373
  173POPC   NC3 6395  28.198   5.136   9.503
  173POPC   PO4 6396  28.550   4.579   9.672
  173POPC   GL1 6397  28.577   4.888   9.263
  173POPC   GL2 6398  28.550   5.267   9.160
  173POPC   C1A 6399  28.374   4.918   8.843
  173POPC   D2A 6400  28.421   5.116   8.444
  173POPC   C3A 6401  28.250   4.971   8.058
  173POPC   C4A 6402  28.489   4.671   7.814
  173POPC   C1B 6403  28.341   5.469   8.823
  173POPC   C2B 6404  28.512   5.619   8.448
  173POPC   C3B 6405  28.432   5.481   8.023
  173POPC   C4B 6406  28.284   5.539   7.569
  174POPC   NC3 6407  27.274  39.735   9.600
  174POPC   PO4 6408  27.619  40.164   9.276
  174POPC   GL1 6409  27.527  40.027   8.983
  174POPC   GL2 6410  27.491  39.695   9.054
  174POPC   C1A 6411  27.708  40.106   8.618
  174POPC   D2A 6412  28.074  40.207   8.412
  174POPC   C3A 6413  27.885  40.073   8.056
  174POPC   C4A 6414  27.626  40.358   7.858
  174POPC   C1B 6415  27.285  39.796   8.631
  174POPC   C2B 6416  27.366  40.055   8.241
  174POPC   C3B 6417  27.431  39.859   7.849
  174POPC   C4B 6418  27.376  39.735   7.409
  175POPC   NC3 6419  43.946  30.468   9.578
  175POPC   PO4 6420  43.939  29.794   9.477
  175POPC   GL1 6421  43.767  29.942   9.119
  175POPC   GL2 6422  43.580  29.626   9.078
  175POPC   C1A 6423  43.775  30.178   8.721
  175POPC   D2A 6424  44.020  30.019   8.338
  175POPC   C3A 6425  43.891  29.921   7.896
  175POPC   C4A 6426  43.842  30.192   7.548
  175POPC   C1B 6427  43.642  29.704   8.640
  175POPC   C2B 6428  43.512  29.764   8.216
  175POPC   C3B 6429  43.547  29.532   7.806
  175POPC   C4B 6430  43.632  29.756   7.408
  176POPC   NC3 6431  10.362  36.672   9.460
  176POPC   PO4 6432  11.004  36.930   9.666
  176POPC   GL1 6433  10.807  36.899   9.213
  176POPC   GL2 6434  10.493  36.823   9.006
  176POPC   C1A 6435  10.803  37.157   8.793
  176POPC   D2A 6436  10.622  36.928   8.455
  176POPC   C3A 6437  10.470  37.156   8.110
  176POPC   C4A 6438  10.609  37.009   7.733
  176POPC   C1B 6439  10.058  36.785   8.819
  176POPC   C2B 6440  10.053  36.783   8.374
  176POPC   C3B 6441  10.357  36.632   8.062
  176POPC   C4B 6442  10.299  36.620   7.613
  177POPC   NC3 6443   8.721  36.992   9.528
  177POPC   PO4 6444   9.353  37.189   9.463
  177POPC   GL1 6445   9.071  36.921   9.187
  177POPC   GL2 6446   8.803  36.619   9.220
  177POPC   C1A 6447   8.894  36.986   8.821
  177POPC   D2A 6448   9.185  36.996   8.487
  177POPC   C3A 6449   9.149  37.088   8.055
  177POPC   C4A 6450   9.177  37.351   7.651
  177POPC   C1B 6451   8.641  36.542   8.850
  177POPC   C2B 6452   8.796  36.648   8.447
  177POPC   C3B 6453   8.677  36.777   8.065
  177POPC   C4B 6454   8.922  36.811   7.706
  178POPC   NC3 6455   2.644  21.917   9.451
  178POPC   PO4 6456   2.587  21.267   9.532
  178POPC   GL1 6457   2.786  21.430   9.174
  178POPC   GL2 6458   3.051  21.591   9.320
  178POPC   C1A 6459   2.928  21.181   8.810
  178POPC   D2A 6460   2.795  21.057   8.409
  178POPC   C3A 6461   2.739  21.360   8.093
  178POPC   C4A 6462   2.881  21.373   7.672
  178POPC   C1B 6463   3.146  21.653   8.874
  178POPC   C2B 6464   3.082  21.503   8.447
  178POPC   C3B 6465   3.244  21.436   8.037
  178POPC   C4B 6466   3.329  21.665   7.702
  179POPC   NC3 6467   9.523   6.473   9.454
  179POPC   PO4 6468  10.132   6.414   9.239
  179POPC   GL1 6469   9.861   6.757   9.113
  179POPC   GL2 6470  10.110   7.011   9.034
  179POPC   C1A 6471   9.569   6.814   8.775
  179POPC   D2A 6472   9.571   6.554   8.384
  179POPC   C3A 6473   9.499   6.710   7.948
  179POPC   C4A 6474   9.615   6.514   7.561
  179POPC   C1B 6475  10.128   6.763   8.658
  179POPC   C2B 6476  10.079   6.401   8.407
  179POPC   C3B 6477   9.987   6.591   8.032
  179POPC   C4B 6478   9.932   6.943   7.805
  180POPC   NC3 6479   7.108  33.376   9.487
  180POPC   PO4 6480   7.134  34.082   9.429
  180POPC   GL1 6481   7.426  33.779   9.206
  180POPC   GL2 6482   7.185  33.601   9.031
  180POPC   C1A 6483   7.608  33.656   8.775
  180POPC   D2A 6484   7.433  33.742   8.372
  180POPC   C3A 6485   7.640  34.108   8.199
  180POPC   C4A 6486   7.734  34.129   7.759
  180POPC   C1B 6487   7.209  34.012   8.774
  180POPC   C2B 6488   7.150  34.245   8.371
  180POPC   C3B 6489   7.201  34.114   7.932
  180POPC   C4B 6490   7.413  33.729   7.831
  181POPC   NC3 6491   2.777  34.353   9.480
  181POPC   PO4 6492   2.867  33.744   9.498
  181POPC   GL1 6493   2.995  33.970   9.117
  181POPC   GL2 6494   3.084  34.308   9.056
  181POPC   C1A 6495   2.774  34.113   8.699
  181POPC   D2A 6496   2.663  34.141   8.254
  181POPC   C3A 6497   2.780  33.785   7.957
  181POPC   C4A 6498   3.053  33.417   7.793
  181POPC   C1B 6499   3.278  34.069   8.709
  181POPC   C2B 6500   3.143  33.957   8.291
  181POPC   C3B 6501   3.281  33.853   7.880
  181POPC   C4B 6502   3.390  34.129   7.568
  182POPC   NC3 6503  18.749  44.148   9.420
  182POPC   PO4 6504  19.375  44.020   9.689
  182POPC   GL1 6505  19.236  44.149   9.260
  182POPC   GL2 6506  19.095  43.853   9.118
  182POPC   C1A 6507  19.033  44.241   8.827
  182POPC   D2A 6508  19.137  44.100   8.452
  182POPC   C3A 6509  18.864  43.898   8.195
  182POPC   C4A 6510  18.852  44.152   7.835
  182POPC   C1B 6511  18.900  43.723   8.719
  182POPC   C2B 6512  19.051  43.441   8.381
  182POPC   C3B 6513  19.282  43.342   7.990
  182POPC   C4B 6514  19.451  43.396   7.582
  183POPC   NC3 6515  13.912  23.523   9.535
  183POPC   PO4 6516  13.405  23.104   9.485
  183POPC   GL1 6517  13.352  23.136   9.061
  183POPC   GL2 6518  13.276  22.774   9.059
  183POPC   C1A 6519  13.617  23.029   8.678
  183POPC   D2A 6520  13.752  22.764   8.334
  183POPC   C3A 6521  13.744  22.943   7.916
  183POPC   C4A 6522  14.030  23.300   7.800
  183POPC   C1B 6523  13.150  22.882   8.647
  183POPC   C2B 6524  13.287  22.920   8.208
  183POPC   C3B 6525  13.217  22.996   7.772
  183POPC   C4B 6526  13.366  22.901   7.365
  184POPC   NC3 6527  22.522  43.574   9.570
  184POPC   PO4 6528  21.944  43.802   9.383
  184POPC   GL1 6529  22.193  43.997   9.066
  184POPC   GL2 6530  22.257  43.663   8.970
  184POPC   C1A 6531  22.211  44.010   8.576
  184POPC   D2A 6532  22.543  44.059   8.216
  184POPC   C3A 6533  22.466  44.264   7.845
  184POPC   C4A 6534  22.160  43.951   7.768
  184POPC   C1B 6535  22.165  43.485   8.586
  184POPC   C2B 6536  22.131  43.651   8.188
  184POPC   C3B 6537  22.074  43.439   7.826
  184POPC   C4B 6538  22.304  43.228   7.526
  185POPC   NC3 6539   5.050  33.595   9.399
  185POPC   PO4 6540   5.518  34.131   9.439
  185POPC   GL1 6541   5.257  33.967   9.084
  185POPC   GL2 6542   4.865  33.960   9.061
  185POPC   C1A 6543   5.169  33.723   8.717
  185POPC   D2A 6544   4.916  33.699   8.368
  185POPC   C3A 6545   5.123  33.596   7.984
  185POPC   C4A 6546   5.153  33.646   7.565
  185POPC   C1B 6547   4.905  34.169   8.687
  185POPC   C2B 6548   4.925  34.234   8.251
  185POPC   C3B 6549   4.764  33.958   7.948
  185POPC   C4B 6550   4.632  33.756   7.590
  186POPC   NC3 6551  22.145   5.725   9.726
  186POPC   PO4 6552  22.163   5.022   9.548
  186POPC   GL1 6553  22.176   5.144   9.082
  186POPC   GL2 6554  21.886   5.262   9.104
  186POPC   C1A 6555  22.129   5.014   8.636
  186POPC   D2A 6556  22.022   5.187   8.218
  186POPC   C3A 6557  22.167   4.897   7.895
  186POPC   C4A 6558  22.119   4.775   7.466
  186POPC   C1B 6559  22.008   5.490   8.708
  186POPC   C2B 6560  22.133   5.686   8.337
  186POPC   C3B 6561  21.907   5.632   7.963
  186POPC   C4B 6562  21.961   5.289   7.656
  187POPC   NC3 6563  30.702   4.766   9.356
  187POPC   PO4 6564  30.349   5.290   9.338
  187POPC   GL1 6565  30.647   5.308   9.035
  187POPC   GL2 6566  31.009   5.224   9.097
  187POPC   C1A 6567  30.656   4.990   8.701
  187POPC   D2A 6568  30.446   4.784   8.340
  187POPC   C3A 6569  30.700   4.904   7.986
  187POPC   C4A 6570  30.726   4.962   7.515
  187POPC   C1B 6571  30.981   5.427   8.670
  187POPC   C2B 6572  30.731   5.376   8.270
  187POPC   C3B 6573  30.714   5.395   7.810
  187POPC   C4B 6574  30.577   5.453   7.350
  188POPC   NC3 6575  22.572  33.847   9.412
  188POPC   PO4 6576  23.044  34.199   9.722
  188POPC   GL1 6577  23.075  33.956   9.276
  188POPC   GL2 6578  22.968  33.624   9.135
  188POPC   C1A 6579  23.075  33.998   8.798
  188POPC   D2A 6580  23.279  33.817   8.419
  188POPC   C3A 6581  23.005  33.767   8.056
  188POPC   C4A 6582  22.605  33.890   7.868
  188POPC   C1B 6583  22.813  33.563   8.690
  188POPC   C2B 6584  22.596  33.567   8.299
  188POPC   C3B 6585  22.681  33.360   7.917
  188POPC   C4B 6586  23.006  33.423   7.648
  189POPC   NC3 6587  18.604  44.892   9.497
  189POPC   PO4 6588  18.247  44.267   9.553
  189POPC   GL1 6589  18.433  44.487   9.203
  189POPC   GL2 6590  18.270  44.795   9.134
  189POPC   C1A 6591  18.640  44.579   8.799
  189POPC   D2A 6592  18.685  44.356   8.405
  189POPC   C3A 6593  18.572  44.573   8.016
  189POPC   C4A 6594  18.211  44.461   7.793
  189POPC   C1B 6595  18.103  44.545   8.811
  189POPC   C2B 6596  18.262  44.659   8.449
  189POPC   C3B 6597  18.205  44.950   8.181
  189POPC   C4B 6598  18.261  44.959   7.761
  190POPC   NC3 6599  29.479  22.542   9.562
  190POPC   PO4 6600  29.173  23.181   9.450
  190POPC   GL1 6601  29.208  22.793   9.186
  190POPC   GL2 6602  28.905  22.617   9.029
  190POPC   C1A 6603  29.306  22.853   8.786
  190POPC   D2A 6604  29.229  23.204   8.502
  190POPC   C3A 6605  29.226  23.120   8.049
  190POPC   C4A 6606  29.088  23.285   7.636
  190POPC   C1B 6607  28.789  22.884   8.672
  190POPC   C2B 6608  28.764  22.946   8.213
  190POPC   C3B 6609  28.883  22.805   7.821
  190POPC   C4B 6610  29.311  22.836   7.618
  191POPC   NC3 6611  24.195   4.605   9.436
  191POPC   PO4 6612  24.455   4.010   9.592
  191POPC   GL1 6613  24.582   4.298   9.245
  191POPC   GL2 6614  24.712   4.643   9.415
  191POPC   C1A 6615  24.425   4.307   8.798
  191POPC   D2A 6616  24.548   4.359   8.370
  191POPC   C3A 6617  24.328   4.386   8.004
  191POPC   C4A 6618  24.150   4.019   7.796
  191POPC   C1B 6619  24.693   4.736   8.975
  191POPC   C2B 6620  24.792   4.748   8.547
  191POPC   C3B 6621  24.686   4.762   8.088
  191POPC   C4B 6622  24.729   4.699   7.618
  192POPC   NC3 6623   5.021  21.551   9.658
  192POPC   PO4 6624   4.812  21.034   9.208
  192POPC   GL1 6625   5.198  21.291   9.157
  192POPC   GL2 6626   5.235  21.640   9.207
  192POPC   C1A 6627   5.282  21.252   8.747
  192POPC   D2A 6628   5.014  21.296   8.408
  192POPC   C3A 6629   5.220  21.289   8.011
  192POPC   C4A 6630   5.104  21.059   7.678
  192POPC   C1B 6631   5.242  21.766   8.780
  192POPC   C2B 6632   5.367  21.654   8.343
  192POPC   C3B 6633   5.304  21.768   7.913
  192POPC   C4B 6634   5.485  21.492   7.593
  193POPC   NC3 6635  30.179  22.498   9.273
  193POPC   PO4 6636  29.676  22.053   9.516
  193POPC   GL1 6637  29.744  22.238   9.140
  193POPC   GL2 6638  29.654  22.559   9.098
  193POPC   C1A 6639  29.798  22.092   8.746
  193POPC   D2A 6640  29.675  21.858   8.419
  193POPC   C3A 6641  29.786  22.003   7.993
  193POPC   C4A 6642  30.044  22.309   7.803
  193POPC   C1B 6643  29.776  22.599   8.708
  193POPC   C2B 6644  29.661  22.415   8.316
  193POPC   C3B 6645  29.666  22.622   7.917
  193POPC   C4B 6646  29.568  22.302   7.602
  194POPC   NC3 6647  14.123   2.108   9.484
  194POPC   PO4 6648  13.436   2.013   9.567
  194POPC   GL1 6649  13.593   2.024   9.141
  194POPC   GL2 6650  13.880   2.190   9.046
  194POPC   C1A 6651  13.467   2.074   8.703
  194POPC   D2A 6652  13.557   1.799   8.320
  194POPC   C3A 6653  13.705   1.980   7.928
  194POPC   C4A 6654  13.455   2.228   7.666
  194POPC   C1B 6655  13.932   1.902   8.656
  194POPC   C2B 6656  14.089   1.884   8.260
  194POPC   C3B 6657  14.181   2.160   7.895
  194POPC   C4B 6658  14.022   2.133   7.481
  195POPC   NC3 6659  30.314  36.116   9.405
  195POPC   PO4 6660  29.708  35.913   9.361
  195POPC   GL1 6661  29.853  36.278   9.059
  195POPC   GL2 6662  30.199  36.396   8.999
  195POPC   C1A 6663  29.868  36.288   8.588
  195POPC   D2A 6664  30.081  35.983   8.265
  195POPC   C3A 6665  29.843  35.946   7.873
  195POPC   C4A 6666  29.546  36.254   7.765
  195POPC   C1B 6667  30.388  36.223   8.637
  195POPC   C2B 6668  30.246  36.460   8.310
  195POPC   C3B 6669  29.948  36.425   8.033
  195POPC   C4B 6670  30.179  36.279   7.676
  196POPC   NC3 6671  43.981   0.205   9.520
  196POPC   PO4 6672  43.635   0.849   9.539
  196POPC   GL1 6673  43.810   0.601   9.224
  196POPC   GL2 6674  43.515   0.547   9.018
  196POPC   C1A 6675  44.020   0.398   8.872
  196POPC   D2A 6676  43.970   0.512   8.454
  196POPC   C3A 6677  44.030   0.239   8.119
  196POPC   C4A 6678  44.024   0.434   7.754
  196POPC   C1B 6679  43.538   0.302   8.673
  196POPC   C2B 6680  43.548   0.136   8.275
  196POPC   C3B 6681  43.571   0.202   7.840
  196POPC   C4B 6682  43.611  44.985   7.403
  197POPC   NC3 6683   9.696  25.704   9.682
  197POPC   PO4 6684   9.897  26.258   9.467
  197POPC   GL1 6685   9.804  25.844   9.198
  197POPC   GL2 6686   9.441  25.702   9.128
  197POPC   C1A 6687   9.722  25.824   8.744
  197POPC   D2A 6688   9.580  26.057   8.392
  197POPC   C3A 6689   9.959  26.108   8.131
  197POPC   C4A 6690  10.127  26.174   7.730
  197POPC   C1B 6691   9.324  25.483   8.727
  197POPC   C2B 6692   9.360  25.521   8.286
  197POPC   C3B 6693   9.637  25.725   8.020
  197POPC   C4B 6694   9.713  25.854   7.599
  198POPC   NC3 6695   6.815  41.172   9.375
  198POPC   PO4 6696   6.624  41.890   9.556
  198POPC   GL1 6697   6.698  41.632   9.214
  198POPC   GL2 6698   6.399  41.410   9.174
  198POPC   C1A 6699   6.709  41.562   8.769
  198POPC   D2A 6700   6.612  41.682   8.352
  198POPC   C3A 6701   6.831  41.598   7.995
  198POPC   C4A 6702   6.944  41.200   7.837
  198POPC   C1B 6703   6.416  41.129   8.767
  198POPC   C2B 6704   6.511  41.167   8.301
  198POPC   C3B 6705   6.446  41.065   7.857
  198POPC   C4B 6706   6.227  41.213   7.489
  199POPC   NC3 6707  37.928  30.437   9.607
  199POPC   PO4 6708  37.267  30.594   9.642
  199POPC   GL1 6709  37.596  30.592   9.261
  199POPC   GL2 6710  37.764  30.289   9.138
  199POPC   C1A 6711  37.762  30.739   8.842
  199POPC   D2A 6712  37.651  30.925   8.433
  199POPC   C3A 6713  37.640  30.639   8.080
  199POPC   C4A 6714  37.706  30.773   7.668
  199POPC   C1B 6715  38.066  30.340   8.788
  199POPC   C2B 6716  38.086  30.622   8.434
  199POPC   C3B 6717  38.161  30.535   8.021
  199POPC   C4B 6718  38.154  30.559   7.586
  200POPC   NC3 6719  36.025  12.054   9.506
  200POPC   PO4 6720  36.521  12.572   9.467
  200POPC   GL1 6721  36.339  12.217   9.163
  200POPC   GL2 6722  35.960  12.284   9.077
  200POPC   C1A 6723  36.316  12.034   8.748
  200POPC   D2A 6724  36.150  11.792   8.409
  200POPC   C3A 6725  36.204  11.992   8.042
  200POPC   C4A 6726  36.337  12.177   7.648
  200POPC   C1B 6727  35.845  11.909   8.847
  200POPC   C2B 6728  35.652  11.878   8.456
  200POPC   C3B 6729  35.763  11.657   8.074
  200POPC   C4B 6730  35.918  11.808   7.688
  201POPC   NC3 6731   0.873  29.785   9.650
  201POPC   PO4 6732   1.537  29.842   9.470
  201POPC   GL1 6733   1.191  29.717   9.217
  201POPC   GL2 6734   0.946  29.997   9.193
  201POPC   C1A 6735   1.311  29.814   8.786
  201POPC   D2A 6736   1.607  29.698   8.470
  201POPC   C3A 6737   1.368  29.658   8.089
  201POPC   C4A 6738   1.282  29.763   7.658
  201POPC   C1B 6739   0.851  30.040   8.777
  201POPC   C2B 6740   0.963  29.962   8.362
  201POPC   C3B 6741   0.952  30.017   7.928
  201POPC   C4B 6742   1.082  30.275   7.610
  202POPC   NC3 6743  43.292  15.639   9.698
  202POPC   PO4 6744  43.209  16.179   9.444
  202POPC   GL1 6745  43.049  15.894   9.134
  202POPC   GL2 6746  43.313  15.745   8.959
  202POPC   C1A 6747  42.836  15.570   8.838
  202POPC   D2A 6748  42.674  15.542   8.405
  202POPC   C3A 6749  42.998  15.692   8.103
  202POPC   C4A 6750  43.189  15.994   7.812
  202POPC   C1B 6751  43.213  16.082   8.660
  202POPC   C2B 6752  43.363  16.216   8.254
  202POPC   C3B 6753  43.621  16.270   7.886
  202POPC   C4B 6754  43.484  16.192   7.436
  203POPC   NC3 6755  25.741  19.796   9.617
  203POPC   PO4 6756  25.081  19.952   9.475
  203POPC   GL1 6757  25.325  19.752   9.201
  203POPC   GL2 6758  25.604  19.928   9.150
  203POPC   C1A 6759  25.269  19.772   8.778
  203POPC   D2A 6760  25.493  19.802   8.416
  203POPC   C3A 6761  25.293  19.767   8.019
  203POPC   C4A 6762  25.177  19.820   7.611
  203POPC   C1B 6763  25.708  20.146   8.805
  203POPC   C2B 6764  25.894  20.127   8.420
  203POPC   C3B 6765  25.675  20.128   8.059
  203POPC   C4B 6766  25.541  20.236   7.696
  204POPC   NC3 6767   3.264  13.613   9.522
  204POPC   PO4 6768   3.879  13.309   9.592
  204POPC   GL1 6769   3.817  13.480   9.089
  204POPC   GL2 6770   3.550  13.739   9.085
  204POPC   C1A 6771   3.931  13.738   8.703
  204POPC   D2A 6772   3.747  13.821   8.257
  204POPC   C3A 6773   3.660  13.463   7.953
  204POPC   C4A 6774   3.661  13.449   7.467
  204POPC   C1B 6775   3.461  13.556   8.684
  204POPC   C2B 6776   3.228  13.575   8.329
  204POPC   C3B 6777   3.277  13.813   8.002
  204POPC   C4B 6778   3.225  13.521   7.709
  205POPC   NC3 6779  37.334  41.604   9.440
  205POPC   PO4 6780  36.783  41.263   9.458
  205POPC   GL1 6781  36.913  41.435   9.142
  205POPC   GL2 6782  37.174  41.202   9.039
  205POPC   C1A 6783  36.723  41.671   8.810
  205POPC   D2A 6784  36.584  41.573   8.398
  205POPC   C3A 6785  36.507  41.831   8.055
  205POPC   C4A 6786  36.563  41.611   7.667
  205POPC   C1B 6787  37.239  41.542   8.780
  205POPC   C2B 6788  37.087  41.754   8.440
  205POPC   C3B 6789  36.997  41.604   8.050
  205POPC   C4B 6790  37.292  41.642   7.714
  206POPC   NC3 6791  30.239  12.994   9.888
  206POPC   PO4 6792  30.481  12.579   9.547
  206POPC   GL1 6793  30.615  12.577   9.074
  206POPC   GL2 6794  30.810  12.302   8.978
  206POPC   C1A 6795  30.616  12.774   8.613
  206POPC   D2A 6796  30.652  13.069   8.221
  206POPC   C3A 6797  30.774  12.939   7.790
  206POPC   C4A 6798  30.789  13.228   7.453
  206POPC   C1B 6799  30.945  12.381   8.546
  206POPC   C2B 6800  30.776  12.560   8.169
  206POPC   C3B 6801  30.666  12.442   7.770
  206POPC   C4B 6802  30.700  12.628   7.348
  207POPC   NC3 6803  13.500  11.683   9.458
  207POPC   PO4 6804  13.836  12.223   9.597
  207POPC   GL1 6805  13.847  11.986   9.197
  207POPC   GL2 6806  13.492  11.942   9.030
  207POPC   C1A 6807  13.903  11.957   8.751
  207POPC   D2A 6808  13.793  12.127   8.364
  207POPC   C3A 6809  13.933  11.922   7.991
  207POPC   C4A 6810  13.934  12.102   7.592
  207POPC   C1B 6811  13.216  11.930   8.663
  207POPC   C2B 6812  13.049  11.969   8.283
  207POPC   C3B 6813  13.261  12.103   7.940
  207POPC   C4B 6814  13.506  11.858   7.705
  208POPC   NC3 6815  34.998   1.709   9.402
  208POPC   PO4 6816  34.712   1.074   9.384
  208POPC   GL1 6817  34.423   1.186   9.056
  208POPC   GL2 6818  34.418   1.522   9.083
  208POPC   C1A 6819  34.150   1.060   8.723
  208POPC   D2A 6820  33.988   1.005   8.303
  208POPC   C3A 6821  34.314   0.961   7.996
  208POPC   C4A 6822  34.785   0.966   7.960
  208POPC   C1B 6823  34.690   1.401   8.709
  208POPC   C2B 6824  34.560   1.278   8.305
  208POPC   C3B 6825  34.526   1.391   7.843
  208POPC   C4B 6826  34.813   1.395   7.495
  209POPC   NC3 6827  26.578   1.148   9.829
  209POPC   PO4 6828  26.486   1.512   9.260
  209POPC   GL1 6829  26.878   1.413   9.091
  209POPC   GL2 6830  26.771   1.087   9.018
  209POPC   C1A 6831  27.026   1.314   8.653
  209POPC   D2A 6832  26.862   1.069   8.317
  209POPC   C3A 6833  26.852   1.284   7.947
  209POPC   C4A 6834  26.600   1.578   7.719
  209POPC   C1B 6835  26.916   0.740   8.724
  209POPC   C2B 6836  26.794   0.558   8.319
  209POPC   C3B 6837  26.620   0.765   7.938
  209POPC   C4B 6838  26.434   1.105   7.693
  210POPC   NC3 6839   6.431   0.002   9.256
  210POPC   PO4 6840   6.906  44.593   9.621
  210POPC   GL1 6841   6.756  44.666   9.131
  210POPC   GL2 6842   6.641  44.417   8.924
  210POPC   C1A 6843   6.604  44.865   8.678
  210POPC   D2A 6844   6.688  44.641   8.304
  210POPC   C3A 6845   6.506  44.818   7.930
  210POPC   C4A 6846   6.700  44.876   7.560
  210POPC   C1B 6847   6.314  44.452   8.603
  210POPC   C2B 6848   6.281  44.399   8.141
  210POPC   C3B 6849   6.615  44.324   7.880
  210POPC   C4B 6850   6.788  44.336   7.482
  211POPC   NC3 6851  40.184  40.236   9.389
  211POPC   PO4 6852  39.557  39.828   9.458
  211POPC   GL1 6853  39.824  39.938   9.129
  211POPC   GL2 6854  40.085  39.709   9.142
  211POPC   C1A 6855  39.772  39.939   8.680
  211POPC   D2A 6856  40.023  40.068   8.311
  211POPC   C3A 6857  39.935  39.902   7.908
  211POPC   C4A 6858  39.947  39.525   7.690
  211POPC   C1B 6859  40.265  40.008   8.800
  211POPC   C2B 6860  40.506  40.218   8.435
  211POPC   C3B 6861  40.459  40.138   8.008
  211POPC   C4B 6862  40.196  40.305   7.701
  212POPC   NC3 6863  16.291   1.560   9.421
  212POPC   PO4 6864  15.859   0.931   9.512
  212POPC   GL1 6865  15.937   0.915   9.082
  212POPC   GL2 6866  16.164   1.160   9.126
  212POPC   C1A 6867  15.857   1.132   8.731
  212POPC   D2A 6868  15.619   1.108   8.380
  212POPC   C3A 6869  15.714   0.938   8.019
  212POPC   C4A 6870  15.824   1.220   7.705
  212POPC   C1B 6871  16.341   1.354   8.764
  212POPC   C2B 6872  16.259   1.357   8.345
  212POPC   C3B 6873  16.419   1.479   7.977
  212POPC   C4B 6874  16.362   1.284   7.576
  213POPC   NC3 6875   5.323  23.150   9.459
  213POPC   PO4 6876   4.763  22.841   9.521
  213POPC   GL1 6877   4.948  22.920   9.169
  213POPC   GL2 6878   5.190  22.658   9.176
  213POPC   C1A 6879   5.144  23.077   8.795
  213POPC   D2A 6880   4.981  23.130   8.381
  213POPC   C3A 6881   5.239  23.178   8.005
  213POPC   C4A 6882   4.971  23.115   7.659
  213POPC   C1B 6883   4.959  22.596   8.781
  213POPC   C2B 6884   5.160  22.649   8.400
  213POPC   C3B 6885   5.071  22.688   7.976
  213POPC   C4B 6886   5.269  22.576   7.618
  214POPC   NC3 6887   6.096  31.262   9.336
  214POPC   PO4 6888   5.758  31.694   9.797
  214POPC   GL1 6889   5.688  31.600   9.284
  214POPC   GL2 6890   5.469  31.381   9.057
  214POPC   C1A 6891   5.725  31.710   8.808
  214POPC   D2A 6892   5.963  31.543   8.445
  214POPC   C3A 6893   5.753  31.553   8.055
  214POPC   C4A 6894   5.912  31.521   7.644
  214POPC   C1B 6895   5.787  31.197   8.759
  214POPC   C2B 6896   5.775  31.068   8.340
  214POPC   C3B 6897   6.023  31.132   7.995
  214POPC   C4B 6898   5.814  31.005   7.686
  215POPC   NC3 6899  17.369  32.553   9.408
  215POPC   PO4 6900  17.306  31.910   9.235
  215POPC   GL1 6901  17.603  32.098   9.025
  215POPC   GL2 6902  17.687  32.432   9.026
  215POPC   C1A 6903  17.568  31.997   8.627
  215POPC   D2A 6904  17.230  31.993   8.396
  215POPC   C3A 6905  17.344  31.919   7.985
  215POPC   C4A 6906  17.374  32.073   7.592
  215POPC   C1B 6907  17.523  32.508   8.642
  215POPC   C2B 6908  17.545  32.352   8.240
  215POPC   C3B 6909  17.582  32.484   7.865
  215POPC   C4B 6910  17.806  32.447   7.519
  216POPC   NC3 6911  24.284  31.928   9.343
  216POPC   PO4 6912  24.639  32.503   9.268
  216POPC   GL1 6913  24.439  32.266   8.989
  216POPC   GL2 6914  24.628  31.976   8.948
  216POPC   C1A 6915  24.483  32.330   8.591
  216POPC   D2A 6916  24.364  32.500   8.285
  216POPC   C3A 6917  24.421  32.183   7.978
  216POPC   C4A 6918  24.526  32.200   7.575
  216POPC   C1B 6919  24.403  31.840   8.603
  216POPC   C2B 6920  24.103  31.935   8.306
  216POPC   C3B 6921  24.110  31.714   7.919
  216POPC   C4B 6922  24.247  31.754   7.494
  217POPC   NC3 6923  24.330   9.119   9.449
  217POPC   PO4 6924  23.654   9.020   9.511
  217POPC   GL1 6925  23.756   8.944   9.128
  217POPC   GL2 6926  23.962   9.243   9.104
  217POPC   C1A 6927  23.481   8.863   8.783
  217POPC   D2A 6928  23.530   8.661   8.399
  217POPC   C3A 6929  23.477   9.001   8.124
  217POPC   C4A 6930  23.357   8.964   7.712
  217POPC   C1B 6931  23.960   9.069   8.677
  217POPC   C2B 6932  24.007   8.990   8.242
  217POPC   C3B 6933  23.867   9.033   7.807
  217POPC   C4B 6934  23.695   9.259   7.438
  218POPC   NC3 6935   3.026  29.360   9.691
  218POPC   PO4 6936   2.627  28.909   9.370
  218POPC   GL1 6937   2.743  29.127   9.032
  218POPC   GL2 6938   2.922  29.430   9.158
  218POPC   C1A 6939   2.865  28.886   8.655
  218POPC   D2A 6940   2.983  28.840   8.217
  218POPC   C3A 6941   2.818  29.093   7.882
  218POPC   C4A 6942   2.830  29.006   7.433
  218POPC   C1B 6943   3.079  29.363   8.727
  218POPC   C2B 6944   2.905  29.489   8.323
  218POPC   C3B 6945   2.588  29.521   8.019
  218POPC   C4B 6946   2.510  29.448   7.597
  219POPC   NC3 6947  22.299  36.894   9.502
  219POPC   PO4 6948  21.715  36.581   9.413
  219POPC   GL1 6949  22.037  36.767   9.088
  219POPC   GL2 6950  22.197  37.133   9.061
  219POPC   C1A 6951  22.249  36.664   8.713
  219POPC   D2A 6952  22.059  36.742   8.327
  219POPC   C3A 6953  22.311  36.796   7.999
  219POPC   C4A 6954  22.429  36.648   7.648
  219POPC   C1B 6955  22.279  37.157   8.604
  219POPC   C2B 6956  22.132  37.243   8.178
  219POPC   C3B 6957  21.869  37.065   7.839
  219POPC   C4B 6958  21.652  37.196   7.440
  220POPC   NC3 6959   2.165  42.056   9.434
  220POPC   PO4 6960   1.943  42.668   9.414
  220POPC   GL1 6961   2.059  42.425   9.095
  220POPC   GL2 6962   1.797  42.177   9.080
  220POPC   C1A 6963   2.107  42.284   8.691
  220POPC   D2A 6964   1.812  42.145   8.393
  220POPC   C3A 6965   1.910  42.272   8.005
  220POPC   C4A 6966   2.261  42.406   7.823
  220POPC   C1B 6967   1.673  41.838   8.789
  220POPC   C2B 6968   1.616  41.664   8.380
  220POPC   C3B 6969   1.581  41.863   7.984
  220POPC   C4B 6970   1.855  41.901   7.622
  221POPC   NC3 6971   5.342  41.003   9.568
  221POPC   PO4 6972   4.907  40.544   9.643
  221POPC   GL1 6973   5.024  40.764   9.236
  221POPC   GL2 6974   4.808  41.066   9.223
  221POPC   C1A 6975   5.269  40.882   8.823
  221POPC   D2A 6976   5.539  40.832   8.434
  221POPC   C3A 6977   5.396  40.981   8.038
  221POPC   C4A 6978   5.170  40.780   7.698
  221POPC   C1B 6979   4.758  40.876   8.795
  221POPC   C2B 6980   4.970  40.923   8.396
  221POPC   C3B 6981   4.810  40.940   8.004
  221POPC   C4B 6982   4.700  40.920   7.565
  222POPC   NC3 6983  23.598  21.387   9.738
  222POPC   PO4 6984  23.961  21.922   9.672
  222POPC   GL1 6985  23.889  21.496   9.351
  222POPC   GL2 6986  23.504  21.445   9.243
  222POPC   C1A 6987  23.843  21.361   8.888
  222POPC   D2A 6988  23.956  21.316   8.460
  222POPC   C3A 6989  23.883  21.530   8.059
  222POPC   C4A 6990  23.853  21.228   7.755
  222POPC   C1B 6991  23.342  21.264   8.842
  222POPC   C2B 6992  23.367  21.092   8.424
  222POPC   C3B 6993  23.411  21.272   8.030
  222POPC   C4B 6994  23.469  21.528   7.662
  223POPC   NC3 6995  41.960  16.506   9.536
  223POPC   PO4 6996  42.658  16.622   9.448
  223POPC   GL1 6997  42.557  16.443   9.088
  223POPC   GL2 6998  42.283  16.302   9.202
  223POPC   C1A 6999  42.463  16.496   8.645
  223POPC   D2A 7000  42.175  16.807   8.451
  223POPC   C3A 7001  42.230  16.919   8.051
  223POPC   C4A 7002  42.366  17.039   7.632
  223POPC   C1B 7003  42.000  16.497   8.876
  223POPC   C2B 7004  41.998  16.344   8.461
  223POPC   C3B 7005  42.314  16.404   8.146
  223POPC   C4B 7006  42.360  16.532   7.724
  224POPC   NC3 7007  17.911  17.253   9.382
  224POPC   PO4 7008  18.579  17.215   9.525
  224POPC   GL1 7009  18.386  17.385   9.163
  224POPC   GL2 7010  18.692  17.287   9.017
  224POPC   C1A 7011  18.058  17.540   8.840
  224POPC   D2A 7012  18.024  17.385   8.456
  224POPC   C3A 7013  17.981  17.469   8.031
  224POPC   C4A 7014  18.176  17.651   7.711
  224POPC   C1B 7015  18.522  17.400   8.640
  224POPC   C2B 7016  18.476  17.446   8.197
  224POPC   C3B 7017  18.576  17.346   7.777
  224POPC   C4B 7018  18.503  17.301   7.320
  225POPC   NC3 7019  26.131  27.039   9.473
  225POPC   PO4 7020  25.930  26.348   9.447
  225POPC   GL1 7021  26.135  26.611   9.175
  225POPC   GL2 7022  25.828  26.682   9.012
  225POPC   C1A 7023  26.293  26.832   8.833
  225POPC   D2A 7024  26.097  27.011   8.491
  225POPC   C3A 7025  26.195  26.880   8.076
  225POPC   C4A 7026  25.962  26.797   7.751
  225POPC   C1B 7027  25.845  26.356   8.687
  225POPC   C2B 7028  25.974  26.414   8.241
  225POPC   C3B 7029  25.794  26.340   7.837
  225POPC   C4B 7030  25.769  26.486   7.382
  226POPC   NC3 7031  13.884  39.735   9.515
  226POPC   PO4 7032  14.317  40.157   9.729
  226POPC   GL1 7033  14.327  40.196   9.258
  226POPC   GL2 7034  14.189  39.893   9.151
  226POPC   C1A 7035  14.427  40.192   8.807
  226POPC   D2A 7036  14.593  39.852   8.517
  226POPC   C3A 7037  14.694  40.050   8.113
  226POPC   C4A 7038  14.484  40.361   7.869
  226POPC   C1B 7039  14.023  39.848   8.754
  226POPC   C2B 7040  14.125  39.644   8.377
  226POPC   C3B 7041  14.188  39.918   8.034
  226POPC   C4B 7042  14.432  39.888   7.669
  227POPC   NC3 7043  27.287  24.897   9.513
  227POPC   PO4 7044  26.647  24.963   9.356
  227POPC   GL1 7045  26.809  25.235   9.021
  227POPC   GL2 7046  26.978  25.530   9.177
  227POPC   C1A 7047  26.721  25.305   8.570
  227POPC   D2A 7048  26.440  25.425   8.201
  227POPC   C3A 7049  26.599  25.235   7.840
  227POPC   C4A 7050  26.987  25.008   7.915
  227POPC   C1B 7051  27.098  25.632   8.752
  227POPC   C2B 7052  27.184  25.413   8.343
  227POPC   C3B 7053  27.022  25.512   7.934
  227POPC   C4B 7054  26.830  25.651   7.552
  228POPC   NC3 7055  35.237  12.300   9.610
  228POPC   PO4 7056  35.672  11.842   9.707
  228POPC   GL1 7057  35.557  11.991   9.268
  228POPC   GL2 7058  35.364  12.287   9.130
  228POPC   C1A 7059  35.341  11.845   8.880
  228POPC   D2A 7060  35.071  11.782   8.506
  228POPC   C3A 7061  35.288  11.869   8.101
  228POPC   C4A 7062  35.410  11.748   7.675
  228POPC   C1B 7063  35.569  12.336   8.736
  228POPC   C2B 7064  35.518  12.395   8.319
  228POPC   C3B 7065  35.671  12.173   7.992
  228POPC   C4B 7066  35.346  12.264   7.749
  229POPC   NC3 7067  42.963  11.771   9.498
  229POPC   PO4 7068  43.289  12.251   9.856
  229POPC   GL1 7069  43.284  12.130   9.346
  229POPC   GL2 7070  43.402  11.847   9.114
  229POPC   C1A 7071  43.215  12.285   8.883
  229POPC   D2A 7072  43.328  12.099   8.472
  229POPC   C3A 7073  43.129  12.226   8.065
  229POPC   C4A 7074  43.318  12.117   7.655
  229POPC   C1B 7075  43.018  11.805   8.839
  229POPC   C2B 7076  42.745  11.698   8.509
  229POPC   C3B 7077  42.890  11.767   8.147
  229POPC   C4B 7078  42.892  11.884   7.756
  230POPC   NC3 7079  24.757   0.256   9.968
  230POPC   PO4 7080  24.338   0.529   9.507
  230POPC   GL1 7081  24.517   0.203   9.246
  230POPC   GL2 7082  24.292  44.929   9.118
  230POPC   C1A 7083  24.497   0.339   8.827
  230POPC   D2A 7084  24.455   0.680   8.555
  230POPC   C3A 7085  24.630   0.578   8.180
  230POPC   C4A 7086  24.511   0.646   7.745
  230POPC   C1B 7087  24.048   0.108   8.781
  230POPC   C2B 7088  24.150   0.323   8.384
  230POPC   C3B 7089  24.382   0.177   8.019
  230POPC   C4B 7090  24.367   0.178   7.566
  231POPC   NC3 7091  36.066  42.715   9.583
  231POPC   PO4 7092  36.315  42.109   9.523
  231POPC   GL1 7093  36.046  42.221   9.182
  231POPC   GL2 7094  35.901  42.533   9.128
  231POPC   C1A 7095  36.287  42.346   8.825
  231POPC   D2A 7096  36.461  42.598   8.490
  231POPC   C3A 7097  36.430  42.341   8.134
  231POPC   C4A 7098  36.433  42.277   7.717
  231POPC   C1B 7099  35.987  42.745   8.740
  231POPC   C2B 7100  35.990  42.609   8.308
  231POPC   C3B 7101  36.093  42.626   7.897
  231POPC   C4B 7102  35.878  42.338   7.674
  232POPC   NC3 7103  25.977  32.071   9.661
  232POPC   PO4 7104  26.392  32.606   9.721
  232POPC   GL1 7105  26.271  32.424   9.294
  232POPC   GL2 7106  26.259  32.058   9.206
  232POPC   C1A 7107  26.079  32.457   8.856
  232POPC   D2A 7108  25.791  32.685   8.586
  232POPC   C3A 7109  25.822  32.616   8.151
  232POPC   C4A 7110  25.895  32.280   7.871
  232POPC   C1B 7111  26.011  31.970   8.816
  232POPC   C2B 7112  26.112  32.079   8.357
  232POPC   C3B 7113  26.187  31.861   7.952
  232POPC   C4B 7114  25.911  31.545   7.779
  233POPC   NC3 7115  34.867  32.248   9.369
  233POPC   PO4 7116  34.394  31.877   9.668
  233POPC   GL1 7117  34.410  32.049   9.224
  233POPC   GL2 7118  34.664  31.970   8.967
  233POPC   C1A 7119  34.455  32.414   8.889
  233POPC   D2A 7120  34.566  32.274   8.465
  233POPC   C3A 7121  34.781  32.497   8.133
  233POPC   C4A 7122  34.597  32.610   7.759
  233POPC   C1B 7123  34.230  31.963   8.755
  233POPC   C2B 7124  34.124  31.987   8.315
  233POPC   C3B 7125  34.398  32.147   7.962
  233POPC   C4B 7126  34.477  32.057   7.514
  234POPC   NC3 7127  12.846  15.148   9.386
  234POPC   PO4 7128  12.273  14.755   9.289
  234POPC   GL1 7129  12.581  14.946   8.983
  234POPC   GL2 7130  12.929  14.822   8.998
  234POPC   C1A 7131  12.687  15.341   8.746
  234POPC   D2A 7132  13.103  15.399   8.503
  234POPC   C3A 7133  13.005  15.228   8.107
  234POPC   C4A 7134  12.728  15.261   7.782
  234POPC   C1B 7135  12.923  14.913   8.570
  234POPC   C2B 7136  12.845  14.739   8.196
  234POPC   C3B 7137  12.945  14.775   7.771
  234POPC   C4B 7138  13.176  14.739   7.358
  235POPC   NC3 7139  23.931  25.710   9.421
  235POPC   PO4 7140  23.413  26.211   9.597
  235POPC   GL1 7141  23.528  26.019   9.237
  235POPC   GL2 7142  23.859  26.165   9.205
  235POPC   C1A 7143  23.466  26.143   8.842
  235POPC   D2A 7144  23.620  26.372   8.501
  235POPC   C3A 7145  23.546  26.196   8.107
  235POPC   C4A 7146  23.283  26.124   7.747
  235POPC   C1B 7147  23.932  25.944   8.795
  235POPC   C2B 7148  23.996  26.046   8.391
  235POPC   C3B 7149  24.032  26.168   7.995
  235POPC   C4B 7150  23.781  26.013   7.672
  236POPC   NC3 7151  23.939  28.560   9.378
  236POPC   PO4 7152  23.259  28.478   9.205
  236POPC   GL1 7153  23.369  28.683   8.840
  236POPC   GL2 7154  23.741  28.574   8.865
  236POPC   C1A 7155  23.458  28.615   8.409
  236POPC   D2A 7156  23.850  28.418   8.353
  236POPC   C3A 7157  23.961  28.429   7.959
  236POPC   C4A 7158  23.670  28.484   7.701
  236POPC   C1B 7159  23.545  28.201   8.717
  236POPC   C2B 7160  23.333  28.066   8.384
  236POPC   C3B 7161  23.555  28.111   8.037
  236POPC   C4B 7162  23.495  27.987   7.658
  237POPC   NC3 7163  29.350   3.705   9.454
  237POPC   PO4 7164  28.860   3.339   9.365
  237POPC   GL1 7165  29.013   3.595   8.999
  237POPC   GL2 7166  29.333   3.754   8.930
  237POPC   C1A 7167  28.979   3.780   8.592
  237POPC   D2A 7168  29.072   3.467   8.324
  237POPC   C3A 7169  28.862   3.477   7.966
  237POPC   C4A 7170  28.884   3.786   7.690
  237POPC   C1B 7171  29.476   3.369   8.731
  237POPC   C2B 7172  29.500   3.194   8.322
  237POPC   C3B 7173  29.417   3.433   7.940
  237POPC   C4B 7174  29.096   3.351   7.551
  238POPC   NC3 7175   9.568  14.035   9.432
  238POPC   PO4 7176   9.993  14.471   9.530
  238POPC   GL1 7177   9.739  14.433   9.145
  238POPC   GL2 7178   9.387  14.377   9.113
  238POPC   C1A 7179   9.809  14.283   8.741
  238POPC   D2A 7180   9.963  14.306   8.374
  238POPC   C3A 7181   9.901  14.100   7.996
  238POPC   C4A 7182  10.271  14.102   7.777
  238POPC   C1B 7183   9.311  14.187   8.724
  238POPC   C2B 7184   9.454  14.369   8.352
  238POPC   C3B 7185   9.476  14.365   7.905
  238POPC   C4B 7186   9.436  13.946   7.716
  239POPC   NC3 7187  21.112  26.626  10.055
  239POPC   PO4 7188  21.395  26.860   9.465
  239POPC   GL1 7189  21.433  26.746   9.080
  239POPC   GL2 7190  21.486  26.425   9.017
  239POPC   C1A 7191  21.307  26.909   8.699
  239POPC   D2A 7192  21.256  27.237   8.413
  239POPC   C3A 7193  21.207  27.041   8.039
  239POPC   C4A 7194  21.435  26.742   7.819
  239POPC   C1B 7195  21.342  26.389   8.645
  239POPC   C2B 7196  21.275  26.580   8.294
  239POPC   C3B 7197  20.969  26.563   8.033
  239POPC   C4B 7198  21.039  26.380   7.686
  240POPC   NC3 7199  25.925  41.165   9.358
  240POPC   PO4 7200  26.445  41.626   9.433
  240POPC   GL1 7201  26.332  41.437   9.091
  240POPC   GL2 7202  26.012  41.573   9.077
  240POPC   C1A 7203  26.309  41.600   8.660
  240POPC   D2A 7204  26.183  41.618   8.244
  240POPC   C3A 7205  26.433  41.572   7.869
  240POPC   C4A 7206  26.560  41.289   7.519
  240POPC   C1B 7207  25.833  41.410   8.689
  240POPC   C2B 7208  25.684  41.625   8.298
  240POPC   C3B 7209  25.759  41.786   7.843
  240POPC   C4B 7210  25.732  41.881   7.344
  241POPC   NC3 7211  18.979  22.281   9.679
  241POPC   PO4 7212  19.510  21.963   9.592
  241POPC   GL1 7213  19.207  22.120   9.210
  241POPC   GL2 7214  18.905  22.349   9.169
  241POPC   C1A 7215  19.209  22.238   8.750
  241POPC   D2A 7216  19.178  21.955   8.375
  241POPC   C3A 7217  19.042  21.981   7.937
  241POPC   C4A 7218  19.307  21.809   7.618
  241POPC   C1B 7219  18.600  22.283   8.817
  241POPC   C2B 7220  18.440  22.335   8.377
  241POPC   C3B 7221  18.523  22.163   7.948
  241POPC   C4B 7222  18.616  21.853   7.671
  242POPC   NC3 7223  20.643  24.852   9.376
  242POPC   PO4 7224  20.936  24.330   9.737
  242POPC   GL1 7225  20.934  24.338   9.279
  242POPC   GL2 7226  21.114  24.059   9.174
  242POPC   C1A 7227  20.898  24.408   8.813
  242POPC   D2A 7228  20.801  24.481   8.367
  242POPC   C3A 7229  20.383  24.517   8.188
  242POPC   C4A 7230  20.231  24.808   7.864
  242POPC   C1B 7231  20.724  23.939   8.943
  242POPC   C2B 7232  20.559  24.054   8.538
  242POPC   C3B 7233  20.638  24.093   8.097
  242POPC   C4B 7234  20.407  24.254   7.744
  243POPC   NC3 7235  34.066  32.196   9.575
  243POPC   PO4 7236  33.438  32.408   9.656
  243POPC   GL1 7237  33.577  32.283   9.237
  243POPC   GL2 7238  33.915  32.212   9.086
  243POPC   C1A 7239  33.538  32.424   8.809
  243POPC   D2A 7240  33.800  32.347   8.466
  243POPC   C3A 7241  33.625  32.481   8.092
  243POPC   C4A 7242  33.674  32.249   7.715
  243POPC   C1B 7243  33.662  31.928   8.781
  243POPC   C2B 7244  33.499  31.715   8.399
  243POPC   C3B 7245  33.568  31.825   7.987
  243POPC   C4B 7246  34.004  31.852   7.799
  244POPC   NC3 7247  19.569  22.389   9.416
  244POPC   PO4 7248  20.010  21.767   9.514
  244POPC   GL1 7249  20.184  22.011   9.181
  244POPC   GL2 7250  19.990  22.326   9.134
  244POPC   C1A 7251  20.186  22.115   8.723
  244POPC   D2A 7252  20.163  21.885   8.347
  244POPC   C3A 7253  20.084  22.089   7.939
  244POPC   C4A 7254  19.805  22.003   7.577
  244POPC   C1B 7255  19.700  22.061   8.889
  244POPC   C2B 7256  19.687  22.018   8.452
  244POPC   C3B 7257  19.559  22.042   8.027
  244POPC   C4B 7258  19.372  22.312   7.732
  245POPC   NC3 7259  11.861  27.183   9.575
  245POPC   PO4 7260  12.226  27.767   9.443
  245POPC   GL1 7261  12.038  27.616   9.094
  245POPC   GL2 7262  12.386  27.645   8.939
  245POPC   C1A 7263  12.054  27.357   8.709
  245POPC   D2A 7264  12.354  27.386   8.402
  245POPC   C3A 7265  12.119  27.383   8.040
  245POPC   C4A 7266  11.742  27.350   7.831
  245POPC   C1B 7267  12.088  27.849   8.615
  245POPC   C2B 7268  11.946  27.856   8.182
  245POPC   C3B 7269  12.044  27.814   7.743
  245POPC   C4B 7270  12.352  27.851   7.387
  246POPC   NC3 7271  20.343  36.400   9.611
  246POPC   PO4 7272  19.854  36.980   9.752
  246POPC   GL1 7273  19.864  36.754   9.309
  246POPC   GL2 7274  19.553  36.828   9.150
  246POPC   C1A 7275  19.925  36.810   8.809
  246POPC   D2A 7276  19.879  37.197   8.536
  246POPC   C3A 7277  19.849  37.165   8.088
  246POPC   C4A 7278  19.814  36.755   7.918
  246POPC   C1B 7279  19.456  37.015   8.781
  246POPC   C2B 7280  19.557  36.837   8.376
  246POPC   C3B 7281  19.377  36.986   7.969
  246POPC   C4B 7282  19.497  37.005   7.557
  247POPC   NC3 7283  36.435  40.136   9.420
  247POPC   PO4 7284  35.791  39.967   9.641
  247POPC   GL1 7285  35.853  39.983   9.202
  247POPC   GL2 7286  36.130  39.766   9.122
  247POPC   C1A 7287  35.844  40.275   8.848
  247POPC   D2A 7288  35.969  40.560   8.484
  247POPC   C3A 7289  35.899  40.400   8.057
  247POPC   C4A 7290  36.058  40.136   7.745
  247POPC   C1B 7291  36.291  40.049   8.767
  247POPC   C2B 7292  36.277  40.120   8.318
  247POPC   C3B 7293  36.450  39.910   7.951
  247POPC   C4B 7294  36.705  39.818   7.616
  248POPC   NC3 7295  19.657  10.887   9.937
  248POPC   PO4 7296  19.779  11.402   9.455
  248POPC   GL1 7297  19.946  11.236   9.119
  248POPC   GL2 7298  19.611  11.254   8.970
  248POPC   C1A 7299  20.071  11.422   8.758
  248POPC   D2A 7300  19.929  11.608   8.400
  248POPC   C3A 7301  19.999  11.288   8.148
  248POPC   C4A 7302  19.947  11.067   7.788
  248POPC   C1B 7303  19.798  10.933   8.701
  248POPC   C2B 7304  19.740  10.840   8.252
  248POPC   C3B 7305  19.474  10.980   7.922
  248POPC   C4B 7306  19.561  10.984   7.452
  249POPC   NC3 7307  38.567  16.862   9.712
  249POPC   PO4 7308  38.043  16.556   9.555
  249POPC   GL1 7309  38.250  16.789   9.225
  249POPC   GL2 7310  38.564  16.634   9.138
  249POPC   C1A 7311  38.264  16.854   8.749
  249POPC   D2A 7312  38.624  16.833   8.476
  249POPC   C3A 7313  38.554  16.698   8.071
  249POPC   C4A 7314  38.483  16.972   7.740
  249POPC   C1B 7315  38.264  16.368   8.853
  249POPC   C2B 7316  38.274  16.433   8.430
  249POPC   C3B 7317  38.203  16.320   8.028
  249POPC   C4B 7318  38.226  16.534   7.671
  250POPC   NC3 7319  32.910  11.086   9.251
  250POPC   PO4 7320  32.720  10.509   9.574
  250POPC   GL1 7321  33.025  10.579   9.227
  250POPC   GL2 7322  32.864  10.311   9.038
  250POPC   C1A 7323  33.157  10.637   8.773
  250POPC   D2A 7324  32.917  10.381   8.480
  250POPC   C3A 7325  33.039  10.286   8.074
  250POPC   C4A 7326  33.317  10.323   7.720
  250POPC   C1B 7327  32.662  10.701   8.815
  250POPC   C2B 7328  32.688  10.968   8.478
  250POPC   C3B 7329  32.744  10.731   8.125
  250POPC   C4B 7330  32.801  10.581   7.719
  251POPC   NC3 7331  37.481  20.180   9.539
  251POPC   PO4 7332  37.756  19.594   9.481
  251POPC   GL1 7333  37.654  19.616   9.107
  251POPC   GL2 7334  37.665  19.992   9.078
  251POPC   C1A 7335  37.797  19.642   8.711
  251POPC   D2A 7336  37.580  19.793   8.372
  251POPC   C3A 7337  37.812  19.761   7.984
  251POPC   C4A 7338  37.930  19.703   7.564
  251POPC   C1B 7339  37.312  20.177   8.806
  251POPC   C2B 7340  37.306  20.235   8.336
  251POPC   C3B 7341  37.310  19.969   7.965
  251POPC   C4B 7342  37.517  19.988   7.565
  252POPC   NC3 7343  12.029  36.374   9.534
  252POPC   PO4 7344  11.853  35.780   9.760
  252POPC   GL1 7345  11.937  35.906   9.286
  252POPC   GL2 7346  12.271  36.011   9.208
  252POPC   C1A 7347  11.909  36.188   8.872
  252POPC   D2A 7348  11.773  36.133   8.432
  252POPC   C3A 7349  11.970  36.344   8.065
  252POPC   C4A 7350  11.997  36.203   7.638
  252POPC   C1B 7351  12.369  35.958   8.738
  252POPC   C2B 7352  12.622  36.171   8.395
  252POPC   C3B 7353  12.519  36.291   7.972
  252POPC   C4B 7354  12.377  35.921   7.822
  253POPC   NC3 7355  21.756  44.216   9.373
  253POPC   PO4 7356  21.649  44.862   9.446
  253POPC   GL1 7357  21.429  44.581   9.175
  253POPC   GL2 7358  21.691  44.441   8.925
  253POPC   C1A 7359  21.225  44.650   8.780
  253POPC   D2A 7360  21.294  44.548   8.341
  253POPC   C3A 7361  21.140  44.841   8.050
  253POPC   C4A 7362  21.033  44.714   7.665
  253POPC   C1B 7363  21.838  44.863   8.781
  253POPC   C2B 7364  21.942  44.941   8.347
  253POPC   C3B 7365  21.693  44.698   8.077
  253POPC   C4B 7366  21.532  44.783   7.694
  254POPC   NC3 7367  19.436   1.343   9.510
  254POPC   PO4 7368  18.881   0.943   9.407
  254POPC   GL1 7369  19.152   1.126   9.133
  254POPC   GL2 7370  19.452   0.894   9.225
  254POPC   C1A 7371  18.957   1.164   8.728
  254POPC   D2A 7372  18.763   1.177   8.304
  254POPC   C3A 7373  18.924   1.474   7.991
  254POPC   C4A 7374  19.089   1.343   7.603
  254POPC   C1B 7375  19.395   0.855   8.779
  254POPC   C2B 7376  19.354   1.122   8.430
  254POPC   C3B 7377  19.202   1.028   8.007
  254POPC   C4B 7378  19.478   0.760   7.783
  255POPC   NC3 7379  11.832  31.151   9.626
  255POPC   PO4 7380  11.338  31.548   9.427
  255POPC   GL1 7381  11.001  31.578   9.101
  255POPC   GL2 7382  11.285  31.441   8.933
  255POPC   C1A 7383  10.977  31.695   8.647
  255POPC   D2A 7384  11.351  31.521   8.431
  255POPC   C3A 7385  11.376  31.579   7.998
  255POPC   C4A 7386  11.511  31.893   7.738
  255POPC   C1B 7387  10.996  31.179   8.688
  255POPC   C2B 7388  10.987  31.204   8.240
  255POPC   C3B 7389  11.230  31.105   7.867
  255POPC   C4B 7390  11.242  31.235   7.455
  256POPC   NC3 7391  10.181  35.951   9.497
  256POPC   PO4 7392  10.689  36.349   9.409
  256POPC   GL1 7393  10.491  36.123   9.112
  256POPC   GL2 7394  10.240  36.353   9.058
  256POPC   C1A 7395  10.478  35.978   8.695
  256POPC   D2A 7396  10.600  36.115   8.286
  256POPC   C3A 7397  10.605  35.789   7.987
  256POPC   C4A 7398  10.413  35.797   7.621
  256POPC   C1B 7399  10.388  36.462   8.634
  256POPC   C2B 7400  10.096  36.257   8.344
  256POPC   C3B 7401  10.187  36.146   7.935
  256POPC   C4B 7402  10.593  36.250   7.745
  257POPC   NC3 7403   5.941   0.849   9.502
  257POPC   PO4 7404   5.598   1.468   9.385
  257POPC   GL1 7405   5.849   1.371   9.043
  257POPC   GL2 7406   6.010   1.043   9.041
  257POPC   C1A 7407   5.747   1.309   8.636
  257POPC   D2A 7408   5.620   1.156   8.282
  257POPC   C3A 7409   5.687   1.447   7.970
  257POPC   C4A 7410   6.035   1.567   7.706
  257POPC   C1B 7411   5.890   0.826   8.682
  257POPC   C2B 7412   6.020   0.842   8.265
  257POPC   C3B 7413   5.876   0.978   7.867
  257POPC   C4B 7414   5.936   0.993   7.427
  258POPC   NC3 7415  10.447  14.516   9.460
  258POPC   PO4 7416  10.896  14.059   9.388
  258POPC   GL1 7417  10.605  14.226   9.058
  258POPC   GL2 7418  10.212  14.225   9.108
  258POPC   C1A 7419  10.417  14.313   8.656
  258POPC   D2A 7420  10.452  14.177   8.264
  258POPC   C3A 7421  10.644  14.415   7.967
  258POPC   C4A 7422  10.674  14.363   7.554
  258POPC   C1B 7423  10.130  14.657   8.886
  258POPC   C2B 7424  10.171  14.770   8.443
  258POPC   C3B 7425  10.154  14.576   7.991
  258POPC   C4B 7426  10.202  14.533   7.527
  259POPC   NC3 7427  40.605  20.298   9.451
  259POPC   PO4 7428  41.086  19.745   9.409
  259POPC   GL1 7429  40.853  19.981   9.123
  259POPC   GL2 7430  40.995  20.320   9.085
  259POPC   C1A 7431  40.620  19.811   8.775
  259POPC   D2A 7432  40.509  19.534   8.406
  259POPC   C3A 7433  40.610  19.704   8.007
  259POPC   C4A 7434  40.891  19.605   7.701
  259POPC   C1B 7435  40.743  20.300   8.700
  259POPC   C2B 7436  40.474  20.086   8.366
  259POPC   C3B 7437  40.518  20.191   7.928
  259POPC   C4B 7438  40.950  20.281   7.845
  260POPC   NC3 7439  18.939   2.245   9.428
  260POPC   PO4 7440  19.419   1.785   9.403
  260POPC   GL1 7441  19.103   1.872   9.100
  260POPC   GL2 7442  18.876   1.625   8.956
  260POPC   C1A 7443  19.033   2.099   8.730
  260POPC   D2A 7444  19.273   2.069   8.353
  260POPC   C3A 7445  19.094   2.023   7.954
  260POPC   C4A 7446  18.865   2.253   7.639
  260POPC   C1B 7447  19.267   1.600   8.678
  260POPC   C2B 7448  19.390   1.588   8.222
  260POPC   C3B 7449  19.427   1.691   7.776
  260POPC   C4B 7450  19.459   1.635   7.310
  261POPC   NC3 7451  21.583   3.162   9.729
  261POPC   PO4 7452  21.265   2.527   9.893
  261POPC   GL1 7453  21.278   2.640   9.408
  261POPC   GL2 7454  21.521   2.873   9.248
  261POPC   C1A 7455  21.257   2.497   8.972
  261POPC   D2A 7456  21.112   2.612   8.565
  261POPC   C3A 7457  21.072   2.552   8.117
  261POPC   C4A 7458  21.307   2.753   7.775
  261POPC   C1B 7459  21.522   3.100   8.841
  261POPC   C2B 7460  21.767   3.130   8.446
  261POPC   C3B 7461  21.636   3.142   8.014
  261POPC   C4B 7462  21.808   3.082   7.608
  262POPC   NC3 7463  43.111  24.298   9.263
  262POPC   PO4 7464  42.736  24.591   9.731
  262POPC   GL1 7465  42.754  24.656   9.225
  262POPC   GL2 7466  43.049  24.863   9.227
  262POPC   C1A 7467  42.905  24.580   8.716
  262POPC   D2A 7468  43.239  24.324   8.459
  262POPC   C3A 7469  43.147  24.203   8.022
  262POPC   C4A 7470  42.822  24.083   7.725
  262POPC   C1B 7471  43.314  24.804   8.891
  262POPC   C2B 7472  43.264  24.977   8.490
  262POPC   C3B 7473  43.111  24.741   8.145
  262POPC   C4B 7474  43.199  24.694   7.713
  263POPC   NC3 7475  21.490  14.805   9.426
  263POPC   PO4 7476  21.095  15.294   9.618
  263POPC   GL1 7477  21.274  15.323   9.205
  263POPC   GL2 7478  21.530  15.551   9.108
  263POPC   C1A 7479  21.327  15.124   8.799
  263POPC   D2A 7480  21.006  15.030   8.470
  263POPC   C3A 7481  21.170  15.058   8.049
  263POPC   C4A 7482  21.217  15.314   7.692
  263POPC   C1B 7483  21.721  15.466   8.727
  263POPC   C2B 7484  21.774  15.154   8.432
  263POPC   C3B 7485  21.662  15.202   8.019
  263POPC   C4B 7486  21.623  14.991   7.635
  264POPC   NC3 7487   4.640  20.653   9.437
  264POPC   PO4 7488   3.973  20.527   9.403
  264POPC   GL1 7489   4.001  20.724   9.025
  264POPC   GL2 7490   3.794  20.470   8.909
  264POPC   C1A 7491   4.268  20.944   8.723
  264POPC   D2A 7492   4.510  20.756   8.386
  264POPC   C3A 7493   4.448  20.829   7.937
  264POPC   C4A 7494   4.412  20.697   7.499
  264POPC   C1B 7495   4.113  20.460   8.601
  264POPC   C2B 7496   4.285  20.321   8.221
  264POPC   C3B 7497   4.483  20.293   7.811
  264POPC   C4B 7498   4.618  20.253   7.365
  265POPC   NC3 7499  22.408  34.417   9.591
  265POPC   PO4 7500  21.958  34.901   9.543
  265POPC   GL1 7501  21.973  34.538   9.250
  265POPC   GL2 7502  22.288  34.541   9.103
  265POPC   C1A 7503  21.878  34.472   8.794
  265POPC   D2A 7504  21.911  34.765   8.404
  265POPC   C3A 7505  21.971  34.640   7.956
  265POPC   C4A 7506  22.289  34.661   7.602
  265POPC   C1B 7507  22.360  34.335   8.704
  265POPC   C2B 7508  22.508  34.070   8.392
  265POPC   C3B 7509  22.414  34.331   8.055
  265POPC   C4B 7510  22.176  34.191   7.776
  266POPC   NC3 7511   4.125   1.538   9.511
  266POPC   PO4 7512   4.390   0.884   9.616
  266POPC   GL1 7513   4.302   1.133   9.234
  266POPC   GL2 7514   4.350   0.954   8.923
  266POPC   C1A 7515   4.306   1.449   8.873
  266POPC   D2A 7516   4.283   1.210   8.460
  266POPC   C3A 7517   4.246   1.427   8.091
  266POPC   C4A 7518   4.236   1.289   7.678
  266POPC   C1B 7519   3.915   1.141   8.830
  266POPC   C2B 7520   3.768   1.137   8.403
  266POPC   C3B 7521   3.959   1.015   8.019
  266POPC   C4B 7522   3.831   0.793   7.676
  267POPC   NC3 7523   1.861  23.709   9.409
  267POPC   PO4 7524   2.598  23.692   9.366
  267POPC   GL1 7525   2.249  23.614   9.074
  267POPC   GL2 7526   2.037  23.902   8.978
  267POPC   C1A 7527   2.037  23.400   8.749
  267POPC   D2A 7528   1.994  23.279   8.331
  267POPC   C3A 7529   2.132  23.557   8.017
  267POPC   C4A 7530   1.758  23.689   7.838
  267POPC   C1B 7531   2.411  23.951   8.725
  267POPC   C2B 7532   2.349  23.930   8.309
  267POPC   C3B 7533   1.958  24.057   8.135
  267POPC   C4B 7534   1.893  24.171   7.724
  268POPC   NC3 7535  36.010  24.985   9.453
  268POPC   PO4 7536  36.302  25.544   9.471
  268POPC   GL1 7537  36.283  25.284   9.117
  268POPC   GL2 7538  35.907  25.323   9.076
  268POPC   C1A 7539  36.196  25.167   8.690
  268POPC   D2A 7540  35.887  25.326   8.410
  268POPC   C3A 7541  36.070  25.409   8.002
  268POPC   C4A 7542  36.327  25.082   7.871
  268POPC   C1B 7543  35.770  24.939   8.839
  268POPC   C2B 7544  35.856  24.750   8.437
  268POPC   C3B 7545  35.837  24.959   8.038
  268POPC   C4B 7546  35.677  24.932   7.631
  269POPC   NC3 7547  44.827  14.799   9.511
  269POPC   PO4 7548  44.616  15.427   9.650
  269POPC   GL1 7549  44.585  15.196   9.245
  269POPC   GL2 7550  44.930  15.206   9.195
  269POPC   C1A 7551  44.662  15.011   8.812
  269POPC   D2A 7552  44.949  14.764   8.569
  269POPC   C3A 7553  44.735  14.624   8.212
  269POPC   C4A 7554  44.536  14.856   7.887
  269POPC   C1B 7555  44.750  15.545   8.903
  269POPC   C2B 7556  44.673  15.581   8.440
  269POPC   C3B 7557  44.754  15.288   8.103
  269POPC   C4B 7558  44.976  15.243   7.718
  270POPC   NC3 7559  39.807   0.672   9.469
  270POPC   PO4 7560  40.314   0.219   9.415
  270POPC   GL1 7561  40.059   0.434   9.076
  270POPC   GL2 7562  39.651   0.438   9.044
  270POPC   C1A 7563  39.955   0.405   8.638
  270POPC   D2A 7564  40.061   0.605   8.280
  270POPC   C3A 7565  40.148   0.390   7.920
  270POPC   C4A 7566  40.319   0.510   7.518
  270POPC   C1B 7567  39.600   0.773   8.718
  270POPC   C2B 7568  39.544   0.804   8.248
  270POPC   C3B 7569  39.525   0.643   7.796
  270POPC   C4B 7570  39.824   0.441   7.518
  271POPC   NC3 7571  34.999  39.920   9.432
  271POPC   PO4 7572  34.340  39.780   9.548
  271POPC   GL1 7573  34.454  40.129   9.258
  271POPC   GL2 7574  34.788  40.179   9.055
  271POPC   C1A 7575  34.326  40.087   8.844
  271POPC   D2A 7576  34.633  39.886   8.579
  271POPC   C3A 7577  34.665  40.076   8.178
  271POPC   C4A 7578  34.649  39.825   7.790
  271POPC   C1B 7579  34.686  40.427   8.688
  271POPC   C2B 7580  34.329  40.470   8.446
  271POPC   C3B 7581  34.245  40.341   8.042
  271POPC   C4B 7582  34.423  40.275   7.646
  272POPC   NC3 7583  27.224   1.526   9.499
  272POPC   PO4 7584  27.615   0.915   9.531
  272POPC   GL1 7585  27.606   1.121   9.123
  272POPC   GL2 7586  27.642   1.453   9.084
  272POPC   C1A 7587  27.815   1.083   8.728
  272POPC   D2A 7588  27.857   1.290   8.326
  272POPC   C3A 7589  27.656   1.024   8.059
  272POPC   C4A 7590  27.310   1.099   7.791
  272POPC   C1B 7591  27.506   1.480   8.650
  272POPC   C2B 7592  27.342   1.399   8.228
  272POPC   C3B 7593  27.599   1.513   7.885
  272POPC   C4B 7594  27.987   1.337   7.816
  273POPC   NC3 7595  14.384  38.822   9.703
  273POPC   PO4 7596  14.233  39.431   9.444
  273POPC   GL1 7597  14.417  39.206   9.141
  273POPC   GL2 7598  14.345  39.465   8.901
  273POPC   C1A 7599  14.531  39.009   8.782
  273POPC   D2A 7600  14.513  39.234   8.394
  273POPC   C3A 7601  14.477  38.955   8.036
  273POPC   C4A 7602  14.520  39.005   7.642
  273POPC   C1B 7603  14.066  39.166   8.678
  273POPC   C2B 7604  14.028  39.121   8.237
  273POPC   C3B 7605  14.261  39.393   7.926
  273POPC   C4B 7606  14.347  39.441   7.464
  274POPC   NC3 7607  36.735  39.274   9.540
  274POPC   PO4 7608  37.072  39.794   9.739
  274POPC   GL1 7609  37.048  39.550   9.258
  274POPC   GL2 7610  37.074  39.162   9.167
  274POPC   C1A 7611  36.894  39.463   8.797
  274POPC   D2A 7612  36.752  39.769   8.464
  274POPC   C3A 7613  36.816  39.570   8.069
  274POPC   C4A 7614  36.949  39.392   7.678
  274POPC   C1B 7615  36.760  38.969   8.819
  274POPC   C2B 7616  36.629  39.161   8.418
  274POPC   C3B 7617  36.725  39.037   8.018
  274POPC   C4B 7618  37.135  38.971   7.877
  275POPC   NC3 7619   6.154  21.024   9.466
  275POPC   PO4 7620   5.576  21.352   9.531
  275POPC   GL1 7621   5.723  21.436   9.133
  275POPC   GL2 7622   5.712  21.136   9.002
  275POPC   C1A 7623   6.058  21.475   8.798
  275POPC   D2A 7624   6.088  21.567   8.332
  275POPC   C3A 7625   5.823  21.399   7.992
  275POPC   C4A 7626   6.059  21.483   7.616
  275POPC   C1B 7627   6.056  20.970   8.737
  275POPC   C2B 7628   6.358  21.146   8.420
  275POPC   C3B 7629   6.335  21.195   7.981
  275POPC   C4B 7630   6.056  20.966   7.715
  276POPC   NC3 7631  38.920  10.650   9.408
  276POPC   PO4 7632  39.329  10.107   9.509
  276POPC   GL1 7633  39.336  10.461   9.183
  276POPC   GL2 7634  39.356  10.853   9.236
  276POPC   C1A 7635  39.173  10.435   8.740
  276POPC   D2A 7636  39.008  10.211   8.358
  276POPC   C3A 7637  39.159  10.363   7.947
  276POPC   C4A 7638  39.055  10.366   7.488
  276POPC   C1B 7639  39.471  10.851   8.794
  276POPC   C2B 7640  39.377  10.731   8.361
  276POPC   C3B 7641  39.450  10.803   7.936
  276POPC   C4B 7642  39.049  10.837   7.718
  277POPC   NC3 7643  27.608  37.884   9.724
  277POPC   PO4 7644  27.588  37.234   9.825
  277POPC   GL1 7645  27.572  37.295   9.327
  277POPC   GL2 7646  27.374  37.582   9.211
  277POPC   C1A 7647  27.694  37.359   8.850
  277POPC   D2A 7648  27.850  37.149   8.460
  277POPC   C3A 7649  27.951  37.408   8.089
  277POPC   C4A 7650  27.737  37.491   7.698
  277POPC   C1B 7651  27.167  37.426   8.800
  277POPC   C2B 7652  26.957  37.465   8.405
  277POPC   C3B 7653  27.147  37.469   7.982
  277POPC   C4B 7654  27.343  37.845   7.839
  278POPC   NC3 7655  40.161  27.056   9.442
  278POPC   PO4 7656  40.136  27.813   9.576
  278POPC   GL1 7657  40.135  27.758   9.164
  278POPC   GL2 7658  40.389  27.989   9.138
  278POPC   C1A 7659  39.964  27.578   8.784
  278POPC   D2A 7660  39.881  27.724   8.371
  278POPC   C3A 7661  39.707  27.431   8.091
  278POPC   C4A 7662  40.011  27.265   7.796
  278POPC   C1B 7663  40.440  27.783   8.749
  278POPC   C2B 7664  40.409  27.576   8.359
  278POPC   C3B 7665  40.269  27.664   7.969
  278POPC   C4B 7666  39.897  27.782   7.792
  279POPC   NC3 7667  31.168  40.891   9.244
  279POPC   PO4 7668  31.616  40.470   9.446
  279POPC   GL1 7669  31.606  40.676   9.065
  279POPC   GL2 7670  31.751  41.015   9.147
  279POPC   C1A 7671  31.336  40.626   8.690
  279POPC   D2A 7672  31.315  40.351   8.360
  279POPC   C3A 7673  31.453  40.537   8.019
  279POPC   C4A 7674  31.276  40.514   7.641
  279POPC   C1B 7675  31.628  41.063   8.698
  279POPC   C2B 7676  31.508  41.068   8.247
  279POPC   C3B 7677  31.655  40.970   7.830
  279POPC   C4B 7678  31.835  41.121   7.458
  280POPC   NC3 7679   4.011  31.826   9.313
  280POPC   PO4 7680   3.480  31.697   9.740
  280POPC   GL1 7681   3.459  31.552   9.281
  280POPC   GL2 7682   3.546  31.802   9.117
  280POPC   C1A 7683   3.394  31.401   8.807
  280POPC   D2A 7684   3.669  31.564   8.418
  280POPC   C3A 7685   3.709  31.286   8.070
  280POPC   C4A 7686   3.519  31.022   7.767
  280POPC   C1B 7687   3.419  31.891   8.726
  280POPC   C2B 7688   3.191  31.733   8.384
  280POPC   C3B 7689   3.204  31.445   8.043
  280POPC   C4B 7690   3.425  31.504   7.684
  281POPC   NC3 7691   6.050  40.300   9.442
  281POPC   PO4 7692   5.842  39.668   9.498
  281POPC   GL1 7693   6.128  39.838   9.198
  281POPC   GL2 7694   5.971  39.598   8.981
  281POPC   C1A 7695   6.126  40.060   8.817
  281POPC   D2A 7696   5.939  39.826   8.469
  281POPC   C3A 7697   5.777  40.036   8.099
  281POPC   C4A 7698   6.024  40.199   7.788
  281POPC   C1B 7699   5.622  39.386   8.763
  281POPC   C2B 7700   5.417  39.343   8.339
  281POPC   C3B 7701   5.553  39.567   7.983
  281POPC   C4B 7702   5.861  39.726   7.673
  282POPC   NC3 7703   6.971  28.424   9.609
  282POPC   PO4 7704   6.689  27.834   9.763
  282POPC   GL1 7705   6.703  28.041   9.332
  282POPC   GL2 7706   6.551  28.381   9.285
  282POPC   C1A 7707   6.884  28.156   8.905
  282POPC   D2A 7708   6.645  28.252   8.522
  282POPC   C3A 7709   6.634  28.156   8.062
  282POPC   C4A 7710   6.404  28.362   7.728
  282POPC   C1B 7711   6.827  28.639   9.010
  282POPC   C2B 7712   6.984  28.636   8.581
  282POPC   C3B 7713   6.727  28.654   8.195
  282POPC   C4B 7714   6.870  28.570   7.797
  283POPC   NC3 7715  37.810  35.947   9.533
  283POPC   PO4 7716  37.735  36.500   9.107
  283POPC   GL1 7717  37.860  36.099   8.977
  283POPC   GL2 7718  37.875  35.771   9.016
  283POPC   C1A 7719  37.747  36.069   8.568
  283POPC   D2A 7720  37.547  36.338   8.244
  283POPC   C3A 7721  37.830  36.331   7.908
  283POPC   C4A 7722  37.858  36.290   7.478
  283POPC   C1B 7723  37.681  35.566   8.636
  283POPC   C2B 7724  37.706  35.708   8.198
  283POPC   C3B 7725  37.454  35.956   7.897
  283POPC   C4B 7726  37.445  35.954   7.427
  284POPC   NC3 7727  34.605  11.090   9.532
  284POPC   PO4 7728  34.057  11.530   9.476
  284POPC   GL1 7729  34.337  11.391   9.147
  284POPC   GL2 7730  34.724  11.390   9.133
  284POPC   C1A 7731  34.439  11.303   8.719
  284POPC   D2A 7732  34.808  11.326   8.444
  284POPC   C3A 7733  34.670  11.337   8.020
  284POPC   C4A 7734  34.376  11.253   7.698
  284POPC   C1B 7735  34.892  11.028   8.890
  284POPC   C2B 7736  35.043  10.889   8.485
  284POPC   C3B 7737  34.969  10.929   8.086
  284POPC   C4B 7738  34.740  10.882   7.761
  285POPC   NC3 7739   0.856  27.948   9.574
  285POPC   PO4 7740   1.308  27.347   9.667
  285POPC   GL1 7741   1.340  27.457   9.173
  285POPC   GL2 7742   1.104  27.751   9.055
  285POPC   C1A 7743   1.346  27.411   8.724
  285POPC   D2A 7744   1.038  27.467   8.414
  285POPC   C3A 7745   1.220  27.612   8.072
  285POPC   C4A 7746   1.166  27.508   7.677
  285POPC   C1B 7747   1.468  27.907   8.822
  285POPC   C2B 7748   1.611  27.903   8.377
  285POPC   C3B 7749   1.446  28.054   7.954
  285POPC   C4B 7750   1.437  27.906   7.505
  286POPC   NC3 7751   6.069  31.877   9.492
  286POPC   PO4 7752   6.174  32.565   9.512
  286POPC   GL1 7753   5.877  32.459   9.168
  286POPC   GL2 7754   5.861  32.105   9.104
  286POPC   C1A 7755   5.950  32.531   8.742
  286POPC   D2A 7756   6.188  32.477   8.378
  286POPC   C3A 7757   5.939  32.459   8.044
  286POPC   C4A 7758   5.836  32.494   7.658
  286POPC   C1B 7759   6.074  32.042   8.681
  286POPC   C2B 7760   5.892  32.015   8.298
  286POPC   C3B 7761   5.966  31.985   7.879
  286POPC   C4B 7762   5.928  32.057   7.423
  287POPC   NC3 7763   5.534  15.731   9.279
  287POPC   PO4 7764   5.048  15.857   9.654
  287POPC   GL1 7765   4.968  15.781   9.209
  287POPC   GL2 7766   5.159  15.543   9.028
  287POPC   C1A 7767   5.004  15.948   8.765
  287POPC   D2A 7768   4.889  16.150   8.364
  287POPC   C3A 7769   5.121  16.152   7.952
  287POPC   C4A 7770   4.929  16.067   7.540
  287POPC   C1B 7771   5.291  15.557   8.631
  287POPC   C2B 7772   5.196  15.737   8.237
  287POPC   C3B 7773   5.275  15.686   7.801
  287POPC   C4B 7774   5.676  15.662   7.645
  288POPC   NC3 7775  37.527  26.966   9.416
  288POPC   PO4 7776  37.936  26.655   8.997
  288POPC   GL1 7777  37.696  27.060   8.938
  288POPC   GL2 7778  37.311  27.009   8.958
  288POPC   C1A 7779  37.773  27.174   8.522
  288POPC   D2A 7780  37.930  26.778   8.316
  288POPC   C3A 7781  37.910  26.831   7.883
  288POPC   C4A 7782  37.586  27.130   7.737
  288POPC   C1B 7783  37.416  26.802   8.586
  288POPC   C2B 7784  37.444  26.848   8.163
  288POPC   C3B 7785  37.512  26.527   7.865
  288POPC   C4B 7786  37.591  26.547   7.481
  289POPC   NC3 7787  27.249  11.769   9.643
  289POPC   PO4 7788  26.588  11.810   9.430
  289POPC   GL1 7789  26.777  11.824   9.044
  289POPC   GL2 7790  26.856  12.162   8.952
  289POPC   C1A 7791  26.811  11.831   8.569
  289POPC   D2A 7792  26.921  12.178   8.292
  289POPC   C3A 7793  27.097  11.982   7.959
  289POPC   C4A 7794  26.961  11.897   7.553
  289POPC   C1B 7795  26.438  12.124   8.752
  289POPC   C2B 7796  26.359  12.010   8.311
  289POPC   C3B 7797  26.598  11.964   7.922
  289POPC   C4B 7798  26.530  12.103   7.459
  290POPC   NC3 7799  16.341  44.085   9.308
  290POPC   PO4 7800  15.786  43.783   9.605
  290POPC   GL1 7801  15.832  43.921   9.174
  290POPC   GL2 7802  16.102  43.664   9.144
  290POPC   C1A 7803  15.660  43.972   8.737
  290POPC   D2A 7804  15.755  43.838   8.311
  290POPC   C3A 7805  15.568  43.996   7.913
  290POPC   C4A 7806  15.802  44.083   7.505
  290POPC   C1B 7807  16.157  43.871   8.730
  290POPC   C2B 7808  16.217  44.083   8.365
  290POPC   C3B 7809  16.107  44.021   7.962
  290POPC   C4B 7810  16.340  44.115   7.638
  291POPC   NC3 7811  13.198  34.356   9.131
  291POPC   PO4 7812  13.685  34.635   9.473
  291POPC   GL1 7813  13.676  34.658   9.068
  291POPC   GL2 7814  13.420  34.926   9.071
  291POPC   C1A 7815  13.716  34.349   8.723
  291POPC   D2A 7816  13.491  34.232   8.344
  291POPC   C3A 7817  13.486  34.534   8.012
  291POPC   C4A 7818  13.693  34.449   7.625
  291POPC   C1B 7819  13.426  34.787   8.633
  291POPC   C2B 7820  13.489  35.017   8.266
  291POPC   C3B 7821  13.337  35.058   7.863
  291POPC   C4B 7822  13.282  34.735   7.553
  292POPC   NC3 7823  23.507   4.011   9.444
  292POPC   PO4 7824  23.666   3.398   9.534
  292POPC   GL1 7825  23.619   3.454   9.126
  292POPC   GL2 7826  23.993   3.344   9.124
  292POPC   C1A 7827  23.414   3.318   8.737
  292POPC   D2A 7828  23.540   3.208   8.306
  292POPC   C3A 7829  23.518   3.536   7.984
  292POPC   C4A 7830  23.561   3.615   7.540
  292POPC   C1B 7831  23.919   3.566   8.746
  292POPC   C2B 7832  24.040   3.442   8.372
  292POPC   C3B 7833  24.007   3.354   7.961
  292POPC   C4B 7834  24.062   3.572   7.566
  293POPC   NC3 7835   1.146  26.921   9.763
  293POPC   PO4 7836   1.704  26.520   9.578
  293POPC   GL1 7837   1.413  26.700   9.230
  293POPC   GL2 7838   1.137  26.991   9.258
  293POPC   C1A 7839   1.513  26.895   8.801
  293POPC   D2A 7840   1.462  26.933   8.347
  293POPC   C3A 7841   1.203  26.598   8.213
  293POPC   C4A 7842   0.922  26.550   7.905
  293POPC   C1B 7843   0.938  27.158   8.874
  293POPC   C2B 7844   0.967  26.970   8.462
  293POPC   C3B 7845   1.065  27.085   8.029
  293POPC   C4B 7846   0.812  27.090   7.679
  294POPC   NC3 7847  12.977   6.621   9.444
  294POPC   PO4 7848  12.369   6.202   9.451
  294POPC   GL1 7849  12.577   6.496   9.162
  294POPC   GL2 7850  12.564   6.875   9.167
  294POPC   C1A 7851  12.779   6.525   8.774
  294POPC   D2A 7852  12.598   6.521   8.378
  294POPC   C3A 7853  12.917   6.449   8.104
  294POPC   C4A 7854  13.045   6.436   7.720
  294POPC   C1B 7855  12.583   6.992   8.724
  294POPC   C2B 7856  12.878   6.935   8.352
  294POPC   C3B 7857  12.999   6.919   7.917
  294POPC   C4B 7858  13.152   6.908   7.480
  295POPC   NC3 7859  12.613  32.097   9.566
  295POPC   PO4 7860  13.288  32.352   9.514
  295POPC   GL1 7861  13.073  32.287   9.124
  295POPC   GL2 7862  12.966  32.005   9.192
  295POPC   C1A 7863  12.857  32.451   8.760
  295POPC   D2A 7864  12.756  32.552   8.354
  295POPC   C3A 7865  12.997  32.318   8.056
  295POPC   C4A 7866  12.881  32.176   7.650
  295POPC   C1B 7867  12.791  31.911   8.824
  295POPC   C2B 7868  12.817  32.036   8.428
  295POPC   C3B 7869  12.610  31.936   8.045
  295POPC   C4B 7870  12.394  31.982   7.645
  296POPC   NC3 7871  29.874   4.215   9.462
  296POPC   PO4 7872  29.585   4.848   9.308
  296POPC   GL1 7873  29.967   4.581   9.049
  296POPC   GL2 7874  30.019   4.188   8.983
  296POPC   C1A 7875  29.957   4.492   8.586
  296POPC   D2A 7876  29.809   4.622   8.167
  296POPC   C3A 7877  29.989   4.393   7.815
  296POPC   C4A 7878  30.113   4.377   7.382
  296POPC   C1B 7879  29.947   3.927   8.618
  296POPC   C2B 7880  29.904   4.073   8.239
  296POPC   C3B 7881  29.756   3.901   7.907
  296POPC   C4B 7882  29.881   3.960   7.526
  297POPC   NC3 7883  31.570  32.913   9.541
  297POPC   PO4 7884  32.329  32.911   9.487
  297POPC   GL1 7885  32.063  33.004   9.143
  297POPC   GL2 7886  31.894  32.688   9.075
  297POPC   C1A 7887  32.206  33.125   8.717
  297POPC   D2A 7888  32.453  32.985   8.364
  297POPC   C3A 7889  32.417  33.109   7.929
  297POPC   C4A 7890  32.473  32.872   7.534
  297POPC   C1B 7891  31.728  32.937   8.714
  297POPC   C2B 7892  31.927  33.007   8.306
  297POPC   C3B 7893  31.975  32.797   7.937
  297POPC   C4B 7894  32.016  33.049   7.601
  298POPC   NC3 7895  38.654  28.158   9.413
  298POPC   PO4 7896  38.026  28.447   9.520
  298POPC   GL1 7897  38.116  28.372   9.130
  298POPC   GL2 7898  38.456  28.522   9.091
  298POPC   C1A 7899  38.222  28.260   8.714
  298POPC   D2A 7900  38.637  28.223   8.513
  298POPC   C3A 7901  38.635  28.216   8.069
  298POPC   C4A 7902  38.406  28.034   7.738
  298POPC   C1B 7903  38.833  28.572   8.828
  298POPC   C2B 7904  38.887  28.661   8.413
  298POPC   C3B 7905  38.493  28.707   8.199
  298POPC   C4B 7906  38.276  28.519   7.834
  299POPC   NC3 7907  34.466  37.391   9.495
  299POPC   PO4 7908  34.270  38.051   9.542
  299POPC   GL1 7909  34.451  37.870   9.173
  299POPC   GL2 7910  34.785  37.718   9.212
  299POPC   C1A 7911  34.418  37.634   8.788
  299POPC   D2A 7912  34.374  37.449   8.387
  299POPC   C3A 7913  34.393  37.714   8.050
  299POPC   C4A 7914  34.442  37.602   7.652
  299POPC   C1B 7915  34.941  37.524   8.833
  299POPC   C2B 7916  34.846  37.611   8.400
  299POPC   C3B 7917  34.899  37.616   7.943
  299POPC   C4B 7918  35.234  37.835   7.747
  300POPC   NC3 7919  11.891  20.556   9.544
  300POPC   PO4 7920  12.509  20.946   9.635
  300POPC   GL1 7921  12.328  20.896   9.237
  300POPC   GL2 7922  12.009  21.023   9.280
  300POPC   C1A 7923  12.209  20.797   8.813
  300POPC   D2A 7924  12.122  20.527   8.472
  300POPC   C3A 7925  12.075  20.675   8.064
  300POPC   C4A 7926  12.066  20.395   7.770
  300POPC   C1B 7927  11.803  21.093   8.888
  300POPC   C2B 7928  11.794  20.960   8.479
  300POPC   C3B 7929  11.641  20.915   8.080
  300POPC   C4B 7930  11.636  20.685   7.714
  301POPC   NC3 7931  32.880   9.047   9.692
  301POPC   PO4 7932  32.196   9.005   9.628
  301POPC   GL1 7933  32.351   8.949   9.181
  301POPC   GL2 7934  32.065   8.786   9.061
  301POPC   C1A 7935  32.370   9.080   8.748
  301POPC   D2A 7936  32.117   9.070   8.372
  301POPC   C3A 7937  32.361   9.073   7.976
  301POPC   C4A 7938  32.493   8.962   7.549
  301POPC   C1B 7939  31.958   8.642   8.685
  301POPC   C2B 7940  31.747   8.710   8.308
  301POPC   C3B 7941  32.053   8.684   7.975
  301POPC   C4B 7942  32.051   8.721   7.514
  302POPC   NC3 7943  37.824  40.745   9.590
  302POPC   PO4 7944  37.228  40.418   9.473
  302POPC   GL1 7945  37.446  40.752   9.100
  302POPC   GL2 7946  37.750  40.962   9.052
  302POPC   C1A 7947  37.736  40.603   8.733
  302POPC   D2A 7948  37.834  40.517   8.340
  302POPC   C3A 7949  37.609  40.730   8.016
  302POPC   C4A 7950  37.750  40.623   7.615
  302POPC   C1B 7951  37.520  41.099   8.664
  302POPC   C2B 7952  37.563  41.374   8.269
  302POPC   C3B 7953  37.614  41.224   7.809
  302POPC   C4B 7954  37.347  40.905   7.581
  303POPC   NC3 7955  13.806  37.178   9.414
  303POPC   PO4 7956  13.562  37.847   9.540
  303POPC   GL1 7957  13.578  37.574   9.173
  303POPC   GL2 7958  13.343  37.313   9.157
  303POPC   C1A 7959  13.722  37.609   8.753
  303POPC   D2A 7960  13.660  37.905   8.406
  303POPC   C3A 7961  13.680  37.699   8.007
  303POPC   C4A 7962  13.709  37.847   7.623
  303POPC   C1B 7963  13.285  37.322   8.748
  303POPC   C2B 7964  13.398  37.450   8.354
  303POPC   C3B 7965  13.327  37.299   7.939
  303POPC   C4B 7966  13.531  37.361   7.557
  304POPC   NC3 7967  25.202  27.410   9.479
  304POPC   PO4 7968  25.320  28.121   9.470
  304POPC   GL1 7969  25.186  27.792   9.161
  304POPC   GL2 7970  24.961  27.528   9.034
  304POPC   C1A 7971  25.421  27.523   8.841
  304POPC   D2A 7972  25.310  27.299   8.449
  304POPC   C3A 7973  25.476  27.466   8.077
  304POPC   C4A 7974  25.157  27.594   7.788
  304POPC   C1B 7975  24.970  27.849   8.703
  304POPC   C2B 7976  24.722  27.982   8.346
  304POPC   C3B 7977  24.910  28.075   7.972
  304POPC   C4B 7978  24.952  28.016   7.553
  305POPC   NC3 7979  25.488   1.514   9.635
  305POPC   PO4 7980  25.866   2.064   9.501
  305POPC   GL1 7981  25.916   1.870   9.155
  305POPC   GL2 7982  25.569   1.782   9.175
  305POPC   C1A 7983  26.195   1.809   8.773
  305POPC   D2A 7984  26.355   2.076   8.456
  305POPC   C3A 7985  26.206   1.979   8.030
  305POPC   C4A 7986  26.257   2.265   7.701
  305POPC   C1B 7987  25.626   1.889   8.746
  305POPC   C2B 7988  25.847   1.821   8.393
  305POPC   C3B 7989  25.687   1.849   7.997
  305POPC   C4B 7990  25.817   1.981   7.635
  306POPC   NC3 7991   0.506  44.135   9.580
  306POPC   PO4 7992   0.347  43.502   9.560
  306POPC   GL1 7993   0.247  43.726   9.150
  306POPC   GL2 7994   0.153  44.086   9.174
  306POPC   C1A 7995   0.337  43.546   8.714
  306POPC   D2A 7996   0.711  43.689   8.462
  306POPC   C3A 7997   0.633  43.675   8.008
  306POPC   C4A 7998   0.345  43.531   7.687
  306POPC   C1B 7999   0.380  44.048   8.762
  306POPC   C2B 8000   0.275  43.935   8.314
  306POPC   C3B 8001   0.314  44.049   7.864
  306POPC   C4B 8002   0.623  44.269   7.599
  307POPC   NC3 8003  24.191  36.538   9.817
  307POPC   PO4 8004  24.657  36.043   9.636
  307POPC   GL1 8005  24.507  35.962   9.169
  307POPC   GL2 8006  24.213  35.776   9.106
  307POPC   C1A 8007  24.657  36.163   8.784
  307POPC   D2A 8008  24.876  36.290   8.451
  307POPC   C3A 8009  24.685  36.167   8.081
  307POPC   C4A 8010  24.820  36.082   7.686
  307POPC   C1B 8011  24.183  36.060   8.697
  307POPC   C2B 8012  24.207  36.252   8.272
  307POPC   C3B 8013  24.275  36.426   7.824
  307POPC   C4B 8014  24.105  36.470   7.370
  308POPC   NC3 8015   9.460  42.656   9.457
  308POPC   PO4 8016   9.914  43.198   9.584
  308POPC   GL1 8017   9.848  42.910   9.223
  308POPC   GL2 8018  10.107  42.989   9.013
  308POPC   C1A 8019   9.690  42.775   8.796
  308POPC   D2A 8020   9.751  42.978   8.331
  308POPC   C3A 8021   9.552  42.949   7.892
  308POPC   C4A 8022   9.913  42.897   7.615
  308POPC   C1B 8023   9.807  43.248   8.752
  308POPC   C2B 8024   9.596  43.459   8.366
  308POPC   C3B 8025   9.735  43.408   7.924
  308POPC   C4B 8026   9.657  43.301   7.458
  309POPC   NC3 8027   0.840  28.861   9.520
  309POPC   PO4 8028   0.148  28.830   9.467
  309POPC   GL1 8029   0.464  29.035   9.207
  309POPC   GL2 8030   0.605  28.682   9.098
  309POPC   C1A 8031   0.421  29.309   8.831
  309POPC   D2A 8032   0.527  29.539   8.465
  309POPC   C3A 8033   0.340  29.391   8.091
  309POPC   C4A 8034   0.603  29.134   7.862
  309POPC   C1B 8035   0.328  28.818   8.776
  309POPC   C2B 8036   0.240  28.973   8.387
  309POPC   C3B 8037   0.151  28.902   7.990
  309POPC   C4B 8038   0.311  28.776   7.633
  310POPC   NC3 8039  30.629  23.765   9.440
  310POPC   PO4 8040  30.154  23.361   9.376
  310POPC   GL1 8041  30.441  23.494   9.027
  310POPC   GL2 8042  30.819  23.558   9.016
  310POPC   C1A 8043  30.517  23.650   8.597
  310POPC   D2A 8044  30.393  23.524   8.178
  310POPC   C3A 8045  30.341  23.795   7.856
  310POPC   C4A 8046  30.547  24.133   7.644
  310POPC   C1B 8047  31.032  23.538   8.607
  310POPC   C2B 8048  30.894  23.717   8.217
  310POPC   C3B 8049  30.840  23.547   7.817
  310POPC   C4B 8050  31.204  23.402   7.526
  311POPC   NC3 8051  31.258  11.045   9.391
  311POPC   PO4 8052  31.782  11.458   9.531
  311POPC   GL1 8053  31.720  11.222   9.166
  311POPC   GL2 8054  31.419  11.209   8.953
  311POPC   C1A 8055  31.858  11.180   8.748
  311POPC   D2A 8056  31.538  11.240   8.450
  311POPC   C3A 8057  31.598  10.962   8.104
  311POPC   C4A 8058  31.508  11.137   7.668
  311POPC   C1B 8059  31.120  10.981   8.668
  311POPC   C2B 8060  31.104  11.000   8.228
  311POPC   C3B 8061  31.289  11.369   8.019
  311POPC   C4B 8062  31.217  11.561   7.581
  312POPC   NC3 8063  37.668  28.762   9.538
  312POPC   PO4 8064  37.354  28.143   9.509
  312POPC   GL1 8065  37.570  28.366   9.204
  312POPC   GL2 8066  37.320  28.632   9.168
  312POPC   C1A 8067  37.700  28.224   8.810
  312POPC   D2A 8068  37.775  28.404   8.439
  312POPC   C3A 8069  37.946  28.210   8.082
  312POPC   C4A 8070  37.842  28.313   7.678
  312POPC   C1B 8071  37.381  28.662   8.749
  312POPC   C2B 8072  37.261  28.467   8.394
  312POPC   C3B 8073  37.437  28.345   8.012
  312POPC   C4B 8074  37.409  28.570   7.626
  313POPC   NC3 8075   2.277  43.760   9.543
  313POPC   PO4 8076   1.857  44.264   9.585
  313POPC   GL1 8077   2.165  44.154   9.229
  313POPC   GL2 8078   1.991  43.810   9.109
  313POPC   C1A 8079   2.318  44.000   8.799
  313POPC   D2A 8080   2.102  43.739   8.494
  313POPC   C3A 8081   1.859  43.928   8.178
  313POPC   C4A 8082   1.902  43.858   7.766
  313POPC   C1B 8083   2.327  43.504   8.915
  313POPC   C2B 8084   2.488  43.395   8.481
  313POPC   C3B 8085   2.372  43.596   8.050
  313POPC   C4B 8086   2.328  43.681   7.587
  314POPC   NC3 8087  36.267  10.203   9.458
  314POPC   PO4 8088  35.866  10.885   9.488
  314POPC   GL1 8089  36.021  10.651   9.139
  314POPC   GL2 8090  35.958  10.895   8.905
  314POPC   C1A 8091  36.244  10.485   8.767
  314POPC   D2A 8092  36.187  10.602   8.325
  314POPC   C3A 8093  36.140  10.229   8.038
  314POPC   C4A 8094  35.943  10.139   7.643
  314POPC   C1B 8095  36.338  10.990   8.754
  314POPC   C2B 8096  36.620  10.877   8.418
  314POPC   C3B 8097  36.408  10.948   7.991
  314POPC   C4B 8098  36.024  10.696   7.833
  315POPC   NC3 8099  28.412   2.466   9.792
  315POPC   PO4 8100  28.425   1.883   9.518
  315POPC   GL1 8101  28.285   1.808   9.115
  315POPC   GL2 8102  28.201   2.120   9.086
  315POPC   C1A 8103  28.530   1.851   8.766
  315POPC   D2A 8104  28.530   2.045   8.399
  315POPC   C3A 8105  28.646   1.744   8.122
  315POPC   C4A 8106  28.711   1.834   7.745
  315POPC   C1B 8107  28.046   2.041   8.671
  315POPC   C2B 8108  28.087   2.242   8.243
  315POPC   C3B 8109  28.402   2.229   7.889
  315POPC   C4B 8110  28.528   2.163   7.426
  316POPC   NC3 8111   9.414  26.389   9.451
  316POPC   PO4 8112   8.795  26.761   9.654
  316POPC   GL1 8113   8.860  26.676   9.225
  316POPC   GL2 8114   8.980  26.964   9.060
  316POPC   C1A 8115   8.610  26.704   8.823
  316POPC   D2A 8116   8.364  26.733   8.458
  316POPC   C3A 8117   8.615  26.746   8.079
  316POPC   C4A 8118   8.827  26.710   7.672
  316POPC   C1B 8119   9.134  27.218   8.726
  316POPC   C2B 8120   9.181  27.295   8.296
  316POPC   C3B 8121   9.245  27.284   7.873
  316POPC   C4B 8122   9.325  26.887   7.683
  317POPC   NC3 8123  43.111  30.285   9.444
  317POPC   PO4 8124  42.948  29.616   9.417
  317POPC   GL1 8125  42.913  29.952   9.121
  317POPC   GL2 8126  43.283  30.053   9.019
  317POPC   C1A 8127  42.909  30.255   8.769
  317POPC   D2A 8128  43.229  30.178   8.427
  317POPC   C3A 8129  43.024  30.201   8.032
  317POPC   C4A 8130  42.663  30.419   7.873
  317POPC   C1B 8131  43.124  29.757   8.708
  317POPC   C2B 8132  43.049  29.541   8.329
  317POPC   C3B 8133  43.087  29.706   7.924
  317POPC   C4B 8134  43.408  30.031   7.771
  318POPC   NC3 8135  24.836  25.542   9.477
  318POPC   PO4 8136  24.401  25.094   9.560
  318POPC   GL1 8137  24.596  25.117   9.136
  318POPC   GL2 8138  24.633  25.465   9.026
  318POPC   C1A 8139  24.431  25.006   8.716
  318POPC   D2A 8140  24.464  25.095   8.283
  318POPC   C3A 8141  24.135  25.170   8.076
  318POPC   C4A 8142  24.108  25.121   7.677
  318POPC   C1B 8143  24.638  25.456   8.601
  318POPC   C2B 8144  24.683  25.548   8.201
  318POPC   C3B 8145  24.516  25.428   7.843
  318POPC   C4B 8146  24.702  25.600   7.496
  319POPC   NC3 8147   7.715   6.379   9.389
  319POPC   PO4 8148   7.028   6.228   9.408
  319POPC   GL1 8149   7.069   6.360   8.992
  319POPC   GL2 8150   7.372   6.347   9.009
  319POPC   C1A 8151   7.159   6.728   8.694
  319POPC   D2A 8152   7.378   6.944   8.330
  319POPC   C3A 8153   7.266   6.725   7.938
  319POPC   C4A 8154   7.210   6.281   7.806
  319POPC   C1B 8155   7.681   6.321   8.731
  319POPC   C2B 8156   7.770   6.587   8.410
  319POPC   C3B 8157   7.660   6.385   8.057
  319POPC   C4B 8158   7.702   6.316   7.659
  320POPC   NC3 8159  23.729  30.174   9.401
  320POPC   PO4 8160  24.132  29.707   9.622
  320POPC   GL1 8161  24.014  29.773   9.167
  320POPC   GL2 8162  23.772  30.013   8.941
  320POPC   C1A 8163  23.852  29.539   8.804
  320POPC   D2A 8164  23.509  29.651   8.520
  320POPC   C3A 8165  23.600  29.593   8.078
  320POPC   C4A 8166  23.811  29.903   7.809
  320POPC   C1B 8167  23.408  30.293   8.811
  320POPC   C2B 8168  23.305  30.415   8.397
  320POPC   C3B 8169  23.512  30.264   8.030
  320POPC   C4B 8170  23.455  30.208   7.582
  321POPC   NC3 8171  20.502  30.587  10.117
  321POPC   PO4 8172  20.850  30.796   9.539
  321POPC   GL1 8173  20.756  30.774   9.094
  321POPC   GL2 8174  20.406  30.671   9.136
  321POPC   C1A 8175  20.899  30.765   8.649
  321POPC   D2A 8176  20.903  30.754   8.203
  321POPC   C3A 8177  20.546  30.987   8.019
  321POPC   C4A 8178  20.354  31.033   7.642
  321POPC   C1B 8179  20.525  30.453   8.734
  321POPC   C2B 8180  20.409  30.609   8.330
  321POPC   C3B 8181  20.121  30.678   7.973
  321POPC   C4B 8182  20.089  30.585   7.517
  322POPC   NC3 8183  10.479   1.865   9.465
  322POPC   PO4 8184  10.873   1.698   9.287
  322POPC   GL1 8185  10.668   1.983   8.982
  322POPC   GL2 8186  10.287   1.972   8.987
  322POPC   C1A 8187  10.556   2.033   8.556
  322POPC   D2A 8188  10.247   1.953   8.257
  322POPC   C3A 8189  10.382   2.007   7.832
  322POPC   C4A 8190  10.801   1.957   7.622
  322POPC   C1B 8191  10.129   2.292   8.669
  322POPC   C2B 8192  10.031   2.410   8.237
  322POPC   C3B 8193  10.144   2.454   7.785
  322POPC   C4B 8194  10.128   2.103   7.412
  323POPC   NC3 8195  33.006   1.281   9.605
  323POPC   PO4 8196  32.396   1.212   9.395
  323POPC   GL1 8197  32.721   1.369   9.148
  323POPC   GL2 8198  32.947   1.083   9.123
  323POPC   C1A 8199  32.882   1.443   8.734
  323POPC   D2A 8200  32.959   1.701   8.376
  323POPC   C3A 8201  32.918   1.521   7.964
  323POPC   C4A 8202  33.200   1.351   7.646
  323POPC   C1B 8203  33.026   0.902   8.712
  323POPC   C2B 8204  33.032   1.061   8.288
  323POPC   C3B 8205  33.086   0.907   7.859
  323POPC   C4B 8206  32.834   0.976   7.474
  324POPC   NC3 8207  10.069  40.381   9.329
  324POPC   PO4 8208  10.566  39.996   9.568
  324POPC   GL1 8209  10.632  39.990   9.150
  324POPC   GL2 8210  10.559  40.347   9.067
  324POPC   C1A 8211  10.812  39.990   8.754
  324POPC   D2A 8212  10.647  40.228   8.405
  324POPC   C3A 8213  10.557  40.066   8.018
  324POPC   C4A 8214  10.750  39.873   7.645
  324POPC   C1B 8215  10.298  40.071   8.779
  324POPC   C2B 8216  10.075  40.053   8.395
  324POPC   C3B 8217  10.087  39.758   8.041
  324POPC   C4B 8218  10.250  39.877   7.652
  325POPC   NC3 8219  10.012  24.126   9.560
  325POPC   PO4 8220   9.656  23.522   9.738
  325POPC   GL1 8221   9.726  23.539   9.281
  325POPC   GL2 8222   9.418  23.435   9.098
  325POPC   C1A 8223   9.747  23.796   8.870
  325POPC   D2A 8224   9.992  23.952   8.490
  325POPC   C3A 8225  10.032  23.694   8.119
  325POPC   C4A 8226  10.034  23.460   7.731
  325POPC   C1B 8227   9.503  23.399   8.649
  325POPC   C2B 8228   9.561  23.659   8.321
  325POPC   C3B 8229   9.557  23.540   7.891
  325POPC   C4B 8230   9.405  23.761   7.537
  326POPC   NC3 8231  30.787  42.594   9.431
  326POPC   PO4 8232  30.619  41.953   9.537
  326POPC   GL1 8233  30.644  42.141   9.165
  326POPC   GL2 8234  30.364  42.379   9.224
  326POPC   C1A 8235  30.772  42.380   8.803
  326POPC   D2A 8236  30.579  42.433   8.395
  326POPC   C3A 8237  30.857  42.446   8.051
  326POPC   C4A 8238  30.881  42.230   7.680
  326POPC   C1B 8239  30.278  42.547   8.828
  326POPC   C2B 8240  30.064  42.515   8.444
  326POPC   C3B 8241  30.184  42.576   8.079
  326POPC   C4B 8242  30.434  42.466   7.794
  327POPC   NC3 8243  11.536  34.870   9.417
  327POPC   PO4 8244  11.982  34.391   9.497
  327POPC   GL1 8245  12.140  34.485   9.101
  327POPC   GL2 8246  12.267  34.774   9.082
  327POPC   C1A 8247  12.204  34.397   8.680
  327POPC   D2A 8248  12.074  34.141   8.340
  327POPC   C3A 8249  12.105  34.408   7.988
  327POPC   C4A 8250  12.438  34.426   7.708
  327POPC   C1B 8251  12.407  34.869   8.680
  327POPC   C2B 8252  12.439  34.732   8.272
  327POPC   C3B 8253  12.276  34.890   7.881
  327POPC   C4B 8254  12.419  34.996   7.464
  328POPC   NC3 8255  35.124  14.733   9.542
  328POPC   PO4 8256  35.611  14.165   9.398
  328POPC   GL1 8257  35.438  14.517   9.199
  328POPC   GL2 8258  35.071  14.521   9.061
  328POPC   C1A 8259  35.490  14.559   8.782
  328POPC   D2A 8260  35.299  14.539   8.404
  328POPC   C3A 8261  35.574  14.318   8.098
  328POPC   C4A 8262  35.738  14.407   7.683
  328POPC   C1B 8263  35.074  14.178   8.729
  328POPC   C2B 8264  35.084  14.079   8.276
  328POPC   C3B 8265  35.100  14.422   7.955
  328POPC   C4B 8266  35.245  14.441   7.541
  329POPC   NC3 8267  37.953  37.881   9.437
  329POPC   PO4 8268  38.110  37.281   9.435
  329POPC   GL1 8269  37.772  37.498   9.130
  329POPC   GL2 8270  37.513  37.830   9.180
  329POPC   C1A 8271  37.677  37.689   8.721
  329POPC   D2A 8272  37.885  37.725   8.324
  329POPC   C3A 8273  37.732  37.698   7.903
  329POPC   C4A 8274  37.799  37.645   7.428
  329POPC   C1B 8275  37.390  38.096   8.797
  329POPC   C2B 8276  37.440  37.966   8.332
  329POPC   C3B 8277  37.333  38.154   7.911
  329POPC   C4B 8278  37.599  38.162   7.517
  330POPC   NC3 8279  36.451  37.260   9.321
  330POPC   PO4 8280  36.807  37.830   9.530
  330POPC   GL1 8281  36.996  37.715   9.164
  330POPC   GL2 8282  36.675  37.649   9.055
  330POPC   C1A 8283  37.108  37.695   8.727
  330POPC   D2A 8284  36.882  37.633   8.358
  330POPC   C3A 8285  37.122  37.697   8.003
  330POPC   C4A 8286  37.334  37.744   7.602
  330POPC   C1B 8287  36.494  37.506   8.696
  330POPC   C2B 8288  36.412  37.432   8.285
  330POPC   C3B 8289  36.561  37.618   7.922
  330POPC   C4B 8290  36.617  37.459   7.498
  331POPC   NC3 8291   0.396  21.320   9.493
  331POPC   PO4 8292  44.923  21.858   9.558
  331POPC   GL1 8293   0.052  21.615   9.161
  331POPC   GL2 8294   0.072  21.234   9.100
  331POPC   C1A 8295   0.348  21.581   8.792
  331POPC   D2A 8296   0.494  21.319   8.461
  331POPC   C3A 8297   0.617  21.394   8.036
  331POPC   C4A 8298   0.267  21.539   7.876
  331POPC   C1B 8299   0.171  20.990   8.706
  331POPC   C2B 8300   0.169  21.007   8.220
  331POPC   C3B 8301  44.992  21.111   7.799
  331POPC   C4B 8302  44.968  20.987   7.359
  332POPC   NC3 8303  27.745   3.691   9.399
  332POPC   PO4 8304  27.130   3.438   9.595
  332POPC   GL1 8305  27.369   3.441   9.154
  332POPC   GL2 8306  27.702   3.281   9.108
  332POPC   C1A 8307  27.582   3.726   8.752
  332POPC   D2A 8308  27.394   3.781   8.326
  332POPC   C3A 8309  27.681   3.756   7.982
  332POPC   C4A 8310  27.588   3.883   7.579
  332POPC   C1B 8311  27.494   3.241   8.710
  332POPC   C2B 8312  27.613   3.301   8.295
  332POPC   C3B 8313  27.455   3.317   7.873
  332POPC   C4B 8314  27.548   3.392   7.412
  333POPC   NC3 8315  20.687   7.912   9.469
  333POPC   PO4 8316  20.716   7.271   9.514
  333POPC   GL1 8317  20.624   7.499   9.179
  333POPC   GL2 8318  20.298   7.656   9.240
  333POPC   C1A 8319  20.675   7.542   8.755
  333POPC   D2A 8320  20.705   7.358   8.370
  333POPC   C3A 8321  20.747   7.567   8.032
  333POPC   C4A 8322  20.522   7.751   7.769
  333POPC   C1B 8323  20.218   7.334   8.941
  333POPC   C2B 8324  20.195   7.318   8.503
  333POPC   C3B 8325  20.263   7.330   8.057
  333POPC   C4B 8326  20.208   7.039   7.751
  334POPC   NC3 8327  10.153  25.113   9.659
  334POPC   PO4 8328   9.510  25.278   9.639
  334POPC   GL1 8329   9.685  25.294   9.290
  334POPC   GL2 8330   9.376  25.186   9.151
  334POPC   C1A 8331   9.773  25.306   8.847
  334POPC   D2A 8332   9.880  25.460   8.429
  334POPC   C3A 8333   9.814  25.213   8.074
  334POPC   C4A 8334   9.693  25.352   7.709
  334POPC   C1B 8335   9.344  24.976   8.807
  334POPC   C2B 8336   9.504  25.064   8.449
  334POPC   C3B 8337   9.434  24.850   8.117
  334POPC   C4B 8338   9.376  24.971   7.738
  335POPC   NC3 8339   0.260   8.006   9.340
  335POPC   PO4 8340   0.831   8.378   9.456
  335POPC   GL1 8341   0.667   8.196   9.092
  335POPC   GL2 8342   0.377   8.385   9.007
  335POPC   C1A 8343   0.543   8.018   8.693
  335POPC   D2A 8344   0.232   8.158   8.393
  335POPC   C3A 8345   0.342   8.086   7.964
  335POPC   C4A 8346   0.741   7.941   7.867
  335POPC   C1B 8347   0.002   8.494   8.765
  335POPC   C2B 8348  44.822   8.451   8.382
  335POPC   C3B 8349   0.060   8.511   7.997
  335POPC   C4B 8350   0.486   8.532   7.773
  336POPC   NC3 8351  24.828  16.911   9.571
  336POPC   PO4 8352  24.193  16.711   9.426
  336POPC   GL1 8353  24.331  16.812   9.057
  336POPC   GL2 8354  24.670  16.807   9.127
  336POPC   C1A 8355  24.537  16.565   8.716
  336POPC   D2A 8356  24.403  16.362   8.333
  336POPC   C3A 8357  24.574  16.519   7.954
  336POPC   C4A 8358  24.548  16.725   7.556
  336POPC   C1B 8359  24.677  17.079   8.820
  336POPC   C2B 8360  24.759  17.013   8.435
  336POPC   C3B 8361  24.708  17.180   8.070
  336POPC   C4B 8362  24.357  17.154   7.803
  337POPC   NC3 8363  35.892   1.271   9.492
  337POPC   PO4 8364  36.595   1.125   9.408
  337POPC   GL1 8365  36.273   1.345   9.130
  337POPC   GL2 8366  35.980   1.170   9.017
  337POPC   C1A 8367  36.237   1.464   8.702
  337POPC   D2A 8368  36.173   1.180   8.347
  337POPC   C3A 8369  35.966   1.424   8.055
  337POPC   C4A 8370  35.860   1.375   7.653
  337POPC   C1B 8371  35.737   0.851   8.794
  337POPC   C2B 8372  35.566   0.781   8.372
  337POPC   C3B 8373  35.844   0.898   7.989
  337POPC   C4B 8374  36.026   0.650   7.651
  338POPC   NC3 8375  20.746  34.120   9.588
  338POPC   PO4 8376  20.600  33.443   9.540
  338POPC   GL1 8377  20.579  33.671   9.185
  338POPC   GL2 8378  20.585  34.020   9.117
  338POPC   C1A 8379  20.843  33.571   8.865
  338POPC   D2A 8380  20.782  33.740   8.472
  338POPC   C3A 8381  20.807  33.478   8.102
  338POPC   C4A 8382  20.820  33.633   7.689
  338POPC   C1B 8383  20.495  34.172   8.703
  338POPC   C2B 8384  20.557  34.151   8.266
  338POPC   C3B 8385  20.518  34.019   7.832
  338POPC   C4B 8386  20.246  33.643   7.725
  339POPC   NC3 8387  37.376  35.194   9.456
  339POPC   PO4 8388  37.808  35.562   9.774
  339POPC   GL1 8389  37.854  35.352   9.285
  339POPC   GL2 8390  37.626  35.226   9.037
  339POPC   C1A 8391  38.067  35.264   8.825
  339POPC   D2A 8392  37.947  35.066   8.407
  339POPC   C3A 8393  37.814  35.232   7.992
  339POPC   C4A 8394  37.665  35.548   7.707
  339POPC   C1B 8395  37.388  35.125   8.691
  339POPC   C2B 8396  37.351  35.272   8.251
  339POPC   C3B 8397  37.350  35.006   7.895
  339POPC   C4B 8398  37.607  35.061   7.514
  340POPC   NC3 8399  39.933  38.488   9.620
  340POPC   PO4 8400  40.284  37.896   9.595
  340POPC   GL1 8401  40.188  38.213   9.242
  340POPC   GL2 8402  39.809  38.320   9.159
  340POPC   C1A 8403  40.303  38.423   8.842
  340POPC   D2A 8404  40.078  38.470   8.452
  340POPC   C3A 8405  40.274  38.335   8.078
  340POPC   C4A 8406  40.211  38.548   7.707
  340POPC   C1B 8407  39.852  38.668   8.876
  340POPC   C2B 8408  39.853  38.954   8.508
  340POPC   C3B 8409  39.714  38.925   8.090
  340POPC   C4B 8410  39.725  38.677   7.713
  341POPC   NC3 8411  14.741  32.478   9.668
  341POPC   PO4 8412  14.087  32.138   9.688
  341POPC   GL1 8413  14.129  32.366   9.257
  341POPC   GL2 8414  14.470  32.535   9.200
  341POPC   C1A 8415  14.163  32.388   8.804
  341POPC   D2A 8416  14.494  32.262   8.503
  341POPC   C3A 8417  14.477  32.167   8.071
  341POPC   C4A 8418  14.807  32.053   7.817
  341POPC   C1B 8419  14.598  32.694   8.772
  341POPC   C2B 8420  14.668  32.717   8.314
  341POPC   C3B 8421  14.805  32.565   7.922
  341POPC   C4B 8422  14.612  32.446   7.543
  342POPC   NC3 8423  39.679  26.646   9.590
  342POPC   PO4 8424  40.202  26.381   9.339
  342POPC   GL1 8425  40.077  26.662   9.075
  342POPC   GL2 8426  39.748  26.788   9.103
  342POPC   C1A 8427  40.087  26.647   8.637
  342POPC   D2A 8428  40.259  26.525   8.266
  342POPC   C3A 8429  40.241  26.790   7.923
  342POPC   C4A 8430  40.035  26.746   7.570
  342POPC   C1B 8431  39.733  27.012   8.696
  342POPC   C2B 8432  39.865  26.945   8.244
  342POPC   C3B 8433  39.633  26.948   7.837
  342POPC   C4B 8434  39.400  27.285   7.701
  343POPC   NC3 8435  25.734  22.958   9.834
  343POPC   PO4 8436  25.229  22.994   9.375
  343POPC   GL1 8437  25.122  22.940   8.983
  343POPC   GL2 8438  25.441  22.960   8.816
  343POPC   C1A 8439  25.074  22.695   8.610
  343POPC   D2A 8440  25.315  22.687   8.261
  343POPC   C3A 8441  25.223  22.892   7.906
  343POPC   C4A 8442  25.377  23.285   7.812
  343POPC   C1B 8443  25.671  22.638   8.635
  343POPC   C2B 8444  25.686  22.360   8.257
  343POPC   C3B 8445  25.661  22.605   7.857
  343POPC   C4B 8446  25.624  22.482   7.406
  344POPC   NC3 8447   5.902  34.446   9.427
  344POPC   PO4 8448   5.856  35.066   9.553
  344POPC   GL1 8449   5.802  34.890   9.159
  344POPC   GL2 8450   5.471  34.795   9.223
  344POPC   C1A 8451   5.954  34.736   8.757
  344POPC   D2A 8452   6.173  34.654   8.384
  344POPC   C3A 8453   5.939  34.610   8.009
  344POPC   C4A 8454   5.739  34.284   7.747
  344POPC   C1B 8455   5.404  34.942   8.792
  344POPC   C2B 8456   5.620  34.887   8.394
  344POPC   C3B 8457   5.533  34.993   7.964
  344POPC   C4B 8458   5.702  34.792   7.602
  345POPC   NC3 8459  41.349  11.883   9.579
  345POPC   PO4 8460  41.918  12.293   9.537
  345POPC   GL1 8461  41.643  12.098   9.201
  345POPC   GL2 8462  41.407  11.797   9.095
  345POPC   C1A 8463  41.499  12.225   8.798
  345POPC   D2A 8464  41.701  12.294   8.403
  345POPC   C3A 8465  41.407  12.331   8.078
  345POPC   C4A 8466  41.382  11.960   7.865
  345POPC   C1B 8467  41.754  11.747   8.828
  345POPC   C2B 8468  41.823  11.793   8.400
  345POPC   C3B 8469  41.800  11.597   8.017
  345POPC   C4B 8470  41.482  11.481   7.701
  346POPC   NC3 8471  20.338  10.765   9.666
  346POPC   PO4 8472  20.987  10.782   9.534
  346POPC   GL1 8473  20.670  10.633   9.220
  346POPC   GL2 8474  20.531  10.267   9.118
  346POPC   C1A 8475  20.700  10.631   8.772
  346POPC   D2A 8476  20.531  10.496   8.390
  346POPC   C3A 8477  20.676  10.565   7.968
  346POPC   C4A 8478  21.046  10.783   7.934
  346POPC   C1B 8479  20.840  10.114   8.751
  346POPC   C2B 8480  20.766  10.016   8.311
  346POPC   C3B 8481  20.714  10.053   7.865
  346POPC   C4B 8482  20.674  10.160   7.415
  347POPC   NC3 8483  31.908  22.338   9.469
  347POPC   PO4 8484  32.514  22.113   9.509
  347POPC   GL1 8485  32.227  22.013   9.154
  347POPC   GL2 8486  31.952  21.758   9.187
  347POPC   C1A 8487  32.282  22.215   8.748
  347POPC   D2A 8488  32.445  22.332   8.319
  347POPC   C3A 8489  32.248  22.361   7.894
  347POPC   C4A 8490  32.127  22.115   7.540
  347POPC   C1B 8491  31.917  21.846   8.746
  347POPC   C2B 8492  31.983  22.065   8.363
  347POPC   C3B 8493  31.899  21.959   7.973
  347POPC   C4B 8494  31.681  21.872   7.594
  348POPC   NC3 8495  34.761  30.434   9.358
  348POPC   PO4 8496  34.303  31.052   9.532
  348POPC   GL1 8497  34.504  30.829   9.177
  348POPC   GL2 8498  34.756  31.036   9.100
  348POPC   C1A 8499  34.680  30.691   8.746
  348POPC   D2A 8500  34.438  30.692   8.376
  348POPC   C3A 8501  34.692  30.584   8.046
  348POPC   C4A 8502  34.515  30.482   7.662
  348POPC   C1B 8503  34.925  31.152   8.744
  348POPC   C2B 8504  35.022  30.950   8.373
  348POPC   C3B 8505  34.919  31.106   7.960
  348POPC   C4B 8506  34.951  30.810   7.673
  349POPC   NC3 8507  35.542  12.986   9.444
  349POPC   PO4 8508  34.985  12.729   9.542
  349POPC   GL1 8509  35.166  12.804   9.125
  349POPC   GL2 8510  35.525  12.752   9.015
  349POPC   C1A 8511  35.169  12.945   8.677
  349POPC   D2A 8512  35.366  12.914   8.262
  349POPC   C3A 8513  35.170  12.761   7.917
  349POPC   C4A 8514  34.912  12.966   7.623
  349POPC   C1B 8515  35.683  12.896   8.656
  349POPC   C2B 8516  35.856  12.783   8.278
  349POPC   C3B 8517  35.674  12.748   7.834
  349POPC   C4B 8518  35.412  12.999   7.545
  350POPC   NC3 8519  15.411  27.243   9.559
  350POPC   PO4 8520  14.866  26.826   9.649
  350POPC   GL1 8521  15.056  26.962   9.271
  350POPC   GL2 8522  15.310  26.822   9.190
  350POPC   C1A 8523  14.971  26.896   8.815
  350POPC   D2A 8524  14.978  26.641   8.451
  350POPC   C3A 8525  15.098  26.866   8.125
  350POPC   C4A 8526  15.035  26.841   7.712
  350POPC   C1B 8527  15.449  27.066   8.879
  350POPC   C2B 8528  15.481  26.893   8.497
  350POPC   C3B 8529  15.609  26.905   8.088
  350POPC   C4B 8530  15.557  26.911   7.668
  351POPC   NC3 8531  42.719  43.047   9.516
  351POPC   PO4 8532  43.387  43.162   9.693
  351POPC   GL1 8533  43.195  43.018   9.267
  351POPC   GL2 8534  42.924  43.204   9.077
  351POPC   C1A 8535  43.307  42.978   8.820
  351POPC   D2A 8536  43.267  43.318   8.498
  351POPC   C3A 8537  43.202  43.216   8.069
  351POPC   C4A 8538  43.271  43.171   7.641
  351POPC   C1B 8539  42.834  43.021   8.647
  351POPC   C2B 8540  42.799  42.902   8.193
  351POPC   C3B 8541  42.775  43.149   7.764
  351POPC   C4B 8542  42.635  43.190   7.325
  352POPC   NC3 8543  31.832  30.461   9.470
  352POPC   PO4 8544  31.574  31.042   9.716
  352POPC   GL1 8545  31.540  30.920   9.235
  352POPC   GL2 8546  31.512  30.566   9.067
  352POPC   C1A 8547  31.602  30.928   8.745
  352POPC   D2A 8548  31.583  30.576   8.442
  352POPC   C3A 8549  31.493  30.769   8.029
  352POPC   C4A 8550  31.529  30.999   7.622
  352POPC   C1B 8551  31.181  30.352   8.813
  352POPC   C2B 8552  31.228  30.196   8.400
  352POPC   C3B 8553  31.372  30.273   7.971
  352POPC   C4B 8554  31.245  30.185   7.515
  353POPC   NC3 8555  40.123  32.805   9.547
  353POPC   PO4 8556  39.939  33.438   9.423
  353POPC   GL1 8557  40.019  33.106   9.125
  353POPC   GL2 8558  39.800  32.816   9.141
  353POPC   C1A 8559  40.077  33.199   8.692
  353POPC   D2A 8560  39.834  33.289   8.344
  353POPC   C3A 8561  40.096  33.294   8.008
  353POPC   C4A 8562  39.935  33.086   7.698
  353POPC   C1B 8563  39.974  32.717   8.746
  353POPC   C2B 8564  40.088  32.832   8.325
  353POPC   C3B 8565  40.158  32.689   7.916
  353POPC   C4B 8566  40.465  32.518   7.618
  354POPC   NC3 8567  12.585   5.797   9.451
  354POPC   PO4 8568  13.073   6.165   9.337
  354POPC   GL1 8569  12.900   5.921   9.056
  354POPC   GL2 8570  12.572   6.010   9.006
  354POPC   C1A 8571  13.077   5.846   8.697
  354POPC   D2A 8572  13.196   5.628   8.328
  354POPC   C3A 8573  12.815   5.561   8.078
  354POPC   C4A 8574  12.689   5.576   7.645
  354POPC   C1B 8575  12.570   6.073   8.629
  354POPC   C2B 8576  12.787   6.011   8.306
  354POPC   C3B 8577  12.668   6.005   7.912
  354POPC   C4B 8578  12.303   5.972   7.653
  355POPC   NC3 8579  24.974   0.061   9.509
  355POPC   PO4 8580  25.398  44.554   9.451
  355POPC   GL1 8581  25.227  44.769   9.143
  355POPC   GL2 8582  25.412   0.052   9.236
  355POPC   C1A 8583  25.200  44.666   8.735
  355POPC   D2A 8584  25.438  44.437   8.442
  355POPC   C3A 8585  25.213  44.567   8.098
  355POPC   C4A 8586  25.217  44.695   7.687
  355POPC   C1B 8587  25.428   0.131   8.801
  355POPC   C2B 8588  25.468  44.952   8.383
  355POPC   C3B 8589  25.301   0.087   7.979
  355POPC   C4B 8590  25.272   0.240   7.522
  356POPC   NC3 8591  12.464  30.923   9.732
  356POPC   PO4 8592  13.001  30.739   9.473
  356POPC   GL1 8593  12.871  30.618   9.081
  356POPC   GL2 8594  12.559  30.748   9.164
  356POPC   C1A 8595  12.924  30.628   8.664
  356POPC   D2A 8596  13.010  30.367   8.338
  356POPC   C3A 8597  12.885  30.580   7.985
  356POPC   C4A 8598  12.983  30.859   7.668
  356POPC   C1B 8599  12.413  30.559   8.788
  356POPC   C2B 8600  12.481  30.635   8.356
  356POPC   C3B 8601  12.416  30.415   7.969
  356POPC   C4B 8602  12.644  30.411   7.562
  357POPC   NC3 8603   6.557  35.202   9.462
  357POPC   PO4 8604   7.203  35.313   9.570
  357POPC   GL1 8605   6.991  35.225   9.179
  357POPC   GL2 8606   6.759  35.526   9.136
  357POPC   C1A 8607   6.783  35.132   8.774
  357POPC   D2A 8608   6.590  34.965   8.399
  357POPC   C3A 8609   6.813  35.093   8.029
  357POPC   C4A 8610   6.712  35.265   7.621
  357POPC   C1B 8611   6.952  35.611   8.759
  357POPC   C2B 8612   6.985  35.432   8.362
  357POPC   C3B 8613   6.813  35.624   7.985
  357POPC   C4B 8614   6.610  35.791   7.621
  358POPC   NC3 8615  16.325  44.156   9.840
  358POPC   PO4 8616  16.776  43.690   9.504
  358POPC   GL1 8617  16.949  43.796   9.106
  358POPC   GL2 8618  16.620  43.798   8.998
  358POPC   C1A 8619  16.960  44.143   8.798
  358POPC   D2A 8620  16.732  44.154   8.416
  358POPC   C3A 8621  16.990  44.163   8.079
  358POPC   C4A 8622  17.086  43.823   7.844
  358POPC   C1B 8623  16.530  43.502   8.710
  358POPC   C2B 8624  16.695  43.620   8.318
  358POPC   C3B 8625  16.598  43.831   7.958
  358POPC   C4B 8626  16.659  43.736   7.493
  359POPC   NC3 8627   5.286  35.234   9.437
  359POPC   PO4 8628   4.673  35.568   9.568
  359POPC   GL1 8629   4.850  35.371   9.219
  359POPC   GL2 8630   5.061  35.596   9.135
  359POPC   C1A 8631   4.922  35.227   8.768
  359POPC   D2A 8632   5.022  35.482   8.401
  359POPC   C3A 8633   4.986  35.334   7.977
  359POPC   C4A 8634   4.884  35.183   7.579
  359POPC   C1B 8635   5.362  35.466   8.808
  359POPC   C2B 8636   5.524  35.382   8.387
  359POPC   C3B 8637   5.416  35.590   8.004
  359POPC   C4B 8638   5.295  35.529   7.577
  360POPC   NC3 8639  26.343   1.075   9.360
  360POPC   PO4 8640  25.718   1.127   9.770
  360POPC   GL1 8641  25.855   1.271   9.330
  360POPC   GL2 8642  25.857   0.977   9.056
  360POPC   C1A 8643  25.867   1.440   8.906
  360POPC   D2A 8644  25.916   1.165   8.544
  360POPC   C3A 8645  25.794   1.364   8.171
  360POPC   C4A 8646  26.060   1.522   7.799
  360POPC   C1B 8647  26.226   0.826   8.791
  360POPC   C2B 8648  26.335   0.762   8.394
  360POPC   C3B 8649  26.201   1.062   8.121
  360POPC   C4B 8650  25.903   1.031   7.774
  361POPC   NC3 8651  15.127  29.404   9.506
  361POPC   PO4 8652  15.500  28.699   9.514
  361POPC   GL1 8653  15.166  28.977   9.231
  361POPC   GL2 8654  15.134  29.363   9.019
  361POPC   C1A 8655  15.019  28.943   8.820
  361POPC   D2A 8656  15.123  29.237   8.496
  361POPC   C3A 8657  15.158  29.063   8.118
  361POPC   C4A 8658  15.369  28.913   7.794
  361POPC   C1B 8659  14.713  29.349   8.773
  361POPC   C2B 8660  14.694  29.437   8.291
  361POPC   C3B 8661  14.916  29.434   7.845
  361POPC   C4B 8662  14.797  29.432   7.373
  362POPC   NC3 8663  35.710  30.066   9.370
  362POPC   PO4 8664  35.038  29.916   9.445
  362POPC   GL1 8665  35.245  30.012   9.109
  362POPC   GL2 8666  35.430  29.702   9.105
  362POPC   C1A 8667  35.357  29.989   8.705
  362POPC   D2A 8668  35.228  29.819   8.327
  362POPC   C3A 8669  35.546  29.899   8.042
  362POPC   C4A 8670  35.554  30.119   7.677
  362POPC   C1B 8671  35.186  29.499   8.740
  362POPC   C2B 8672  35.132  29.312   8.317
  362POPC   C3B 8673  34.946  29.540   7.979
  362POPC   C4B 8674  35.195  29.747   7.667
  363POPC   NC3 8675  42.309  24.403   9.642
  363POPC   PO4 8676  42.690  24.131   9.153
  363POPC   GL1 8677  42.291  24.364   9.102
  363POPC   GL2 8678  42.230  24.751   9.196
  363POPC   C1A 8679  42.078  24.399   8.697
  363POPC   D2A 8680  41.980  24.658   8.322
  363POPC   C3A 8681  41.971  24.396   7.976
  363POPC   C4A 8682  42.353  24.268   7.792
  363POPC   C1B 8683  42.216  24.894   8.749
  363POPC   C2B 8684  42.466  24.640   8.464
  363POPC   C3B 8685  42.692  24.407   8.179
  363POPC   C4B 8686  42.712  24.633   7.808
  364POPC   NC3 8687   6.428  26.653   9.599
  364POPC   PO4 8688   6.906  27.123   9.638
  364POPC   GL1 8689   6.676  26.989   9.265
  364POPC   GL2 8690   6.807  26.625   9.244
  364POPC   C1A 8691   6.469  26.851   8.893
  364POPC   D2A 8692   6.557  26.778   8.457
  364POPC   C3A 8693   6.311  26.730   8.098
  364POPC   C4A 8694   6.477  26.983   7.789
  364POPC   C1B 8695   6.995  26.745   8.848
  364POPC   C2B 8696   7.044  26.587   8.436
  364POPC   C3B 8697   6.928  26.760   8.025
  364POPC   C4B 8698   6.977  26.862   7.573
  365POPC   NC3 8699  43.472   6.410   9.303
  365POPC   PO4 8700  42.996   6.894   9.305
  365POPC   GL1 8701  42.937   6.655   8.993
  365POPC   GL2 8702  43.284   6.720   8.920
  365POPC   C1A 8703  42.720   6.539   8.617
  365POPC   D2A 8704  42.745   6.385   8.193
  365POPC   C3A 8705  42.682   6.626   7.823
  365POPC   C4A 8706  42.828   7.101   7.741
  365POPC   C1B 8707  43.036   6.982   8.624
  365POPC   C2B 8708  42.883   6.918   8.230
  365POPC   C3B 8709  43.164   6.738   7.932
  365POPC   C4B 8710  43.427   6.917   7.593
  366POPC   NC3 8711   5.984  41.083   9.410
  366POPC   PO4 8712   5.597  40.540   9.454
  366POPC   GL1 8713   5.640  40.833   9.150
  366POPC   GL2 8714   5.991  40.708   9.081
  366POPC   C1A 8715   5.781  41.098   8.797
  366POPC   D2A 8716   6.043  40.974   8.440
  366POPC   C3A 8717   5.953  41.089   8.005
  366POPC   C4A 8718   5.911  40.837   7.651
  366POPC   C1B 8719   5.756  40.463   8.803
  366POPC   C2B 8720   5.916  40.382   8.443
  366POPC   C3B 8721   5.869  40.582   8.091
  366POPC   C4B 8722   5.561  40.480   7.797
  367POPC   NC3 8723   3.407   6.249   9.540
  367POPC   PO4 8724   3.644   6.899   9.498
  367POPC   GL1 8725   3.622   6.643   9.167
  367POPC   GL2 8726   3.926   6.862   9.092
  367POPC   C1A 8727   3.372   6.582   8.773
  367POPC   D2A 8728   3.302   6.829   8.354
  367POPC   C3A 8729   3.450   6.608   7.941
  367POPC   C4A 8730   3.305   6.338   7.614
  367POPC   C1B 8731   3.687   7.000   8.773
  367POPC   C2B 8732   3.887   7.047   8.415
  367POPC   C3B 8733   3.678   7.028   8.051
  367POPC   C4B 8734   3.563   7.042   7.642
  368POPC   NC3 8735  17.491  24.304   9.652
  368POPC   PO4 8736  17.770  23.806   9.421
  368POPC   GL1 8737  17.741  23.743   9.016
  368POPC   GL2 8738  17.423  23.608   9.080
  368POPC   C1A 8739  17.777  23.684   8.587
  368POPC   D2A 8740  17.880  23.642   8.190
  368POPC   C3A 8741  17.626  23.624   7.882
  368POPC   C4A 8742  17.613  23.725   7.474
  368POPC   C1B 8743  17.276  23.674   8.675
  368POPC   C2B 8744  17.317  23.795   8.265
  368POPC   C3B 8745  17.129  23.740   7.879
  368POPC   C4B 8746  17.195  23.465   7.542
  369POPC   NC3 8747  23.807  29.392   9.472
  369POPC   PO4 8748  23.578  28.758   9.634
  369POPC   GL1 8749  23.620  28.958   9.199
  369POPC   GL2 8750  23.383  29.226   9.207
  369POPC   C1A 8751  23.917  29.034   8.786
  369POPC   D2A 8752  23.854  28.937   8.385
  369POPC   C3A 8753  23.979  29.197   8.064
  369POPC   C4A 8754  23.971  28.902   7.753
  369POPC   C1B 8755  23.440  29.203   8.767
  369POPC   C2B 8756  23.388  29.167   8.348
  369POPC   C3B 8757  23.516  29.008   7.974
  369POPC   C4B 8758  23.644  29.293   7.660
  370POPC   NC3 8759  41.552  38.124   9.440
  370POPC   PO4 8760  41.785  38.752   9.457
  370POPC   GL1 8761  41.489  38.602   9.153
  370POPC   GL2 8762  41.258  38.334   9.067
  370POPC   C1A 8763  41.257  38.767   8.797
  370POPC   D2A 8764  41.420  38.871   8.399
  370POPC   C3A 8765  41.383  38.599   8.063
  370POPC   C4A 8766  41.669  38.645   7.729
  370POPC   C1B 8767  41.581  38.344   8.730
  370POPC   C2B 8768  41.721  38.002   8.486
  370POPC   C3B 8769  41.431  38.084   8.170
  370POPC   C4B 8770  41.422  38.113   7.714
  371POPC   NC3 8771  40.423  14.787   9.265
  371POPC   PO4 8772  40.981  15.206   9.445
  371POPC   GL1 8773  40.745  15.134   9.076
  371POPC   GL2 8774  40.509  15.369   9.113
  371POPC   C1A 8775  40.645  15.042   8.644
  371POPC   D2A 8776  40.816  15.264   8.304
  371POPC   C3A 8777  40.985  15.053   7.951
  371POPC   C4A 8778  41.069  15.234   7.560
  371POPC   C1B 8779  40.311  15.443   8.735
  371POPC   C2B 8780  40.239  15.265   8.344
  371POPC   C3B 8781  40.437  15.068   8.003
  371POPC   C4B 8782  40.570  15.158   7.605
  372POPC   NC3 8783  42.635  31.790   9.405
  372POPC   PO4 8784  43.286  31.645   9.517
  372POPC   GL1 8785  43.120  31.406   9.126
  372POPC   GL2 8786  43.153  31.609   8.959
  372POPC   C1A 8787  43.282  31.166   8.739
  372POPC   D2A 8788  43.151  31.117   8.307
  372POPC   C3A 8789  43.389  31.343   7.965
  372POPC   C4A 8790  43.369  31.346   7.513
  372POPC   C1B 8791  42.933  31.528   8.623
  372POPC   C2B 8792  43.017  31.606   8.209
  372POPC   C3B 8793  42.765  31.575   7.851
  372POPC   C4B 8794  42.757  31.640   7.396
  373POPC   NC3 8795  40.424  42.951   9.285
  373POPC   PO4 8796  40.745  43.339   9.700
  373POPC   GL1 8797  40.833  43.277   9.259
  373POPC   GL2 8798  40.557  43.437   9.106
  373POPC   C1A 8799  40.998  43.060   8.876
  373POPC   D2A 8800  40.882  42.896   8.462
  373POPC   C3A 8801  40.952  43.091   8.060
  373POPC   C4A 8802  40.899  42.812   7.693
  373POPC   C1B 8803  40.533  43.210   8.695
  373POPC   C2B 8804  40.386  42.969   8.327
  373POPC   C3B 8805  40.469  43.018   7.894
  373POPC   C4B 8806  40.676  43.390   7.711
  374POPC   NC3 8807  20.213  19.832   9.340
  374POPC   PO4 8808  20.835  19.408   9.417
  374POPC   GL1 8809  20.627  19.628   9.088
  374POPC   GL2 8810  20.623  19.973   9.030
  374POPC   C1A 8811  20.644  19.517   8.666
  374POPC   D2A 8812  20.862  19.734   8.350
  374POPC   C3A 8813  20.798  19.670   7.909
  374POPC   C4A 8814  20.874  19.619   7.468
  374POPC   C1B 8815  20.433  19.948   8.590
  374POPC   C2B 8816  20.374  19.730   8.203
  374POPC   C3B 8817  20.289  19.846   7.776
  374POPC   C4B 8818  20.272  20.172   7.406
  375POPC   NC3 8819  11.152  42.376   9.652
  375POPC   PO4 8820  11.817  42.285   9.799
  375POPC   GL1 8821  11.555  42.333   9.311
  375POPC   GL2 8822  11.207  42.444   9.160
  375POPC   C1A 8823  11.585  42.344   8.814
  375POPC   D2A 8824  11.751  42.262   8.351
  375POPC   C3A 8825  11.591  42.297   7.966
  375POPC   C4A 8826  11.452  42.395   7.552
  375POPC   C1B 8827  11.161  42.616   8.745
  375POPC   C2B 8828  11.344  42.568   8.336
  375POPC   C3B 8829  11.106  42.429   7.958
  375POPC   C4B 8830  10.798  42.604   7.683
  376POPC   NC3 8831   0.204  29.451   9.462
  376POPC   PO4 8832   0.582  30.131   9.542
  376POPC   GL1 8833   0.414  29.866   9.277
  376POPC   GL2 8834   0.630  29.589   9.221
  376POPC   C1A 8835   0.367  29.837   8.847
  376POPC   D2A 8836   0.464  30.049   8.459
  376POPC   C3A 8837   0.470  29.889   8.077
  376POPC   C4A 8838   0.292  29.774   7.721
  376POPC   C1B 8839   0.870  29.551   8.857
  376POPC   C2B 8840   1.036  29.476   8.471
  376POPC   C3B 8841   0.860  29.532   8.071
  376POPC   C4B 8842   0.771  29.615   7.648
  377POPC   NC3 8843  44.603  11.744   9.546
  377POPC   PO4 8844  44.264  12.359   9.660
  377POPC   GL1 8845  44.429  12.210   9.202
  377POPC   GL2 8846  44.738  12.120   9.152
  377POPC   C1A 8847  44.374  12.077   8.742
  377POPC   D2A 8848  44.332  12.303   8.335
  377POPC   C3A 8849  44.379  12.082   7.922
  377POPC   C4A 8850  44.418  11.804   7.526
  377POPC   C1B 8851  44.887  11.952   8.762
  377POPC   C2B 8852  44.725  11.991   8.349
  377POPC   C3B 8853  44.904  12.032   7.928
  377POPC   C4B 8854  44.937  11.890   7.489
  378POPC   NC3 8855  42.938  37.802   9.721
  378POPC   PO4 8856  42.716  37.268   9.338
  378POPC   GL1 8857  42.850  37.508   8.965
  378POPC   GL2 8858  43.030  37.867   9.065
  378POPC   C1A 8859  42.953  37.659   8.578
  378POPC   D2A 8860  42.870  37.548   8.189
  378POPC   C3A 8861  43.098  37.513   7.804
  378POPC   C4A 8862  42.900  37.277   7.456
  378POPC   C1B 8863  43.236  38.080   8.706
  378POPC   C2B 8864  43.082  38.051   8.268
  378POPC   C3B 8865  42.977  38.014   7.833
  378POPC   C4B 8866  43.343  37.900   7.550
  379POPC   NC3 8867  25.755  21.710   9.413
  379POPC   PO4 8868  26.165  21.268   9.657
  379POPC   GL1 8869  26.131  21.367   9.234
  379POPC   GL2 8870  25.822  21.257   9.174
  379POPC   C1A 8871  26.082  21.478   8.776
  379POPC   D2A 8872  25.867  21.484   8.383
  379POPC   C3A 8873  26.134  21.369   8.031
  379POPC   C4A 8874  26.426  21.582   7.766
  379POPC   C1B 8875  25.685  21.100   8.789
  379POPC   C2B 8876  25.460  21.145   8.419
  379POPC   C3B 8877  25.699  21.095   8.066
  379POPC   C4B 8878  25.682  20.992   7.686
  380POPC   NC3 8879  33.499   2.033   9.562
  380POPC   PO4 8880  32.844   1.780   9.507
  380POPC   GL1 8881  32.933   1.854   9.066
  380POPC   GL2 8882  33.257   1.973   8.919
  380POPC   C1A 8883  32.808   2.077   8.698
  380POPC   D2A 8884  32.841   2.242   8.293
  380POPC   C3A 8885  33.079   2.032   8.000
  380POPC   C4A 8886  33.149   1.858   7.607
  380POPC   C1B 8887  33.256   2.334   8.612
  380POPC   C2B 8888  33.429   2.360   8.207
  380POPC   C3B 8889  33.444   2.289   7.747
  380POPC   C4B 8890  33.184   2.412   7.399
  381POPC   NC3 8891   6.741  34.270   9.236
  381POPC   PO4 8892   6.657  33.617   9.519
  381POPC   GL1 8893   6.475  33.816   9.158
  381POPC   GL2 8894   6.742  33.838   8.988
  381POPC   C1A 8895   6.286  33.750   8.749
  381POPC   D2A 8896   6.440  33.574   8.368
  381POPC   C3A 8897   6.267  33.719   8.010
  381POPC   C4A 8898   6.421  33.746   7.623
  381POPC   C1B 8899   6.733  33.979   8.582
  381POPC   C2B 8900   6.913  33.787   8.248
  381POPC   C3B 8901   6.706  33.997   7.966
  381POPC   C4B 8902   6.761  34.397   7.751
  382POPC   NC3 8903  36.208  17.137   9.423
  382POPC   PO4 8904  36.021  16.524   9.466
  382POPC   GL1 8905  36.109  16.748   9.070
  382POPC   GL2 8906  36.432  16.820   9.079
  382POPC   C1A 8907  36.114  16.788   8.609
  382POPC   D2A 8908  35.823  16.524   8.388
  382POPC   C3A 8909  36.047  16.378   8.067
  382POPC   C4A 8910  36.241  16.620   7.745
  382POPC   C1B 8911  36.444  17.153   8.768
  382POPC   C2B 8912  36.511  17.100   8.331
  382POPC   C3B 8913  36.312  17.185   7.907
  382POPC   C4B 8914  36.393  17.025   7.467
  383POPC   NC3 8915  36.228  34.126   9.468
  383POPC   PO4 8916  35.570  34.001   9.468
  383POPC   GL1 8917  35.879  33.874   9.143
  383POPC   GL2 8918  36.243  33.710   9.135
  383POPC   C1A 8919  35.983  33.768   8.704
  383POPC   D2A 8920  36.355  33.699   8.456
  383POPC   C3A 8921  36.349  33.466   8.080
  383POPC   C4A 8922  36.190  33.614   7.717
  383POPC   C1B 8923  36.401  34.055   8.846
  383POPC   C2B 8924  36.261  34.210   8.457
  383POPC   C3B 8925  36.183  34.040   8.047
  383POPC   C4B 8926  36.462  34.091   7.681
  384POPC   NC3 8927  22.974  14.028   9.472
  384POPC   PO4 8928  22.733  14.595   9.679
  384POPC   GL1 8929  22.913  14.451   9.219
  384POPC   GL2 8930  22.682  14.197   9.051
  384POPC   C1A 8931  22.933  14.552   8.756
  384POPC   D2A 8932  22.842  14.808   8.406
  384POPC   C3A 8933  23.094  14.680   8.046
  384POPC   C4A 8934  22.831  14.507   7.746
  384POPC   C1B 8935  22.942  14.052   8.683
  384POPC   C2B 8936  23.152  14.219   8.282
  384POPC   C3B 8937  23.121  14.107   7.842
  384POPC   C4B 8938  23.113  14.164   7.373
  385POPC   NC3 8939   5.990  35.466   9.716
  385POPC   PO4 8940   5.428  35.749   9.463
  385POPC   GL1 8941   5.702  35.412   9.220
  385POPC   GL2 8942   6.087  35.412   9.213
  385POPC   C1A 8943   5.828  35.240   8.788
  385POPC   D2A 8944   6.045  35.178   8.386
  385POPC   C3A 8945   5.886  35.416   8.008
  385POPC   C4A 8946   5.741  35.295   7.586
  385POPC   C1B 8947   6.326  35.380   8.822
  385POPC   C2B 8948   6.475  35.464   8.397
  385POPC   C3B 8949   6.367  35.311   7.981
  385POPC   C4B 8950   6.236  35.401   7.532
  386POPC   NC3 8951  34.715   2.444   9.564
  386POPC   PO4 8952  34.520   1.795   9.503
  386POPC   GL1 8953  34.473   2.132   9.206
  386POPC   GL2 8954  34.775   2.192   9.078
  386POPC   C1A 8955  34.286   2.329   8.850
  386POPC   D2A 8956  34.161   2.104   8.475
  386POPC   C3A 8957  34.295   2.223   8.089
  386POPC   C4A 8958  34.438   2.206   7.706
  386POPC   C1B 8959  34.588   1.909   8.738
  386POPC   C2B 8960  34.503   1.788   8.277
  386POPC   C3B 8961  34.728   1.855   7.911
  386POPC   C4B 8962  35.116   1.842   7.728
  387POPC   NC3 8963  10.759  25.231   9.458
  387POPC   PO4 8964  10.207  25.592   9.711
  387POPC   GL1 8965  10.418  25.631   9.295
  387POPC   GL2 8966  10.164  25.446   9.152
  387POPC   C1A 8967  10.684  25.563   8.889
  387POPC   D2A 8968  10.760  25.205   8.593
  387POPC   C3A 8969  10.821  25.205   8.139
  387POPC   C4A 8970  10.678  25.069   7.726
  387POPC   C1B 8971  10.263  25.263   8.748
  387POPC   C2B 8972  10.181  25.027   8.415
  387POPC   C3B 8973  10.320  25.168   8.063
  387POPC   C4B 8974  10.177  25.215   7.668
  388POPC   NC3 8975   5.100  27.563   9.701
  388POPC   PO4 8976   4.903  28.127   9.378
  388POPC   GL1 8977   5.180  27.738   9.245
  388POPC   GL2 8978   5.051  27.418   9.188
  388POPC   C1A 8979   5.382  27.575   8.850
  388POPC   D2A 8980   5.219  27.451   8.453
  388POPC   C3A 8981   5.378  27.759   8.144
  388POPC   C4A 8982   5.560  27.490   7.847
  388POPC   C1B 8983   4.870  27.698   8.810
  388POPC   C2B 8984   4.871  27.783   8.325
  388POPC   C3B 8985   4.942  27.541   7.956
  388POPC   C4B 8986   4.892  27.090   7.818
  389POPC   NC3 8987  35.935   6.580   9.797
  389POPC   PO4 8988  36.292   7.163   9.659
  389POPC   GL1 8989  36.117   6.930   9.265
  389POPC   GL2 8990  35.883   6.616   9.269
  389POPC   C1A 8991  36.137   6.800   8.799
  389POPC   D2A 8992  36.191   7.036   8.390
  389POPC   C3A 8993  36.136   6.895   7.957
  389POPC   C4A 8994  36.296   6.523   7.751
  389POPC   C1B 8995  35.991   6.322   8.912
  389POPC   C2B 8996  36.168   6.348   8.499
  389POPC   C3B 8997  35.963   6.417   8.111
  389POPC   C4B 8998  35.950   6.133   7.744
  390POPC   NC3 8999  32.940   0.249   9.630
  390POPC   PO4 9000  33.193   0.872   9.739
  390POPC   GL1 9001  33.114   0.641   9.338
  390POPC   GL2 9002  33.406   0.615   9.161
  390POPC   C1A 9003  32.917   0.446   8.959
  390POPC   D2A 9004  32.745   0.301   8.558
  390POPC   C3A 9005  32.726   0.642   8.235
  390POPC   C4A 9006  32.692   0.601   7.798
  390POPC   C1B 9007  33.399   0.447   8.771
  390POPC   C2B 9008  33.200   0.482   8.384
  390POPC   C3B 9009  33.153   0.390   7.960
  390POPC   C4B 9010  33.463   0.582   7.715
  391POPC   NC3 9011   8.337  29.310   9.591
  391POPC   PO4 9012   8.273  28.684   9.350
  391POPC   GL1 9013   8.359  29.057   9.172
  391POPC   GL2 9014   8.094  29.338   9.121
  391POPC   C1A 9015   8.527  29.150   8.845
  391POPC   D2A 9016   8.389  29.002   8.460
  391POPC   C3A 9017   8.582  28.973   8.086
  391POPC   C4A 9018   8.455  29.162   7.733
  391POPC   C1B 9019   8.000  28.982   8.816
  391POPC   C2B 9020   7.931  28.798   8.403
  391POPC   C3B 9021   8.065  29.008   8.054
  391POPC   C4B 9022   7.959  29.048   7.635
  392POPC   NC3 9023   6.455  38.698   9.510
  392POPC   PO4 9024   7.061  38.376   9.603
  392POPC   GL1 9025   6.768  38.415   9.245
  392POPC   GL2 9026   6.862  38.748   9.181
  392POPC   C1A 9027   6.496  38.339   8.867
  392POPC   D2A 9028   6.492  38.592   8.461
  392POPC   C3A 9029   6.467  38.414   8.078
  392POPC   C4A 9030   6.475  38.594   7.704
  392POPC   C1B 9031   6.931  38.564   8.781
  392POPC   C2B 9032   7.031  38.544   8.372
  392POPC   C3B 9033   6.890  38.783   8.050
  392POPC   C4B 9034   7.007  38.720   7.642
  393POPC   NC3 9035  32.672   6.557   9.468
  393POPC   PO4 9036  33.255   6.958   9.459
  393POPC   GL1 9037  33.145   6.889   9.049
  393POPC   GL2 9038  32.872   6.670   9.023
  393POPC   C1A 9039  33.216   6.635   8.652
  393POPC   D2A 9040  33.161   6.585   8.171
  393POPC   C3A 9041  33.431   6.654   7.811
  393POPC   C4A 9042  33.481   6.641   7.337
  393POPC   C1B 9043  32.785   6.953   8.683
  393POPC   C2B 9044  32.740   6.892   8.259
  393POPC   C3B 9045  32.734   6.707   7.877
  393POPC   C4B 9046  32.615   6.391   7.610
  394POPC   NC3 9047  16.342  13.168   9.454
  394POPC   PO4 9048  15.737  13.180   9.698
  394POPC   GL1 9049  15.827  13.182   9.254
  394POPC   GL2 9050  15.651  13.439   9.088
  394POPC   C1A 9051  15.973  13.096   8.828
  394POPC   D2A 9052  16.040  12.863   8.445
  394POPC   C3A 9053  15.972  12.944   8.006
  394POPC   C4A 9054  16.095  12.586   7.725
  394POPC   C1B 9055  15.599  13.406   8.666
  394POPC   C2B 9056  15.803  13.364   8.276
  394POPC   C3B 9057  15.693  13.351   7.834
  394POPC   C4B 9058  15.952  13.246   7.480
  395POPC   NC3 9059  38.199   8.389   9.321
  395POPC   PO4 9060  37.601   8.181   9.558
  395POPC   GL1 9061  37.692   8.228   9.142
  395POPC   GL2 9062  37.447   8.482   9.146
  395POPC   C1A 9063  37.723   8.347   8.696
  395POPC   D2A 9064  38.014   8.463   8.335
  395POPC   C3A 9065  37.812   8.370   7.945
  395POPC   C4A 9066  37.815   8.384   7.482
  395POPC   C1B 9067  37.213   8.213   8.894
  395POPC   C2B 9068  37.300   8.026   8.517
  395POPC   C3B 9069  37.298   8.160   8.086
  395POPC   C4B 9070  37.445   8.100   7.674
  396POPC   NC3 9071   3.330  11.195   9.743
  396POPC   PO4 9072   3.934  11.042   9.558
  396POPC   GL1 9073   3.657  11.103   9.185
  396POPC   GL2 9074   3.416  11.310   9.218
  396POPC   C1A 9075   3.451  10.987   8.801
  396POPC   D2A 9076   3.550  11.214   8.440
  396POPC   C3A 9077   3.498  11.141   8.013
  396POPC   C4A 9078   3.709  11.093   7.586
  396POPC   C1B 9079   3.398  11.511   8.845
  396POPC   C2B 9080   3.474  11.721   8.450
  396POPC   C3B 9081   3.711  11.620   8.117
  396POPC   C4B 9082   3.585  11.562   7.698
  397POPC   NC3 9083  17.819  42.832   9.498
  397POPC   PO4 9084  17.584  42.139   9.413
  397POPC   GL1 9085  17.693  42.370   9.080
  397POPC   GL2 9086  17.466  42.622   9.136
  397POPC   C1A 9087  17.699  42.593   8.706
  397POPC   D2A 9088  17.536  42.391   8.352
  397POPC   C3A 9089  17.688  42.273   7.934
  397POPC   C4A 9090  17.763  42.279   7.502
  397POPC   C1B 9091  17.190  42.602   8.759
  397POPC   C2B 9092  17.124  42.742   8.324
  397POPC   C3B 9093  17.065  42.781   7.875
  397POPC   C4B 9094  17.317  42.522   7.537
  398POPC   NC3 9095  36.873  34.594   9.518
  398POPC   PO4 9096  36.914  35.224   9.479
  398POPC   GL1 9097  37.030  34.950   9.168
  398POPC   GL2 9098  36.688  34.874   9.150
  398POPC   C1A 9099  37.072  34.634   8.851
  398POPC   D2A 9100  37.209  34.398   8.510
  398POPC   C3A 9101  37.061  34.472   8.086
  398POPC   C4A 9102  36.957  34.172   7.776
  398POPC   C1B 9103  36.506  34.686   8.807
  398POPC   C2B 9104  36.684  34.529   8.462
  398POPC   C3B 9105  36.575  34.377   8.087
  398POPC   C4B 9106  36.480  34.604   7.741
  399POPC   NC3 9107   4.679  12.051   9.298
  399POPC   PO4 9108   5.355  11.900   9.432
  399POPC   GL1 9109   5.117  11.886   9.081
  399POPC   GL2 9110   4.996  11.558   9.074
  399POPC   C1A 9111   5.028  12.149   8.706
  399POPC   D2A 9112   5.292  12.276   8.363
  399POPC   C3A 9113   5.150  12.135   7.969
  399POPC   C4A 9114   5.002  12.349   7.602
  399POPC   C1B 9115   5.024  11.640   8.636
  399POPC   C2B 9116   4.917  11.730   8.206
  399POPC   C3B 9117   5.078  11.614   7.805
  399POPC   C4B 9118   5.215  11.920   7.494
  400POPC   NC3 9119  20.193  16.256   9.316
  400POPC   PO4 9120  19.727  16.032   9.678
  400POPC   GL1 9121  19.714  15.955   9.168
  400POPC   GL2 9122  20.006  15.864   8.985
  400POPC   C1A 9123  19.728  16.162   8.708
  400POPC   D2A 9124  19.894  15.979   8.312
  400POPC   C3A 9125  19.640  15.876   7.957
  400POPC   C4A 9126  19.653  16.168   7.657
  400POPC   C1B 9127  20.228  16.203   8.683
  400POPC   C2B 9128  20.228  16.405   8.275
  400POPC   C3B 9129  20.105  16.264   7.888
  400POPC   C4B 9130  20.100  15.923   7.636
  401POPC   NC3 9131   3.409  16.887   9.593
  401POPC   PO4 9132   3.542  16.374   9.306
  401POPC   GL1 9133   3.311  16.727   9.081
  401POPC   GL2 9134   3.479  17.061   9.112
  401POPC   C1A 9135   3.158  16.991   8.734
  401POPC   D2A 9136   3.382  17.105   8.366
  401POPC   C3A 9137   3.382  16.836   8.011
  401POPC   C4A 9138   3.482  16.558   7.688
  401POPC   C1B 9139   3.685  16.912   8.724
  401POPC   C2B 9140   3.803  16.812   8.283
  401POPC   C3B 9141   3.854  16.921   7.846
  401POPC   C4B 9142   4.234  16.957   7.609
  402POPC   NC3 9143   5.876   6.462   9.400
  402POPC   PO4 9144   5.427   6.911   9.346
  402POPC   GL1 9145   5.654   6.706   9.015
  402POPC   GL2 9146   5.886   6.994   9.002
  402POPC   C1A 9147   5.949   6.660   8.635
  402POPC   D2A 9148   5.974   6.859   8.230
  402POPC   C3A 9149   6.017   6.616   7.841
  402POPC   C4A 9150   5.752   6.511   7.480
  402POPC   C1B 9151   5.563   7.007   8.626
  402POPC   C2B 9152   5.468   7.046   8.179
  402POPC   C3B 9153   5.656   6.975   7.754
  402POPC   C4B 9154   5.933   6.957   7.358
  403POPC   NC3 9155   5.108  43.656   9.596
  403POPC   PO4 9156   5.816  43.730   9.456
  403POPC   GL1 9157   6.163  43.879   9.231
  403POPC   GL2 9158   6.115  43.560   9.032
  403POPC   C1A 9159   6.300  44.002   8.831
  403POPC   D2A 9160   6.092  44.027   8.427
  403POPC   C3A 9161   6.268  43.907   8.024
  403POPC   C4A 9162   5.985  43.847   7.690
  403POPC   C1B 9163   5.805  43.823   8.809
  403POPC   C2B 9164   5.567  43.989   8.453
  403POPC   C3B 9165   5.634  43.725   8.087
  403POPC   C4B 9166   5.614  43.514   7.695
  404POPC   NC3 9167  13.870  13.388   9.619
  404POPC   PO4 9168  13.427  13.813   9.477
  404POPC   GL1 9169  13.677  13.806   9.138
  404POPC   GL2 9170  13.954  13.620   9.169
  404POPC   C1A 9171  13.688  13.645   8.740
  404POPC   D2A 9172  13.753  13.863   8.392
  404POPC   C3A 9173  13.652  13.602   8.094
  404POPC   C4A 9174  13.702  13.687   7.699
  404POPC   C1B 9175  14.174  13.435   8.828
  404POPC   C2B 9176  14.107  13.354   8.372
  404POPC   C3B 9177  14.116  13.463   7.919
  404POPC   C4B 9178  14.066  13.454   7.447
  405POPC   NC3 9179  26.596  34.031   9.755
  405POPC   PO4 9180  26.376  33.464   9.484
  405POPC   GL1 9181  26.527  33.492   9.063
  405POPC   GL2 9182  26.823  33.666   9.026
  405POPC   C1A 9183  26.444  33.751   8.675
  405POPC   D2A 9184  26.678  33.973   8.362
  405POPC   C3A 9185  26.507  33.873   7.963
  405POPC   C4A 9186  26.542  34.130   7.573
  405POPC   C1B 9187  26.798  33.388   8.628
  405POPC   C2B 9188  26.840  33.524   8.193
  405POPC   C3B 9189  26.963  33.755   7.796
  405POPC   C4B 9190  27.129  33.858   7.386
  406POPC   NC3 9191  29.001   6.286   9.371
  406POPC   PO4 9192  29.155   6.955   9.368
  406POPC   GL1 9193  29.259   6.688   9.084
  406POPC   GL2 9194  29.415   6.913   8.870
  406POPC   C1A 9195  29.150   6.454   8.726
  406POPC   D2A 9196  29.198   6.274   8.335
  406POPC   C3A 9197  28.955   6.402   7.981
  406POPC   C4A 9198  28.998   6.250   7.569
  406POPC   C1B 9199  29.707   7.127   8.585
  406POPC   C2B 9200  29.533   7.136   8.190
  406POPC   C3B 9201  29.263   6.833   8.023
  406POPC   C4B 9202  29.202   6.722   7.610
  407POPC   NC3 9203  11.815  28.036   9.465
  407POPC   PO4 9204  11.072  28.360   9.427
  407POPC   GL1 9205  11.260  28.238   9.056
  407POPC   GL2 9206  11.598  28.340   9.102
  407POPC   C1A 9207  11.340  28.356   8.630
  407POPC   D2A 9208  11.648  28.416   8.337
  407POPC   C3A 9209  11.486  28.604   7.987
  407POPC   C4A 9210  11.174  28.712   7.722
  407POPC   C1B 9211  11.640  27.981   8.821
  407POPC   C2B 9212  11.494  27.901   8.422
  407POPC   C3B 9213  11.306  28.126   8.094
  407POPC   C4B 9214  11.316  28.210   7.673
  408POPC   NC3 9215  22.142  21.010   9.369
  408POPC   PO4 9216  22.090  20.365   9.404
  408POPC   GL1 9217  22.276  20.443   9.016
  408POPC   GL2 9218  22.040  20.687   8.983
  408POPC   C1A 9219  22.190  20.402   8.572
  408POPC   D2A 9220  21.858  20.598   8.354
  408POPC   C3A 9221  21.956  20.698   7.966
  408POPC   C4A 9222  22.336  20.536   7.802
  408POPC   C1B 9223  22.218  20.905   8.687
  408POPC   C2B 9224  22.356  20.833   8.294
  408POPC   C3B 9225  22.393  21.024   7.908
  408POPC   C4B 9226  22.050  21.095   7.648
  409POPC   NC3 9227  42.302  34.308   9.480
  409POPC   PO4 9228  42.594  34.902   9.646
  409POPC   GL1 9229  42.536  34.691   9.185
  409POPC   GL2 9230  42.307  34.411   9.004
  409POPC   C1A 9231  42.348  34.859   8.787
  409POPC   D2A 9232  42.314  34.627   8.428
  409POPC   C3A 9233  42.198  34.713   8.031
  409POPC   C4A 9234  42.471  34.689   7.746
  409POPC   C1B 9235  42.331  34.105   8.693
  409POPC   C2B 9236  42.325  34.165   8.225
  409POPC   C3B 9237  42.258  34.231   7.795
  409POPC   C4B 9238  42.463  34.256   7.394
  410POPC   NC3 9239   8.210  38.744   9.738
  410POPC   PO4 9240   8.031  38.195   9.446
  410POPC   GL1 9241   8.283  38.407   9.164
  410POPC   GL2 9242   7.948  38.432   8.967
  410POPC   C1A 9243   8.411  38.467   8.738
  410POPC   D2A 9244   8.499  38.271   8.340
  410POPC   C3A 9245   8.399  38.471   7.946
  410POPC   C4A 9246   8.406  38.583   7.471
  410POPC   C1B 9247   7.949  38.389   8.542
  410POPC   C2B 9248   8.091  38.724   8.300
  410POPC   C3B 9249   7.999  38.784   7.899
  410POPC   C4B 9250   7.952  38.435   7.684
  411POPC   NC3 9251  22.771  24.111   9.259
  411POPC   PO4 9252  22.403  23.656   9.616
  411POPC   GL1 9253  22.427  23.710   9.186
  411POPC   GL2 9254  22.159  23.946   9.163
  411POPC   C1A 9255  22.466  23.851   8.745
  411POPC   D2A 9256  22.572  23.749   8.351
  411POPC   C3A 9257  22.369  23.626   7.979
  411POPC   C4A 9258  22.397  24.013   7.749
  411POPC   C1B 9259  22.037  23.609   8.844
  411POPC   C2B 9260  22.063  23.554   8.443
  411POPC   C3B 9261  21.958  23.871   8.167
  411POPC   C4B 9262  21.896  23.871   7.766
  412POPC   NC3 9263  16.179  16.501   9.499
  412POPC   PO4 9264  15.852  17.099   9.545
  412POPC   GL1 9265  15.961  16.871   9.203
  412POPC   GL2 9266  16.297  16.921   9.096
  412POPC   C1A 9267  15.877  16.666   8.817
  412POPC   D2A 9268  16.052  16.558   8.420
  412POPC   C3A 9269  15.811  16.382   8.095
  412POPC   C4A 9270  15.729  16.637   7.726
  412POPC   C1B 9271  16.356  16.903   8.657
  412POPC   C2B 9272  16.303  16.973   8.221
  412POPC   C3B 9273  16.142  16.945   7.815
  412POPC   C4B 9274  16.254  16.720   7.448
  413POPC   NC3 9275  18.018   1.857   9.392
  413POPC   PO4 9276  18.701   1.844   9.407
  413POPC   GL1 9277  18.427   1.950   9.060
  413POPC   GL2 9278  18.182   2.244   9.065
  413POPC   C1A 9279  18.210   1.793   8.693
  413POPC   D2A 9280  18.352   1.606   8.284
  413POPC   C3A 9281  18.597   1.897   7.981
  413POPC   C4A 9282  18.501   1.916   7.503
  413POPC   C1B 9283  17.984   2.258   8.642
  413POPC   C2B 9284  18.102   2.071   8.234
  413POPC   C3B 9285  18.108   1.856   7.837
  413POPC   C4B 9286  18.018   2.060   7.405
  414POPC   NC3 9287  20.939  22.388   9.502
  414POPC   PO4 9288  21.617  22.156   9.598
  414POPC   GL1 9289  21.600  22.056   9.208
  414POPC   GL2 9290  21.233  22.085   9.179
  414POPC   C1A 9291  21.586  22.291   8.818
  414POPC   D2A 9292  21.805  22.482   8.447
  414POPC   C3A 9293  21.671  22.258   8.070
  414POPC   C4A 9294  21.573  22.439   7.661
  414POPC   C1B 9295  21.053  22.069   8.752
  414POPC   C2B 9296  21.043  21.926   8.328
  414POPC   C3B 9297  21.141  22.230   8.014
  414POPC   C4B 9298  21.084  22.613   7.802
  415POPC   NC3 9299  25.849  18.919   9.189
  415POPC   PO4 9300  25.487  19.393   9.545
  415POPC   GL1 9301  25.391  19.239   9.137
  415POPC   GL2 9302  25.226  18.952   9.263
  415POPC   C1A 9303  25.453  19.302   8.669
  415POPC   D2A 9304  25.110  19.425   8.377
  415POPC   C3A 9305  25.077  19.292   7.950
  415POPC   C4A 9306  25.496  19.314   7.756
  415POPC   C1B 9307  25.154  18.913   8.807
  415POPC   C2B 9308  25.271  18.930   8.348
  415POPC   C3B 9309  25.348  18.848   7.904
  415POPC   C4B 9310  24.997  18.894   7.576
  416POPC   NC3 9311  22.643  11.624   9.628
  416POPC   PO4 9312  22.911  12.129   9.596
  416POPC   GL1 9313  22.940  12.036   9.201
  416POPC   GL2 9314  23.133  11.787   9.090
  416POPC   C1A 9315  22.754  12.036   8.805
  416POPC   D2A 9316  22.809  11.880   8.405
  416POPC   C3A 9317  22.771  12.136   8.099
  416POPC   C4A 9318  22.671  12.040   7.679
  416POPC   C1B 9319  23.232  11.944   8.673
  416POPC   C2B 9320  23.324  12.005   8.212
  416POPC   C3B 9321  23.169  12.111   7.781
  416POPC   C4B 9322  23.096  12.035   7.352
  417POPC   NC3 9323  44.896  37.718   9.489
  417POPC   PO4 9324  44.220  37.828   9.439
  417POPC   GL1 9325  44.576  37.689   9.103
  417POPC   GL2 9326  44.942  37.499   9.044
  417POPC   C1A 9327  44.639  37.615   8.677
  417POPC   D2A 9328  44.435  37.387   8.395
  417POPC   C3A 9329  44.656  37.620   8.121
  417POPC   C4A 9330  44.628  37.675   7.732
  417POPC   C1B 9331   0.198  37.469   8.684
  417POPC   C2B 9332   0.136  37.543   8.264
  417POPC   C3B 9333   0.080  37.451   7.819
  417POPC   C4B 9334   0.269  37.677   7.460
  418POPC   NC3 9335  30.690  29.451   9.458
  418POPC   PO4 9336  30.641  28.788   9.565
  418POPC   GL1 9337  30.581  29.023   9.191
  418POPC   GL2 9338  30.943  29.150   9.129
  418POPC   C1A 9339  30.502  29.303   8.810
  418POPC   D2A 9340  30.720  29.339   8.423
  418POPC   C3A 9341  30.453  29.317   8.102
  418POPC   C4A 9342  30.475  29.118   7.730
  418POPC   C1B 9343  30.835  28.928   8.766
  418POPC   C2B 9344  30.937  28.780   8.412
  418POPC   C3B 9345  30.794  28.805   8.044
  418POPC   C4B 9346  30.927  28.928   7.675
  419POPC   NC3 9347   4.643  44.259   9.667
  419POPC   PO4 9348   4.382  43.680   9.478
  419POPC   GL1 9349   4.320  44.013   9.124
  419POPC   GL2 9350   4.604  43.902   8.902
  419POPC   C1A 9351   4.189  44.055   8.655
  419POPC   D2A 9352   4.519  43.856   8.380
  419POPC   C3A 9353   4.532  44.008   7.960
  419POPC   C4A 9354   4.163  44.028   7.702
  419POPC   C1B 9355   4.289  43.572   8.781
  419POPC   C2B 9356   3.920  43.614   8.491
  419POPC   C3B 9357   4.086  43.735   8.108
  419POPC   C4B 9358   4.417  43.544   7.831
  420POPC   NC3 9359   1.605  43.875   9.495
  420POPC   PO4 9360   0.912  44.005   9.383
  420POPC   GL1 9361   1.120  43.784   9.083
  420POPC   GL2 9362   1.428  43.593   9.132
  420POPC   C1A 9363   1.179  43.994   8.717
  420POPC   D2A 9364   1.373  43.910   8.356
  420POPC   C3A 9365   1.098  43.890   8.043
  420POPC   C4A 9366   1.048  43.546   7.736
  420POPC   C1B 9367   1.636  43.666   8.750
  420POPC   C2B 9368   1.635  43.477   8.340
  420POPC   C3B 9369   1.510  43.582   7.973
  420POPC   C4B 9370   1.546  43.529   7.578
  421POPC   NC3 9371  31.331  11.626   9.499
  421POPC   PO4 9372  31.793  12.103   9.492
  421POPC   GL1 9373  31.523  12.000   9.177
  421POPC   GL2 9374  31.677  11.720   9.105
  421POPC   C1A 9375  31.342  12.210   8.837
  421POPC   D2A 9376  31.418  12.193   8.403
  421POPC   C3A 9377  31.311  12.468   8.076
  421POPC   C4A 9378  31.645  12.535   7.781
  421POPC   C1B 9379  31.461  11.671   8.743
  421POPC   C2B 9380  31.296  11.728   8.357
  421POPC   C3B 9381  31.400  11.863   7.946
  421POPC   C4B 9382  31.708  11.610   7.712
  422POPC   NC3 9383  36.247  43.441   9.592
  422POPC   PO4 9384  36.021  44.102   9.447
  422POPC   GL1 9385  36.180  43.892   9.129
  422POPC   GL2 9386  36.463  43.813   9.298
  422POPC   C1A 9387  36.088  43.696   8.739
  422POPC   D2A 9388  35.779  43.612   8.449
  422POPC   C3A 9389  35.823  43.753   8.025
  422POPC   C4A 9390  36.083  43.956   7.749
  422POPC   C1B 9391  36.592  43.720   8.861
  422POPC   C2B 9392  36.498  43.811   8.428
  422POPC   C3B 9393  36.526  43.765   7.990
  422POPC   C4B 9394  36.278  43.496   7.786
  423POPC   NC3 9395  21.241   1.260   9.895
  423POPC   PO4 9396  20.673   1.258   9.577
  423POPC   GL1 9397  20.723   1.296   9.154
  423POPC   GL2 9398  20.647   0.925   9.156
  423POPC   C1A 9399  20.814   1.173   8.746
  423POPC   D2A 9400  20.757   0.905   8.375
  423POPC   C3A 9401  20.713   1.188   8.019
  423POPC   C4A 9402  20.721   1.060   7.585
  423POPC   C1B 9403  20.390   0.908   8.786
  423POPC   C2B 9404  20.255   0.852   8.350
  423POPC   C3B 9405  20.473   0.760   7.945
  423POPC   C4B 9406  20.334   0.720   7.533
  424POPC   NC3 9407  11.344  26.312   9.533
  424POPC   PO4 9408  11.757  25.794   9.207
  424POPC   GL1 9409  11.415  26.046   9.085
  424POPC   GL2 9410  11.156  26.302   9.085
  424POPC   C1A 9411  11.518  26.142   8.682
  424POPC   D2A 9412  11.482  25.834   8.407
  424POPC   C3A 9413  11.504  25.951   7.999
  424POPC   C4A 9414  11.479  25.553   7.816
  424POPC   C1B 9415  11.018  26.093   8.748
  424POPC   C2B 9416  11.127  26.195   8.342
  424POPC   C3B 9417  10.969  26.212   7.958
  424POPC   C4B 9418  11.118  25.914   7.640
  425POPC   NC3 9419  10.072  18.626   9.460
  425POPC   PO4 9420  10.646  18.263   9.434
  425POPC   GL1 9421  10.386  18.230   9.066
  425POPC   GL2 9422  10.369  18.574   8.962
  425POPC   C1A 9423  10.554  18.083   8.659
  425POPC   D2A 9424  10.525  18.272   8.304
  425POPC   C3A 9425  10.568  18.148   7.888
  425POPC   C4A 9426  10.252  18.344   7.675
  425POPC   C1B 9427  10.783  18.497   8.838
  425POPC   C2B 9428  10.927  18.540   8.451
  425POPC   C3B 9429  10.786  18.608   8.040
  425POPC   C4B 9430  10.638  18.669   7.626
  426POPC   NC3 9431  34.827  43.685   9.534
  426POPC   PO4 9432  35.143  44.263   9.494
  426POPC   GL1 9433  35.472  44.047   9.137
  426POPC   GL2 9434  35.693  43.716   9.130
  426POPC   C1A 9435  35.728  44.083   8.750
  426POPC   D2A 9436  35.477  44.015   8.360
  426POPC   C3A 9437  35.409  44.073   7.917
  426POPC   C4A 9438  35.156  43.931   7.551
  426POPC   C1B 9439  35.378  43.675   8.786
  426POPC   C2B 9440  35.286  43.506   8.385
  426POPC   C3B 9441  35.340  43.576   7.961
  426POPC   C4B 9442  35.098  43.423   7.676
  427POPC   NC3 9443  19.391  13.150   9.165
  427POPC   PO4 9444  18.874  12.783   9.404
  427POPC   GL1 9445  18.872  12.984   9.046
  427POPC   GL2 9446  19.022  12.695   8.906
  427POPC   C1A 9447  18.994  13.136   8.644
  427POPC   D2A 9448  18.945  13.050   8.239
  427POPC   C3A 9449  19.149  12.821   7.935
  427POPC   C4A 9450  19.132  12.739   7.503
  427POPC   C1B 9451  19.187  12.670   8.483
  427POPC   C2B 9452  19.365  12.427   8.166
  427POPC   C3B 9453  19.466  12.417   7.722
  427POPC   C4B 9454  19.296  12.278   7.308
  428POPC   NC3 9455  12.071  41.992   9.553
  428POPC   PO4 9456  12.389  42.595   9.500
  428POPC   GL1 9457  12.143  42.603   9.096
  428POPC   GL2 9458  12.030  42.294   9.120
  428POPC   C1A 9459  12.075  42.548   8.629
  428POPC   D2A 9460  12.269  42.190   8.330
  428POPC   C3A 9461  12.180  42.252   7.916
  428POPC   C4A 9462  11.937  42.570   7.724
  428POPC   C1B 9463  11.995  42.061   8.728
  428POPC   C2B 9464  11.948  41.766   8.405
  428POPC   C3B 9465  11.811  41.845   7.986
  428POPC   C4B 9466  11.845  42.073   7.568
  429POPC   NC3 9467   7.464   2.741   9.634
  429POPC   PO4 9468   7.767   3.229   9.356
  429POPC   GL1 9469   7.653   2.884   9.164
  429POPC   GL2 9470   7.323   2.910   9.183
  429POPC   C1A 9471   7.645   2.704   8.768
  429POPC   D2A 9472   7.364   2.704   8.409
  429POPC   C3A 9473   7.575   2.668   8.019
  429POPC   C4A 9474   7.427   2.564   7.619
  429POPC   C1B 9475   7.315   3.090   8.816
  429POPC   C2B 9476   7.269   3.220   8.418
  429POPC   C3B 9477   7.187   3.048   8.037
  429POPC   C4B 9478   7.442   3.084   7.687
  430POPC   NC3 9479  21.535  32.728   9.426
  430POPC   PO4 9480  21.535  32.077   9.505
  430POPC   GL1 9481  21.674  32.274   9.164
  430POPC   GL2 9482  21.362  32.436   9.057
  430POPC   C1A 9483  21.660  32.231   8.726
  430POPC   D2A 9484  21.410  32.046   8.472
  430POPC   C3A 9485  21.644  32.183   8.174
  430POPC   C4A 9486  21.602  32.308   7.771
  430POPC   C1B 9487  21.067  32.332   8.754
  430POPC   C2B 9488  20.951  32.194   8.344
  430POPC   C3B 9489  21.164  32.073   7.988
  430POPC   C4B 9490  21.003  32.332   7.695
  431POPC   NC3 9491  32.111   0.851   9.487
  431POPC   PO4 9492  32.441   0.232   9.587
  431POPC   GL1 9493  32.220   0.385   9.215
  431POPC   GL2 9494  31.928   0.572   9.084
  431POPC   C1A 9495  32.304   0.222   8.823
  431POPC   D2A 9496  32.292   0.025   8.421
  431POPC   C3A 9497  32.550   0.173   8.092
  431POPC   C4A 9498  32.295   0.299   7.777
  431POPC   C1B 9499  32.091   0.663   8.668
  431POPC   C2B 9500  32.210   0.568   8.244
  431POPC   C3B 9501  32.205   0.795   7.861
  431POPC   C4B 9502  32.121   0.795   7.425
  432POPC   NC3 9503  11.867  14.960   9.470
  432POPC   PO4 9504  12.308  15.558   9.457
  432POPC   GL1 9505  12.195  15.252   9.133
  432POPC   GL2 9506  11.883  15.311   9.068
  432POPC   C1A 9507  12.189  15.075   8.680
  432POPC   D2A 9508  12.483  15.113   8.320
  432POPC   C3A 9509  12.278  15.377   8.015
  432POPC   C4A 9510  11.898  15.363   7.769
  432POPC   C1B 9511  11.727  14.909   8.866
  432POPC   C2B 9512  11.721  14.835   8.473
  432POPC   C3B 9513  11.928  15.012   8.144
  432POPC   C4B 9514  11.927  14.876   7.726
  433POPC   NC3 9515  22.178  30.408   9.655
  433POPC   PO4 9516  22.617  29.980   9.531
  433POPC   GL1 9517  22.254  29.964   9.246
  433POPC   GL2 9518  22.034  30.242   9.194
  433POPC   C1A 9519  22.159  29.862   8.812
  433POPC   D2A 9520  22.399  29.937   8.453
  433POPC   C3A 9521  22.168  29.867   8.075
  433POPC   C4A 9522  22.185  30.018   7.674
  433POPC   C1B 9523  21.834  30.259   8.795
  433POPC   C2B 9524  21.972  30.260   8.368
  433POPC   C3B 9525  21.902  30.367   7.929
  433POPC   C4B 9526  21.744  30.175   7.488
  434POPC   NC3 9527  24.000  25.075   9.766
  434POPC   PO4 9528  23.463  25.377   9.479
  434POPC   GL1 9529  23.774  25.180   9.240
  434POPC   GL2 9530  24.113  25.291   9.194
  434POPC   C1A 9531  23.756  25.133   8.804
  434POPC   D2A 9532  23.785  25.372   8.430
  434POPC   C3A 9533  23.639  25.313   8.011
  434POPC   C4A 9534  23.594  25.061   7.656
  434POPC   C1B 9535  24.158  25.474   8.788
  434POPC   C2B 9536  24.216  25.599   8.347
  434POPC   C3B 9537  24.021  25.653   7.956
  434POPC   C4B 9538  23.821  25.510   7.553
  435POPC   NC3 9539  43.067  14.037   9.424
  435POPC   PO4 9540  43.425  13.581   9.550
  435POPC   GL1 9541  43.179  13.388   9.229
  435POPC   GL2 9542  42.995  13.634   9.074
  435POPC   C1A 9543  43.293  13.325   8.785
  435POPC   D2A 9544  43.403  13.561   8.383
  435POPC   C3A 9545  43.366  13.390   7.981
  435POPC   C4A 9546  43.113  13.586   7.677
  435POPC   C1B 9547  42.940  13.663   8.614
  435POPC   C2B 9548  42.907  13.604   8.163
  435POPC   C3B 9549  42.642  13.714   7.777
  435POPC   C4B 9550  42.777  13.903   7.373
  436POPC   NC3 9551  27.687  10.071   9.588
  436POPC   PO4 9552  27.788   9.413   9.653
  436POPC   GL1 9553  27.689   9.627   9.249
  436POPC   GL2 9554  27.383   9.837   9.119
  436POPC   C1A 9555  27.703   9.555   8.809
  436POPC   D2A 9556  27.729   9.660   8.407
  436POPC   C3A 9557  27.642   9.414   8.097
  436POPC   C4A 9558  27.829   9.656   7.861
  436POPC   C1B 9559  27.174   9.806   8.655
  436POPC   C2B 9560  27.274   9.774   8.180
  436POPC   C3B 9561  27.142   9.763   7.735
  436POPC   C4B 9562  27.072   9.539   7.326
  437POPC   NC3 9563  17.473  26.318   9.358
  437POPC   PO4 9564  17.171  25.717   9.535
  437POPC   GL1 9565  17.295  25.916   9.122
  437POPC   GL2 9566  16.983  26.052   9.079
  437POPC   C1A 9567  17.483  25.947   8.698
  437POPC   D2A 9568  17.288  25.801   8.337
  437POPC   C3A 9569  17.401  25.924   7.963
  437POPC   C4A 9570  17.546  26.013   7.581
  437POPC   C1B 9571  16.999  26.093   8.636
  437POPC   C2B 9572  17.038  26.217   8.182
  437POPC   C3B 9573  17.294  26.402   7.842
  437POPC   C4B 9574  17.298  26.371   7.345
  438POPC   NC3 9575  44.000   6.979   9.789
  438POPC   PO4 9576  43.948   7.535   9.504
  438POPC   GL1 9577  43.792   7.411   9.156
  438POPC   GL2 9578  43.532   7.595   9.151
  438POPC   C1A 9579  43.873   7.403   8.749
  438POPC   D2A 9580  44.003   7.177   8.411
  438POPC   C3A 9581  43.847   7.356   8.064
  438POPC   C4A 9582  43.830   7.187   7.685
  438POPC   C1B 9583  43.565   7.841   8.814
  438POPC   C2B 9584  43.639   7.711   8.410
  438POPC   C3B 9585  43.463   7.719   8.021
  438POPC   C4B 9586  43.676   7.686   7.641
  439POPC   NC3 9587   6.983  27.494   9.894
  439POPC   PO4 9588   6.380  27.427   9.460
  439POPC   GL1 9589   6.431  27.650   9.104
  439POPC   GL2 9590   6.421  27.355   8.922
  439POPC   C1A 9591   6.784  27.688   8.786
  439POPC   D2A 9592   6.672  27.738   8.392
  439POPC   C3A 9593   6.915  27.727   8.062
  439POPC   C4A 9594   6.793  27.849   7.664
  439POPC   C1B 9595   6.759  27.200   8.663
  439POPC   C2B 9596   6.744  27.223   8.241
  439POPC   C3B 9597   6.467  27.467   7.997
  439POPC   C4B 9598   6.417  27.462   7.567
  440POPC   NC3 9599  33.581  24.186   9.643
  440POPC   PO4 9600  33.725  23.530   9.547
  440POPC   GL1 9601  33.728  23.524   9.120
  440POPC   GL2 9602  34.090  23.562   9.064
  440POPC   C1A 9603  33.606  23.611   8.694
  440POPC   D2A 9604  33.783  23.677   8.295
  440POPC   C3A 9605  33.536  23.568   7.975
  440POPC   C4A 9606  33.740  23.545   7.593
  440POPC   C1B 9607  34.125  23.743   8.666
  440POPC   C2B 9608  34.241  23.936   8.249
  440POPC   C3B 9609  33.931  24.011   7.909
  440POPC   C4B 9610  33.505  24.024   7.736
  441POPC   NC3 9611  27.962  14.174   9.669
  441POPC   PO4 9612  27.371  14.053   9.641
  441POPC   GL1 9613  27.467  14.326   9.282
  441POPC   GL2 9614  27.285  14.645   9.308
  441POPC   C1A 9615  27.731  14.383   8.904
  441POPC   D2A 9616  27.790  14.555   8.473
  441POPC   C3A 9617  27.623  14.351   8.079
  441POPC   C4A 9618  27.443  14.270   7.653
  441POPC   C1B 9619  27.276  14.656   8.858
  441POPC   C2B 9620  27.231  14.570   8.404
  441POPC   C3B 9621  27.277  14.733   7.976
  441POPC   C4B 9622  27.231  14.793   7.531
  442POPC   NC3 9623  21.235   5.945   9.582
  442POPC   PO4 9624  21.755   6.286   9.316
  442POPC   GL1 9625  21.470   5.981   9.087
  442POPC   GL2 9626  21.383   5.692   9.120
  442POPC   C1A 9627  21.430   6.002   8.689
  442POPC   D2A 9628  21.231   6.228   8.408
  442POPC   C3A 9629  21.243   6.090   8.046
  442POPC   C4A 9630  21.485   5.938   7.716
  442POPC   C1B 9631  21.120   5.605   8.790
  442POPC   C2B 9632  21.089   5.737   8.439
  442POPC   C3B 9633  20.921   5.698   8.123
  442POPC   C4B 9634  21.004   5.773   7.741
  443POPC   NC3 9635  38.138  26.452   9.360
  443POPC   PO4 9636  38.645  26.946   9.567
  443POPC   GL1 9637  38.754  26.763   9.164
  443POPC   GL2 9638  38.443  26.833   8.971
  443POPC   C1A 9639  38.845  26.538   8.768
  443POPC   D2A 9640  38.731  26.475   8.305
  443POPC   C3A 9641  38.419  26.782   8.129
  443POPC   C4A 9642  38.374  26.925   7.690
  443POPC   C1B 9643  38.295  27.068   8.581
  443POPC   C2B 9644  38.148  27.227   8.159
  443POPC   C3B 9645  38.053  27.313   7.724
  443POPC   C4B 9646  38.262  27.263   7.303
  444POPC   NC3 9647  22.640  44.245   9.479
  444POPC   PO4 9648  23.297  44.245   9.829
  444POPC   GL1 9649  23.163  44.380   9.366
  444POPC   GL2 9650  23.131  44.753   9.315
  444POPC   C1A 9651  23.067  44.329   8.897
  444POPC   D2A 9652  22.827  44.377   8.488
  444POPC   C3A 9653  22.973  44.332   8.018
  444POPC   C4A 9654  22.854  44.423   7.537
  444POPC   C1B 9655  23.041  44.908   8.884
  444POPC   C2B 9656  22.830  44.898   8.472
  444POPC   C3B 9657  22.896  44.850   8.022
  444POPC   C4B 9658  23.128  44.869   7.637
  445POPC   NC3 9659  42.856  36.802   9.501
  445POPC   PO4 9660  43.455  37.188   9.506
  445POPC   GL1 9661  43.219  37.034   9.104
  445POPC   GL2 9662  42.891  36.943   9.021
  445POPC   C1A 9663  43.119  37.182   8.676
  445POPC   D2A 9664  42.934  36.968   8.395
  445POPC   C3A 9665  42.985  37.074   8.028
  445POPC   C4A 9666  43.270  37.030   7.742
  445POPC   C1B 9667  42.684  36.624   8.832
  445POPC   C2B 9668  42.505  36.681   8.484
  445POPC   C3B 9669  42.606  36.718   8.063
  445POPC   C4B 9670  42.688  36.866   7.654
  446POPC   NC3 9671  27.928  39.784   9.288
  446POPC   PO4 9672  28.428  40.271   9.484
  446POPC   GL1 9673  28.409  40.165   9.055
  446POPC   GL2 9674  28.063  40.172   8.974
  446POPC   C1A 9675  28.565  39.928   8.683
  446POPC   D2A 9676  28.667  39.800   8.256
  446POPC   C3A 9677  28.418  40.042   7.945
  446POPC   C4A 9678  28.141  40.369   7.738
  446POPC   C1B 9679  28.087  39.773   8.682
  446POPC   C2B 9680  28.180  39.715   8.275
  446POPC   C3B 9681  28.086  39.614   7.870
  446POPC   C4B 9682  28.141  39.541   7.413
  447POPC   NC3 9683  27.144  40.385   9.441
  447POPC   PO4 9684  26.650  40.882   9.485
  447POPC   GL1 9685  26.814  40.942   9.084
  447POPC   GL2 9686  26.756  40.580   9.046
  447POPC   C1A 9687  26.798  40.917   8.633
  447POPC   D2A 9688  26.834  40.603   8.306
  447POPC   C3A 9689  26.899  40.676   7.882
  447POPC   C4A 9690  26.880  40.439   7.496
  447POPC   C1B 9691  26.422  40.582   8.738
  447POPC   C2B 9692  26.352  40.757   8.330
  447POPC   C3B 9693  26.439  41.012   7.954
  447POPC   C4B 9694  26.515  40.783   7.558
  448POPC   NC3 9695   9.727  11.369   9.808
  448POPC   PO4 9696   9.252  11.741   9.502
  448POPC   GL1 9697   9.562  11.551   9.224
  448POPC   GL2 9698   9.740  11.265   9.269
  448POPC   C1A 9699   9.823  11.612   8.845
  448POPC   D2A 9700   9.874  11.402   8.469
  448POPC   C3A 9701   9.933  11.605   8.096
  448POPC   C4A 9702   9.745  11.544   7.735
  448POPC   C1B 9703   9.546  11.038   8.891
  448POPC   C2B 9704   9.655  10.923   8.472
  448POPC   C3B 9705   9.732  11.124   8.057
  448POPC   C4B 9706   9.576  11.057   7.632
  449POPC   NC3 9707  37.449  17.016   9.268
  449POPC   PO4 9708  38.070  17.279   9.288
  449POPC   GL1 9709  37.793  17.582   9.087
  449POPC   GL2 9710  37.582  17.389   8.948
  449POPC   C1A 9711  37.919  17.654   8.674
  449POPC   D2A 9712  37.856  17.344   8.367
  449POPC   C3A 9713  37.992  17.575   8.044
  449POPC   C4A 9714  37.810  17.802   7.730
  449POPC   C1B 9715  37.294  17.457   8.662
  449POPC   C2B 9716  37.342  17.385   8.274
  449POPC   C3B 9717  37.567  17.336   7.907
  449POPC   C4B 9718  37.265  17.500   7.729
  450POPC   NC3 9719  13.862  25.107   9.464
  450POPC   PO4 9720  13.316  25.497   9.449
  450POPC   GL1 9721  13.632  25.357   9.103
  450POPC   GL2 9722  13.804  25.576   8.936
  450POPC   C1A 9723  13.872  25.134   8.691
  450POPC   D2A 9724  13.708  25.013   8.224
  450POPC   C3A 9725  13.828  24.995   7.738
  450POPC   C4A 9726  13.514  24.948   7.375
  450POPC   C1B 9727  13.423  25.363   8.655
  450POPC   C2B 9728  13.322  25.369   8.225
  450POPC   C3B 9729  13.361  25.197   7.813
  450POPC   C4B 9730  13.188  25.342   7.429
  451POPC   NC3 9731   5.496  37.123   9.197
  451POPC   PO4 9732   4.932  37.102   9.496
  451POPC   GL1 9733   5.017  37.049   9.071
  451POPC   GL2 9734   4.770  37.218   9.014
  451POPC   C1A 9735   5.225  37.044   8.621
  451POPC   D2A 9736   5.289  37.104   8.180
  451POPC   C3A 9737   5.235  36.720   7.920
  451POPC   C4A 9738   5.236  36.378   7.611
  451POPC   C1B 9739   4.753  36.880   8.676
  451POPC   C2B 9740   4.827  36.865   8.218
  451POPC   C3B 9741   4.907  37.116   7.819
  451POPC   C4B 9742   4.859  37.152   7.333
  452POPC   NC3 9743   4.745  28.547   9.517
  452POPC   PO4 9744   5.446  28.643   9.434
  452POPC   GL1 9745   5.176  28.465   9.106
  452POPC   GL2 9746   5.257  28.141   8.981
  452POPC   C1A 9747   4.917  28.416   8.725
  452POPC   D2A 9748   4.633  28.208   8.425
  452POPC   C3A 9749   4.772  28.244   7.976
  452POPC   C4A 9750   4.966  28.610   7.728
  452POPC   C1B 9751   5.236  28.041   8.578
  452POPC   C2B 9752   5.190  28.371   8.284
  452POPC   C3B 9753   5.298  28.262   7.906
  452POPC   C4B 9754   5.134  27.944   7.662
  453POPC   NC3 9755  35.813  23.498   9.465
  453POPC   PO4 9756  36.298  23.901   9.372
  453POPC   GL1 9757  35.914  23.878   9.064
  453POPC   GL2 9758  35.817  23.559   8.974
  453POPC   C1A 9759  36.022  23.855   8.622
  453POPC   D2A 9760  36.443  23.766   8.506
  453POPC   C3A 9761  36.452  23.947   8.121
  453POPC   C4A 9762  36.379  23.929   7.701
  453POPC   C1B 9763  36.151  23.387   8.796
  453POPC   C2B 9764  36.119  23.374   8.379
  453POPC   C3B 9765  36.238  23.466   7.998
  453POPC   C4B 9766  36.042  23.531   7.638
  454POPC   NC3 9767  11.966  10.957   9.462
  454POPC   PO4 9768  11.620  11.487   9.710
  454POPC   GL1 9769  11.948  11.472   9.313
  454POPC   GL2 9770  11.940  11.178   9.030
  454POPC   C1A 9771  12.136  11.610   8.877
  454POPC   D2A 9772  12.019  11.344   8.515
  454POPC   C3A 9773  12.098  11.382   8.080
  454POPC   C4A 9774  11.983  11.644   7.702
  454POPC   C1B 9775  12.003  10.872   8.710
  454POPC   C2B 9776  12.172  10.848   8.329
  454POPC   C3B 9777  11.944  10.811   7.959
  454POPC   C4B 9778  12.097  11.086   7.637
  455POPC   NC3 9779  35.570   5.032   9.372
  455POPC   PO4 9780  36.228   4.956   9.352
  455POPC   GL1 9781  36.069   5.044   9.011
  455POPC   GL2 9782  35.872   5.371   9.046
  455POPC   C1A 9783  36.317   4.922   8.642
  455POPC   D2A 9784  36.373   4.945   8.207
  455POPC   C3A 9785  35.973   5.053   8.060
  455POPC   C4A 9786  36.045   4.951   7.660
  455POPC   C1B 9787  36.190   5.413   8.700
  455POPC   C2B 9788  36.277   5.446   8.286
  455POPC   C3B 9789  36.325   5.352   7.867
  455POPC   C4B 9790  36.307   5.663   7.611
  456POPC   NC3 9791  40.429  35.973   9.436
  456POPC   PO4 9792  40.988  36.006   9.783
  456POPC   GL1 9793  40.860  36.219   9.309
  456POPC   GL2 9794  40.651  36.019   8.997
  456POPC   C1A 9795  40.973  36.353   8.858
  456POPC   D2A 9796  40.829  36.150   8.476
  456POPC   C3A 9797  40.969  36.328   8.099
  456POPC   C4A 9798  40.877  36.183   7.703
  456POPC   C1B 9799  40.373  36.245   8.724
  456POPC   C2B 9800  40.191  36.167   8.330
  456POPC   C3B 9801  40.455  36.223   7.983
  456POPC   C4B 9802  40.386  36.312   7.551
  457POPC   NC3 9803  34.584  12.550   9.665
  457POPC   PO4 9804  34.338  13.046   9.543
  457POPC   GL1 9805  34.437  12.943   9.138
  457POPC   GL2 9806  34.382  12.624   9.104
  457POPC   C1A 9807  34.439  12.980   8.688
  457POPC   D2A 9808  34.543  12.739   8.360
  457POPC   C3A 9809  34.706  13.002   8.071
  457POPC   C4A 9810  34.472  13.200   7.740
  457POPC   C1B 9811  34.778  12.642   8.832
  457POPC   C2B 9812  35.009  12.534   8.397
  457POPC   C3B 9813  34.769  12.485   7.979
  457POPC   C4B 9814  34.442  12.672   7.767
  458POPC   NC3 9815  42.159  14.397   9.582
  458POPC   PO4 9816  42.638  14.000   9.260
  458POPC   GL1 9817  42.326  14.172   9.025
  458POPC   GL2 9818  42.129  14.500   9.064
  458POPC   C1A 9819  42.189  14.088   8.615
  458POPC   D2A 9820  41.931  14.271   8.338
  458POPC   C3A 9821  42.080  14.496   8.023
  458POPC   C4A 9822  42.285  14.533   7.651
  458POPC   C1B 9823  42.372  14.559   8.660
  458POPC   C2B 9824  42.547  14.550   8.253
  458POPC   C3B 9825  42.766  14.747   7.916
  458POPC   C4B 9826  42.737  14.753   7.475
  459POPC   NC3 9827  18.740   1.389   9.390
  459POPC   PO4 9828  18.050   1.326   9.503
  459POPC   GL1 9829  18.282   1.438   9.136
  459POPC   GL2 9830  18.217   1.079   9.039
  459POPC   C1A 9831  18.469   1.343   8.717
  459POPC   D2A 9832  18.245   1.017   8.459
  459POPC   C3A 9833  18.320   1.110   8.052
  459POPC   C4A 9834  18.437   1.460   7.802
  459POPC   C1B 9835  17.943   1.349   8.744
  459POPC   C2B 9836  17.856   1.432   8.296
  459POPC   C3B 9837  17.919   1.334   7.840
  459POPC   C4B 9838  18.172   1.040   7.562
  460POPC   NC3 9839   3.005  41.998   9.491
  460POPC   PO4 9840   2.607  41.382   9.520
  460POPC   GL1 9841   2.743  41.665   9.208
  460POPC   GL2 9842   3.047  41.500   9.178
  460POPC   C1A 9843   2.712  41.619   8.767
  460POPC   D2A 9844   2.679  41.761   8.340
  460POPC   C3A 9845   2.793  41.451   8.054
  460POPC   C4A 9846   2.624  41.594   7.746
  460POPC   C1B 9847   3.095  41.272   8.799
  460POPC   C2B 9848   3.122  41.521   8.445
  460POPC   C3B 9849   3.142  41.816   8.091
  460POPC   C4B 9850   3.264  41.606   7.746
  461POPC   NC3 9851  37.070  31.027   9.675
  461POPC   PO4 9852  36.730  30.440   9.468
  461POPC   GL1 9853  36.894  30.764   9.189
  461POPC   GL2 9854  37.225  30.934   9.179
  461POPC   C1A 9855  36.844  30.823   8.721
  461POPC   D2A 9856  36.751  30.530   8.390
  461POPC   C3A 9857  36.703  30.672   7.966
  461POPC   C4A 9858  36.539  30.489   7.621
  461POPC   C1B 9859  37.272  30.598   8.866
  461POPC   C2B 9860  37.257  30.601   8.444
  461POPC   C3B 9861  37.147  30.892   8.145
  461POPC   C4B 9862  37.154  30.720   7.751
  462POPC   NC3 9863  25.771   8.434   9.849
  462POPC   PO4 9864  25.431   8.871   9.472
  462POPC   GL1 9865  25.301   8.786   9.050
  462POPC   GL2 9866  25.146   9.136   9.094
  462POPC   C1A 9867  25.410   8.806   8.595
  462POPC   D2A 9868  25.374   9.199   8.333
  462POPC   C3A 9869  25.432   9.231   7.883
  462POPC   C4A 9870  25.438   8.923   7.586
  462POPC   C1B 9871  24.968   9.073   8.703
  462POPC   C2B 9872  24.937   8.844   8.357
  462POPC   C3B 9873  25.196   8.771   8.031
  462POPC   C4B 9874  24.953   8.964   7.753
  463POPC   NC3 9875   8.846  41.287   9.626
  463POPC   PO4 9876   9.434  41.506   9.603
  463POPC   GL1 9877   9.127  41.562   9.229
  463POPC   GL2 9878   8.806  41.350   9.120
  463POPC   C1A 9879   9.011  41.748   8.818
  463POPC   D2A 9880   9.160  41.604   8.416
  463POPC   C3A 9881   9.065  41.793   8.016
  463POPC   C4A 9882   9.146  41.616   7.615
  463POPC   C1B 9883   9.057  41.235   8.798
  463POPC   C2B 9884   9.038  41.116   8.378
  463POPC   C3B 9885   9.122  41.258   7.981
  463POPC   C4B 9886   8.851  41.193   7.645
  464POPC   NC3 9887  28.059   0.682   9.515
  464POPC   PO4 9888  28.663   0.234   9.464
  464POPC   GL1 9889  28.370   0.140   9.119
  464POPC   GL2 9890  28.182   0.419   9.040
  464POPC   C1A 9891  28.377   0.227   8.635
  464POPC   D2A 9892  28.173   0.347   8.283
  464POPC   C3A 9893  28.464   0.471   7.978
  464POPC   C4A 9894  28.332   0.417   7.556
  464POPC   C1B 9895  28.064   0.647   8.699
  464POPC   C2B 9896  28.084   0.842   8.309
  464POPC   C3B 9897  27.997   0.666   7.913
  464POPC   C4B 9898  28.274   0.903   7.678
  465POPC   NC3 9899  18.513  34.055   9.862
  465POPC   PO4 9900  18.010  33.694   9.473
  465POPC   GL1 9901  18.092  34.043   9.157
  465POPC   GL2 9902  18.450  34.175   9.152
  465POPC   C1A 9903  18.178  33.968   8.729
  465POPC   D2A 9904  18.253  33.602   8.485
  465POPC   C3A 9905  18.544  33.628   8.158
  465POPC   C4A 9906  18.382  33.659   7.764
  465POPC   C1B 9907  18.547  34.356   8.794
  465POPC   C2B 9908  18.376  34.314   8.420
  465POPC   C3B 9909  18.216  34.033   8.142
  465POPC   C4B 9910  18.248  34.178   7.752
  466POPC   NC3 9911  24.665  15.228   9.364
  466POPC   PO4 9912  24.355  14.642   9.521
  466POPC   GL1 9913  24.265  14.909   9.176
  466POPC   GL2 9914  24.057  15.183   9.279
  466POPC   C1A 9915  24.478  14.980   8.762
  466POPC   D2A 9916  24.786  15.080   8.408
  466POPC   C3A 9917  24.722  15.444   8.116
  466POPC   C4A 9918  24.656  15.312   7.691
  466POPC   C1B 9919  24.069  15.289   8.820
  466POPC   C2B 9920  24.280  15.327   8.411
  466POPC   C3B 9921  24.381  15.062   8.070
  466POPC   C4B 9922  24.193  15.020   7.690
  467POPC   NC3 9923   7.393  26.904   9.680
  467POPC   PO4 9924   7.297  26.284   9.468
  467POPC   GL1 9925   7.365  26.663   9.222
  467POPC   GL2 9926   7.201  27.012   9.238
  467POPC   C1A 9927   7.594  26.872   8.906
  467POPC   D2A 9928   7.761  26.819   8.490
  467POPC   C3A 9929   7.483  26.768   8.132
  467POPC   C4A 9930   7.482  26.842   7.711
  467POPC   C1B 9931   7.213  27.220   8.879
  467POPC   C2B 9932   7.231  27.054   8.468
  467POPC   C3B 9933   7.209  27.215   8.027
  467POPC   C4B 9934   6.885  27.326   7.746
  468POPC   NC3 9935  21.922  41.562   9.495
  468POPC   PO4 9936  22.422  41.774   9.500
  468POPC   GL1 9937  22.238  41.619   9.075
  468POPC   GL2 9938  21.921  41.418   8.999
  468POPC   C1A 9939  22.303  41.426   8.662
  468POPC   D2A 9940  22.441  41.384   8.236
  468POPC   C3A 9941  22.165  41.284   7.874
  468POPC   C4A 9942  22.313  41.320   7.446
  468POPC   C1B 9943  21.825  41.613   8.578
  468POPC   C2B 9944  22.005  41.679   8.152
  468POPC   C3B 9945  21.870  41.712   7.696
  468POPC   C4B 9946  21.545  41.728   7.330
  469POPC   NC3 9947  37.116   2.718   9.823
  469POPC   PO4 9948  36.629   2.566   9.395
  469POPC   GL1 9949  36.699   2.810   9.026
  469POPC   GL2 9950  36.765   2.481   8.883
  469POPC   C1A 9951  36.847   2.861   8.572
  469POPC   D2A 9952  36.706   2.984   8.149
  469POPC   C3A 9953  36.986   2.951   7.789
  469POPC   C4A 9954  37.102   3.276   7.469
  469POPC   C1B 9955  37.065   2.381   8.568
  469POPC   C2B 9956  37.129   2.610   8.191
  469POPC   C3B 9957  37.164   2.481   7.757
  469POPC   C4B 9958  36.853   2.448   7.406
  470POPC   NC3 9959  31.166   2.782   9.697
  470POPC   PO4 9960  30.761   2.748   9.150
  470POPC   GL1 9961  30.459   2.545   8.981
  470POPC   GL2 9962  30.189   2.759   9.112
  470POPC   C1A 9963  30.599   2.510   8.566
  470POPC   D2A 9964  30.867   2.565   8.221
  470POPC   C3A 9965  30.626   2.706   7.903
  470POPC   C4A 9966  30.800   3.058   7.776
  470POPC   C1B 9967  30.294   2.954   8.693
  470POPC   C2B 9968  30.152   3.067   8.258
  470POPC   C3B 9969  30.255   3.042   7.805
  470POPC   C4B 9970  30.376   3.270   7.458
  471POPC   NC3 9971  19.386  10.058   9.484
  471POPC   PO4 9972  18.714   9.841   9.482
  471POPC   GL1 9973  19.098   9.636   9.232
  471POPC   GL2 9974  19.437   9.471   9.108
  471POPC   C1A 9975  19.060   9.469   8.788
  471POPC   D2A 9976  18.967   9.190   8.441
  471POPC   C3A 9977  19.068   9.438   8.074
  471POPC   C4A 9978  19.424   9.419   7.824
  471POPC   C1B 9979  19.398   9.888   8.853
  471POPC   C2B 9980  19.234  10.079   8.458
  471POPC   C3B 9981  19.344   9.917   8.041
  471POPC   C4B 9982  19.408  10.090   7.648
  472POPC   NC3 9983   6.090  15.170   9.435
  472POPC   PO4 9984   5.832  14.653   9.554
  472POPC   GL1 9985   5.810  14.907   9.113
  472POPC   GL2 9986   5.485  14.957   8.954
  472POPC   C1A 9987   5.912  15.163   8.715
  472POPC   D2A 9988   6.138  15.269   8.317
  472POPC   C3A 9989   6.156  15.054   7.912
  472POPC   C4A 9990   6.029  15.324   7.567
  472POPC   C1B 9991   5.657  14.734   8.633
  472POPC   C2B 9992   5.803  14.887   8.279
  472POPC   C3B 9993   5.684  15.198   8.024
  472POPC   C4B 9994   5.544  15.155   7.659
  473POPC   NC3 9995  19.038   4.810   9.519
  473POPC   PO4 9996  19.369   5.426   9.500
  473POPC   GL1 9997  19.123   5.272   9.138
  473POPC   GL2 9998  18.776   5.182   9.125
  473POPC   C1A 9999  19.059   5.055   8.717
  473POPC   D2A10000  18.910   5.104   8.293
  473POPC   C3A10001  19.068   4.843   7.947
  473POPC   C4A10002  19.395   4.757   7.639
  473POPC   C1B10003  18.687   5.429   8.723
  473POPC   C2B10004  18.495   5.418   8.291
  473POPC   C3B10005  18.590   5.407   7.860
  473POPC   C4B10006  18.795   5.348   7.446
  474POPC   NC310007   8.480  21.747   9.528
  474POPC   PO410008   8.969  21.238   9.687
  474POPC   GL110009   9.244  21.216   9.336
  474POPC   GL210010   8.963  21.329   9.172
  474POPC   C1A10011   9.316  21.208   8.837
  474POPC   D2A10012   9.082  21.405   8.475
  474POPC   C3A10013   9.148  21.324   8.036
  474POPC   C4A10014   8.753  21.207   7.857
  474POPC   C1B10015   8.764  21.566   8.868
  474POPC   C2B10016   8.581  21.592   8.466
  474POPC   C3B10017   8.761  21.664   8.091
  474POPC   C4B10018   9.132  21.851   7.949
  475POPC   NC310019   3.942   0.816   9.502
  475POPC   PO410020   3.354   0.546   9.577
  475POPC   GL110021   3.387   0.380   9.168
  475POPC   GL210022   3.631   0.104   9.153
  475POPC   C1A10023   3.443   0.404   8.710
  475POPC   D2A10024   3.255   0.615   8.309
  475POPC   C3A10025   3.390   0.583   7.857
  475POPC   C4A10026   3.330   0.246   7.555
  475POPC   C1B10027   3.908   0.174   8.786
  475POPC   C2B10028   3.807   0.261   8.357
  475POPC   C3B10029   3.678   0.173   7.938
  475POPC   C4B10030   3.901   0.278   7.585
  476POPC   NC310031  35.415  10.724   9.504
  476POPC   PO410032  35.816  10.229   9.387
  476POPC   GL110033  35.543  10.435   9.107
  476POPC   GL210034  35.245  10.195   9.123
  476POPC   C1A10035  35.219  10.615   8.866
  476POPC   D2A10036  35.063  10.381   8.535
  476POPC   C3A10037  35.239  10.503   8.148
  476POPC   C4A10038  35.105  10.513   7.730
  476POPC   C1B10039  35.461  10.015   8.803
  476POPC   C2B10040  35.437  10.062   8.378
  476POPC   C3B10041  35.595  10.182   7.996
  476POPC   C4B10042  35.345  10.074   7.648
  477POPC   NC310043  35.113   7.033   9.267
  477POPC   PO410044  35.491   6.605   9.659
  477POPC   GL110045  35.370   6.569   9.200
  477POPC   GL210046  35.169   6.253   9.139
  477POPC   C1A10047  35.590   6.651   8.808
  477POPC   D2A10048  35.709   6.870   8.430
  477POPC   C3A10049  35.567   6.760   8.010
  477POPC   C4A10050  35.798   6.617   7.668
  477POPC   C1B10051  35.103   6.427   8.704
  477POPC   C2B10052  34.878   6.570   8.312
  477POPC   C3B10053  34.898   6.910   8.006
  477POPC   C4B10054  35.190   7.066   7.714
  478POPC   NC310055   7.337  35.666   9.869
  478POPC   PO410056   7.726  35.157   9.603
  478POPC   GL110057   7.545  35.232   9.193
  478POPC   GL210058   7.725  35.481   9.047
  478POPC   C1A10059   7.325  35.251   8.795
  478POPC   D2A10060   7.469  35.279   8.394
  478POPC   C3A10061   7.357  35.074   8.023
  478POPC   C4A10062   7.187  35.350   7.765
  478POPC   C1B10063   7.884  35.432   8.684
  478POPC   C2B10064   7.817  35.628   8.331
  478POPC   C3B10065   7.780  35.351   7.986
  478POPC   C4B10066   8.057  35.396   7.691
  479POPC   NC310067  43.552  21.145   9.195
  479POPC   PO410068  43.977  21.169   9.731
  479POPC   GL110069  44.071  21.171   9.281
  479POPC   GL210070  44.032  21.497   9.210
  479POPC   C1A10071  44.186  21.179   8.836
  479POPC   D2A10072  43.982  21.308   8.466
  479POPC   C3A10073  43.955  21.061   8.113
  479POPC   C4A10074  43.714  21.179   7.771
  479POPC   C1B10075  43.997  21.707   8.807
  479POPC   C2B10076  43.749  21.765   8.414
  479POPC   C3B10077  43.778  21.659   7.992
  479POPC   C4B10078  44.144  21.513   7.797
  480POPC   NC310079   7.727  42.516   9.833
  480POPC   PO410080   8.313  42.401   9.486
  480POPC   GL110081   8.200  42.322   9.057
  480POPC   GL210082   7.907  42.434   8.943
  480POPC   C1A10083   8.176  42.171   8.619
  480POPC   D2A10084   8.149  41.992   8.266
  480POPC   C3A10085   8.503  41.958   8.014
  480POPC   C4A10086   8.384  42.080   7.602
  480POPC   C1B10087   8.218  42.665   8.678
  480POPC   C2B10088   8.486  42.490   8.350
  480POPC   C3B10089   8.270  42.430   7.968
  480POPC   C4B10090   7.848  42.593   7.950
  481POPC   NC310091  34.089  20.841   9.807
  481POPC   PO410092  33.636  20.370   9.585
  481POPC   GL110093  33.812  20.466   9.170
  481POPC   GL210094  33.953  20.816   9.194
  481POPC   C1A10095  33.980  20.335   8.739
  481POPC   D2A10096  34.204  20.216   8.330
  481POPC   C3A10097  34.045  20.458   7.965
  481POPC   C4A10098  33.621  20.534   7.754
  481POPC   C1B10099  33.583  20.988   8.920
  481POPC   C2B10100  33.385  20.967   8.503
  481POPC   C3B10101  33.552  20.924   8.102
  481POPC   C4B10102  33.918  20.938   7.831
  482POPC   NC310103  31.565  38.767   9.538
  482POPC   PO410104  31.496  38.126   9.451
  482POPC   GL110105  31.630  38.303   9.069
  482POPC   GL210106  31.355  38.185   8.925
  482POPC   C1A10107  31.553  38.516   8.641
  482POPC   D2A10108  31.408  38.498   8.227
  482POPC   C3A10109  31.575  38.727   7.873
  482POPC   C4A10110  31.752  38.788   7.446
  482POPC   C1B10111  31.010  38.254   8.681
  482POPC   C2B10112  30.878  38.213   8.301
  482POPC   C3B10113  31.169  38.125   7.993
  482POPC   C4B10114  31.402  38.313   7.643
  483POPC   NC310115  25.507  36.657   9.194
  483POPC   PO410116  26.008  36.996   9.567
  483POPC   GL110117  25.876  37.016   9.188
  483POPC   GL210118  26.014  36.697   9.122
  483POPC   C1A10119  25.784  37.139   8.779
  483POPC   D2A10120  25.983  37.030   8.405
  483POPC   C3A10121  25.875  36.979   7.976
  483POPC   C4A10122  26.191  37.130   7.722
  483POPC   C1B10123  25.934  36.601   8.689
  483POPC   C2B10124  26.097  36.449   8.277
  483POPC   C3B10125  26.440  36.410   8.004
  483POPC   C4B10126  26.168  36.609   7.718
  484POPC   NC310127  14.412  40.583   9.578
  484POPC   PO410128  13.977  41.007   9.239
  484POPC   GL110129  14.168  40.662   9.066
  484POPC   GL210130  14.537  40.653   9.057
  484POPC   C1A10131  14.301  40.719   8.631
  484POPC   D2A10132  14.445  40.772   8.219
  484POPC   C3A10133  14.187  40.761   7.863
  484POPC   C4A10134  14.247  40.545   7.404
  484POPC   C1B10135  14.763  40.945   8.723
  484POPC   C2B10136  14.840  41.078   8.280
  484POPC   C3B10137  14.599  41.140   7.884
  484POPC   C4B10138  14.632  41.245   7.388
  485POPC   NC310139  22.939  26.495   9.804
  485POPC   PO410140  22.676  25.991   9.418
  485POPC   GL110141  23.012  25.947   9.143
  485POPC   GL210142  22.972  26.208   8.943
  485POPC   C1A10143  23.096  25.798   8.704
  485POPC   D2A10144  23.138  26.147   8.415
  485POPC   C3A10145  22.854  26.110   8.070
  485POPC   C4A10146  22.869  25.826   7.718
  485POPC   C1B10147  22.768  26.431   8.652
  485POPC   C2B10148  22.705  26.577   8.298
  485POPC   C3B10149  22.660  26.575   7.893
  485POPC   C4B10150  22.838  26.362   7.606
  486POPC   NC310151  26.488  44.361   9.657
  486POPC   PO410152  26.814   0.027   9.490
  486POPC   GL110153  26.655  44.847   9.128
  486POPC   GL210154  26.594  44.491   9.183
  486POPC   C1A10155  26.772  44.698   8.739
  486POPC   D2A10156  27.061  44.758   8.414
  486POPC   C3A10157  26.841  44.764   8.028
  486POPC   C4A10158  26.897  44.967   7.655
  486POPC   C1B10159  26.530  44.168   8.890
  486POPC   C2B10160  26.627  44.097   8.479
  486POPC   C3B10161  26.515  44.145   8.077
  486POPC   C4B10162  26.537  44.433   7.773
  487POPC   NC310163  14.661  36.538   9.421
  487POPC   PO410164  14.895  35.935   9.613
  487POPC   GL110165  14.458  36.071   9.306
  487POPC   GL210166  14.521  36.330   9.008
  487POPC   C1A10167  14.194  36.003   8.870
  487POPC   D2A10168  14.113  36.040   8.397
  487POPC   C3A10169  14.162  36.313   7.998
  487POPC   C4A10170  14.334  36.123   7.612
  487POPC   C1B10171  14.423  36.421   8.584
  487POPC   C2B10172  14.599  36.213   8.224
  487POPC   C3B10173  14.801  36.301   7.817
  487POPC   C4B10174  14.640  36.442   7.389
  488POPC   NC310175   3.953  43.870   9.488
  488POPC   PO410176   3.336  44.013   9.519
  488POPC   GL110177   3.570  43.964   9.150
  488POPC   GL210178   3.866  43.732   9.015
  488POPC   C1A10179   3.701  44.180   8.816
  488POPC   D2A10180   3.588  44.303   8.441
  488POPC   C3A10181   3.890  44.242   8.121
  488POPC   C4A10182   3.674  44.158   7.749
  488POPC   C1B10183   3.498  43.581   8.824
  488POPC   C2B10184   3.332  43.575   8.419
  488POPC   C3B10185   3.559  43.789   8.092
  488POPC   C4B10186   3.772  43.648   7.714
  489POPC   NC310187  42.154  11.469   9.308
  489POPC   PO410188  42.418  10.798   9.281
  489POPC   GL110189  42.572  11.145   8.963
  489POPC   GL210190  42.555  11.506   8.940
  489POPC   C1A10191  42.484  11.239   8.517
  489POPC   D2A10192  42.081  11.177   8.324
  489POPC   C3A10193  42.148  10.919   7.941
  489POPC   C4A10194  42.378  11.132   7.596
  489POPC   C1B10195  42.249  11.695   8.670
  489POPC   C2B10196  42.298  11.659   8.230
  489POPC   C3B10197  42.588  11.392   7.983
  489POPC   C4B10198  42.729  11.471   7.540
  490POPC   NC310199  35.606  30.869   9.486
  490POPC   PO410200  34.962  30.829   9.504
  490POPC   GL110201  35.154  30.709   9.105
  490POPC   GL210202  35.380  30.986   9.022
  490POPC   C1A10203  35.126  30.446   8.717
  490POPC   D2A10204  35.386  30.331   8.335
  490POPC   C3A10205  35.331  30.536   7.939
  490POPC   C4A10206  35.315  30.542   7.464
  490POPC   C1B10207  35.592  30.641   8.768
  490POPC   C2B10208  35.677  30.759   8.330
  490POPC   C3B10209  35.418  31.018   8.049
  490POPC   C4B10210  35.447  30.994   7.637
  491POPC   NC310211  39.254  12.550   9.543
  491POPC   PO410212  39.496  13.151   9.400
  491POPC   GL110213  39.180  13.037   9.113
  491POPC   GL210214  38.954  12.750   9.198
  491POPC   C1A10215  39.397  13.038   8.717
  491POPC   D2A10216  39.327  13.238   8.382
  491POPC   C3A10217  39.464  13.251   8.010
  491POPC   C4A10218  39.262  12.954   7.777
  491POPC   C1B10219  39.285  12.583   8.895
  491POPC   C2B10220  39.345  12.549   8.471
  491POPC   C3B10221  39.288  12.465   8.016
  491POPC   C4B10222  39.303  12.497   7.555
  492POPC   NC310223  37.101  10.111   9.514
  492POPC   PO410224  36.792   9.580   9.647
  492POPC   GL110225  36.711   9.798   9.270
  492POPC   GL210226  36.391   9.559   9.214
  492POPC   C1A10227  36.997   9.896   8.882
  492POPC   D2A10228  37.082  10.002   8.433
  492POPC   C3A10229  36.888   9.818   8.069
  492POPC   C4A10230  36.859   9.812   7.629
  492POPC   C1B10231  36.625   9.543   8.842
  492POPC   C2B10232  36.607   9.795   8.505
  492POPC   C3B10233  36.420   9.622   8.155
  492POPC   C4B10234  36.557   9.393   7.772
  493POPC   NC310235  28.048  37.068   9.350
  493POPC   PO410236  27.412  36.814   9.461
  493POPC   GL110237  27.379  36.863   9.060
  493POPC   GL210238  27.707  36.884   8.992
  493POPC   C1A10239  27.323  36.921   8.644
  493POPC   D2A10240  27.359  37.172   8.325
  493POPC   C3A10241  27.572  37.087   7.961
  493POPC   C4A10242  27.663  36.946   7.565
  493POPC   C1B10243  27.808  36.653   8.606
  493POPC   C2B10244  27.833  36.707   8.167
  493POPC   C3B10245  27.807  36.481   7.738
  493POPC   C4B10246  27.692  36.453   7.252
  494POPC   NC310247   6.973  16.475   9.651
  494POPC   PO410248   7.029  17.077   9.503
  494POPC   GL110249   6.815  16.767   9.217
  494POPC   GL210250   6.524  16.905   9.052
  494POPC   C1A10251   6.834  16.535   8.797
  494POPC   D2A10252   6.824  16.255   8.433
  494POPC   C3A10253   6.807  16.300   7.963
  494POPC   C4A10254   6.479  16.330   7.616
  494POPC   C1B10255   6.520  16.878   8.597
  494POPC   C2B10256   6.519  16.637   8.224
  494POPC   C3B10257   6.660  16.768   7.831
  494POPC   C4B10258   6.453  16.852   7.462
  495POPC   NC310259  44.365   2.242   9.434
  495POPC   PO410260  44.640   2.935   9.560
  495POPC   GL110261  44.606   2.669   9.219
  495POPC   GL210262  44.895   2.477   9.246
  495POPC   C1A10263  44.696   2.660   8.781
  495POPC   D2A10264  44.805   2.905   8.417
  495POPC   C3A10265  44.562   2.897   8.045
  495POPC   C4A10266  44.558   2.724   7.662
  495POPC   C1B10267   0.077   2.304   8.882
  495POPC   C2B10268  44.957   2.357   8.455
  495POPC   C3B10269   0.027   2.562   8.079
  495POPC   C4B10270  44.969   2.425   7.631
  496POPC   NC310271  24.239  39.652   9.524
  496POPC   PO410272  24.490  38.964   9.506
  496POPC   GL110273  24.576  39.072   9.081
  496POPC   GL210274  24.579  39.454   9.152
  496POPC   C1A10275  24.556  38.870   8.659
  496POPC   D2A10276  24.435  39.128   8.292
  496POPC   C3A10277  24.270  39.030   7.869
  496POPC   C4A10278  23.942  38.977   7.550
  496POPC   C1B10279  24.689  39.388   8.701
  496POPC   C2B10280  24.730  39.547   8.280
  496POPC   C3B10281  24.406  39.520   7.956
  496POPC   C4B10282  24.533  39.501   7.536
  497POPC   NC310283  23.839  13.014   9.524
  497POPC   PO410284  23.507  12.413   9.532
  497POPC   GL110285  23.701  12.634   9.155
  497POPC   GL210286  23.771  12.989   9.035
  497POPC   C1A10287  23.486  12.689   8.744
  497POPC   D2A10288  23.379  12.907   8.339
  497POPC   C3A10289  23.661  12.760   8.032
  497POPC   C4A10290  23.769  12.564   7.616
  497POPC   C1B10291  23.476  13.193   8.749
  497POPC   C2B10292  23.566  13.430   8.377
  497POPC   C3B10293  23.589  13.297   7.958
  497POPC   C4B10294  23.895  13.081   7.745
  498POPC   NC310295  18.463  12.004   9.465
  498POPC   PO410296  18.146  12.599   9.458
  498POPC   GL110297  18.159  12.304   9.126
  498POPC   GL210298  18.245  11.957   9.035
  498POPC   C1A10299  18.227  12.344   8.714
  498POPC   D2A10300  18.066  12.291   8.347
  498POPC   C3A10301  18.272  12.324   8.004
  498POPC   C4A10302  18.045  12.095   7.765
  498POPC   C1B10303  18.571  11.956   8.751
  498POPC   C2B10304  18.497  12.028   8.357
  498POPC   C3B10305  18.420  11.838   7.978
  498POPC   C4B10306  18.599  12.029   7.678
  499POPC   NC310307   7.560  23.864   9.533
  499POPC   PO410308   7.076  23.395   9.402
  499POPC   GL110309   7.362  23.554   9.104
  499POPC   GL210310   7.652  23.718   9.057
  499POPC   C1A10311   7.198  23.667   8.698
  499POPC   D2A10312   6.971  23.773   8.339
  499POPC   C3A10313   7.204  23.763   7.961
  499POPC   C4A10314   7.247  23.596   7.556
  499POPC   C1B10315   7.703  23.774   8.620
  499POPC   C2B10316   7.539  24.034   8.276
  499POPC   C3B10317   7.408  24.218   7.860
  499POPC   C4B10318   7.390  24.064   7.377
  500POPC   NC310319  24.845  22.743   9.430
  500POPC   PO410320  24.394  23.213   9.562
  500POPC   GL110321  24.445  22.939   9.173
  500POPC   GL210322  24.179  22.731   9.177
  500POPC   C1A10323  24.631  22.938   8.743
  500POPC   D2A10324  24.557  23.105   8.302
  500POPC   C3A10325  24.725  23.023   7.871
  500POPC   C4A10326  24.814  23.021   7.396
  500POPC   C1B10327  24.198  22.648   8.729
  500POPC   C2B10328  24.119  22.802   8.314
  500POPC   C3B10329  24.218  22.926   7.911
  500POPC   C4B10330  24.383  22.818   7.515
  501POPC   NC310331  37.084  27.713   9.490
  501POPC   PO410332  36.523  27.383   9.613
  501POPC   GL110333  36.700  27.543   9.193
  501POPC   GL210334  36.512  27.850   9.084
  501POPC   C1A10335  37.043  27.428   8.861
  501POPC   D2A10336  37.303  27.367   8.465
  501POPC   C3A10337  37.172  27.277   8.025
  501POPC   C4A10338  37.077  27.314   7.561
  501POPC   C1B10339  36.786  27.836   8.725
  501POPC   C2B10340  36.853  27.611   8.324
  501POPC   C3B10341  36.922  27.699   7.873
  501POPC   C4B10342  36.635  27.864   7.579
  502POPC   NC310343   0.118  25.058   9.536
  502POPC   PO410344   0.787  25.195   9.563
  502POPC   GL110345   0.505  25.318   9.208
  502POPC   GL210346   0.176  25.239   9.063
  502POPC   C1A10347   0.556  25.416   8.748
  502POPC   D2A10348   0.253  25.237   8.479
  502POPC   C3A10349   0.296  25.364   8.063
  502POPC   C4A10350   0.665  25.258   7.818
  502POPC   C1B10351   0.479  24.932   8.869
  502POPC   C2B10352   0.576  24.799   8.481
  502POPC   C3B10353   0.453  24.877   8.088
  502POPC   C4B10354   0.126  24.951   7.820
  503POPC   NC310355  13.837   6.991   9.417
  503POPC   PO410356  13.420   6.593   9.605
  503POPC   GL110357  13.545   6.613   9.166
  503POPC   GL210358  13.231   6.519   9.003
  503POPC   C1A10359  13.620   6.588   8.704
  503POPC   D2A10360  13.345   6.630   8.330
  503POPC   C3A10361  13.513   6.387   7.963
  503POPC   C4A10362  13.930   6.493   7.791
  503POPC   C1B10363  13.207   6.930   8.747
  503POPC   C2B10364  13.348   7.131   8.312
  503POPC   C3B10365  13.528   6.888   7.909
  503POPC   C4B10366  13.636   7.033   7.467
  504POPC   NC310367  31.339  31.848   9.443
  504POPC   PO410368  31.690  32.477   9.507
  504POPC   GL110369  31.666  32.203   9.134
  504POPC   GL210370  31.721  31.874   9.014
  504POPC   C1A10371  31.535  32.218   8.681
  504POPC   D2A10372  31.698  32.527   8.370
  504POPC   C3A10373  31.525  32.524   7.951
  504POPC   C4A10374  31.595  32.775   7.564
  504POPC   C1B10375  31.683  31.681   8.615
  504POPC   C2B10376  31.405  31.780   8.284
  504POPC   C3B10377  31.483  31.994   7.886
  504POPC   C4B10378  31.418  31.878   7.448
  505POPC   NC310379  43.549  43.605   9.526
  505POPC   PO410380  43.108  44.119   9.612
  505POPC   GL110381  43.052  43.925   9.213
  505POPC   GL210382  43.036  44.236   9.005
  505POPC   C1A10383  43.168  43.758   8.820
  505POPC   D2A10384  43.161  44.021   8.458
  505POPC   C3A10385  43.088  43.760   8.122
  505POPC   C4A10386  43.087  43.629   7.726
  505POPC   C1B10387  42.703  44.021   8.810
  505POPC   C2B10388  42.579  43.919   8.403
  505POPC   C3B10389  42.758  44.159   8.123
  505POPC   C4B10390  43.127  44.216   7.862
  506POPC   NC310391   5.682  27.215   9.504
  506POPC   PO410392   5.954  26.525   9.539
  506POPC   GL110393   5.865  26.766   9.176
  506POPC   GL210394   6.078  27.069   9.181
  506POPC   C1A10395   5.655  26.622   8.797
  506POPC   D2A10396   5.740  26.378   8.427
  506POPC   C3A10397   5.614  26.518   8.044
  506POPC   C4A10398   5.892  26.749   7.746
  506POPC   C1B10399   6.014  27.009   8.714
  506POPC   C2B10400   6.148  27.183   8.303
  506POPC   C3B10401   6.020  27.243   7.855
  506POPC   C4B10402   6.098  27.084   7.419
  507POPC   NC310403  23.224  25.761   9.581
  507POPC   PO410404  22.910  25.141   9.427
  507POPC   GL110405  22.965  25.246   8.962
  507POPC   GL210406  23.192  25.472   9.078
  507POPC   C1A10407  23.270  25.284   8.603
  507POPC   D2A10408  23.476  24.973   8.345
  507POPC   C3A10409  23.222  24.937   7.981
  507POPC   C4A10410  22.803  24.919   7.844
  507POPC   C1B10411  23.556  25.618   8.864
  507POPC   C2B10412  23.546  25.813   8.450
  507POPC   C3B10413  23.302  25.733   8.076
  507POPC   C4B10414  23.220  25.436   7.737
  508POPC   NC310415  19.999  12.482   9.517
  508POPC   PO410416  19.501  12.715   9.083
  508POPC   GL110417  19.884  12.901   9.148
  508POPC   GL210418  20.002  12.600   9.047
  508POPC   C1A10419  20.051  13.013   8.763
  508POPC   D2A10420  19.693  12.862   8.516
  508POPC   C3A10421  19.629  12.950   8.080
  508POPC   C4A10422  19.517  13.061   7.645
  508POPC   C1B10423  20.133  12.471   8.722
  508POPC   C2B10424  20.349  12.576   8.391
  508POPC   C3B10425  20.151  12.837   8.085
  508POPC   C4B10426  19.895  12.700   7.728
  509POPC   NC310427   6.330  42.405   9.291
  509POPC   PO410428   5.759  42.097   9.461
  509POPC   GL110429   5.858  42.140   9.071
  509POPC   GL210430   5.978  42.427   8.954
  509POPC   C1A10431   5.931  42.048   8.655
  509POPC   D2A10432   5.888  42.327   8.331
  509POPC   C3A10433   5.973  42.037   8.023
  509POPC   C4A10434   6.111  42.041   7.663
  509POPC   C1B10435   6.320  42.538   8.653
  509POPC   C2B10436   6.453  42.591   8.232
  509POPC   C3B10437   6.195  42.484   7.924
  509POPC   C4B10438   5.911  42.726   7.746
  510POPC   NC310439  28.292  26.426   9.529
  510POPC   PO410440  28.409  27.071   9.493
  510POPC   GL110441  28.220  26.813   9.179
  510POPC   GL210442  28.460  26.560   9.054
  510POPC   C1A10443  28.199  26.885   8.750
  510POPC   D2A10444  28.276  26.792   8.341
  510POPC   C3A10445  28.185  27.097   8.069
  510POPC   C4A10446  28.354  27.058   7.645
  510POPC   C1B10447  28.402  26.375   8.633
  510POPC   C2B10448  28.644  26.430   8.262
  510POPC   C3B10449  28.555  26.662   7.904
  510POPC   C4B10450  28.757  26.615   7.519
  511POPC   NC310451  20.635  12.572   9.612
  511POPC   PO410452  20.177  12.976   9.573
  511POPC   GL110453  20.414  12.890   9.174
  511POPC   GL210454  20.505  12.542   9.116
  511POPC   C1A10455  20.562  12.924   8.715
  511POPC   D2A10456  20.714  13.175   8.328
  511POPC   C3A10457  20.511  13.149   7.906
  511POPC   C4A10458  20.334  12.928   7.539
  511POPC   C1B10459  20.880  12.507   8.863
  511POPC   C2B10460  20.906  12.450   8.417
  511POPC   C3B10461  20.726  12.702   8.081
  511POPC   C4B10462  20.805  12.771   7.664
  512POPC   NC310463  23.006  30.224   9.446
  512POPC   PO410464  23.442  29.721   9.393
  512POPC   GL110465  23.160  29.902   9.053
  512POPC   GL210466  22.771  29.935   9.063
  512POPC   C1A10467  22.988  29.756   8.640
  512POPC   D2A10468  23.076  29.599   8.233
  512POPC   C3A10469  23.179  29.843   7.866
  512POPC   C4A10470  22.961  29.692   7.508
  512POPC   C1B10471  22.868  30.247   8.762
  512POPC   C2B10472  22.857  30.172   8.337
  512POPC   C3B10473  22.702  29.951   8.024
  512POPC   C4B10474  22.680  30.102   7.660
  513POPC   NC310475   4.033   9.309   9.547
  513POPC   PO410476   4.083   8.686   9.445
  513POPC   GL110477   4.266   8.972   9.138
  513POPC   GL210478   4.658   9.044   9.095
  513POPC   C1A10479   4.106   8.959   8.748
  513POPC   D2A10480   4.216   9.048   8.324
  513POPC   C3A10481   4.054   8.812   7.976
  513POPC   C4A10482   4.212   8.630   7.598
  513POPC   C1B10483   4.627   9.050   8.647
  513POPC   C2B10484   4.717   9.241   8.233
  513POPC   C3B10485   4.546   9.176   7.811
  513POPC   C4B10486   4.657   9.297   7.374
  514POPC   NC310487  10.441  33.531   9.536
  514POPC   PO410488  10.509  34.206   9.366
  514POPC   GL110489  10.689  33.853   9.202
  514POPC   GL210490  10.348  33.766   9.104
  514POPC   C1A10491  10.742  33.581   8.829
  514POPC   D2A10492  10.506  33.556   8.439
  514POPC   C3A10493  10.548  33.904   8.176
  514POPC   C4A10494  10.580  33.862   7.747
  514POPC   C1B10495  10.067  33.798   8.783
  514POPC   C2B10496  10.040  33.825   8.371
  514POPC   C3B10497  10.081  33.623   8.005
  514POPC   C4B10498  10.104  33.843   7.671
  515POPC   NC310499  30.362   2.395   9.477
  515POPC   PO410500  29.840   2.947   9.472
  515POPC   GL110501  29.669   2.894   9.070
  515POPC   GL210502  29.723   2.536   9.035
  515POPC   C1A10503  29.782   2.929   8.655
  515POPC   D2A10504  29.745   2.715   8.262
  515POPC   C3A10505  29.748   3.003   7.907
  515POPC   C4A10506  29.528   3.136   7.553
  515POPC   C1B10507  30.048   2.490   8.685
  515POPC   C2B10508  30.228   2.553   8.243
  515POPC   C3B10509  30.044   2.577   7.851
  515POPC   C4B10510  30.198   2.644   7.455
  516POPC   NC310511  40.312  39.419   9.573
  516POPC   PO410512  40.976  39.279   9.497
  516POPC   GL110513  40.789  39.291   9.140
  516POPC   GL210514  40.791  39.624   9.133
  516POPC   C1A10515  40.852  39.219   8.729
  516POPC   D2A10516  40.929  38.977   8.395
  516POPC   C3A10517  40.748  39.190   8.064
  516POPC   C4A10518  40.817  39.316   7.686
  516POPC   C1B10519  40.461  39.529   8.843
  516POPC   C2B10520  40.370  39.658   8.435
  516POPC   C3B10521  40.300  39.467   8.058
  516POPC   C4B10522  40.468  39.698   7.746
  517POPC   NC310523  24.197  11.532   9.507
  517POPC   PO410524  24.642  11.120   9.545
  517POPC   GL110525  24.634  11.156   9.143
  517POPC   GL210526  24.297  11.280   9.015
  517POPC   C1A10527  24.822  11.273   8.768
  517POPC   D2A10528  24.510  11.261   8.458
  517POPC   C3A10529  24.579  11.328   8.021
  517POPC   C4A10530  24.446  11.065   7.699
  517POPC   C1B10531  24.103  11.520   8.639
  517POPC   C2B10532  24.322  11.712   8.292
  517POPC   C3B10533  24.250  11.694   7.845
  517POPC   C4B10534  24.417  11.771   7.422
  518POPC   NC310535   5.916  13.248   9.467
  518POPC   PO410536   5.514  12.687   9.624
  518POPC   GL110537   5.732  12.765   9.232
  518POPC   GL210538   6.071  12.857   9.147
  518POPC   C1A10539   5.675  12.986   8.834
  518POPC   D2A10540   5.819  12.892   8.423
  518POPC   C3A10541   5.557  12.916   8.087
  518POPC   C4A10542   5.727  13.072   7.694
  518POPC   C1B10543   5.989  12.556   8.789
  518POPC   C2B10544   6.070  12.459   8.344
  518POPC   C3B10545   5.927  12.597   7.887
  518POPC   C4B10546   5.864  12.658   7.416
  519POPC   NC310547   4.539  41.287   9.622
  519POPC   PO410548   4.130  41.774   9.473
  519POPC   GL110549   4.362  41.725   9.145
  519POPC   GL210550   4.325  41.392   9.133
  519POPC   C1A10551   4.403  41.793   8.718
  519POPC   D2A10552   4.165  41.777   8.320
  519POPC   C3A10553   4.291  41.533   7.999
  519POPC   C4A10554   4.464  41.354   7.646
  519POPC   C1B10555   4.005  41.494   8.775
  519POPC   C2B10556   3.984  41.290   8.342
  519POPC   C3B10557   3.855  41.284   7.889
  519POPC   C4B10558   3.977  41.342   7.437
  520POPC   NC310559  25.726  12.681   9.381
  520POPC   PO410560  25.075  12.988   9.424
  520POPC   GL110561  25.116  12.761   9.080
  520POPC   GL210562  25.450  12.889   8.998
  520POPC   C1A10563  25.122  12.729   8.641
  520POPC   D2A10564  25.381  12.902   8.349
  520POPC   C3A10565  25.187  12.964   7.972
  520POPC   C4A10566  25.105  12.673   7.688
  520POPC   C1B10567  25.740  13.045   8.689
  520POPC   C2B10568  25.849  13.174   8.286
  520POPC   C3B10569  25.694  12.986   7.951
  520POPC   C4B10570  25.505  13.121   7.593
  521POPC   NC310571  23.075  12.541   9.652
  521POPC   PO410572  22.537  12.978   9.605
  521POPC   GL110573  22.827  12.832   9.295
  521POPC   GL210574  22.719  12.509   9.193
  521POPC   C1A10575  23.051  12.943   8.921
  521POPC   D2A10576  22.941  13.135   8.534
  521POPC   C3A10577  22.848  12.864   8.223
  521POPC   C4A10578  22.928  13.014   7.825
  521POPC   C1B10579  23.080  12.423   8.913
  521POPC   C2B10580  23.146  12.428   8.453
  521POPC   C3B10581  23.179  12.551   8.011
  521POPC   C4B10582  22.793  12.526   7.756
  522POPC   NC310583  13.341  16.846   9.436
  522POPC   PO410584  13.815  16.408   9.324
  522POPC   GL110585  13.572  16.571   9.048
  522POPC   GL210586  13.379  16.261   9.069
  522POPC   C1A10587  13.823  16.688   8.696
  522POPC   D2A10588  13.776  16.696   8.279
  522POPC   C3A10589  13.461  16.971   8.139
  522POPC   C4A10590  13.653  16.785   7.770
  522POPC   C1B10591  13.602  16.212   8.694
  522POPC   C2B10592  13.665  16.205   8.289
  522POPC   C3B10593  13.687  16.307   7.895
  522POPC   C4B10594  13.738  16.355   7.434
  523POPC   NC310595  26.059  16.510   9.514
  523POPC   PO410596  26.088  17.183   9.712
  523POPC   GL110597  26.079  17.036   9.292
  523POPC   GL210598  25.772  16.814   9.221
  523POPC   C1A10599  26.000  17.079   8.862
  523POPC   D2A10600  26.010  16.883   8.479
  523POPC   C3A10601  26.210  17.035   8.133
  523POPC   C4A10602  26.242  16.919   7.728
  523POPC   C1B10603  25.923  16.526   8.872
  523POPC   C2B10604  25.865  16.386   8.430
  523POPC   C3B10605  25.991  16.557   8.021
  523POPC   C4B10606  26.391  16.413   7.798
  524POPC   NC310607   0.449   8.634   9.496
  524POPC   PO410608   0.350   9.274   9.545
  524POPC   GL110609   0.250   9.200   9.152
  524POPC   GL210610   0.154   9.541   9.076
  524POPC   C1A10611   0.350   8.870   8.847
  524POPC   D2A10612   0.402   8.640   8.449
  524POPC   C3A10613   0.357   8.932   8.087
  524POPC   C4A10614   0.231   8.980   7.657
  524POPC   C1B10615   0.227   9.344   8.660
  524POPC   C2B10616   0.122   9.380   8.228
  524POPC   C3B10617   0.263   9.486   7.834
  524POPC   C4B10618   0.180   9.430   7.401
  525POPC   NC310619   6.442  25.539   9.867
  525POPC   PO410620   6.535  26.195   9.591
  525POPC   GL110621   6.436  26.145   9.179
  525POPC   GL210622   6.315  26.458   9.145
  525POPC   C1A10623   6.474  25.880   8.797
  525POPC   D2A10624   6.655  25.726   8.400
  525POPC   C3A10625   6.542  25.879   7.983
  525POPC   C4A10626   6.906  25.946   7.747
  525POPC   C1B10627   6.631  26.375   8.765
  525POPC   C2B10628   6.635  26.299   8.281
  525POPC   C3B10629   6.612  26.387   7.814
  525POPC   C4B10630   6.659  26.196   7.387
  526POPC   NC310631   7.815  28.614   9.410
  526POPC   PO410632   7.208  28.059   9.457
  526POPC   GL110633   7.489  28.203   9.202
  526POPC   GL210634   7.360  28.544   9.174
  526POPC   C1A10635   7.411  28.218   8.765
  526POPC   D2A10636   7.134  28.051   8.467
  526POPC   C3A10637   7.122  28.297   8.140
  526POPC   C4A10638   7.299  28.256   7.737
  526POPC   C1B10639   7.550  28.718   8.780
  526POPC   C2B10640   7.466  28.608   8.383
  526POPC   C3B10641   7.667  28.665   7.969
  526POPC   C4B10642   7.733  28.606   7.506
  527POPC   NC310643  17.036  44.086   9.507
  527POPC   PO410644  17.636  43.916   9.629
  527POPC   GL110645  17.585  43.854   9.216
  527POPC   GL210646  17.457  44.178   9.199
  527POPC   C1A10647  17.370  43.842   8.816
  527POPC   D2A10648  17.177  43.823   8.409
  527POPC   C3A10649  17.442  43.607   8.156
  527POPC   C4A10650  17.563  43.681   7.744
  527POPC   C1B10651  17.608  44.311   8.811
  527POPC   C2B10652  17.367  44.296   8.435
  527POPC   C3B10653  17.500  44.123   8.051
  527POPC   C4B10654  17.375  44.200   7.660
  528POPC   NC310655  41.071  31.551   9.569
  528POPC   PO410656  40.678  32.021   9.453
  528POPC   GL110657  40.709  31.654   9.130
  528POPC   GL210658  40.737  31.290   9.121
  528POPC   C1A10659  40.631  31.590   8.663
  528POPC   D2A10660  40.886  31.501   8.259
  528POPC   C3A10661  40.730  31.441   7.829
  528POPC   C4A10662  40.539  31.524   7.407
  528POPC   C1B10663  40.954  31.178   8.709
  528POPC   C2B10664  41.040  30.990   8.284
  528POPC   C3B10665  41.114  31.093   7.841
  528POPC   C4B10666  41.039  31.311   7.430
  529POPC   NC310667  24.512  27.205   9.501
  529POPC   PO410668  24.126  26.682   9.800
  529POPC   GL110669  24.205  26.740   9.299
  529POPC   GL210670  24.571  26.792   9.177
  529POPC   C1A10671  24.217  26.890   8.838
  529POPC   D2A10672  24.118  27.040   8.430
  529POPC   C3A10673  24.299  26.909   8.075
  529POPC   C4A10674  24.118  26.854   7.701
  529POPC   C1B10675  24.721  26.844   8.735
  529POPC   C2B10676  24.673  26.657   8.313
  529POPC   C3B10677  24.760  26.817   7.860
  529POPC   C4B10678  24.711  27.043   7.459
  530POPC   NC310679  11.038  31.200   9.451
  530POPC   PO410680  10.375  31.380   9.636
  530POPC   GL110681  10.492  31.325   9.190
  530POPC   GL210682  10.294  31.065   9.051
  530POPC   C1A10683  10.383  31.451   8.746
  530POPC   D2A10684  10.578  31.512   8.342
  530POPC   C3A10685  10.330  31.621   7.986
  530POPC   C4A10686  10.199  31.616   7.548
  530POPC   C1B10687  10.499  30.962   8.674
  530POPC   C2B10688  10.262  31.062   8.296
  530POPC   C3B10689  10.350  31.141   7.842
  530POPC   C4B10690  10.764  31.410   7.807
  531POPC   NC310691  40.234  28.497   9.497
  531POPC   PO410692  39.637  28.495   9.653
  531POPC   GL110693  39.813  28.607   9.242
  531POPC   GL210694  39.919  28.249   9.176
  531POPC   C1A10695  40.042  28.640   8.839
  531POPC   D2A10696  39.935  28.506   8.438
  531POPC   C3A10697  40.095  28.670   8.048
  531POPC   C4A10698  40.014  28.499   7.656
  531POPC   C1B10699  40.030  28.107   8.782
  531POPC   C2B10700  40.225  28.096   8.405
  531POPC   C3B10701  40.063  28.166   8.044
  531POPC   C4B10702  40.317  28.085   7.679
  532POPC   NC310703  17.992   0.859   9.440
  532POPC   PO410704  18.300   0.261   9.451
  532POPC   GL110705  18.088   0.453   9.121
  532POPC   GL210706  17.924   0.153   9.062
  532POPC   C1A10707  18.334   0.613   8.783
  532POPC   D2A10708  18.602   0.441   8.438
  532POPC   C3A10709  18.610   0.679   8.048
  532POPC   C4A10710  18.479   0.610   7.604
  532POPC   C1B10711  18.140   0.125   8.681
  532POPC   C2B10712  18.101   0.447   8.362
  532POPC   C3B10713  18.178   0.418   7.956
  532POPC   C4B10714  17.948   0.444   7.583
  533POPC   NC310715  25.781  38.418   9.505
  533POPC   PO410716  26.157  38.948   9.386
  533POPC   GL110717  26.141  38.551   9.149
  533POPC   GL210718  26.389  38.261   9.107
  533POPC   C1A10719  26.073  38.444   8.731
  533POPC   D2A10720  25.832  38.439   8.377
  533POPC   C3A10721  26.009  38.440   8.008
  533POPC   C4A10722  26.304  38.742   7.863
  533POPC   C1B10723  26.308  38.005   8.712
  533POPC   C2B10724  26.123  38.013   8.301
  533POPC   C3B10725  26.350  38.091   7.899
  533POPC   C4B10726  26.543  38.052   7.483
  534POPC   NC310727  38.095  33.739   9.428
  534POPC   PO410728  37.540  33.749   9.634
  534POPC   GL110729  37.614  33.648   9.216
  534POPC   GL210730  37.509  33.319   9.282
  534POPC   C1A10731  37.789  33.823   8.831
  534POPC   D2A10732  37.707  34.126   8.502
  534POPC   C3A10733  37.749  33.922   8.108
  534POPC   C4A10734  37.714  34.077   7.692
  534POPC   C1B10735  37.332  33.359   8.862
  534POPC   C2B10736  37.166  33.451   8.449
  534POPC   C3B10737  37.376  33.282   8.051
  534POPC   C4B10738  37.653  33.538   7.787
  535POPC   NC310739  14.310  42.686   9.463
  535POPC   PO410740  14.589  43.292   9.533
  535POPC   GL110741  14.468  43.098   9.203
  535POPC   GL210742  14.101  43.057   9.142
  535POPC   C1A10743  14.518  43.038   8.809
  535POPC   D2A10744  14.246  43.001   8.493
  535POPC   C3A10745  14.560  43.102   8.187
  535POPC   C4A10746  14.489  43.092   7.778
  535POPC   C1B10747  14.158  43.400   8.823
  535POPC   C2B10748  14.267  43.490   8.381
  535POPC   C3B10749  14.074  43.236   8.031
  535POPC   C4B10750  14.018  43.172   7.563
  536POPC   NC310751  25.338  29.439   9.284
  536POPC   PO410752  25.410  28.877   9.552
  536POPC   GL110753  25.325  28.963   9.100
  536POPC   GL210754  24.995  29.099   9.087
  536POPC   C1A10755  25.345  29.108   8.659
  536POPC   D2A10756  25.314  28.913   8.252
  536POPC   C3A10757  25.633  28.780   7.936
  536POPC   C4A10758  25.610  28.789   7.453
  536POPC   C1B10759  24.933  29.417   8.760
  536POPC   C2B10760  25.151  29.515   8.368
  536POPC   C3B10761  25.347  29.366   7.991
  536POPC   C4B10762  25.227  29.012   7.746
  537POPC   NC310763  12.832   4.151   9.287
  537POPC   PO410764  12.900   3.541   9.678
  537POPC   GL110765  12.896   3.642   9.213
  537POPC   GL210766  12.584   3.643   9.075
  537POPC   C1A10767  12.948   3.813   8.744
  537POPC   D2A10768  12.829   3.803   8.302
  537POPC   C3A10769  13.050   3.521   8.050
  537POPC   C4A10770  13.088   3.476   7.611
  537POPC   C1B10771  12.453   3.804   8.663
  537POPC   C2B10772  12.369   3.591   8.262
  537POPC   C3B10773  12.485   3.570   7.830
  537POPC   C4B10774  12.358   3.754   7.411
  538POPC   NC310775  12.535  25.027   9.518
  538POPC   PO410776  11.873  25.099   9.546
  538POPC   GL110777  12.008  25.224   9.139
  538POPC   GL210778  12.353  25.276   9.086
  538POPC   C1A10779  11.899  25.129   8.712
  538POPC   D2A10780  11.692  25.067   8.307
  538POPC   C3A10781  11.947  25.246   7.961
  538POPC   C4A10782  11.966  25.655   7.703
  538POPC   C1B10783  12.263  25.539   8.736
  538POPC   C2B10784  12.419  25.639   8.325
  538POPC   C3B10785  12.398  25.507   7.907
  538POPC   C4B10786  12.461  25.721   7.507
  539POPC   NC310787  42.143  38.633   9.168
  539POPC   PO410788  41.948  38.070   9.203
  539POPC   GL110789  42.214  38.182   8.956
  539POPC   GL210790  42.530  38.258   9.178
  539POPC   C1A10791  42.163  38.349   8.553
  539POPC   D2A10792  42.346  38.682   8.304
  539POPC   C3A10793  42.154  38.725   7.898
  539POPC   C4A10794  42.114  38.437   7.517
  539POPC   C1B10795  42.660  38.363   8.760
  539POPC   C2B10796  42.608  38.212   8.331
  539POPC   C3B10797  42.538  38.342   7.892
  539POPC   C4B10798  42.629  38.235   7.463
  540POPC   NC310799  25.419  29.975   9.676
  540POPC   PO410800  24.932  29.543   9.449
  540POPC   GL110801  25.096  29.869   9.167
  540POPC   GL210802  25.444  29.986   9.166
  540POPC   C1A10803  25.149  29.913   8.727
  540POPC   D2A10804  25.397  29.962   8.350
  540POPC   C3A10805  25.174  29.861   7.955
  540POPC   C4A10806  25.538  29.779   7.727
  540POPC   C1B10807  25.524  30.258   8.801
  540POPC   C2B10808  25.493  30.455   8.379
  540POPC   C3B10809  25.491  30.264   7.919
  540POPC   C4B10810  25.633  30.235   7.456
  541POPC   NC310811  22.656   9.585   9.872
  541POPC   PO410812  22.183   9.398   9.443
  541POPC   GL110813  22.297   9.431   9.013
  541POPC   GL210814  22.255   9.753   9.031
  541POPC   C1A10815  22.160   9.538   8.575
  541POPC   D2A10816  22.110   9.826   8.228
  541POPC   C3A10817  22.161   9.616   7.834
  541POPC   C4A10818  22.097   9.354   7.446
  541POPC   C1B10819  22.311  10.028   8.686
  541POPC   C2B10820  22.310  10.316   8.384
  541POPC   C3B10821  22.379  10.231   7.995
  541POPC   C4B10822  22.401  10.164   7.550
  542POPC   NC310823   1.534  22.922   9.379
  542POPC   PO410824   0.996  23.285   9.496
  542POPC   GL110825   1.109  23.035   9.134
  542POPC   GL210826   1.097  22.661   9.200
  542POPC   C1A10827   1.320  23.198   8.742
  542POPC   D2A10828   1.503  23.028   8.368
  542POPC   C3A10829   1.295  23.027   8.007
  542POPC   C4A10830   1.409  23.318   7.773
  542POPC   C1B10831   1.317  22.684   8.784
  542POPC   C2B10832   1.092  22.712   8.393
  542POPC   C3B10833   1.015  22.612   7.963
  542POPC   C4B10834   1.338  22.616   7.663
  543POPC   NC310835   6.720  31.157   9.527
  543POPC   PO410836   6.307  31.632   9.177
  543POPC   GL110837   6.551  31.282   9.072
  543POPC   GL210838   6.897  31.363   9.097
  543POPC   C1A10839   6.703  31.008   8.772
  543POPC   D2A10840   6.817  31.107   8.390
  543POPC   C3A10841   6.548  31.136   8.054
  543POPC   C4A10842   6.759  31.489   7.835
  543POPC   C1B10843   6.793  31.533   8.680
  543POPC   C2B10844   6.468  31.522   8.404
  543POPC   C3B10845   6.272  31.583   8.021
  543POPC   C4B10846   6.370  31.797   7.661
  544POPC   NC310847  11.090  16.377   9.542
  544POPC   PO410848  11.442  16.915   9.463
  544POPC   GL110849  11.357  16.582   9.139
  544POPC   GL210850  10.984  16.643   9.121
  544POPC   C1A10851  11.321  16.681   8.706
  544POPC   D2A10852  11.342  16.993   8.367
  544POPC   C3A10853  11.530  16.879   7.975
  544POPC   C4A10854  11.547  16.613   7.579
  544POPC   C1B10855  11.029  16.280   8.851
  544POPC   C2B10856  11.177  16.246   8.442
  544POPC   C3B10857  11.189  16.506   8.076
  544POPC   C4B10858  11.063  16.776   7.707
  545POPC   NC310859   3.037  17.326   9.378
  545POPC   PO410860   2.516  17.738   9.404
  545POPC   GL110861   2.715  17.543   9.057
  545POPC   GL210862   3.011  17.738   9.054
  545POPC   C1A10863   2.768  17.333   8.655
  545POPC   D2A10864   2.603  17.568   8.298
  545POPC   C3A10865   2.779  17.660   7.900
  545POPC   C4A10866   2.655  17.352   7.624
  545POPC   C1B10867   2.976  17.800   8.625
  545POPC   C2B10868   3.102  17.578   8.313
  545POPC   C3B10869   2.975  17.244   8.113
  545POPC   C4B10870   3.088  17.141   7.745
  546POPC   NC310871   2.939  41.057   9.466
  546POPC   PO410872   2.409  40.609   9.455
  546POPC   GL110873   2.626  40.850   9.107
  546POPC   GL210874   2.649  41.179   9.073
  546POPC   C1A10875   2.727  40.930   8.645
  546POPC   D2A10876   2.988  41.036   8.311
  546POPC   C3A10877   2.797  40.951   7.922
  546POPC   C4A10878   3.007  40.762   7.622
  546POPC   C1B10879   2.359  41.234   8.807
  546POPC   C2B10880   2.424  41.322   8.398
  546POPC   C3B10881   2.339  41.183   7.987
  546POPC   C4B10882   2.487  41.155   7.557
  547POPC   NC310883   8.339  15.515   9.444
  547POPC   PO410884   8.513  14.794   9.450
  547POPC   GL110885   8.146  14.857   9.188
  547POPC   GL210886   8.296  15.153   9.082
  547POPC   C1A10887   7.995  14.957   8.752
  547POPC   D2A10888   8.318  15.073   8.475
  547POPC   C3A10889   8.140  15.230   8.133
  547POPC   C4A10890   8.042  15.256   7.737
  547POPC   C1B10891   8.479  15.463   8.780
  547POPC   C2B10892   8.412  15.606   8.364
  547POPC   C3B10893   8.393  15.640   7.934
  547POPC   C4B10894   8.519  15.394   7.592
  548POPC   NC310895  17.474  41.550   9.472
  548POPC   PO410896  18.109  41.303   9.570
  548POPC   GL110897  17.868  41.381   9.191
  548POPC   GL210898  17.775  41.763   9.088
  548POPC   C1A10899  17.624  41.349   8.834
  548POPC   D2A10900  17.696  41.615   8.506
  548POPC   C3A10901  17.739  41.441   8.093
  548POPC   C4A10902  17.543  41.495   7.718
  548POPC   C1B10903  17.340  41.798   8.880
  548POPC   C2B10904  17.150  41.708   8.489
  548POPC   C3B10905  17.388  41.842   8.129
  548POPC   C4B10906  17.344  41.955   7.712
  549POPC   NC310907  10.353   4.725   9.621
  549POPC   PO410908  10.679   4.082   9.548
  549POPC   GL110909  10.463   4.107   9.128
  549POPC   GL210910  10.430   4.408   9.207
  549POPC   C1A10911  10.552   4.048   8.691
  549POPC   D2A10912  10.548   3.765   8.348
  549POPC   C3A10913  10.441   3.888   7.942
  549POPC   C4A10914  10.577   4.185   7.644
  549POPC   C1B10915  10.462   4.551   8.802
  549POPC   C2B10916  10.762   4.481   8.498
  549POPC   C3B10917  10.701   4.403   8.081
  549POPC   C4B10918  10.845   4.615   7.714
  550POPC   NC310919  12.809  20.184   9.409
  550POPC   PO410920  12.614  19.446   9.381
  550POPC   GL110921  12.845  19.659   9.076
  550POPC   GL210922  12.830  19.987   8.940
  550POPC   C1A10923  13.000  19.555   8.712
  550POPC   D2A10924  12.871  19.873   8.424
  550POPC   C3A10925  13.143  19.821   8.129
  550POPC   C4A10926  13.107  19.870   7.706
  550POPC   C1B10927  12.471  20.155   8.688
  550POPC   C2B10928  12.511  20.279   8.258
  550POPC   C3B10929  12.807  20.186   7.962
  550POPC   C4B10930  12.709  20.104   7.536
  551POPC   NC310931  13.247  24.268   9.490
  551POPC   PO410932  13.847  24.651   9.425
  551POPC   GL110933  13.590  24.843   9.095
  551POPC   GL210934  13.257  24.715   9.148
  551POPC   C1A10935  13.528  24.754   8.659
  551POPC   D2A10936  13.587  24.370   8.426
  551POPC   C3A10937  13.789  24.373   8.013
  551POPC   C4A10938  14.141  24.168   7.832
  551POPC   C1B10939  13.197  24.385   8.838
  551POPC   C2B10940  13.063  24.365   8.411
  551POPC   C3B10941  13.251  24.349   8.039
  551POPC   C4B10942  13.420  24.658   7.779
  552POPC   NC310943  29.828  20.090   9.525
  552POPC   PO410944  30.304  19.629   9.478
  552POPC   GL110945  30.173  19.894   9.186
  552POPC   GL210946  29.853  19.695   9.192
  552POPC   C1A10947  30.146  19.807   8.762
  552POPC   D2A10948  30.090  19.573   8.372
  552POPC   C3A10949  30.180  19.782   7.986
  552POPC   C4A10950  30.047  20.001   7.630
  552POPC   C1B10951  29.681  19.989   8.897
  552POPC   C2B10952  29.754  19.957   8.452
  552POPC   C3B10953  29.619  19.916   8.043
  552POPC   C4B10954  29.318  20.095   7.791
  553POPC   NC310955  33.978   5.971   9.478
  553POPC   PO410956  33.593   5.422   9.469
  553POPC   GL110957  33.717   5.530   9.073
  553POPC   GL210958  33.729   5.886   9.057
  553POPC   C1A10959  33.868   5.645   8.648
  553POPC   D2A10960  33.659   5.777   8.275
  553POPC   C3A10961  33.978   5.802   7.990
  553POPC   C4A10962  34.070   5.573   7.610
  553POPC   C1B10963  33.422   5.885   8.731
  553POPC   C2B10964  33.299   6.158   8.433
  553POPC   C3B10965  33.257   5.996   8.046
  553POPC   C4B10966  33.550   5.875   7.740
  554POPC   NC310967  18.385  13.974   9.212
  554POPC   PO410968  18.502  13.491   9.566
  554POPC   GL110969  18.387  13.391   9.120
  554POPC   GL210970  18.079  13.584   9.055
  554POPC   C1A10971  18.504  13.546   8.700
  554POPC   D2A10972  18.478  13.813   8.377
  554POPC   C3A10973  18.366  13.715   7.964
  554POPC   C4A10974  18.514  13.418   7.701
  554POPC   C1B10975  18.027  13.335   8.686
  554POPC   C2B10976  18.018  13.487   8.290
  554POPC   C3B10977  18.020  13.307   7.893
  554POPC   C4B10978  18.035  13.480   7.491
  555POPC   NC310979  22.003  31.991   9.530
  555POPC   PO410980  22.422  32.521   9.632
  555POPC   GL110981  22.330  32.331   9.242
  555POPC   GL210982  22.419  32.002   9.241
  555POPC   C1A10983  22.312  32.438   8.809
  555POPC   D2A10984  22.083  32.336   8.448
  555POPC   C3A10985  22.273  32.432   8.057
  555POPC   C4A10986  22.125  32.203   7.706
  555POPC   C1B10987  22.144  31.960   8.887
  555POPC   C2B10988  22.250  31.839   8.485
  555POPC   C3B10989  22.080  31.918   8.120
  555POPC   C4B10990  22.089  31.710   7.773
  556POPC   NC310991   9.541  20.865   9.592
  556POPC   PO410992   9.919  20.406   9.429
  556POPC   GL110993   9.760  20.615   9.098
  556POPC   GL210994   9.629  20.929   9.101
  556POPC   C1A10995   9.954  20.817   8.727
  556POPC   D2A10996   9.744  20.873   8.337
  556POPC   C3A10997   9.940  20.748   7.973
  556POPC   C4A10998   9.602  20.635   7.756
  556POPC   C1B10999   9.450  20.705   8.711
  556POPC   C2B11000   9.256  20.672   8.288
  556POPC   C3B11001   9.125  20.836   7.878
  556POPC   C4B11002   9.214  20.699   7.447
  557POPC   NC311003  35.025  29.469   9.357
  557POPC   PO411004  35.434  28.964   9.433
  557POPC   GL111005  35.500  29.165   9.046
  557POPC   GL211006  35.799  29.378   9.010
  557POPC   C1A11007  35.269  29.002   8.704
  557POPC   D2A11008  35.026  28.781   8.391
  557POPC   C3A11009  35.181  28.880   7.980
  557POPC   C4A11010  35.335  29.239   7.808
  557POPC   C1B11011  35.672  29.591   8.629
  557POPC   C2B11012  35.638  29.420   8.207
  557POPC   C3B11013  35.768  29.494   7.768
  557POPC   C4B11014  35.766  29.230   7.402
  558POPC   NC311015  20.866   2.716   9.694
  558POPC   PO411016  20.755   3.176   9.328
  558POPC   GL111017  20.827   2.809   9.044
  558POPC   GL211018  20.553   3.030   8.854
  558POPC   C1A11019  20.606   2.578   8.681
  558POPC   D2A11020  20.445   2.791   8.294
  558POPC   C3A11021  20.423   2.541   7.921
  558POPC   C4A11022  20.785   2.490   7.661
  558POPC   C1B11023  20.989   3.098   8.679
  558POPC   C2B11024  21.235   3.047   8.325
  558POPC   C3B11025  20.972   3.063   7.991
  558POPC   C4B11026  20.601   3.010   7.828
  559POPC   NC311027  12.257  14.094   9.157
  559POPC   PO411028  11.841  14.481   9.556
  559POPC   GL111029  11.884  14.454   9.133
  559POPC   GL211030  11.643  14.185   9.106
  559POPC   C1A11031  12.077  14.530   8.698
  559POPC   D2A11032  12.240  14.634   8.287
  559POPC   C3A11033  12.077  14.438   7.885
  559POPC   C4A11034  12.298  14.208   7.516
  559POPC   C1B11035  11.587  14.400   8.728
  559POPC   C2B11036  11.751  14.349   8.308
  559POPC   C3B11037  11.629  14.205   7.894
  559POPC   C4B11038  11.794  14.084   7.507
  560POPC   NC311039  31.303  33.855   9.339
  560POPC   PO411040  31.601  33.338   9.757
  560POPC   GL111041  31.679  33.356   9.266
  560POPC   GL211042  31.353  33.375   9.077
  560POPC   C1A11043  31.812  33.460   8.798
  560POPC   D2A11044  31.976  33.804   8.479
  560POPC   C3A11045  31.776  33.890   8.048
  560POPC   C4A11046  31.415  33.743   7.810
  560POPC   C1B11047  31.338  33.346   8.595
  560POPC   C2B11048  31.620  33.423   8.232
  560POPC   C3B11049  31.592  33.240   7.796
  560POPC   C4B11050  31.597  33.211   7.305
  561POPC   NC311051  40.368  26.426   9.771
  561POPC   PO411052  40.806  25.986   9.540
  561POPC   GL111053  40.883  26.306   9.272
  561POPC   GL211054  40.610  26.270   9.062
  561POPC   C1A11055  41.035  26.418   8.855
  561POPC   D2A11056  41.009  26.088   8.514
  561POPC   C3A11057  40.986  26.166   8.061
  561POPC   C4A11058  40.873  25.869   7.720
  561POPC   C1B11059  40.413  26.161   8.665
  561POPC   C2B11060  40.467  26.067   8.195
  561POPC   C3B11061  40.478  26.246   7.765
  561POPC   C4B11062  40.802  26.286   7.439
  562POPC   NC311063  39.995  24.964   9.449
  562POPC   PO411064  40.287  25.468   9.437
  562POPC   GL111065  40.086  25.354   9.127
  562POPC   GL211066  39.785  25.518   9.211
  562POPC   C1A11067  40.237  25.230   8.742
  562POPC   D2A11068  40.224  25.030   8.358
  562POPC   C3A11069  40.305  25.328   8.058
  562POPC   C4A11070  40.126  25.262   7.675
  562POPC   C1B11071  39.718  25.322   8.792
  562POPC   C2B11072  39.717  25.122   8.418
  562POPC   C3B11073  39.766  25.259   8.020
  562POPC   C4B11074  39.584  25.367   7.610
  563POPC   NC311075  35.345  33.603   9.427
  563POPC   PO411076  34.887  34.090   9.470
  563POPC   GL111077  35.160  33.969   9.122
  563POPC   GL211078  35.432  34.181   9.024
  563POPC   C1A11079  35.108  33.624   8.785
  563POPC   D2A11080  35.176  33.496   8.345
  563POPC   C3A11081  35.023  33.676   7.944
  563POPC   C4A11082  35.261  33.664   7.531
  563POPC   C1B11083  35.260  34.098   8.637
  563POPC   C2B11084  35.288  33.996   8.236
  563POPC   C3B11085  35.545  33.788   7.957
  563POPC   C4B11086  35.656  33.999   7.568
  564POPC   NC311087  20.369   0.557   9.498
  564POPC   PO411088  20.997   0.621   9.442
  564POPC   GL111089  20.712   0.419   9.118
  564POPC   GL211090  20.326   0.441   9.028
  564POPC   C1A11091  20.727   0.474   8.688
  564POPC   D2A11092  20.913   0.204   8.394
  564POPC   C3A11093  20.937   0.448   8.052
  564POPC   C4A11094  20.752   0.362   7.707
  564POPC   C1B11095  20.205   0.437   8.645
  564POPC   C2B11096  20.417   0.365   8.261
  564POPC   C3B11097  20.281   0.291   7.844
  564POPC   C4B11098  20.395   0.267   7.362
  565POPC   NC311099   7.047   5.048   9.470
  565POPC   PO411100   6.451   4.831   9.690
  565POPC   GL111101   6.577   5.001   9.282
  565POPC   GL211102   6.377   5.298   9.236
  565POPC   C1A11103   6.819   4.961   8.857
  565POPC   D2A11104   6.871   5.274   8.534
  565POPC   C3A11105   6.919   5.122   8.120
  565POPC   C4A11106   6.927   5.266   7.724
  565POPC   C1B11107   6.321   5.064   8.833
  565POPC   C2B11108   6.452   4.983   8.400
  565POPC   C3B11109   6.426   5.150   7.989
  565POPC   C4B11110   6.131   5.224   7.714
  566POPC   NC311111  21.097   1.083   9.408
  566POPC   PO411112  21.666   1.309   9.722
  566POPC   GL111113  21.569   1.309   9.275
  566POPC   GL211114  21.283   1.407   9.079
  566POPC   C1A11115  21.708   1.145   8.878
  566POPC   D2A11116  21.583   1.002   8.461
  566POPC   C3A11117  21.567   1.318   8.154
  566POPC   C4A11118  21.662   1.135   7.765
  566POPC   C1B11119  21.282   1.365   8.677
  566POPC   C2B11120  21.099   1.284   8.347
  566POPC   C3B11121  21.175   1.003   8.058
  566POPC   C4B11122  21.181   1.243   7.677
  567POPC   NC311123   4.338  32.621   9.447
  567POPC   PO411124   4.437  31.900   9.529
  567POPC   GL111125   4.487  32.146   9.185
  567POPC   GL211126   4.771  32.356   9.274
  567POPC   C1A11127   4.365  32.302   8.783
  567POPC   D2A11128   4.205  32.484   8.409
  567POPC   C3A11129   4.083  32.185   8.073
  567POPC   C4A11130   4.137  32.121   7.632
  567POPC   C1B11131   4.758  32.619   8.892
  567POPC   C2B11132   4.778  32.463   8.432
  567POPC   C3B11133   4.535  32.505   8.021
  567POPC   C4B11134   4.503  32.461   7.571
  568POPC   NC311135  30.040  38.699   9.560
  568POPC   PO411136  29.810  38.065   9.463
  568POPC   GL111137  29.947  38.368   9.202
  568POPC   GL211138  29.667  38.562   9.118
  568POPC   C1A11139  30.115  38.460   8.812
  568POPC   D2A11140  30.047  38.257   8.419
  568POPC   C3A11141  30.074  38.552   8.064
  568POPC   C4A11142  29.769  38.778   7.811
  568POPC   C1B11143  29.647  38.207   8.827
  568POPC   C2B11144  29.498  38.176   8.434
  568POPC   C3B11145  29.674  38.191   8.049
  568POPC   C4B11146  29.785  38.281   7.669
  569POPC   NC311147  23.502   5.461   9.189
  569POPC   PO411148  23.935   4.993   9.438
  569POPC   GL111149  23.918   4.897   9.023
  569POPC   GL211150  24.041   4.588   8.964
  569POPC   C1A11151  23.883   5.083   8.611
  569POPC   D2A11152  24.147   5.365   8.359
  569POPC   C3A11153  23.997   5.318   7.927
  569POPC   C4A11154  23.596   5.270   7.691
  569POPC   C1B11155  23.807   4.553   8.602
  569POPC   C2B11156  23.535   4.728   8.311
  569POPC   C3B11157  23.723   4.833   7.927
  569POPC   C4B11158  23.835   4.829   7.510
  570POPC   NC311159   0.604  26.430   9.423
  570POPC   PO411160   0.569  27.171   9.464
  570POPC   GL111161   0.413  26.868   9.183
  570POPC   GL211162   0.116  26.724   9.305
  570POPC   C1A11163   0.550  26.852   8.757
  570POPC   D2A11164   0.542  27.231   8.518
  570POPC   C3A11165   0.529  27.138   8.118
  570POPC   C4A11166   0.458  26.758   7.875
  570POPC   C1B11167   0.156  26.563   8.864
  570POPC   C2B11168   0.294  26.505   8.428
  570POPC   C3B11169   0.044  26.491   8.021
  570POPC   C4B11170   0.133  26.494   7.568
  571POPC   NC311171  24.972  19.476   9.470
  571POPC   PO411172  24.377  19.085   9.334
  571POPC   GL111173  24.521  19.323   9.040
  571POPC   GL211174  24.840  19.237   9.041
  571POPC   C1A11175  24.373  19.316   8.647
  571POPC   D2A11176  24.617  19.200   8.303
  571POPC   C3A11177  24.412  19.241   7.922
  571POPC   C4A11178  24.228  19.437   7.555
  571POPC   C1B11179  24.646  18.901   8.768
  571POPC   C2B11180  24.814  18.753   8.444
  571POPC   C3B11181  24.794  18.793   8.027
  571POPC   C4B11182  24.509  18.807   7.692
  572POPC   NC311183  13.867  17.901   9.433
  572POPC   PO411184  13.530  17.283   9.475
  572POPC   GL111185  13.341  17.416   9.103
  572POPC   GL211186  13.127  17.137   9.057
  572POPC   C1A11187  13.517  17.557   8.697
  572POPC   D2A11188  13.800  17.677   8.358
  572POPC   C3A11189  13.592  17.715   7.991
  572POPC   C4A11190  13.708  17.696   7.605
  572POPC   C1B11191  13.468  17.042   8.758
  572POPC   C2B11192  13.832  17.173   8.470
  572POPC   C3B11193  13.839  17.254   8.005
  572POPC   C4B11194  13.598  17.215   7.551
  573POPC   NC311195   8.002  44.448   9.687
  573POPC   PO411196   8.601  44.506   9.659
  573POPC   GL111197   8.335  44.465   9.240
  573POPC   GL211198   8.007  44.647   9.221
  573POPC   C1A11199   8.320  44.535   8.763
  573POPC   D2A11200   8.000  44.789   8.478
  573POPC   C3A11201   8.097  44.940   8.061
  573POPC   C4A11202   8.009   0.130   7.666
  573POPC   C1B11203   7.851  44.401   8.909
  573POPC   C2B11204   7.952  44.291   8.505
  573POPC   C3B11205   8.140  44.414   8.114
  573POPC   C4B11206   8.211  44.194   7.695
  574POPC   NC311207  14.262  16.455   9.443
  574POPC   PO411208  14.815  16.947   9.496
  574POPC   GL111209  14.502  17.003   9.206
  574POPC   GL211210  14.542  16.685   9.079
  574POPC   C1A11211  14.245  17.036   8.810
  574POPC   D2A11212  14.253  16.837   8.403
  574POPC   C3A11213  14.146  16.814   7.941
  574POPC   C4A11214  14.144  16.441   7.717
  574POPC   C1B11215  14.588  16.548   8.667
  574POPC   C2B11216  14.517  16.432   8.218
  574POPC   C3B11217  14.649  16.561   7.822
  574POPC   C4B11218  14.909  16.907   7.811
  575POPC   NC311219  44.430   5.526   9.489
  575POPC   PO411220  44.934   5.993   9.488
  575POPC   GL111221  44.649   5.903   9.190
  575POPC   GL211222  44.756   5.582   9.100
  575POPC   C1A11223  44.646   6.109   8.797
  575POPC   D2A11224  44.924   6.325   8.480
  575POPC   C3A11225  44.951   6.101   8.100
  575POPC   C4A11226  44.667   6.091   7.718
  575POPC   C1B11227  44.746   5.383   8.734
  575POPC   C2B11228  44.840   5.468   8.319
  575POPC   C3B11229  44.680   5.676   8.005
  575POPC   C4B11230  44.649   5.594   7.585
  576POPC   NC311231  41.921   9.223   9.341
  576POPC   PO411232  42.524   8.946   9.440
  576POPC   GL111233  42.452   8.757   9.074
  576POPC   GL211234  42.106   8.809   8.983
  576POPC   C1A11235  42.531   8.828   8.651
  576POPC   D2A11236  42.336   8.979   8.331
  576POPC   C3A11237  42.357   8.738   8.002
  576POPC   C4A11238  42.114   8.752   7.658
  576POPC   C1B11239  42.034   9.177   8.699
  576POPC   C2B11240  42.100   9.423   8.301
  576POPC   C3B11241  42.111   9.222   7.927
  576POPC   C4B11242  41.983   9.222   7.532
  577POPC   NC311243  10.006  31.186   9.428
  577POPC   PO411244   9.395  31.464   9.455
  577POPC   GL111245   9.725  31.529   9.142
  577POPC   GL211246  10.073  31.639   9.184
  577POPC   C1A11247   9.880  31.296   8.795
  577POPC   D2A11248   9.675  31.077   8.485
  577POPC   C3A11249   9.796  31.083   8.048
  577POPC   C4A11250   9.608  31.158   7.643
  577POPC   C1B11251   9.990  31.799   8.757
  577POPC   C2B11252   9.979  31.540   8.355
  577POPC   C3B11253   9.820  31.611   7.925
  577POPC   C4B11254   9.876  31.983   7.685
  578POPC   NC311255  35.549  19.464   9.353
  578POPC   PO411256  35.524  20.121   9.565
  578POPC   GL111257  35.284  19.977   9.190
  578POPC   GL211258  34.992  19.708   9.214
  578POPC   C1A11259  35.370  20.057   8.744
  578POPC   D2A11260  35.121  20.027   8.351
  578POPC   C3A11261  35.331  20.022   7.940
  578POPC   C4A11262  35.651  20.083   7.608
  578POPC   C1B11263  35.070  19.622   8.760
  578POPC   C2B11264  35.446  19.607   8.486
  578POPC   C3B11265  35.568  19.346   8.141
  578POPC   C4B11266  35.601  19.565   7.759
  579POPC   NC311267  18.852  13.881   9.583
  579POPC   PO411268  19.449  13.594   9.280
  579POPC   GL111269  19.097  13.817   9.089
  579POPC   GL211270  18.920  13.515   9.007
  579POPC   C1A11271  18.919  13.877   8.640
  579POPC   D2A11272  18.914  13.552   8.320
  579POPC   C3A11273  18.894  13.735   7.923
  579POPC   C4A11274  18.726  14.118   7.734
  579POPC   C1B11275  19.292  13.550   8.680
  579POPC   C2B11276  19.430  13.311   8.387
  579POPC   C3B11277  19.276  13.347   7.991
  579POPC   C4B11278  19.008  13.258   7.687
  580POPC   NC311279  19.358  36.506   9.475
  580POPC   PO411280  19.069  36.048   9.803
  580POPC   GL111281  19.051  36.081   9.333
  580POPC   GL211282  18.742  36.101   9.214
  580POPC   C1A11283  19.107  36.068   8.850
  580POPC   D2A11284  19.331  36.150   8.446
  580POPC   C3A11285  19.148  36.033   8.057
  580POPC   C4A11286  19.194  35.693   7.749
  580POPC   C1B11287  18.633  36.280   8.843
  580POPC   C2B11288  18.808  36.228   8.453
  580POPC   C3B11289  18.736  36.335   8.052
  580POPC   C4B11290  18.876  36.194   7.659
  581POPC   NC311291  19.457  44.477   9.803
  581POPC   PO411292  18.944  44.611   9.388
  581POPC   GL111293  19.241  44.658   9.046
  581POPC   GL211294  19.568  44.515   9.119
  581POPC   C1A11295  19.138  44.688   8.592
  581POPC   D2A11296  19.096  44.522   8.167
  581POPC   C3A11297  19.023  44.782   7.820
  581POPC   C4A11298  18.678  44.798   7.510
  581POPC   C1B11299  19.537  44.338   8.685
  581POPC   C2B11300  19.565  44.272   8.217
  581POPC   C3B11301  19.392  44.357   7.787
  581POPC   C4B11302  19.510  44.557   7.370
  582POPC   NC311303  33.185  16.224   9.345
  582POPC   PO411304  33.219  16.796   9.705
  582POPC   GL111305  33.195  16.733   9.214
  582POPC   GL211306  33.429  16.513   9.020
  582POPC   C1A11307  33.132  16.901   8.745
  582POPC   D2A11308  32.934  16.887   8.290
  582POPC   C3A11309  33.185  16.785   7.894
  582POPC   C4A11310  33.204  16.643   7.446
  582POPC   C1B11311  33.041  16.395   8.765
  582POPC   C2B11312  32.910  16.213   8.408
  582POPC   C3B11313  32.845  16.404   8.040
  582POPC   C4B11314  32.806  16.356   7.641
  583POPC   NC311315  30.838   9.423   9.478
  583POPC   PO411316  30.369   9.946   9.436
  583POPC   GL111317  30.562   9.658   9.082
  583POPC   GL211318  30.932   9.613   9.025
  583POPC   C1A11319  30.637   9.654   8.602
  583POPC   D2A11320  30.336   9.639   8.257
  583POPC   C3A11321  30.447   9.538   7.815
  583POPC   C4A11322  30.499   9.824   7.434
  583POPC   C1B11323  31.064   9.950   8.763
  583POPC   C2B11324  31.009  10.053   8.337
  583POPC   C3B11325  30.883   9.758   7.995
  583POPC   C4B11326  31.113   9.618   7.616
  584POPC   NC311327  41.838   5.149   9.550
  584POPC   PO411328  41.389   4.678   9.779
  584POPC   GL111329  41.390   5.001   9.347
  584POPC   GL211330  41.719   4.995   9.095
  584POPC   C1A11331  41.326   5.178   8.883
  584POPC   D2A11332  41.553   5.078   8.475
  584POPC   C3A11333  41.502   5.202   8.035
  584POPC   C4A11334  41.218   4.997   7.767
  584POPC   C1B11335  41.883   5.293   8.797
  584POPC   C2B11336  42.059   5.170   8.377
  584POPC   C3B11337  42.019   5.340   7.992
  584POPC   C4B11338  41.939   5.399   7.588
  585POPC   NC311339  44.732  19.794  10.007
  585POPC   PO411340  44.600  20.073   9.423
  585POPC   GL111341  44.488  19.824   9.076
  585POPC   GL211342  44.373  19.508   9.254
  585POPC   C1A11343  44.681  19.729   8.680
  585POPC   D2A11344  44.888  19.552   8.314
  585POPC   C3A11345  44.783  19.798   7.958
  585POPC   C4A11346  44.705  19.665   7.489
  585POPC   C1B11347  44.301  19.396   8.811
  585POPC   C2B11348  44.292  19.565   8.388
  585POPC   C3B11349  44.334  19.522   7.953
  585POPC   C4B11350  44.325  19.905   7.723
  586POPC   NC311351   1.538   0.301   9.356
  586POPC   PO411352   0.995   0.717   9.438
  586POPC   GL111353   1.092   0.482   9.087
  586POPC   GL211354   1.367   0.649   9.008
  586POPC   C1A11355   0.957   0.232   8.735
  586POPC   D2A11356   1.014   0.117   8.322
  586POPC   C3A11357   0.915   0.452   8.076
  586POPC   C4A11358   1.010   0.545   7.680
  586POPC   C1B11359   1.569   0.617   8.640
  586POPC   C2B11360   1.378   0.482   8.300
  586POPC   C3B11361   1.429   0.365   7.889
  586POPC   C4B11362   1.621   0.686   7.615
  587POPC   NC311363  43.276  20.245   9.450
  587POPC   PO411364  43.291  20.974   9.531
  587POPC   GL111365  43.265  20.694   9.184
  587POPC   GL211366  42.936  20.548   9.204
  587POPC   C1A11367  43.218  20.650   8.735
  587POPC   D2A11368  43.314  20.799   8.296
  587POPC   C3A11369  43.210  20.492   7.972
  587POPC   C4A11370  43.223  20.483   7.517
  587POPC   C1B11371  42.738  20.819   8.885
  587POPC   C2B11372  42.874  21.007   8.484
  587POPC   C3B11373  42.833  20.857   8.069
  587POPC   C4B11374  42.697  20.711   7.679
  588POPC   NC311375  28.412  36.322   9.463
  588POPC   PO411376  28.718  35.834   9.479
  588POPC   GL111377  28.455  35.941   9.102
  588POPC   GL211378  28.484  36.277   8.973
  588POPC   C1A11379  28.464  35.875   8.650
  588POPC   D2A11380  28.139  35.902   8.332
  588POPC   C3A11381  28.181  36.004   7.900
  588POPC   C4A11382  28.578  36.061   7.637
  588POPC   C1B11383  28.191  36.298   8.653
  588POPC   C2B11384  28.234  36.417   8.222
  588POPC   C3B11385  28.308  36.476   7.775
  588POPC   C4B11386  28.117  36.200   7.422
  589POPC   NC311387  12.962  21.140   9.599
  589POPC   PO411388  13.080  20.553   9.306
  589POPC   GL111389  12.833  20.816   9.069
  589POPC   GL211390  13.104  21.096   9.062
  589POPC   C1A11391  12.661  20.660   8.641
  589POPC   D2A11392  12.521  20.808   8.243
  589POPC   C3A11393  12.562  20.608   7.822
  589POPC   C4A11394  12.890  20.564   7.464
  589POPC   C1B11395  13.140  20.825   8.654
  589POPC   C2B11396  13.019  20.638   8.218
  589POPC   C3B11397  13.229  20.692   7.806
  589POPC   C4B11398  13.437  20.740   7.386
  590POPC   NC311399   3.292  33.871   9.567
  590POPC   PO411400   3.970  33.946   9.660
  590POPC   GL111401   3.803  33.868   9.255
  590POPC   GL211402   3.547  34.099   9.187
  590POPC   C1A11403   3.595  33.668   8.895
  590POPC   D2A11404   3.320  33.568   8.559
  590POPC   C3A11405   3.514  33.495   8.165
  590POPC   C4A11406   3.603  33.452   7.746
  590POPC   C1B11407   3.779  34.125   8.794
  590POPC   C2B11408   3.652  33.976   8.368
  590POPC   C3B11409   3.776  33.912   7.943
  590POPC   C4B11410   3.892  34.105   7.545
  591POPC   NC311411   7.934  35.575   9.477
  591POPC   PO411412   8.462  35.080   9.315
  591POPC   GL111413   8.215  35.228   9.023
  591POPC   GL211414   8.242  35.588   9.055
  591POPC   C1A11415   8.334  35.145   8.607
  591POPC   D2A11416   8.246  35.354   8.225
  591POPC   C3A11417   8.507  35.242   7.896
  591POPC   C4A11418   8.453  35.226   7.435
  591POPC   C1B11419   8.345  35.655   8.640
  591POPC   C2B11420   8.572  35.750   8.250
  591POPC   C3B11421   8.365  35.781   7.868
  591POPC   C4B11422   8.410  35.741   7.427
  592POPC   NC311423  16.011  26.453   9.429
  592POPC   PO411424  15.744  25.782   9.435
  592POPC   GL111425  15.702  26.047   9.116
  592POPC   GL211426  16.040  26.103   9.055
  592POPC   C1A11427  15.611  26.040   8.693
  592POPC   D2A11428  15.830  26.091   8.299
  592POPC   C3A11429  15.728  25.938   7.922
  592POPC   C4A11430  15.905  26.088   7.568
  592POPC   C1B11431  16.120  25.903   8.666
  592POPC   C2B11432  16.202  25.749   8.206
  592POPC   C3B11433  16.312  25.799   7.745
  592POPC   C4B11434  16.211  25.830   7.289
  593POPC   NC311435  37.497  17.900   9.458
  593POPC   PO411436  38.077  18.130   9.423
  593POPC   GL111437  37.893  18.092   9.051
  593POPC   GL211438  37.551  18.240   9.071
  593POPC   C1A11439  37.928  18.190   8.628
  593POPC   D2A11440  37.762  18.428   8.308
  593POPC   C3A11441  37.827  18.250   7.939
  593POPC   C4A11442  37.596  18.312   7.579
  593POPC   C1B11443  37.492  17.911   8.770
  593POPC   C2B11444  37.592  17.856   8.308
  593POPC   C3B11445  37.367  17.960   7.914
  593POPC   C4B11446  37.355  17.887   7.437
  594POPC   NC311447  22.766  27.148   9.599
  594POPC   PO411448  22.747  27.755   9.395
  594POPC   GL111449  23.116  27.482   9.242
  594POPC   GL211450  22.852  27.300   9.107
  594POPC   C1A11451  23.291  27.192   8.884
  594POPC   D2A11452  23.226  27.167   8.451
  594POPC   C3A11453  23.253  27.491   8.145
  594POPC   C4A11454  23.028  27.772   7.862
  594POPC   C1B11455  22.950  27.552   8.722
  594POPC   C2B11456  22.781  27.575   8.300
  594POPC   C3B11457  22.709  27.366   7.905
  594POPC   C4B11458  22.872  27.439   7.481
  595POPC   NC311459   2.602  18.859   9.507
  595POPC   PO411460   2.470  19.451   9.684
  595POPC   GL111461   2.680  19.259   9.227
  595POPC   GL211462   2.935  18.982   9.122
  595POPC   C1A11463   2.658  19.200   8.746
  595POPC   D2A11464   2.889  19.066   8.348
  595POPC   C3A11465   2.840  19.342   7.986
  595POPC   C4A11466   2.831  19.499   7.563
  595POPC   C1B11467   2.878  18.714   8.732
  595POPC   C2B11468   2.643  18.593   8.331
  595POPC   C3B11469   2.714  18.647   7.893
  595POPC   C4B11470   2.823  18.995   7.589
  596POPC   NC311471  29.940  27.890   9.683
  596POPC   PO411472  29.681  28.509   9.574
  596POPC   GL111473  29.750  28.488   9.175
  596POPC   GL211474  29.880  28.166   9.224
  596POPC   C1A11475  29.769  28.705   8.771
  596POPC   D2A11476  30.002  28.596   8.431
  596POPC   C3A11477  29.785  28.649   8.021
  596POPC   C4A11478  29.817  28.389   7.654
  596POPC   C1B11479  30.135  28.310   8.871
  596POPC   C2B11480  30.117  28.111   8.466
  596POPC   C3B11481  30.138  28.267   8.034
  596POPC   C4B11482  30.251  28.118   7.617
  597POPC   NC311483  23.129  28.039   9.327
  597POPC   PO411484  22.633  28.429   9.612
  597POPC   GL111485  22.704  28.275   9.168
  597POPC   GL211486  22.791  28.626   9.161
  597POPC   C1A11487  22.938  28.124   8.720
  597POPC   D2A11488  22.830  28.093   8.246
  597POPC   C3A11489  23.090  28.269   7.905
  597POPC   C4A11490  23.193  28.674   7.783
  597POPC   C1B11491  22.729  28.576   8.754
  597POPC   C2B11492  22.943  28.602   8.370
  597POPC   C3B11493  22.728  28.612   7.987
  597POPC   C4B11494  22.543  28.282   7.796
  598POPC   NC311495  20.112  17.071   9.304
  598POPC   PO411496  19.769  16.448   9.271
  598POPC   GL111497  19.777  16.761   9.051
  598POPC   GL211498  19.498  17.006   9.168
  598POPC   C1A11499  19.922  16.649   8.647
  598POPC   D2A11500  19.703  16.463   8.290
  598POPC   C3A11501  19.726  16.612   7.874
  598POPC   C4A11502  19.975  16.559   7.451
  598POPC   C1B11503  19.662  17.142   8.745
  598POPC   C2B11504  19.760  16.984   8.313
  598POPC   C3B11505  19.639  17.113   7.933
  598POPC   C4B11506  19.695  16.969   7.506
  599POPC   NC311507   6.154  41.859   9.547
  599POPC   PO411508   5.644  41.393   9.505
  599POPC   GL111509   5.628  41.660   9.143
  599POPC   GL211510   5.942  41.641   9.135
  599POPC   C1A11511   5.663  41.609   8.693
  599POPC   D2A11512   5.700  41.348   8.354
  599POPC   C3A11513   5.741  41.585   7.978
  599POPC   C4A11514   5.645  41.852   7.630
  599POPC   C1B11515   6.160  41.575   8.766
  599POPC   C2B11516   6.097  41.665   8.363
  599POPC   C3B11517   6.250  41.532   8.002
  599POPC   C4B11518   6.432  41.653   7.674
  600POPC   NC311519  32.799  28.097   9.922
  600POPC   PO411520  33.376  28.419   9.625
  600POPC   GL111521  33.326  28.417   9.193
  600POPC   GL211522  33.006  28.261   9.155
  600POPC   C1A11523  33.323  28.242   8.756
  600POPC   D2A11524  33.196  28.458   8.363
  600POPC   C3A11525  33.180  28.249   7.976
  600POPC   C4A11526  33.011  28.165   7.566
  600POPC   C1B11527  32.824  28.316   8.709
  600POPC   C2B11528  32.732  28.191   8.252
  600POPC   C3B11529  32.559  28.175   7.809
  600POPC   C4B11530  32.536  28.115   7.346
  601POPC   NC311531  36.792  14.203   9.554
  601POPC   PO411532  36.407  14.692   9.336
  601POPC   GL111533  36.656  14.408   9.116
  601POPC   GL211534  36.953  14.587   9.146
  601POPC   C1A11535  36.721  14.404   8.692
  601POPC   D2A11536  36.646  14.529   8.286
  601POPC   C3A11537  36.887  14.248   8.053
  601POPC   C4A11538  36.784  14.201   7.659
  601POPC   C1B11539  37.082  14.805   8.758
  601POPC   C2B11540  37.154  14.627   8.336
  601POPC   C3B11541  37.003  14.713   7.895
  601POPC   C4B11542  37.028  14.575   7.430
  602POPC   NC311543  38.505  11.976   9.588
  602POPC   PO411544  38.119  12.403   9.378
  602POPC   GL111545  38.503  12.327   9.146
  602POPC   GL211546  38.598  11.993   9.084
  602POPC   C1A11547  38.585  12.383   8.707
  602POPC   D2A11548  38.727  12.420   8.280
  602POPC   C3A11549  38.468  12.295   7.925
  602POPC   C4A11550  38.438  12.395   7.484
  602POPC   C1B11551  38.418  11.757   8.775
  602POPC   C2B11552  38.382  11.614   8.366
  602POPC   C3B11553  38.323  11.789   7.991
  602POPC   C4B11554  38.625  11.834   7.677
  603POPC   NC311555  28.765  18.771   9.198
  603POPC   PO411556  28.323  18.394   9.556
  603POPC   GL111557  28.385  18.325   9.135
  603POPC   GL211558  28.736  18.249   9.140
  603POPC   C1A11559  28.381  18.308   8.696
  603POPC   D2A11560  28.229  18.102   8.345
  603POPC   C3A11561  28.291  18.274   7.967
  603POPC   C4A11562  28.049  18.369   7.589
  603POPC   C1B11563  28.891  18.356   8.725
  603POPC   C2B11564  28.725  18.419   8.325
  603POPC   C3B11565  28.669  18.704   8.037
  603POPC   C4B11566  28.452  18.663   7.682
  604POPC   NC311567  25.817  42.919   9.619
  604POPC   PO411568  26.298  43.343   9.413
  604POPC   GL111569  26.243  43.273   9.022
  604POPC   GL211570  25.930  43.106   9.071
  604POPC   C1A11571  26.115  43.364   8.624
  604POPC   D2A11572  25.874  43.198   8.319
  604POPC   C3A11573  26.216  43.231   8.040
  604POPC   C4A11574  26.065  43.374   7.679
  604POPC   C1B11575  26.064  42.867   8.697
  604POPC   C2B11576  26.117  42.756   8.258
  604POPC   C3B11577  25.877  42.884   7.877
  604POPC   C4B11578  25.746  43.000   7.452
  605POPC   NC311579  31.454  39.750   9.690
  605POPC   PO411580  31.171  39.060   9.600
  605POPC   GL111581  31.377  39.095   9.183
  605POPC   GL211582  31.305  39.433   9.201
  605POPC   C1A11583  31.616  39.007   8.782
  605POPC   D2A11584  31.728  38.888   8.333
  605POPC   C3A11585  31.689  39.213   8.014
  605POPC   C4A11586  31.459  39.159   7.623
  605POPC   C1B11587  31.527  39.543   8.764
  605POPC   C2B11588  31.489  39.734   8.333
  605POPC   C3B11589  31.331  39.577   7.940
  605POPC   C4B11590  31.261  39.602   7.490
  606POPC   NC311591  11.599  24.792   9.778
  606POPC   PO411592  11.920  24.169   9.589
  606POPC   GL111593  12.018  24.232   9.139
  606POPC   GL211594  12.287  24.468   9.059
  606POPC   C1A11595  11.941  24.341   8.691
  606POPC   D2A11596  12.047  24.697   8.435
  606POPC   C3A11597  12.208  24.584   8.051
  606POPC   C4A11598  11.988  24.332   7.783
  606POPC   C1B11599  12.382  24.085   8.783
  606POPC   C2B11600  12.388  23.977   8.332
  606POPC   C3B11601  12.402  24.044   7.849
  606POPC   C4B11602  12.535  24.063   7.395
  607POPC   NC311603   3.102   8.949   9.498
  607POPC   PO411604   2.469   8.767   9.525
  607POPC   GL111605   2.725   8.862   9.174
  607POPC   GL211606   2.621   9.227   9.142
  607POPC   C1A11607   2.940   9.010   8.793
  607POPC   D2A11608   2.770   8.995   8.371
  607POPC   C3A11609   2.971   8.843   8.026
  607POPC   C4A11610   2.798   8.847   7.631
  607POPC   C1B11611   2.508   9.441   8.731
  607POPC   C2B11612   2.707   9.507   8.296
  607POPC   C3B11613   2.863   9.319   7.887
  607POPC   C4B11614   2.983   9.274   7.396
  608POPC   NC311615  28.255  10.851   9.731
  608POPC   PO411616  27.970  11.481   9.581
  608POPC   GL111617  28.114  11.514   9.147
  608POPC   GL211618  28.460  11.604   9.157
  608POPC   C1A11619  28.262  11.290   8.762
  608POPC   D2A11620  28.206  11.121   8.400
  608POPC   C3A11621  28.088  11.468   8.183
  608POPC   C4A11622  28.201  11.338   7.830
  608POPC   C1B11623  28.628  11.617   8.741
  608POPC   C2B11624  28.609  11.407   8.325
  608POPC   C3B11625  28.615  11.612   7.915
  608POPC   C4B11626  28.396  11.702   7.527
  609POPC   NC311627  33.570  29.834   9.784
  609POPC   PO411628  34.211  30.076   9.727
  609POPC   GL111629  33.962  30.018   9.318
  609POPC   GL211630  33.806  29.672   9.300
  609POPC   C1A11631  33.824  29.983   8.855
  609POPC   D2A11632  33.482  29.741   8.583
  609POPC   C3A11633  33.565  29.777   8.117
  609POPC   C4A11634  33.777  29.895   7.709
  609POPC   C1B11635  33.817  29.497   8.878
  609POPC   C2B11636  33.935  29.579   8.448
  609POPC   C3B11637  33.914  29.396   8.036
  609POPC   C4B11638  33.913  29.413   7.605
  610POPC   NC311639  18.809  24.678   9.508
  610POPC   PO411640  19.425  24.316   9.465
  610POPC   GL111641  19.130  24.476   9.176
  610POPC   GL211642  18.854  24.246   9.216
  610POPC   C1A11643  18.858  24.564   8.813
  610POPC   D2A11644  19.060  24.686   8.453
  610POPC   C3A11645  18.892  24.608   8.063
  610POPC   C4A11646  19.045  24.717   7.665
  610POPC   C1B11647  19.132  24.123   8.817
  610POPC   C2B11648  18.978  24.189   8.408
  610POPC   C3B11649  19.108  24.127   8.016
  610POPC   C4B11650  18.815  24.232   7.724
  611POPC   NC311651   7.836  39.682   9.623
  611POPC   PO411652   7.250  40.044   9.474
  611POPC   GL111653   7.514  39.977   9.144
  611POPC   GL211654   7.237  39.790   9.005
  611POPC   C1A11655   7.629  39.889   8.711
  611POPC   D2A11656   7.607  40.167   8.346
  611POPC   C3A11657   7.555  40.026   7.945
  611POPC   C4A11658   7.474  39.603   7.860
  611POPC   C1B11659   7.150  40.119   8.723
  611POPC   C2B11660   7.075  40.208   8.296
  611POPC   C3B11661   7.047  39.899   7.960
  611POPC   C4B11662   7.185  39.929   7.536
  612POPC   NC311663  26.931  16.295   9.445
  612POPC   PO411664  27.102  15.704   9.744
  612POPC   GL111665  26.934  15.775   9.281
  612POPC   GL211666  26.618  15.968   9.186
  612POPC   C1A11667  27.072  16.017   8.886
  612POPC   D2A11668  26.890  16.284   8.556
  612POPC   C3A11669  26.917  16.076   8.141
  612POPC   C4A11670  26.880  16.137   7.685
  612POPC   C1B11671  26.652  15.751   8.773
  612POPC   C2B11672  26.729  15.617   8.331
  612POPC   C3B11673  26.563  15.779   7.926
  612POPC   C4B11674  26.727  15.561   7.633
  613POPC   NC311675  41.842  21.969   9.465
  613POPC   PO411676  41.265  22.363   9.304
  613POPC   GL111677  41.353  22.067   9.034
  613POPC   GL211678  41.695  22.128   9.017
  613POPC   C1A11679  41.396  22.201   8.616
  613POPC   D2A11680  41.387  22.039   8.226
  613POPC   C3A11681  41.548  22.345   7.939
  613POPC   C4A11682  41.506  22.490   7.514
  613POPC   C1B11683  41.740  21.808   8.738
  613POPC   C2B11684  41.958  21.625   8.422
  613POPC   C3B11685  41.724  21.674   8.100
  613POPC   C4B11686  41.552  21.855   7.773
  614POPC   NC311687  41.940  13.505   9.581
  614POPC   PO411688  41.450  13.864   9.302
  614POPC   GL111689  41.501  13.547   9.045
  614POPC   GL211690  41.780  13.394   9.113
  614POPC   C1A11691  41.668  13.678   8.654
  614POPC   D2A11692  41.919  13.744   8.321
  614POPC   C3A11693  41.726  13.698   7.965
  614POPC   C4A11694  41.782  13.888   7.625
  614POPC   C1B11695  41.747  13.182   8.726
  614POPC   C2B11696  41.726  13.261   8.293
  614POPC   C3B11697  41.604  13.203   7.871
  614POPC   C4B11698  41.721  13.400   7.463
  615POPC   NC311699  41.344  28.146   9.371
  615POPC   PO411700  40.702  28.422   9.571
  615POPC   GL111701  40.664  28.424   9.158
  615POPC   GL211702  41.000  28.428   8.986
  615POPC   C1A11703  40.513  28.324   8.771
  615POPC   D2A11704  40.687  28.514   8.437
  615POPC   C3A11705  40.528  28.376   8.067
  615POPC   C4A11706  40.771  28.375   7.717
  615POPC   C1B11707  41.187  28.324   8.561
  615POPC   C2B11708  41.066  28.307   8.139
  615POPC   C3B11709  41.158  28.661   7.916
  615POPC   C4B11710  41.082  28.802   7.545
  616POPC   NC311711   0.121  27.304   9.396
  616POPC   PO411712  44.436  27.578   9.549
  616POPC   GL111713  44.713  27.550   9.184
  616POPC   GL211714   0.016  27.752   9.158
  616POPC   C1A11715  44.723  27.488   8.751
  616POPC   D2A11716  44.613  27.693   8.380
  616POPC   C3A11717  44.701  27.419   8.038
  616POPC   C4A11718  44.850  27.433   7.648
  616POPC   C1B11719  44.913  27.958   8.785
  616POPC   C2B11720   0.089  27.943   8.372
  616POPC   C3B11721  44.869  27.915   7.996
  616POPC   C4B11722  44.944  27.909   7.592
  617POPC   NC311723  17.663  15.469   9.606
  617POPC   PO411724  17.132  15.146   9.279
  617POPC   GL111725  17.453  15.080   9.021
  617POPC   GL211726  17.691  15.317   9.095
  617POPC   C1A11727  17.439  15.046   8.584
  617POPC   D2A11728  17.642  15.138   8.206
  617POPC   C3A11729  17.278  15.171   7.995
  617POPC   C4A11730  17.029  14.992   7.698
  617POPC   C1B11731  17.746  15.460   8.658
  617POPC   C2B11732  17.455  15.599   8.318
  617POPC   C3B11733  17.391  15.645   7.858
  617POPC   C4B11734  17.421  15.337   7.530
  618POPC   NC311735  40.482  14.838   9.777
  618POPC   PO411736  40.636  14.270   9.383
  618POPC   GL111737  40.780  14.453   9.057
  618POPC   GL211738  40.971  14.703   9.239
  618POPC   C1A11739  40.657  14.520   8.624
  618POPC   D2A11740  40.699  14.657   8.176
  618POPC   C3A11741  40.733  14.323   7.826
  618POPC   C4A11742  40.770  14.260   7.336
  618POPC   C1B11743  41.138  14.719   8.804
  618POPC   C2B11744  41.267  14.687   8.364
  618POPC   C3B11745  41.166  14.556   7.943
  618POPC   C4B11746  40.975  14.705   7.529
  619POPC   NC311747  26.251   6.516   9.399
  619POPC   PO411748  25.684   6.536   9.547
  619POPC   GL111749  25.819   6.388   9.143
  619POPC   GL211750  25.983   6.717   9.020
  619POPC   C1A11751  25.703   6.459   8.708
  619POPC   D2A11752  25.951   6.726   8.434
  619POPC   C3A11753  25.765   6.619   8.059
  619POPC   C4A11754  25.786   6.749   7.670
  619POPC   C1B11755  26.363   6.615   8.747
  619POPC   C2B11756  26.508   6.814   8.354
  619POPC   C3B11757  26.271   6.748   7.959
  619POPC   C4B11758  26.261   6.581   7.520
  620POPC   NC311759   0.625  42.613   9.443
  620POPC   PO411760   0.130  42.071   9.460
  620POPC   GL111761   0.130  42.257   9.084
  620POPC   GL211762   0.494  42.265   9.091
  620POPC   C1A11763   0.185  42.423   8.689
  620POPC   D2A11764   0.422  42.353   8.339
  620POPC   C3A11765   0.186  42.338   7.993
  620POPC   C4A11766   0.256  42.487   7.608
  620POPC   C1B11767   0.713  42.505   8.749
  620POPC   C2B11768   0.725  42.753   8.346
  620POPC   C3B11769   0.712  42.534   7.933
  620POPC   C4B11770   0.649  42.146   7.792
  621POPC   NC311771  28.895   1.947   9.438
  621POPC   PO411772  29.536   2.229   9.461
  621POPC   GL111773  29.334   2.019   9.151
  621POPC   GL211774  29.478   1.698   9.022
  621POPC   C1A11775  29.108   2.140   8.789
  621POPC   D2A11776  29.044   1.973   8.401
  621POPC   C3A11777  28.899   2.225   8.083
  621POPC   C4A11778  28.964   2.297   7.673
  621POPC   C1B11779  29.082   1.627   8.809
  621POPC   C2B11780  29.036   1.472   8.404
  621POPC   C3B11781  29.162   1.657   8.004
  621POPC   C4B11782  29.074   1.554   7.579
  622POPC   NC311783   9.442  10.519   9.647
  622POPC   PO411784   8.870  10.832   9.434
  622POPC   GL111785   9.025  10.745   9.086
  622POPC   GL211786   9.030  10.389   9.190
  622POPC   C1A11787   8.846  10.761   8.684
  622POPC   D2A11788   8.832  10.508   8.326
  622POPC   C3A11789   8.874  10.785   8.002
  622POPC   C4A11790   8.681  10.868   7.659
  622POPC   C1B11791   9.116  10.345   8.759
  622POPC   C2B11792   9.364  10.498   8.408
  622POPC   C3B11793   9.237  10.425   7.997
  622POPC   C4B11794   8.845  10.232   7.856
  623POPC   NC311795  27.391  18.878   9.359
  623POPC   PO411796  27.889  19.295   9.559
  623POPC   GL111797  27.797  19.512   9.145
  623POPC   GL211798  27.481  19.330   9.091
  623POPC   C1A11799  27.798  19.411   8.699
  623POPC   D2A11800  27.943  19.085   8.416
  623POPC   C3A11801  27.810  19.181   8.005
  623POPC   C4A11802  27.601  19.341   7.628
  623POPC   C1B11803  27.521  18.982   8.749
  623POPC   C2B11804  27.468  18.853   8.328
  623POPC   C3B11805  27.334  19.037   7.971
  623POPC   C4B11806  27.478  18.847   7.649
  624POPC   NC311807  44.220  43.581   9.588
  624POPC   PO411808  43.751  44.080   9.533
  624POPC   GL111809  43.774  43.918   9.141
  624POPC   GL211810  43.932  43.609   9.176
  624POPC   C1A11811  43.645  43.899   8.708
  624POPC   D2A11812  43.559  43.708   8.303
  624POPC   C3A11813  43.558  43.863   7.869
  624POPC   C4A11814  43.525  43.680   7.438
  624POPC   C1B11815  44.147  43.780   8.831
  624POPC   C2B11816  44.064  43.852   8.431
  624POPC   C3B11817  44.013  43.624   8.056
  624POPC   C4B11818  44.019  43.738   7.642
  625POPC   NC311819  37.773   4.755   9.565
  625POPC   PO411820  37.786   5.340   9.771
  625POPC   GL111821  37.736   5.308   9.319
  625POPC   GL211822  37.517   5.006   9.188
  625POPC   C1A11823  37.807   5.302   8.878
  625POPC   D2A11824  38.005   5.040   8.596
  625POPC   C3A11825  37.861   5.058   8.181
  625POPC   C4A11826  37.990   5.038   7.783
  625POPC   C1B11827  37.436   4.891   8.732
  625POPC   C2B11828  37.524   4.680   8.304
  625POPC   C3B11829  37.517   4.818   7.844
  625POPC   C4B11830  37.409   4.646   7.412
  626POPC   NC311831   1.636  18.606   9.462
  626POPC   PO411832   2.268  18.546   9.467
  626POPC   GL111833   2.152  18.210   9.176
  626POPC   GL211834   1.796  18.153   9.195
  626POPC   C1A11835   2.052  18.053   8.758
  626POPC   D2A11836   2.083  18.258   8.372
  626POPC   C3A11837   2.103  18.100   7.970
  626POPC   C4A11838   2.309  18.352   7.693
  626POPC   C1B11839   1.666  18.417   8.830
  626POPC   C2B11840   1.677  18.559   8.398
  626POPC   C3B11841   1.641  18.278   8.026
  626POPC   C4B11842   1.825  18.225   7.564
  627POPC   NC311843   4.539   8.739   9.510
  627POPC   PO411844   5.187   8.862   9.461
  627POPC   GL111845   5.214   8.883   9.059
  627POPC   GL211846   5.471   8.608   9.016
  627POPC   C1A11847   5.181   9.149   8.692
  627POPC   D2A11848   5.512   9.204   8.361
  627POPC   C3A11849   5.357   9.235   7.914
  627POPC   C4A11850   5.023   9.025   7.649
  627POPC   C1B11851   5.398   8.689   8.612
  627POPC   C2B11852   5.187   8.830   8.233
  627POPC   C3B11853   5.365   8.704   7.847
  627POPC   C4B11854   5.499   8.513   7.478
  628POPC   NC311855  43.190  31.119   9.511
  628POPC   PO411856  42.780  30.595   9.540
  628POPC   GL111857  42.975  30.763   9.153
  628POPC   GL211858  43.328  30.836   9.115
  628POPC   C1A11859  42.966  30.778   8.707
  628POPC   D2A11860  42.860  30.550   8.346
  628POPC   C3A11861  43.061  30.719   7.976
  628POPC   C4A11862  42.986  31.110   7.801
  628POPC   C1B11863  43.384  30.521   8.801
  628POPC   C2B11864  43.385  30.676   8.421
  628POPC   C3B11865  43.556  30.839   8.090
  628POPC   C4B11866  43.550  30.528   7.791
  629POPC   NC311867  41.296   4.335   9.471
  629POPC   PO411868  40.598   4.533   9.539
  629POPC   GL111869  40.837   4.449   9.244
  629POPC   GL211870  40.866   4.089   9.318
  629POPC   C1A11871  40.866   4.627   8.848
  629POPC   D2A11872  41.085   4.821   8.498
  629POPC   C3A11873  40.992   4.620   8.104
  629POPC   C4A11874  41.184   4.458   7.749
  629POPC   C1B11875  40.745   4.068   8.884
  629POPC   C2B11876  40.773   3.889   8.468
  629POPC   C3B11877  41.007   3.996   8.085
  629POPC   C4B11878  40.879   4.067   7.670
  630POPC   NC311879  19.531  36.038  10.176
  630POPC   PO411880  19.973  35.999   9.601
  630POPC   GL111881  19.840  36.235   9.247
  630POPC   GL211882  19.521  36.156   9.129
  630POPC   C1A11883  19.971  36.120   8.830
  630POPC   D2A11884  20.235  35.967   8.495
  630POPC   C3A11885  20.067  35.968   8.087
  630POPC   C4A11886  20.094  36.347   7.891
  630POPC   C1B11887  19.590  36.440   8.782
  630POPC   C2B11888  19.822  36.381   8.372
  630POPC   C3B11889  19.614  36.236   7.981
  630POPC   C4B11890  19.376  36.141   7.592
  631POPC   NC311891   1.214  38.789   9.410
  631POPC   PO411892   1.100  39.443   9.479
  631POPC   GL111893   1.313  39.401   9.081
  631POPC   GL211894   1.390  39.079   9.045
  631POPC   C1A11895   1.199  39.282   8.643
  631POPC   D2A11896   0.958  38.985   8.411
  631POPC   C3A11897   1.104  39.157   8.053
  631POPC   C4A11898   1.305  39.437   7.770
  631POPC   C1B11899   1.592  38.916   8.704
  631POPC   C2B11900   1.429  38.800   8.287
  631POPC   C3B11901   1.472  38.869   7.827
  631POPC   C4B11902   1.569  38.625   7.447
  632POPC   NC311903  36.364  44.417   9.407
  632POPC   PO411904  35.803  44.838   9.432
  632POPC   GL111905  36.098  44.778   9.133
  632POPC   GL211906  36.072  44.426   9.006
  632POPC   C1A11907  36.211  44.850   8.717
  632POPC   D2A11908  36.187  44.642   8.323
  632POPC   C3A11909  35.854  44.853   8.073
  632POPC   C4A11910  35.727  44.969   7.642
  632POPC   C1B11911  36.288  44.185   8.725
  632POPC   C2B11912  36.076  44.075   8.349
  632POPC   C3B11913  35.930  44.319   8.036
  632POPC   C4B11914  36.121  44.602   7.726
  633POPC   NC311915  36.720  18.552   9.336
  633POPC   PO411916  37.052  18.012   9.458
  633POPC   GL111917  37.016  18.202   9.056
  633POPC   GL211918  37.127  18.555   9.005
  633POPC   C1A11919  37.075  18.164   8.624
  633POPC   D2A11920  36.860  18.050   8.266
  633POPC   C3A11921  36.977  18.279   7.883
  633POPC   C4A11922  36.724  18.303   7.523
  633POPC   C1B11923  36.809  18.602   8.677
  633POPC   C2B11924  36.739  18.576   8.242
  633POPC   C3B11925  36.699  18.706   7.835
  633POPC   C4B11926  37.102  18.721   7.605
  634POPC   NC311927  22.241  18.526   9.602
  634POPC   PO411928  21.841  17.942   9.444
  634POPC   GL111929  21.971  18.075   9.065
  634POPC   GL211930  22.106  18.370   9.115
  634POPC   C1A11931  21.804  18.247   8.693
  634POPC   D2A11932  22.002  18.222   8.310
  634POPC   C3A11933  22.219  18.024   8.030
  634POPC   C4A11934  22.079  18.228   7.669
  634POPC   C1B11935  22.219  18.517   8.703
  634POPC   C2B11936  22.457  18.432   8.357
  634POPC   C3B11937  22.328  18.549   7.959
  634POPC   C4B11938  22.500  18.730   7.584
  635POPC   NC311939   1.062   7.961   9.364
  635POPC   PO411940   1.502   8.514   9.481
  635POPC   GL111941   1.419   8.238   9.136
  635POPC   GL211942   1.134   8.398   9.048
  635POPC   C1A11943   1.264   8.063   8.703
  635POPC   D2A11944   1.018   7.880   8.330
  635POPC   C3A11945   1.252   7.969   7.929
  635POPC   C4A11946   1.537   7.734   7.691
  635POPC   C1B11947   0.860   8.428   8.675
  635POPC   C2B11948   0.739   8.314   8.237
  635POPC   C3B11949   0.983   8.404   7.857
  635POPC   C4B11950   1.375   8.417   7.619
  636POPC   NC311951  13.997  14.094   9.450
  636POPC   PO411952  14.614  14.369   9.704
  636POPC   GL111953  14.530  14.410   9.241
  636POPC   GL211954  14.164  14.430   9.111
  636POPC   C1A11955  14.533  14.291   8.777
  636POPC   D2A11956  14.736  14.313   8.396
  636POPC   C3A11957  14.603  14.127   8.027
  636POPC   C4A11958  14.427  14.347   7.698
  636POPC   C1B11959  14.029  14.416   8.701
  636POPC   C2B11960  14.148  14.306   8.284
  636POPC   C3B11961  13.976  14.462   7.879
  636POPC   C4B11962  14.045  14.439   7.393
  637POPC   NC311963  39.010  26.668   9.630
  637POPC   PO411964  39.535  27.085   9.499
  637POPC   GL111965  39.244  26.963   9.191
  637POPC   GL211966  39.275  26.587   9.212
  637POPC   C1A11967  39.224  27.126   8.750
  637POPC   D2A11968  39.373  27.097   8.305
  637POPC   C3A11969  39.146  26.888   7.984
  637POPC   C4A11970  38.807  26.674   7.800
  637POPC   C1B11971  39.355  26.647   8.802
  637POPC   C2B11972  39.234  26.596   8.403
  637POPC   C3B11973  39.558  26.552   8.124
  637POPC   C4B11974  39.573  26.429   7.696
  638POPC   NC311975  44.727  26.466   9.644
  638POPC   PO411976  44.708  27.141   9.522
  638POPC   GL111977  44.632  26.871   9.185
  638POPC   GL211978  44.849  27.075   9.031
  638POPC   C1A11979  44.679  26.689   8.746
  638POPC   D2A11980  44.477  26.710   8.347
  638POPC   C3A11981  44.527  26.925   7.962
  638POPC   C4A11982  44.630  26.608   7.704
  638POPC   C1B11983   0.089  27.064   8.730
  638POPC   C2B11984   0.003  26.916   8.350
  638POPC   C3B11985   0.028  27.030   7.954
  638POPC   C4B11986  44.942  26.956   7.537
  639POPC   NC311987  18.072  43.799   9.535
  639POPC   PO411988  18.709  43.658   9.401
  639POPC   GL111989  18.375  43.925   9.145
  639POPC   GL211990  18.013  44.147   9.142
  639POPC   C1A11991  18.403  44.134   8.783
  639POPC   D2A11992  18.159  44.174   8.409
  639POPC   C3A11993  18.390  44.069   8.054
  639POPC   C4A11994  18.418  43.840   7.667
  639POPC   C1B11995  17.941  43.898   8.818
  639POPC   C2B11996  17.725  43.913   8.460
  639POPC   C3B11997  17.932  43.813   8.087
  639POPC   C4B11998  17.932  44.029   7.747
  640POPC   NC311999   3.579  31.068   9.388
  640POPC   PO412000   4.135  30.960   9.664
  640POPC   GL112001   3.902  30.722   9.212
  640POPC   GL212002   3.504  30.609   9.173
  640POPC   C1A12003   3.728  30.613   8.724
  640POPC   D2A12004   3.611  30.733   8.259
  640POPC   C3A12005   3.614  30.517   7.839
  640POPC   C4A12006   3.733  30.721   7.431
  640POPC   C1B12007   3.279  30.867   8.812
  640POPC   C2B12008   3.228  31.056   8.384
  640POPC   C3B12009   3.082  30.875   7.972
  640POPC   C4B12010   3.207  30.664   7.542
  641POPC   NC312011  24.562  41.170   9.490
  641POPC   PO412012  24.181  41.748   9.505
  641POPC   GL112013  24.458  41.815   9.131
  641POPC   GL212014  24.619  41.513   9.096
  641POPC   C1A12015  24.361  41.913   8.683
  641POPC   D2A12016  24.173  41.698   8.321
  641POPC   C3A12017  24.323  41.801   7.925
  641POPC   C4A12018  24.273  41.456   7.640
  641POPC   C1B12019  24.843  41.757   8.766
  641POPC   C2B12020  24.714  41.714   8.303
  641POPC   C3B12021  24.502  41.344   8.077
  641POPC   C4B12022  24.648  41.115   7.685
  642POPC   NC312023   4.047   8.237   9.404
  642POPC   PO412024   4.748   8.300   9.464
  642POPC   GL112025   4.464   8.404   9.135
  642POPC   GL212026   4.411   8.065   9.071
  642POPC   C1A12027   4.215   8.444   8.750
  642POPC   D2A12028   4.230   8.169   8.377
  642POPC   C3A12029   4.323   8.326   7.975
  642POPC   C4A12030   4.525   8.253   7.525
  642POPC   C1B12031   4.027   7.971   8.814
  642POPC   C2B12032   3.771   7.959   8.453
  642POPC   C3B12033   3.900   7.907   8.043
  642POPC   C4B12034   4.159   7.934   7.715
  643POPC   NC312035  25.874  34.701   9.583
  643POPC   PO412036  26.345  34.247   9.445
  643POPC   GL112037  26.008  34.459   9.114
  643POPC   GL212038  25.860  34.827   9.090
  643POPC   C1A12039  26.061  34.646   8.663
  643POPC   D2A12040  26.335  34.868   8.364
  643POPC   C3A12041  26.286  34.840   7.921
  643POPC   C4A12042  26.109  34.532   7.654
  643POPC   C1B12043  25.772  35.067   8.675
  643POPC   C2B12044  25.870  35.060   8.206
  643POPC   C3B12045  25.839  34.976   7.746
  643POPC   C4B12046  25.995  34.894   7.296
  644POPC   NC312047  23.918  13.886   9.280
  644POPC   PO412048  23.424  14.279   9.504
  644POPC   GL112049  23.505  14.184   9.104
  644POPC   GL212050  23.772  14.420   9.024
  644POPC   C1A12051  23.409  14.361   8.695
  644POPC   D2A12052  23.611  14.578   8.357
  644POPC   C3A12053  23.546  14.384   7.971
  644POPC   C4A12054  23.604  14.156   7.576
  644POPC   C1B12055  24.103  14.629   8.789
  644POPC   C2B12056  24.087  14.828   8.413
  644POPC   C3B12057  24.007  14.683   8.017
  644POPC   C4B12058  23.861  14.598   7.640
  645POPC   NC312059  25.777  35.719   9.453
  645POPC   PO412060  25.601  35.064   9.521
  645POPC   GL112061  25.700  35.308   9.140
  645POPC   GL212062  26.043  35.305   9.222
  645POPC   C1A12063  25.939  35.554   8.780
  645POPC   D2A12064  25.806  35.607   8.332
  645POPC   C3A12065  25.996  35.480   7.909
  645POPC   C4A12066  25.943  35.410   7.436
  645POPC   C1B12067  26.243  35.149   8.822
  645POPC   C2B12068  26.263  35.374   8.400
  645POPC   C3B12069  26.473  35.301   7.997
  645POPC   C4B12070  26.378  35.164   7.541
  646POPC   NC312071  30.249  30.524   9.571
  646POPC   PO412072  30.082  31.155   9.381
  646POPC   GL112073  30.156  30.804   9.141
  646POPC   GL212074  29.886  30.573   9.152
  646POPC   C1A12075  30.207  30.637   8.741
  646POPC   D2A12076  30.028  30.605   8.339
  646POPC   C3A12077  30.146  30.877   8.013
  646POPC   C4A12078  30.138  30.641   7.631
  646POPC   C1B12079  29.685  30.639   8.727
  646POPC   C2B12080  29.596  30.894   8.344
  646POPC   C3B12081  29.671  30.746   7.904
  646POPC   C4B12082  29.727  30.850   7.454
  647POPC   NC312083  18.686   3.139   9.333
  647POPC   PO412084  17.972   3.130   9.295
  647POPC   GL112085  18.276   2.950   9.005
  647POPC   GL212086  18.518   2.680   9.102
  647POPC   C1A12087  18.590   3.022   8.677
  647POPC   D2A12088  18.765   2.910   8.289
  647POPC   C3A12089  18.638   3.066   7.880
  647POPC   C4A12090  18.296   3.034   7.593
  647POPC   C1B12091  18.413   2.542   8.702
  647POPC   C2B12092  18.169   2.778   8.406
  647POPC   C3B12093  18.263   2.712   7.984
  647POPC   C4B12094  18.365   2.312   7.805
  648POPC   NC312095  36.371  26.999   9.423
  648POPC   PO412096  37.060  26.908   9.408
  648POPC   GL112097  36.779  27.027   9.115
  648POPC   GL212098  36.637  26.712   9.082
  648POPC   C1A12099  36.727  27.063   8.682
  648POPC   D2A12100  36.960  26.941   8.356
  648POPC   C3A12101  36.806  26.922   7.927
  648POPC   C4A12102  37.178  26.850   7.688
  648POPC   C1B12103  36.977  26.614   8.817
  648POPC   C2B12104  37.110  26.415   8.456
  648POPC   C3B12105  37.066  26.509   8.081
  648POPC   C4B12106  36.956  26.413   7.694
  649POPC   NC312107  21.322   6.411   9.242
  649POPC   PO412108  21.604   7.015   9.421
  649POPC   GL112109  21.688   6.734   9.062
  649POPC   GL212110  21.371   6.837   8.935
  649POPC   C1A12111  21.633   6.502   8.641
  649POPC   D2A12112  21.433   6.649   8.227
  649POPC   C3A12113  21.517   6.452   7.830
  649POPC   C4A12114  21.245   6.313   7.489
  649POPC   C1B12115  21.080   6.656   8.626
  649POPC   C2B12116  20.890   6.561   8.206
  649POPC   C3B12117  21.067   6.706   7.829
  649POPC   C4B12118  21.416   6.919   7.638
  650POPC   NC312119   8.948  31.668   9.555
  650POPC   PO412120   8.959  30.976   9.642
  650POPC   GL112121   8.999  31.307   9.193
  650POPC   GL212122   9.095  31.675   9.086
  650POPC   C1A12123   8.824  31.410   8.750
  650POPC   D2A12124   8.957  31.368   8.318
  650POPC   C3A12125   8.719  31.415   7.943
  650POPC   C4A12126   8.796  31.328   7.490
  650POPC   C1B12127   9.360  31.505   8.780
  650POPC   C2B12128   9.469  31.532   8.375
  650POPC   C3B12129   9.369  31.406   8.012
  650POPC   C4B12130   9.249  31.541   7.616
  651POPC   NC312131   2.912  26.367   9.345
  651POPC   PO412132   2.523  26.793   9.769
  651POPC   GL112133   2.637  26.785   9.250
  651POPC   GL212134   2.659  26.566   8.960
  651POPC   C1A12135   2.697  27.065   8.866
  651POPC   D2A12136   2.849  26.930   8.460
  651POPC   C3A12137   2.602  26.967   8.104
  651POPC   C4A12138   2.666  26.861   7.684
  651POPC   C1B12139   3.070  26.549   8.730
  651POPC   C2B12140   3.181  26.232   8.427
  651POPC   C3B12141   3.302  26.274   8.009
  651POPC   C4B12142   3.128  26.314   7.595
  652POPC   NC312143   6.869  40.413   9.488
  652POPC   PO412144   6.417  40.944   9.394
  652POPC   GL112145   6.649  40.704   9.132
  652POPC   GL212146   6.433  40.437   9.090
  652POPC   C1A12147   6.882  40.606   8.776
  652POPC   D2A12148   6.941  40.883   8.421
  652POPC   C3A12149   6.826  40.716   8.021
  652POPC   C4A12150   6.798  40.793   7.572
  652POPC   C1B12151   6.326  40.594   8.690
  652POPC   C2B12152   6.369  40.635   8.238
  652POPC   C3B12153   6.376  40.558   7.787
  652POPC   C4B12154   6.345  40.737   7.388
  653POPC   NC312155   9.849   7.669   9.783
  653POPC   PO412156   9.783   7.082   9.499
  653POPC   GL112157   9.724   7.317   9.085
  653POPC   GL212158   9.440   7.489   8.961
  653POPC   C1A12159   9.845   7.236   8.666
  653POPC   D2A12160   9.814   7.003   8.307
  653POPC   C3A12161   9.565   7.225   8.022
  653POPC   C4A12162   9.724   7.419   7.737
  653POPC   C1B12163   9.695   7.724   8.695
  653POPC   C2B12164   9.798   7.620   8.293
  653POPC   C3B12165   9.780   7.870   7.958
  653POPC   C4B12166   9.527   7.853   7.582
  654POPC   NC312167  20.645  35.011   9.404
  654POPC   PO412168  20.391  34.415   9.646
  654POPC   GL112169  20.583  34.520   9.249
  654POPC   GL212170  20.274  34.685   9.206
  654POPC   C1A12171  20.806  34.566   8.814
  654POPC   D2A12172  20.979  34.435   8.386
  654POPC   C3A12173  20.797  34.457   7.946
  654POPC   C4A12174  20.880  34.591   7.513
  654POPC   C1B12175  20.315  34.729   8.785
  654POPC   C2B12176  20.491  34.641   8.389
  654POPC   C3B12177  20.471  34.834   7.996
  654POPC   C4B12178  20.380  34.590   7.625
  655POPC   NC312179  23.688  15.575   9.459
  655POPC   PO412180  23.938  16.187   9.502
  655POPC   GL112181  23.719  16.070   9.126
  655POPC   GL212182  23.480  15.804   9.027
  655POPC   C1A12183  23.568  16.231   8.761
  655POPC   D2A12184  23.348  16.006   8.462
  655POPC   C3A12185  23.535  16.005   8.030
  655POPC   C4A12186  23.760  16.302   7.732
  655POPC   C1B12187  23.807  15.751   8.723
  655POPC   C2B12188  23.888  15.671   8.303
  655POPC   C3B12189  24.039  15.483   7.929
  655POPC   C4B12190  23.924  15.808   7.604
  656POPC   NC312191  11.261  19.866   9.601
  656POPC   PO412192  11.622  19.401   9.268
  656POPC   GL112193  11.461  19.791   9.125
  656POPC   GL212194  11.117  19.890   9.098
  656POPC   C1A12195  11.498  20.077   8.789
  656POPC   D2A12196  11.543  19.965   8.401
  656POPC   C3A12197  11.192  20.051   8.162
  656POPC   C4A12198  11.123  19.786   7.819
  656POPC   C1B12199  11.035  19.867   8.666
  656POPC   C2B12200  11.077  19.586   8.332
  656POPC   C3B12201  11.227  19.306   8.041
  656POPC   C4B12202  11.104  19.330   7.621
  657POPC   NC312203   8.689  29.865   9.516
  657POPC   PO412204   9.240  30.250   9.593
  657POPC   GL112205   9.174  30.257   9.129
  657POPC   GL212206   8.877  30.114   9.105
  657POPC   C1A12207   9.242  30.059   8.732
  657POPC   D2A12208   9.101  29.725   8.475
  657POPC   C3A12209   9.261  29.665   8.094
  657POPC   C4A12210   9.387  30.086   7.970
  657POPC   C1B12211   8.696  30.096   8.698
  657POPC   C2B12212   8.635  29.861   8.306
  657POPC   C3B12213   8.862  29.923   7.917
  657POPC   C4B12214   8.599  30.163   7.724
  658POPC   NC312215  36.595   7.711   9.378
  658POPC   PO412216  37.136   7.297   9.505
  658POPC   GL112217  36.989   7.440   9.145
  658POPC   GL212218  37.152   7.751   9.108
  658POPC   C1A12219  36.958   7.249   8.737
  658POPC   D2A12220  37.100   7.238   8.341
  658POPC   C3A12221  36.747   7.306   8.049
  658POPC   C4A12222  36.982   7.280   7.698
  658POPC   C1B12223  36.911   7.783   8.787
  658POPC   C2B12224  36.773   7.647   8.450
  658POPC   C3B12225  37.036   7.724   8.146
  658POPC   C4B12226  37.071   7.781   7.734
  659POPC   NC312227   1.338  12.695   9.481
  659POPC   PO412228   0.981  12.229   9.786
  659POPC   GL112229   0.974  12.306   9.231
  659POPC   GL212230   1.179  12.632   9.008
  659POPC   C1A12231   0.803  12.406   8.786
  659POPC   D2A12232   1.010  12.689   8.510
  659POPC   C3A12233   0.994  12.577   8.095
  659POPC   C4A12234   1.062  12.866   7.801
  659POPC   C1B12235   1.435  12.931   8.693
  659POPC   C2B12236   1.411  13.172   8.319
  659POPC   C3B12237   1.470  13.158   7.893
  659POPC   C4B12238   1.555  12.756   7.765
  660POPC   NC312239  15.272  39.276   9.539
  660POPC   PO412240  14.809  38.869   9.567
  660POPC   GL112241  14.923  39.120   9.191
  660POPC   GL212242  14.838  39.480   9.240
  660POPC   C1A12243  15.294  39.162   8.905
  660POPC   D2A12244  15.415  38.957   8.477
  660POPC   C3A12245  15.593  39.259   8.153
  660POPC   C4A12246  15.375  39.523   7.800
  660POPC   C1B12247  14.835  39.456   8.801
  660POPC   C2B12248  15.030  39.279   8.474
  660POPC   C3B12249  15.113  39.129   8.062
  660POPC   C4B12250  14.948  39.265   7.683
  661POPC   NC312251  34.710   3.630   9.499
  661POPC   PO412252  34.068   3.355   9.759
  661POPC   GL112253  34.251   3.494   9.310
  661POPC   GL212254  34.387   3.809   9.133
  661POPC   C1A12255  34.229   3.449   8.836
  661POPC   D2A12256  34.551   3.508   8.530
  661POPC   C3A12257  34.575   3.271   8.145
  661POPC   C4A12258  34.524   3.408   7.732
  661POPC   C1B12259  34.762   3.873   8.879
  661POPC   C2B12260  34.705   4.002   8.470
  661POPC   C3B12261  34.683   3.779   8.109
  661POPC   C4B12262  34.801   3.815   7.721
  662POPC   NC312263  23.803  30.824   9.513
  662POPC   PO412264  24.154  30.280   9.235
  662POPC   GL112265  23.829  30.578   9.068
  662POPC   GL212266  23.925  30.958   9.037
  662POPC   C1A12267  23.487  30.814   8.855
  662POPC   D2A12268  23.431  30.924   8.446
  662POPC   C3A12269  23.709  30.761   8.138
  662POPC   C4A12270  23.555  30.689   7.731
  662POPC   C1B12271  23.958  30.825   8.619
  662POPC   C2B12272  24.213  30.913   8.273
  662POPC   C3B12273  24.234  30.847   7.854
  662POPC   C4B12274  24.028  30.588   7.570
  663POPC   NC312275  11.647  17.344   9.544
  663POPC   PO412276  11.013  17.668   9.486
  663POPC   GL112277  11.308  17.570   9.177
  663POPC   GL212278  11.559  17.805   9.263
  663POPC   C1A12279  11.341  17.418   8.750
  663POPC   D2A12280  11.567  17.460   8.334
  663POPC   C3A12281  11.320  17.368   7.944
  663POPC   C4A12282  11.403  17.117   7.556
  663POPC   C1B12283  11.584  17.876   8.811
  663POPC   C2B12284  11.749  17.949   8.377
  663POPC   C3B12285  11.488  17.884   8.006
  663POPC   C4B12286  11.504  17.933   7.524
  664POPC   NC312287  35.099  18.060   9.641
  664POPC   PO412288  35.636  17.600   9.607
  664POPC   GL112289  35.431  17.387   9.245
  664POPC   GL212290  35.193  17.641   9.278
  664POPC   C1A12291  35.403  17.292   8.826
  664POPC   D2A12292  35.591  17.531   8.481
  664POPC   C3A12293  35.413  17.372   8.104
  664POPC   C4A12294  35.564  17.329   7.698
  664POPC   C1B12295  35.267  17.812   8.866
  664POPC   C2B12296  35.310  17.964   8.440
  664POPC   C3B12297  35.488  17.886   8.045
  664POPC   C4B12298  35.217  17.936   7.683
  665POPC   NC312299   6.968   7.679   9.582
  665POPC   PO412300   6.694   8.224   9.489
  665POPC   GL112301   6.578   8.290   9.077
  665POPC   GL212302   6.885   8.490   8.974
  665POPC   C1A12303   6.323   8.301   8.703
  665POPC   D2A12304   6.422   8.497   8.304
  665POPC   C3A12305   6.386   8.206   7.947
  665POPC   C4A12306   6.425   8.227   7.503
  665POPC   C1B12307   6.830   8.237   8.606
  665POPC   C2B12308   6.860   8.241   8.163
  665POPC   C3B12309   6.890   8.213   7.731
  665POPC   C4B12310   7.173   8.058   7.422
  666POPC   NC312311  42.345   0.897   9.493
  666POPC   PO412312  42.685   0.233   9.602
  666POPC   GL112313  42.456   0.423   9.228
  666POPC   GL212314  42.591   0.732   9.092
  666POPC   C1A12315  42.168   0.485   8.853
  666POPC   D2A12316  42.207   0.260   8.439
  666POPC   C3A12317  42.216   0.435   8.027
  666POPC   C4A12318  41.952   0.221   7.805
  666POPC   C1B12319  42.642   0.573   8.708
  666POPC   C2B12320  42.612   0.564   8.314
  666POPC   C3B12321  42.751   0.560   7.924
  666POPC   C4B12322  42.782   0.597   7.505
  667POPC   NC312323  25.657  17.401   9.304
  667POPC   PO412324  25.181  17.813   9.555
  667POPC   GL112325  25.188  17.619   9.147
  667POPC   GL212326  25.061  17.286   9.247
  667POPC   C1A12327  25.270  17.654   8.675
  667POPC   D2A12328  24.947  17.589   8.363
  667POPC   C3A12329  25.073  17.558   7.969
  667POPC   C4A12330  25.487  17.548   7.819
  667POPC   C1B12331  25.172  17.194   8.815
  667POPC   C2B12332  25.232  17.176   8.349
  667POPC   C3B12333  25.286  17.091   7.904
  667POPC   C4B12334  24.934  17.134   7.627
  668POPC   NC312335   7.872  11.656   9.961
  668POPC   PO412336   7.514  11.218   9.516
  668POPC   GL112337   7.440  11.178   9.086
  668POPC   GL212338   7.425  10.853   9.073
  668POPC   C1A12339   7.175  11.104   8.704
  668POPC   D2A12340   6.981  11.035   8.308
  668POPC   C3A12341   7.177  11.293   8.023
  668POPC   C4A12342   7.326  11.485   7.663
  668POPC   C1B12343   7.634  10.877   8.695
  668POPC   C2B12344   7.576  11.145   8.331
  668POPC   C3B12345   7.628  11.091   7.870
  668POPC   C4B12346   7.781  11.044   7.444
  669POPC   NC312347  32.381   1.668   9.410
  669POPC   PO412348  31.813   1.229   9.532
  669POPC   GL112349  31.961   1.397   9.135
  669POPC   GL212350  32.092   1.066   9.016
  669POPC   C1A12351  32.017   1.401   8.651
  669POPC   D2A12352  32.087   1.074   8.334
  669POPC   C3A12353  32.084   1.276   7.956
  669POPC   C4A12354  32.388   1.550   7.912
  669POPC   C1B12355  32.457   1.117   8.733
  669POPC   C2B12356  32.572   1.302   8.336
  669POPC   C3B12357  32.611   1.099   7.937
  669POPC   C4B12358  32.387   1.197   7.543
  670POPC   NC312359  33.071  32.641   9.799
  670POPC   PO412360  32.811  32.062   9.499
  670POPC   GL112361  32.884  31.970   9.079
  670POPC   GL212362  32.621  31.819   8.939
  670POPC   C1A12363  33.053  32.165   8.710
  670POPC   D2A12364  33.323  32.185   8.369
  670POPC   C3A12365  33.199  32.232   7.934
  670POPC   C4A12366  33.288  32.596   7.662
  670POPC   C1B12367  32.542  32.165   8.646
  670POPC   C2B12368  32.747  32.274   8.248
  670POPC   C3B12369  32.741  32.036   7.853
  670POPC   C4B12370  32.614  31.943   7.443
  671POPC   NC312371  26.024   3.660   9.593
  671POPC   PO412372  26.417   3.133   9.399
  671POPC   GL112373  26.020   3.365   9.165
  671POPC   GL212374  25.977   3.746   9.089
  671POPC   C1A12375  25.803   3.311   8.757
  671POPC   D2A12376  25.984   3.151   8.355
  671POPC   C3A12377  25.999   3.353   7.935
  671POPC   C4A12378  26.095   3.483   7.489
  671POPC   C1B12379  25.848   3.830   8.674
  671POPC   C2B12380  25.792   3.691   8.241
  671POPC   C3B12381  25.838   3.822   7.777
  671POPC   C4B12382  25.802   3.930   7.334
  672POPC   NC312383  27.446   9.101   9.614
  672POPC   PO412384  27.959   8.737   9.709
  672POPC   GL112385  27.862   9.075   9.291
  672POPC   GL212386  27.535   9.118   9.125
  672POPC   C1A12387  27.939   9.101   8.818
  672POPC   D2A12388  27.694   9.026   8.444
  672POPC   C3A12389  27.790   8.939   7.996
  672POPC   C4A12390  27.510   8.808   7.688
  672POPC   C1B12391  27.248   9.362   8.924
  672POPC   C2B12392  27.282   9.342   8.483
  672POPC   C3B12393  27.270   9.070   8.134
  672POPC   C4B12394  27.238   9.253   7.753
  673POPC   NC312395   7.349   0.128   9.494
  673POPC   PO412396   7.653   0.704   9.557
  673POPC   GL112397   7.420   0.768   9.151
  673POPC   GL212398   7.198   0.455   9.128
  673POPC   C1A12399   7.442   0.610   8.701
  673POPC   D2A12400   7.531   0.208   8.436
  673POPC   C3A12401   7.688   0.323   8.017
  673POPC   C4A12402   7.589   0.416   7.574
  673POPC   C1B12403   7.079   0.233   8.743
  673POPC   C2B12404   7.084   0.456   8.352
  673POPC   C3B12405   7.182   0.267   7.978
  673POPC   C4B12406   7.102   0.188   7.578
  674POPC   NC312407  35.588  32.754   9.393
  674POPC   PO412408  35.032  33.247   9.424
  674POPC   GL112409  35.287  33.081   9.105
  674POPC   GL212410  35.248  32.726   8.974
  674POPC   C1A12411  35.381  33.178   8.687
  674POPC   D2A12412  35.475  33.037   8.274
  674POPC   C3A12413  35.369  33.274   7.923
  674POPC   C4A12414  35.361  33.056   7.568
  674POPC   C1B12415  35.659  32.754   8.724
  674POPC   C2B12416  35.832  32.683   8.306
  674POPC   C3B12417  35.752  32.736   7.848
  674POPC   C4B12418  35.788  32.878   7.385
  675POPC   NC312419  17.628  11.775   9.421
  675POPC   PO412420  17.308  12.366   9.413
  675POPC   GL112421  17.654  12.320   9.132
  675POPC   GL212422  17.742  11.988   8.982
  675POPC   C1A12423  17.710  12.407   8.702
  675POPC   D2A12424  17.582  12.110   8.392
  675POPC   C3A12425  17.329  12.071   8.034
  675POPC   C4A12426  17.331  12.135   7.602
  675POPC   C1B12427  17.999  11.865   8.621
  675POPC   C2B12428  17.950  11.819   8.185
  675POPC   C3B12429  17.738  11.697   7.827
  675POPC   C4B12430  17.315  11.645   7.728
  676POPC   NC312431  17.275  33.549   9.409
  676POPC   PO412432  17.230  34.269   9.392
  676POPC   GL112433  17.280  33.967   9.084
  676POPC   GL212434  17.613  33.816   9.123
  676POPC   C1A12435  17.320  33.918   8.654
  676POPC   D2A12436  17.064  34.003   8.292
  676POPC   C3A12437  17.339  33.988   7.972
  676POPC   C4A12438  17.344  33.688   7.678
  676POPC   C1B12439  17.826  33.574   8.802
  676POPC   C2B12440  17.788  33.393   8.383
  676POPC   C3B12441  17.730  33.512   7.957
  676POPC   C4B12442  17.883  33.817   7.710
  677POPC   NC312443   8.341  30.434   9.513
  677POPC   PO412444   8.210  29.761   9.566
  677POPC   GL112445   8.081  29.872   9.191
  677POPC   GL212446   8.366  30.096   9.115
  677POPC   C1A12447   8.011  29.969   8.758
  677POPC   D2A12448   8.241  30.202   8.454
  677POPC   C3A12449   8.207  30.043   8.054
  677POPC   C4A12450   8.039  30.167   7.684
  677POPC   C1B12451   8.453  29.680   8.899
  677POPC   C2B12452   8.216  29.469   8.588
  677POPC   C3B12453   8.303  29.459   8.142
  677POPC   C4B12454   8.432  29.677   7.749
  678POPC   NC312455  41.520   0.256   9.390
  678POPC   PO412456  41.881   0.787   9.386
  678POPC   GL112457  41.694   0.615   9.049
  678POPC   GL212458  41.339   0.605   9.077
  678POPC   C1A12459  41.683   0.340   8.697
  678POPC   D2A12460  41.724   0.365   8.251
  678POPC   C3A12461  41.458   0.146   7.958
  678POPC   C4A12462  41.519   0.291   7.548
  678POPC   C1B12463  41.385   0.831   8.699
  678POPC   C2B12464  41.181   0.875   8.308
  678POPC   C3B12465  41.378   0.665   7.963
  678POPC   C4B12466  41.471   0.827   7.589
  679POPC   NC312467  24.422  13.393   9.557
  679POPC   PO412468  24.148  14.078   9.627
  679POPC   GL112469  24.399  13.813   9.224
  679POPC   GL212470  24.423  13.460   9.061
  679POPC   C1A12471  24.564  13.873   8.808
  679POPC   D2A12472  24.472  13.957   8.379
  679POPC   C3A12473  24.733  13.911   8.015
  679POPC   C4A12474  24.469  13.762   7.692
  679POPC   C1B12475  24.464  13.403   8.602
  679POPC   C2B12476  24.500  13.464   8.159
  679POPC   C3B12477  24.340  13.290   7.759
  679POPC   C4B12478  24.151  13.262   7.345
  680POPC   NC312479  29.238  17.301   9.491
  680POPC   PO412480  29.418  17.947   9.525
  680POPC   GL112481  29.334  17.668   9.153
  680POPC   GL212482  28.989  17.689   9.106
  680POPC   C1A12483  29.401  17.469   8.734
  680POPC   D2A12484  29.558  17.442   8.292
  680POPC   C3A12485  29.239  17.483   7.921
  680POPC   C4A12486  29.351  17.690   7.527
  680POPC   C1B12487  28.884  17.497   8.677
  680POPC   C2B12488  28.803  17.426   8.225
  680POPC   C3B12489  28.709  17.425   7.776
  680POPC   C4B12490  28.884  17.376   7.367
  681POPC   NC312491  30.744  21.203   9.470
  681POPC   PO412492  31.015  21.781   9.551
  681POPC   GL112493  30.864  21.633   9.141
  681POPC   GL212494  30.500  21.480   9.100
  681POPC   C1A12495  30.761  21.671   8.702
  681POPC   D2A12496  30.529  21.427   8.407
  681POPC   C3A12497  30.592  21.487   7.977
  681POPC   C4A12498  30.934  21.640   7.741
  681POPC   C1B12499  30.691  21.133   8.835
  681POPC   C2B12500  30.808  20.980   8.451
  681POPC   C3B12501  30.664  20.996   8.056
  681POPC   C4B12502  30.812  21.107   7.668
  682POPC   NC312503  35.653   9.100   9.411
  682POPC   PO412504  36.219   8.771   9.523
  682POPC   GL112505  36.228   9.033   9.199
  682POPC   GL212506  35.967   8.865   9.063
  682POPC   C1A12507  36.334   9.125   8.793
  682POPC   D2A12508  36.304   8.944   8.393
  682POPC   C3A12509  36.188   9.165   8.053
  682POPC   C4A12510  36.290   8.956   7.678
  682POPC   C1B12511  35.850   8.739   8.692
  682POPC   C2B12512  35.818   8.860   8.286
  682POPC   C3B12513  35.906   8.749   7.912
  682POPC   C4B12514  35.758   8.907   7.531
  683POPC   NC312515  33.182  21.002   9.515
  683POPC   PO412516  33.340  21.651   9.411
  683POPC   GL112517  33.250  21.360   9.100
  683POPC   GL212518  32.892  21.407   9.089
  683POPC   C1A12519  33.159  21.402   8.656
  683POPC   D2A12520  33.030  21.799   8.478
  683POPC   C3A12521  32.962  21.838   8.026
  683POPC   C4A12522  33.140  21.632   7.655
  683POPC   C1B12523  32.668  21.394   8.682
  683POPC   C2B12524  32.738  21.424   8.221
  683POPC   C3B12525  32.724  21.339   7.758
  683POPC   C4B12526  32.688  20.935   7.516
  684POPC   NC312527  13.444   2.842   9.459
  684POPC   PO412528  13.993   2.600   9.551
  684POPC   GL112529  13.841   2.710   9.133
  684POPC   GL212530  13.521   2.561   9.029
  684POPC   C1A12531  13.800   2.990   8.768
  684POPC   D2A12532  13.961   3.064   8.366
  684POPC   C3A12533  13.637   3.039   8.041
  684POPC   C4A12534  13.486   2.857   7.632
  684POPC   C1B12535  13.810   2.488   8.664
  684POPC   C2B12536  13.897   2.370   8.259
  684POPC   C3B12537  13.824   2.528   7.832
  684POPC   C4B12538  13.845   2.599   7.359
  685POPC   NC312539  11.136  11.379   9.828
  685POPC   PO412540  11.580  10.910   9.706
  685POPC   GL112541  11.482  11.052   9.256
  685POPC   GL212542  11.469  11.339   9.241
  685POPC   C1A12543  11.179  11.252   8.852
  685POPC   D2A12544  11.126  11.095   8.410
  685POPC   C3A12545  11.239  11.225   7.978
  685POPC   C4A12546  11.655  11.246   7.857
  685POPC   C1B12547  11.628  11.524   8.858
  685POPC   C2B12548  11.537  11.519   8.442
  685POPC   C3B12549  11.164  11.610   8.270
  685POPC   C4B12550  11.032  11.685   7.840
  686POPC   NC312551  41.199  21.931   9.512
  686POPC   PO412552  41.721  21.526   9.562
  686POPC   GL112553  41.598  21.575   9.159
  686POPC   GL212554  41.243  21.547   9.165
  686POPC   C1A12555  41.767  21.300   8.812
  686POPC   D2A12556  41.618  21.142   8.415
  686POPC   C3A12557  41.901  21.209   8.079
  686POPC   C4A12558  41.742  21.364   7.680
  686POPC   C1B12559  41.243  21.389   8.756
  686POPC   C2B12560  41.260  21.525   8.333
  686POPC   C3B12561  41.272  21.444   7.903
  686POPC   C4B12562  41.236  21.569   7.476
  687POPC   NC312563  34.411  18.050   9.860
  687POPC   PO412564  34.910  18.519   9.718
  687POPC   GL112565  34.861  18.363   9.281
  687POPC   GL212566  34.856  18.014   9.207
  687POPC   C1A12567  34.618  18.424   8.883
  687POPC   D2A12568  34.359  18.445   8.486
  687POPC   C3A12569  34.574  18.429   8.073
  687POPC   C4A12570  34.617  18.517   7.642
  687POPC   C1B12571  34.581  17.871   8.923
  687POPC   C2B12572  34.641  17.758   8.514
  687POPC   C3B12573  34.529  17.932   8.141
  687POPC   C4B12574  34.690  18.027   7.742
  688POPC   NC312575  43.128  19.264   9.577
  688POPC   PO412576  43.103  18.586   9.493
  688POPC   GL112577  42.978  18.889   9.136
  688POPC   GL212578  42.962  19.246   9.112
  688POPC   C1A12579  43.137  19.007   8.723
  688POPC   D2A12580  43.227  18.812   8.376
  688POPC   C3A12581  43.345  19.002   8.036
  688POPC   C4A12582  43.084  19.026   7.677
  688POPC   C1B12583  42.687  19.289   8.799
  688POPC   C2B12584  42.692  19.441   8.391
  688POPC   C3B12585  42.929  19.343   8.054
  688POPC   C4B12586  42.974  19.540   7.646
  689POPC   NC312587  14.622  42.048   9.481
  689POPC   PO412588  13.935  41.969   9.511
  689POPC   GL112589  14.211  41.935   9.168
  689POPC   GL212590  14.303  42.272   9.132
  689POPC   C1A12591  14.395  41.905   8.746
  689POPC   D2A12592  14.680  42.161   8.517
  689POPC   C3A12593  14.703  42.176   8.069
  689POPC   C4A12594  14.442  42.088   7.708
  689POPC   C1B12595  14.499  42.530   8.828
  689POPC   C2B12596  14.571  42.630   8.390
  689POPC   C3B12597  14.262  42.710   8.061
  689POPC   C4B12598  14.465  42.584   7.732
  690POPC   NC312599  42.330  15.380   9.526
  690POPC   PO412600  42.680  14.780   9.467
  690POPC   GL112601  42.331  14.980   9.185
  690POPC   GL212602  42.374  15.333   9.036
  690POPC   C1A12603  42.148  14.993   8.758
  690POPC   D2A12604  42.396  15.062   8.434
  690POPC   C3A12605  42.290  14.957   8.068
  690POPC   C4A12606  42.366  15.028   7.683
  690POPC   C1B12607  42.236  15.501   8.681
  690POPC   C2B12608  42.120  15.442   8.247
  690POPC   C3B12609  42.296  15.502   7.820
  690POPC   C4B12610  42.061  15.335   7.399
  691POPC   NC312611  39.490  42.720   9.556
  691POPC   PO412612  39.649  42.149   9.648
  691POPC   GL112613  39.788  42.380   9.258
  691POPC   GL212614  40.094  42.209   9.148
  691POPC   C1A12615  39.799  42.480   8.793
  691POPC   D2A12616  39.995  42.592   8.378
  691POPC   C3A12617  39.738  42.507   8.023
  691POPC   C4A12618  39.809  42.659   7.613
  691POPC   C1B12619  40.279  42.267   8.704
  691POPC   C2B12620  40.317  42.160   8.252
  691POPC   C3B12621  40.426  42.090   7.813
  691POPC   C4B12622  40.075  42.124   7.525
  692POPC   NC312623  36.757  35.655   9.471
  692POPC   PO412624  37.456  35.684   9.291
  692POPC   GL112625  37.149  35.437   9.041
  692POPC   GL212626  36.759  35.412   9.019
  692POPC   C1A12627  37.070  35.502   8.605
  692POPC   D2A12628  36.766  35.370   8.295
  692POPC   C3A12629  36.910  35.374   7.875
  692POPC   C4A12630  37.208  35.375   7.559
  692POPC   C1B12631  36.853  35.076   8.725
  692POPC   C2B12632  37.022  34.903   8.391
  692POPC   C3B12633  36.776  34.893   8.055
  692POPC   C4B12634  36.908  34.911   7.655
  693POPC   NC312635  27.358   0.536   9.477
  693POPC   PO412636  27.935   0.243   9.427
  693POPC   GL112637  27.673   0.294   9.117
  693POPC   GL212638  27.738   0.637   9.107
  693POPC   C1A12639  27.716   0.281   8.689
  693POPC   D2A12640  27.666   0.542   8.342
  693POPC   C3A12641  27.720   0.216   8.069
  693POPC   C4A12642  27.913   0.171   7.686
  693POPC   C1B12643  27.440   0.707   8.816
  693POPC   C2B12644  27.351   0.948   8.484
  693POPC   C3B12645  27.223   0.743   8.134
  693POPC   C4B12646  27.482   0.597   7.831
  694POPC   NC312647  18.091  35.543   9.475
  694POPC   PO412648  18.677  35.181   9.495
  694POPC   GL112649  18.462  35.421   9.164
  694POPC   GL212650  18.182  35.159   9.112
  694POPC   C1A12651  18.148  35.550   8.789
  694POPC   D2A12652  18.037  35.377   8.356
  694POPC   C3A12653  18.249  35.552   7.990
  694POPC   C4A12654  18.242  35.617   7.557
  694POPC   C1B12655  18.471  35.169   8.738
  694POPC   C2B12656  18.554  35.287   8.332
  694POPC   C3B12657  18.371  35.049   8.004
  694POPC   C4B12658  18.398  35.141   7.589
  695POPC   NC312659  27.827  22.361   9.476
  695POPC   PO412660  27.444  21.877   9.691
  695POPC   GL112661  27.513  22.042   9.221
  695POPC   GL212662  27.438  22.409   9.113
  695POPC   C1A12663  27.589  22.021   8.791
  695POPC   D2A12664  27.743  21.830   8.429
  695POPC   C3A12665  27.730  22.131   8.109
  695POPC   C4A12666  27.607  22.231   7.660
  695POPC   C1B12667  27.817  22.499   8.837
  695POPC   C2B12668  27.901  22.578   8.383
  695POPC   C3B12669  27.881  22.572   7.918
  695POPC   C4B12670  27.842  22.671   7.473
  696POPC   NC312671  38.341  28.797   9.513
  696POPC   PO412672  38.634  29.383   9.541
  696POPC   GL112673  38.373  29.357   9.153
  696POPC   GL212674  38.234  29.033   9.076
  696POPC   C1A12675  38.329  29.412   8.704
  696POPC   D2A12676  38.501  29.616   8.346
  696POPC   C3A12677  38.340  29.411   8.000
  696POPC   C4A12678  38.241  29.020   7.868
  696POPC   C1B12679  38.641  29.035   8.861
  696POPC   C2B12680  38.734  29.158   8.442
  696POPC   C3B12681  38.783  29.147   7.999
  696POPC   C4B12682  38.699  28.803   7.740
  697POPC   NC312683  20.057  14.356   9.625
  697POPC   PO412684  19.656  14.571   9.218
  697POPC   GL112685  20.038  14.427   9.003
  697POPC   GL212686  20.273  14.210   9.155
  697POPC   C1A12687  19.962  14.321   8.573
  697POPC   D2A12688  19.680  14.380   8.211
  697POPC   C3A12689  19.918  14.579   7.838
  697POPC   C4A12690  20.002  14.679   7.365
  697POPC   C1B12691  20.241  13.929   8.773
  697POPC   C2B12692  19.959  13.852   8.373
  697POPC   C3B12693  19.882  13.985   7.929
  697POPC   C4B12694  20.025  14.203   7.525
  698POPC   NC312695  26.327  42.076   9.450
  698POPC   PO412696  26.001  42.648   9.315
  698POPC   GL112697  25.984  42.339   9.033
  698POPC   GL212698  25.778  42.037   9.145
  698POPC   C1A12699  25.897  42.393   8.613
  698POPC   D2A12700  25.691  42.159   8.285
  698POPC   C3A12701  25.892  42.364   7.976
  698POPC   C4A12702  26.318  42.537   7.835
  698POPC   C1B12703  25.903  41.913   8.719
  698POPC   C2B12704  26.251  42.075   8.450
  698POPC   C3B12705  26.278  42.050   8.025
  698POPC   C4B12706  26.140  42.045   7.605
  699POPC   NC312707  25.857  19.127   9.700
  699POPC   PO412708  26.235  18.691   9.314
  699POPC   GL112709  26.285  18.956   8.951
  699POPC   GL212710  26.284  19.222   9.198
  699POPC   C1A12711  26.007  19.130   8.601
  699POPC   D2A12712  25.735  19.078   8.247
  699POPC   C3A12713  25.906  18.820   7.926
  699POPC   C4A12714  25.915  19.038   7.607
  699POPC   C1B12715  26.328  19.461   8.836
  699POPC   C2B12716  26.427  19.370   8.410
  699POPC   C3B12717  26.176  19.269   8.062
  699POPC   C4B12718  26.152  19.480   7.691
  700POPC   NC312719  26.442  25.365   9.417
  700POPC   PO412720  25.979  24.776   9.451
  700POPC   GL112721  26.028  25.146   9.214
  700POPC   GL212722  25.787  25.415   9.304
  700POPC   C1A12723  26.262  25.234   8.822
  700POPC   D2A12724  26.166  25.053   8.458
  700POPC   C3A12725  25.939  25.325   8.184
  700POPC   C4A12726  26.021  25.234   7.781
  700POPC   C1B12727  25.767  25.373   8.846
  700POPC   C2B12728  25.541  25.516   8.489
  700POPC   C3B12729  25.480  25.538   8.050
  700POPC   C4B12730  25.782  25.677   7.804
  701POPC   NC312731  38.449  37.446   9.721
  701POPC   PO412732  38.699  36.799   9.479
  701POPC   GL112733  38.441  36.851   9.130
  701POPC   GL212734  38.314  37.162   8.969
  701POPC   C1A12735  38.436  36.731   8.704
  701POPC   D2A12736  38.285  36.943   8.348
  701POPC   C3A12737  38.462  36.871   7.957
  701POPC   C4A12738  38.589  37.218   7.723
  701POPC   C1B12739  37.948  37.225   8.648
  701POPC   C2B12740  37.872  37.229   8.180
  701POPC   C3B12741  38.052  37.094   7.751
  701POPC   C4B12742  38.184  36.686   7.564
  702POPC   NC312743  39.720  27.639   9.480
  702POPC   PO412744  39.035  27.866   9.514
  702POPC   GL112745  39.102  27.785   9.113
  702POPC   GL212746  39.355  27.510   9.141
  702POPC   C1A12747  39.195  27.647   8.693
  702POPC   D2A12748  39.012  27.449   8.404
  702POPC   C3A12749  39.133  27.526   8.041
  702POPC   C4A12750  38.976  27.639   7.624
  702POPC   C1B12751  39.574  27.898   8.908
  702POPC   C2B12752  39.581  28.123   8.516
  702POPC   C3B12753  39.560  28.014   8.102
  702POPC   C4B12754  39.406  27.829   7.751
  703POPC   NC312755  28.423  24.732   9.552
  703POPC   PO412756  28.668  24.041   9.495
  703POPC   GL112757  28.637  24.353   9.218
  703POPC   GL212758  28.291  24.399   9.147
  703POPC   C1A12759  28.732  24.433   8.795
  703POPC   D2A12760  28.895  24.413   8.365
  703POPC   C3A12761  28.613  24.520   8.045
  703POPC   C4A12762  28.528  24.280   7.679
  703POPC   C1B12763  28.230  24.353   8.705
  703POPC   C2B12764  28.168  24.604   8.310
  703POPC   C3B12765  28.115  24.479   7.903
  703POPC   C4B12766  28.118  24.047   7.833
  704POPC   NC312767  39.519   5.494   9.374
  704POPC   PO412768  38.986   5.028   9.484
  704POPC   GL112769  39.259   5.084   9.125
  704POPC   GL212770  39.082   5.396   9.106
  704POPC   C1A12771  39.297   4.915   8.676
  704POPC   D2A12772  38.992   4.787   8.329
  704POPC   C3A12773  38.974   5.036   7.945
  704POPC   C4A12774  39.351   5.196   7.774
  704POPC   C1B12775  39.125   5.400   8.696
  704POPC   C2B12776  39.124   5.657   8.352
  704POPC   C3B12777  38.989   5.573   7.955
  704POPC   C4B12778  38.921   5.383   7.571
  705POPC   NC312779  29.515  37.625   9.400
  705POPC   PO412780  28.943  38.112   9.461
  705POPC   GL112781  28.976  37.863   9.091
  705POPC   GL212782  28.992  37.506   9.212
  705POPC   C1A12783  29.098  37.913   8.649
  705POPC   D2A12784  29.336  37.716   8.293
  705POPC   C3A12785  29.226  37.930   7.911
  705POPC   C4A12786  29.290  37.666   7.557
  705POPC   C1B12787  29.138  37.422   8.783
  705POPC   C2B12788  28.898  37.474   8.386
  705POPC   C3B12789  29.041  37.450   7.955
  705POPC   C4B12790  29.031  37.230   7.526
  706POPC   NC312791  38.610   3.925   9.568
  706POPC   PO412792  38.160   4.472   9.444
  706POPC   GL112793  38.511   4.388   9.183
  706POPC   GL212794  38.481   4.048   9.089
  706POPC   C1A12795  38.690   4.385   8.751
  706POPC   D2A12796  38.528   4.307   8.361
  706POPC   C3A12797  38.790   4.209   8.049
  706POPC   C4A12798  38.596   4.223   7.708
  706POPC   C1B12799  38.204   4.190   8.752
  706POPC   C2B12800  38.111   4.013   8.348
  706POPC   C3B12801  38.303   3.911   7.995
  706POPC   C4B12802  38.264   3.878   7.525
  707POPC   NC312803   5.524  36.773   9.727
  707POPC   PO412804   5.872  36.878   9.198
  707POPC   GL112805   5.690  36.821   8.821
  707POPC   GL212806   5.702  36.466   8.894
  707POPC   C1A12807   5.758  37.047   8.437
  707POPC   D2A12808   6.032  37.345   8.235
  707POPC   C3A12809   6.118  37.144   7.905
  707POPC   C4A12810   5.698  36.973   7.870
  707POPC   C1B12811   6.148  36.604   8.713
  707POPC   C2B12812   6.223  36.768   8.334
  707POPC   C3B12813   6.051  36.629   7.957
  707POPC   C4B12814   5.662  36.436   7.897
  708POPC   NC312815  28.197  20.388   9.303
  708POPC   PO412816  28.615  20.816   9.535
  708POPC   GL112817  28.438  20.876   9.120
  708POPC   GL212818  28.068  20.819   9.070
  708POPC   C1A12819  28.481  20.595   8.750
  708POPC   D2A12820  28.390  20.406   8.370
  708POPC   C3A12821  28.420  20.639   7.994
  708POPC   C4A12822  28.159  20.536   7.681
  708POPC   C1B12823  27.986  20.542   8.700
  708POPC   C2B12824  28.124  20.834   8.384
  708POPC   C3B12825  27.962  20.924   7.995
  708POPC   C4B12826  27.930  20.952   7.551
  709POPC   NC312827  28.210  23.891   9.429
  709POPC   PO412828  28.484  23.270   9.517
  709POPC   GL112829  28.435  23.516   9.184
  709POPC   GL212830  28.072  23.407   9.163
  709POPC   C1A12831  28.476  23.769   8.801
  709POPC   D2A12832  28.293  23.933   8.418
  709POPC   C3A12833  28.609  23.987   8.120
  709POPC   C4A12834  28.555  23.768   7.761
  709POPC   C1B12835  27.992  23.579   8.771
  709POPC   C2B12836  27.838  23.690   8.375
  709POPC   C3B12837  28.005  23.585   8.005
  709POPC   C4B12838  28.172  23.492   7.612
  710POPC   NC312839   2.408  19.914   9.623
  710POPC   PO412840   1.733  19.986   9.385
  710POPC   GL112841   1.929  19.735   9.106
  710POPC   GL212842   1.731  19.436   8.982
  710POPC   C1A12843   2.040  19.760   8.683
  710POPC   D2A12844   2.042  19.408   8.413
  710POPC   C3A12845   1.933  19.600   8.017
  710POPC   C4A12846   2.094  19.938   7.805
  710POPC   C1B12847   1.520  19.791   8.755
  710POPC   C2B12848   1.614  20.080   8.403
  710POPC   C3B12849   1.589  19.983   7.953
  710POPC   C4B12850   1.630  19.899   7.514
  711POPC   NC312851  40.737  15.715   9.419
  711POPC   PO412852  40.691  16.409   9.242
  711POPC   GL112853  40.866  16.043   9.064
  711POPC   GL212854  41.244  16.087   9.131
  711POPC   C1A12855  40.768  15.718   8.720
  711POPC   D2A12856  40.538  15.695   8.304
  711POPC   C3A12857  40.792  15.622   7.904
  711POPC   C4A12858  40.840  15.865   7.505
  711POPC   C1B12859  41.158  16.075   8.671
  711POPC   C2B12860  41.055  15.893   8.274
  711POPC   C3B12861  41.170  16.118   7.920
  711POPC   C4B12862  40.936  16.364   7.660
  712POPC   NC312863  22.498  20.097   9.358
  712POPC   PO412864  21.971  19.643   9.410
  712POPC   GL112865  22.212  19.754   9.059
  712POPC   GL212866  22.000  20.018   9.049
  712POPC   C1A12867  22.206  19.881   8.599
  712POPC   D2A12868  22.322  19.673   8.208
  712POPC   C3A12869  22.144  19.702   7.795
  712POPC   C4A12870  22.332  19.886   7.399
  712POPC   C1B12871  21.767  20.146   8.727
  712POPC   C2B12872  21.798  20.093   8.339
  712POPC   C3B12873  22.086  20.156   8.067
  712POPC   C4B12874  21.990  20.181   7.656
  713POPC   NC312875  27.229  17.892   9.405
  713POPC   PO412876  26.628  18.129   9.581
  713POPC   GL112877  26.630  18.269   9.156
  713POPC   GL212878  26.953  18.228   9.105
  713POPC   C1A12879  26.631  18.414   8.740
  713POPC   D2A12880  26.629  18.250   8.336
  713POPC   C3A12881  26.599  18.548   8.000
  713POPC   C4A12882  26.755  18.392   7.632
  713POPC   C1B12883  27.120  18.124   8.722
  713POPC   C2B12884  27.363  18.099   8.333
  713POPC   C3B12885  27.295  17.948   7.931
  713POPC   C4B12886  27.228  18.212   7.608
  714POPC   NC312887  34.052   5.296   9.408
  714POPC   PO412888  34.563   5.051   9.746
  714POPC   GL112889  34.558   5.074   9.299
  714POPC   GL212890  34.353   4.791   9.237
  714POPC   C1A12891  34.400   5.210   8.866
  714POPC   D2A12892  34.406   5.446   8.467
  714POPC   C3A12893  34.714   5.289   8.148
  714POPC   C4A12894  34.573   5.214   7.719
  714POPC   C1B12895  34.660   4.756   8.902
  714POPC   C2B12896  34.636   4.911   8.489
  714POPC   C3B12897  34.611   4.787   8.055
  714POPC   C4B12898  34.896   4.682   7.761
  715POPC   NC312899   4.212  30.504   9.617
  715POPC   PO412900   4.784  30.833   9.353
  715POPC   GL112901   4.420  30.720   9.188
  715POPC   GL212902   4.297  31.026   9.050
  715POPC   C1A12903   4.224  30.557   8.815
  715POPC   D2A12904   4.056  30.311   8.431
  715POPC   C3A12905   4.100  30.447   7.996
  715POPC   C4A12906   4.285  30.644   7.610
  715POPC   C1B12907   4.588  30.904   8.702
  715POPC   C2B12908   4.452  30.790   8.290
  715POPC   C3B12909   4.091  30.934   8.078
  715POPC   C4B12910   4.040  31.096   7.704
  716POPC   NC312911  27.843  11.047   9.433
  716POPC   PO412912  27.299  11.393   9.376
  716POPC   GL112913  27.556  11.266   9.044
  716POPC   GL212914  27.544  10.925   9.051
  716POPC   C1A12915  27.771  11.406   8.685
  716POPC   D2A12916  27.697  11.171   8.337
  716POPC   C3A12917  27.626  11.369   7.947
  716POPC   C4A12918  27.280  11.232   7.681
  716POPC   C1B12919  27.910  10.912   8.769
  716POPC   C2B12920  27.940  10.684   8.353
  716POPC   C3B12921  27.964  10.924   7.981
  716POPC   C4B12922  27.752  11.009   7.599
  717POPC   NC312923  43.754  21.744   9.566
  717POPC   PO412924  43.932  22.423   9.431
  717POPC   GL112925  43.701  22.399   9.033
  717POPC   GL212926  43.541  22.083   9.104
  717POPC   C1A12927  43.811  22.209   8.649
  717POPC   D2A12928  44.211  22.036   8.481
  717POPC   C3A12929  44.222  21.959   8.066
  717POPC   C4A12930  44.190  22.222   7.736
  717POPC   C1B12931  43.342  21.962   8.701
  717POPC   C2B12932  43.413  22.128   8.288
  717POPC   C3B12933  43.745  22.186   7.977
  717POPC   C4B12934  43.767  22.130   7.478
  718POPC   NC312935  28.528  38.949   9.356
  718POPC   PO412936  28.375  39.671   9.270
  718POPC   GL112937  28.281  39.300   9.077
  718POPC   GL212938  28.606  39.210   8.935
  718POPC   C1A12939  28.110  39.096   8.742
  718POPC   D2A12940  27.989  39.244   8.328
  718POPC   C3A12941  28.003  39.081   7.926
  718POPC   C4A12942  28.309  39.126   7.638
  718POPC   C1B12943  28.482  39.403   8.557
  718POPC   C2B12944  28.474  39.320   8.109
  718POPC   C3B12945  28.589  39.590   7.777
  718POPC   C4B12946  28.689  39.529   7.376
  719POPC   NC312947  31.305  19.228   9.396
  719POPC   PO412948  31.754  18.819   9.581
  719POPC   GL112949  31.634  18.913   9.158
  719POPC   GL212950  31.335  18.797   9.093
  719POPC   C1A12951  31.572  19.153   8.762
  719POPC   D2A12952  31.730  19.055   8.330
  719POPC   C3A12953  31.540  19.154   7.939
  719POPC   C4A12954  31.301  19.295   7.580
  719POPC   C1B12955  31.387  18.694   8.704
  719POPC   C2B12956  31.271  18.846   8.329
  719POPC   C3B12957  31.315  18.705   7.930
  719POPC   C4B12958  31.505  18.748   7.538
  720POPC   NC312959  33.878  36.235   9.620
  720POPC   PO412960  33.405  35.810   9.505
  720POPC   GL112961  33.611  36.089   9.144
  720POPC   GL212962  34.003  36.144   9.143
  720POPC   C1A12963  33.780  36.226   8.716
  720POPC   D2A12964  33.929  36.031   8.353
  720POPC   C3A12965  33.775  36.043   7.962
  720POPC   C4A12966  33.342  35.880   7.908
  720POPC   C1B12967  34.279  36.129   8.755
  720POPC   C2B12968  34.425  36.001   8.388
  720POPC   C3B12969  34.275  35.796   8.040
  720POPC   C4B12970  34.188  35.868   7.630
  721POPC   NC312971  28.296   6.696   9.731
  721POPC   PO412972  28.558   6.166   9.508
  721POPC   GL112973  28.239   6.470   9.268
  721POPC   GL212974  28.094   6.853   9.292
  721POPC   C1A12975  28.326   6.525   8.819
  721POPC   D2A12976  28.585   6.674   8.459
  721POPC   C3A12977  28.425   6.489   8.086
  721POPC   C4A12978  28.510   6.323   7.681
  721POPC   C1B12979  27.951   6.872   8.893
  721POPC   C2B12980  28.139   6.939   8.503
  721POPC   C3B12981  28.027   6.846   8.087
  721POPC   C4B12982  28.286   6.824   7.719
  722POPC   NC312983  39.307  44.297   9.242
  722POPC   PO412984  39.410  43.745   9.685
  722POPC   GL112985  39.205  43.804   9.227
  722POPC   GL212986  39.181  43.498   9.042
  722POPC   C1A12987  39.355  43.874   8.751
  722POPC   D2A12988  39.231  43.617   8.395
  722POPC   C3A12989  39.363  43.785   8.000
  722POPC   C4A12990  39.446  44.051   7.676
  722POPC   C1B12991  38.871  43.406   8.748
  722POPC   C2B12992  38.725  43.601   8.377
  722POPC   C3B12993  38.883  43.592   7.968
  722POPC   C4B12994  38.994  43.778   7.575
  723POPC   NC312995  15.668   2.327   9.578
  723POPC   PO412996  16.243   2.027   9.389
  723POPC   GL112997  15.925   2.194   9.158
  723POPC   GL212998  15.629   1.997   9.184
  723POPC   C1A12999  15.771   2.323   8.784
  723POPC   D2A13000  15.801   2.055   8.419
  723POPC   C3A13001  15.824   2.097   7.981
  723POPC   C4A13002  16.220   1.949   7.810
  723POPC   C1B13003  15.829   1.716   8.884
  723POPC   C2B13004  15.817   1.561   8.474
  723POPC   C3B13005  15.878   1.588   8.046
  723POPC   C4B13006  15.614   1.713   7.695
  724POPC   NC313007  36.814  26.560   9.555
  724POPC   PO413008  36.786  25.943   9.582
  724POPC   GL113009  36.753  26.187   9.218
  724POPC   GL213010  36.443  26.203   9.086
  724POPC   C1A13011  36.920  26.094   8.828
  724POPC   D2A13012  36.700  25.957   8.468
  724POPC   C3A13013  36.858  26.050   8.095
  724POPC   C4A13014  36.943  25.919   7.695
  724POPC   C1B13015  36.517  26.373   8.730
  724POPC   C2B13016  36.635  26.549   8.397
  724POPC   C3B13017  36.554  26.473   8.018
  724POPC   C4B13018  36.478  26.554   7.589
  725POPC   NC313019  23.803  42.049   9.502
  725POPC   PO413020  24.204  42.514   9.494
  725POPC   GL113021  23.825  42.375   9.115
  725POPC   GL213022  23.430  42.338   9.192
  725POPC   C1A13023  23.567  42.334   8.712
  725POPC   D2A13024  23.671  42.379   8.282
  725POPC   C3A13025  23.654  42.130   7.871
  725POPC   C4A13026  23.519  42.047   7.430
  725POPC   C1B13027  23.244  42.678   8.862
  725POPC   C2B13028  23.249  42.725   8.420
  725POPC   C3B13029  23.365  42.643   7.996
  725POPC   C4B13030  23.211  42.326   7.747
  726POPC   NC313031  12.364  37.970   9.585
  726POPC   PO413032  12.860  38.557   9.477
  726POPC   GL113033  12.783  38.233   9.197
  726POPC   GL213034  12.760  38.516   8.964
  726POPC   C1A13035  12.752  38.021   8.793
  726POPC   D2A13036  12.686  38.202   8.385
  726POPC   C3A13037  12.960  38.307   8.044
  726POPC   C4A13038  12.815  38.426   7.643
  726POPC   C1B13039  12.931  38.801   8.666
  726POPC   C2B13040  13.039  38.800   8.248
  726POPC   C3B13041  13.267  38.674   7.895
  726POPC   C4B13042  13.202  38.767   7.489
  727POPC   NC313043  21.831  26.793   9.609
  727POPC   PO413044  22.560  26.732   9.635
  727POPC   GL113045  22.274  26.682   9.249
  727POPC   GL213046  21.943  26.834   9.097
  727POPC   C1A13047  22.376  26.788   8.834
  727POPC   D2A13048  22.152  26.976   8.530
  727POPC   C3A13049  22.301  26.840   8.163
  727POPC   C4A13050  22.398  26.993   7.762
  727POPC   C1B13051  21.776  26.684   8.690
  727POPC   C2B13052  21.675  26.906   8.291
  727POPC   C3B13053  21.894  26.934   7.902
  727POPC   C4B13054  21.967  26.520   7.755
  728POPC   NC313055  24.387   7.133   9.496
  728POPC   PO413056  24.721   7.747   9.244
  728POPC   GL113057  24.405   7.495   9.154
  728POPC   GL213058  24.161   7.716   9.291
  728POPC   C1A13059  24.420   7.241   8.778
  728POPC   D2A13060  24.679   7.290   8.388
  728POPC   C3A13061  24.520   7.375   7.958
  728POPC   C4A13062  24.762   7.442   7.537
  728POPC   C1B13063  24.129   7.679   8.799
  728POPC   C2B13064  24.155   7.503   8.386
  728POPC   C3B13065  24.174   7.764   7.991
  728POPC   C4B13066  24.379   7.771   7.603
  729POPC   NC313067  32.928  43.617   9.981
  729POPC   PO413068  32.796  44.110   9.562
  729POPC   GL113069  32.706  44.034   9.146
  729POPC   GL213070  32.628  43.691   9.152
  729POPC   C1A13071  33.020  44.043   8.823
  729POPC   D2A13072  33.167  43.842   8.476
  729POPC   C3A13073  32.924  43.986   8.176
  729POPC   C4A13074  32.905  44.061   7.739
  729POPC   C1B13075  32.841  43.579   8.765
  729POPC   C2B13076  32.767  43.510   8.327
  729POPC   C3B13077  32.985  43.551   7.905
  729POPC   C4B13078  32.786  43.632   7.499
  730POPC   NC313079  17.550   3.816   9.615
  730POPC   PO413080  17.140   4.329   9.579
  730POPC   GL113081  17.403   4.280   9.240
  730POPC   GL213082  17.177   4.483   9.077
  730POPC   C1A13083  17.638   4.327   8.846
  730POPC   D2A13084  17.674   4.049   8.483
  730POPC   C3A13085  17.810   4.161   8.081
  730POPC   C4A13086  17.510   4.003   7.781
  730POPC   C1B13087  17.142   4.224   8.725
  730POPC   C2B13088  17.051   4.388   8.350
  730POPC   C3B13089  17.429   4.520   8.186
  730POPC   C4B13090  17.658   4.563   7.796
  731POPC   NC313091   0.989  25.460   9.252
  731POPC   PO413092   1.351  24.883   9.406
  731POPC   GL113093   1.401  25.149   9.050
  731POPC   GL213094   1.471  25.518   9.079
  731POPC   C1A13095   1.349  25.116   8.618
  731POPC   D2A13096   0.965  25.201   8.405
  731POPC   C3A13097   1.133  25.293   8.012
  731POPC   C4A13098   1.123  25.295   7.568
  731POPC   C1B13099   1.517  25.821   8.748
  731POPC   C2B13100   1.411  25.616   8.394
  731POPC   C3B13101   1.420  25.711   7.994
  731POPC   C4B13102   1.582  25.393   7.756
  732POPC   NC313103  39.018  29.081   9.533
  732POPC   PO413104  39.471  29.465   9.474
  732POPC   GL113105  39.311  29.191   9.139
  732POPC   GL213106  38.980  29.355   9.098
  732POPC   C1A13107  39.170  28.958   8.765
  732POPC   D2A13108  39.240  29.092   8.335
  732POPC   C3A13109  39.168  28.799   8.021
  732POPC   C4A13110  39.157  28.642   7.636
  732POPC   C1B13111  39.215  29.469   8.721
  732POPC   C2B13112  39.029  29.566   8.345
  732POPC   C3B13113  39.136  29.519   7.915
  732POPC   C4B13114  39.221  29.148   7.664
  733POPC   NC313115  35.600  15.612   9.559
  733POPC   PO413116  35.759  14.985   9.567
  733POPC   GL113117  35.361  15.109   9.299
  733POPC   GL213118  35.216  15.444   9.202
  733POPC   C1A13119  35.145  15.018   8.900
  733POPC   D2A13120  35.438  15.023   8.575
  733POPC   C3A13121  35.396  15.002   8.139
  733POPC   C4A13122  35.597  15.277   7.857
  733POPC   C1B13123  35.005  15.515   8.795
  733POPC   C2B13124  35.004  15.277   8.403
  733POPC   C3B13125  35.096  15.399   7.991
  733POPC   C4B13126  34.878  15.670   7.754
  734POPC   NC313127  43.134  32.048   9.680
  734POPC   PO413128  43.322  32.685   9.626
  734POPC   GL113129  43.104  32.422   9.286
  734POPC   GL213130  43.049  32.047   9.201
  734POPC   C1A13131  43.213  32.351   8.845
  734POPC   D2A13132  42.916  32.405   8.482
  734POPC   C3A13133  43.017  32.489   8.055
  734POPC   C4A13134  43.220  32.294   7.726
  734POPC   C1B13135  42.843  32.004   8.826
  734POPC   C2B13136  42.606  31.990   8.488
  734POPC   C3B13137  42.772  32.037   8.109
  734POPC   C4B13138  42.700  32.074   7.707
  735POPC   NC313139  25.011  24.180   9.561
  735POPC   PO413140  25.251  24.727   9.422
  735POPC   GL113141  25.236  24.527   9.058
  735POPC   GL213142  25.225  24.216   9.113
  735POPC   C1A13143  25.437  24.466   8.701
  735POPC   D2A13144  25.298  24.675   8.364
  735POPC   C3A13145  25.466  24.529   8.003
  735POPC   C4A13146  25.255  24.731   7.687
  735POPC   C1B13147  24.935  24.146   8.798
  735POPC   C2B13148  25.038  24.247   8.398
  735POPC   C3B13149  24.976  24.410   7.992
  735POPC   C4B13150  25.021  24.202   7.616
  736POPC   NC313151  31.846  41.488   9.428
  736POPC   PO413152  31.172  41.346   9.381
  736POPC   GL113153  31.442  41.435   9.069
  736POPC   GL213154  31.474  41.774   9.137
  736POPC   C1A13155  31.361  41.492   8.644
  736POPC   D2A13156  31.116  41.457   8.273
  736POPC   C3A13157  31.361  41.433   7.896
  736POPC   C4A13158  31.779  41.534   7.767
  736POPC   C1B13159  31.113  41.896   8.822
  736POPC   C2B13160  31.004  42.121   8.429
  736POPC   C3B13161  31.090  41.937   8.048
  736POPC   C4B13162  31.261  41.863   7.651
  737POPC   NC313163  10.311   9.253   9.399
  737POPC   PO413164  10.811   9.428   9.779
  737POPC   GL113165  10.801   9.238   9.265
  737POPC   GL213166  10.564   8.907   9.134
  737POPC   C1A13167  10.925   9.089   8.825
  737POPC   D2A13168  10.635   8.892   8.491
  737POPC   C3A13169  10.637   8.998   8.049
  737POPC   C4A13170  10.720   9.237   7.692
  737POPC   C1B13171  10.253   8.627   8.892
  737POPC   C2B13172  10.152   8.527   8.457
  737POPC   C3B13173  10.288   8.619   8.049
  737POPC   C4B13174  10.421   8.683   7.614
  738POPC   NC313175  25.504  28.467   9.760
  738POPC   PO413176  26.195  28.200   9.615
  738POPC   GL113177  25.963  28.268   9.209
  738POPC   GL213178  26.098  28.612   9.086
  738POPC   C1A13179  25.818  28.361   8.748
  738POPC   D2A13180  25.633  28.478   8.371
  738POPC   C3A13181  25.814  28.276   8.012
  738POPC   C4A13182  25.979  28.486   7.662
  738POPC   C1B13183  26.300  28.256   8.847
  738POPC   C2B13184  26.197  28.320   8.413
  738POPC   C3B13185  26.328  28.348   8.017
  738POPC   C4B13186  26.530  28.135   7.731
  739POPC   NC313187  42.813  22.070   9.653
  739POPC   PO413188  42.080  22.367   9.546
  739POPC   GL113189  42.220  22.231   9.169
  739POPC   GL213190  42.533  22.040   9.208
  739POPC   C1A13191  42.134  22.174   8.757
  739POPC   D2A13192  41.889  22.147   8.380
  739POPC   C3A13193  42.117  22.194   8.017
  739POPC   C4A13194  41.927  22.211   7.617
  739POPC   C1B13195  42.629  22.328   8.851
  739POPC   C2B13196  42.475  22.424   8.422
  739POPC   C3B13197  42.634  22.324   7.983
  739POPC   C4B13198  42.925  22.190   7.641
  740POPC   NC313199   0.760  43.484   9.341
  740POPC   PO413200   1.088  42.858   9.368
  740POPC   GL113201   1.270  43.018   9.007
  740POPC   GL213202   1.080  43.266   9.003
  740POPC   C1A13203   1.457  43.077   8.599
  740POPC   D2A13204   1.651  42.916   8.207
  740POPC   C3A13205   1.520  43.087   7.805
  740POPC   C4A13206   1.721  43.112   7.347
  740POPC   C1B13207   1.161  43.496   8.649
  740POPC   C2B13208   1.096  43.413   8.250
  740POPC   C3B13209   1.128  43.012   8.154
  740POPC   C4B13210   1.083  42.828   7.789
  741POPC   NC313211  32.288   5.647   9.488
  741POPC   PO413212  31.820   6.194   9.473
  741POPC   GL113213  32.071   5.962   9.175
  741POPC   GL213214  31.946   5.611   9.110
  741POPC   C1A13215  32.421   5.861   8.849
  741POPC   D2A13216  32.362   5.717   8.402
  741POPC   C3A13217  32.408   5.930   8.029
  741POPC   C4A13218  32.645   5.901   7.658
  741POPC   C1B13219  31.932   5.769   8.725
  741POPC   C2B13220  31.870   5.572   8.393
  741POPC   C3B13221  31.958   5.707   8.051
  741POPC   C4B13222  31.988   5.787   7.678
  742POPC   NC313223  28.779   8.373   9.563
  742POPC   PO413224  29.046   7.840   9.496
  742POPC   GL113225  29.113   8.095   9.139
  742POPC   GL213226  28.876   8.318   9.053
  742POPC   C1A13227  29.337   8.277   8.774
  742POPC   D2A13228  29.108   8.476   8.439
  742POPC   C3A13229  29.223   8.379   8.029
  742POPC   C4A13230  29.470   8.190   7.702
  742POPC   C1B13231  28.675   8.492   8.701
  742POPC   C2B13232  28.584   8.487   8.271
  742POPC   C3B13233  28.722   8.273   7.922
  742POPC   C4B13234  28.990   8.327   7.577
  743POPC   NC313235  27.461  15.874   9.968
  743POPC   PO413236  27.850  16.121   9.600
  743POPC   GL113237  27.513  16.304   9.250
  743POPC   GL213238  27.605  16.069   9.007
  743POPC   C1A13239  27.372  16.444   8.774
  743POPC   D2A13240  27.549  16.362   8.348
  743POPC   C3A13241  27.411  16.163   7.974
  743POPC   C4A13242  27.219  15.768   7.828
  743POPC   C1B13243  27.871  16.052   8.633
  743POPC   C2B13244  27.878  15.980   8.179
  743POPC   C3B13245  27.727  15.614   7.939
  743POPC   C4B13246  27.744  15.237   7.658
  744POPC   NC313247  19.039   3.832   9.692
  744POPC   PO413248  19.324   3.443   9.241
  744POPC   GL113249  19.064   3.611   8.969
  744POPC   GL213250  18.802   3.410   8.927
  744POPC   C1A13251  19.037   3.579   8.499
  744POPC   D2A13252  19.060   3.291   8.129
  744POPC   C3A13253  19.305   3.507   7.851
  744POPC   C4A13254  19.384   3.920   8.040
  744POPC   C1B13255  18.579   3.703   8.713
  744POPC   C2B13256  18.658   3.908   8.351
  744POPC   C3B13257  18.873   3.758   8.008
  744POPC   C4B13258  18.791   3.512   7.628
  745POPC   NC313259  39.568   9.714   9.322
  745POPC   PO413260  39.070   9.379   9.706
  745POPC   GL113261  39.035   9.572   9.242
  745POPC   GL213262  39.294   9.522   8.935
  745POPC   C1A13263  38.916   9.859   8.882
  745POPC   D2A13264  39.076   9.694   8.487
  745POPC   C3A13265  38.898   9.671   8.112
  745POPC   C4A13266  38.795  10.019   7.861
  745POPC   C1B13267  39.434   9.941   8.750
  745POPC   C2B13268  39.565   9.890   8.356
  745POPC   C3B13269  39.415   9.761   8.005
  745POPC   C4B13270  39.690   9.437   7.876
  746POPC   NC313271  19.519  14.044   9.339
  746POPC   PO413272  20.178  13.912   9.586
  746POPC   GL113273  19.958  13.758   9.179
  746POPC   GL213274  19.785  13.986   8.937
  746POPC   C1A13275  19.857  13.514   8.759
  746POPC   D2A13276  19.956  13.305   8.356
  746POPC   C3A13277  19.763  13.484   8.017
  746POPC   C4A13278  19.887  13.467   7.612
  746POPC   C1B13279  19.486  14.024   8.617
  746POPC   C2B13280  19.364  13.823   8.241
  746POPC   C3B13281  19.398  13.807   7.813
  746POPC   C4B13282  19.659  13.881   7.481
  747POPC   NC313283   6.944  41.898   9.897
  747POPC   PO413284   6.738  42.424   9.496
  747POPC   GL113285   6.703  42.148   9.098
  747POPC   GL213286   6.345  41.956   9.088
  747POPC   C1A13287   6.854  42.273   8.672
  747POPC   D2A13288   7.002  42.048   8.282
  747POPC   C3A13289   7.002  42.293   7.898
  747POPC   C4A13290   7.059  42.348   7.410
  747POPC   C1B13291   6.428  42.003   8.705
  747POPC   C2B13292   6.357  42.116   8.341
  747POPC   C3B13293   6.534  42.048   7.983
  747POPC   C4B13294   6.568  42.289   7.652
  748POPC   NC313295  20.060  43.019   9.579
  748POPC   PO413296  19.701  43.538   9.435
  748POPC   GL113297  19.745  43.149   9.146
  748POPC   GL213298  20.099  43.045   9.075
  748POPC   C1A13299  19.773  43.084   8.681
  748POPC   D2A13300  19.734  43.337   8.310
  748POPC   C3A13301  19.808  43.158   7.925
  748POPC   C4A13302  20.142  43.319   7.689
  748POPC   C1B13303  20.211  42.788   8.706
  748POPC   C2B13304  20.113  42.818   8.245
  748POPC   C3B13305  20.335  42.876   7.868
  748POPC   C4B13306  20.327  42.910   7.444
  749POPC   NC313307  40.440   9.947   9.611
  749POPC   PO413308  40.919   9.532   9.431
  749POPC   GL113309  40.783   9.650   9.059
  749POPC   GL213310  40.885   9.953   9.082
  749POPC   C1A13311  40.801   9.761   8.622
  749POPC   D2A13312  40.704   9.514   8.320
  749POPC   C3A13313  40.984   9.540   7.982
  749POPC   C4A13314  40.723   9.617   7.653
  749POPC   C1B13315  40.692  10.226   8.799
  749POPC   C2B13316  40.788  10.213   8.357
  749POPC   C3B13317  40.617   9.943   8.042
  749POPC   C4B13318  40.345  10.018   7.709
  750POPC   NC313319  32.847   2.248   9.406
  750POPC   PO413320  32.120   2.079   9.464
  750POPC   GL113321  32.096   1.964   9.088
  750POPC   GL213322  32.449   2.059   9.057
  750POPC   C1A13323  31.930   2.183   8.757
  750POPC   D2A13324  31.704   2.063   8.374
  750POPC   C3A13325  31.926   1.776   8.116
  750POPC   C4A13326  32.091   1.897   7.718
  750POPC   C1B13327  32.389   1.771   8.712
  750POPC   C2B13328  32.474   1.858   8.297
  750POPC   C3B13329  32.569   2.036   7.900
  750POPC   C4B13330  32.649   1.791   7.571
  751POPC   NC313331   0.028  10.056   9.191
  751POPC   PO413332  44.703  10.438   9.626
  751POPC   GL113333  44.665  10.622   9.202
  751POPC   GL213334  44.330  10.585   9.078
  751POPC   C1A13335  44.593  10.910   8.810
  751POPC   D2A13336  44.456  10.690   8.443
  751POPC   C3A13337  44.488  10.828   8.042
  751POPC   C4A13338  44.795  10.630   7.816
  751POPC   C1B13339  44.552  10.302   8.755
  751POPC   C2B13340  44.610  10.124   8.305
  751POPC   C3B13341  44.608  10.153   7.832
  751POPC   C4B13342  44.495  10.423   7.438
  752POPC   NC313343  18.364  32.459   9.489
  752POPC   PO413344  17.747  32.311   9.521
  752POPC   GL113345  18.080  32.138   9.184
  752POPC   GL213346  18.387  32.294   9.027
  752POPC   C1A13347  18.054  32.127   8.701
  752POPC   D2A13348  18.322  32.208   8.338
  752POPC   C3A13349  18.058  32.268   7.962
  752POPC   C4A13350  17.865  31.993   7.712
  752POPC   C1B13351  18.593  32.511   8.701
  752POPC   C2B13352  18.589  32.649   8.276
  752POPC   C3B13353  18.548  32.380   7.909
  752POPC   C4B13354  18.411  31.971   7.716
  753POPC   NC313355  16.315   5.714   9.961
  753POPC   PO413356  16.842   5.763   9.515
  753POPC   GL113357  16.945   5.932   9.135
  753POPC   GL213358  16.597   5.925   9.072
  753POPC   C1A13359  16.897   6.083   8.711
  753POPC   D2A13360  16.645   5.934   8.361
  753POPC   C3A13361  16.737   6.099   7.982
  753POPC   C4A13362  17.132   6.168   7.854
  753POPC   C1B13363  16.639   5.612   8.758
  753POPC   C2B13364  16.377   5.501   8.388
  753POPC   C3B13365  16.519   5.561   7.938
  753POPC   C4B13366  16.889   5.708   7.712
  754POPC   NC313367  35.553  40.340   9.471
  754POPC   PO413368  35.386  39.736   9.269
  754POPC   GL113369  35.446  39.852   8.894
  754POPC   GL213370  35.346  40.185   9.010
  754POPC   C1A13371  35.248  39.649   8.525
  754POPC   D2A13372  34.949  39.650   8.192
  754POPC   C3A13373  35.174  39.777   7.840
  754POPC   C4A13374  35.587  39.969   7.842
  754POPC   C1B13375  35.103  40.138   8.639
  754POPC   C2B13376  35.191  40.121   8.206
  754POPC   C3B13377  35.353  40.424   7.918
  754POPC   C4B13378  35.654  40.413   7.598
  755POPC   NC313379  26.309  29.614   9.447
  755POPC   PO413380  26.880  29.819   9.556
  755POPC   GL113381  26.992  29.834   9.158
  755POPC   GL213382  26.915  30.183   9.130
  755POPC   C1A13383  27.072  29.899   8.728
  755POPC   D2A13384  26.846  30.067   8.387
  755POPC   C3A13385  27.114  30.092   8.037
  755POPC   C4A13386  27.014  29.955   7.625
  755POPC   C1B13387  26.577  29.978   8.857
  755POPC   C2B13388  26.363  29.867   8.470
  755POPC   C3B13389  26.431  29.834   8.021
  755POPC   C4B13390  26.522  30.071   7.624
  756POPC   NC313391  12.390  23.567   9.679
  756POPC   PO413392  12.889  23.960   9.463
  756POPC   GL113393  12.795  23.977   9.074
  756POPC   GL213394  12.863  23.591   8.991
  756POPC   C1A13395  12.912  23.976   8.691
  756POPC   D2A13396  12.848  23.675   8.432
  756POPC   C3A13397  12.843  23.905   8.095
  756POPC   C4A13398  12.856  23.849   7.697
  756POPC   C1B13399  13.223  23.479   8.718
  756POPC   C2B13400  13.269  23.421   8.272
  756POPC   C3B13401  13.003  23.426   7.917
  756POPC   C4B13402  13.135  23.470   7.470
  757POPC   NC313403  40.147  30.266   9.666
  757POPC   PO413404  40.444  29.683   9.550
  757POPC   GL113405  40.234  29.973   9.255
  757POPC   GL213406  40.436  30.292   9.247
  757POPC   C1A13407  39.934  29.897   8.921
  757POPC   D2A13408  39.806  30.097   8.547
  757POPC   C3A13409  39.937  29.920   8.159
  757POPC   C4A13410  39.730  30.034   7.794
  757POPC   C1B13411  40.536  30.285   8.833
  757POPC   C2B13412  40.305  30.153   8.476
  757POPC   C3B13413  40.393  30.259   8.060
  757POPC   C4B13414  40.247  30.089   7.689
  758POPC   NC313415  28.952  17.995   9.534
  758POPC   PO413416  29.194  18.612   9.368
  758POPC   GL113417  29.356  18.441   9.039
  758POPC   GL213418  29.235  18.155   9.089
  758POPC   C1A13419  29.431  18.398   8.654
  758POPC   D2A13420  29.226  18.313   8.330
  758POPC   C3A13421  29.439  18.454   8.007
  758POPC   C4A13422  29.247  18.666   7.725
  758POPC   C1B13423  29.153  17.937   8.717
  758POPC   C2B13424  29.187  17.784   8.331
  758POPC   C3B13425  29.184  17.989   7.941
  758POPC   C4B13426  28.894  18.306   7.839
  759POPC   NC313427  23.355  43.847  10.053
  759POPC   PO413428  22.967  43.926   9.521
  759POPC   GL113429  23.039  43.863   9.137
  759POPC   GL213430  22.723  43.780   9.096
  759POPC   C1A13431  23.205  43.694   8.768
  759POPC   D2A13432  23.188  43.982   8.417
  759POPC   C3A13433  23.025  43.776   8.055
  759POPC   C4A13434  22.840  43.943   7.716
  759POPC   C1B13435  22.713  43.863   8.660
  759POPC   C2B13436  22.625  43.562   8.300
  759POPC   C3B13437  22.560  43.556   7.841
  759POPC   C4B13438  22.665  43.582   7.381
  760POPC   NC313439   1.171  31.795   9.329
  760POPC   PO413440   0.750  32.130   9.353
  760POPC   GL113441   1.019  32.115   8.945
  760POPC   GL213442   1.392  32.147   8.999
  760POPC   C1A13443   1.218  32.111   8.513
  760POPC   D2A13444   1.389  32.329   8.147
  760POPC   C3A13445   1.378  31.988   7.857
  760POPC   C4A13446   1.056  31.849   7.556
  760POPC   C1B13447   1.696  32.130   8.645
  760POPC   C2B13448   1.754  31.979   8.214
  760POPC   C3B13449   1.826  32.199   7.814
  760POPC   C4B13450   1.506  32.480   7.629
  761POPC   NC313451  38.479  44.177   9.454
  761POPC   PO413452  38.450  43.494   9.556
  761POPC   GL113453  38.321  43.753   9.242
  761POPC   GL213454  38.669  43.785   9.154
  761POPC   C1A13455  38.129  43.976   8.883
  761POPC   D2A13456  38.418  44.053   8.546
  761POPC   C3A13457  38.380  43.988   8.118
  761POPC   C4A13458  38.528  43.915   7.714
  761POPC   C1B13459  38.854  43.930   8.800
  761POPC   C2B13460  38.959  44.054   8.387
  761POPC   C3B13461  38.965  44.111   7.963
  761POPC   C4B13462  38.768  44.411   7.765
  762POPC   NC313463  22.665  22.564   9.673
  762POPC   PO413464  23.111  22.019   9.618
  762POPC   GL113465  22.936  22.011   9.208
  762POPC   GL213466  22.669  22.198   9.283
  762POPC   C1A13467  23.049  22.122   8.758
  762POPC   D2A13468  23.431  22.137   8.472
  762POPC   C3A13469  23.353  22.336   8.070
  762POPC   C4A13470  23.033  22.161   7.796
  762POPC   C1B13471  22.527  22.096   8.873
  762POPC   C2B13472  22.604  22.261   8.468
  762POPC   C3B13473  22.582  22.314   8.031
  762POPC   C4B13474  22.543  22.003   7.704
  763POPC   NC313475  15.065  18.198   9.334
  763POPC   PO413476  15.562  18.155   8.933
  763POPC   GL113477  15.210  17.865   8.919
  763POPC   GL213478  14.848  17.882   8.998
  763POPC   C1A13479  15.045  17.834   8.497
  763POPC   D2A13480  14.961  18.051   8.108
  763POPC   C3A13481  15.337  18.070   7.854
  763POPC   C4A13482  15.425  17.946   7.418
  763POPC   C1B13483  14.784  18.248   8.694
  763POPC   C2B13484  14.667  18.452   8.283
  763POPC   C3B13485  14.821  18.525   7.841
  763POPC   C4B13486  14.965  18.626   7.381
  764POPC   NC313487   8.776   8.742   9.602
  764POPC   PO413488   9.151   9.352   9.504
  764POPC   GL113489   8.925   9.047   9.218
  764POPC   GL213490   8.601   9.211   9.267
  764POPC   C1A13491   8.984   8.757   8.848
  764POPC   D2A13492   9.168   8.994   8.511
  764POPC   C3A13493   9.159   9.041   8.062
  764POPC   C4A13494   9.036   8.968   7.634
  764POPC   C1B13495   8.561   9.058   8.834
  764POPC   C2B13496   8.670   8.905   8.415
  764POPC   C3B13497   8.626   9.035   7.982
  764POPC   C4B13498   8.717   9.357   7.700
  765POPC   NC313499  16.941   4.020   9.306
  765POPC   PO413500  16.303   3.996   9.417
  765POPC   GL113501  16.481   4.082   9.054
  765POPC   GL213502  16.675   4.389   9.058
  765POPC   C1A13503  16.663   4.087   8.636
  765POPC   D2A13504  16.885   3.903   8.296
  765POPC   C3A13505  16.677   4.141   8.035
  765POPC   C4A13506  16.438   4.368   7.803
  765POPC   C1B13507  16.720   4.663   8.702
  765POPC   C2B13508  16.566   4.588   8.283
  765POPC   C3B13509  16.834   4.642   7.937
  765POPC   C4B13510  17.119   4.321   7.836
  766POPC   NC313511  21.140  36.471   9.422
  766POPC   PO413512  21.525  35.908   9.459
  766POPC   GL113513  21.476  36.101   9.110
  766POPC   GL213514  21.121  36.041   9.109
  766POPC   C1A13515  21.392  36.143   8.667
  766POPC   D2A13516  21.267  36.243   8.241
  766POPC   C3A13517  21.492  36.191   7.868
  766POPC   C4A13518  21.675  36.359   7.480
  766POPC   C1B13519  21.063  35.742   8.777
  766POPC   C2B13520  21.265  35.745   8.355
  766POPC   C3B13521  21.099  35.831   7.958
  766POPC   C4B13522  20.979  36.237   7.795
  767POPC   NC313523   7.020  31.844   9.185
  767POPC   PO413524   7.564  31.550   9.539
  767POPC   GL113525   7.416  31.358   9.168
  767POPC   GL213526   7.766  31.281   9.125
  767POPC   C1A13527   7.245  31.279   8.727
  767POPC   D2A13528   7.307  31.133   8.279
  767POPC   C3A13529   7.329  31.427   7.931
  767POPC   C4A13530   7.185  31.830   8.073
  767POPC   C1B13531   7.683  31.545   8.780
  767POPC   C2B13532   7.564  31.572   8.385
  767POPC   C3B13533   7.845  31.681   8.115
  767POPC   C4B13534   7.845  31.417   7.783
  768POPC   NC313535   6.290   2.547   9.388
  768POPC   PO413536   6.996   2.664   9.489
  768POPC   GL113537   6.828   2.846   9.089
  768POPC   GL213538   6.568   2.693   8.994
  768POPC   C1A13539   6.905   2.856   8.628
  768POPC   D2A13540   6.830   2.561   8.320
  768POPC   C3A13541   7.068   2.547   7.999
  768POPC   C4A13542   6.967   2.770   7.653
  768POPC   C1B13543   6.451   2.501   8.644
  768POPC   C2B13544   6.298   2.433   8.283
  768POPC   C3B13545   6.361   2.609   7.925
  768POPC   C4B13546   6.194   2.499   7.504
  769POPC   NC313547   6.401  36.319   9.569
  769POPC   PO413548   6.411  35.627   9.603
  769POPC   GL113549   6.388  35.883   9.186
  769POPC   GL213550   6.496  36.246   9.075
  769POPC   C1A13551   6.490  35.857   8.734
  769POPC   D2A13552   6.760  35.921   8.397
  769POPC   C3A13553   6.646  36.241   8.144
  769POPC   C4A13554   6.371  36.270   7.832
  769POPC   C1B13555   6.795  36.333   8.730
  769POPC   C2B13556   7.098  36.331   8.390
  769POPC   C3B13557   7.034  36.508   7.973
  769POPC   C4B13558   6.862  36.260   7.661
  770POPC   NC313559  42.706  40.376   9.788
  770POPC   PO413560  42.408  39.857   9.426
  770POPC   GL113561  42.428  39.847   8.996
  770POPC   GL213562  42.402  40.188   9.016
  770POPC   C1A13563  42.378  39.972   8.575
  770POPC   D2A13564  42.048  40.102   8.364
  770POPC   C3A13565  42.147  39.957   7.968
  770POPC   C4A13566  42.523  39.885   7.685
  770POPC   C1B13567  42.629  40.411   8.669
  770POPC   C2B13568  42.703  40.286   8.312
  770POPC   C3B13569  42.748  40.500   7.994
  770POPC   C4B13570  42.435  40.354   7.815
  771POPC   NC313571  14.460  29.647   9.488
  771POPC   PO413572  14.626  30.225   9.698
  771POPC   GL113573  14.442  30.082   9.252
  771POPC   GL213574  14.096  29.991   9.364
  771POPC   C1A13575  14.566  29.896   8.809
  771POPC   D2A13576  14.722  30.009   8.379
  771POPC   C3A13577  14.580  29.836   7.996
  771POPC   C4A13578  14.527  30.188   7.758
  771POPC   C1B13579  14.078  29.956   8.907
  771POPC   C2B13580  13.936  30.062   8.495
  771POPC   C3B13581  14.145  30.123   8.103
  771POPC   C4B13582  14.140  29.829   7.750
  772POPC   NC313583  17.716  12.771   9.390
  772POPC   PO413584  17.413  13.366   9.649
  772POPC   GL113585  17.326  13.106   9.225
  772POPC   GL213586  16.938  13.133   9.180
  772POPC   C1A13587  17.526  13.089   8.757
  772POPC   D2A13588  17.697  13.072   8.322
  772POPC   C3A13589  17.761  12.655   8.232
  772POPC   C4A13590  17.672  12.395   7.892
  772POPC   C1B13591  17.060  12.851   8.847
  772POPC   C2B13592  17.323  12.681   8.509
  772POPC   C3B13593  17.292  12.696   8.056
  772POPC   C4B13594  17.260  12.649   7.617
  773POPC   NC313595  19.833  43.983   9.569
  773POPC   PO413596  20.524  44.097   9.535
  773POPC   GL113597  20.119  44.192   9.183
  773POPC   GL213598  19.725  44.028   9.091
  773POPC   C1A13599  20.018  44.116   8.702
  773POPC   D2A13600  19.977  43.813   8.357
  773POPC   C3A13601  19.818  43.921   7.929
  773POPC   C4A13602  19.856  43.706   7.530
  773POPC   C1B13603  19.473  43.824   8.743
  773POPC   C2B13604  19.453  43.757   8.276
  773POPC   C3B13605  19.295  43.853   7.859
  773POPC   C4B13606  19.330  43.979   7.412
  774POPC   NC313607   8.177   3.071   9.521
  774POPC   PO413608   8.288   3.699   9.699
  774POPC   GL113609   8.256   3.517   9.250
  774POPC   GL213610   7.967   3.570   9.034
  774POPC   C1A13611   8.395   3.403   8.804
  774POPC   D2A13612   8.203   3.323   8.383
  774POPC   C3A13613   8.425   3.412   8.020
  774POPC   C4A13614   8.305   3.546   7.599
  774POPC   C1B13615   7.650   3.460   8.726
  774POPC   C2B13616   7.754   3.576   8.332
  774POPC   C3B13617   7.910   3.549   7.932
  774POPC   C4B13618   7.876   3.307   7.523
  775POPC   NC313619  22.245  24.894   9.592
  775POPC   PO413620  22.766  24.506   9.496
  775POPC   GL113621  22.419  24.534   9.200
  775POPC   GL213622  22.058  24.475   9.237
  775POPC   C1A13623  22.310  24.350   8.814
  775POPC   D2A13624  22.245  24.219   8.414
  775POPC   C3A13625  22.052  24.549   8.142
  775POPC   C4A13626  22.055  24.381   7.744
  775POPC   C1B13627  21.869  24.628   8.837
  775POPC   C2B13628  21.696  24.820   8.463
  775POPC   C3B13629  21.631  24.896   8.035
  775POPC   C4B13630  21.838  24.812   7.663
  776POPC   NC313631  15.346   4.284   9.659
  776POPC   PO413632  14.810   4.611   9.590
  776POPC   GL113633  15.081   4.403   9.221
  776POPC   GL213634  15.418   4.534   9.173
  776POPC   C1A13635  15.150   4.205   8.787
  776POPC   D2A13636  14.963   3.987   8.414
  776POPC   C3A13637  15.170   4.090   8.027
  776POPC   C4A13638  15.102   4.356   7.680
  776POPC   C1B13639  15.474   4.604   8.717
  776POPC   C2B13640  15.500   4.368   8.318
  776POPC   C3B13641  15.573   4.488   7.883
  776POPC   C4B13642  15.883   4.696   7.580
  777POPC   NC313643  21.241  13.299   9.671
  777POPC   PO413644  21.101  12.594   9.596
  777POPC   GL113645  21.236  12.726   9.185
  777POPC   GL213646  21.468  12.999   9.170
  777POPC   C1A13647  21.324  12.748   8.735
  777POPC   D2A13648  21.158  12.907   8.343
  777POPC   C3A13649  21.210  12.605   7.994
  777POPC   C4A13650  21.476  12.618   7.656
  777POPC   C1B13651  21.709  13.091   8.771
  777POPC   C2B13652  21.841  13.002   8.359
  777POPC   C3B13653  21.557  12.982   8.032
  777POPC   C4B13654  21.598  13.112   7.633
  778POPC   NC313655  19.073  34.963   9.368
  778POPC   PO413656  18.819  34.224   9.516
  778POPC   GL113657  18.926  34.424   9.137
  778POPC   GL213658  19.188  34.649   9.015
  778POPC   C1A13659  19.054  34.262   8.738
  778POPC   D2A13660  19.093  34.522   8.389
  778POPC   C3A13661  19.161  34.273   8.038
  778POPC   C4A13662  19.071  34.277   7.653
  778POPC   C1B13663  19.326  34.916   8.679
  778POPC   C2B13664  19.504  34.830   8.255
  778POPC   C3B13665  19.251  34.757   7.862
  778POPC   C4B13666  18.858  35.030   7.822
  779POPC   NC313667  19.758  37.872   9.634
  779POPC   PO413668  20.301  37.646   9.463
  779POPC   GL113669  19.879  37.533   9.260
  779POPC   GL213670  19.902  37.223   9.107
  779POPC   C1A13671  19.682  37.585   8.838
  779POPC   D2A13672  19.928  37.723   8.492
  779POPC   C3A13673  19.833  37.690   8.068
  779POPC   C4A13674  20.058  37.958   7.796
  779POPC   C1B13675  20.218  37.434   8.815
  779POPC   C2B13676  20.306  37.398   8.324
  779POPC   C3B13677  20.220  37.448   7.873
  779POPC   C4B13678  19.869  37.422   7.595
  780POPC   NC313679  41.100  23.471   9.392
  780POPC   PO413680  40.522  23.904   9.390
  780POPC   GL113681  40.723  23.689   9.083
  780POPC   GL213682  40.961  23.939   9.059
  780POPC   C1A13683  40.705  23.427   8.726
  780POPC   D2A13684  40.472  23.428   8.363
  780POPC   C3A13685  40.705  23.420   7.994
  780POPC   C4A13686  40.666  23.117   7.688
  780POPC   C1B13687  41.110  23.765   8.686
  780POPC   C2B13688  40.827  23.783   8.352
  780POPC   C3B13689  40.763  23.953   7.930
  780POPC   C4B13690  41.129  24.032   7.669
  781POPC   NC313691  21.988   9.882   9.460
  781POPC   PO413692  21.281   9.827   9.490
  781POPC   GL113693  21.440   9.644   9.132
  781POPC   GL213694  21.787   9.547   9.135
  781POPC   C1A13695  21.264   9.639   8.741
  781POPC   D2A13696  21.045   9.596   8.368
  781POPC   C3A13697  21.168   9.800   8.002
  781POPC   C4A13698  21.213   9.572   7.636
  781POPC   C1B13699  21.765   9.802   8.754
  781POPC   C2B13700  21.617   9.651   8.346
  781POPC   C3B13701  21.660   9.679   7.895
  781POPC   C4B13702  21.492   9.987   7.606
  782POPC   NC313703  33.028  40.260   9.587
  782POPC   PO413704  32.785  39.579   9.503
  782POPC   GL113705  32.902  39.912   9.188
  782POPC   GL213706  33.212  40.131   9.138
  782POPC   C1A13707  32.885  40.059   8.759
  782POPC   D2A13708  32.780  40.026   8.331
  782POPC   C3A13709  33.068  40.025   8.032
  782POPC   C4A13710  32.913  39.946   7.648
  782POPC   C1B13711  33.338  39.844   8.814
  782POPC   C2B13712  33.459  39.985   8.413
  782POPC   C3B13713  33.534  39.824   8.016
  782POPC   C4B13714  33.264  39.574   7.776
  783POPC   NC313715  25.322   6.836   9.586
  783POPC   PO413716  25.064   6.159   9.486
  783POPC   GL113717  25.098   6.542   9.189
  783POPC   GL213718  25.435   6.712   9.127
  783POPC   C1A13719  25.179   6.616   8.718
  783POPC   D2A13720  25.336   6.451   8.318
  783POPC   C3A13721  24.997   6.390   8.028
  783POPC   C4A13722  24.928   6.498   7.627
  783POPC   C1B13723  25.564   6.965   8.821
  783POPC   C2B13724  25.484   6.928   8.423
  783POPC   C3B13725  25.500   7.073   8.036
  783POPC   C4B13726  25.271   6.812   7.811
  784POPC   NC313727  23.438  43.966   9.481
  784POPC   PO413728  23.835  43.439   9.584
  784POPC   GL113729  23.770  43.774   9.134
  784POPC   GL213730  23.499  44.066   9.011
  784POPC   C1A13731  23.706  43.833   8.639
  784POPC   D2A13732  23.514  43.607   8.313
  784POPC   C3A13733  23.519  43.822   7.938
  784POPC   C4A13734  23.838  44.030   7.765
  784POPC   C1B13735  23.553  44.347   8.650
  784POPC   C2B13736  23.726  44.411   8.229
  784POPC   C3B13737  23.478  44.399   7.847
  784POPC   C4B13738  23.294  44.139   7.576
  785POPC   NC313739  22.307   2.497   9.459
  785POPC   PO413740  21.949   3.096   9.431
  785POPC   GL113741  22.225   2.881   9.130
  785POPC   GL213742  22.033   2.563   9.033
  785POPC   C1A13743  22.420   2.759   8.744
  785POPC   D2A13744  22.148   2.762   8.385
  785POPC   C3A13745  22.342   2.664   7.998
  785POPC   C4A13746  22.171   2.513   7.609
  785POPC   C1B13747  21.710   2.636   8.719
  785POPC   C2B13748  21.585   2.651   8.295
  785POPC   C3B13749  21.809   2.671   7.930
  785POPC   C4B13750  21.671   2.504   7.528
  786POPC   NC313751  43.451  19.847   9.903
  786POPC   PO413752  42.831  20.039   9.567
  786POPC   GL113753  42.976  19.950   9.151
  786POPC   GL213754  43.207  19.689   9.241
  786POPC   C1A13755  43.178  20.066   8.739
  786POPC   D2A13756  43.329  19.915   8.317
  786POPC   C3A13757  43.092  19.965   7.898
  786POPC   C4A13758  42.990  20.010   7.412
  786POPC   C1B13759  43.150  19.555   8.774
  786POPC   C2B13760  43.334  19.374   8.398
  786POPC   C3B13761  43.401  19.543   7.977
  786POPC   C4B13762  43.423  19.745   7.557
  787POPC   NC313763  29.261  30.368   9.543
  787POPC   PO413764  29.448  29.730   9.461
  787POPC   GL113765  29.265  29.986   9.169
  787POPC   GL213766  29.568  30.160   9.155
  787POPC   C1A13767  29.063  30.030   8.765
  787POPC   D2A13768  28.837  29.940   8.348
  787POPC   C3A13769  29.074  29.848   8.000
  787POPC   C4A13770  29.232  30.207   7.742
  787POPC   C1B13771  29.561  29.859   8.791
  787POPC   C2B13772  29.410  29.934   8.392
  787POPC   C3B13773  29.596  29.917   7.996
  787POPC   C4B13774  29.816  29.816   7.632
  788POPC   NC313775  33.651  32.830   9.622
  788POPC   PO413776  33.224  33.341   9.367
  788POPC   GL113777  33.597  33.103   9.163
  788POPC   GL213778  33.763  32.756   9.146
  788POPC   C1A13779  33.718  33.060   8.733
  788POPC   D2A13780  33.682  33.178   8.324
  788POPC   C3A13781  33.454  32.969   8.008
  788POPC   C4A13782  33.368  33.083   7.565
  788POPC   C1B13783  34.016  32.652   8.807
  788POPC   C2B13784  34.040  32.798   8.386
  788POPC   C3B13785  34.096  32.628   7.988
  788POPC   C4B13786  33.782  32.759   7.696
  789POPC   NC313787  26.688  38.019   9.501
  789POPC   PO413788  27.096  38.626   9.511
  789POPC   GL113789  26.906  38.393   9.138
  789POPC   GL213790  27.211  38.345   8.950
  789POPC   C1A13791  26.648  38.426   8.725
  789POPC   D2A13792  26.407  38.454   8.338
  789POPC   C3A13793  26.712  38.469   8.023
  789POPC   C4A13794  26.985  38.245   7.748
  789POPC   C1B13795  27.064  38.740   8.736
  789POPC   C2B13796  27.098  38.883   8.310
  789POPC   C3B13797  27.019  38.874   7.879
  789POPC   C4B13798  27.142  38.685   7.483
  790POPC   NC313799   2.538   1.688   9.455
  790POPC   PO413800   3.129   2.097   9.470
  790POPC   GL113801   2.832   1.992   9.128
  790POPC   GL213802   2.480   2.153   9.193
  790POPC   C1A13803   2.862   1.770   8.721
  790POPC   D2A13804   2.927   1.583   8.319
  790POPC   C3A13805   2.931   1.807   7.897
  790POPC   C4A13806   2.695   1.880   7.501
  790POPC   C1B13807   2.382   1.914   8.808
  790POPC   C2B13808   2.396   1.726   8.380
  790POPC   C3B13809   2.443   1.904   7.964
  790POPC   C4B13810   2.533   2.304   7.746
  791POPC   NC313811   3.042   2.541   9.364
  791POPC   PO413812   2.340   2.711   9.436
  791POPC   GL113813   2.714   2.933   9.181
  791POPC   GL213814   3.028   2.813   8.942
  791POPC   C1A13815   2.641   3.072   8.752
  791POPC   D2A13816   2.545   2.779   8.423
  791POPC   C3A13817   2.679   2.957   8.041
  791POPC   C4A13818   3.029   2.790   7.828
  791POPC   C1B13819   2.785   2.409   8.772
  791POPC   C2B13820   2.677   2.200   8.377
  791POPC   C3B13821   2.949   2.313   8.018
  791POPC   C4B13822   3.073   2.214   7.584
  792POPC   NC313823  39.097  39.682   9.441
  792POPC   PO413824  38.877  40.317   9.608
  792POPC   GL113825  38.982  40.147   9.221
  792POPC   GL213826  38.832  40.339   9.024
  792POPC   C1A13827  39.282  40.069   8.883
  792POPC   D2A13828  39.274  39.807   8.522
  792POPC   C3A13829  39.448  39.981   8.145
  792POPC   C4A13830  39.380  39.853   7.736
  792POPC   C1B13831  38.844  40.162   8.616
  792POPC   C2B13832  38.921  40.288   8.196
  792POPC   C3B13833  38.899  40.057   7.808
  792POPC   C4B13834  38.852  40.256   7.420
  793POPC   NC313835  31.074  43.113   9.633
  793POPC   PO413836  30.489  42.938   9.422
  793POPC   GL113837  30.796  43.026   9.148
  793POPC   GL213838  30.946  43.349   9.197
  793POPC   C1A13839  30.674  42.912   8.744
  793POPC   D2A13840  30.383  42.915   8.440
  793POPC   C3A13841  30.609  42.898   8.091
  793POPC   C4A13842  30.802  43.061   7.756
  793POPC   C1B13843  31.099  43.261   8.800
  793POPC   C2B13844  30.961  43.195   8.398
  793POPC   C3B13845  30.976  43.446   8.043
  793POPC   C4B13846  31.225  43.406   7.669
  794POPC   NC313847  27.320  25.836   9.491
  794POPC   PO413848  27.875  26.242   9.661
  794POPC   GL113849  27.544  26.219   9.223
  794POPC   GL213850  27.211  26.093   9.074
  794POPC   C1A13851  27.592  26.106   8.744
  794POPC   D2A13852  27.852  26.048   8.379
  794POPC   C3A13853  27.751  25.854   7.972
  794POPC   C4A13854  27.899  25.772   7.532
  794POPC   C1B13855  27.277  26.491   8.851
  794POPC   C2B13856  27.383  26.459   8.394
  794POPC   C3B13857  27.589  26.335   8.036
  794POPC   C4B13858  27.506  26.150   7.604
  795POPC   NC313859  38.857  25.763   9.457
  795POPC   PO413860  38.113  25.920   9.427
  795POPC   GL113861  38.361  25.959   9.086
  795POPC   GL213862  38.657  26.171   9.137
  795POPC   C1A13863  38.325  25.743   8.701
  795POPC   D2A13864  38.545  25.628   8.319
  795POPC   C3A13865  38.453  25.875   7.970
  795POPC   C4A13866  38.347  26.331   7.903
  795POPC   C1B13867  38.822  25.868   8.797
  795POPC   C2B13868  39.024  25.840   8.366
  795POPC   C3B13869  38.959  25.695   7.935
  795POPC   C4B13870  38.732  25.805   7.531
  796POPC   NC313871  27.167  20.485   9.478
  796POPC   PO413872  26.493  20.700   9.574
  796POPC   GL113873  26.640  20.789   9.150
  796POPC   GL213874  27.009  20.805   9.123
  796POPC   C1A13875  26.608  20.635   8.733
  796POPC   D2A13876  26.839  20.463   8.378
  796POPC   C3A13877  26.715  20.665   8.003
  796POPC   C4A13878  26.728  20.341   7.719
  796POPC   C1B13879  27.144  20.726   8.711
  796POPC   C2B13880  27.021  20.948   8.352
  796POPC   C3B13881  27.114  21.045   7.950
  796POPC   C4B13882  27.056  20.747   7.628
  797POPC   NC313883  37.370   6.115   9.406
  797POPC   PO413884  36.871   5.690   9.573
  797POPC   GL113885  36.855   5.716   9.135
  797POPC   GL213886  36.995   6.052   9.046
  797POPC   C1A13887  36.924   5.670   8.690
  797POPC   D2A13888  37.184   5.724   8.336
  797POPC   C3A13889  36.946   5.954   8.069
  797POPC   C4A13890  36.773   5.859   7.725
  797POPC   C1B13891  37.264   6.096   8.698
  797POPC   C2B13892  37.328   6.227   8.278
  797POPC   C3B13893  37.308   6.214   7.833
  797POPC   C4B13894  37.190   6.569   7.608
  798POPC   NC313895   8.640   6.000   9.422
  798POPC   PO413896   9.009   5.521   9.595
  798POPC   GL113897   8.990   5.652   9.195
  798POPC   GL213898   9.192   5.415   9.072
  798POPC   C1A13899   8.869   5.904   8.824
  798POPC   D2A13900   9.046   6.145   8.506
  798POPC   C3A13901   8.941   6.068   8.092
  798POPC   C4A13902   9.079   5.967   7.690
  798POPC   C1B13903   8.829   5.396   8.782
  798POPC   C2B13904   8.880   5.614   8.395
  798POPC   C3B13905   8.960   5.569   7.979
  798POPC   C4B13906   8.671   5.498   7.668
  799POPC   NC313907   5.510  39.335   9.497
  799POPC   PO413908   6.068  38.957   9.504
  799POPC   GL113909   5.987  39.108   9.137
  799POPC   GL213910   5.666  39.003   9.134
  799POPC   C1A13911   6.097  39.168   8.717
  799POPC   D2A13912   5.875  39.129   8.351
  799POPC   C3A13913   5.993  39.290   7.975
  799POPC   C4A13914   6.278  39.420   7.673
  799POPC   C1B13915   5.618  38.857   8.734
  799POPC   C2B13916   5.470  38.810   8.292
  799POPC   C3B13917   5.596  38.921   7.852
  799POPC   C4B13918   5.562  38.770   7.395
  800POPC   NC313919  44.849  44.889   9.561
  800POPC   PO413920  44.356  44.439   9.598
  800POPC   GL113921  44.530  44.560   9.185
  800POPC   GL213922  44.879  44.605   9.145
  800POPC   C1A13923  44.643  44.644   8.715
  800POPC   D2A13924  44.457  44.807   8.367
  800POPC   C3A13925  44.536  44.502   8.068
  800POPC   C4A13926  44.274  44.512   7.742
  800POPC   C1B13927   0.012  44.964   8.860
  800POPC   C2B13928   0.047  44.907   8.403
  800POPC   C3B13929  44.799  44.948   8.020
  800POPC   C4B13930  44.717  44.723   7.641
  801POPC   NC313931  21.671  25.222   9.501
  801POPC   PO413932  21.027  25.121   9.346
  801POPC   GL113933  21.376  25.142   9.075
  801POPC   GL213934  21.534  25.449   9.061
  801POPC   C1A13935  21.359  25.206   8.635
  801POPC   D2A13936  21.135  25.502   8.368
  801POPC   C3A13937  21.199  25.347   7.956
  801POPC   C4A13938  21.324  25.416   7.524
  801POPC   C1B13939  21.654  25.622   8.681
  801POPC   C2B13940  21.642  25.500   8.269
  801POPC   C3B13941  21.547  25.717   7.902
  801POPC   C4B13942  21.690  25.776   7.484
  802POPC   NC313943   6.547  43.775   9.620
  802POPC   PO413944   6.475  44.348   9.418
  802POPC   GL113945   6.710  43.981   9.177
  802POPC   GL213946   6.604  43.625   9.145
  802POPC   C1A13947   6.810  43.976   8.737
  802POPC   D2A13948   6.617  44.092   8.394
  802POPC   C3A13949   6.826  43.891   8.100
  802POPC   C4A13950   6.682  43.846   7.721
  802POPC   C1B13951   6.517  43.541   8.719
  802POPC   C2B13952   6.779  43.442   8.401
  802POPC   C3B13953   6.639  43.420   7.994
  802POPC   C4B13954   6.718  43.222   7.638
  803POPC   NC313955   1.532  16.874   9.418
  803POPC   PO413956   1.051  16.467   9.703
  803POPC   GL113957   1.185  16.549   9.236
  803POPC   GL213958   1.119  16.913   9.092
  803POPC   C1A13959   1.428  16.609   8.824
  803POPC   D2A13960   1.289  16.814   8.440
  803POPC   C3A13961   1.421  16.566   8.098
  803POPC   C4A13962   1.286  16.548   7.689
  803POPC   C1B13963   1.458  17.126   8.814
  803POPC   C2B13964   1.601  17.229   8.373
  803POPC   C3B13965   1.435  17.068   7.986
  803POPC   C4B13966   1.021  16.943   7.859
  804POPC   NC313967  41.706  15.832   9.636
  804POPC   PO413968  41.517  16.368   9.515
  804POPC   GL113969  41.767  16.157   9.196
  804POPC   GL213970  41.695  15.806   9.141
  804POPC   C1A13971  41.659  16.114   8.748
  804POPC   D2A13972  41.488  16.293   8.344
  804POPC   C3A13973  41.773  16.314   8.009
  804POPC   C4A13974  41.727  16.140   7.660
  804POPC   C1B13975  41.401  15.653   8.864
  804POPC   C2B13976  41.497  15.732   8.447
  804POPC   C3B13977  41.579  15.837   8.068
  804POPC   C4B13978  41.825  15.661   7.772
  805POPC   NC313979  10.646  22.689   9.466
  805POPC   PO413980  10.343  23.247   9.540
  805POPC   GL113981  10.489  23.105   9.157
  805POPC   GL213982  10.462  22.772   9.000
  805POPC   C1A13983  10.549  23.184   8.734
  805POPC   D2A13984  10.552  22.992   8.352
  805POPC   C3A13985  10.377  23.223   8.027
  805POPC   C4A13986  10.406  23.139   7.571
  805POPC   C1B13987  10.150  22.853   8.652
  805POPC   C2B13988  10.122  22.754   8.200
  805POPC   C3B13989  10.418  22.724   7.865
  805POPC   C4B13990  10.329  22.631   7.405
  806POPC   NC313991  31.769   8.840   9.793
  806POPC   PO413992  31.284   9.253   9.592
  806POPC   GL113993  31.270   9.149   9.192
  806POPC   GL213994  31.604   8.997   9.205
  806POPC   C1A13995  31.314   8.887   8.792
  806POPC   D2A13996  31.318   9.034   8.395
  806POPC   C3A13997  31.274   8.833   8.017
  806POPC   C4A13998  31.611   8.733   7.766
  806POPC   C1B13999  31.774   9.117   8.787
  806POPC   C2B14000  31.693   9.376   8.434
  806POPC   C3B14001  31.731   9.179   8.054
  806POPC   C4B14002  31.938   9.202   7.679
  807POPC   NC314003  31.854  17.714   9.603
  807POPC   PO414004  31.235  17.385   9.630
  807POPC   GL114005  31.511  17.496   9.281
  807POPC   GL214006  31.388  17.826   9.358
  807POPC   C1A14007  31.482  17.418   8.813
  807POPC   D2A14008  31.287  17.430   8.371
  807POPC   C3A14009  31.460  17.358   7.943
  807POPC   C4A14010  31.482  17.087   7.574
  807POPC   C1B14011  31.506  17.894   8.932
  807POPC   C2B14012  31.488  17.872   8.522
  807POPC   C3B14013  31.516  17.863   8.100
  807POPC   C4B14014  31.385  17.915   7.680
  808POPC   NC314015  29.647  31.070   9.203
  808POPC   PO414016  29.958  31.625   9.587
  808POPC   GL114017  30.072  31.594   9.126
  808POPC   GL214018  29.764  31.531   9.002
  808POPC   C1A14019  30.255  31.426   8.726
  808POPC   D2A14020  30.103  31.537   8.264
  808POPC   C3A14021  30.233  31.359   7.891
  808POPC   C4A14022  30.118  31.170   7.516
  808POPC   C1B14023  29.779  31.339   8.590
  808POPC   C2B14024  29.544  31.396   8.205
  808POPC   C3B14025  29.616  31.260   7.783
  808POPC   C4B14026  29.366  31.247   7.397
  809POPC   NC314027  40.759  19.314   9.368
  809POPC   PO414028  40.461  18.550   9.392
  809POPC   GL114029  40.609  18.857   9.114
  809POPC   GL214030  40.967  18.899   9.130
  809POPC   C1A14031  40.732  18.996   8.691
  809POPC   D2A14032  40.719  18.852   8.279
  809POPC   C3A14033  40.683  19.194   8.013
  809POPC   C4A14034  40.486  19.280   7.636
  809POPC   C1B14035  41.158  18.720   8.788
  809POPC   C2B14036  41.281  18.905   8.380
  809POPC   C3B14037  41.123  18.872   7.948
  809POPC   C4B14038  40.998  19.109   7.590
  810POPC   NC314039   7.963  31.830   9.504
  810POPC   PO414040   8.544  31.553   9.340
  810POPC   GL114041   8.274  31.376   9.076
  810POPC   GL214042   8.092  31.673   9.031
  810POPC   C1A14043   8.132  31.308   8.666
  810POPC   D2A14044   8.345  31.239   8.275
  810POPC   C3A14045   8.145  31.033   7.935
  810POPC   C4A14046   8.330  31.247   7.662
  810POPC   C1B14047   8.316  31.822   8.662
  810POPC   C2B14048   8.489  31.801   8.227
  810POPC   C3B14049   8.275  31.716   7.821
  810POPC   C4B14050   7.969  31.771   7.435
  811POPC   NC314051   4.045   5.778   9.470
  811POPC   PO414052   4.515   6.290   9.434
  811POPC   GL114053   4.376   5.973   9.143
  811POPC   GL214054   4.510   5.645   9.261
  811POPC   C1A14055   4.136   5.983   8.750
  811POPC   D2A14056   4.047   6.190   8.377
  811POPC   C3A14057   4.225   6.057   8.012
  811POPC   C4A14058   4.004   5.730   7.824
  811POPC   C1B14059   4.571   5.645   8.801
  811POPC   C2B14060   4.293   5.585   8.450
  811POPC   C3B14061   4.436   5.578   8.054
  811POPC   C4B14062   4.830   5.740   7.900
  812POPC   NC314063  25.215  10.188   9.563
  812POPC   PO414064  25.480  10.781   9.460
  812POPC   GL114065  25.182  10.555   9.197
  812POPC   GL214066  25.336  10.217   9.058
  812POPC   C1A14067  24.963  10.455   8.828
  812POPC   D2A14068  25.272  10.408   8.520
  812POPC   C3A14069  25.142  10.598   8.160
  812POPC   C4A14070  25.075  10.506   7.749
  812POPC   C1B14071  25.700  10.195   8.737
  812POPC   C2B14072  25.686  10.174   8.306
  812POPC   C3B14073  25.410  10.176   7.975
  812POPC   C4B14074  25.736  10.104   7.700
  813POPC   NC314075  13.721  12.505   9.249
  813POPC   PO414076  13.481  13.107   9.565
  813POPC   GL114077  13.530  13.123   9.114
  813POPC   GL214078  13.896  13.104   9.155
  813POPC   C1A14079  13.336  12.992   8.665
  813POPC   D2A14080  13.263  12.789   8.196
  813POPC   C3A14081  13.524  12.582   7.847
  813POPC   C4A14082  13.352  12.328   7.487
  813POPC   C1B14083  13.853  13.034   8.706
  813POPC   C2B14084  13.665  13.112   8.278
  813POPC   C3B14085  13.689  13.126   7.821
  813POPC   C4B14086  13.967  12.958   7.485
  814POPC   NC314087  33.286  29.554   9.322
  814POPC   PO414088  33.214  30.113   9.659
  814POPC   GL114089  33.007  29.997   9.208
  814POPC   GL214090  32.922  29.660   8.984
  814POPC   C1A14091  33.184  30.083   8.804
  814POPC   D2A14092  33.112  30.007   8.359
  814POPC   C3A14093  33.278  30.208   8.014
  814POPC   C4A14094  33.278  29.937   7.668
  814POPC   C1B14095  32.698  29.930   8.720
  814POPC   C2B14096  32.688  30.268   8.418
  814POPC   C3B14097  32.740  30.118   7.991
  814POPC   C4B14098  32.770  29.718   7.816
  815POPC   NC314099  25.243  14.873   9.550
  815POPC   PO414100  25.108  15.430   9.446
  815POPC   GL114101  25.352  15.138   9.119
  815POPC   GL214102  25.502  14.789   9.103
  815POPC   C1A14103  25.268  15.019   8.672
  815POPC   D2A14104  25.240  15.305   8.305
  815POPC   C3A14105  25.086  15.136   7.919
  815POPC   C4A14106  25.182  15.419   7.571
  815POPC   C1B14107  25.719  14.778   8.662
  815POPC   C2B14108  25.562  14.918   8.216
  815POPC   C3B14109  25.580  15.194   7.815
  815POPC   C4B14110  25.506  15.128   7.342
  816POPC   NC314111   8.108  25.580   9.444
  816POPC   PO414112   8.113  24.961   9.572
  816POPC   GL114113   8.050  25.113   9.163
  816POPC   GL214114   7.820  25.380   9.094
  816POPC   C1A14115   8.273  25.058   8.771
  816POPC   D2A14116   8.502  25.206   8.401
  816POPC   C3A14117   8.338  25.088   8.014
  816POPC   C4A14118   8.141  25.172   7.618
  816POPC   C1B14119   7.981  25.548   8.736
  816POPC   C2B14120   8.222  25.614   8.368
  816POPC   C3B14121   8.149  25.560   7.966
  816POPC   C4B14122   7.889  25.687   7.676
  817POPC   NC314123  37.137  38.163   9.460
  817POPC   PO414124  36.817  38.819   9.475
  817POPC   GL114125  36.796  38.519   9.137
  817POPC   GL214126  36.674  38.178   9.192
  817POPC   C1A14127  37.020  38.527   8.748
  817POPC   D2A14128  36.992  38.772   8.375
  817POPC   C3A14129  36.998  38.526   8.051
  817POPC   C4A14130  36.850  38.448   7.661
  817POPC   C1B14131  36.768  38.076   8.781
  817POPC   C2B14132  36.976  38.133   8.407
  817POPC   C3B14133  36.787  38.080   8.025
  817POPC   C4B14134  36.842  37.921   7.640
  818POPC   NC314135   9.335   7.190   9.382
  818POPC   PO414136   8.671   7.328   9.606
  818POPC   GL114137   8.839   7.240   9.189
  818POPC   GL214138   8.969   7.540   9.120
  818POPC   C1A14139   9.038   7.173   8.758
  818POPC   D2A14140   9.291   7.021   8.388
  818POPC   C3A14141   9.089   7.027   7.972
  818POPC   C4A14142   8.770   7.311   7.872
  818POPC   C1B14143   9.010   7.696   8.670
  818POPC   C2B14144   8.915   7.679   8.198
  818POPC   C3B14145   8.994   7.789   7.733
  818POPC   C4B14146   9.133   7.789   7.268
  819POPC   NC314147  18.930   5.618   9.533
  819POPC   PO414148  19.245   6.185   9.578
  819POPC   GL114149  18.919   6.091   9.210
  819POPC   GL214150  18.941   5.749   9.051
  819POPC   C1A14151  18.842   6.131   8.718
  819POPC   D2A14152  18.694   6.270   8.284
  819POPC   C3A14153  18.704   5.930   7.963
  819POPC   C4A14154  18.821   5.980   7.528
  819POPC   C1B14155  19.160   5.711   8.664
  819POPC   C2B14156  19.130   5.939   8.276
  819POPC   C3B14157  19.209   5.793   7.871
  819POPC   C4B14158  19.120   5.347   7.834
  820POPC   NC314159   8.653   6.888   9.781
  820POPC   PO414160   9.160   6.759   9.393
  820POPC   GL114161   8.967   6.739   9.048
  820POPC   GL214162   8.665   6.760   9.194
  820POPC   C1A14163   9.040   6.661   8.627
  820POPC   D2A14164   9.096   6.559   8.205
  820POPC   C3A14165   9.006   6.527   7.784
  820POPC   C4A14166   8.859   6.328   7.419
  820POPC   C1B14167   8.587   6.910   8.756
  820POPC   C2B14168   8.730   6.983   8.338
  820POPC   C3B14169   8.585   6.847   7.919
  820POPC   C4B14170   8.812   6.928   7.516
  821POPC   NC314171  22.998  37.533   9.546
  821POPC   PO414172  22.840  38.168   9.511
  821POPC   GL114173  23.029  37.934   9.138
  821POPC   GL214174  23.162  37.558   9.068
  821POPC   C1A14175  22.949  37.864   8.705
  821POPC   D2A14176  23.045  37.494   8.422
  821POPC   C3A14177  22.859  37.561   8.001
  821POPC   C4A14178  22.665  37.542   7.579
  821POPC   C1B14179  23.449  37.802   8.804
  821POPC   C2B14180  23.345  37.905   8.378
  821POPC   C3B14181  23.206  37.957   7.970
  821POPC   C4B14182  23.165  37.707   7.608
  822POPC   NC314183  24.436  30.048   9.510
  822POPC   PO414184  25.118  30.297   9.501
  822POPC   GL114185  24.748  30.237   9.141
  822POPC   GL214186  24.577  29.869   9.059
  822POPC   C1A14187  24.707  30.174   8.672
  822POPC   D2A14188  24.538  29.972   8.291
  822POPC   C3A14189  24.641  30.002   7.854
  822POPC   C4A14190  24.272  30.035   7.591
  822POPC   C1B14191  24.243  29.895   8.715
  822POPC   C2B14192  24.121  29.619   8.350
  822POPC   C3B14193  24.245  29.614   7.901
  822POPC   C4B14194  24.016  29.592   7.469
  823POPC   NC314195  26.756   7.620   9.303
  823POPC   PO414196  27.218   7.182   9.646
  823POPC   GL114197  27.161   7.284   9.211
  823POPC   GL214198  26.876   7.077   9.150
  823POPC   C1A14199  27.014   7.362   8.758
  823POPC   D2A14200  26.800   7.321   8.364
  823POPC   C3A14201  26.942   7.585   8.032
  823POPC   C4A14202  27.111   7.315   7.739
  823POPC   C1B14203  26.547   7.112   8.802
  823POPC   C2B14204  26.307   7.358   8.477
  823POPC   C3B14205  26.381   7.511   8.084
  823POPC   C4B14206  26.574   7.244   7.793
  824POPC   NC314207  44.274  38.300   9.475
  824POPC   PO414208  44.961  38.497   9.475
  824POPC   GL114209  44.861  38.579   9.059
  824POPC   GL214210  44.538  38.428   9.077
  824POPC   C1A14211  44.734  38.491   8.640
  824POPC   D2A14212  44.570  38.422   8.290
  824POPC   C3A14213  44.975  38.494   8.117
  824POPC   C4A14214   0.036  38.860   7.851
  824POPC   C1B14215  44.450  38.077   8.793
  824POPC   C2B14216  44.319  37.927   8.376
  824POPC   C3B14217  44.412  38.066   7.956
  824POPC   C4B14218  44.621  38.445   7.772
  825POPC   NC314219  13.955  35.833   9.467
  825POPC   PO414220  13.326  36.173   9.491
  825POPC   GL114221  13.438  36.247   9.081
  825POPC   GL214222  13.667  35.967   9.069
  825POPC   C1A14223  13.566  36.197   8.639
  825POPC   D2A14224  13.772  36.458   8.338
  825POPC   C3A14225  13.637  36.272   7.948
  825POPC   C4A14226  13.325  35.999   7.768
  825POPC   C1B14227  13.807  35.702   8.710
  825POPC   C2B14228  13.972  35.565   8.299
  825POPC   C3B14229  14.008  35.828   7.912
  825POPC   C4B14230  13.847  36.035   7.529
  826POPC   NC314231  22.253  12.528   9.455
  826POPC   PO414232  21.877  13.192   9.397
  826POPC   GL114233  22.012  12.879   9.138
  826POPC   GL214234  22.349  12.940   9.141
  826POPC   C1A14235  22.057  12.721   8.715
  826POPC   D2A14236  21.952  12.480   8.318
  826POPC   C3A14237  21.981  12.741   7.917
  826POPC   C4A14238  21.935  12.768   7.449
  826POPC   C1B14239  22.557  12.841   8.777
  826POPC   C2B14240  22.390  13.009   8.408
  826POPC   C3B14241  22.456  13.137   8.021
  826POPC   C4B14242  22.422  12.870   7.699
  827POPC   NC314243  30.319  43.732   9.413
  827POPC   PO414244  30.998  43.637   9.615
  827POPC   GL114245  30.840  43.950   9.288
  827POPC   GL214246  30.663  43.756   9.046
  827POPC   C1A14247  30.870  44.152   8.834
  827POPC   D2A14248  30.701  44.177   8.407
  827POPC   C3A14249  30.737  43.920   7.986
  827POPC   C4A14250  30.818  44.027   7.550
  827POPC   C1B14251  30.734  43.657   8.604
  827POPC   C2B14252  30.496  43.404   8.305
  827POPC   C3B14253  30.456  43.440   7.885
  827POPC   C4B14254  30.735  43.534   7.568
  828POPC   NC314255   3.298   1.576   9.411
  828POPC   PO414256   3.776   1.952   9.550
  828POPC   GL114257   3.566   2.042   9.175
  828POPC   GL214258   3.793   2.194   8.899
  828POPC   C1A14259   3.352   1.913   8.808
  828POPC   D2A14260   3.180   2.059   8.398
  828POPC   C3A14261   3.413   2.061   7.977
  828POPC   C4A14262   3.472   1.867   7.555
  828POPC   C1B14263   3.866   1.740   8.886
  828POPC   C2B14264   3.957   1.598   8.487
  828POPC   C3B14265   3.845   1.748   8.061
  828POPC   C4B14266   3.946   2.014   7.714
  829POPC   NC314267  31.652  28.106   9.486
  829POPC   PO414268  31.810  27.559   9.496
  829POPC   GL114269  31.626  27.717   9.050
  829POPC   GL214270  31.360  28.001   9.076
  829POPC   C1A14271  31.578  27.532   8.583
  829POPC   D2A14272  31.382  27.257   8.251
  829POPC   C3A14273  31.240  27.445   7.856
  829POPC   C4A14274  31.448  27.491   7.451
  829POPC   C1B14275  31.378  28.002   8.617
  829POPC   C2B14276  31.278  27.819   8.221
  829POPC   C3B14277  31.397  27.948   7.799
  829POPC   C4B14278  31.715  28.253   7.674
  830POPC   NC314279  14.992  14.192   9.468
  830POPC   PO414280  15.473  14.635   9.398
  830POPC   GL114281  15.375  14.332   9.100
  830POPC   GL214282  15.014  14.278   8.982
  830POPC   C1A14283  15.450  14.410   8.679
  830POPC   D2A14284  15.359  14.251   8.293
  830POPC   C3A14285  15.493  14.538   7.996
  830POPC   C4A14286  15.542  14.225   7.706
  830POPC   C1B14287  14.958  14.626   8.743
  830POPC   C2B14288  15.082  14.692   8.353
  830POPC   C3B14289  14.985  14.484   7.979
  830POPC   C4B14290  14.785  14.708   7.690
  831POPC   NC314291   1.544  42.886   9.426
  831POPC   PO414292   1.879  43.465   9.459
  831POPC   GL114293   1.779  43.231   9.069
  831POPC   GL214294   1.770  42.870   8.975
  831POPC   C1A14295   1.947  43.266   8.671
  831POPC   D2A14296   2.072  43.211   8.257
  831POPC   C3A14297   1.978  43.333   7.822
  831POPC   C4A14298   2.244  43.177   7.470
  831POPC   C1B14299   2.143  42.805   8.743
  831POPC   C2B14300   2.267  42.704   8.328
  831POPC   C3B14301   2.275  42.891   7.932
  831POPC   C4B14302   1.930  42.819   7.703
  832POPC   NC314303  17.910  40.884   9.615
  832POPC   PO414304  18.104  40.228   9.837
  832POPC   GL114305  18.187  40.504   9.386
  832POPC   GL214306  17.874  40.548   9.234
  832POPC   C1A14307  18.218  40.553   8.847
  832POPC   D2A14308  18.314  40.823   8.434
  832POPC   C3A14309  18.406  40.780   7.961
  832POPC   C4A14310  18.145  40.693   7.619
  832POPC   C1B14311  17.874  40.907   8.930
  832POPC   C2B14312  17.829  41.035   8.478
  832POPC   C3B14313  17.938  40.954   8.062
  832POPC   C4B14314  17.840  41.098   7.652
  833POPC   NC314315  42.204  11.956   9.684
  833POPC   PO414316  42.599  11.478   9.434
  833POPC   GL114317  42.501  11.895   9.252
  833POPC   GL214318  42.151  11.968   9.176
  833POPC   C1A14319  42.561  12.065   8.834
  833POPC   D2A14320  42.771  12.201   8.430
  833POPC   C3A14321  42.541  12.153   8.019
  833POPC   C4A14322  42.388  11.804   7.748
  833POPC   C1B14323  42.048  12.192   8.815
  833POPC   C2B14324  42.202  12.165   8.397
  833POPC   C3B14325  42.000  12.063   7.982
  833POPC   C4B14326  41.909  11.811   7.581
  834POPC   NC314327   6.305   7.144   9.448
  834POPC   PO414328   7.020   7.223   9.508
  834POPC   GL114329   6.693   7.427   9.235
  834POPC   GL214330   6.571   7.772   9.254
  834POPC   C1A14331   6.786   7.349   8.820
  834POPC   D2A14332   6.797   7.512   8.423
  834POPC   C3A14333   6.825   7.218   8.106
  834POPC   C4A14334   6.599   7.314   7.739
  834POPC   C1B14335   6.569   7.827   8.812
  834POPC   C2B14336   6.490   7.919   8.369
  834POPC   C3B14337   6.683   7.773   7.973
  834POPC   C4B14338   6.732   7.775   7.516
  835POPC   NC314339  12.532  34.928   9.489
  835POPC   PO414340  12.773  34.238   9.373
  835POPC   GL114341  12.652  34.416   9.014
  835POPC   GL214342  12.806  34.723   9.103
  835POPC   C1A14343  12.702  34.295   8.589
  835POPC   D2A14344  12.655  34.298   8.162
  835POPC   C3A14345  12.983  34.342   7.912
  835POPC   C4A14346  12.909  34.411   7.503
  835POPC   C1B14347  12.907  34.763   8.684
  835POPC   C2B14348  13.019  34.712   8.267
  835POPC   C3B14349  12.801  34.817   7.889
  835POPC   C4B14350  12.898  35.086   7.568
  836POPC   NC314351  11.951  18.249   9.772
  836POPC   PO414352  12.582  18.511   9.733
  836POPC   GL114353  12.345  18.595   9.293
  836POPC   GL214354  11.984  18.516   9.321
  836POPC   C1A14355  12.348  18.339   8.878
  836POPC   D2A14356  12.155  18.250   8.502
  836POPC   C3A14357  12.270  18.172   8.083
  836POPC   C4A14358  11.938  18.033   7.849
  836POPC   C1B14359  11.822  18.313   8.947
  836POPC   C2B14360  11.701  18.480   8.554
  836POPC   C3B14361  11.809  18.447   8.161
  836POPC   C4B14362  11.999  18.533   7.778
  837POPC   NC314363  23.973  12.119   9.524
  837POPC   PO414364  24.708  12.117   9.489
  837POPC   GL114365  24.372  12.144   9.184
  837POPC   GL214366  24.234  12.490   9.193
  837POPC   C1A14367  24.302  12.065   8.731
  837POPC   D2A14368  24.290  12.296   8.362
  837POPC   C3A14369  24.490  12.122   8.008
  837POPC   C4A14370  24.260  12.197   7.664
  837POPC   C1B14371  24.595  12.508   8.885
  837POPC   C2B14372  24.779  12.374   8.509
  837POPC   C3B14373  24.725  12.557   8.143
  837POPC   C4B14374  24.618  12.550   7.729
  838POPC   NC314375  12.710   3.957   9.725
  838POPC   PO414376  13.103   4.500   9.484
  838POPC   GL114377  12.980   4.538   9.025
  838POPC   GL214378  12.639   4.293   8.867
  838POPC   C1A14379  13.110   4.283   8.675
  838POPC   D2A14380  12.851   4.311   8.360
  838POPC   C3A14381  12.951   4.242   7.955
  838POPC   C4A14382  12.855   3.898   7.764
  838POPC   C1B14383  12.614   4.660   8.708
  838POPC   C2B14384  12.663   4.784   8.340
  838POPC   C3B14385  12.543   4.563   8.034
  838POPC   C4B14386  12.647   4.660   7.672
  839POPC   NC314387  14.152  28.134   9.780
  839POPC   PO414388  14.166  28.427   9.266
  839POPC   GL114389  14.323  28.393   8.953
  839POPC   GL214390  14.548  28.121   8.970
  839POPC   C1A14391  14.112  28.510   8.588
  839POPC   D2A14392  14.294  28.708   8.276
  839POPC   C3A14393  14.412  28.398   8.033
  839POPC   C4A14394  14.165  28.352   7.670
  839POPC   C1B14395  14.577  28.272   8.540
  839POPC   C2B14396  14.791  28.085   8.235
  839POPC   C3B14397  14.789  28.106   7.825
  839POPC   C4B14398  14.646  28.465   7.583
  840POPC   NC314399  37.620   0.835   9.339
  840POPC   PO414400  38.062   0.439   9.625
  840POPC   GL114401  37.923   0.406   9.206
  840POPC   GL214402  37.572   0.325   9.129
  840POPC   C1A14403  37.929   0.518   8.787
  840POPC   D2A14404  37.958   0.306   8.417
  840POPC   C3A14405  37.774   0.413   8.054
  840POPC   C4A14406  37.528   0.095   7.870
  840POPC   C1B14407  37.458   0.300   8.666
  840POPC   C2B14408  37.329   0.532   8.275
  840POPC   C3B14409  37.345   0.583   7.815
  840POPC   C4B14410  37.687   0.815   7.623
  841POPC   NC314411  33.260  30.592   9.641
  841POPC   PO414412  32.707  30.537   9.464
  841POPC   GL114413  33.048  30.600   9.151
  841POPC   GL214414  33.419  30.730   9.168
  841POPC   C1A14415  33.036  30.552   8.708
  841POPC   D2A14416  32.938  30.781   8.352
  841POPC   C3A14417  32.926  30.588   8.019
  841POPC   C4A14418  32.988  30.439   7.636
  841POPC   C1B14419  33.412  30.873   8.706
  841POPC   C2B14420  33.427  30.680   8.280
  841POPC   C3B14421  33.382  30.790   7.838
  841POPC   C4B14422  33.318  30.756   7.385
  842POPC   NC314423   1.452  24.331   9.348
  842POPC   PO414424   0.783  24.232   9.558
  842POPC   GL114425   0.982  24.176   9.155
  842POPC   GL214426   1.050  24.525   9.123
  842POPC   C1A14427   1.181  24.252   8.692
  842POPC   D2A14428   1.441  24.121   8.298
  842POPC   C3A14429   1.482  24.404   7.923
  842POPC   C4A14430   1.509  24.457   7.459
  842POPC   C1B14431   0.989  24.793   8.812
  842POPC   C2B14432   1.083  24.690   8.408
  842POPC   C3B14433   0.952  24.810   8.043
  842POPC   C4B14434   1.008  24.763   7.648
  843POPC   NC314435   9.255  30.672   9.842
  843POPC   PO414436   8.749  30.574   9.349
  843POPC   GL114437   8.758  30.598   8.959
  843POPC   GL214438   8.929  30.880   8.961
  843POPC   C1A14439   9.024  30.518   8.622
  843POPC   D2A14440   9.001  30.247   8.292
  843POPC   C3A14441   8.988  30.464   7.909
  843POPC   C4A14442   9.108  30.251   7.528
  843POPC   C1B14443   9.183  31.032   8.649
  843POPC   C2B14444   9.263  30.940   8.218
  843POPC   C3B14445   9.062  31.052   7.839
  843POPC   C4B14446   8.831  30.813   7.522
  844POPC   NC314447  33.132   5.451   9.591
  844POPC   PO414448  32.655   5.955   9.513
  844POPC   GL114449  32.896   5.715   9.216
  844POPC   GL214450  33.234   5.811   9.192
  844POPC   C1A14451  32.937   5.618   8.791
  844POPC   D2A14452  32.850   5.875   8.440
  844POPC   C3A14453  32.836   5.660   8.068
  844POPC   C4A14454  33.180   5.540   7.836
  844POPC   C1B14455  33.000   6.145   8.891
  844POPC   C2B14456  32.811   6.379   8.506
  844POPC   C3B14457  32.819   6.232   8.056
  844POPC   C4B14458  33.107   6.297   7.664
  845POPC   NC314459   4.027  38.897   9.206
  845POPC   PO414460   3.436  38.992   9.536
  845POPC   GL114461   3.380  39.020   9.108
  845POPC   GL214462   3.082  38.855   9.073
  845POPC   C1A14463   3.338  39.143   8.685
  845POPC   D2A14464   3.070  39.335   8.390
  845POPC   C3A14465   3.187  39.506   7.996
  845POPC   C4A14466   3.568  39.368   7.697
  845POPC   C1B14467   3.139  38.660   8.650
  845POPC   C2B14468   3.442  38.789   8.310
  845POPC   C3B14469   3.684  38.916   7.923
  845POPC   C4B14470   3.449  38.919   7.499
  846POPC   NC314471  13.121   4.954   9.486
  846POPC   PO414472  12.548   5.332   9.513
  846POPC   GL114473  12.742   5.398   9.101
  846POPC   GL214474  12.712   5.013   9.121
  846POPC   C1A14475  12.786   5.451   8.622
  846POPC   D2A14476  13.008   5.163   8.310
  846POPC   C3A14477  12.823   5.089   7.891
  846POPC   C4A14478  12.559   5.121   7.475
  846POPC   C1B14479  12.966   5.012   8.810
  846POPC   C2B14480  13.131   4.745   8.545
  846POPC   C3B14481  13.127   4.686   8.116
  846POPC   C4B14482  13.143   4.734   7.695
  847POPC   NC314483  13.584   4.523   9.507
  847POPC   PO414484  13.268   4.018   9.277
  847POPC   GL114485  13.452   4.341   9.058
  847POPC   GL214486  13.776   4.271   9.078
  847POPC   C1A14487  13.598   4.606   8.730
  847POPC   D2A14488  13.524   4.445   8.348
  847POPC   C3A14489  13.651   4.617   7.957
  847POPC   C4A14490  13.470   4.348   7.664
  847POPC   C1B14491  13.934   3.941   8.805
  847POPC   C2B14492  13.827   3.920   8.370
  847POPC   C3B14493  13.756   4.110   8.012
  847POPC   C4B14494  14.003   4.253   7.691
  848POPC   NC314495  41.160  42.961   9.536
  848POPC   PO414496  41.802  43.182   9.693
  848POPC   GL114497  41.842  43.208   9.220
  848POPC   GL214498  41.981  43.493   9.036
  848POPC   C1A14499  41.540  43.087   8.872
  848POPC   D2A14500  41.303  43.202   8.477
  848POPC   C3A14501  41.454  43.286   8.052
  848POPC   C4A14502  41.339  43.080   7.663
  848POPC   C1B14503  41.834  43.379   8.582
  848POPC   C2B14504  41.770  42.973   8.372
  848POPC   C3B14505  41.864  42.991   7.948
  848POPC   C4B14506  42.028  43.450   7.839
  849POPC   NC314507  39.939  13.275   9.474
  849POPC   PO414508  40.381  12.708   9.540
  849POPC   GL114509  40.128  12.826   9.215
  849POPC   GL214510  40.274  13.128   9.112
  849POPC   C1A14511  39.843  12.744   8.874
  849POPC   D2A14512  39.882  12.573   8.462
  849POPC   C3A14513  39.654  12.805   8.161
  849POPC   C4A14514  39.702  12.690   7.763
  849POPC   C1B14515  40.322  12.949   8.736
  849POPC   C2B14516  40.360  12.781   8.362
  849POPC   C3B14517  40.142  12.779   7.995
  849POPC   C4B14518  40.115  12.882   7.526
  850POPC   NC314519  24.118  42.841   9.177
  850POPC   PO414520  24.453  43.362   9.519
  850POPC   GL114521  24.458  43.428   9.104
  850POPC   GL214522  24.105  43.374   9.118
  850POPC   C1A14523  24.710  43.344   8.709
  850POPC   D2A14524  24.752  43.046   8.355
  850POPC   C3A14525  24.830  43.042   7.905
  850POPC   C4A14526  24.550  42.797   7.620
  850POPC   C1B14527  24.194  43.603   8.709
  850POPC   C2B14528  24.402  43.485   8.317
  850POPC   C3B14529  24.328  43.141   8.034
  850POPC   C4B14530  24.170  43.176   7.634
  851POPC   NC314531  26.339  12.955   9.530
  851POPC   PO414532  25.743  13.153   9.341
  851POPC   GL114533  26.099  12.961   9.078
  851POPC   GL214534  26.500  13.112   9.089
  851POPC   C1A14535  26.059  12.646   8.746
  851POPC   D2A14536  25.813  12.619   8.388
  851POPC   C3A14537  26.011  12.600   8.011
  851POPC   C4A14538  25.987  12.745   7.597
  851POPC   C1B14539  26.497  12.891   8.741
  851POPC   C2B14540  26.277  12.899   8.331
  851POPC   C3B14541  26.337  12.993   7.879
  851POPC   C4B14542  26.377  13.128   7.409
  852POPC   NC314543  11.868   3.223   9.569
  852POPC   PO414544  12.347   3.716   9.524
  852POPC   GL114545  12.066   3.568   9.209
  852POPC   GL214546  12.214   3.280   9.167
  852POPC   C1A14547  12.035   3.533   8.746
  852POPC   D2A14548  11.906   3.731   8.344
  852POPC   C3A14549  11.889   3.419   8.036
  852POPC   C4A14550  12.041   3.412   7.619
  852POPC   C1B14551  12.419   3.130   8.800
  852POPC   C2B14552  12.307   2.966   8.400
  852POPC   C3B14553  12.306   3.128   8.017
  852POPC   C4B14554  12.336   2.993   7.621
  853POPC   NC314555  41.143  21.118   9.479
  853POPC   PO414556  40.560  20.720   9.639
  853POPC   GL114557  40.544  20.814   9.223
  853POPC   GL214558  40.854  20.815   9.169
  853POPC   C1A14559  40.469  20.750   8.814
  853POPC   D2A14560  40.384  20.572   8.426
  853POPC   C3A14561  40.616  20.704   8.079
  853POPC   C4A14562  40.410  20.631   7.683
  853POPC   C1B14563  40.993  20.765   8.759
  853POPC   C2B14564  41.047  21.034   8.410
  853POPC   C3B14565  41.108  20.977   7.993
  853POPC   C4B14566  40.946  20.752   7.670
  854POPC   NC314567  42.642  18.626   9.422
  854POPC   PO414568  42.667  19.267   9.502
  854POPC   GL114569  42.386  19.065   9.156
  854POPC   GL214570  42.050  19.153   8.956
  854POPC   C1A14571  42.439  18.838   8.749
  854POPC   D2A14572  42.724  18.939   8.393
  854POPC   C3A14573  42.596  18.910   7.950
  854POPC   C4A14574  42.551  19.286   7.707
  854POPC   C1B14575  42.227  19.305   8.568
  854POPC   C2B14576  42.253  19.265   8.127
  854POPC   C3B14577  42.077  19.085   7.728
  854POPC   C4B14578  41.984  18.885   7.288
  855POPC   NC314579  34.207  23.416   9.527
  855POPC   PO414580  34.715  23.965   9.457
  855POPC   GL114581  34.577  23.796   9.055
  855POPC   GL214582  34.625  23.468   9.103
  855POPC   C1A14583  34.618  23.802   8.586
  855POPC   D2A14584  34.612  23.566   8.218
  855POPC   C3A14585  34.743  23.833   7.968
  855POPC   C4A14586  34.412  23.989   7.745
  855POPC   C1B14587  34.421  23.318   8.735
  855POPC   C2B14588  34.173  23.333   8.327
  855POPC   C3B14589  34.176  23.547   7.920
  855POPC   C4B14590  34.540  23.474   7.663
  856POPC   NC314591  34.004  25.241   9.481
  856POPC   PO414592  33.889  24.517   9.569
  856POPC   GL114593  33.852  24.836   9.192
  856POPC   GL214594  34.124  24.985   8.998
  856POPC   C1A14595  33.689  25.112   8.800
  856POPC   D2A14596  33.855  25.276   8.367
  856POPC   C3A14597  33.652  25.239   7.922
  856POPC   C4A14598  33.800  25.163   7.473
  856POPC   C1B14599  34.097  25.439   8.860
  856POPC   C2B14600  34.168  25.688   8.502
  856POPC   C3B14601  34.272  25.480   8.156
  856POPC   C4B14602  34.084  25.451   7.776
  857POPC   NC314603  31.694  29.732   9.524
  857POPC   PO414604  31.358  30.347   9.489
  857POPC   GL114605  31.428  30.040   9.152
  857POPC   GL214606  31.492  29.659   9.065
  857POPC   C1A14607  31.643  30.088   8.761
  857POPC   D2A14608  31.822  29.782   8.467
  857POPC   C3A14609  31.634  29.804   8.049
  857POPC   C4A14610  31.713  30.030   7.674
  857POPC   C1B14611  31.262  29.739   8.674
  857POPC   C2B14612  31.026  29.734   8.263
  857POPC   C3B14613  31.155  29.815   7.836
  857POPC   C4B14614  31.401  29.698   7.453
  858POPC   NC314615   5.505  10.644   9.593
  858POPC   PO414616   5.967  10.213   9.359
  858POPC   GL114617   6.041  10.593   9.156
  858POPC   GL214618   5.702  10.632   9.132
  858POPC   C1A14619   6.224  10.615   8.747
  858POPC   D2A14620   6.183  10.368   8.364
  858POPC   C3A14621   6.221  10.593   7.964
  858POPC   C4A14622   6.061  10.790   7.565
  858POPC   C1B14623   5.730  10.781   8.745
  858POPC   C2B14624   5.681  10.614   8.345
  858POPC   C3B14625   5.722  10.796   7.953
  858POPC   C4B14626   5.552  10.718   7.547
  859POPC   NC314627   5.064  12.909   9.637
  859POPC   PO414628   5.471  13.396   9.383
  859POPC   GL114629   5.268  13.000   9.165
  859POPC   GL214630   4.879  12.924   9.156
  859POPC   C1A14631   5.143  12.844   8.719
  859POPC   D2A14632   4.968  13.015   8.314
  859POPC   C3A14633   5.025  12.747   7.936
  859POPC   C4A14634   5.386  12.705   7.644
  859POPC   C1B14635   4.636  13.026   8.774
  859POPC   C2B14636   4.452  12.961   8.361
  859POPC   C3B14637   4.547  12.983   7.914
  859POPC   C4B14638   4.611  12.671   7.574
  860POPC   NC314639  42.835   1.257   9.802
  860POPC   PO414640  42.189   1.386   9.648
  860POPC   GL114641  42.306   1.286   9.169
  860POPC   GL214642  42.588   1.541   9.118
  860POPC   C1A14643  42.428   1.088   8.781
  860POPC   D2A14644  42.482   1.201   8.386
  860POPC   C3A14645  42.366   0.934   8.070
  860POPC   C4A14646  42.348   0.815   7.655
  860POPC   C1B14647  42.391   1.611   8.717
  860POPC   C2B14648  42.049   1.437   8.479
  860POPC   C3B14649  42.048   1.350   8.045
  860POPC   C4B14650  42.413   1.329   7.745
  861POPC   NC314651  10.722  31.835   9.684
  861POPC   PO414652  10.241  32.336   9.499
  861POPC   GL114653  10.368  32.175   9.131
  861POPC   GL214654  10.541  31.841   9.168
  861POPC   C1A14655  10.335  32.414   8.750
  861POPC   D2A14656  10.524  32.415   8.367
  861POPC   C3A14657  10.423  32.614   8.003
  861POPC   C4A14658  10.625  32.461   7.570
  861POPC   C1B14659  10.511  31.931   8.708
  861POPC   C2B14660  10.253  31.991   8.340
  861POPC   C3B14661  10.392  32.112   7.912
  861POPC   C4B14662  10.630  31.898   7.636
  862POPC   NC314663  38.842  31.323   9.546
  862POPC   PO414664  39.477  31.132   9.375
  862POPC   GL114665  39.134  31.262   9.131
  862POPC   GL214666  38.904  30.976   9.162
  862POPC   C1A14667  39.116  31.544   8.781
  862POPC   D2A14668  39.246  31.723   8.402
  862POPC   C3A14669  39.065  31.582   8.025
  862POPC   C4A14670  39.189  31.522   7.602
  862POPC   C1B14671  39.046  31.005   8.715
  862POPC   C2B14672  39.186  31.206   8.370
  862POPC   C3B14673  39.302  31.106   7.956
  862POPC   C4B14674  38.939  31.110   7.766
  863POPC   NC314675  41.923  19.045   9.429
  863POPC   PO414676  41.280  18.767   9.502
  863POPC   GL114677  41.512  18.839   9.158
  863POPC   GL214678  41.489  19.189   9.119
  863POPC   C1A14679  41.644  18.880   8.748
  863POPC   D2A14680  41.822  19.063   8.381
  863POPC   C3A14681  41.645  18.912   8.012
  863POPC   C4A14682  41.518  18.859   7.595
  863POPC   C1B14683  41.494  19.351   8.666
  863POPC   C2B14684  41.796  19.574   8.399
  863POPC   C3B14685  41.773  19.411   7.992
  863POPC   C4B14686  41.377  19.330   7.829
  864POPC   NC314687   1.342   7.149   9.350
  864POPC   PO414688   1.520   7.725   9.442
  864POPC   GL114689   1.321   7.629   9.086
  864POPC   GL214690   1.015   7.465   9.137
  864POPC   C1A14691   1.246   7.556   8.691
  864POPC   D2A14692   1.475   7.411   8.409
  864POPC   C3A14693   1.281   7.468   8.063
  864POPC   C4A14694   1.371   7.195   7.784
  864POPC   C1B14695   0.939   7.169   8.789
  864POPC   C2B14696   0.844   7.365   8.405
  864POPC   C3B14697   0.772   7.438   7.987
  864POPC   C4B14698   0.880   7.139   7.688
  865POPC   NC314699  34.250  34.941   9.379
  865POPC   PO414700  34.046  34.286   9.485
  865POPC   GL114701  34.237  34.494   9.133
  865POPC   GL214702  34.591  34.648   9.128
  865POPC   C1A14703  34.252  34.620   8.707
  865POPC   D2A14704  34.444  34.441   8.325
  865POPC   C3A14705  34.297  34.408   7.892
  865POPC   C4A14706  34.480  34.590   7.496
  865POPC   C1B14707  34.720  34.848   8.728
  865POPC   C2B14708  34.709  34.892   8.289
  865POPC   C3B14709  34.754  34.640   7.945
  865POPC   C4B14710  34.989  34.577   7.590
  866POPC   NC314711  22.397   3.257   9.454
  866POPC   PO414712  21.934   3.439   9.876
  866POPC   GL114713  22.050   3.599   9.335
  866POPC   GL214714  22.004   3.345   9.010
  866POPC   C1A14715  22.206   3.781   8.899
  866POPC   D2A14716  22.122   3.557   8.479
  866POPC   C3A14717  22.284   3.647   8.048
  866POPC   C4A14718  22.089   3.503   7.653
  866POPC   C1B14719  22.389   3.273   8.797
  866POPC   C2B14720  22.453   3.163   8.362
  866POPC   C3B14721  22.169   3.142   8.015
  866POPC   C4B14722  22.316   3.027   7.600
  867POPC   NC314723  24.413  40.462   9.623
  867POPC   PO414724  24.650  39.844   9.521
  867POPC   GL114725  24.405  39.970   9.156
  867POPC   GL214726  24.195  40.255   9.214
  867POPC   C1A14727  24.498  39.870   8.711
  867POPC   D2A14728  24.606  40.049   8.312
  867POPC   C3A14729  24.706  39.901   7.873
  867POPC   C4A14730  24.523  40.004   7.425
  867POPC   C1B14731  24.325  40.378   8.808
  867POPC   C2B14732  24.390  40.498   8.358
  867POPC   C3B14733  24.398  40.298   7.917
  867POPC   C4B14734  24.145  40.339   7.513
  868POPC   NC314735  10.928   3.667   9.592
  868POPC   PO414736  11.564   3.566   9.559
  868POPC   GL114737  11.277   3.616   9.211
  868POPC   GL214738  11.468   3.842   9.115
  868POPC   C1A14739  11.235   3.474   8.769
  868POPC   D2A14740  11.448   3.501   8.356
  868POPC   C3A14741  11.191   3.511   7.977
  868POPC   C4A14742  11.148   3.382   7.533
  868POPC   C1B14743  11.611   3.833   8.756
  868POPC   C2B14744  11.557   4.078   8.429
  868POPC   C3B14745  11.477   3.962   8.031
  868POPC   C4B14746  11.593   3.678   7.725
  869POPC   NC314747   9.239  11.185   9.449
  869POPC   PO414748   8.659  11.266   9.761
  869POPC   GL114749   8.750  11.289   9.235
  869POPC   GL214750   9.032  11.519   9.112
  869POPC   C1A14751   8.641  11.456   8.816
  869POPC   D2A14752   8.878  11.700   8.508
  869POPC   C3A14753   8.695  11.632   8.126
  869POPC   C4A14754   8.767  11.334   7.796
  869POPC   C1B14755   9.081  11.212   8.781
  869POPC   C2B14756   9.158  11.011   8.378
  869POPC   C3B14757   9.220  11.171   7.981
  869POPC   C4B14758   9.226  11.561   7.785
  870POPC   NC314759   3.801  34.405   9.616
  870POPC   PO414760   3.220  34.328   9.555
  870POPC   GL114761   3.461  34.597   9.240
  870POPC   GL214762   3.799  34.542   9.130
  870POPC   C1A14763   3.447  34.548   8.763
  870POPC   D2A14764   3.119  34.480   8.409
  870POPC   C3A14765   3.187  34.729   7.998
  870POPC   C4A14766   3.172  34.595   7.529
  870POPC   C1B14767   4.073  34.539   8.776
  870POPC   C2B14768   4.055  34.297   8.394
  870POPC   C3B14769   3.959  34.388   7.980
  870POPC   C4B14770   3.658  34.646   7.755
  871POPC   NC314771   4.025  21.901   9.498
  871POPC   PO414772   4.712  21.846   9.429
  871POPC   GL114773   4.409  22.104   9.162
  871POPC   GL214774   4.041  22.249   9.132
  871POPC   C1A14775   4.367  22.105   8.714
  871POPC   D2A14776   4.454  22.036   8.263
  871POPC   C3A14777   4.509  22.262   7.847
  871POPC   C4A14778   4.759  22.573   7.579
  871POPC   C1B14779   3.877  22.186   8.792
  871POPC   C2B14780   3.998  22.331   8.422
  871POPC   C3B14781   3.988  22.154   8.037
  871POPC   C4B14782   4.053  22.269   7.625
  872POPC   NC314783  35.118   6.894   9.764
  872POPC   PO414784  35.434   7.482   9.476
  872POPC   GL114785  35.521   7.398   9.090
  872POPC   GL214786  35.625   7.056   9.141
  872POPC   C1A14787  35.367   7.276   8.670
  872POPC   D2A14788  35.347   7.185   8.214
  872POPC   C3A14789  35.346   7.539   7.943
  872POPC   C4A14790  35.337   7.493   7.508
  872POPC   C1B14791  35.879   7.234   8.792
  872POPC   C2B14792  35.796   7.387   8.394
  872POPC   C3B14793  35.834   7.320   7.986
  872POPC   C4B14794  35.701   7.110   7.630
  873POPC   NC314795  26.340  31.205   9.386
  873POPC   PO414796  25.935  30.704   9.686
  873POPC   GL114797  25.963  30.568   9.266
  873POPC   GL214798  26.146  30.816   9.154
  873POPC   C1A14799  25.899  30.591   8.792
  873POPC   D2A14800  25.990  30.728   8.401
  873POPC   C3A14801  25.807  30.629   8.030
  873POPC   C4A14802  25.986  30.563   7.654
  873POPC   C1B14803  26.289  30.972   8.765
  873POPC   C2B14804  26.430  31.003   8.358
  873POPC   C3B14805  26.307  30.789   7.991
  873POPC   C4B14806  26.334  31.001   7.624
  874POPC   NC314807  37.012  12.420   9.427
  874POPC   PO414808  37.201  11.800   9.345
  874POPC   GL114809  37.187  12.117   9.041
  874POPC   GL214810  36.827  12.185   9.021
  874POPC   C1A14811  37.098  12.132   8.595
  874POPC   D2A14812  37.233  12.150   8.207
  874POPC   C3A14813  36.984  11.828   8.083
  874POPC   C4A14814  36.627  11.810   7.857
  874POPC   C1B14815  36.656  12.387   8.658
  874POPC   C2B14816  36.666  12.220   8.224
  874POPC   C3B14817  36.872  12.271   7.803
  874POPC   C4B14818  36.683  12.494   7.424
  875POPC   NC314819  29.449  42.501   9.532
  875POPC   PO414820  29.079  41.898   9.478
  875POPC   GL114821  28.936  42.272   9.193
  875POPC   GL214822  29.005  42.637   9.237
  875POPC   C1A14823  28.853  42.210   8.766
  875POPC   D2A14824  29.141  42.118   8.462
  875POPC   C3A14825  29.141  42.321   8.073
  875POPC   C4A14826  29.155  42.130   7.678
  875POPC   C1B14827  29.239  42.508   8.868
  875POPC   C2B14828  29.186  42.652   8.464
  875POPC   C3B14829  29.396  42.790   8.082
  875POPC   C4B14830  29.359  42.593   7.676
  876POPC   NC314831  26.467   4.630   9.589
  876POPC   PO414832  26.124   4.086   9.478
  876POPC   GL114833  26.158   4.250   9.114
  876POPC   GL214834  25.908   4.499   9.130
  876POPC   C1A14835  26.328   4.057   8.765
  876POPC   D2A14836  26.257   3.915   8.349
  876POPC   C3A14837  26.006   4.168   8.104
  876POPC   C4A14838  26.097   4.299   7.699
  876POPC   C1B14839  25.855   4.344   8.714
  876POPC   C2B14840  25.900   4.572   8.377
  876POPC   C3B14841  26.032   4.720   7.999
  876POPC   C4B14842  25.745   4.712   7.693
  877POPC   NC314843   3.068   0.905   9.487
  877POPC   PO414844   3.713   1.241   9.442
  877POPC   GL114845   3.495   0.954   9.176
  877POPC   GL214846   3.240   1.173   9.098
  877POPC   C1A14847   3.423   0.908   8.717
  877POPC   D2A14848   3.263   1.140   8.349
  877POPC   C3A14849   3.462   1.080   7.964
  877POPC   C4A14850   3.724   1.378   7.713
  877POPC   C1B14851   3.467   1.407   8.783
  877POPC   C2B14852   3.457   1.617   8.404
  877POPC   C3B14853   3.352   1.563   8.014
  877POPC   C4B14854   3.201   1.432   7.638
  878POPC   NC314855  19.795  35.529   9.501
  878POPC   PO414856  20.210  35.004   9.619
  878POPC   GL114857  20.131  35.176   9.181
  878POPC   GL214858  19.769  35.227   9.055
  878POPC   C1A14859  20.144  35.233   8.715
  878POPC   D2A14860  19.743  35.299   8.457
  878POPC   C3A14861  19.890  35.350   8.042
  878POPC   C4A14862  20.222  35.222   7.775
  878POPC   C1B14863  19.838  35.629   8.856
  878POPC   C2B14864  19.732  35.841   8.481
  878POPC   C3B14865  19.548  35.729   8.125
  878POPC   C4B14866  19.723  35.772   7.716
  879POPC   NC314867  34.352  24.523   9.500
  879POPC   PO414868  34.998  24.685   9.604
  879POPC   GL114869  34.916  24.605   9.146
  879POPC   GL214870  34.557  24.675   9.055
  879POPC   C1A14871  34.887  24.632   8.662
  879POPC   D2A14872  34.727  24.284   8.366
  879POPC   C3A14873  34.728  24.335   7.919
  879POPC   C4A14874  34.880  24.094   7.530
  879POPC   C1B14875  34.348  24.669   8.650
  879POPC   C2B14876  34.251  24.466   8.242
  879POPC   C3B14877  34.230  24.478   7.807
  879POPC   C4B14878  34.225  24.789   7.482
  880POPC   NC314879   9.473  12.156   9.491
  880POPC   PO414880  10.000  11.643   9.557
  880POPC   GL114881   9.890  11.961   9.212
  880POPC   GL214882   9.521  12.011   9.015
  880POPC   C1A14883   9.960  12.141   8.786
  880POPC   D2A14884   9.791  11.964   8.410
  880POPC   C3A14885   9.987  12.116   7.986
  880POPC   C4A14886   9.772  12.313   7.640
  880POPC   C1B14887   9.340  11.698   8.731
  880POPC   C2B14888   9.400  11.635   8.279
  880POPC   C3B14889   9.518  11.947   7.949
  880POPC   C4B14890   9.493  11.922   7.500
  881POPC   NC314891  13.289  38.914   9.644
  881POPC   PO414892  12.619  39.102   9.614
  881POPC   GL114893  12.785  39.039   9.151
  881POPC   GL214894  12.500  38.988   8.909
  881POPC   C1A14895  12.915  39.285   8.803
  881POPC   D2A14896  13.102  39.289   8.397
  881POPC   C3A14897  12.819  39.337   8.065
  881POPC   C4A14898  12.783  39.608   7.732
  881POPC   C1B14899  12.439  38.667   8.578
  881POPC   C2B14900  12.556  38.637   8.137
  881POPC   C3B14901  12.780  38.884   7.810
  881POPC   C4B14902  12.688  38.846   7.355
  882POPC   NC314903   0.120  30.220   9.581
  882POPC   PO414904   0.342  30.792   9.352
  882POPC   GL114905   0.532  30.645   8.960
  882POPC   GL214906   0.513  30.305   9.039
  882POPC   C1A14907   0.740  30.492   8.564
  882POPC   D2A14908   0.670  30.378   8.126
  882POPC   C3A14909   0.475  30.656   7.853
  882POPC   C4A14910   0.216  30.638   7.487
  882POPC   C1B14911   0.181  30.349   8.729
  882POPC   C2B14912   0.000  30.222   8.305
  882POPC   C3B14913   0.152  30.257   7.857
  882POPC   C4B14914   0.128  30.134   7.390
  883POPC   NC314915  30.745  41.234   9.527
  883POPC   PO414916  30.804  40.602   9.354
  883POPC   GL114917  30.690  40.963   9.092
  883POPC   GL214918  30.382  41.122   9.101
  883POPC   C1A14919  30.786  40.896   8.689
  883POPC   D2A14920  31.045  40.907   8.381
  883POPC   C3A14921  30.947  40.728   8.039
  883POPC   C4A14922  31.084  41.010   7.791
  883POPC   C1B14923  30.304  40.754   8.813
  883POPC   C2B14924  30.442  40.661   8.393
  883POPC   C3B14925  30.428  40.817   8.012
  883POPC   C4B14926  30.211  40.730   7.690
  884POPC   NC314927  28.991   7.377   9.498
  884POPC   PO414928  29.627   7.522   9.438
  884POPC   GL114929  29.302   7.385   9.099
  884POPC   GL214930  28.982   7.592   9.041
  884POPC   C1A14931  29.144   7.288   8.658
  884POPC   D2A14932  29.154   7.507   8.258
  884POPC   C3A14933  28.846   7.449   7.935
  884POPC   C4A14934  28.786   7.017   7.733
  884POPC   C1B14935  29.094   7.835   8.699
  884POPC   C2B14936  29.294   7.983   8.330
  884POPC   C3B14937  29.092   7.903   7.918
  884POPC   C4B14938  29.190   7.737   7.516
  885POPC   NC314939  37.096   4.286   9.574
  885POPC   PO414940  36.541   4.082   9.351
  885POPC   GL114941  36.895   4.181   9.094
  885POPC   GL214942  37.110   4.478   9.076
  885POPC   C1A14943  36.765   4.313   8.691
  885POPC   D2A14944  36.502   4.483   8.400
  885POPC   C3A14945  36.641   4.338   8.027
  885POPC   C4A14946  36.642   4.185   7.577
  885POPC   C1B14947  37.260   4.405   8.660
  885POPC   C2B14948  37.139   4.280   8.227
  885POPC   C3B14949  37.075   4.510   7.826
  885POPC   C4B14950  36.901   4.650   7.431
  886POPC   NC314951  35.457  22.008   9.455
  886POPC   PO414952  34.894  22.415   9.492
  886POPC   GL114953  35.095  22.452   9.115
  886POPC   GL214954  35.460  22.414   9.116
  886POPC   C1A14955  35.128  22.221   8.727
  886POPC   D2A14956  34.924  22.150   8.310
  886POPC   C3A14957  35.223  22.243   7.984
  886POPC   C4A14958  35.457  22.225   7.619
  886POPC   C1B14959  35.653  22.131   8.794
  886POPC   C2B14960  35.684  22.042   8.348
  886POPC   C3B14961  35.627  21.855   7.938
  886POPC   C4B14962  35.687  21.814   7.444
  887POPC   NC314963  15.597  36.724   9.424
  887POPC   PO414964  15.117  37.157   9.677
  887POPC   GL114965  15.074  37.152   9.194
  887POPC   GL214966  15.385  37.058   9.105
  887POPC   C1A14967  15.030  37.079   8.734
  887POPC   D2A14968  15.285  37.095   8.373
  887POPC   C3A14969  15.285  36.877   7.954
  887POPC   C4A14970  15.497  36.824   7.539
  887POPC   C1B14971  15.484  36.786   8.761
  887POPC   C2B14972  15.677  36.786   8.370
  887POPC   C3B14973  15.680  36.558   8.048
  887POPC   C4B14974  15.849  36.535   7.713
  888POPC   NC314975  17.734  13.640   9.462
  888POPC   PO414976  17.220  14.101   9.384
  888POPC   GL114977  17.409  13.836   9.135
  888POPC   GL214978  17.206  13.588   9.208
  888POPC   C1A14979  17.586  13.617   8.788
  888POPC   D2A14980  17.594  13.814   8.403
  888POPC   C3A14981  17.680  13.696   7.946
  888POPC   C4A14982  17.650  13.794   7.484
  888POPC   C1B14983  17.116  13.399   8.796
  888POPC   C2B14984  17.294  13.392   8.384
  888POPC   C3B14985  17.270  13.232   7.961
  888POPC   C4B14986  17.536  13.322   7.598
  889POPC   NC314987   4.183  39.773   9.383
  889POPC   PO414988   4.718  40.094   9.282
  889POPC   GL114989   4.605  39.716   9.058
  889POPC   GL214990   4.290  39.597   8.886
  889POPC   C1A14991   4.673  39.854   8.670
  889POPC   D2A14992   4.758  40.150   8.383
  889POPC   C3A14993   4.400  40.116   8.129
  889POPC   C4A14994   4.522  40.061   7.708
  889POPC   C1B14995   4.185  40.034   8.790
  889POPC   C2B14996   3.937  40.283   8.513
  889POPC   C3B14997   3.846  40.224   8.077
  889POPC   C4B14998   4.054  39.899   7.793
  890POPC   NC314999  12.968  39.397   9.465
  890POPC   PO415000  12.811  40.037   9.374
  890POPC   GL115001  12.904  40.011   8.972
  890POPC   GL215002  12.803  40.347   8.952
  890POPC   C1A15003  12.979  40.062   8.551
  890POPC   D2A15004  12.736  39.839   8.242
  890POPC   C3A15005  12.624  40.058   7.852
  890POPC   C4A15006  12.759  39.963   7.385
  890POPC   C1B15007  13.177  40.528   8.718
  890POPC   C2B15008  13.500  40.475   8.397
  890POPC   C3B15009  13.318  40.242   8.077
  890POPC   C4B15010  12.988  40.398   7.823
  891POPC   NC315011   8.688   3.631   9.936
  891POPC   PO415012   9.180   3.517   9.460
  891POPC   GL115013   9.232   3.653   9.044
  891POPC   GL215014   8.922   3.838   9.086
  891POPC   C1A15015   9.196   3.583   8.600
  891POPC   D2A15016   8.880   3.631   8.299
  891POPC   C3A15017   8.956   3.361   7.979
  891POPC   C4A15018   8.724   3.246   7.637
  891POPC   C1B15019   9.105   4.080   8.762
  891POPC   C2B15020   9.226   4.073   8.337
  891POPC   C3B15021   9.115   3.897   7.921
  891POPC   C4B15022   8.724   3.765   7.765
  892POPC   NC315023  33.601  12.601   9.686
  892POPC   PO415024  33.603  13.216   9.323
  892POPC   GL115025  33.910  12.902   9.225
  892POPC   GL215026  33.878  12.531   9.246
  892POPC   C1A15027  33.962  12.977   8.812
  892POPC   D2A15028  34.035  12.756   8.449
  892POPC   C3A15029  34.144  13.003   8.094
  892POPC   C4A15030  33.989  12.874   7.700
  892POPC   C1B15031  33.681  12.556   8.846
  892POPC   C2B15032  33.524  12.792   8.513
  892POPC   C3B15033  33.651  12.795   8.090
  892POPC   C4B15034  33.390  12.682   7.762
  893POPC   NC315035  37.406   7.766   9.536
  893POPC   PO415036  37.763   7.200   9.451
  893POPC   GL115037  37.511   7.371   9.139
  893POPC   GL215038  37.684   7.700   9.101
  893POPC   C1A15039  37.381   7.521   8.713
  893POPC   D2A15040  37.562   7.636   8.324
  893POPC   C3A15041  37.419   7.433   7.967
  893POPC   C4A15042  37.512   7.593   7.575
  893POPC   C1B15043  37.896   7.468   8.749
  893POPC   C2B15044  38.069   7.418   8.334
  893POPC   C3B15045  37.925   7.570   7.944
  893POPC   C4B15046  37.904   7.918   7.683
  894POPC   NC315047  20.190  15.754   9.679
  894POPC   PO415048  20.685  16.186   9.427
  894POPC   GL115049  20.711  15.929   9.123
  894POPC   GL215050  20.433  15.783   9.244
  894POPC   C1A15051  20.688  15.961   8.732
  894POPC   D2A15052  20.699  16.272   8.452
  894POPC   C3A15053  20.851  16.078   8.120
  894POPC   C4A15054  20.604  16.103   7.765
  894POPC   C1B15055  20.396  15.561   8.899
  894POPC   C2B15056  20.275  15.720   8.519
  894POPC   C3B15057  20.328  15.743   8.082
  894POPC   C4B15058  20.091  15.454   7.823
  895POPC   NC315059  14.116  30.736   9.581
  895POPC   PO415060  14.802  30.760   9.507
  895POPC   GL115061  14.464  30.595   9.210
  895POPC   GL215062  14.116  30.461   9.160
  895POPC   C1A15063  14.446  30.501   8.764
  895POPC   D2A15064  14.499  30.787   8.404
  895POPC   C3A15065  14.665  30.651   8.017
  895POPC   C4A15066  14.519  30.680   7.602
  895POPC   C1B15067  13.871  30.460   8.819
  895POPC   C2B15068  14.029  30.565   8.441
  895POPC   C3B15069  14.155  30.661   8.035
  895POPC   C4B15070  13.980  30.664   7.675
  896POPC   NC315071  43.306  25.671   9.334
  896POPC   PO415072  43.937  25.405   9.467
  896POPC   GL115073  43.998  25.268   9.071
  896POPC   GL215074  43.955  24.886   9.091
  896POPC   C1A15075  44.151  25.279   8.701
  896POPC   D2A15076  44.292  25.231   8.316
  896POPC   C3A15077  44.000  25.409   8.034
  896POPC   C4A15078  44.105  25.578   7.706
  896POPC   C1B15079  43.747  24.980   8.735
  896POPC   C2B15080  43.730  25.169   8.374
  896POPC   C3B15081  43.540  25.042   8.010
  896POPC   C4B15082  43.690  24.819   7.657
  897POPC   NC315083   3.058  44.384   9.517
  897POPC   PO415084   2.609  44.923   9.584
  897POPC   GL115085   2.825  44.757   9.223
  897POPC   GL215086   2.659  44.446   9.178
  897POPC   C1A15087   2.715  44.761   8.782
  897POPC   D2A15088   2.693  44.991   8.421
  897POPC   C3A15089   2.610  44.744   8.093
  897POPC   C4A15090   2.415  44.668   7.722
  897POPC   C1B15091   2.737  44.261   8.789
  897POPC   C2B15092   2.544  44.357   8.439
  897POPC   C3B15093   2.699  44.228   8.060
  897POPC   C4B15094   2.904  44.464   7.785
  898POPC   NC315095  31.140  31.007   9.576
  898POPC   PO415096  30.669  30.616   9.712
  898POPC   GL115097  30.657  30.605   9.257
  898POPC   GL215098  31.006  30.614   9.235
  898POPC   C1A15099  30.715  30.608   8.792
  898POPC   D2A15100  30.547  30.774   8.373
  898POPC   C3A15101  30.538  30.571   7.948
  898POPC   C4A15102  30.621  30.755   7.529
  898POPC   C1B15103  31.127  30.882   8.911
  898POPC   C2B15104  31.123  30.780   8.495
  898POPC   C3B15105  30.994  30.715   8.097
  898POPC   C4B15106  31.102  30.647   7.684
  899POPC   NC315107  14.934   1.767   9.961
  899POPC   PO415108  15.232   2.178   9.489
  899POPC   GL115109  15.137   2.097   9.079
  899POPC   GL215110  15.149   1.760   9.119
  899POPC   C1A15111  15.399   1.970   8.724
  899POPC   D2A15112  15.372   1.773   8.319
  899POPC   C3A15113  15.318   2.047   7.978
  899POPC   C4A15114  15.451   2.205   7.579
  899POPC   C1B15115  14.969   1.693   8.714
  899POPC   C2B15116  14.755   1.625   8.368
  899POPC   C3B15117  14.966   1.668   7.979
  899POPC   C4B15118  15.114   1.784   7.578
  900POPC   NC315119   3.024  13.030   9.313
  900POPC   PO415120   2.295  13.138   9.286
  900POPC   GL115121   2.603  13.049   9.026
  900POPC   GL215122   2.778  12.739   8.983
  900POPC   C1A15123   2.843  13.153   8.691
  900POPC   D2A15124   2.921  12.897   8.378
  900POPC   C3A15125   2.932  13.182   8.070
  900POPC   C4A15126   2.639  13.089   7.788
  900POPC   C1B15127   2.456  12.624   8.766
  900POPC   C2B15128   2.381  12.789   8.389
  900POPC   C3B15129   2.498  12.666   8.016
  900POPC   C4B15130   2.540  12.595   7.615
  901POPC   NC315131  27.895  16.557   9.493
  901POPC   PO415132  27.222  16.677   9.547
  901POPC   GL115133  27.306  16.789   9.137
  901POPC   GL215134  27.656  16.792   9.115
  901POPC   C1A15135  27.419  16.997   8.736
  901POPC   D2A15136  27.678  16.840   8.433
  901POPC   C3A15137  27.505  16.800   8.050
  901POPC   C4A15138  27.497  16.984   7.664
  901POPC   C1B15139  27.883  16.528   8.831
  901POPC   C2B15140  28.046  16.485   8.415
  901POPC   C3B15141  27.941  16.456   7.977
  901POPC   C4B15142  27.650  16.519   7.638
  902POPC   NC315143   0.002  24.244   9.359
  902POPC   PO415144  44.378  24.606   9.429
  902POPC   GL115145  44.726  24.786   9.210
  902POPC   GL215146  44.737  24.498   9.008
  902POPC   C1A15147  44.911  24.920   8.785
  902POPC   D2A15148   0.016  24.785   8.367
  902POPC   C3A15149  44.654  24.686   8.133
  902POPC   C4A15150  44.715  24.686   7.725
  902POPC   C1B15151  44.675  24.426   8.580
  902POPC   C2B15152  44.684  24.130   8.242
  902POPC   C3B15153  44.793  24.194   7.845
  902POPC   C4B15154  44.485  24.270   7.539
  903POPC   NC315155  18.146  14.625   9.465
  903POPC   PO415156  18.712  14.268   9.347
  903POPC   GL115157  18.488  14.448   9.044
  903POPC   GL215158  18.162  14.434   8.988
  903POPC   C1A15159  18.501  14.313   8.616
  903POPC   D2A15160  18.556  14.267   8.191
  903POPC   C3A15161  18.353  14.487   7.903
  903POPC   C4A15162  18.322  14.403   7.493
  903POPC   C1B15163  17.947  14.241   8.639
  903POPC   C2B15164  18.043  14.025   8.246
  903POPC   C3B15165  18.018  14.073   7.816
  903POPC   C4B15166  17.863  14.462   7.739
  904POPC   NC315167  38.639   3.214   9.490
  904POPC   PO415168  38.157   3.645   9.548
  904POPC   GL115169  38.297   3.558   9.120
  904POPC   GL215170  38.681   3.557   9.108
  904POPC   C1A15171  38.428   3.723   8.689
  904POPC   D2A15172  38.779   3.843   8.416
  904POPC   C3A15173  38.770   3.688   7.990
  904POPC   C4A15174  38.411   3.470   7.788
  904POPC   C1B15175  38.831   3.382   8.685
  904POPC   C2B15176  38.973   3.278   8.240
  904POPC   C3B15177  38.827   3.207   7.791
  904POPC   C4B15178  38.802   3.177   7.325
  905POPC   NC315179  43.131  37.460   9.348
  905POPC   PO415180  43.576  37.842   9.526
  905POPC   GL115181  43.710  37.761   9.116
  905POPC   GL215182  43.597  37.416   9.075
  905POPC   C1A15183  43.790  37.947   8.702
  905POPC   D2A15184  43.587  37.946   8.298
  905POPC   C3A15185  43.909  37.926   7.990
  905POPC   C4A15186  44.169  37.545   7.987
  905POPC   C1B15187  43.432  37.581   8.705
  905POPC   C2B15188  43.358  37.405   8.293
  905POPC   C3B15189  43.646  37.302   7.996
  905POPC   C4B15190  43.725  37.574   7.672
  906POPC   NC315191   8.831  20.161   9.570
  906POPC   PO415192   9.347  19.700   9.514
  906POPC   GL115193   9.164  19.963   9.198
  906POPC   GL215194   9.443  19.840   9.023
  906POPC   C1A15195   8.927  20.009   8.816
  906POPC   D2A15196   8.700  19.911   8.439
  906POPC   C3A15197   8.903  19.876   8.037
  906POPC   C4A15198   9.091  19.584   7.741
  906POPC   C1B15199   9.407  20.179   8.760
  906POPC   C2B15200   9.243  20.148   8.354
  906POPC   C3B15201   9.405  20.005   7.946
  906POPC   C4B15202   9.419  20.193   7.567
  907POPC   NC315203  18.471  33.723   9.363
  907POPC   PO415204  18.434  33.035   9.579
  907POPC   GL115205  18.283  32.932   9.192
  907POPC   GL215206  17.920  32.857   9.196
  907POPC   C1A15207  18.180  33.180   8.828
  907POPC   D2A15208  18.153  33.044   8.410
  907POPC   C3A15209  18.173  33.273   8.037
  907POPC   C4A15210  18.389  33.127   7.675
  907POPC   C1B15211  18.080  32.652   8.803
  907POPC   C2B15212  17.986  32.578   8.373
  907POPC   C3B15213  18.173  32.754   7.979
  907POPC   C4B15214  18.294  32.626   7.556
  908POPC   NC315215   3.418   7.992   9.578
  908POPC   PO415216   3.126   8.506   9.387
  908POPC   GL115217   3.516   8.305   9.186
  908POPC   GL215218   3.673   7.948   9.154
  908POPC   C1A15219   3.672   8.347   8.789
  908POPC   D2A15220   3.457   8.361   8.407
  908POPC   C3A15221   3.801   8.387   8.140
  908POPC   C4A15222   3.806   8.319   7.722
  908POPC   C1B15223   3.408   7.881   8.818
  908POPC   C2B15224   3.283   7.827   8.383
  908POPC   C3B15225   3.404   8.027   7.990
  908POPC   C4B15226   3.275   7.871   7.598
  909POPC   NC315227  22.080   0.072   9.419
  909POPC   PO415228  22.203  44.369   9.475
  909POPC   GL115229  22.199  44.594   9.079
  909POPC   GL215230  22.476  44.413   8.908
  909POPC   C1A15231  22.367  44.957   8.784
  909POPC   D2A15232  22.416   0.180   8.363
  909POPC   C3A15233  22.378  44.841   8.061
  909POPC   C4A15234  22.058  44.851   7.761
  909POPC   C1B15235  22.172  44.518   8.562
  909POPC   C2B15236  22.093  44.406   8.128
  909POPC   C3B15237  21.886  44.369   7.702
  909POPC   C4B15238  21.950  44.137   7.299
  910POPC   NC315239  25.754  39.254   9.450
  910POPC   PO415240  26.386  39.423   9.620
  910POPC   GL115241  26.266  39.363   9.130
  910POPC   GL215242  25.918  39.207   9.001
  910POPC   C1A15243  26.269  39.257   8.672
  910POPC   D2A15244  25.934  39.384   8.420
  910POPC   C3A15245  26.065  39.441   8.026
  910POPC   C4A15246  26.090  39.185   7.706
  910POPC   C1B15247  25.864  38.910   8.702
  910POPC   C2B15248  26.092  38.883   8.337
  910POPC   C3B15249  25.818  38.909   8.026
  910POPC   C4B15250  25.791  38.769   7.632
  911POPC   NC315251  13.057  22.802   9.549
  911POPC   PO415252  12.667  23.320   9.415
  911POPC   GL115253  12.844  23.075   9.121
  911POPC   GL215254  12.749  22.721   9.127
  911POPC   C1A15255  12.732  23.167   8.714
  911POPC   D2A15256  12.838  23.144   8.317
  911POPC   C3A15257  12.730  22.838   8.034
  911POPC   C4A15258  12.687  23.060   7.684
  911POPC   C1B15259  12.723  22.619   8.683
  911POPC   C2B15260  13.001  22.516   8.321
  911POPC   C3B15261  13.154  22.496   7.905
  911POPC   C4B15262  12.934  22.633   7.533
  912POPC   NC315263  15.747  15.846   9.538
  912POPC   PO415264  16.327  16.073   9.599
  912POPC   GL115265  16.080  16.095   9.190
  912POPC   GL215266  15.939  15.770   9.065
  912POPC   C1A15267  15.961  16.161   8.753
  912POPC   D2A15268  15.966  15.802   8.493
  912POPC   C3A15269  16.098  15.919   8.103
  912POPC   C4A15270  16.011  15.776   7.716
  912POPC   C1B15271  15.557  15.872   8.817
  912POPC   C2B15272  15.488  16.069   8.430
  912POPC   C3B15273  15.595  15.887   8.041
  912POPC   C4B15274  15.621  16.139   7.676
  913POPC   NC315275  36.701   7.108   9.429
  913POPC   PO415276  37.008   6.487   9.422
  913POPC   GL115277  37.177   6.605   9.033
  913POPC   GL215278  37.067   6.927   9.101
  913POPC   C1A15279  37.117   6.615   8.553
  913POPC   D2A15280  36.779   6.393   8.271
  913POPC   C3A15281  36.768   6.382   7.790
  913POPC   C4A15282  36.624   6.562   7.309
  913POPC   C1B15283  36.716   6.793   8.834
  913POPC   C2B15284  36.704   6.901   8.402
  913POPC   C3B15285  36.948   6.829   8.021
  913POPC   C4B15286  36.657   6.892   7.688
  914POPC   NC315287  32.708   8.107   9.397
  914POPC   PO415288  33.120   8.620   9.645
  914POPC   GL115289  33.186   8.455   9.172
  914POPC   GL215290  33.083   8.121   9.079
  914POPC   C1A15291  33.054   8.478   8.728
  914POPC   D2A15292  33.280   8.481   8.359
  914POPC   C3A15293  33.057   8.470   8.030
  914POPC   C4A15294  32.946   8.364   7.646
  914POPC   C1B15295  32.819   8.017   8.730
  914POPC   C2B15296  32.735   8.201   8.327
  914POPC   C3B15297  32.741   7.993   7.918
  914POPC   C4B15298  33.033   7.728   7.683
  915POPC   NC315299   5.495  24.289   9.359
  915POPC   PO415300   4.789  24.212   9.400
  915POPC   GL115301   5.076  24.399   9.098
  915POPC   GL215302   5.200  24.739   9.175
  915POPC   C1A15303   5.016  24.610   8.705
  915POPC   D2A15304   5.105  24.387   8.347
  915POPC   C3A15305   4.909  24.530   7.964
  915POPC   C4A15306   5.111  24.438   7.550
  915POPC   C1B15307   5.496  24.797   8.806
  915POPC   C2B15308   5.355  24.880   8.369
  915POPC   C3B15309   5.401  24.641   7.969
  915POPC   C4B15310   5.517  24.769   7.553
  916POPC   NC315311  10.828  37.373   9.406
  916POPC   PO415312  11.237  37.903   9.670
  916POPC   GL115313  11.170  37.736   9.250
  916POPC   GL215314  11.486  37.606   9.124
  916POPC   C1A15315  11.093  37.790   8.821
  916POPC   D2A15316  11.355  37.848   8.455
  916POPC   C3A15317  11.097  37.834   8.079
  916POPC   C4A15318  11.239  37.920   7.683
  916POPC   C1B15319  11.410  37.400   8.718
  916POPC   C2B15320  11.073  37.431   8.427
  916POPC   C3B15321  11.377  37.388   8.119
  916POPC   C4B15322  11.259  37.406   7.735
  917POPC   NC315323  26.199  22.567   9.517
  917POPC   PO415324  25.752  22.146   9.291
  917POPC   GL115325  25.857  21.906   8.957
  917POPC   GL215326  26.199  21.876   9.079
  917POPC   C1A15327  25.928  21.984   8.544
  917POPC   D2A15328  26.188  22.306   8.375
  917POPC   C3A15329  26.104  22.333   7.968
  917POPC   C4A15330  26.309  22.097   7.713
  917POPC   C1B15331  26.424  21.889   8.671
  917POPC   C2B15332  26.349  21.846   8.227
  917POPC   C3B15333  25.966  21.839   8.016
  917POPC   C4B15334  25.968  21.705   7.581
  918POPC   NC315335  10.822  17.212   9.526
  918POPC   PO415336  10.662  16.579   9.550
  918POPC   GL115337  10.519  16.881   9.243
  918POPC   GL215338  10.301  16.632   9.160
  918POPC   C1A15339  10.301  17.028   8.849
  918POPC   D2A15340  10.170  17.210   8.462
  918POPC   C3A15341  10.221  17.002   8.069
  918POPC   C4A15342  10.619  16.949   7.874
  918POPC   C1B15343  10.594  16.587   8.789
  918POPC   C2B15344  10.650  16.264   8.433
  918POPC   C3B15345  10.668  16.312   7.973
  918POPC   C4B15346  10.329  16.541   7.756
  919POPC   NC315347  12.919  33.028   9.770
  919POPC   PO415348  12.668  32.507   9.370
  919POPC   GL115349  12.650  32.846   9.111
  919POPC   GL215350  12.818  33.171   9.208
  919POPC   C1A15351  12.591  32.925   8.703
  919POPC   D2A15352  12.334  32.849   8.335
  919POPC   C3A15353  12.669  32.941   8.022
  919POPC   C4A15354  12.935  32.704   7.746
  919POPC   C1B15355  13.081  33.332   8.825
  919POPC   C2B15356  13.226  33.388   8.429
  919POPC   C3B15357  12.981  33.402   8.091
  919POPC   C4B15358  12.981  33.209   7.703
  920POPC   NC315359  36.695  21.469  10.050
  920POPC   PO415360  36.956  21.177   9.526
  920POPC   GL115361  36.883  21.305   9.138
  920POPC   GL215362  37.210  21.431   9.100
  920POPC   C1A15363  36.809  21.302   8.709
  920POPC   D2A15364  36.884  21.032   8.350
  920POPC   C3A15365  37.069  21.244   8.010
  920POPC   C4A15366  36.886  21.483   7.651
  920POPC   C1B15367  37.061  21.734   8.801
  920POPC   C2B15368  37.079  21.596   8.394
  920POPC   C3B15369  37.054  21.782   8.026
  920POPC   C4B15370  37.121  21.979   7.668
  921POPC   NC315371  34.374  22.606   9.563
  921POPC   PO415372  34.676  23.224   9.560
  921POPC   GL115373  34.713  22.969   9.173
  921POPC   GL215374  34.386  23.004   9.172
  921POPC   C1A15375  34.881  23.067   8.744
  921POPC   D2A15376  34.637  23.073   8.351
  921POPC   C3A15377  34.608  22.979   7.918
  921POPC   C4A15378  34.902  23.118   7.624
  921POPC   C1B15379  34.193  22.764   8.892
  921POPC   C2B15380  34.191  22.826   8.507
  921POPC   C3B15381  34.148  22.799   8.124
  921POPC   C4B15382  34.272  22.551   7.823
  922POPC   NC315383  34.933   4.611   9.520
  922POPC   PO415384  34.468   4.098   9.526
  922POPC   GL115385  34.654   4.290   9.195
  922POPC   GL215386  35.033   4.212   9.197
  922POPC   C1A15387  34.425   4.278   8.815
  922POPC   D2A15388  34.439   4.432   8.401
  922POPC   C3A15389  34.346   4.158   8.063
  922POPC   C4A15390  34.523   4.277   7.674
  922POPC   C1B15391  34.954   4.351   8.770
  922POPC   C2B15392  34.965   4.501   8.369
  922POPC   C3B15393  34.862   4.255   8.037
  922POPC   C4B15394  35.048   4.220   7.619
  923POPC   NC315395  41.312  38.933   9.497
  923POPC   PO415396  41.695  39.490   9.545
  923POPC   GL115397  41.446  39.372   9.191
  923POPC   GL215398  41.655  39.112   9.138
  923POPC   C1A15399  41.357  39.273   8.737
  923POPC   D2A15400  41.270  39.365   8.296
  923POPC   C3A15401  41.263  39.107   7.936
  923POPC   C4A15402  41.327  39.395   7.606
  923POPC   C1B15403  41.792  38.995   8.750
  923POPC   C2B15404  41.782  39.254   8.400
  923POPC   C3B15405  41.702  39.421   7.989
  923POPC   C4B15406  41.789  39.154   7.641
  924POPC   NC315407   4.465  35.098   9.496
  924POPC   PO415408   4.038  35.542   9.139
  924POPC   GL115409   4.432  35.478   8.935
  924POPC   GL215410   4.476  35.143   8.987
  924POPC   C1A15411   4.499  35.430   8.494
  924POPC   D2A15412   4.128  35.329   8.235
  924POPC   C3A15413   4.062  35.547   7.823
  924POPC   C4A15414   3.992  35.591   7.379
  924POPC   C1B15415   4.522  34.925   8.644
  924POPC   C2B15416   4.618  34.993   8.216
  924POPC   C3B15417   4.490  35.278   7.888
  924POPC   C4B15418   4.432  35.343   7.437
  925POPC   NC315419   1.666  17.034   9.967
  925POPC   PO415420   1.944  16.575   9.569
  925POPC   GL115421   1.952  16.721   9.173
  925POPC   GL215422   2.264  16.587   9.096
  925POPC   C1A15423   1.926  16.901   8.810
  925POPC   D2A15424   1.789  16.729   8.456
  925POPC   C3A15425   2.041  16.740   8.130
  925POPC   C4A15426   1.781  16.723   7.757
  925POPC   C1B15427   2.424  16.374   8.743
  925POPC   C2B15428   2.524  16.494   8.317
  925POPC   C3B15429   2.425  16.453   7.898
  925POPC   C4B15430   2.150  16.469   7.506
  926POPC   NC315431  38.083  15.312   9.298
  926POPC   PO415432  38.613  15.021   9.556
  926POPC   GL115433  38.497  15.073   9.129
  926POPC   GL215434  38.607  15.411   9.157
  926POPC   C1A15435  38.231  15.012   8.735
  926POPC   D2A15436  38.386  14.923   8.347
  926POPC   C3A15437  38.192  14.815   7.984
  926POPC   C4A15438  38.459  14.930   7.668
  926POPC   C1B15439  38.446  15.478   8.763
  926POPC   C2B15440  38.579  15.384   8.376
  926POPC   C3B15441  38.351  15.324   7.996
  926POPC   C4B15442  38.460  15.439   7.590
  927POPC   NC315443  27.384  12.488   9.467
  927POPC   PO415444  27.406  13.078   9.425
  927POPC   GL115445  27.582  12.821   9.134
  927POPC   GL215446  27.527  13.077   8.905
  927POPC   C1A15447  27.871  12.667   8.814
  927POPC   D2A15448  27.869  12.918   8.436
  927POPC   C3A15449  27.729  12.714   8.062
  927POPC   C4A15450  27.677  12.654   7.596
  927POPC   C1B15451  27.403  12.751   8.652
  927POPC   C2B15452  27.238  12.788   8.289
  927POPC   C3B15453  27.281  12.918   7.866
  927POPC   C4B15454  27.209  12.767   7.443
  928POPC   NC315455  31.349  18.577   9.589
  928POPC   PO415456  31.859  18.126   9.380
  928POPC   GL115457  31.643  18.372   9.114
  928POPC   GL215458  31.311  18.293   9.175
  928POPC   C1A15459  31.718  18.320   8.680
  928POPC   D2A15460  31.747  18.537   8.274
  928POPC   C3A15461  31.647  18.318   7.874
  928POPC   C4A15462  31.696  18.300   7.403
  928POPC   C1B15463  31.166  18.224   8.765
  928POPC   C2B15464  31.285  18.319   8.359
  928POPC   C3B15465  31.139  18.231   7.988
  928POPC   C4B15466  31.175  18.349   7.546
  929POPC   NC315467   4.659   0.699   9.281
  929POPC   PO415468   4.162   0.274   9.413
  929POPC   GL115469   4.167   0.529   9.119
  929POPC   GL215470   3.838   0.597   9.063
  929POPC   C1A15471   4.358   0.440   8.745
  929POPC   D2A15472   4.332   0.187   8.384
  929POPC   C3A15473   4.568   0.320   8.005
  929POPC   C4A15474   4.460   0.245   7.569
  929POPC   C1B15475   3.882   0.675   8.666
  929POPC   C2B15476   4.133   0.691   8.367
  929POPC   C3B15477   4.098   0.505   8.001
  929POPC   C4B15478   4.331   0.719   7.718
  930POPC   NC315479   6.631  23.508   9.432
  930POPC   PO415480   6.329  24.059   9.184
  930POPC   GL115481   6.631  23.774   9.018
  930POPC   GL215482   6.975  23.880   9.101
  930POPC   C1A15483   6.709  23.498   8.684
  930POPC   D2A15484   6.519  23.420   8.263
  930POPC   C3A15485   6.709  23.576   7.880
  930POPC   C4A15486   6.805  23.362   7.489
  930POPC   C1B15487   6.819  24.137   8.750
  930POPC   C2B15488   6.592  24.137   8.398
  930POPC   C3B15489   6.750  24.088   8.004
  930POPC   C4B15490   6.543  24.015   7.662
  931POPC   NC315491  36.710   6.108   9.462
  931POPC   PO415492  36.036   6.203   9.553
  931POPC   GL115493  36.064   5.885   9.184
  931POPC   GL215494  36.327   5.610   9.187
  931POPC   C1A15495  35.930   5.832   8.728
  931POPC   D2A15496  35.903   5.949   8.294
  931POPC   C3A15497  35.936   5.674   7.954
  931POPC   C4A15498  35.864   5.414   7.586
  931POPC   C1B15499  36.451   5.858   8.823
  931POPC   C2B15500  36.522   5.895   8.375
  931POPC   C3B15501  36.385   6.056   7.975
  931POPC   C4B15502  36.438   6.114   7.478
  932POPC   NC315503  41.139  36.430   9.697
  932POPC   PO415504  41.703  36.169   9.506
  932POPC   GL115505  41.604  35.927   9.145
  932POPC   GL215506  41.314  36.106   9.122
  932POPC   C1A15507  41.622  36.034   8.723
  932POPC   D2A15508  41.913  36.282   8.529
  932POPC   C3A15509  41.788  36.212   8.107
  932POPC   C4A15510  41.886  36.114   7.672
  932POPC   C1B15511  41.137  35.843   8.783
  932POPC   C2B15512  41.180  35.730   8.340
  932POPC   C3B15513  41.213  35.892   7.912
  932POPC   C4B15514  41.390  36.297   7.706
  933POPC   NC315515  14.795  23.983   9.450
  933POPC   PO415516  14.968  23.288   9.293
  933POPC   GL115517  14.895  23.680   9.051
  933POPC   GL215518  15.193  23.893   9.112
  933POPC   C1A15519  14.881  24.040   8.747
  933POPC   D2A15520  14.879  24.196   8.335
  933POPC   C3A15521  15.023  23.954   7.993
  933POPC   C4A15522  15.134  23.921   7.574
  933POPC   C1B15523  15.293  23.716   8.698
  933POPC   C2B15524  15.251  23.578   8.259
  933POPC   C3B15525  15.391  23.555   7.822
  933POPC   C4B15526  15.608  23.746   7.456
  934POPC   NC315527   0.665   9.544   9.849
  934POPC   PO415528   0.425  10.064   9.418
  934POPC   GL115529   0.495   9.999   9.014
  934POPC   GL215530   0.792  10.106   9.056
  934POPC   C1A15531   0.305   9.855   8.641
  934POPC   D2A15532   0.077   9.896   8.255
  934POPC   C3A15533   0.250  10.027   7.860
  934POPC   C4A15534   0.390   9.876   7.458
  934POPC   C1B15535   0.851   9.762   8.735
  934POPC   C2B15536   0.633   9.605   8.352
  934POPC   C3B15537   0.694   9.745   7.938
  934POPC   C4B15538   0.725   9.513   7.570
  935POPC   NC315539  20.925  11.167   9.808
  935POPC   PO415540  21.486  11.176   9.418
  935POPC   GL115541  21.401  11.324   8.958
  935POPC   GL215542  21.218  11.615   9.031
  935POPC   C1A15543  21.561  11.409   8.565
  935POPC   D2A15544  21.821  11.109   8.356
  935POPC   C3A15545  21.725  11.204   7.988
  935POPC   C4A15546  21.354  11.170   7.817
  935POPC   C1B15547  21.003  11.448   8.641
  935POPC   C2B15548  21.018  11.377   8.183
  935POPC   C3B15549  20.848  11.224   7.784
  935POPC   C4B15550  21.058  11.215   7.383
  936POPC   NC315551  39.934  29.488   9.480
  936POPC   PO415552  40.325  28.945   9.434
  936POPC   GL115553  40.048  29.101   9.111
  936POPC   GL215554  39.769  29.385   9.018
  936POPC   C1A15555  40.200  29.286   8.743
  936POPC   D2A15556  40.059  29.466   8.379
  936POPC   C3A15557  40.257  29.267   8.044
  936POPC   C4A15558  40.061  29.054   7.732
  936POPC   C1B15559  39.686  29.021   8.760
  936POPC   C2B15560  39.814  28.992   8.354
  936POPC   C3B15561  39.622  29.047   7.980
  936POPC   C4B15562  39.628  28.818   7.610
  937POPC   NC315563  42.869  35.904   9.452
  937POPC   PO415564  43.472  36.220   9.255
  937POPC   GL115565  43.120  36.186   9.072
  937POPC   GL215566  43.075  36.506   9.140
  937POPC   C1A15567  43.145  36.105   8.646
  937POPC   D2A15568  43.413  36.252   8.301
  937POPC   C3A15569  43.292  36.108   7.886
  937POPC   C4A15570  42.983  35.930   7.605
  937POPC   C1B15571  43.187  36.624   8.726
  937POPC   C2B15572  42.962  36.476   8.366
  937POPC   C3B15573  43.102  36.578   7.977
  937POPC   C4B15574  42.910  36.424   7.625
  938POPC   NC315575  42.549   6.790   9.358
  938POPC   PO415576  42.368   6.127   9.443
  938POPC   GL115577  42.169   6.502   9.172
  938POPC   GL215578  42.126   6.885   9.084
  938POPC   C1A15579  42.204   6.557   8.728
  938POPC   D2A15580  42.288   6.256   8.436
  938POPC   C3A15581  42.257   6.303   8.018
  938POPC   C4A15582  42.195   6.426   7.617
  938POPC   C1B15583  42.493   6.981   8.736
  938POPC   C2B15584  42.386   6.791   8.300
  938POPC   C3B15585  42.342   6.987   7.893
  938POPC   C4B15586  42.394   6.869   7.480
  939POPC   NC315587   4.678  16.114   9.625
  939POPC   PO415588   4.168  15.732   9.503
  939POPC   GL115589   4.446  15.819   9.164
  939POPC   GL215590   4.143  15.824   8.995
  939POPC   C1A15591   4.502  15.973   8.701
  939POPC   D2A15592   4.488  15.780   8.293
  939POPC   C3A15593   4.600  16.065   7.945
  939POPC   C4A15594   4.763  16.489   7.795
  939POPC   C1B15595   3.916  15.956   8.655
  939POPC   C2B15596   3.996  15.913   8.233
  939POPC   C3B15597   4.107  15.971   7.792
  939POPC   C4B15598   4.400  15.730   7.593
  940POPC   NC315599   7.643   1.801   9.346
  940POPC   PO415600   7.525   2.297   9.735
  940POPC   GL115601   7.443   2.388   9.253
  940POPC   GL215602   7.286   2.072   9.088
  940POPC   C1A15603   7.203   2.505   8.859
  940POPC   D2A15604   7.191   2.215   8.469
  940POPC   C3A15605   7.413   2.156   8.085
  940POPC   C4A15606   7.195   2.128   7.706
  940POPC   C1B15607   7.154   1.765   8.745
  940POPC   C2B15608   7.118   1.698   8.287
  940POPC   C3B15609   7.255   1.639   7.855
  940POPC   C4B15610   7.621   1.820   7.596
  941POPC   NC315611  35.588  21.084   9.478
  941POPC   PO415612  36.145  20.702   9.456
  941POPC   GL115613  36.360  20.481   9.149
  941POPC   GL215614  36.053  20.598   8.962
  941POPC   C1A15615  36.420  20.416   8.704
  941POPC   D2A15616  36.152  20.743   8.482
  941POPC   C3A15617  35.919  20.658   8.138
  941POPC   C4A15618  36.028  20.595   7.727
  941POPC   C1B15619  35.919  21.012   8.914
  941POPC   C2B15620  35.944  21.241   8.576
  941POPC   C3B15621  35.921  21.170   8.157
  941POPC   C4B15622  35.716  21.001   7.797
  942POPC   NC315623  37.291  13.782   9.364
  942POPC   PO415624  37.761  13.325   9.526
  942POPC   GL115625  37.813  13.624   9.187
  942POPC   GL215626  37.776  14.002   9.257
  942POPC   C1A15627  37.957  13.537   8.777
  942POPC   D2A15628  37.860  13.728   8.379
  942POPC   C3A15629  37.775  13.418   8.076
  942POPC   C4A15630  37.748  13.510   7.656
  942POPC   C1B15631  37.631  13.984   8.807
  942POPC   C2B15632  37.418  14.066   8.388
  942POPC   C3B15633  37.529  13.876   7.986
  942POPC   C4B15634  37.263  13.688   7.647
  943POPC   NC315635  15.742  17.554   9.553
  943POPC   PO415636  15.091  17.745   9.476
  943POPC   GL115637  15.155  17.399   9.171
  943POPC   GL215638  15.453  17.194   9.236
  943POPC   C1A15639  15.120  17.390   8.740
  943POPC   D2A15640  14.829  17.382   8.403
  943POPC   C3A15641  14.980  17.364   8.006
  943POPC   C4A15642  14.909  17.706   7.729
  943POPC   C1B15643  15.585  17.493   8.922
  943POPC   C2B15644  15.589  17.523   8.487
  943POPC   C3B15645  15.402  17.605   8.101
  943POPC   C4B15646  15.359  17.504   7.672
  944POPC   NC315647  11.452  36.860   9.567
  944POPC   PO415648  11.581  36.232   9.427
  944POPC   GL115649  11.358  36.218   9.077
  944POPC   GL215650  11.043  36.069   9.172
  944POPC   C1A15651  11.453  36.426   8.707
  944POPC   D2A15652  11.368  36.473   8.286
  944POPC   C3A15653  11.504  36.155   7.991
  944POPC   C4A15654  11.503  36.393   7.642
  944POPC   C1B15655  10.944  36.176   8.756
  944POPC   C2B15656  11.113  36.039   8.378
  944POPC   C3B15657  11.014  36.103   7.963
  944POPC   C4B15658  10.922  35.869   7.596
  945POPC   NC315659  22.816   7.105   9.487
  945POPC   PO415660  23.353   7.442   9.424
  945POPC   GL115661  23.092   7.452   9.140
  945POPC   GL215662  22.863   7.659   9.302
  945POPC   C1A15663  23.168   7.443   8.715
  945POPC   D2A15664  23.301   7.439   8.304
  945POPC   C3A15665  22.998   7.494   8.017
  945POPC   C4A15666  22.746   7.220   7.754
  945POPC   C1B15667  22.746   7.711   8.874
  945POPC   C2B15668  22.692   7.435   8.520
  945POPC   C3B15669  22.499   7.506   8.123
  945POPC   C4B15670  22.576   7.707   7.728
  946POPC   NC315671   0.929  27.468   9.444
  946POPC   PO415672   0.354  27.855   9.541
  946POPC   GL115673   0.548  27.661   9.174
  946POPC   GL215674   0.451  27.351   9.014
  946POPC   C1A15675   0.723  27.676   8.753
  946POPC   D2A15676   0.555  27.709   8.339
  946POPC   C3A15677   0.712  27.600   7.925
  946POPC   C4A15678   0.446  27.851   7.642
  946POPC   C1B15679   0.226  27.568   8.737
  946POPC   C2B15680   0.082  27.435   8.367
  946POPC   C3B15681   0.207  27.537   7.988
  946POPC   C4B15682   0.349  27.296   7.670
  947POPC   NC315683  21.397  26.377   9.504
  947POPC   PO415684  21.470  25.653   9.525
  947POPC   GL115685  21.317  25.918   9.191
  947POPC   GL215686  21.646  25.953   9.088
  947POPC   C1A15687  21.209  25.904   8.754
  947POPC   D2A15688  21.396  25.967   8.351
  947POPC   C3A15689  21.108  25.941   8.014
  947POPC   C4A15690  21.183  25.897   7.576
  947POPC   C1B15691  21.790  26.134   8.691
  947POPC   C2B15692  21.756  26.352   8.280
  947POPC   C3B15693  21.496  26.256   7.919
  947POPC   C4B15694  21.547  26.252   7.476
  948POPC   NC315695  27.939   6.100   9.558
  948POPC   PO415696  28.239   5.527   9.740
  948POPC   GL115697  28.321   5.736   9.283
  948POPC   GL215698  28.134   6.002   9.091
  948POPC   C1A15699  28.623   5.889   8.919
  948POPC   D2A15700  28.713   6.179   8.560
  948POPC   C3A15701  28.637   6.023   8.139
  948POPC   C4A15702  28.692   5.849   7.722
  948POPC   C1B15703  28.211   6.035   8.636
  948POPC   C2B15704  28.099   5.836   8.254
  948POPC   C3B15705  28.213   5.946   7.890
  948POPC   C4B15706  28.006   6.289   7.765
  949POPC   NC315707  23.379  35.208   9.513
  949POPC   PO415708  24.077  35.282   9.601
  949POPC   GL115709  23.865  35.389   9.196
  949POPC   GL215710  23.480  35.446   9.087
  949POPC   C1A15711  23.805  35.192   8.805
  949POPC   D2A15712  23.547  35.302   8.463
  949POPC   C3A15713  23.819  35.358   8.148
  949POPC   C4A15714  23.849  35.290   7.726
  949POPC   C1B15715  23.347  35.699   8.731
  949POPC   C2B15716  23.149  35.598   8.342
  949POPC   C3B15717  23.318  35.512   7.978
  949POPC   C4B15718  23.321  35.756   7.654
  950POPC   NC315719  34.125  35.480   9.536
  950POPC   PO415720  34.702  35.072   9.439
  950POPC   GL115721  34.504  35.411   9.213
  950POPC   GL215722  34.438  35.167   8.983
  950POPC   C1A15723  34.499  35.619   8.805
  950POPC   D2A15724  34.738  35.344   8.547
  950POPC   C3A15725  34.534  35.360   8.156
  950POPC   C4A15726  34.685  35.620   7.804
  950POPC   C1B15727  34.283  35.118   8.606
  950POPC   C2B15728  34.214  34.916   8.265
  950POPC   C3B15729  34.332  34.917   7.875
  950POPC   C4B15730  34.695  35.097   7.732
  951POPC   NC315731   3.716  36.406   9.462
  951POPC   PO415732   3.182  36.028   9.361
  951POPC   GL115733   3.312  36.339   9.068
  951POPC   GL215734   3.646  36.190   9.019
  951POPC   C1A15735   3.381  36.296   8.613
  951POPC   D2A15736   3.735  36.125   8.351
  951POPC   C3A15737   3.620  36.055   7.912
  951POPC   C4A15738   3.344  36.348   7.702
  951POPC   C1B15739   3.829  36.492   8.748
  951POPC   C2B15740   4.005  36.551   8.349
  951POPC   C3B15741   3.820  36.520   7.935
  951POPC   C4B15742   3.787  36.444   7.482
  952POPC   NC315743  12.870  29.414   9.489
  952POPC   PO415744  12.499  28.861   9.619
  952POPC   GL115745  12.603  29.089   9.214
  952POPC   GL215746  12.649  29.421   9.038
  952POPC   C1A15747  12.796  28.987   8.821
  952POPC   D2A15748  12.861  29.227   8.445
  952POPC   C3A15749  12.936  28.954   8.081
  952POPC   C4A15750  12.962  28.893   7.634
  952POPC   C1B15751  12.599  29.684   8.702
  952POPC   C2B15752  12.552  29.613   8.276
  952POPC   C3B15753  12.846  29.462   7.981
  952POPC   C4B15754  12.811  29.423   7.556
  953POPC   NC315755  17.648   9.178   9.461
  953POPC   PO415756  17.111   9.060   9.315
  953POPC   GL115757  17.504   8.895   9.066
  953POPC   GL215758  17.873   8.786   9.144
  953POPC   C1A15759  17.725   9.031   8.703
  953POPC   D2A15760  17.533   8.937   8.305
  953POPC   C3A15761  17.439   9.166   7.926
  953POPC   C4A15762  17.279   9.228   7.501
  953POPC   C1B15763  17.736   8.509   8.760
  953POPC   C2B15764  17.594   8.432   8.298
  953POPC   C3B15765  17.533   8.667   7.872
  953POPC   C4B15766  17.643   8.561   7.446
  954POPC   NC315767   9.963  17.656   9.678
  954POPC   PO415768   9.606  17.075   9.600
  954POPC   GL115769   9.833  17.344   9.295
  954POPC   GL215770   9.658  17.668   9.223
  954POPC   C1A15771   9.933  17.394   8.875
  954POPC   D2A15772   9.850  17.646   8.478
  954POPC   C3A15773   9.998  17.496   8.082
  954POPC   C4A15774   9.856  17.401   7.696
  954POPC   C1B15775   9.457  17.555   8.820
  954POPC   C2B15776   9.312  17.468   8.424
  954POPC   C3B15777   9.493  17.568   8.049
  954POPC   C4B15778   9.386  17.668   7.684
  955POPC   NC315779  18.747  23.246   9.556
  955POPC   PO415780  19.185  22.650   9.489
  955POPC   GL115781  19.127  22.957   9.157
  955POPC   GL215782  19.092  22.738   8.884
  955POPC   C1A15783  19.424  23.110   8.812
  955POPC   D2A15784  19.390  23.263   8.414
  955POPC   C3A15785  19.273  22.957   8.103
  955POPC   C4A15786  19.258  23.170   7.724
  955POPC   C1B15787  18.950  23.129   8.653
  955POPC   C2B15788  18.810  23.175   8.208
  955POPC   C3B15789  18.742  23.076   7.768
  955POPC   C4B15790  18.499  23.303   7.416
  956POPC   NC315791   6.208  37.729   9.497
  956POPC   PO415792   5.586  37.424   9.535
  956POPC   GL115793   5.716  37.601   9.128
  956POPC   GL215794   6.078  37.524   9.053
  956POPC   C1A15795   5.756  37.523   8.668
  956POPC   D2A15796   5.855  37.819   8.353
  956POPC   C3A15797   5.882  37.727   7.919
  956POPC   C4A15798   5.778  37.809   7.470
  956POPC   C1B15799   6.064  37.935   8.849
  956POPC   C2B15800   6.181  38.178   8.494
  956POPC   C3B15801   6.004  38.229   8.082
  956POPC   C4B15802   6.136  38.114   7.694
  957POPC   NC315803   0.768  25.982   9.791
  957POPC   PO415804   0.147  26.252   9.517
  957POPC   GL115805   0.282  26.154   9.125
  957POPC   GL215806   0.408  25.825   9.165
  957POPC   C1A15807   0.599  26.257   8.787
  957POPC   D2A15808   0.783  26.236   8.370
  957POPC   C3A15809   0.500  26.241   8.021
  957POPC   C4A15810   0.610  26.289   7.600
  957POPC   C1B15811   0.293  25.846   8.722
  957POPC   C2B15812   0.445  25.800   8.304
  957POPC   C3B15813   0.526  25.757   7.841
  957POPC   C4B15814   0.495  25.848   7.401
  958POPC   NC315815  11.428  25.720   9.507
  958POPC   PO415816  11.226  25.017   9.542
  958POPC   GL115817  11.196  25.208   9.142
  958POPC   GL215818  11.510  25.362   9.103
  958POPC   C1A15819  11.278  25.139   8.686
  958POPC   D2A15820  11.174  24.873   8.337
  958POPC   C3A15821  11.295  25.059   7.948
  958POPC   C4A15822  11.217  24.965   7.535
  958POPC   C1B15823  11.221  25.630   8.847
  958POPC   C2B15824  10.993  25.646   8.471
  958POPC   C3B15825  10.930  25.700   8.053
  958POPC   C4B15826  11.015  25.424   7.695
  959POPC   NC315827   8.525   9.438   9.997
  959POPC   PO415828   8.487   9.970   9.518
  959POPC   GL115829   8.260   9.765   9.197
  959POPC   GL215830   8.250  10.067   9.039
  959POPC   C1A15831   8.094   9.571   8.803
  959POPC   D2A15832   8.301   9.320   8.466
  959POPC   C3A15833   8.365   9.514   8.057
  959POPC   C4A15834   8.422   9.873   7.788
  959POPC   C1B15835   8.068  10.091   8.642
  959POPC   C2B15836   8.116   9.969   8.201
  959POPC   C3B15837   8.028  10.199   7.820
  959POPC   C4B15838   7.770  10.141   7.469
  960POPC   NC315839  17.220  36.023   9.575
  960POPC   PO415840  16.472  36.035   9.634
  960POPC   GL115841  16.654  35.977   9.231
  960POPC   GL215842  16.451  36.232   9.133
  960POPC   C1A15843  16.728  35.995   8.774
  960POPC   D2A15844  16.708  35.832   8.373
  960POPC   C3A15845  17.015  35.800   8.081
  960POPC   C4A15846  16.783  35.692   7.715
  960POPC   C1B15847  16.398  36.391   8.733
  960POPC   C2B15848  16.529  36.321   8.301
  960POPC   C3B15849  16.566  36.133   7.891
  960POPC   C4B15850  16.632  36.108   7.433
  961POPC   NC315851   4.154  29.027   9.571
  961POPC   PO415852   3.795  29.490   9.306
  961POPC   GL115853   4.008  29.131   9.078
  961POPC   GL215854   4.361  28.944   9.116
  961POPC   C1A15855   4.068  28.964   8.669
  961POPC   D2A15856   4.259  28.821   8.281
  961POPC   C3A15857   4.179  29.014   7.940
  961POPC   C4A15858   4.133  29.429   7.945
  961POPC   C1B15859   4.603  28.812   8.741
  961POPC   C2B15860   4.746  28.691   8.298
  961POPC   C3B15861   4.691  28.985   7.936
  961POPC   C4B15862   4.676  29.008   7.478
  962POPC   NC315863  38.740  14.090   9.632
  962POPC   PO415864  39.288  14.581   9.733
  962POPC   GL115865  39.275  14.643   9.235
  962POPC   GL215866  39.284  14.346   8.996
  962POPC   C1A15867  38.961  14.681   8.869
  962POPC   D2A15868  39.169  14.499   8.506
  962POPC   C3A15869  39.103  14.549   8.055
  962POPC   C4A15870  39.215  14.713   7.630
  962POPC   C1B15871  39.464  14.103   8.661
  962POPC   C2B15872  39.402  14.129   8.223
  962POPC   C3B15873  39.433  14.198   7.787
  962POPC   C4B15874  39.618  14.310   7.391
  963POPC   NC315875   5.192  31.046   9.310
  963POPC   PO415876   5.403  30.544   9.736
  963POPC   GL115877   5.206  30.545   9.302
  963POPC   GL215878   5.462  30.603   9.075
  963POPC   C1A15879   5.002  30.607   8.824
  963POPC   D2A15880   5.072  30.502   8.387
  963POPC   C3A15881   4.930  30.698   8.057
  963POPC   C4A15882   4.835  30.496   7.690
  963POPC   C1B15883   5.393  30.903   8.729
  963POPC   C2B15884   5.219  31.010   8.364
  963POPC   C3B15885   5.379  30.952   7.960
  963POPC   C4B15886   5.087  30.974   7.638
  964POPC   NC315887  12.404  13.413   9.474
  964POPC   PO415888  11.919  13.819   9.302
  964POPC   GL115889  11.928  13.630   8.962
  964POPC   GL215890  12.308  13.616   8.961
  964POPC   C1A15891  11.963  13.844   8.574
  964POPC   D2A15892  12.201  14.114   8.291
  964POPC   C3A15893  12.102  13.936   7.906
  964POPC   C4A15894  11.774  13.674   7.817
  964POPC   C1B15895  12.158  13.305   8.652
  964POPC   C2B15896  12.387  13.048   8.407
  964POPC   C3B15897  12.519  13.277   8.103
  964POPC   C4B15898  12.258  13.452   7.785
  965POPC   NC315899  28.102  17.481   9.425
  965POPC   PO415900  28.787  17.509   9.537
  965POPC   GL115901  28.557  17.443   9.217
  965POPC   GL215902  28.453  17.801   9.221
  965POPC   C1A15903  28.396  17.379   8.837
  965POPC   D2A15904  28.272  17.619   8.500
  965POPC   C3A15905  28.291  17.523   8.073
  965POPC   C4A15906  28.175  17.804   7.746
  965POPC   C1B15907  28.592  17.874   8.834
  965POPC   C2B15908  28.705  17.919   8.419
  965POPC   C3B15909  28.650  17.888   7.977
  965POPC   C4B15910  28.878  17.863   7.559
  966POPC   NC315911  34.676  22.034   9.317
  966POPC   PO415912  34.087  22.236   9.501
  966POPC   GL115913  34.260  22.314   9.119
  966POPC   GL215914  34.568  22.489   9.104
  966POPC   C1A15915  34.321  22.302   8.678
  966POPC   D2A15916  34.190  22.303   8.287
  966POPC   C3A15917  34.454  22.108   8.046
  966POPC   C4A15918  34.781  21.884   7.861
  966POPC   C1B15919  34.744  22.587   8.718
  966POPC   C2B15920  34.625  22.572   8.286
  966POPC   C3B15921  34.769  22.475   7.892
  966POPC   C4B15922  34.664  22.642   7.488
  967POPC   NC315923  13.334  43.681   9.693
  967POPC   PO415924  13.975  43.966   9.654
  967POPC   GL115925  13.900  44.092   9.200
  967POPC   GL215926  14.040  43.793   9.120
  967POPC   C1A15927  13.688  44.082   8.764
  967POPC   D2A15928  13.443  43.844   8.395
  967POPC   C3A15929  13.444  43.860   7.942
  967POPC   C4A15930  13.614  44.132   7.625
  967POPC   C1B15931  14.199  43.913   8.732
  967POPC   C2B15932  13.963  43.917   8.370
  967POPC   C3B15933  13.962  43.901   7.956
  967POPC   C4B15934  13.800  43.650   7.628
  968POPC   NC315935  28.287  19.037   9.748
  968POPC   PO415936  28.586  19.189   9.157
  968POPC   GL115937  28.223  19.280   8.930
  968POPC   GL215938  27.948  19.038   9.068
  968POPC   C1A15939  28.317  19.461   8.540
  968POPC   D2A15940  28.518  19.130   8.315
  968POPC   C3A15941  28.393  19.106   7.911
  968POPC   C4A15942  28.168  19.363   7.697
  968POPC   C1B15943  28.171  18.770   8.776
  968POPC   C2B15944  28.258  18.665   8.341
  968POPC   C3B15945  28.032  18.728   7.970
  968POPC   C4B15946  28.001  18.900   7.556
  969POPC   NC315947   1.153  15.535   9.537
  969POPC   PO415948   1.119  14.892   9.524
  969POPC   GL115949   1.266  15.145   9.211
  969POPC   GL215950   0.933  15.306   9.123
  969POPC   C1A15951   1.329  15.255   8.796
  969POPC   D2A15952   1.204  15.146   8.403
  969POPC   C3A15953   1.438  15.012   8.042
  969POPC   C4A15954   1.338  15.173   7.670
  969POPC   C1B15955   0.858  15.002   8.770
  969POPC   C2B15956   0.776  14.884   8.340
  969POPC   C3B15957   0.935  15.040   7.975
  969POPC   C4B15958   0.949  14.866   7.604
  970POPC   NC315959  12.724  42.233   9.496
  970POPC   PO415960  13.310  42.328   9.215
  970POPC   GL115961  12.948  42.292   8.997
  970POPC   GL215962  12.678  42.514   9.091
  970POPC   C1A15963  12.863  42.039   8.632
  970POPC   D2A15964  12.742  41.985   8.197
  970POPC   C3A15965  13.046  42.060   7.850
  970POPC   C4A15966  12.925  42.331   7.479
  970POPC   C1B15967  12.476  42.310   8.795
  970POPC   C2B15968  12.661  42.495   8.412
  970POPC   C3B15969  12.681  42.444   7.960
  970POPC   C4B15970  12.679  42.744   7.634
  971POPC   NC315971  42.746  16.119   9.490
  971POPC   PO415972  42.103  16.056   9.648
  971POPC   GL115973  42.182  15.808   9.274
  971POPC   GL215974  42.524  15.805   9.164
  971POPC   C1A15975  42.145  15.974   8.852
  971POPC   D2A15976  42.344  15.956   8.462
  971POPC   C3A15977  42.079  15.932   8.153
  971POPC   C4A15978  42.199  16.043   7.793
  971POPC   C1B15979  42.703  16.062   8.803
  971POPC   C2B15980  42.796  16.189   8.361
  971POPC   C3B15981  42.693  16.102   7.935
  971POPC   C4B15982  42.617  16.164   7.502
  972POPC   NC315983  27.055  30.989   9.287
  972POPC   PO415984  27.477  30.537   9.607
  972POPC   GL115985  27.672  30.507   9.175
  972POPC   GL215986  27.422  30.689   9.112
  972POPC   C1A15987  27.747  30.564   8.683
  972POPC   D2A15988  27.628  30.738   8.252
  972POPC   C3A15989  27.876  30.725   7.847
  972POPC   C4A15990  27.783  30.456   7.470
  972POPC   C1B15991  27.213  30.466   8.832
  972POPC   C2B15992  27.181  30.452   8.428
  972POPC   C3B15993  27.155  30.627   8.063
  972POPC   C4B15994  27.378  30.874   7.802
  973POPC   NC315995  18.469  15.355   9.441
  973POPC   PO415996  17.839  14.972   9.544
  973POPC   GL115997  18.122  15.046   9.157
  973POPC   GL215998  18.485  14.945   9.139
  973POPC   C1A15999  18.235  15.308   8.777
  973POPC   D2A16000  18.326  15.166   8.347
  973POPC   C3A16001  18.150  15.372   7.979
  973POPC   C4A16002  18.253  15.608   7.596
  973POPC   C1B16003  18.353  14.820   8.736
  973POPC   C2B16004  18.174  14.636   8.373
  973POPC   C3B16005  18.023  14.856   8.023
  973POPC   C4B16006  18.207  15.002   7.645
  974POPC   NC316007  11.257   9.236   9.721
  974POPC   PO416008  10.944   8.797   9.452
  974POPC   GL116009  11.249   8.753   9.158
  974POPC   GL216010  11.327   9.106   9.207
  974POPC   C1A16011  11.250   8.694   8.725
  974POPC   D2A16012  11.277   8.949   8.369
  974POPC   C3A16013  11.251   8.745   7.971
  974POPC   C4A16014  11.214   9.101   7.723
  974POPC   C1B16015  11.451   9.214   8.794
  974POPC   C2B16016  11.691   9.314   8.427
  974POPC   C3B16017  11.558   9.373   7.998
  974POPC   C4B16018  11.602   9.379   7.546
  975POPC   NC316019   8.781  39.367   9.713
  975POPC   PO416020   8.579  38.762   9.443
  975POPC   GL116021   8.895  39.064   9.236
  975POPC   GL216022   8.819  39.391   9.214
  975POPC   C1A16023   9.115  39.175   8.853
  975POPC   D2A16024   8.955  39.157   8.440
  975POPC   C3A16025   9.180  39.025   8.070
  975POPC   C4A16026   9.110  39.188   7.669
  975POPC   C1B16027   8.643  39.412   8.814
  975POPC   C2B16028   8.570  39.522   8.395
  975POPC   C3B16029   8.761  39.388   8.035
  975POPC   C4B16030   8.648  39.398   7.666
  976POPC   NC316031  14.797   6.713   9.420
  976POPC   PO416032  14.140   6.642   9.389
  976POPC   GL116033  14.189   6.464   8.996
  976POPC   GL216034  14.543   6.434   9.044
  976POPC   C1A16035  14.114   6.707   8.610
  976POPC   D2A16036  14.369   6.934   8.302
  976POPC   C3A16037  14.411   6.744   7.885
  976POPC   C4A16038  14.426   6.454   7.538
  976POPC   C1B16039  14.610   6.594   8.659
  976POPC   C2B16040  14.434   6.403   8.319
  976POPC   C3B16041  14.646   6.298   7.982
  976POPC   C4B16042  14.914   6.574   7.719
  977POPC   NC316043   8.145  23.076   9.706
  977POPC   PO416044   8.497  22.672   9.344
  977POPC   GL116045   8.229  22.947   9.155
  977POPC   GL216046   8.511  23.192   9.102
  977POPC   C1A16047   7.955  23.019   8.772
  977POPC   D2A16048   7.819  23.135   8.339
  977POPC   C3A16049   7.965  22.830   8.048
  977POPC   C4A16050   8.185  22.925   7.683
  977POPC   C1B16051   8.477  22.988   8.688
  977POPC   C2B16052   8.465  22.965   8.272
  977POPC   C3B16053   8.267  23.295   8.101
  977POPC   C4B16054   8.112  23.441   7.740
  978POPC   NC316055  32.896  22.466   9.553
  978POPC   PO416056  32.870  23.120   9.643
  978POPC   GL116057  33.013  23.075   9.159
  978POPC   GL216058  32.908  22.762   9.036
  978POPC   C1A16059  33.181  23.153   8.679
  978POPC   D2A16060  33.160  23.232   8.204
  978POPC   C3A16061  32.900  22.967   7.915
  978POPC   C4A16062  32.563  22.908   7.592
  978POPC   C1B16063  33.204  22.652   8.713
  978POPC   C2B16064  33.377  22.737   8.317
  978POPC   C3B16065  33.319  22.683   7.899
  978POPC   C4B16066  33.396  23.114   7.728
  979POPC   NC316067   0.364  24.114   9.753
  979POPC   PO416068   0.431  23.509   9.479
  979POPC   GL116069   0.446  23.657   9.141
  979POPC   GL216070   0.445  24.004   9.225
  979POPC   C1A16071   0.513  23.485   8.771
  979POPC   D2A16072   0.390  23.251   8.458
  979POPC   C3A16073   0.409  23.438   8.100
  979POPC   C4A16074   0.285  23.322   7.727
  979POPC   C1B16075   0.291  23.975   8.796
  979POPC   C2B16076   0.478  23.846   8.416
  979POPC   C3B16077   0.500  23.991   8.030
  979POPC   C4B16078   0.295  24.049   7.657
  980POPC   NC316079  32.789   7.115   9.433
  980POPC   PO416080  33.117   7.745   9.446
  980POPC   GL116081  32.970   7.511   9.118
  980POPC   GL216082  33.237   7.649   8.923
  980POPC   C1A16083  32.803   7.486   8.709
  980POPC   D2A16084  32.895   7.675   8.317
  980POPC   C3A16085  32.677   7.452   7.997
  980POPC   C4A16086  32.922   7.167   7.767
  980POPC   C1B16087  33.290   7.254   8.738
  980POPC   C2B16088  33.229   7.069   8.360
  980POPC   C3B16089  33.453   7.125   7.991
  980POPC   C4B16090  33.393   7.107   7.548
  981POPC   NC316091  13.534  18.637   9.384
  981POPC   PO416092  13.577  19.310   9.414
  981POPC   GL116093  13.388  19.278   9.029
  981POPC   GL216094  13.336  18.954   9.057
  981POPC   C1A16095  13.495  19.433   8.657
  981POPC   D2A16096  13.337  19.360   8.280
  981POPC   C3A16097  13.735  19.266   8.112
  981POPC   C4A16098  13.844  18.999   7.786
  981POPC   C1B16099  13.645  18.946   8.707
  981POPC   C2B16100  13.642  18.780   8.294
  981POPC   C3B16101  13.360  18.918   7.982
  981POPC   C4B16102  13.156  18.692   7.641
  982POPC   NC316103  40.685  44.953   9.497
  982POPC   PO416104  40.621  44.314   9.517
  982POPC   GL116105  40.426  44.612   9.212
  982POPC   GL216106  40.390  44.338   9.033
  982POPC   C1A16107  40.547  44.842   8.813
  982POPC   D2A16108  40.964  44.815   8.575
  982POPC   C3A16109  40.977  44.909   8.098
  982POPC   C4A16110  40.824  44.791   7.680
  982POPC   C1B16111  40.694  44.350   8.728
  982POPC   C2B16112  40.753  44.463   8.291
  982POPC   C3B16113  40.664  44.352   7.907
  982POPC   C4B16114  40.302  44.160   7.768
  983POPC   NC316115  35.762  38.637   9.645
  983POPC   PO416116  35.159  38.408   9.408
  983POPC   GL116117  35.357  38.377   9.008
  983POPC   GL216118  35.501  38.688   9.073
  983POPC   C1A16119  35.175  38.192   8.638
  983POPC   D2A16120  35.065  38.046   8.231
  983POPC   C3A16121  35.257  38.285   7.964
  983POPC   C4A16122  35.532  38.430   7.714
  983POPC   C1B16123  35.164  38.737   8.740
  983POPC   C2B16124  35.149  38.618   8.311
  983POPC   C3B16125  35.081  38.758   7.868
  983POPC   C4B16126  35.247  38.703   7.424
  984POPC   NC316127  11.010  39.907   9.471
  984POPC   PO416128  11.203  40.457   9.390
  984POPC   GL116129  11.215  40.206   9.051
  984POPC   GL216130  11.552  40.096   9.120
  984POPC   C1A16131  11.318  39.942   8.691
  984POPC   D2A16132  11.062  39.653   8.428
  984POPC   C3A16133  11.045  39.891   8.058
  984POPC   C4A16134  11.323  39.932   7.704
  984POPC   C1B16135  11.640  40.391   8.753
  984POPC   C2B16136  11.672  40.554   8.295
  984POPC   C3B16137  11.691  40.335   7.858
  984POPC   C4B16138  11.422  40.350   7.452
  985POPC   NC316139  24.922  43.400   9.381
  985POPC   PO416140  25.384  43.026   9.663
  985POPC   GL116141  25.431  43.074   9.214
  985POPC   GL216142  25.535  42.764   9.188
  985POPC   C1A16143  25.236  43.165   8.786
  985POPC   D2A16144  25.266  43.034   8.329
  985POPC   C3A16145  25.454  43.256   7.965
  985POPC   C4A16146  25.147  43.368   7.589
  985POPC   C1B16147  25.541  42.742   8.751
  985POPC   C2B16148  25.619  42.681   8.317
  985POPC   C3B16149  25.442  42.631   7.946
  985POPC   C4B16150  25.280  42.891   7.672
  986POPC   NC316151  12.311  22.203   9.508
  986POPC   PO416152  11.982  22.671   9.086
  986POPC   GL116153  12.026  22.215   9.035
  986POPC   GL216154  11.715  22.013   9.096
  986POPC   C1A16155  12.068  22.192   8.583
  986POPC   D2A16156  11.943  22.467   8.252
  986POPC   C3A16157  11.996  22.254   7.876
  986POPC   C4A16158  12.275  22.262   7.516
  986POPC   C1B16159  11.588  22.047   8.657
  986POPC   C2B16160  11.807  21.881   8.262
  986POPC   C3B16161  11.775  21.792   7.821
  986POPC   C4B16162  11.865  21.976   7.408
  987POPC   NC316163  32.322  16.848   9.419
  987POPC   PO416164  32.767  16.281   9.522
  987POPC   GL116165  32.679  16.514   9.132
  987POPC   GL216166  32.307  16.486   9.056
  987POPC   C1A16167  32.623  16.692   8.700
  987POPC   D2A16168  32.428  16.534   8.315
  987POPC   C3A16169  32.485  16.790   7.965
  987POPC   C4A16170  32.742  16.853   7.627
  987POPC   C1B16171  32.072  16.664   8.681
  987POPC   C2B16172  32.014  16.886   8.263
  987POPC   C3B16173  31.988  16.804   7.802
  987POPC   C4B16174  31.924  16.856   7.366
  988POPC   NC316175  12.738  18.290   9.363
  988POPC   PO416176  13.390  18.192   9.450
  988POPC   GL116177  13.123  18.356   9.068
  988POPC   GL216178  12.858  18.022   8.965
  988POPC   C1A16179  12.828  18.451   8.703
  988POPC   D2A16180  12.713  18.177   8.368
  988POPC   C3A16181  12.764  18.336   7.939
  988POPC   C4A16182  12.514  18.660   7.778
  988POPC   C1B16183  13.235  17.978   8.768
  988POPC   C2B16184  13.321  17.936   8.359
  988POPC   C3B16185  13.127  17.949   7.951
  988POPC   C4B16186  13.283  18.011   7.515
  989POPC   NC316187  25.670  14.653   9.682
  989POPC   PO416188  25.753  14.088   9.396
  989POPC   GL116189  25.989  14.374   9.119
  989POPC   GL216190  26.359  14.306   9.035
  989POPC   C1A16191  25.995  14.316   8.676
  989POPC   D2A16192  25.742  14.140   8.384
  989POPC   C3A16193  25.886  14.174   7.983
  989POPC   C4A16194  25.720  14.272   7.601
  989POPC   C1B16195  26.480  14.179   8.604
  989POPC   C2B16196  26.437  14.291   8.161
  989POPC   C3B16197  26.340  14.650   7.890
  989POPC   C4B16198  26.207  14.611   7.459
  990POPC   NC316199  10.081  16.954   9.527
  990POPC   PO416200   9.904  16.350   9.594
  990POPC   GL116201   9.819  16.513   9.173
  990POPC   GL216202   9.706  16.863   9.136
  990POPC   C1A16203   9.964  16.621   8.751
  990POPC   D2A16204   9.867  16.687   8.319
  990POPC   C3A16205   9.755  16.425   7.954
  990POPC   C4A16206   9.877  16.519   7.544
  990POPC   C1B16207   9.609  17.056   8.721
  990POPC   C2B16208   9.693  17.152   8.295
  990POPC   C3B16209   9.752  16.937   7.875
  990POPC   C4B16210   9.561  16.900   7.469
  991POPC   NC316211   8.178  13.745   9.635
  991POPC   PO416212   7.799  13.179   9.602
  991POPC   GL116213   7.985  13.303   9.069
  991POPC   GL216214   8.302  13.542   9.159
  991POPC   C1A16215   7.847  13.398   8.677
  991POPC   D2A16216   7.956  13.626   8.322
  991POPC   C3A16217   8.215  13.384   8.039
  991POPC   C4A16218   7.924  13.488   7.766
  991POPC   C1B16219   8.246  13.716   8.760
  991POPC   C2B16220   8.468  13.690   8.371
  991POPC   C3B16221   8.303  13.858   7.998
  991POPC   C4B16222   8.359  13.643   7.590
  992POPC   NC316223  10.058  40.313   9.840
  992POPC   PO416224   9.727  40.678   9.321
  992POPC   GL116225   9.600  40.779   8.990
  992POPC   GL216226   9.259  40.889   9.134
  992POPC   C1A16227   9.862  40.808   8.619
  992POPC   D2A16228   9.981  41.002   8.279
  992POPC   C3A16229   9.905  40.785   7.947
  992POPC   C4A16230  10.125  40.854   7.610
  992POPC   C1B16231   9.181  40.738   8.728
  992POPC   C2B16232   9.423  40.801   8.392
  992POPC   C3B16233   9.383  40.828   8.014
  992POPC   C4B16234   9.513  40.686   7.649
  993POPC   NC316235  41.533  12.546   9.453
  993POPC   PO416236  41.947  13.047   9.595
  993POPC   GL116237  41.867  12.879   9.190
  993POPC   GL216238  41.516  12.942   9.114
  993POPC   C1A16239  41.811  12.666   8.777
  993POPC   D2A16240  41.594  12.777   8.378
  993POPC   C3A16241  41.725  12.705   7.967
  993POPC   C4A16242  41.647  12.816   7.533
  993POPC   C1B16243  41.267  12.964   8.709
  993POPC   C2B16244  41.212  13.078   8.236
  993POPC   C3B16245  41.232  12.798   7.846
  993POPC   C4B16246  41.284  12.426   7.565
  994POPC   NC316247  11.421  41.512   9.294
  994POPC   PO416248  10.968  41.888   9.561
  994POPC   GL116249  10.965  41.780   9.113
  994POPC   GL216250  11.281  41.945   9.020
  994POPC   C1A16251  11.068  41.479   8.738
  994POPC   D2A16252  11.346  41.411   8.360
  994POPC   C3A16253  11.135  41.477   7.968
  994POPC   C4A16254  10.882  41.205   7.705
  994POPC   C1B16255  11.444  41.886   8.595
  994POPC   C2B16256  11.267  41.951   8.176
  994POPC   C3B16257  11.367  41.883   7.740
  994POPC   C4B16258  11.657  41.608   7.495
  995POPC   NC316259  12.605  42.996   9.692
  995POPC   PO416260  13.113  42.477   9.683
  995POPC   GL116261  12.963  42.849   9.339
  995POPC   GL216262  12.881  43.245   9.232
  995POPC   C1A16263  12.962  42.910   8.876
  995POPC   D2A16264  12.803  43.151   8.490
  995POPC   C3A16265  12.792  42.963   8.093
  995POPC   C4A16266  13.142  42.956   7.799
  995POPC   C1B16267  13.108  43.394   8.866
  995POPC   C2B16268  13.265  43.376   8.450
  995POPC   C3B16269  13.051  43.411   8.084
  995POPC   C4B16270  12.612  43.503   8.076
  996POPC   NC316271  40.341  32.007   9.145
  996POPC   PO416272  40.460  32.503   9.621
  996POPC   GL116273  40.621  32.456   9.191
  996POPC   GL216274  40.299  32.577   9.107
  996POPC   C1A16275  40.881  32.197   8.839
  996POPC   D2A16276  40.878  32.271   8.378
  996POPC   C3A16277  40.751  31.966   8.073
  996POPC   C4A16278  41.040  31.830   7.736
  996POPC   C1B16279  40.436  32.455   8.700
  996POPC   C2B16280  40.391  32.423   8.299
  996POPC   C3B16281  40.658  32.631   8.069
  996POPC   C4B16282  40.947  32.371   7.821
  997POPC   NC316283  16.960  39.806   9.635
  997POPC   PO416284  16.665  40.415   9.472
  997POPC   GL116285  16.652  40.136   9.136
  997POPC   GL216286  16.700  39.770   9.194
  997POPC   C1A16287  16.765  40.037   8.715
  997POPC   D2A16288  16.699  40.040   8.275
  997POPC   C3A16289  16.674  40.105   7.810
  997POPC   C4A16290  16.395  40.420   7.712
  997POPC   C1B16291  16.633  39.515   8.839
  997POPC   C2B16292  16.479  39.575   8.432
  997POPC   C3B16293  16.514  39.674   7.998
  997POPC   C4B16294  16.626  39.651   7.560
  998POPC   NC316295  19.743   2.132   9.371
  998POPC   PO416296  20.186   1.726   9.459
  998POPC   GL116297  19.882   1.717   9.099
  998POPC   GL216298  19.587   1.953   8.922
  998POPC   C1A16299  19.962   1.740   8.675
  998POPC   D2A16300  19.764   1.942   8.373
  998POPC   C3A16301  19.879   1.665   8.070
  998POPC   C4A16302  20.092   1.693   7.709
  998POPC   C1B16303  19.906   2.285   8.767
  998POPC   C2B16304  20.160   2.369   8.404
  998POPC   C3B16305  20.115   2.139   8.048
  998POPC   C4B16306  19.719   2.106   7.868
  999POPC   NC316307   7.523   1.127   9.542
  999POPC   PO416308   7.154   1.680   9.410
  999POPC   GL116309   7.290   1.364   9.126
  999POPC   GL216310   7.648   1.378   9.049
  999POPC   C1A16311   7.313   1.175   8.721
  999POPC   D2A16312   7.463   1.257   8.297
  999POPC   C3A16313   7.274   1.078   7.936
  999POPC   C4A16314   7.203   0.715   7.686
  999POPC   C1B16315   7.649   1.639   8.630
  999POPC   C2B16316   7.675   1.679   8.149
  999POPC   C3B16317   7.690   1.357   7.787
  999POPC   C4B16318   7.817   1.372   7.319
 1000POPC   NC316319  13.180  21.862   9.867
 1000POPC   PO416320  12.815  22.378   9.533
 1000POPC   GL116321  12.772  22.136   9.150
 1000POPC   GL216322  13.070  22.303   9.054
 1000POPC   C1A16323  12.548  22.128   8.719
 1000POPC   D2A16324  12.462  22.394   8.293
 1000POPC   C3A16325  12.651  22.309   7.876
 1000POPC   C4A16326  12.627  21.912   7.637
 1000POPC   C1B16327  13.047  22.150   8.669
 1000POPC   C2B16328  12.839  22.043   8.284
 1000POPC   C3B16329  13.027  21.951   7.920
 1000POPC   C4B16330  13.115  22.146   7.533
 1001POPC   NC316331  19.882   5.339   9.601
 1001POPC   PO416332  19.783   4.684   9.636
 1001POPC   GL116333  19.933   4.979   9.253
 1001POPC   GL216334  19.611   5.091   9.166
 1001POPC   C1A16335  20.065   5.203   8.853
 1001POPC   D2A16336  19.873   5.276   8.438
 1001POPC   C3A16337  20.059   5.226   8.060
 1001POPC   C4A16338  19.993   5.037   7.680
 1001POPC   C1B16339  19.496   5.316   8.787
 1001POPC   C2B16340  19.373   5.343   8.350
 1001POPC   C3B16341  19.551   5.116   8.012
 1001POPC   C4B16342  19.582   5.314   7.627
 1002POPC   NC316343  38.795  40.783   9.477
 1002POPC   PO416344  38.189  41.042   9.633
 1002POPC   GL116345  38.190  40.792   9.214
 1002POPC   GL216346  38.467  40.682   9.085
 1002POPC   C1A16347  38.165  40.910   8.725
 1002POPC   D2A16348  37.933  41.010   8.322
 1002POPC   C3A16349  38.128  40.768   7.967
 1002POPC   C4A16350  38.305  40.788   7.538
 1002POPC   C1B16351  38.632  40.649   8.663
 1002POPC   C2B16352  38.592  40.790   8.261
 1002POPC   C3B16353  38.701  40.652   7.868
 1002POPC   C4B16354  38.474  40.327   7.756
 1003POPC   NC316355  39.729  41.126   9.375
 1003POPC   PO416356  39.776  40.441   9.282
 1003POPC   GL116357  40.089  40.725   9.134
 1003POPC   GL216358  40.353  40.517   8.992
 1003POPC   C1A16359  40.197  40.977   8.754
 1003POPC   D2A16360  39.999  41.096   8.356
 1003POPC   C3A16361  40.279  41.048   8.052
 1003POPC   C4A16362  40.282  40.814   7.720
 1003POPC   C1B16363  40.098  40.471   8.642
 1003POPC   C2B16364  40.144  40.575   8.204
 1003POPC   C3B16365  39.829  40.674   7.898
 1003POPC   C4B16366  39.675  40.316   7.679
 1004POPC   NC316367  16.526  24.572   9.632
 1004POPC   PO416368  17.126  24.563   9.525
 1004POPC   GL116369  16.844  24.754   9.178
 1004POPC   GL216370  16.500  24.592   9.128
 1004POPC   C1A16371  16.809  24.672   8.708
 1004POPC   D2A16372  17.026  24.610   8.299
 1004POPC   C3A16373  17.020  24.947   8.013
 1004POPC   C4A16374  16.854  24.933   7.630
 1004POPC   C1B16375  16.485  24.283   8.775
 1004POPC   C2B16376  16.649  24.238   8.328
 1004POPC   C3B16377  16.876  24.201   7.916
 1004POPC   C4B16378  16.725  23.915   7.565
 1005POPC   NC316379   4.167  18.476   9.587
 1005POPC   PO416380   4.379  17.824   9.784
 1005POPC   GL116381   4.457  18.071   9.402
 1005POPC   GL216382   4.150  18.026   9.298
 1005POPC   C1A16383   4.449  18.228   8.928
 1005POPC   D2A16384   4.362  18.142   8.456
 1005POPC   C3A16385   4.419  18.459   8.095
 1005POPC   C4A16386   4.350  18.497   7.620
 1005POPC   C1B16387   4.189  17.791   8.916
 1005POPC   C2B16388   3.952  17.811   8.567
 1005POPC   C3B16389   4.036  17.856   8.163
 1005POPC   C4B16390   4.043  18.196   7.893
 1006POPC   NC316391  32.053  11.064   9.534
 1006POPC   PO416392  32.566  11.496   9.676
 1006POPC   GL116393  32.483  11.464   9.236
 1006POPC   GL216394  32.229  11.254   9.108
 1006POPC   C1A16395  32.602  11.430   8.802
 1006POPC   D2A16396  32.610  11.485   8.387
 1006POPC   C3A16397  32.420  11.286   8.054
 1006POPC   C4A16398  32.222  11.609   7.811
 1006POPC   C1B16399  32.115  11.584   8.890
 1006POPC   C2B16400  32.100  11.540   8.463
 1006POPC   C3B16401  31.891  11.388   8.124
 1006POPC   C4B16402  31.983  11.110   7.799
 1007POPC   NC316403  24.121  43.068   9.667
 1007POPC   PO416404  23.651  42.763   9.357
 1007POPC   GL116405  23.624  42.956   9.029
 1007POPC   GL216406  23.564  43.284   9.181
 1007POPC   C1A16407  23.716  42.832   8.606
 1007POPC   D2A16408  24.018  42.775   8.271
 1007POPC   C3A16409  23.818  42.885   7.865
 1007POPC   C4A16410  23.729  43.030   7.422
 1007POPC   C1B16411  23.740  43.365   8.784
 1007POPC   C2B16412  23.922  43.275   8.404
 1007POPC   C3B16413  23.863  43.383   8.007
 1007POPC   C4B16414  23.776  43.508   7.621
 1008POPC   NC316415  34.969  23.578   9.488
 1008POPC   PO416416  35.553  23.940   9.476
 1008POPC   GL116417  35.379  23.723   9.165
 1008POPC   GL216418  35.089  23.878   9.109
 1008POPC   C1A16419  35.478  23.819   8.727
 1008POPC   D2A16420  35.636  23.544   8.446
 1008POPC   C3A16421  35.763  23.695   8.073
 1008POPC   C4A16422  35.539  23.611   7.714
 1008POPC   C1B16423  35.013  23.616   8.806
 1008POPC   C2B16424  35.036  23.447   8.440
 1008POPC   C3B16425  35.119  23.423   8.010
 1008POPC   C4B16426  35.051  23.627   7.615
 1009POPC   NC316427  42.599  39.459   9.282
 1009POPC   PO416428  43.149  39.167   9.504
 1009POPC   GL116429  43.081  39.326   9.111
 1009POPC   GL216430  42.913  39.018   9.035
 1009POPC   C1A16431  43.204  39.505   8.710
 1009POPC   D2A16432  43.115  39.570   8.284
 1009POPC   C3A16433  43.044  39.255   7.992
 1009POPC   C4A16434  43.293  39.288   7.660
 1009POPC   C1B16435  42.888  39.112   8.629
 1009POPC   C2B16436  42.632  39.107   8.271
 1009POPC   C3B16437  42.654  38.881   7.915
 1009POPC   C4B16438  42.874  38.979   7.568
 1010POPC   NC316439  42.223   9.644   9.745
 1010POPC   PO416440  41.784  10.033   9.394
 1010POPC   GL116441  42.049   9.700   9.161
 1010POPC   GL216442  42.361   9.511   9.243
 1010POPC   C1A16443  42.176   9.664   8.740
 1010POPC   D2A16444  42.371   9.891   8.428
 1010POPC   C3A16445  42.214   9.908   8.045
 1010POPC   C4A16446  42.435  10.122   7.738
 1010POPC   C1B16447  42.509   9.289   8.862
 1010POPC   C2B16448  42.600   9.419   8.440
 1010POPC   C3B16449  42.582   9.385   8.001
 1010POPC   C4B16450  42.333   9.601   7.660
 1011POPC   NC316451  44.029  27.783   9.655
 1011POPC   PO416452  43.774  27.104   9.652
 1011POPC   GL116453  43.859  27.433   9.265
 1011POPC   GL216454  44.215  27.432   9.095
 1011POPC   C1A16455  43.853  27.633   8.803
 1011POPC   D2A16456  43.847  27.472   8.328
 1011POPC   C3A16457  43.756  27.678   7.921
 1011POPC   C4A16458  43.463  27.669   7.541
 1011POPC   C1B16459  44.386  27.121   8.798
 1011POPC   C2B16460  44.369  27.217   8.366
 1011POPC   C3B16461  44.201  27.356   7.951
 1011POPC   C4B16462  44.420  27.725   7.753
 1012POPC   NC316463  12.431  21.377   9.732
 1012POPC   PO416464  12.001  21.798   9.490
 1012POPC   GL116465  12.196  21.517   9.268
 1012POPC   GL216466  12.356  21.797   9.132
 1012POPC   C1A16467  12.270  21.301   8.892
 1012POPC   D2A16468  12.269  21.189   8.460
 1012POPC   C3A16469  12.029  21.397   8.142
 1012POPC   C4A16470  11.886  21.228   7.764
 1012POPC   C1B16471  12.048  21.736   8.798
 1012POPC   C2B16472  12.307  21.730   8.442
 1012POPC   C3B16473  12.294  21.866   8.028
 1012POPC   C4B16474  12.212  21.611   7.663
 1013POPC   NC316475  10.208   3.945   9.531
 1013POPC   PO416476  10.561   3.369   9.618
 1013POPC   GL116477  10.564   3.621   9.240
 1013POPC   GL216478  10.256   3.578   9.114
 1013POPC   C1A16479  10.710   3.571   8.795
 1013POPC   D2A16480  10.888   3.379   8.384
 1013POPC   C3A16481  10.675   3.437   7.963
 1013POPC   C4A16482  10.244   3.452   7.762
 1013POPC   C1B16483  10.113   3.639   8.664
 1013POPC   C2B16484  10.224   3.376   8.269
 1013POPC   C3B16485  10.394   3.009   7.979
 1013POPC   C4B16486  10.517   2.790   7.579
 1014POPC   NC316487  40.599  41.146   9.403
 1014POPC   PO416488  40.544  41.809   9.571
 1014POPC   GL116489  40.766  41.609   9.217
 1014POPC   GL216490  41.110  41.442   9.260
 1014POPC   C1A16491  40.574  41.444   8.803
 1014POPC   D2A16492  40.330  41.643   8.469
 1014POPC   C3A16493  40.554  41.655   8.083
 1014POPC   C4A16494  40.547  41.613   7.641
 1014POPC   C1B16495  41.073  41.577   8.816
 1014POPC   C2B16496  40.929  41.541   8.418
 1014POPC   C3B16497  41.021  41.447   7.986
 1014POPC   C4B16498  41.285  41.645   7.706
 1015POPC   NC316499   0.167   7.291   9.373
 1015POPC   PO416500   0.649   7.748   9.343
 1015POPC   GL116501   0.486   7.513   9.044
 1015POPC   GL216502   0.605   7.161   9.175
 1015POPC   C1A16503   0.222   7.591   8.676
 1015POPC   D2A16504   0.454   7.710   8.291
 1015POPC   C3A16505   0.267   7.587   7.912
 1015POPC   C4A16506   0.157   7.295   7.625
 1015POPC   C1B16507   0.433   7.104   8.758
 1015POPC   C2B16508   0.346   7.210   8.344
 1015POPC   C3B16509   0.437   7.057   7.964
 1015POPC   C4B16510   0.436   6.853   7.566
 1016POPC   NC316511   1.592  38.773   9.794
 1016POPC   PO416512   1.039  38.469   9.698
 1016POPC   GL116513   1.052  38.423   9.136
 1016POPC   GL216514   1.353  38.548   8.993
 1016POPC   C1A16515   0.846  38.589   8.742
 1016POPC   D2A16516   0.932  38.456   8.338
 1016POPC   C3A16517   0.983  38.666   7.973
 1016POPC   C4A16518   1.263  38.395   7.774
 1016POPC   C1B16519   1.251  38.271   8.682
 1016POPC   C2B16520   1.430  38.286   8.307
 1016POPC   C3B16521   1.696  38.410   8.014
 1016POPC   C4B16522   1.859  38.212   7.662
 1017POPC   NC316523   4.862   1.596   9.462
 1017POPC   PO416524   5.285   2.115   9.538
 1017POPC   GL116525   5.113   2.001   9.165
 1017POPC   GL216526   5.287   1.746   9.094
 1017POPC   C1A16527   5.313   2.179   8.789
 1017POPC   D2A16528   5.506   2.209   8.401
 1017POPC   C3A16529   5.283   2.014   8.069
 1017POPC   C4A16530   5.235   2.278   7.743
 1017POPC   C1B16531   5.163   1.708   8.643
 1017POPC   C2B16532   5.244   1.513   8.240
 1017POPC   C3B16533   5.199   1.564   7.809
 1017POPC   C4B16534   4.925   1.881   7.669
 1018POPC   NC316535  41.689   3.394   9.534
 1018POPC   PO416536  41.352   3.970   9.746
 1018POPC   GL116537  41.348   3.838   9.283
 1018POPC   GL216538  41.343   3.474   9.161
 1018POPC   C1A16539  41.448   3.861   8.817
 1018POPC   D2A16540  41.250   3.692   8.441
 1018POPC   C3A16541  41.414   3.453   8.095
 1018POPC   C4A16542  41.561   3.607   7.696
 1018POPC   C1B16543  41.603   3.389   8.743
 1018POPC   C2B16544  41.846   3.523   8.356
 1018POPC   C3B16545  41.930   3.358   7.947
 1018POPC   C4B16546  42.035   3.473   7.516
 1019POPC   NC316547  21.906   1.656   9.534
 1019POPC   PO416548  22.492   1.302   9.616
 1019POPC   GL116549  22.283   1.338   9.216
 1019POPC   GL216550  22.003   1.528   9.073
 1019POPC   C1A16551  22.226   1.208   8.790
 1019POPC   D2A16552  21.972   1.341   8.476
 1019POPC   C3A16553  22.066   1.217   8.092
 1019POPC   C4A16554  22.129   0.928   7.783
 1019POPC   C1B16555  22.188   1.746   8.701
 1019POPC   C2B16556  22.306   1.835   8.276
 1019POPC   C3B16557  22.362   1.605   7.912
 1019POPC   C4B16558  22.058   1.420   7.612
 1020POPC   NC316559  10.549  27.128   9.323
 1020POPC   PO416560  10.489  26.538   9.552
 1020POPC   GL116561  10.759  26.643   9.213
 1020POPC   GL216562  10.443  26.640   9.047
 1020POPC   C1A16563  10.916  26.608   8.780
 1020POPC   D2A16564  10.747  26.541   8.337
 1020POPC   C3A16565  10.940  26.763   7.992
 1020POPC   C4A16566  10.914  27.209   7.918
 1020POPC   C1B16567  10.518  26.892   8.683
 1020POPC   C2B16568  10.617  27.131   8.333
 1020POPC   C3B16569  10.431  26.957   7.965
 1020POPC   C4B16570  10.508  26.497   7.861
 1021POPC   NC316571   3.599  26.697   9.431
 1021POPC   PO416572   4.294  26.826   9.497
 1021POPC   GL116573   4.472  26.755   9.103
 1021POPC   GL216574   4.678  26.457   9.085
 1021POPC   C1A16575   4.381  26.827   8.666
 1021POPC   D2A16576   4.372  26.845   8.208
 1021POPC   C3A16577   4.076  27.060   7.881
 1021POPC   C4A16578   4.099  27.170   7.411
 1021POPC   C1B16579   4.311  26.332   8.817
 1021POPC   C2B16580   4.162  26.418   8.407
 1021POPC   C3B16581   4.063  26.473   7.975
 1021POPC   C4B16582   4.361  26.669   7.728
 1022POPC   NC316583  23.871  38.017   9.506
 1022POPC   PO416584  23.479  37.400   9.501
 1022POPC   GL116585  23.675  37.421   9.133
 1022POPC   GL216586  23.869  37.741   9.088
 1022POPC   C1A16587  23.527  37.299   8.749
 1022POPC   D2A16588  23.664  37.520   8.394
 1022POPC   C3A16589  23.419  37.486   8.029
 1022POPC   C4A16590  23.654  37.512   7.659
 1022POPC   C1B16591  24.137  37.935   8.751
 1022POPC   C2B16592  24.059  37.946   8.296
 1022POPC   C3B16593  23.725  37.908   8.036
 1022POPC   C4B16594  23.962  37.960   7.693
 1023POPC   NC316595  35.707  22.749   9.422
 1023POPC   PO416596  36.226  23.201   9.432
 1023POPC   GL116597  36.106  22.923   9.096
 1023POPC   GL216598  35.784  23.072   9.056
 1023POPC   C1A16599  36.172  22.712   8.677
 1023POPC   D2A16600  36.176  22.896   8.232
 1023POPC   C3A16601  36.056  23.008   7.798
 1023POPC   C4A16602  36.320  23.186   7.408
 1023POPC   C1B16603  35.805  23.045   8.636
 1023POPC   C2B16604  35.678  22.702   8.394
 1023POPC   C3B16605  35.542  22.667   7.988
 1023POPC   C4B16606  35.664  22.692   7.569
 1024POPC   NC316607  36.321  30.267   9.304
 1024POPC   PO416608  36.012  29.699   9.377
 1024POPC   GL116609  36.008  29.845   8.973
 1024POPC   GL216610  35.963  30.195   8.943
 1024POPC   C1A16611  36.285  29.834   8.628
 1024POPC   D2A16612  36.334  30.033   8.221
 1024POPC   C3A16613  36.223  29.741   7.863
 1024POPC   C4A16614  36.194  29.524   7.451
 1024POPC   C1B16615  35.830  30.100   8.526
 1024POPC   C2B16616  35.872  30.307   8.137
 1024POPC   C3B16617  36.123  30.238   7.781
 1024POPC   C4B16618  36.009  29.991   7.425
 1025POPC   NC316619  30.152   3.309   9.372
 1025POPC   PO416620  29.708   3.851   9.228
 1025POPC   GL116621  29.871   3.551   9.017
 1025POPC   GL216622  30.188   3.699   9.031
 1025POPC   C1A16623  30.029   3.404   8.641
 1025POPC   D2A16624  29.876   3.536   8.271
 1025POPC   C3A16625  30.109   3.510   7.940
 1025POPC   C4A16626  29.900   3.452   7.650
 1025POPC   C1B16627  30.413   3.824   8.703
 1025POPC   C2B16628  30.367   3.781   8.271
 1025POPC   C3B16629  30.319   3.976   7.841
 1025POPC   C4B16630  30.325   3.775   7.409
 1026POPC   NC316631  34.215  14.127   9.451
 1026POPC   PO416632  34.897  14.337   9.500
 1026POPC   GL116633  34.564  14.418   9.195
 1026POPC   GL216634  34.550  14.783   9.194
 1026POPC   C1A16635  34.543  14.261   8.766
 1026POPC   D2A16636  34.722  14.415   8.365
 1026POPC   C3A16637  34.639  14.222   7.945
 1026POPC   C4A16638  34.714  14.514   7.613
 1026POPC   C1B16639  34.304  14.710   8.812
 1026POPC   C2B16640  34.217  14.477   8.425
 1026POPC   C3B16641  34.292  14.590   8.024
 1026POPC   C4B16642  34.195  14.331   7.704
 1027POPC   NC316643  26.584  12.269   9.368
 1027POPC   PO416644  26.791  12.876   9.483
 1027POPC   GL116645  27.026  12.911   9.118
 1027POPC   GL216646  27.114  12.594   9.048
 1027POPC   C1A16647  27.016  13.074   8.729
 1027POPC   D2A16648  26.760  13.150   8.399
 1027POPC   C3A16649  26.794  12.874   8.076
 1027POPC   C4A16650  26.810  13.003   7.664
 1027POPC   C1B16651  26.893  12.586   8.649
 1027POPC   C2B16652  26.535  12.490   8.413
 1027POPC   C3B16653  26.505  12.467   7.992
 1027POPC   C4B16654  26.865  12.417   7.750
 1028POPC   NC316655   7.291  29.182  10.044
 1028POPC   PO416656   7.840  29.162   9.559
 1028POPC   GL116657   7.441  29.053   9.330
 1028POPC   GL216658   7.294  29.379   9.241
 1028POPC   C1A16659   7.174  28.992   8.937
 1028POPC   D2A16660   7.254  29.083   8.495
 1028POPC   C3A16661   7.178  28.891   8.098
 1028POPC   C4A16662   7.326  28.891   7.667
 1028POPC   C1B16663   7.590  29.288   8.883
 1028POPC   C2B16664   7.733  29.261   8.443
 1028POPC   C3B16665   7.609  29.207   8.002
 1028POPC   C4B16666   7.576  29.358   7.536
 1029POPC   NC316667   2.098  26.890   9.597
 1029POPC   PO416668   2.470  26.317   9.491
 1029POPC   GL116669   2.192  26.586   9.209
 1029POPC   GL216670   1.880  26.517   9.094
 1029POPC   C1A16671   2.218  26.823   8.826
 1029POPC   D2A16672   1.958  26.899   8.468
 1029POPC   C3A16673   2.093  27.171   8.149
 1029POPC   C4A16674   2.191  27.037   7.765
 1029POPC   C1B16675   1.773  26.309   8.723
 1029POPC   C2B16676   1.687  26.472   8.338
 1029POPC   C3B16677   1.793  26.695   7.979
 1029POPC   C4B16678   1.420  26.702   7.761
 1030POPC   NC316679  43.075  28.050   9.523
 1030POPC   PO416680  43.284  28.692   9.402
 1030POPC   GL116681  43.093  28.458   9.146
 1030POPC   GL216682  42.748  28.569   9.204
 1030POPC   C1A16683  43.124  28.515   8.704
 1030POPC   D2A16684  43.383  28.391   8.368
 1030POPC   C3A16685  43.372  28.528   7.933
 1030POPC   C4A16686  43.411  28.557   7.467
 1030POPC   C1B16687  42.756  28.190   8.899
 1030POPC   C2B16688  42.980  28.065   8.513
 1030POPC   C3B16689  42.920  28.241   8.093
 1030POPC   C4B16690  43.023  28.235   7.667
 1031POPC   NC316691  38.267   6.522   9.579
 1031POPC   PO416692  38.953   6.588   9.682
 1031POPC   GL116693  38.636   6.506   9.240
 1031POPC   GL216694  38.572   6.806   8.969
 1031POPC   C1A16695  38.203   6.480   8.936
 1031POPC   D2A16696  38.325   6.546   8.480
 1031POPC   C3A16697  38.119   6.595   8.047
 1031POPC   C4A16698  38.222   6.492   7.610
 1031POPC   C1B16699  38.828   6.893   8.618
 1031POPC   C2B16700  38.940   6.544   8.406
 1031POPC   C3B16701  38.644   6.549   8.078
 1031POPC   C4B16702  38.489   6.873   7.793
 1032POPC   NC316703   7.817   3.663   9.503
 1032POPC   PO416704   7.167   3.585   9.531
 1032POPC   GL116705   7.328   3.486   9.157
 1032POPC   GL216706   7.488   3.803   9.095
 1032POPC   C1A16707   7.143   3.583   8.756
 1032POPC   D2A16708   7.285   3.776   8.371
 1032POPC   C3A16709   7.368   3.522   8.009
 1032POPC   C4A16710   7.168   3.526   7.644
 1032POPC   C1B16711   7.767   3.943   8.750
 1032POPC   C2B16712   7.746   4.099   8.330
 1032POPC   C3B16713   7.572   3.981   7.941
 1032POPC   C4B16714   7.607   3.737   7.573
 1033POPC   NC316715   7.066   6.706   9.374
 1033POPC   PO416716   6.340   6.642   9.422
 1033POPC   GL116717   6.631   6.599   9.129
 1033POPC   GL216718   6.710   6.939   9.116
 1033POPC   C1A16719   6.675   6.507   8.700
 1033POPC   D2A16720   6.458   6.461   8.314
 1033POPC   C3A16721   6.749   6.490   7.961
 1033POPC   C4A16722   6.478   6.433   7.632
 1033POPC   C1B16723   6.388   6.936   8.816
 1033POPC   C2B16724   6.505   6.956   8.407
 1033POPC   C3B16725   6.435   6.893   7.986
 1033POPC   C4B16726   6.131   7.141   7.816
 1034POPC   NC316727  37.364  32.865   9.543
 1034POPC   PO416728  37.978  32.567   9.494
 1034POPC   GL116729  37.901  32.907   9.204
 1034POPC   GL216730  37.560  32.852   9.074
 1034POPC   C1A16731  37.860  33.225   8.875
 1034POPC   D2A16732  37.604  33.156   8.492
 1034POPC   C3A16733  37.793  32.988   8.127
 1034POPC   C4A16734  37.732  33.019   7.701
 1034POPC   C1B16735  37.782  32.724   8.695
 1034POPC   C2B16736  37.664  32.529   8.307
 1034POPC   C3B16737  37.868  32.536   7.881
 1034POPC   C4B16738  37.832  32.461   7.421
 1035POPC   NC316739  21.358  21.076   9.545
 1035POPC   PO416740  21.925  21.362   9.560
 1035POPC   GL116741  21.627  21.400   9.219
 1035POPC   GL216742  21.300  21.561   9.268
 1035POPC   C1A16743  21.398  21.227   8.863
 1035POPC   D2A16744  21.475  21.427   8.460
 1035POPC   C3A16745  21.176  21.361   8.149
 1035POPC   C4A16746  21.287  21.367   7.729
 1035POPC   C1B16747  21.426  21.737   8.858
 1035POPC   C2B16748  21.559  21.931   8.466
 1035POPC   C3B16749  21.466  21.783   8.056
 1035POPC   C4B16750  21.400  21.965   7.655
 1036POPC   NC316751  35.042   8.511   9.348
 1036POPC   PO416752  34.616   8.984   9.649
 1036POPC   GL116753  34.467   9.051   9.225
 1036POPC   GL216754  34.664   8.764   9.133
 1036POPC   C1A16755  34.478   9.037   8.745
 1036POPC   D2A16756  34.280   9.150   8.346
 1036POPC   C3A16757  34.360   8.915   7.968
 1036POPC   C4A16758  34.391   9.029   7.529
 1036POPC   C1B16759  34.919   8.755   8.737
 1036POPC   C2B16760  34.743   8.789   8.326
 1036POPC   C3B16761  34.872   8.802   7.877
 1036POPC   C4B16762  34.892   9.007   7.445
 1037POPC   NC316763  29.906  39.494   9.444
 1037POPC   PO416764  29.592  38.833   9.563
 1037POPC   GL116765  29.792  39.051   9.192
 1037POPC   GL216766  29.569  39.345   9.093
 1037POPC   C1A16767  30.113  38.999   8.837
 1037POPC   D2A16768  30.249  39.224   8.440
 1037POPC   C3A16769  30.079  39.178   7.992
 1037POPC   C4A16770  29.981  39.423   7.586
 1037POPC   C1B16771  29.659  39.186   8.671
 1037POPC   C2B16772  29.611  39.070   8.216
 1037POPC   C3B16773  29.545  39.263   7.791
 1037POPC   C4B16774  29.538  39.443   7.335
 1038POPC   NC316775  14.290  12.286   9.576
 1038POPC   PO416776  14.657  11.654   9.565
 1038POPC   GL116777  14.445  11.928   9.194
 1038POPC   GL216778  14.306  12.297   9.079
 1038POPC   C1A16779  14.413  11.949   8.739
 1038POPC   D2A16780  14.247  11.804   8.373
 1038POPC   C3A16781  14.490  11.910   8.041
 1038POPC   C4A16782  14.425  12.094   7.672
 1038POPC   C1B16783  14.175  12.415   8.648
 1038POPC   C2B16784  14.233  12.331   8.200
 1038POPC   C3B16785  14.129  12.528   7.779
 1038POPC   C4B16786  14.300  12.499   7.345
 1039POPC   NC316787  25.977  23.922   9.587
 1039POPC   PO416788  25.720  23.298   9.528
 1039POPC   GL116789  25.935  23.593   9.199
 1039POPC   GL216790  26.236  23.656   9.009
 1039POPC   C1A16791  25.818  23.663   8.747
 1039POPC   D2A16792  25.993  23.566   8.334
 1039POPC   C3A16793  25.781  23.734   7.937
 1039POPC   C4A16794  25.758  23.524   7.518
 1039POPC   C1B16795  26.409  23.871   8.628
 1039POPC   C2B16796  26.449  23.771   8.200
 1039POPC   C3B16797  26.250  23.896   7.790
 1039POPC   C4B16798  26.409  24.045   7.344
 1040POPC   NC316799  30.448   1.437   9.478
 1040POPC   PO416800  30.872   0.891   9.516
 1040POPC   GL116801  30.865   1.173   9.147
 1040POPC   GL216802  30.525   1.224   9.032
 1040POPC   C1A16803  30.857   1.065   8.693
 1040POPC   D2A16804  30.785   1.271   8.299
 1040POPC   C3A16805  31.031   1.108   7.955
 1040POPC   C4A16806  30.858   0.955   7.560
 1040POPC   C1B16807  30.390   1.555   8.763
 1040POPC   C2B16808  30.218   1.605   8.348
 1040POPC   C3B16809  30.302   1.281   8.067
 1040POPC   C4B16810  30.526   1.297   7.709
 1041POPC   NC316811  25.498  30.574   9.540
 1041POPC   PO416812  25.031  31.069   9.489
 1041POPC   GL116813  25.181  30.777   9.164
 1041POPC   GL216814  25.528  30.772   9.085
 1041POPC   C1A16815  25.069  30.509   8.833
 1041POPC   D2A16816  25.022  30.629   8.420
 1041POPC   C3A16817  24.981  30.328   8.106
 1041POPC   C4A16818  25.036  30.377   7.667
 1041POPC   C1B16819  25.390  30.891   8.697
 1041POPC   C2B16820  25.461  30.983   8.297
 1041POPC   C3B16821  25.276  30.756   7.981
 1041POPC   C4B16822  25.473  30.691   7.625
 1042POPC   NC316823  28.294  19.479   9.384
 1042POPC   PO416824  28.593  20.115   9.431
 1042POPC   GL116825  28.364  19.924   9.123
 1042POPC   GL216826  28.615  19.695   9.068
 1042POPC   C1A16827  28.374  19.981   8.690
 1042POPC   D2A16828  28.618  19.964   8.324
 1042POPC   C3A16829  28.354  20.075   7.972
 1042POPC   C4A16830  28.352  19.833   7.642
 1042POPC   C1B16831  28.821  19.699   8.721
 1042POPC   C2B16832  28.881  19.511   8.351
 1042POPC   C3B16833  28.629  19.547   8.005
 1042POPC   C4B16834  28.733  19.449   7.595
 1043POPC   NC316835  26.613  36.120   9.505
 1043POPC   PO416836  27.168  35.851   9.339
 1043POPC   GL116837  26.931  36.134   9.079
 1043POPC   GL216838  26.983  36.503   9.135
 1043POPC   C1A16839  26.714  35.937   8.711
 1043POPC   D2A16840  26.660  35.719   8.288
 1043POPC   C3A16841  26.677  35.973   7.917
 1043POPC   C4A16842  26.801  35.930   7.463
 1043POPC   C1B16843  26.855  36.444   8.677
 1043POPC   C2B16844  26.946  36.174   8.312
 1043POPC   C3B16845  27.125  36.187   7.885
 1043POPC   C4B16846  26.826  36.406   7.628
 1044POPC   NC316847  39.821  35.138   9.524
 1044POPC   PO416848  40.030  35.756   9.516
 1044POPC   GL116849  39.916  35.467   9.132
 1044POPC   GL216850  39.731  35.100   9.041
 1044POPC   C1A16851  39.759  35.462   8.700
 1044POPC   D2A16852  39.775  35.096   8.432
 1044POPC   C3A16853  39.821  35.251   8.021
 1044POPC   C4A16854  39.702  35.624   7.793
 1044POPC   C1B16855  40.126  35.101   8.829
 1044POPC   C2B16856  40.303  35.305   8.444
 1044POPC   C3B16857  40.325  35.344   7.980
 1044POPC   C4B16858  40.077  35.392   7.549
 1045POPC   NC316859   4.723  22.353   9.516
 1045POPC   PO416860   5.216  21.968   9.700
 1045POPC   GL116861   5.244  22.149   9.270
 1045POPC   GL216862   4.936  22.159   9.081
 1045POPC   C1A16863   5.364  22.276   8.828
 1045POPC   D2A16864   5.349  22.149   8.409
 1045POPC   C3A16865   5.456  22.267   7.977
 1045POPC   C4A16866   5.416  22.096   7.531
 1045POPC   C1B16867   4.874  22.112   8.626
 1045POPC   C2B16868   4.904  22.255   8.194
 1045POPC   C3B16869   4.992  22.162   7.779
 1045POPC   C4B16870   4.857  21.976   7.386
 1046POPC   NC316871  43.324  33.082   9.353
 1046POPC   PO416872  42.818  33.193   9.744
 1046POPC   GL116873  42.755  33.175   9.294
 1046POPC   GL216874  42.841  32.851   9.164
 1046POPC   C1A16875  42.837  33.287   8.863
 1046POPC   D2A16876  43.028  33.364   8.482
 1046POPC   C3A16877  42.985  32.978   8.242
 1046POPC   C4A16878  42.804  32.945   7.848
 1046POPC   C1B16879  43.087  32.841   8.753
 1046POPC   C2B16880  43.407  32.618   8.471
 1046POPC   C3B16881  43.537  32.532   8.061
 1046POPC   C4B16882  43.306  32.809   7.774
 1047POPC   NC316883   6.239  36.924   9.467
 1047POPC   PO416884   6.785  36.536   9.420
 1047POPC   GL116885   6.697  36.910   9.146
 1047POPC   GL216886   6.434  37.164   9.079
 1047POPC   C1A16887   6.609  36.841   8.714
 1047POPC   D2A16888   6.759  36.718   8.337
 1047POPC   C3A16889   6.542  36.777   7.944
 1047POPC   C4A16890   6.570  36.646   7.547
 1047POPC   C1B16891   6.238  37.180   8.675
 1047POPC   C2B16892   6.515  37.180   8.294
 1047POPC   C3B16893   6.554  37.428   7.955
 1047POPC   C4B16894   6.251  37.561   7.629
 1048POPC   NC316895   0.001  38.980   9.385
 1048POPC   PO416896  44.480  39.323   9.768
 1048POPC   GL116897  44.520  39.256   9.312
 1048POPC   GL216898  44.486  38.906   9.278
 1048POPC   C1A16899  44.510  39.444   8.881
 1048POPC   D2A16900  44.571  39.280   8.469
 1048POPC   C3A16901  44.518  39.452   8.070
 1048POPC   C4A16902  44.767  39.304   7.761
 1048POPC   C1B16903  44.439  38.893   8.832
 1048POPC   C2B16904  44.307  38.847   8.393
 1048POPC   C3B16905  44.466  38.924   7.987
 1048POPC   C4B16906  44.257  39.206   7.682
 1049POPC   NC316907  37.435  29.509   9.497
 1049POPC   PO416908  37.981  29.133   9.534
 1049POPC   GL116909  37.836  29.359   9.183
 1049POPC   GL216910  37.603  29.077   9.129
 1049POPC   C1A16911  37.845  29.279   8.731
 1049POPC   D2A16912  37.582  29.268   8.373
 1049POPC   C3A16913  37.782  29.235   7.966
 1049POPC   C4A16914  37.553  29.285   7.588
 1049POPC   C1B16915  37.861  28.769   8.869
 1049POPC   C2B16916  38.004  28.864   8.426
 1049POPC   C3B16917  37.822  28.722   8.025
 1049POPC   C4B16918  37.832  28.836   7.601
 1050POPC   NC316919  10.212  29.428   9.765
 1050POPC   PO416920  10.619  28.954   9.450
 1050POPC   GL116921  10.505  28.953   9.055
 1050POPC   GL216922  10.225  28.698   9.130
 1050POPC   C1A16923  10.598  29.263   8.725
 1050POPC   D2A16924  10.384  29.499   8.447
 1050POPC   C3A16925  10.512  29.318   8.078
 1050POPC   C4A16926  10.498  29.490   7.697
 1050POPC   C1B16927  10.356  28.574   8.735
 1050POPC   C2B16928  10.548  28.827   8.426
 1050POPC   C3B16929  10.590  28.794   7.983
 1050POPC   C4B16930  10.499  29.006   7.605
 1051POPC   NC316931  15.938  31.671   9.589
 1051POPC   PO416932  16.529  31.737   9.509
 1051POPC   GL116933  16.247  31.563   9.162
 1051POPC   GL216934  15.839  31.566   9.102
 1051POPC   C1A16935  16.140  31.457   8.731
 1051POPC   D2A16936  15.823  31.609   8.424
 1051POPC   C3A16937  15.934  31.462   8.013
 1051POPC   C4A16938  16.007  31.688   7.602
 1051POPC   C1B16939  15.673  31.277   8.774
 1051POPC   C2B16940  15.757  31.072   8.376
 1051POPC   C3B16941  15.645  31.030   7.931
 1051POPC   C4B16942  15.522  31.431   7.724
 1052POPC   NC316943  10.257   6.813   9.465
 1052POPC   PO416944  10.853   6.565   9.824
 1052POPC   GL116945  10.681   6.503   9.388
 1052POPC   GL216946  10.722   6.849   9.261
 1052POPC   C1A16947  10.674   6.459   8.909
 1052POPC   D2A16948  10.587   6.282   8.512
 1052POPC   C3A16949  10.502   6.471   8.117
 1052POPC   C4A16950  10.263   6.308   7.741
 1052POPC   C1B16951  10.575   6.953   8.852
 1052POPC   C2B16952  10.592   6.984   8.414
 1052POPC   C3B16953  10.371   6.965   8.052
 1052POPC   C4B16954  10.408   6.782   7.683
 1053POPC   NC316955  30.205  41.886   9.307
 1053POPC   PO416956  29.797  41.406   9.613
 1053POPC   GL116957  29.926  41.488   9.176
 1053POPC   GL216958  29.696  41.759   9.163
 1053POPC   C1A16959  29.940  41.629   8.715
 1053POPC   D2A16960  29.962  41.488   8.286
 1053POPC   C3A16961  30.269  41.558   7.957
 1053POPC   C4A16962  30.007  41.701   7.617
 1053POPC   C1B16963  29.497  41.899   8.778
 1053POPC   C2B16964  29.660  41.898   8.341
 1053POPC   C3B16965  29.598  41.874   7.899
 1053POPC   C4B16966  29.582  41.969   7.456
 1054POPC   NC316967  28.098  21.468   9.394
 1054POPC   PO416968  28.738  21.708   9.492
 1054POPC   GL116969  28.568  21.496   9.132
 1054POPC   GL216970  28.296  21.703   8.982
 1054POPC   C1A16971  28.481  21.275   8.743
 1054POPC   D2A16972  28.616  21.405   8.331
 1054POPC   C3A16973  28.392  21.205   8.015
 1054POPC   C4A16974  28.192  21.362   7.663
 1054POPC   C1B16975  28.633  21.799   8.680
 1054POPC   C2B16976  28.673  21.916   8.236
 1054POPC   C3B16977  28.542  21.719   7.843
 1054POPC   C4B16978  28.747  21.360   7.668
 1055POPC   NC316979   6.598  21.951   9.455
 1055POPC   PO416980   6.865  22.459   9.680
 1055POPC   GL116981   6.842  22.350   9.233
 1055POPC   GL216982   7.111  22.159   9.044
 1055POPC   C1A16983   6.593  22.350   8.860
 1055POPC   D2A16984   6.552  22.624   8.502
 1055POPC   C3A16985   6.492  22.498   8.037
 1055POPC   C4A16986   6.356  22.096   7.785
 1055POPC   C1B16987   7.064  22.495   8.694
 1055POPC   C2B16988   6.951  22.424   8.271
 1055POPC   C3B16989   6.882  22.174   7.917
 1055POPC   C4B16990   7.125  22.288   7.624
 1056POPC   NC316991  33.270   8.175   9.587
 1056POPC   PO416992  33.929   8.321   9.428
 1056POPC   GL116993  33.770   8.216   9.030
 1056POPC   GL216994  33.555   7.990   9.139
 1056POPC   C1A16995  33.948   8.088   8.619
 1056POPC   D2A16996  34.208   8.057   8.261
 1056POPC   C3A16997  34.048   8.236   7.913
 1056POPC   C4A16998  33.800   7.953   7.660
 1056POPC   C1B16999  33.424   8.080   8.675
 1056POPC   C2B17000  33.576   8.068   8.214
 1056POPC   C3B17001  33.360   8.127   7.807
 1056POPC   C4B17002  33.255   8.081   7.349
 1057POPC   NC317003  31.407  29.119   9.419
 1057POPC   PO417004  31.337  28.440   9.497
 1057POPC   GL117005  31.434  28.688   9.113
 1057POPC   GL217006  31.738  28.922   9.044
 1057POPC   C1A17007  31.346  28.919   8.735
 1057POPC   D2A17008  31.208  29.242   8.509
 1057POPC   C3A17009  31.209  29.108   8.096
 1057POPC   C4A17010  31.297  29.325   7.762
 1057POPC   C1B17011  31.730  29.286   8.713
 1057POPC   C2B17012  31.659  29.335   8.262
 1057POPC   C3B17013  31.754  29.128   7.886
 1057POPC   C4B17014  31.894  28.740   7.697
 1058POPC   NC317015  18.039   6.027   9.337
 1058POPC   PO417016  18.515   5.534   9.371
 1058POPC   GL117017  18.461   5.923   9.073
 1058POPC   GL217018  18.212   5.780   8.909
 1058POPC   C1A17019  18.353   6.171   8.662
 1058POPC   D2A17020  18.271   5.903   8.282
 1058POPC   C3A17021  18.237   6.084   7.838
 1058POPC   C4A17022  18.354   6.189   7.397
 1058POPC   C1B17023  18.145   5.449   8.657
 1058POPC   C2B17024  17.901   5.484   8.302
 1058POPC   C3B17025  18.073   5.583   7.919
 1058POPC   C4B17026  17.905   5.786   7.561
 1059POPC   NC317027   8.411  11.000   9.482
 1059POPC   PO417028   8.323  11.667   9.492
 1059POPC   GL117029   8.238  11.332   9.131
 1059POPC   GL217030   7.976  11.021   9.132
 1059POPC   C1A17031   8.269  11.155   8.681
 1059POPC   D2A17032   8.590  11.081   8.357
 1059POPC   C3A17033   8.344  11.058   7.982
 1059POPC   C4A17034   8.277  11.351   7.646
 1059POPC   C1B17035   7.831  11.353   8.837
 1059POPC   C2B17036   7.952  11.531   8.454
 1059POPC   C3B17037   7.957  11.427   8.049
 1059POPC   C4B17038   7.805  11.532   7.654
 1060POPC   NC317039   2.193  41.115   9.509
 1060POPC   PO417040   1.770  41.756   9.428
 1060POPC   GL117041   1.923  41.471   9.152
 1060POPC   GL217042   2.248  41.547   9.192
 1060POPC   C1A17043   1.898  41.383   8.713
 1060POPC   D2A17044   1.911  41.257   8.303
 1060POPC   C3A17045   1.944  41.489   7.925
 1060POPC   C4A17046   2.161  41.519   7.516
 1060POPC   C1B17047   2.212  41.778   8.810
 1060POPC   C2B17048   2.138  41.749   8.371
 1060POPC   C3B17049   2.248  41.876   7.960
 1060POPC   C4B17050   2.353  41.987   7.537
 1061POPC   NC317051  25.471  26.682   9.406
 1061POPC   PO417052  24.936  27.023   9.465
 1061POPC   GL117053  25.091  27.014   9.085
 1061POPC   GL217054  25.067  26.660   9.063
 1061POPC   C1A17055  25.457  26.985   8.818
 1061POPC   D2A17056  25.657  26.768   8.466
 1061POPC   C3A17057  25.601  26.953   8.071
 1061POPC   C4A17058  25.197  27.071   7.907
 1061POPC   C1B17059  25.241  26.533   8.691
 1061POPC   C2B17060  25.189  26.682   8.257
 1061POPC   C3B17061  25.292  26.545   7.837
 1061POPC   C4B17062  25.049  26.640   7.455
 1062POPC   NC317063  35.778  18.771   9.459
 1062POPC   PO417064  35.125  19.210   9.455
 1062POPC   GL117065  35.327  19.019   9.170
 1062POPC   GL217066  35.277  18.674   9.229
 1062POPC   C1A17067  35.383  19.193   8.770
 1062POPC   D2A17068  35.129  19.181   8.415
 1062POPC   C3A17069  35.050  19.522   8.156
 1062POPC   C4A17070  35.165  19.311   7.780
 1062POPC   C1B17071  35.484  18.704   8.808
 1062POPC   C2B17072  35.569  18.873   8.400
 1062POPC   C3B17073  35.394  18.859   7.981
 1062POPC   C4B17074  35.612  19.062   7.650
 1063POPC   NC317075  38.205  29.605   9.558
 1063POPC   PO417076  38.636  30.168   9.571
 1063POPC   GL117077  38.479  29.879   9.222
 1063POPC   GL217078  38.085  29.864   9.130
 1063POPC   C1A17079  38.434  29.892   8.779
 1063POPC   D2A17080  38.315  30.103   8.425
 1063POPC   C3A17081  38.299  29.975   8.036
 1063POPC   C4A17082  38.320  30.081   7.648
 1063POPC   C1B17083  37.933  29.826   8.684
 1063POPC   C2B17084  37.957  29.658   8.240
 1063POPC   C3B17085  37.991  29.675   7.740
 1063POPC   C4B17086  38.250  29.706   7.318
 1064POPC   NC317087  14.983   2.537   9.324
 1064POPC   PO417088  15.353   2.992   9.467
 1064POPC   GL117089  15.344   2.842   9.102
 1064POPC   GL217090  15.459   2.507   9.139
 1064POPC   C1A17091  15.145   3.012   8.770
 1064POPC   D2A17092  14.952   2.828   8.439
 1064POPC   C3A17093  15.186   2.937   8.110
 1064POPC   C4A17094  15.060   3.123   7.736
 1064POPC   C1B17095  15.283   2.494   8.728
 1064POPC   C2B17096  15.472   2.435   8.340
 1064POPC   C3B17097  15.497   2.547   7.940
 1064POPC   C4B17098  15.162   2.627   7.681
 1065POPC   NC317099   9.194  28.113  10.096
 1065POPC   PO417100   9.075  28.296   9.413
 1065POPC   GL117101   8.992  28.587   9.090
 1065POPC   GL217102   8.657  28.669   8.974
 1065POPC   C1A17103   9.043  28.503   8.677
 1065POPC   D2A17104   8.738  28.624   8.426
 1065POPC   C3A17105   8.874  28.547   8.036
 1065POPC   C4A17106   9.265  28.577   7.812
 1065POPC   C1B17107   8.633  28.225   8.767
 1065POPC   C2B17108   8.787  28.098   8.385
 1065POPC   C3B17109   8.698  28.083   7.971
 1065POPC   C4B17110   8.961  28.177   7.661
 1066POPC   NC317111   9.186  37.679   9.473
 1066POPC   PO417112   8.495  37.389   9.425
 1066POPC   GL117113   8.839  37.427   9.150
 1066POPC   GL217114   8.887  37.778   9.069
 1066POPC   C1A17115   8.778  37.457   8.700
 1066POPC   D2A17116   8.702  37.206   8.368
 1066POPC   C3A17117   8.821  37.465   8.046
 1066POPC   C4A17118   8.684  37.550   7.667
 1066POPC   C1B17119   9.077  37.869   8.690
 1066POPC   C2B17120   8.939  37.958   8.296
 1066POPC   C3B17121   9.040  37.895   7.885
 1066POPC   C4B17122   8.983  37.901   7.448
 1067POPC   NC317123   7.249  22.205   9.545
 1067POPC   PO417124   7.817  22.756   9.606
 1067POPC   GL117125   7.786  22.467   9.223
 1067POPC   GL217126   7.637  22.107   9.205
 1067POPC   C1A17127   7.727  22.391   8.788
 1067POPC   D2A17128   7.434  22.300   8.389
 1067POPC   C3A17129   7.486  22.457   7.940
 1067POPC   C4A17130   7.614  22.302   7.482
 1067POPC   C1B17131   7.531  21.926   8.770
 1067POPC   C2B17132   7.583  21.818   8.312
 1067POPC   C3B17133   7.388  21.946   7.902
 1067POPC   C4B17134   7.086  21.765   7.581
 1068POPC   NC317135  33.907  31.222   9.736
 1068POPC   PO417136  33.773  31.799   9.428
 1068POPC   GL117137  33.821  31.537   9.079
 1068POPC   GL217138  33.577  31.317   9.212
 1068POPC   C1A17139  33.975  31.523   8.643
 1068POPC   D2A17140  34.081  31.244   8.314
 1068POPC   C3A17141  33.989  31.337   7.871
 1068POPC   C4A17142  34.104  31.413   7.433
 1068POPC   C1B17143  33.465  31.370   8.764
 1068POPC   C2B17144  33.581  31.199   8.345
 1068POPC   C3B17145  33.471  31.312   7.910
 1068POPC   C4B17146  33.629  31.577   7.537
 1069POPC   NC317147  11.133   6.992   9.614
 1069POPC   PO417148  11.429   6.435   9.523
 1069POPC   GL117149  11.411   6.690   9.168
 1069POPC   GL217150  11.116   6.561   9.127
 1069POPC   C1A17151  11.480   6.521   8.728
 1069POPC   D2A17152  11.733   6.554   8.384
 1069POPC   C3A17153  11.435   6.696   8.100
 1069POPC   C4A17154  11.313   6.748   7.702
 1069POPC   C1B17155  11.057   6.814   8.781
 1069POPC   C2B17156  10.987   6.658   8.382
 1069POPC   C3B17157  10.874   6.809   7.974
 1069POPC   C4B17158  10.804   6.458   7.704
 1070POPC   NC317159  23.721  18.094   9.402
 1070POPC   PO417160  23.309  18.627   9.436
 1070POPC   GL117161  23.602  18.509   9.098
 1070POPC   GL217162  23.989  18.498   9.129
 1070POPC   C1A17163  23.684  18.330   8.693
 1070POPC   D2A17164  23.852  18.559   8.340
 1070POPC   C3A17165  23.674  18.436   7.939
 1070POPC   C4A17166  23.353  18.107   7.869
 1070POPC   C1B17167  24.197  18.357   8.743
 1070POPC   C2B17168  24.090  18.112   8.405
 1070POPC   C3B17169  24.069  18.082   7.972
 1070POPC   C4B17170  23.846  17.984   7.582
 1071POPC   NC317171  21.120   9.387   9.505
 1071POPC   PO417172  21.521   8.789   9.518
 1071POPC   GL117173  21.476   9.115   9.177
 1071POPC   GL217174  21.131   9.230   9.022
 1071POPC   C1A17175  21.621   9.247   8.769
 1071POPC   D2A17176  21.332   9.192   8.475
 1071POPC   C3A17177  21.396   9.016   8.102
 1071POPC   C4A17178  21.606   8.710   7.891
 1071POPC   C1B17179  21.109   8.855   8.804
 1071POPC   C2B17180  21.103   8.665   8.389
 1071POPC   C3B17181  21.042   8.696   7.928
 1071POPC   C4B17182  21.051   9.109   7.715
 1072POPC   NC317183  41.087  40.522   9.569
 1072POPC   PO417184  40.494  40.692   9.457
 1072POPC   GL117185  40.819  40.652   9.165
 1072POPC   GL217186  40.992  40.944   9.090
 1072POPC   C1A17187  40.824  40.485   8.779
 1072POPC   D2A17188  40.919  40.628   8.386
 1072POPC   C3A17189  40.643  40.631   8.049
 1072POPC   C4A17190  40.661  40.525   7.624
 1072POPC   C1B17191  40.911  41.065   8.672
 1072POPC   C2B17192  40.744  41.103   8.243
 1072POPC   C3B17193  40.717  41.094   7.762
 1072POPC   C4B17194  40.417  41.172   7.379
 1073POPC   NC317195  35.172  13.993   9.366
 1073POPC   PO417196  35.278  13.368   9.426
 1073POPC   GL117197  35.594  13.590   9.219
 1073POPC   GL217198  35.745  13.289   9.065
 1073POPC   C1A17199  35.537  13.790   8.807
 1073POPC   D2A17200  35.391  13.606   8.390
 1073POPC   C3A17201  35.404  13.828   7.977
 1073POPC   C4A17202  35.043  13.975   7.723
 1073POPC   C1B17203  35.820  13.408   8.625
 1073POPC   C2B17204  35.760  13.278   8.202
 1073POPC   C3B17205  35.406  13.311   7.936
 1073POPC   C4B17206  35.525  13.528   7.579
 1074POPC   NC317207  39.638   5.509   9.924
 1074POPC   PO417208  39.150   5.763   9.492
 1074POPC   GL117209  39.059   5.927   9.111
 1074POPC   GL217210  39.312   5.815   8.921
 1074POPC   C1A17211  38.901   6.133   8.746
 1074POPC   D2A17212  38.792   6.070   8.286
 1074POPC   C3A17213  39.125   6.073   7.951
 1074POPC   C4A17214  39.185   6.175   7.508
 1074POPC   C1B17215  39.628   5.547   8.727
 1074POPC   C2B17216  39.813   5.630   8.318
 1074POPC   C3B17217  39.495   5.660   7.994
 1074POPC   C4B17218  39.375   5.684   7.553
 1075POPC   NC317219  21.229  30.489   9.532
 1075POPC   PO417220  21.492  31.089   9.654
 1075POPC   GL117221  21.217  31.018   9.239
 1075POPC   GL217222  21.282  30.716   9.084
 1075POPC   C1A17223  21.256  31.092   8.741
 1075POPC   D2A17224  21.616  30.997   8.453
 1075POPC   C3A17225  21.534  30.781   8.046
 1075POPC   C4A17226  21.480  30.961   7.592
 1075POPC   C1B17227  21.404  30.546   8.697
 1075POPC   C2B17228  21.192  30.297   8.395
 1075POPC   C3B17229  21.125  30.355   7.978
 1075POPC   C4B17230  21.398  30.482   7.657
 1076POPC   NC317231  34.779  41.553   9.609
 1076POPC   PO417232  34.139  41.253   9.471
 1076POPC   GL117233  34.444  41.495   9.192
 1076POPC   GL217234  34.807  41.674   9.126
 1076POPC   C1A17235  34.304  41.400   8.775
 1076POPC   D2A17236  34.364  41.261   8.347
 1076POPC   C3A17237  34.660  41.274   8.021
 1076POPC   C4A17238  34.467  41.329   7.651
 1076POPC   C1B17239  34.764  41.568   8.704
 1076POPC   C2B17240  34.504  41.754   8.364
 1076POPC   C3B17241  34.596  41.771   7.924
 1076POPC   C4B17242  34.964  41.841   7.683
 1077POPC   NC317243  31.386  21.496   9.605
 1077POPC   PO417244  32.021  21.246   9.588
 1077POPC   GL117245  31.761  21.273   9.166
 1077POPC   GL217246  31.463  21.526   9.119
 1077POPC   C1A17247  31.676  21.397   8.690
 1077POPC   D2A17248  31.606  21.690   8.318
 1077POPC   C3A17249  31.748  21.463   7.980
 1077POPC   C4A17250  31.635  21.055   7.846
 1077POPC   C1B17251  31.163  21.345   8.820
 1077POPC   C2B17252  31.062  21.418   8.375
 1077POPC   C3B17253  31.180  21.258   7.987
 1077POPC   C4B17254  31.389  21.436   7.632
 1078POPC   NC317255  28.535  43.977   9.545
 1078POPC   PO417256  27.910  44.164   9.396
 1078POPC   GL117257  28.204  43.922   9.134
 1078POPC   GL217258  28.575  44.073   9.049
 1078POPC   C1A17259  28.306  43.798   8.710
 1078POPC   D2A17260  28.439  44.047   8.390
 1078POPC   C3A17261  28.270  43.989   7.985
 1078POPC   C4A17262  28.591  44.087   7.765
 1078POPC   C1B17263  28.796  43.728   8.870
 1078POPC   C2B17264  28.648  43.467   8.532
 1078POPC   C3B17265  28.388  43.562   8.219
 1078POPC   C4B17266  28.477  43.576   7.775
 1079POPC   NC317267  24.267  34.898   9.797
 1079POPC   PO417268  24.486  34.394   9.391
 1079POPC   GL117269  24.611  34.538   9.004
 1079POPC   GL217270  24.857  34.740   9.158
 1079POPC   C1A17271  24.455  34.610   8.567
 1079POPC   D2A17272  24.525  34.437   8.133
 1079POPC   C3A17273  24.353  34.727   7.808
 1079POPC   C4A17274  24.322  34.639   7.355
 1079POPC   C1B17275  24.774  34.982   8.804
 1079POPC   C2B17276  24.904  34.820   8.407
 1079POPC   C3B17277  24.822  34.816   8.004
 1079POPC   C4B17278  24.749  35.079   7.658
 1080POPC   NC317279  21.873   4.738   9.775
 1080POPC   PO417280  21.971   4.138   9.476
 1080POPC   GL117281  22.056   4.292   9.069
 1080POPC   GL217282  22.022   4.661   9.098
 1080POPC   C1A17283  21.912   4.408   8.647
 1080POPC   D2A17284  21.880   4.696   8.295
 1080POPC   C3A17285  21.844   4.481   7.907
 1080POPC   C4A17286  21.959   4.031   7.897
 1080POPC   C1B17287  22.385   4.600   8.776
 1080POPC   C2B17288  22.400   4.661   8.292
 1080POPC   C3B17289  22.371   4.394   7.888
 1080POPC   C4B17290  22.489   4.398   7.433
 1081POPC   NC317291  43.664   2.127   9.683
 1081POPC   PO417292  44.032   1.567   9.896
 1081POPC   GL117293  43.808   1.675   9.457
 1081POPC   GL217294  43.905   2.003   9.253
 1081POPC   C1A17295  43.597   1.699   9.002
 1081POPC   D2A17296  43.808   1.772   8.574
 1081POPC   C3A17297  43.731   1.722   8.125
 1081POPC   C4A17298  43.545   1.955   7.750
 1081POPC   C1B17299  43.787   2.196   8.855
 1081POPC   C2B17300  43.909   2.272   8.412
 1081POPC   C3B17301  44.106   2.076   8.068
 1081POPC   C4B17302  44.044   1.988   7.657
 1082POPC   NC317303   3.301  14.697   9.382
 1082POPC   PO417304   3.542  14.079   9.500
 1082POPC   GL117305   3.632  14.245   9.112
 1082POPC   GL217306   3.300  14.315   9.036
 1082POPC   C1A17307   3.593  14.113   8.661
 1082POPC   D2A17308   3.820  14.370   8.340
 1082POPC   C3A17309   3.751  14.281   7.921
 1082POPC   C4A17310   3.701  13.900   7.709
 1082POPC   C1B17311   3.505  14.600   8.719
 1082POPC   C2B17312   3.330  14.497   8.295
 1082POPC   C3B17313   3.168  14.664   7.927
 1082POPC   C4B17314   3.421  14.748   7.546
 1083POPC   NC317315   7.898  20.613   9.573
 1083POPC   PO417316   8.536  20.534   9.637
 1083POPC   GL117317   8.309  20.693   9.255
 1083POPC   GL217318   8.581  20.651   9.000
 1083POPC   C1A17319   8.112  20.725   8.825
 1083POPC   D2A17320   8.348  20.711   8.439
 1083POPC   C3A17321   8.127  20.634   8.057
 1083POPC   C4A17322   7.777  20.770   7.841
 1083POPC   C1B17323   8.476  20.302   8.718
 1083POPC   C2B17324   8.321  20.216   8.275
 1083POPC   C3B17325   8.483  20.295   7.825
 1083POPC   C4B17326   8.460  20.322   7.330
 1084POPC   NC317327  18.909  33.124   9.649
 1084POPC   PO417328  19.265  32.637   9.496
 1084POPC   GL117329  19.205  32.994   9.216
 1084POPC   GL217330  18.836  33.064   9.159
 1084POPC   C1A17331  19.242  33.095   8.778
 1084POPC   D2A17332  19.009  32.931   8.424
 1084POPC   C3A17333  19.128  32.926   7.987
 1084POPC   C4A17334  18.801  32.807   7.673
 1084POPC   C1B17335  18.818  33.382   8.861
 1084POPC   C2B17336  18.611  33.244   8.510
 1084POPC   C3B17337  18.665  33.130   8.095
 1084POPC   C4B17338  18.843  33.358   7.753
 1085POPC   NC317339  23.147  14.785   9.542
 1085POPC   PO417340  22.546  14.789   9.221
 1085POPC   GL117341  22.786  15.148   9.040
 1085POPC   GL217342  23.108  15.282   9.184
 1085POPC   C1A17343  22.872  15.293   8.624
 1085POPC   D2A17344  22.617  15.300   8.264
 1085POPC   C3A17345  22.644  14.975   7.945
 1085POPC   C4A17346  22.672  15.356   7.733
 1085POPC   C1B17347  23.213  14.964   8.859
 1085POPC   C2B17348  23.287  15.017   8.419
 1085POPC   C3B17349  23.114  15.192   8.022
 1085POPC   C4B17350  23.036  15.009   7.604
 1086POPC   NC317351  19.498  23.122   9.493
 1086POPC   PO417352  19.946  22.662   9.515
 1086POPC   GL117353  19.883  22.884   9.144
 1086POPC   GL217354  19.593  22.770   9.112
 1086POPC   C1A17355  19.926  23.079   8.733
 1086POPC   D2A17356  19.760  22.907   8.354
 1086POPC   C3A17357  19.715  23.187   8.011
 1086POPC   C4A17358  19.873  23.290   7.639
 1086POPC   C1B17359  19.634  22.561   8.741
 1086POPC   C2B17360  19.482  22.472   8.323
 1086POPC   C3B17361  19.735  22.562   7.958
 1086POPC   C4B17362  19.587  22.798   7.596
 1087POPC   NC317363  39.470  11.777   9.479
 1087POPC   PO417364  38.867  12.292   9.560
 1087POPC   GL117365  39.047  12.237   9.174
 1087POPC   GL217366  39.100  11.903   9.175
 1087POPC   C1A17367  39.047  12.158   8.732
 1087POPC   D2A17368  38.800  11.930   8.449
 1087POPC   C3A17369  39.012  12.026   8.098
 1087POPC   C4A17370  38.927  12.234   7.724
 1087POPC   C1B17371  38.995  11.656   8.835
 1087POPC   C2B17372  39.231  11.618   8.459
 1087POPC   C3B17373  39.385  11.662   8.085
 1087POPC   C4B17374  39.217  11.803   7.692
 1088POPC   NC317375  41.761   2.629   9.513
 1088POPC   PO417376  41.274   3.139   9.571
 1088POPC   GL117377  41.369   2.851   9.241
 1088POPC   GL217378  41.626   3.027   9.151
 1088POPC   C1A17379  41.300   2.623   8.822
 1088POPC   D2A17380  41.525   2.523   8.416
 1088POPC   C3A17381  41.326   2.659   8.015
 1088POPC   C4A17382  41.275   2.573   7.591
 1088POPC   C1B17383  41.727   2.885   8.774
 1088POPC   C2B17384  41.749   3.014   8.365
 1088POPC   C3B17385  41.788   2.858   7.966
 1088POPC   C4B17386  41.918   2.961   7.587
 1089POPC   NC317387   5.484  36.209   9.341
 1089POPC   PO417388   5.999  36.547   9.653
 1089POPC   GL117389   5.997  36.249   9.271
 1089POPC   GL217390   5.898  35.891   9.309
 1089POPC   C1A17391   6.074  36.125   8.830
 1089POPC   D2A17392   6.210  36.175   8.389
 1089POPC   C3A17393   6.302  35.829   8.078
 1089POPC   C4A17394   6.095  35.864   7.661
 1089POPC   C1B17395   5.780  35.742   8.872
 1089POPC   C2B17396   5.947  35.702   8.460
 1089POPC   C3B17397   5.800  35.942   8.091
 1089POPC   C4B17398   5.569  35.984   7.696
 1090POPC   NC317399  42.557   2.612   9.353
 1090POPC   PO417400  42.035   3.039   9.455
 1090POPC   GL117401  42.166   2.924   9.083
 1090POPC   GL217402  42.487   2.993   9.019
 1090POPC   C1A17403  42.191   2.709   8.688
 1090POPC   D2A17404  42.051   2.573   8.301
 1090POPC   C3A17405  42.333   2.725   7.972
 1090POPC   C4A17406  42.426   2.863   7.566
 1090POPC   C1B17407  42.695   2.726   8.694
 1090POPC   C2B17408  42.788   2.845   8.260
 1090POPC   C3B17409  42.860   2.603   7.874
 1090POPC   C4B17410  42.855   2.613   7.411
 1091POPC   NC317411  42.217  35.146   9.496
 1091POPC   PO417412  42.415  35.808   9.394
 1091POPC   GL117413  42.454  35.448   9.138
 1091POPC   GL217414  42.672  35.190   9.225
 1091POPC   C1A17415  42.529  35.337   8.718
 1091POPC   D2A17416  42.444  35.586   8.357
 1091POPC   C3A17417  42.089  35.407   8.094
 1091POPC   C4A17418  42.028  35.557   7.682
 1091POPC   C1B17419  42.867  34.949   8.896
 1091POPC   C2B17420  42.764  34.917   8.484
 1091POPC   C3B17421  42.466  35.090   8.229
 1091POPC   C4B17422  42.411  35.180   7.778
 1092POPC   NC317423  13.938  21.536   9.467
 1092POPC   PO417424  13.275  21.502   9.553
 1092POPC   GL117425  13.492  21.492   9.156
 1092POPC   GL217426  13.242  21.588   8.929
 1092POPC   C1A17427  13.753  21.539   8.779
 1092POPC   D2A17428  13.860  21.246   8.430
 1092POPC   C3A17429  13.759  21.315   8.014
 1092POPC   C4A17430  13.841  21.601   7.668
 1092POPC   C1B17431  13.342  21.294   8.600
 1092POPC   C2B17432  13.390  21.037   8.227
 1092POPC   C3B17433  13.319  21.192   7.820
 1092POPC   C4B17434  13.554  21.231   7.451
 1093POPC   NC317435  36.627  15.510   9.420
 1093POPC   PO417436  36.919  16.097   9.564
 1093POPC   GL117437  36.711  15.962   9.186
 1093POPC   GL217438  36.360  15.983   9.120
 1093POPC   C1A17439  36.723  16.077   8.758
 1093POPC   D2A17440  36.815  15.814   8.409
 1093POPC   C3A17441  36.909  15.988   8.021
 1093POPC   C4A17442  37.013  15.703   7.712
 1093POPC   C1B17443  36.455  15.648   8.797
 1093POPC   C2B17444  36.456  15.438   8.382
 1093POPC   C3B17445  36.511  15.655   8.003
 1093POPC   C4B17446  36.340  15.732   7.639
 1094POPC   NC317447   3.812  16.008   9.338
 1094POPC   PO417448   3.183  15.735   9.331
 1094POPC   GL117449   3.427  15.864   9.026
 1094POPC   GL217450   3.681  15.606   9.039
 1094POPC   C1A17451   3.421  16.164   8.695
 1094POPC   D2A17452   3.409  16.547   8.480
 1094POPC   C3A17453   3.575  16.345   8.128
 1094POPC   C4A17454   3.327  16.079   7.843
 1094POPC   C1B17455   3.550  15.611   8.606
 1094POPC   C2B17456   3.486  15.842   8.269
 1094POPC   C3B17457   3.693  15.712   7.888
 1094POPC   C4B17458   3.718  15.630   7.466
 1095POPC   NC317459   7.672  10.790   9.503
 1095POPC   PO417460   7.525  10.237   9.579
 1095POPC   GL117461   7.466  10.350   9.189
 1095POPC   GL217462   7.789  10.467   9.080
 1095POPC   C1A17463   7.127  10.491   8.910
 1095POPC   D2A17464   7.084  10.391   8.490
 1095POPC   C3A17465   7.354  10.667   8.269
 1095POPC   C4A17466   7.224  10.802   7.872
 1095POPC   C1B17467   7.602  10.344   8.689
 1095POPC   C2B17468   7.717  10.288   8.265
 1095POPC   C3B17469   7.522  10.361   7.865
 1095POPC   C4B17470   7.558  10.607   7.503
 1096POPC   NC317471  32.546  30.933   9.292
 1096POPC   PO417472  32.217  30.224   9.400
 1096POPC   GL117473  32.311  30.482   9.094
 1096POPC   GL217474  32.624  30.343   8.994
 1096POPC   C1A17475  32.044  30.683   8.782
 1096POPC   D2A17476  31.982  30.882   8.374
 1096POPC   C3A17477  31.957  30.593   8.048
 1096POPC   C4A17478  32.017  30.828   7.695
 1096POPC   C1B17479  32.546  30.696   8.678
 1096POPC   C2B17480  32.437  30.674   8.237
 1096POPC   C3B17481  32.506  30.833   7.834
 1096POPC   C4B17482  32.404  30.654   7.406
 1097POPC   NC317483  43.020   4.497   9.808
 1097POPC   PO417484  43.418   5.009   9.589
 1097POPC   GL117485  43.441   5.120   9.143
 1097POPC   GL217486  43.334   5.447   9.048
 1097POPC   C1A17487  43.551   5.083   8.726
 1097POPC   D2A17488  43.343   5.015   8.347
 1097POPC   C3A17489  43.481   5.209   7.999
 1097POPC   C4A17490  43.412   5.119   7.621
 1097POPC   C1B17491  43.050   5.279   8.674
 1097POPC   C2B17492  42.742   5.025   8.435
 1097POPC   C3B17493  42.669   4.891   8.005
 1097POPC   C4B17494  42.906   5.154   7.695
 1098POPC   NC317495  30.231  26.039   9.473
 1098POPC   PO417496  29.710  26.183   9.604
 1098POPC   GL117497  29.820  26.203   9.163
 1098POPC   GL217498  29.680  26.476   8.978
 1098POPC   C1A17499  29.688  26.006   8.760
 1098POPC   D2A17500  29.955  25.922   8.398
 1098POPC   C3A17501  29.821  25.782   7.975
 1098POPC   C4A17502  30.118  25.789   7.630
 1098POPC   C1B17503  29.818  26.433   8.522
 1098POPC   C2B17504  29.664  26.248   8.125
 1098POPC   C3B17505  29.676  26.184   7.664
 1098POPC   C4B17506  29.692  26.391   7.249
 1099POPC   NC317507  25.672  22.919   9.274
 1099POPC   PO417508  26.291  23.038   9.522
 1099POPC   GL117509  26.140  22.959   9.106
 1099POPC   GL217510  25.983  22.583   9.059
 1099POPC   C1A17511  25.922  23.153   8.716
 1099POPC   D2A17512  25.621  23.142   8.351
 1099POPC   C3A17513  25.851  23.225   7.969
 1099POPC   C4A17514  26.268  23.383   7.879
 1099POPC   C1B17515  26.167  22.707   8.679
 1099POPC   C2B17516  26.004  22.793   8.277
 1099POPC   C3B17517  26.142  22.834   7.896
 1099POPC   C4B17518  26.075  22.614   7.541
 1100POPC   NC317519  43.840  14.671   9.415
 1100POPC   PO417520  44.235  14.166   9.508
 1100POPC   GL117521  44.049  14.307   9.114
 1100POPC   GL217522  44.067  14.670   8.967
 1100POPC   C1A17523  43.833  14.290   8.720
 1100POPC   D2A17524  44.017  14.301   8.315
 1100POPC   C3A17525  43.773  14.269   7.948
 1100POPC   C4A17526  43.498  14.343   7.623
 1100POPC   C1B17527  44.227  14.714   8.560
 1100POPC   C2B17528  44.077  14.812   8.143
 1100POPC   C3B17529  43.753  14.769   7.826
 1100POPC   C4B17530  44.014  14.525   7.559
 1101POPC   NC317531   3.921  38.865   9.710
 1101POPC   PO417532   4.265  39.297   9.292
 1101POPC   GL117533   4.410  39.064   8.947
 1101POPC   GL217534   4.696  38.917   8.846
 1101POPC   C1A17535   4.294  39.050   8.512
 1101POPC   D2A17536   4.472  39.087   8.121
 1101POPC   C3A17537   4.214  39.076   7.772
 1101POPC   C4A17538   4.070  39.427   7.616
 1101POPC   C1B17539   4.679  39.349   8.652
 1101POPC   C2B17540   4.442  39.575   8.323
 1101POPC   C3B17541   4.506  39.562   7.891
 1101POPC   C4B17542   4.710  39.216   7.678
 1102POPC   NC317543  27.468  17.138   9.458
 1102POPC   PO417544  27.730  17.762   9.421
 1102POPC   GL117545  27.621  17.737   9.026
 1102POPC   GL217546  27.389  17.463   9.054
 1102POPC   C1A17547  27.849  17.430   8.784
 1102POPC   D2A17548  27.894  17.289   8.370
 1102POPC   C3A17549  27.787  17.492   8.044
 1102POPC   C4A17550  27.877  17.368   7.658
 1102POPC   C1B17551  27.367  17.491   8.588
 1102POPC   C2B17552  27.332  17.297   8.166
 1102POPC   C3B17553  27.390  17.473   7.730
 1102POPC   C4B17554  27.498  17.314   7.296
 1103POPC   NC317555  38.481  24.840   9.370
 1103POPC   PO417556  38.195  24.207   9.569
 1103POPC   GL117557  38.455  24.335   9.232
 1103POPC   GL217558  38.207  24.514   9.035
 1103POPC   C1A17559  38.603  24.256   8.799
 1103POPC   D2A17560  38.385  24.272   8.392
 1103POPC   C3A17561  38.475  24.302   7.952
 1103POPC   C4A17562  38.762  24.424   7.625
 1103POPC   C1B17563  38.165  24.709   8.599
 1103POPC   C2B17564  38.258  24.735   8.130
 1103POPC   C3B17565  38.071  24.606   7.715
 1103POPC   C4B17566  38.024  24.587   7.233
 1104POPC   NC317567  20.258  13.446   9.565
 1104POPC   PO417568  20.943  13.624   9.531
 1104POPC   GL117569  20.809  13.688   9.143
 1104POPC   GL217570  20.488  13.747   9.199
 1104POPC   C1A17571  20.821  13.585   8.723
 1104POPC   D2A17572  21.023  13.601   8.358
 1104POPC   C3A17573  20.755  13.793   8.104
 1104POPC   C4A17574  20.750  13.577   7.769
 1104POPC   C1B17575  20.360  13.439   8.878
 1104POPC   C2B17576  20.396  13.568   8.432
 1104POPC   C3B17577  20.266  13.617   8.008
 1104POPC   C4B17578  20.305  13.798   7.612
 1105POPC   NC317579  27.183  30.862   9.798
 1105POPC   PO417580  26.513  30.786   9.557
 1105POPC   GL117581  26.644  30.654   9.162
 1105POPC   GL217582  26.418  30.390   9.082
 1105POPC   C1A17583  26.767  30.763   8.735
 1105POPC   D2A17584  26.967  30.963   8.394
 1105POPC   C3A17585  26.778  30.948   7.965
 1105POPC   C4A17586  26.941  30.797   7.540
 1105POPC   C1B17587  26.379  30.436   8.630
 1105POPC   C2B17588  26.659  30.533   8.283
 1105POPC   C3B17589  26.725  30.451   7.858
 1105POPC   C4B17590  26.477  30.554   7.478
 1106POPC   NC317591  34.108  44.327   9.409
 1106POPC   PO417592  34.326  43.686   9.486
 1106POPC   GL117593  34.323  43.918   9.126
 1106POPC   GL217594  34.655  43.851   9.062
 1106POPC   C1A17595  34.291  44.192   8.752
 1106POPC   D2A17596  34.548  44.205   8.356
 1106POPC   C3A17597  34.412  44.069   7.891
 1106POPC   C4A17598  34.663  44.053   7.470
 1106POPC   C1B17599  34.514  43.749   8.648
 1106POPC   C2B17600  34.834  43.754   8.335
 1106POPC   C3B17601  34.850  43.798   7.925
 1106POPC   C4B17602  34.539  43.601   7.677
 1107POPC   NC317603  25.565  36.948   9.666
 1107POPC   PO417604  25.095  36.526   9.363
 1107POPC   GL117605  25.065  36.716   8.950
 1107POPC   GL217606  24.883  36.979   9.100
 1107POPC   C1A17607  25.376  36.861   8.599
 1107POPC   D2A17608  25.601  36.634   8.278
 1107POPC   C3A17609  25.376  36.725   7.916
 1107POPC   C4A17610  25.402  37.116   7.719
 1107POPC   C1B17611  24.959  37.151   8.683
 1107POPC   C2B17612  25.041  37.056   8.238
 1107POPC   C3B17613  24.919  37.106   7.815
 1107POPC   C4B17614  24.969  36.903   7.402
 1108POPC   NC317615  36.411   4.535   9.338
 1108POPC   PO417616  35.946   4.084   9.598
 1108POPC   GL117617  36.017   4.252   9.183
 1108POPC   GL217618  35.851   4.592   9.241
 1108POPC   C1A17619  36.226   4.188   8.754
 1108POPC   D2A17620  36.208   3.921   8.380
 1108POPC   C3A17621  36.132   4.208   8.051
 1108POPC   C4A17622  36.273   4.522   7.756
 1108POPC   C1B17623  35.921   4.604   8.794
 1108POPC   C2B17624  35.989   4.618   8.349
 1108POPC   C3B17625  35.798   4.584   7.930
 1108POPC   C4B17626  35.836   4.515   7.463
 1109POPC   NC317627  40.139  36.801   9.283
 1109POPC   PO417628  39.908  37.273   9.724
 1109POPC   GL117629  39.697  37.090   9.289
 1109POPC   GL217630  39.650  36.713   9.132
 1109POPC   C1A17631  39.698  37.133   8.808
 1109POPC   D2A17632  39.773  36.990   8.359
 1109POPC   C3A17633  40.138  37.059   8.069
 1109POPC   C4A17634  39.975  37.202   7.704
 1109POPC   C1B17635  39.914  36.672   8.725
 1109POPC   C2B17636  40.196  36.666   8.400
 1109POPC   C3B17637  40.075  36.555   7.989
 1109POPC   C4B17638  40.080  36.720   7.599
 1110POPC   NC317639   0.128  40.827   9.547
 1110POPC   PO417640   0.576  40.289   9.465
 1110POPC   GL117641   0.533  40.564   9.180
 1110POPC   GL217642   0.525  40.914   9.225
 1110POPC   C1A17643   0.428  40.604   8.783
 1110POPC   D2A17644   0.654  40.598   8.435
 1110POPC   C3A17645   0.379  40.537   8.123
 1110POPC   C4A17646   0.411  40.557   7.705
 1110POPC   C1B17647   0.270  41.070   8.868
 1110POPC   C2B17648   0.342  41.008   8.410
 1110POPC   C3B17649   0.230  41.013   7.962
 1110POPC   C4B17650   0.476  41.054   7.603
 1111POPC   NC317651  40.946  38.030   9.682
 1111POPC   PO417652  41.576  37.705   9.643
 1111POPC   GL117653  41.519  37.624   9.195
 1111POPC   GL217654  41.523  37.907   8.990
 1111POPC   C1A17655  41.669  37.530   8.730
 1111POPC   D2A17656  41.450  37.509   8.349
 1111POPC   C3A17657  41.590  37.665   7.963
 1111POPC   C4A17658  41.582  37.520   7.567
 1111POPC   C1B17659  41.237  37.926   8.653
 1111POPC   C2B17660  41.017  37.796   8.279
 1111POPC   C3B17661  41.065  37.751   7.845
 1111POPC   C4B17662  41.168  37.725   7.408
 1112POPC   NC317663  21.063  12.124   9.556
 1112POPC   PO417664  20.390  12.191   9.515
 1112POPC   GL117665  20.438  12.029   9.134
 1112POPC   GL217666  20.781  12.085   9.140
 1112POPC   C1A17667  20.531  12.173   8.716
 1112POPC   D2A17668  20.674  11.993   8.360
 1112POPC   C3A17669  20.524  12.218   8.059
 1112POPC   C4A17670  20.361  12.483   7.772
 1112POPC   C1B17671  20.982  11.954   8.759
 1112POPC   C2B17672  21.173  11.852   8.356
 1112POPC   C3B17673  21.095  12.089   8.026
 1112POPC   C4B17674  20.874  12.279   7.720
 1113POPC   NC317675  18.649  16.823   9.746
 1113POPC   PO417676  18.199  16.402   9.542
 1113POPC   GL117677  18.150  16.550   9.145
 1113POPC   GL217678  18.255  16.885   9.242
 1113POPC   C1A17679  18.287  16.505   8.726
 1113POPC   D2A17680  18.129  16.329   8.347
 1113POPC   C3A17681  18.252  16.486   7.961
 1113POPC   C4A17682  18.006  16.689   7.651
 1113POPC   C1B17683  18.187  17.016   8.824
 1113POPC   C2B17684  18.337  16.962   8.429
 1113POPC   C3B17685  18.293  16.984   8.014
 1113POPC   C4B17686  18.480  16.824   7.605
 1114POPC   NC317687  26.285  10.939   9.875
 1114POPC   PO417688  26.083  10.399   9.486
 1114POPC   GL117689  26.058  10.482   9.104
 1114POPC   GL217690  25.726  10.539   9.092
 1114POPC   C1A17691  26.180  10.677   8.760
 1114POPC   D2A17692  26.063  10.529   8.370
 1114POPC   C3A17693  26.212  10.736   7.989
 1114POPC   C4A17694  26.143  10.422   7.697
 1114POPC   C1B17695  25.665  10.736   8.727
 1114POPC   C2B17696  25.602  10.752   8.326
 1114POPC   C3B17697  25.722  10.576   7.966
 1114POPC   C4B17698  25.648  10.572   7.548
 1115POPC   NC317699  25.928  29.279   9.753
 1115POPC   PO417700  25.865  28.658   9.523
 1115POPC   GL117701  25.815  29.046   9.276
 1115POPC   GL217702  26.121  29.158   9.212
 1115POPC   C1A17703  25.809  29.217   8.837
 1115POPC   D2A17704  25.955  29.036   8.457
 1115POPC   C3A17705  25.861  29.237   8.066
 1115POPC   C4A17706  26.006  29.028   7.701
 1115POPC   C1B17707  26.343  29.178   8.850
 1115POPC   C2B17708  26.387  29.334   8.436
 1115POPC   C3B17709  26.401  29.304   7.998
 1115POPC   C4B17710  26.486  29.091   7.614
 1116POPC   NC317711  15.837  43.300   9.669
 1116POPC   PO417712  16.363  42.957   9.748
 1116POPC   GL117713  16.319  43.047   9.256
 1116POPC   GL217714  15.954  43.146   9.148
 1116POPC   C1A17715  16.304  42.941   8.792
 1116POPC   D2A17716  15.936  42.939   8.495
 1116POPC   C3A17717  15.965  43.081   8.092
 1116POPC   C4A17718  15.848  43.167   7.689
 1116POPC   C1B17719  16.014  43.377   8.745
 1116POPC   C2B17720  16.182  43.507   8.326
 1116POPC   C3B17721  16.291  43.424   7.883
 1116POPC   C4B17722  15.970  43.640   7.654
 1117POPC   NC317723  24.710  20.228   9.369
 1117POPC   PO417724  24.506  19.584   9.492
 1117POPC   GL117725  24.464  19.831   9.148
 1117POPC   GL217726  24.802  19.779   9.089
 1117POPC   C1A17727  24.353  19.899   8.715
 1117POPC   D2A17728  24.167  19.670   8.354
 1117POPC   C3A17729  24.322  19.744   7.944
 1117POPC   C4A17730  24.337  19.964   7.547
 1117POPC   C1B17731  24.780  19.609   8.707
 1117POPC   C2B17732  24.677  19.697   8.306
 1117POPC   C3B17733  24.786  19.909   7.920
 1117POPC   C4B17734  24.717  19.598   7.611
 1118POPC   NC317735  44.125  20.342   9.355
 1118POPC   PO417736  43.605  20.261   9.800
 1118POPC   GL117737  43.668  19.889   9.418
 1118POPC   GL217738  43.993  19.866   9.226
 1118POPC   C1A17739  43.626  19.681   8.951
 1118POPC   D2A17740  43.817  19.490   8.566
 1118POPC   C3A17741  43.843  19.738   8.180
 1118POPC   C4A17742  43.881  19.629   7.750
 1118POPC   C1B17743  44.116  19.911   8.752
 1118POPC   C2B17744  44.243  20.075   8.322
 1118POPC   C3B17745  43.995  20.204   7.958
 1118POPC   C4B17746  43.574  20.125   7.853
 1119POPC   NC317747  33.391  13.569   9.551
 1119POPC   PO417748  32.757  13.729   9.466
 1119POPC   GL117749  33.081  13.681   9.172
 1119POPC   GL217750  33.269  13.979   9.236
 1119POPC   C1A17751  33.356  13.658   8.804
 1119POPC   D2A17752  33.519  13.709   8.357
 1119POPC   C3A17753  33.240  13.556   8.048
 1119POPC   C4A17754  32.890  13.427   7.797
 1119POPC   C1B17755  33.031  14.035   8.832
 1119POPC   C2B17756  32.987  13.795   8.434
 1119POPC   C3B17757  32.738  13.851   8.042
 1119POPC   C4B17758  32.588  13.760   7.576
 1120POPC   NC317759   0.052   3.003   9.352
 1120POPC   PO417760   0.573   2.583   9.487
 1120POPC   GL117761   0.361   2.682   9.102
 1120POPC   GL217762   0.465   3.019   9.041
 1120POPC   C1A17763   0.228   2.752   8.667
 1120POPC   D2A17764   0.487   2.659   8.300
 1120POPC   C3A17765   0.402   2.905   7.954
 1120POPC   C4A17766   0.045   2.931   7.732
 1120POPC   C1B17767   0.710   2.928   8.686
 1120POPC   C2B17768   0.736   3.141   8.316
 1120POPC   C3B17769   0.834   3.166   7.946
 1120POPC   C4B17770   0.699   3.160   7.534
 1121POPC   NC317771  29.250  28.565   9.422
 1121POPC   PO417772  28.763  28.005   9.518
 1121POPC   GL117773  28.956  28.225   9.130
 1121POPC   GL217774  29.331  28.183   9.100
 1121POPC   C1A17775  29.103  28.473   8.739
 1121POPC   D2A17776  29.152  28.520   8.274
 1121POPC   C3A17777  28.904  28.343   7.878
 1121POPC   C4A17778  28.927  28.150   7.441
 1121POPC   C1B17779  29.644  28.207   8.751
 1121POPC   C2B17780  29.626  28.254   8.300
 1121POPC   C3B17781  29.405  28.277   7.895
 1121POPC   C4B17782  29.397  27.948   7.578
 1122POPC   NC317783  23.721  26.599   9.572
 1122POPC   PO417784  23.969  27.219   9.378
 1122POPC   GL117785  23.757  26.997   9.030
 1122POPC   GL217786  23.723  26.650   9.066
 1122POPC   C1A17787  23.659  26.889   8.586
 1122POPC   D2A17788  23.682  27.155   8.182
 1122POPC   C3A17789  23.574  27.005   7.778
 1122POPC   C4A17790  23.346  27.008   7.350
 1122POPC   C1B17791  24.021  26.437   8.813
 1122POPC   C2B17792  24.153  26.529   8.418
 1122POPC   C3B17793  23.850  26.660   8.131
 1122POPC   C4B17794  23.741  26.511   7.755
 1123POPC   NC317795   7.426  20.820  10.420
 1123POPC   PO417796   7.549  20.923   9.665
 1123POPC   GL117797   7.578  20.803   9.228
 1123POPC   GL217798   7.580  21.123   9.142
 1123POPC   C1A17799   7.677  20.469   8.895
 1123POPC   D2A17800   7.791  20.515   8.433
 1123POPC   C3A17801   7.459  20.455   8.084
 1123POPC   C4A17802   7.041  20.561   7.884
 1123POPC   C1B17803   7.497  20.913   8.721
 1123POPC   C2B17804   7.259  20.848   8.343
 1123POPC   C3B17805   7.322  20.980   7.930
 1123POPC   C4B17806   7.186  20.896   7.499
 1124POPC   NC317807  23.297  23.265   9.341
 1124POPC   PO417808  22.868  22.982   9.735
 1124POPC   GL117809  22.814  22.847   9.261
 1124POPC   GL217810  23.011  23.006   8.973
 1124POPC   C1A17811  22.778  22.563   8.877
 1124POPC   D2A17812  23.018  22.571   8.458
 1124POPC   C3A17813  22.813  22.823   8.114
 1124POPC   C4A17814  22.617  22.698   7.713
 1124POPC   C1B17815  23.234  23.035   8.567
 1124POPC   C2B17816  23.338  23.264   8.169
 1124POPC   C3B17817  23.186  23.120   7.773
 1124POPC   C4B17818  23.056  23.301   7.377
 1125POPC   NC317819  29.937  19.317   9.555
 1125POPC   PO417820  30.030  18.679   9.449
 1125POPC   GL117821  29.875  18.881   9.102
 1125POPC   GL217822  30.044  19.214   9.067
 1125POPC   C1A17823  29.912  18.919   8.662
 1125POPC   D2A17824  29.946  19.077   8.287
 1125POPC   C3A17825  29.967  18.857   7.922
 1125POPC   C4A17826  30.091  19.197   7.640
 1125POPC   C1B17827  29.768  19.426   8.761
 1125POPC   C2B17828  29.552  19.439   8.366
 1125POPC   C3B17829  29.765  19.441   7.967
 1125POPC   C4B17830  29.657  19.602   7.587
 1126POPC   NC317831  24.387  16.291   9.457
 1126POPC   PO417832  24.372  15.587   9.373
 1126POPC   GL117833  24.582  15.921   9.159
 1126POPC   GL217834  24.231  15.996   9.079
 1126POPC   C1A17835  24.606  16.048   8.728
 1126POPC   D2A17836  24.358  15.861   8.433
 1126POPC   C3A17837  24.564  15.944   8.072
 1126POPC   C4A17838  24.415  15.762   7.750
 1126POPC   C1B17839  24.102  16.204   8.754
 1126POPC   C2B17840  23.910  16.184   8.381
 1126POPC   C3B17841  24.080  16.059   8.022
 1126POPC   C4B17842  24.260  16.254   7.658
 1127POPC   NC317843   6.828  27.533   9.410
 1127POPC   PO417844   7.429  27.387   9.717
 1127POPC   GL117845   7.349  27.557   9.314
 1127POPC   GL217846   7.608  27.359   9.182
 1127POPC   C1A17847   7.313  27.722   8.885
 1127POPC   D2A17848   7.195  27.552   8.475
 1127POPC   C3A17849   7.406  27.717   8.118
 1127POPC   C4A17850   7.310  27.701   7.702
 1127POPC   C1B17851   7.708  27.341   8.746
 1127POPC   C2B17852   7.643  27.307   8.311
 1127POPC   C3B17853   7.691  27.286   7.875
 1127POPC   C4B17854   7.815  27.206   7.446
 1128POPC   NC317855   8.608  34.011   9.722
 1128POPC   PO417856   9.281  33.974   9.474
 1128POPC   GL117857   9.038  33.837   9.187
 1128POPC   GL217858   8.718  33.778   9.263
 1128POPC   C1A17859   9.084  33.743   8.772
 1128POPC   D2A17860   9.185  33.955   8.407
 1128POPC   C3A17861   9.113  33.732   8.032
 1128POPC   C4A17862   9.164  33.652   7.601
 1128POPC   C1B17863   8.570  33.809   8.843
 1128POPC   C2B17864   8.700  33.732   8.434
 1128POPC   C3B17865   8.601  33.830   8.039
 1128POPC   C4B17866   8.671  33.610   7.658
 1129POPC   NC317867   9.106  17.141   9.649
 1129POPC   PO417868   8.913  17.760   9.530
 1129POPC   GL117869   9.111  17.546   9.184
 1129POPC   GL217870   9.330  17.243   9.197
 1129POPC   C1A17871   8.936  17.599   8.760
 1129POPC   D2A17872   8.807  17.330   8.401
 1129POPC   C3A17873   8.911  17.428   7.973
 1129POPC   C4A17874   8.883  17.694   7.629
 1129POPC   C1B17875   9.114  17.119   8.824
 1129POPC   C2B17876   9.175  16.969   8.406
 1129POPC   C3B17877   9.292  17.109   8.001
 1129POPC   C4B17878   9.190  17.224   7.586
 1130POPC   NC317879  15.360  13.350   9.484
 1130POPC   PO417880  15.407  13.998   9.539
 1130POPC   GL117881  15.275  13.821   9.139
 1130POPC   GL217882  15.032  13.554   9.118
 1130POPC   C1A17883  15.243  13.930   8.691
 1130POPC   D2A17884  14.946  13.859   8.343
 1130POPC   C3A17885  15.122  13.935   7.930
 1130POPC   C4A17886  15.393  13.759   7.599
 1130POPC   C1B17887  15.093  13.456   8.672
 1130POPC   C2B17888  15.296  13.500   8.249
 1130POPC   C3B17889  15.146  13.389   7.846
 1130POPC   C4B17890  15.337  13.220   7.478
 1131POPC   NC317891  40.274  32.082   9.684
 1131POPC   PO417892  39.682  32.475   9.505
 1131POPC   GL117893  39.874  32.284   9.114
 1131POPC   GL217894  39.834  31.923   9.146
 1131POPC   C1A17895  39.961  32.225   8.646
 1131POPC   D2A17896  39.899  32.330   8.206
 1131POPC   C3A17897  40.191  32.177   7.863
 1131POPC   C4A17898  40.159  32.163   7.389
 1131POPC   C1B17899  39.588  31.905   8.773
 1131POPC   C2B17900  39.732  31.867   8.355
 1131POPC   C3B17901  39.826  31.841   7.940
 1131POPC   C4B17902  39.587  31.854   7.550
 1132POPC   NC317903  24.533   0.958   9.522
 1132POPC   PO417904  24.087   1.491   9.393
 1132POPC   GL117905  24.422   1.266   9.113
 1132POPC   GL217906  24.425   0.854   9.045
 1132POPC   C1A17907  24.461   1.185   8.665
 1132POPC   D2A17908  24.504   1.098   8.257
 1132POPC   C3A17909  24.228   1.247   7.972
 1132POPC   C4A17910  24.155   0.976   7.642
 1132POPC   C1B17911  24.828   0.755   8.884
 1132POPC   C2B17912  24.960   0.849   8.454
 1132POPC   C3B17913  24.908   0.955   7.990
 1132POPC   C4B17914  24.995   0.751   7.597
 1133POPC   NC317915  11.333  14.204   9.526
 1133POPC   PO417916  11.417  14.876   9.633
 1133POPC   GL117917  11.402  14.648   9.190
 1133POPC   GL217918  11.157  14.362   9.058
 1133POPC   C1A17919  11.229  14.772   8.750
 1133POPC   D2A17920  11.263  14.534   8.357
 1133POPC   C3A17921  11.521  14.706   8.015
 1133POPC   C4A17922  11.395  14.770   7.605
 1133POPC   C1B17923  10.946  14.218   8.667
 1133POPC   C2B17924  10.978  14.114   8.224
 1133POPC   C3B17925  11.140  14.378   7.864
 1133POPC   C4B17926  11.322  14.287   7.456
 1134POPC   NC317927   3.103  39.354   9.408
 1134POPC   PO417928   2.482  38.998   9.548
 1134POPC   GL117929   2.647  39.139   9.129
 1134POPC   GL217930   2.678  39.515   9.071
 1134POPC   C1A17931   2.787  39.037   8.698
 1134POPC   D2A17932   2.850  38.882   8.265
 1134POPC   C3A17933   3.143  38.996   7.921
 1134POPC   C4A17934   3.083  39.303   7.548
 1134POPC   C1B17935   2.591  39.490   8.604
 1134POPC   C2B17936   2.646  39.403   8.126
 1134POPC   C3B17937   2.597  39.508   7.670
 1134POPC   C4B17938   2.441  39.625   7.215
 1135POPC   NC317939  32.096  19.240   9.629
 1135POPC   PO417940  32.520  18.873   9.341
 1135POPC   GL117941  32.130  19.001   9.164
 1135POPC   GL217942  31.982  19.325   9.070
 1135POPC   C1A17943  32.054  18.951   8.740
 1135POPC   D2A17944  32.202  19.180   8.407
 1135POPC   C3A17945  32.161  18.851   8.117
 1135POPC   C4A17946  31.896  18.772   7.835
 1135POPC   C1B17947  31.872  19.551   8.681
 1135POPC   C2B17948  31.808  19.567   8.233
 1135POPC   C3B17949  32.030  19.315   7.936
 1135POPC   C4B17950  32.275  19.093   7.664
 1136POPC   NC317951   1.647   4.226   9.376
 1136POPC   PO417952   2.191   4.547   9.503
 1136POPC   GL117953   2.084   4.337   9.126
 1136POPC   GL217954   1.790   4.502   8.973
 1136POPC   C1A17955   2.202   4.317   8.716
 1136POPC   D2A17956   1.956   4.493   8.418
 1136POPC   C3A17957   2.154   4.444   8.028
 1136POPC   C4A17958   1.938   4.555   7.685
 1136POPC   C1B17959   1.762   4.069   8.717
 1136POPC   C2B17960   1.948   3.981   8.280
 1136POPC   C3B17961   1.830   4.039   7.829
 1136POPC   C4B17962   1.895   3.958   7.387
 1137POPC   NC317963  34.599  28.037   9.585
 1137POPC   PO417964  34.325  28.664   9.610
 1137POPC   GL117965  34.577  28.458   9.201
 1137POPC   GL217966  34.778  28.126   9.137
 1137POPC   C1A17967  34.841  28.472   8.789
 1137POPC   D2A17968  34.616  28.417   8.402
 1137POPC   C3A17969  34.738  28.594   8.015
 1137POPC   C4A17970  34.604  28.446   7.637
 1137POPC   C1B17971  34.691  27.974   8.746
 1137POPC   C2B17972  34.621  27.902   8.332
 1137POPC   C3B17973  34.762  28.084   7.978
 1137POPC   C4B17974  35.137  27.971   7.817
 1138POPC   NC317975  41.069  24.314   9.409
 1138POPC   PO417976  40.414  24.718   9.442
 1138POPC   GL117977  40.638  24.429   9.140
 1138POPC   GL217978  40.918  24.675   9.090
 1138POPC   C1A17979  40.593  24.135   8.769
 1138POPC   D2A17980  40.429  24.085   8.348
 1138POPC   C3A17981  40.587  24.426   8.097
 1138POPC   C4A17982  40.611  24.454   7.664
 1138POPC   C1B17983  40.800  24.746   8.665
 1138POPC   C2B17984  41.025  24.667   8.286
 1138POPC   C3B17985  41.076  24.539   7.860
 1138POPC   C4B17986  40.939  24.823   7.553
 1139POPC   NC317987  32.308  20.059   9.511
 1139POPC   PO417988  32.523  19.426   9.723
 1139POPC   GL117989  32.384  19.540   9.306
 1139POPC   GL217990  32.507  19.326   9.077
 1139POPC   C1A17991  32.305  19.763   8.912
 1139POPC   D2A17992  32.434  20.090   8.622
 1139POPC   C3A17993  32.265  20.041   8.209
 1139POPC   C4A17994  32.114  19.807   7.875
 1139POPC   C1B17995  32.590  19.421   8.637
 1139POPC   C2B17996  32.478  19.575   8.229
 1139POPC   C3B17997  32.536  19.527   7.801
 1139POPC   C4B17998  32.649  19.394   7.403
 1140POPC   NC317999  33.176  19.950   9.363
 1140POPC   PO418000  32.933  20.599   9.654
 1140POPC   GL118001  32.972  20.561   9.231
 1140POPC   GL218002  32.763  20.848   9.199
 1140POPC   C1A18003  33.318  20.534   8.912
 1140POPC   D2A18004  33.519  20.444   8.495
 1140POPC   C3A18005  33.252  20.497   8.130
 1140POPC   C4A18006  33.202  20.227   7.766
 1140POPC   C1B18007  32.982  20.950   8.850
 1140POPC   C2B18008  32.867  20.965   8.434
 1140POPC   C3B18009  33.017  21.001   8.025
 1140POPC   C4B18010  33.174  20.789   7.687
 1141POPC   NC318011  22.656   9.406   9.380
 1141POPC   PO418012  23.196   9.929   9.548
 1141POPC   GL118013  23.046   9.700   9.202
 1141POPC   GL218014  22.742   9.839   9.123
 1141POPC   C1A18015  23.176   9.799   8.784
 1141POPC   D2A18016  23.113   9.747   8.356
 1141POPC   C3A18017  23.200  10.041   8.067
 1141POPC   C4A18018  23.239   9.892   7.670
 1141POPC   C1B18019  22.675   9.689   8.695
 1141POPC   C2B18020  22.625   9.877   8.304
 1141POPC   C3B18021  22.706   9.757   7.902
 1141POPC   C4B18022  22.529   9.682   7.496
 1142POPC   NC318023  40.915   7.471   9.565
 1142POPC   PO418024  40.374   7.107   9.398
 1142POPC   GL118025  40.666   7.340   9.137
 1142POPC   GL218026  41.065   7.298   9.138
 1142POPC   C1A18027  40.761   7.292   8.712
 1142POPC   D2A18028  40.783   7.061   8.346
 1142POPC   C3A18029  40.680   7.294   8.013
 1142POPC   C4A18030  40.607   7.605   7.739
 1142POPC   C1B18031  41.186   7.566   8.819
 1142POPC   C2B18032  41.136   7.443   8.384
 1142POPC   C3B18033  41.160   7.399   7.955
 1142POPC   C4B18034  41.098   7.644   7.589
 1143POPC   NC318035  16.165  26.688   9.911
 1143POPC   PO418036  15.568  26.753   9.599
 1143POPC   GL118037  15.812  26.855   9.176
 1143POPC   GL218038  15.755  26.563   9.014
 1143POPC   C1A18039  15.987  26.935   8.719
 1143POPC   D2A18040  16.305  26.977   8.334
 1143POPC   C3A18041  16.089  27.021   7.939
 1143POPC   C4A18042  15.913  27.280   7.615
 1143POPC   C1B18043  15.970  26.422   8.672
 1143POPC   C2B18044  15.973  26.590   8.279
 1143POPC   C3B18045  15.903  26.527   7.853
 1143POPC   C4B18046  16.008  26.768   7.479
 1144POPC   NC318047  36.005  13.869   9.520
 1144POPC   PO418048  36.239  13.188   9.635
 1144POPC   GL118049  36.235  13.434   9.196
 1144POPC   GL218050  36.051  13.730   9.024
 1144POPC   C1A18051  36.390  13.495   8.750
 1144POPC   D2A18052  36.190  13.687   8.412
 1144POPC   C3A18053  36.244  13.520   8.017
 1144POPC   C4A18054  35.995  13.708   7.727
 1144POPC   C1B18055  36.362  14.011   8.781
 1144POPC   C2B18056  36.556  14.028   8.369
 1144POPC   C3B18057  36.397  14.005   7.945
 1144POPC   C4B18058  36.415  13.917   7.464
 1145POPC   NC318059  23.741  24.147   9.500
 1145POPC   PO418060  23.716  23.464   9.517
 1145POPC   GL118061  23.551  23.754   9.205
 1145POPC   GL218062  23.876  23.838   9.105
 1145POPC   C1A18063  23.533  23.858   8.740
 1145POPC   D2A18064  23.665  23.602   8.397
 1145POPC   C3A18065  23.609  23.731   7.967
 1145POPC   C4A18066  23.225  23.627   7.779
 1145POPC   C1B18067  24.068  23.675   8.743
 1145POPC   C2B18068  24.088  23.881   8.336
 1145POPC   C3B18069  24.236  23.919   7.957
 1145POPC   C4B18070  24.060  23.656   7.639
 1146POPC   NC318071  42.498  27.684   9.569
 1146POPC   PO418072  42.088  27.167   9.753
 1146POPC   GL118073  42.172  27.469   9.284
 1146POPC   GL218074  42.525  27.427   9.133
 1146POPC   C1A18075  42.134  27.482   8.800
 1146POPC   D2A18076  42.338  27.425   8.398
 1146POPC   C3A18077  42.098  27.303   8.030
 1146POPC   C4A18078  42.149  27.253   7.573
 1146POPC   C1B18079  42.585  27.727   8.805
 1146POPC   C2B18080  42.524  27.900   8.395
 1146POPC   C3B18081  42.352  27.821   8.015
 1146POPC   C4B18082  42.558  27.991   7.668
 1147POPC   NC318083  30.828   3.921   9.529
 1147POPC   PO418084  30.315   4.520   9.465
 1147POPC   GL118085  30.499   4.231   9.186
 1147POPC   GL218086  30.858   4.295   9.174
 1147POPC   C1A18087  30.439   4.418   8.782
 1147POPC   D2A18088  30.377   4.264   8.382
 1147POPC   C3A18089  30.672   4.358   8.059
 1147POPC   C4A18090  30.532   4.515   7.667
 1147POPC   C1B18091  30.818   4.090   8.760
 1147POPC   C2B18092  31.041   3.889   8.438
 1147POPC   C3B18093  30.989   3.862   8.021
 1147POPC   C4B18094  30.916   4.109   7.667
 1148POPC   NC318095   8.710  16.095   9.527
 1148POPC   PO418096   9.359  16.158   9.403
 1148POPC   GL118097   9.109  15.907   9.178
 1148POPC   GL218098   8.902  16.164   9.048
 1148POPC   C1A18099   8.956  15.679   8.803
 1148POPC   D2A18100   8.895  15.645   8.358
 1148POPC   C3A18101   8.771  15.968   8.094
 1148POPC   C4A18102   8.817  15.886   7.689
 1148POPC   C1B18103   9.221  16.138   8.734
 1148POPC   C2B18104   9.241  16.041   8.321
 1148POPC   C3B18105   9.215  16.161   7.900
 1148POPC   C4B18106   8.863  16.395   7.711
 1149POPC   NC318107  41.962   6.087   9.695
 1149POPC   PO418108  41.698   5.568   9.397
 1149POPC   GL118109  41.569   5.890   9.141
 1149POPC   GL218110  41.826   6.126   9.164
 1149POPC   C1A18111  41.614   5.775   8.723
 1149POPC   D2A18112  41.739   5.566   8.363
 1149POPC   C3A18113  41.651   5.710   7.964
 1149POPC   C4A18114  41.642   5.801   7.547
 1149POPC   C1B18115  41.816   6.237   8.725
 1149POPC   C2B18116  41.817   6.107   8.267
 1149POPC   C3B18117  41.738   6.231   7.815
 1149POPC   C4B18118  41.568   6.264   7.364
 1150POPC   NC318119  16.242  37.391   9.872
 1150POPC   PO418120  16.054  36.915   9.411
 1150POPC   GL118121  15.897  36.970   9.051
 1150POPC   GL218122  15.851  37.311   9.061
 1150POPC   C1A18123  16.072  36.836   8.697
 1150POPC   D2A18124  16.160  36.960   8.294
 1150POPC   C3A18125  16.240  36.666   8.017
 1150POPC   C4A18126  16.292  36.754   7.626
 1150POPC   C1B18127  15.737  37.231   8.629
 1150POPC   C2B18128  15.742  37.276   8.190
 1150POPC   C3B18129  15.842  37.037   7.853
 1150POPC   C4B18130  15.830  37.171   7.406
 1151POPC   NC318131  41.742  33.189   9.578
 1151POPC   PO418132  41.304  32.690   9.534
 1151POPC   GL118133  41.362  32.953   9.226
 1151POPC   GL218134  41.703  32.980   9.129
 1151POPC   C1A18135  41.314  33.023   8.804
 1151POPC   D2A18136  41.600  32.986   8.483
 1151POPC   C3A18137  41.373  33.163   8.165
 1151POPC   C4A18138  41.461  33.115   7.730
 1151POPC   C1B18139  41.953  32.738   8.862
 1151POPC   C2B18140  42.086  32.783   8.446
 1151POPC   C3B18141  42.025  32.654   8.012
 1151POPC   C4B18142  41.869  32.829   7.646
 1152POPC   NC318143  43.384   7.134   9.361
 1152POPC   PO418144  43.138   7.784   9.415
 1152POPC   GL118145  43.036   7.477   9.128
 1152POPC   GL218146  42.917   7.740   8.948
 1152POPC   C1A18147  43.294   7.413   8.740
 1152POPC   D2A18148  43.490   7.203   8.414
 1152POPC   C3A18149  43.336   7.219   7.997
 1152POPC   C4A18150  43.258   7.389   7.600
 1152POPC   C1B18151  42.790   7.439   8.674
 1152POPC   C2B18152  42.988   7.441   8.287
 1152POPC   C3B18153  42.965   7.657   7.895
 1152POPC   C4B18154  42.795   7.567   7.463
 1153POPC   NC318155  12.273  23.020   9.208
 1153POPC   PO418156  11.866  22.680   9.634
 1153POPC   GL118157  11.768  23.086   9.274
 1153POPC   GL218158  11.457  22.947   9.199
 1153POPC   C1A18159  11.861  23.305   8.841
 1153POPC   D2A18160  12.221  23.106   8.580
 1153POPC   C3A18161  12.225  23.025   8.100
 1153POPC   C4A18162  12.280  22.698   7.781
 1153POPC   C1B18163  11.511  22.937   8.744
 1153POPC   C2B18164  11.751  23.057   8.383
 1153POPC   C3B18165  11.783  23.280   8.006
 1153POPC   C4B18166  11.792  22.926   7.764
 1154POPC   NC318167  14.727   5.070   9.639
 1154POPC   PO418168  15.316   5.430   9.556
 1154POPC   GL118169  15.183   5.240   9.196
 1154POPC   GL218170  15.083   4.917   9.264
 1154POPC   C1A18171  15.007   5.225   8.767
 1154POPC   D2A18172  14.925   5.057   8.340
 1154POPC   C3A18173  15.323   4.867   8.166
 1154POPC   C4A18174  15.667   5.001   7.916
 1154POPC   C1B18175  14.961   4.721   8.840
 1154POPC   C2B18176  15.015   4.544   8.407
 1154POPC   C3B18177  14.858   4.698   7.979
 1154POPC   C4B18178  14.841   5.115   7.763
 1155POPC   NC318179  35.361  41.082   9.463
 1155POPC   PO418180  35.093  40.407   9.421
 1155POPC   GL118181  35.347  40.682   9.116
 1155POPC   GL218182  35.477  41.036   8.991
 1155POPC   C1A18183  35.501  40.625   8.712
 1155POPC   D2A18184  35.452  40.956   8.431
 1155POPC   C3A18185  35.645  40.841   8.086
 1155POPC   C4A18186  35.461  40.880   7.709
 1155POPC   C1B18187  35.198  41.291   8.766
 1155POPC   C2B18188  35.055  41.298   8.352
 1155POPC   C3B18189  35.086  40.980   8.039
 1155POPC   C4B18190  34.954  40.954   7.604
 1156POPC   NC318191   2.462  23.254   9.357
 1156POPC   PO418192   2.825  22.760   9.647
 1156POPC   GL118193   2.821  22.879   9.206
 1156POPC   GL218194   2.505  22.783   9.119
 1156POPC   C1A18195   2.889  22.989   8.743
 1156POPC   D2A18196   3.076  22.778   8.371
 1156POPC   C3A18197   2.859  22.889   7.966
 1156POPC   C4A18198   3.021  23.124   7.621
 1156POPC   C1B18199   2.387  23.025   8.745
 1156POPC   C2B18200   2.508  22.897   8.358
 1156POPC   C3B18201   2.347  23.043   7.993
 1156POPC   C4B18202   2.514  23.081   7.540
 1157POPC   NC318203   4.521  31.185   9.476
 1157POPC   PO418204   3.919  31.359   9.253
 1157POPC   GL118205   4.204  31.529   8.956
 1157POPC   GL218206   4.489  31.584   9.126
 1157POPC   C1A18207   4.270  31.587   8.534
 1157POPC   D2A18208   4.402  31.320   8.207
 1157POPC   C3A18209   4.265  31.543   7.860
 1157POPC   C4A18210   3.865  31.734   7.837
 1157POPC   C1B18211   4.638  31.863   8.780
 1157POPC   C2B18212   4.506  32.033   8.352
 1157POPC   C3B18213   4.566  31.986   7.888
 1157POPC   C4B18214   4.643  31.787   7.467
 1158POPC   NC318215   7.816   4.712   9.409
 1158POPC   PO418216   7.450   5.322   9.421
 1158POPC   GL118217   7.412   4.914   9.161
 1158POPC   GL218218   7.291   5.185   8.952
 1158POPC   C1A18219   7.312   4.733   8.764
 1158POPC   D2A18220   7.328   5.013   8.431
 1158POPC   C3A18221   7.309   4.803   8.084
 1158POPC   C4A18222   7.312   4.897   7.689
 1158POPC   C1B18223   7.559   5.390   8.675
 1158POPC   C2B18224   7.519   5.514   8.274
 1158POPC   C3B18225   7.388   5.365   7.894
 1158POPC   C4B18226   7.360   5.320   7.416
 1159POPC   NC318227  34.094   2.015   9.534
 1159POPC   PO418228  33.609   2.469   9.705
 1159POPC   GL118229  33.791   2.267   9.237
 1159POPC   GL218230  33.726   1.929   9.131
 1159POPC   C1A18231  33.754   2.266   8.773
 1159POPC   D2A18232  33.674   1.938   8.461
 1159POPC   C3A18233  33.815   2.050   8.041
 1159POPC   C4A18234  33.901   2.100   7.589
 1159POPC   C1B18235  34.082   1.856   8.903
 1159POPC   C2B18236  34.200   1.558   8.606
 1159POPC   C3B18237  34.081   1.499   8.169
 1159POPC   C4B18238  34.193   1.768   7.830
 1160POPC   NC318239  13.279  38.210   9.384
 1160POPC   PO418240  13.854  38.570   9.583
 1160POPC   GL118241  13.605  38.714   9.179
 1160POPC   GL218242  13.232  38.784   9.147
 1160POPC   C1A18243  13.792  38.720   8.731
 1160POPC   D2A18244  13.839  38.443   8.374
 1160POPC   C3A18245  13.764  38.620   7.972
 1160POPC   C4A18246  13.790  38.338   7.607
 1160POPC   C1B18247  13.319  38.505   8.797
 1160POPC   C2B18248  13.333  38.382   8.381
 1160POPC   C3B18249  13.470  38.189   8.002
 1160POPC   C4B18250  13.279  38.235   7.598
 1161POPC   NC318251  29.669  11.473   9.845
 1161POPC   PO418252  30.101  11.154   9.469
 1161POPC   GL118253  29.961  11.288   9.047
 1161POPC   GL218254  29.685  11.441   9.176
 1161POPC   C1A18255  29.999  11.373   8.570
 1161POPC   D2A18256  30.013  11.231   8.141
 1161POPC   C3A18257  29.981  11.414   7.756
 1161POPC   C4A18258  29.897  11.505   7.299
 1161POPC   C1B18259  29.512  11.394   8.773
 1161POPC   C2B18260  29.565  11.218   8.385
 1161POPC   C3B18261  29.533  11.422   8.007
 1161POPC   C4B18262  29.519  11.295   7.593
 1162POPC   NC318263  39.080  18.966   9.412
 1162POPC   PO418264  39.661  19.071   9.689
 1162POPC   GL118265  39.452  19.276   9.265
 1162POPC   GL218266  39.077  19.451   9.237
 1162POPC   C1A18267  39.320  19.274   8.805
 1162POPC   D2A18268  39.131  19.007   8.463
 1162POPC   C3A18269  39.434  18.816   8.184
 1162POPC   C4A18270  39.499  18.878   7.748
 1162POPC   C1B18271  38.801  19.444   8.827
 1162POPC   C2B18272  38.699  19.278   8.386
 1162POPC   C3B18273  38.990  19.274   8.000
 1162POPC   C4B18274  38.860  19.477   7.589
 1163POPC   NC318275  17.690  25.698   9.560
 1163POPC   PO418276  17.598  25.016   9.444
 1163POPC   GL118277  17.415  25.162   9.076
 1163POPC   GL218278  17.496  25.464   9.159
 1163POPC   C1A18279  17.528  25.052   8.669
 1163POPC   D2A18280  17.459  25.056   8.261
 1163POPC   C3A18281  17.722  25.131   7.925
 1163POPC   C4A18282  17.418  25.054   7.621
 1163POPC   C1B18283  17.705  25.502   8.790
 1163POPC   C2B18284  17.694  25.503   8.340
 1163POPC   C3B18285  17.804  25.644   7.896
 1163POPC   C4B18286  17.620  25.521   7.506
 1164POPC   NC318287  41.785  24.179   9.234
 1164POPC   PO418288  41.397  24.673   9.457
 1164POPC   GL118289  41.432  24.797   9.074
 1164POPC   GL218290  41.377  24.424   8.995
 1164POPC   C1A18291  41.694  24.737   8.743
 1164POPC   D2A18292  41.591  24.363   8.496
 1164POPC   C3A18293  41.501  24.571   8.144
 1164POPC   C4A18294  41.718  24.858   7.909
 1164POPC   C1B18295  41.086  24.298   8.680
 1164POPC   C2B18296  41.156  24.152   8.252
 1164POPC   C3B18297  41.513  24.081   7.998
 1164POPC   C4B18298  41.552  24.405   7.667
 1165POPC   NC318299  11.124  44.151  10.088
 1165POPC   PO418300  11.381  43.711   9.876
 1165POPC   GL118301  11.276  43.527   9.395
 1165POPC   GL218302  10.907  43.521   9.324
 1165POPC   C1A18303  11.340  43.493   8.874
 1165POPC   D2A18304  11.491  43.617   8.402
 1165POPC   C3A18305  11.475  43.749   7.935
 1165POPC   C4A18306  11.771  43.599   7.611
 1165POPC   C1B18307  10.800  43.503   8.869
 1165POPC   C2B18308  10.990  43.575   8.450
 1165POPC   C3B18309  11.120  43.425   8.059
 1165POPC   C4B18310  11.004  43.544   7.625
 1166POPC   NC318311  19.303  34.094   9.490
 1166POPC   PO418312  18.879  33.560   9.523
 1166POPC   GL118313  19.143  33.682   9.195
 1166POPC   GL218314  18.902  33.913   9.109
 1166POPC   C1A18315  19.222  33.733   8.748
 1166POPC   D2A18316  19.003  33.565   8.387
 1166POPC   C3A18317  19.101  33.748   7.986
 1166POPC   C4A18318  19.363  33.522   7.709
 1166POPC   C1B18319  18.697  33.864   8.711
 1166POPC   C2B18320  18.801  34.055   8.333
 1166POPC   C3B18321  18.698  34.057   7.917
 1166POPC   C4B18322  18.804  33.846   7.548
 1167POPC   NC318323  22.933  32.950   9.667
 1167POPC   PO418324  22.485  33.330   9.781
 1167POPC   GL118325  22.583  32.938   9.327
 1167POPC   GL218326  22.913  32.771   9.194
 1167POPC   C1A18327  22.571  32.875   8.846
 1167POPC   D2A18328  22.665  33.081   8.437
 1167POPC   C3A18329  22.609  32.867   8.030
 1167POPC   C4A18330  22.790  32.760   7.619
 1167POPC   C1B18331  23.045  33.099   8.864
 1167POPC   C2B18332  23.144  33.270   8.428
 1167POPC   C3B18333  23.116  33.080   8.019
 1167POPC   C4B18334  23.443  33.134   7.723
 1168POPC   NC318335  25.367  16.463   9.505
 1168POPC   PO418336  25.476  17.060   9.550
 1168POPC   GL118337  25.225  16.808   9.171
 1168POPC   GL218338  25.413  16.506   9.010
 1168POPC   C1A18339  25.043  16.717   8.741
 1168POPC   D2A18340  24.900  16.522   8.375
 1168POPC   C3A18341  25.011  16.734   8.082
 1168POPC   C4A18342  25.040  16.632   7.687
 1168POPC   C1B18343  25.544  16.847   8.750
 1168POPC   C2B18344  25.519  16.768   8.340
 1168POPC   C3B18345  25.431  16.434   8.113
 1168POPC   C4B18346  25.538  16.586   7.722
 1169POPC   NC318347  15.187  16.629   9.499
 1169POPC   PO418348  14.668  16.234   9.349
 1169POPC   GL118349  14.995  16.424   9.064
 1169POPC   GL218350  15.077  16.804   9.049
 1169POPC   C1A18351  15.393  16.415   8.825
 1169POPC   D2A18352  15.520  16.612   8.437
 1169POPC   C3A18353  15.226  16.618   8.108
 1169POPC   C4A18354  15.169  16.448   7.726
 1169POPC   C1B18355  15.407  16.973   8.777
 1169POPC   C2B18356  15.295  17.103   8.356
 1169POPC   C3B18357  15.414  17.064   7.948
 1169POPC   C4B18358  15.341  16.908   7.551
 1170POPC   NC318359  14.325  43.683   9.541
 1170POPC   PO418360  14.369  44.297   9.310
 1170POPC   GL118361  14.636  43.990   9.063
 1170POPC   GL218362  14.558  43.619   9.096
 1170POPC   C1A18363  14.701  43.988   8.598
 1170POPC   D2A18364  14.454  43.931   8.235
 1170POPC   C3A18365  14.490  44.064   7.835
 1170POPC   C4A18366  14.167  44.049   7.512
 1170POPC   C1B18367  14.787  43.491   8.758
 1170POPC   C2B18368  14.782  43.531   8.336
 1170POPC   C3B18369  14.659  43.563   7.921
 1170POPC   C4B18370  14.293  43.583   7.736
 1171POPC   NC318371  44.520   4.106   9.688
 1171POPC   PO418372   0.076   4.349   9.527
 1171POPC   GL118373  44.866   4.138   9.147
 1171POPC   GL218374  44.494   4.191   9.153
 1171POPC   C1A18375  44.796   4.086   8.669
 1171POPC   D2A18376  44.778   4.023   8.228
 1171POPC   C3A18377  44.976   4.252   7.882
 1171POPC   C4A18378  44.741   4.087   7.473
 1171POPC   C1B18379  44.379   4.405   8.756
 1171POPC   C2B18380  44.371   4.311   8.310
 1171POPC   C3B18381  44.463   4.258   7.869
 1171POPC   C4B18382  44.235   4.340   7.472
 1172POPC   NC318383   4.344  23.035   9.623
 1172POPC   PO418384   4.181  22.365   9.589
 1172POPC   GL118385   4.396  22.619   9.232
 1172POPC   GL218386   4.404  22.979   9.138
 1172POPC   C1A18387   4.286  22.612   8.799
 1172POPC   D2A18388   4.532  22.523   8.445
 1172POPC   C3A18389   4.272  22.608   8.102
 1172POPC   C4A18390   4.278  22.711   7.683
 1172POPC   C1B18391   4.618  23.049   8.783
 1172POPC   C2B18392   4.462  23.024   8.394
 1172POPC   C3B18393   4.630  22.962   8.011
 1172POPC   C4B18394   4.471  23.216   7.710
 1173POPC   NC318395  14.565   0.289   9.598
 1173POPC   PO418396  14.275   0.758   9.298
 1173POPC   GL118397  14.563   0.551   9.077
 1173POPC   GL218398  14.503   0.779   8.797
 1173POPC   C1A18399  14.594   0.246   8.720
 1173POPC   D2A18400  14.550   0.408   8.301
 1173POPC   C3A18401  14.604   0.136   7.934
 1173POPC   C4A18402  14.430   0.228   7.541
 1173POPC   C1B18403  14.164   0.511   8.645
 1173POPC   C2B18404  14.051   0.333   8.238
 1173POPC   C3B18405  14.068   0.459   7.804
 1173POPC   C4B18406  13.733   0.273   7.558
 1174POPC   NC318407  39.096  30.032   9.514
 1174POPC   PO418408  39.724  30.208   9.511
 1174POPC   GL118409  39.483  30.136   9.135
 1174POPC   GL218410  39.341  29.784   9.113
 1174POPC   C1A18411  39.321  30.076   8.705
 1174POPC   D2A18412  39.391  29.924   8.291
 1174POPC   C3A18413  39.248  30.169   7.961
 1174POPC   C4A18414  39.085  29.958   7.634
 1174POPC   C1B18415  38.921  29.848   8.907
 1174POPC   C2B18416  38.839  30.040   8.491
 1174POPC   C3B18417  38.811  29.924   8.069
 1174POPC   C4B18418  38.655  29.693   7.730
 1175POPC   NC318419  10.343  29.455   9.272
 1175POPC   PO418420   9.734  29.381   9.640
 1175POPC   GL118421   9.717  29.403   9.206
 1175POPC   GL218422   9.935  29.137   9.111
 1175POPC   C1A18423   9.491  29.410   8.807
 1175POPC   D2A18424   9.747  29.362   8.450
 1175POPC   C3A18425   9.614  29.143   8.096
 1175POPC   C4A18426   9.427  29.309   7.763
 1175POPC   C1B18427  10.120  29.060   8.696
 1175POPC   C2B18428  10.110  29.053   8.237
 1175POPC   C3B18429  10.037  29.276   7.824
 1175POPC   C4B18430  10.142  29.274   7.368
 1176POPC   NC318431  43.799   6.141   9.727
 1176POPC   PO418432  43.660   6.785   9.528
 1176POPC   GL118433  44.007   6.681   9.302
 1176POPC   GL218434  44.074   6.990   9.168
 1176POPC   C1A18435  44.085   6.518   8.883
 1176POPC   D2A18436  44.031   6.672   8.452
 1176POPC   C3A18437  43.949   6.364   8.115
 1176POPC   C4A18438  44.211   6.310   7.731
 1176POPC   C1B18439  43.746   6.914   8.832
 1176POPC   C2B18440  43.516   6.699   8.466
 1176POPC   C3B18441  43.671   6.824   8.058
 1176POPC   C4B18442  43.884   6.680   7.689
 1177POPC   NC318443  16.150  23.271  10.119
 1177POPC   PO418444  16.102  22.965   9.644
 1177POPC   GL118445  16.023  22.945   9.163
 1177POPC   GL218446  15.756  23.180   9.065
 1177POPC   C1A18447  15.949  22.889   8.679
 1177POPC   D2A18448  15.950  23.120   8.244
 1177POPC   C3A18449  16.040  23.032   7.781
 1177POPC   C4A18450  16.429  22.819   7.577
 1177POPC   C1B18451  15.815  23.410   8.656
 1177POPC   C2B18452  15.768  23.619   8.239
 1177POPC   C3B18453  15.919  23.544   7.822
 1177POPC   C4B18454  15.947  23.354   7.388
 1178POPC   NC318455  33.379  41.996   9.535
 1178POPC   PO418456  33.070  42.640   9.527
 1178POPC   GL118457  33.169  42.356   9.171
 1178POPC   GL218458  33.477  42.211   9.092
 1178POPC   C1A18459  33.000  42.271   8.753
 1178POPC   D2A18460  32.799  42.512   8.407
 1178POPC   C3A18461  32.813  42.388   7.962
 1178POPC   C4A18462  32.753  42.571   7.552
 1178POPC   C1B18463  33.502  42.131   8.693
 1178POPC   C2B18464  33.504  42.257   8.286
 1178POPC   C3B18465  33.337  42.257   7.904
 1178POPC   C4B18466  33.113  41.924   7.772
 1179POPC   NC318467  39.561  14.183   9.629
 1179POPC   PO418468  40.109  14.627   9.574
 1179POPC   GL118469  40.113  14.357   9.218
 1179POPC   GL218470  39.762  14.353   9.146
 1179POPC   C1A18471  40.153  14.314   8.761
 1179POPC   D2A18472  39.920  14.246   8.352
 1179POPC   C3A18473  40.126  14.397   7.933
 1179POPC   C4A18474  40.314  14.166   7.574
 1179POPC   C1B18475  39.691  14.572   8.711
 1179POPC   C2B18476  39.598  14.623   8.231
 1179POPC   C3B18477  39.695  14.644   7.764
 1179POPC   C4B18478  39.660  14.862   7.328
 1180POPC   NC318479   5.476   1.076   9.200
 1180POPC   PO418480   4.811   1.120   9.408
 1180POPC   GL118481   5.023   1.322   9.058
 1180POPC   GL218482   4.778   1.622   8.968
 1180POPC   C1A18483   5.230   1.187   8.638
 1180POPC   D2A18484   5.201   0.869   8.317
 1180POPC   C3A18485   5.259   1.066   7.923
 1180POPC   C4A18486   5.182   1.139   7.501
 1180POPC   C1B18487   4.737   1.285   8.662
 1180POPC   C2B18488   4.806   1.222   8.239
 1180POPC   C3B18489   4.714   1.449   7.889
 1180POPC   C4B18490   4.738   1.430   7.460
 1181POPC   NC318491  39.779  11.142   9.550
 1181POPC   PO418492  40.149  11.786   9.535
 1181POPC   GL118493  40.183  11.409   9.263
 1181POPC   GL218494  39.855  11.391   9.136
 1181POPC   C1A18495  40.187  11.077   8.911
 1181POPC   D2A18496  39.954  10.776   8.630
 1181POPC   C3A18497  39.925  10.742   8.174
 1181POPC   C4A18498  39.956  11.004   7.797
 1181POPC   C1B18499  40.046  11.582   8.780
 1181POPC   C2B18500  39.839  11.680   8.406
 1181POPC   C3B18501  39.893  11.478   8.032
 1181POPC   C4B18502  39.703  11.649   7.700
 1182POPC   NC318503  39.125  44.940   9.450
 1182POPC   PO418504  38.950   0.508   9.737
 1182POPC   GL118505  39.115   0.540   9.256
 1182POPC   GL218506  39.146   0.234   9.019
 1182POPC   C1A18507  39.075   0.680   8.799
 1182POPC   D2A18508  39.263   0.443   8.462
 1182POPC   C3A18509  39.138   0.446   8.045
 1182POPC   C4A18510  38.995   0.794   7.798
 1182POPC   C1B18511  39.179  44.981   8.642
 1182POPC   C2B18512  39.584   0.043   8.460
 1182POPC   C3B18513  39.666   0.285   8.127
 1182POPC   C4B18514  39.484   0.134   7.746
 1183POPC   NC318515  34.319  42.602   9.466
 1183POPC   PO418516  34.595  41.975   9.529
 1183POPC   GL118517  34.688  42.199   9.144
 1183POPC   GL218518  34.412  42.424   9.004
 1183POPC   C1A18519  34.681  42.096   8.711
 1183POPC   D2A18520  34.409  42.330   8.432
 1183POPC   C3A18521  34.536  42.285   8.011
 1183POPC   C4A18522  34.302  42.105   7.689
 1183POPC   C1B18523  34.745  42.607   8.744
 1183POPC   C2B18524  34.813  42.633   8.320
 1183POPC   C3B18525  34.701  42.773   7.953
 1183POPC   C4B18526  34.516  42.630   7.608
 1184POPC   NC318527   1.195  11.845   9.641
 1184POPC   PO418528   1.454  12.296   9.286
 1184POPC   GL118529   1.402  11.912   9.144
 1184POPC   GL218530   1.054  11.790   9.145
 1184POPC   C1A18531   1.339  12.014   8.719
 1184POPC   D2A18532   1.183  12.201   8.398
 1184POPC   C3A18533   1.373  12.186   7.988
 1184POPC   C4A18534   1.208  12.395   7.626
 1184POPC   C1B18535   1.216  11.557   8.790
 1184POPC   C2B18536   1.141  11.663   8.409
 1184POPC   C3B18537   1.017  11.825   8.094
 1184POPC   C4B18538   1.137  11.823   7.707
 1185POPC   NC318539  38.940  41.358   9.426
 1185POPC   PO418540  39.574  41.568   9.557
 1185POPC   GL118541  39.367  41.482   9.190
 1185POPC   GL218542  39.128  41.757   9.169
 1185POPC   C1A18543  39.445  41.637   8.784
 1185POPC   D2A18544  39.347  41.848   8.437
 1185POPC   C3A18545  39.369  41.617   8.066
 1185POPC   C4A18546  39.295  41.425   7.699
 1185POPC   C1B18547  38.934  41.727   8.762
 1185POPC   C2B18548  38.998  41.471   8.401
 1185POPC   C3B18549  38.875  41.416   7.992
 1185POPC   C4B18550  38.890  41.094   7.696
 1186POPC   NC318551   2.223  15.901   9.620
 1186POPC   PO418552   1.581  15.662   9.648
 1186POPC   GL118553   1.838  15.815   9.292
 1186POPC   GL218554   1.806  16.188   9.242
 1186POPC   C1A18555   1.958  15.850   8.860
 1186POPC   D2A18556   2.028  15.735   8.455
 1186POPC   C3A18557   1.763  15.865   8.152
 1186POPC   C4A18558   1.933  15.801   7.754
 1186POPC   C1B18559   1.893  16.356   8.815
 1186POPC   C2B18560   2.052  16.263   8.390
 1186POPC   C3B18561   1.959  16.277   7.954
 1186POPC   C4B18562   1.618  16.186   7.736
 1187POPC   NC318563  30.265  37.851   9.408
 1187POPC   PO418564  29.891  37.349   9.306
 1187POPC   GL118565  29.860  37.720   9.040
 1187POPC   GL218566  30.097  37.956   8.936
 1187POPC   C1A18567  29.726  37.736   8.622
 1187POPC   D2A18568  29.938  37.797   8.232
 1187POPC   C3A18569  29.696  37.718   7.861
 1187POPC   C4A18570  29.801  37.508   7.458
 1187POPC   C1B18571  30.225  37.623   8.654
 1187POPC   C2B18572  30.293  37.410   8.275
 1187POPC   C3B18573  30.143  37.465   7.870
 1187POPC   C4B18574  30.134  37.890   7.678
 1188POPC   NC318575  11.603  34.144   9.615
 1188POPC   PO418576  11.055  33.789   9.602
 1188POPC   GL118577  11.359  33.849   9.241
 1188POPC   GL218578  11.475  33.524   9.081
 1188POPC   C1A18579  11.311  33.939   8.778
 1188POPC   D2A18580  11.027  33.771   8.431
 1188POPC   C3A18581  11.024  33.799   7.974
 1188POPC   C4A18582  11.176  34.134   7.713
 1188POPC   C1B18583  11.373  33.429   8.668
 1188POPC   C2B18584  11.555  33.693   8.370
 1188POPC   C3B18585  11.489  33.965   8.081
 1188POPC   C4B18586  11.451  33.719   7.705
 1189POPC   NC318587  27.760  41.066   9.527
 1189POPC   PO418588  27.520  40.442   9.707
 1189POPC   GL118589  27.587  40.663   9.263
 1189POPC   GL218590  27.320  40.918   9.242
 1189POPC   C1A18591  27.746  40.598   8.806
 1189POPC   D2A18592  27.646  40.538   8.346
 1189POPC   C3A18593  27.907  40.745   8.024
 1189POPC   C4A18594  27.813  40.929   7.608
 1189POPC   C1B18595  27.230  40.697   8.832
 1189POPC   C2B18596  27.260  40.898   8.401
 1189POPC   C3B18597  27.399  40.891   7.993
 1189POPC   C4B18598  27.341  40.707   7.612
 1190POPC   NC318599  36.665  20.050   9.579
 1190POPC   PO418600  36.909  19.434   9.551
 1190POPC   GL118601  36.890  19.734   9.228
 1190POPC   GL218602  37.206  19.832   9.240
 1190POPC   C1A18603  36.809  19.955   8.836
 1190POPC   D2A18604  36.519  19.943   8.461
 1190POPC   C3A18605  36.717  20.046   8.062
 1190POPC   C4A18606  36.727  19.864   7.643
 1190POPC   C1B18607  37.262  19.679   8.801
 1190POPC   C2B18608  37.045  19.784   8.396
 1190POPC   C3B18609  36.907  19.556   8.027
 1190POPC   C4B18610  37.166  19.587   7.636
 1191POPC   NC318611  20.874   3.603   9.522
 1191POPC   PO418612  20.244   3.205   9.553
 1191POPC   GL118613  20.376   3.468   9.191
 1191POPC   GL218614  20.424   3.790   9.242
 1191POPC   C1A18615  20.620   3.520   8.781
 1191POPC   D2A18616  20.607   3.289   8.383
 1191POPC   C3A18617  20.693   3.524   8.014
 1191POPC   C4A18618  20.813   3.418   7.608
 1191POPC   C1B18619  20.203   3.801   8.814
 1191POPC   C2B18620  20.399   3.890   8.413
 1191POPC   C3B18621  20.377   3.937   7.969
 1191POPC   C4B18622  20.267   3.611   7.669
 1192POPC   NC318623  13.153  35.799   9.751
 1192POPC   PO418624  12.665  35.367   9.541
 1192POPC   GL118625  12.896  35.248   9.186
 1192POPC   GL218626  12.585  35.180   9.034
 1192POPC   C1A18627  12.964  35.267   8.735
 1192POPC   D2A18628  12.734  35.147   8.365
 1192POPC   C3A18629  12.857  35.342   8.008
 1192POPC   C4A18630  13.126  35.517   7.728
 1192POPC   C1B18631  12.453  35.445   8.684
 1192POPC   C2B18632  12.491  35.628   8.266
 1192POPC   C3B18633  12.380  35.417   7.855
 1192POPC   C4B18634  12.636  35.544   7.536
 1193POPC   NC318635  27.782  26.642   9.421
 1193POPC   PO418636  27.410  27.104   9.460
 1193POPC   GL118637  27.503  26.918   9.058
 1193POPC   GL218638  27.756  26.693   8.929
 1193POPC   C1A18639  27.415  26.929   8.617
 1193POPC   D2A18640  27.074  26.865   8.377
 1193POPC   C3A18641  27.167  26.918   7.997
 1193POPC   C4A18642  27.435  26.722   7.740
 1193POPC   C1B18643  27.863  26.547   8.540
 1193POPC   C2B18644  27.768  26.788   8.189
 1193POPC   C3B18645  27.926  26.782   7.780
 1193POPC   C4B18646  27.940  26.957   7.356
 1194POPC   NC318647  13.432  30.999   9.493
 1194POPC   PO418648  13.808  30.394   9.560
 1194POPC   GL118649  13.578  30.567   9.270
 1194POPC   GL218650  13.776  30.844   9.148
 1194POPC   C1A18651  13.370  30.618   8.909
 1194POPC   D2A18652  13.475  30.604   8.482
 1194POPC   C3A18653  13.338  30.768   8.100
 1194POPC   C4A18654  13.473  30.688   7.684
 1194POPC   C1B18655  13.748  30.962   8.720
 1194POPC   C2B18656  13.789  30.966   8.262
 1194POPC   C3B18657  13.717  31.111   7.855
 1194POPC   C4B18658  13.773  31.028   7.399
 1195POPC   NC318659  21.607  28.002   9.380
 1195POPC   PO418660  21.217  28.533   9.561
 1195POPC   GL118661  21.055  28.517   9.163
 1195POPC   GL218662  20.863  28.797   9.217
 1195POPC   C1A18663  21.168  28.317   8.772
 1195POPC   D2A18664  21.578  28.309   8.568
 1195POPC   C3A18665  21.571  28.354   8.115
 1195POPC   C4A18666  21.462  28.152   7.714
 1195POPC   C1B18667  21.062  28.929   8.828
 1195POPC   C2B18668  21.166  28.721   8.454
 1195POPC   C3B18669  21.104  28.685   8.017
 1195POPC   C4B18670  21.449  28.661   7.718
 1196POPC   NC318671  24.519  42.169   9.488
 1196POPC   PO418672  24.630  42.889   9.241
 1196POPC   GL118673  24.645  42.464   9.109
 1196POPC   GL218674  24.323  42.311   9.038
 1196POPC   C1A18675  24.719  42.289   8.712
 1196POPC   D2A18676  24.510  42.596   8.447
 1196POPC   C3A18677  24.525  42.500   8.045
 1196POPC   C4A18678  24.719  42.105   7.918
 1196POPC   C1B18679  24.094  42.391   8.674
 1196POPC   C2B18680  24.147  42.222   8.277
 1196POPC   C3B18681  24.047  42.422   7.906
 1196POPC   C4B18682  24.273  42.257   7.644
 1197POPC   NC318683  34.190  31.560   9.419
 1197POPC   PO418684  34.873  31.777   9.403
 1197POPC   GL118685  34.598  31.503   9.133
 1197POPC   GL218686  34.277  31.262   9.054
 1197POPC   C1A18687  34.525  31.543   8.718
 1197POPC   D2A18688  34.604  31.774   8.403
 1197POPC   C3A18689  34.383  31.615   8.081
 1197POPC   C4A18690  34.508  31.448   7.732
 1197POPC   C1B18691  34.368  31.074   8.711
 1197POPC   C2B18692  34.579  31.196   8.333
 1197POPC   C3B18693  34.396  31.009   7.960
 1197POPC   C4B18694  34.460  30.963   7.528
 1198POPC   NC318695  19.246  32.179   9.588
 1198POPC   PO418696  18.622  32.063   9.436
 1198POPC   GL118697  18.926  32.240   9.083
 1198POPC   GL218698  19.303  32.276   9.108
 1198POPC   C1A18699  19.117  32.573   8.772
 1198POPC   D2A18700  19.335  32.520   8.362
 1198POPC   C3A18701  19.017  32.434   8.060
 1198POPC   C4A18702  18.944  32.057   7.785
 1198POPC   C1B18703  19.436  32.138   8.717
 1198POPC   C2B18704  19.666  32.092   8.368
 1198POPC   C3B18705  19.373  32.066   8.077
 1198POPC   C4B18706  19.469  31.950   7.681
 1199POPC   NC318707  39.558  30.642   9.462
 1199POPC   PO418708  40.311  30.682   9.565
 1199POPC   GL118709  40.028  30.596   9.266
 1199POPC   GL218710  39.931  30.920   9.223
 1199POPC   C1A18711  40.036  30.402   8.895
 1199POPC   D2A18712  40.013  30.587   8.495
 1199POPC   C3A18713  39.922  30.421   8.133
 1199POPC   C4A18714  39.995  30.520   7.742
 1199POPC   C1B18715  39.842  30.949   8.804
 1199POPC   C2B18716  39.627  30.924   8.398
 1199POPC   C3B18717  39.854  30.960   8.005
 1199POPC   C4B18718  39.769  30.935   7.557
 1200POPC   NC318719  39.558  33.630   9.585
 1200POPC   PO418720  39.258  34.211   9.491
 1200POPC   GL118721  39.068  34.000   9.149
 1200POPC   GL218722  39.211  33.714   9.189
 1200POPC   C1A18723  38.909  33.873   8.716
 1200POPC   D2A18724  38.714  33.709   8.325
 1200POPC   C3A18725  38.927  33.977   8.027
 1200POPC   C4A18726  39.381  33.987   7.929
 1200POPC   C1B18727  39.332  33.583   8.764
 1200POPC   C2B18728  39.237  33.658   8.308
 1200POPC   C3B18729  39.127  33.505   7.869
 1200POPC   C4B18730  38.940  33.423   7.410
 1201POPC   NC318731  38.863  14.611   9.532
 1201POPC   PO418732  38.284  14.163   9.686
 1201POPC   GL118733  38.438  14.398   9.317
 1201POPC   GL218734  38.750  14.273   9.152
 1201POPC   C1A18735  38.445  14.602   8.924
 1201POPC   D2A18736  38.334  14.458   8.515
 1201POPC   C3A18737  38.595  14.485   8.159
 1201POPC   C4A18738  38.449  14.420   7.753
 1201POPC   C1B18739  38.706  14.201   8.748
 1201POPC   C2B18740  38.873  14.113   8.386
 1201POPC   C3B18741  38.821  13.973   8.011
 1201POPC   C4B18742  38.919  14.230   7.689
 1202POPC   NC318743   5.694  43.287   9.435
 1202POPC   PO418744   6.059  42.712   9.484
 1202POPC   GL118745   5.830  42.869   9.117
 1202POPC   GL218746   5.814  43.152   8.974
 1202POPC   C1A18747   5.753  42.758   8.659
 1202POPC   D2A18748   5.948  42.844   8.263
 1202POPC   C3A18749   5.694  43.122   8.011
 1202POPC   C4A18750   5.516  43.024   7.585
 1202POPC   C1B18751   5.827  43.321   8.590
 1202POPC   C2B18752   6.084  43.533   8.336
 1202POPC   C3B18753   6.117  43.417   7.921
 1202POPC   C4B18754   6.003  43.194   7.543
 1203POPC   NC318755  21.782  15.757   9.519
 1203POPC   PO418756  22.445  15.664   9.462
 1203POPC   GL118757  22.311  16.021   9.199
 1203POPC   GL218758  21.966  16.184   9.250
 1203POPC   C1A18759  22.250  16.112   8.770
 1203POPC   D2A18760  22.335  15.951   8.349
 1203POPC   C3A18761  22.299  16.133   7.953
 1203POPC   C4A18762  22.577  15.854   7.740
 1203POPC   C1B18763  21.759  15.976   8.889
 1203POPC   C2B18764  21.832  15.905   8.458
 1203POPC   C3B18765  21.825  15.880   8.014
 1203POPC   C4B18766  21.684  16.025   7.619
 1204POPC   NC318767  37.238  22.779   9.278
 1204POPC   PO418768  37.800  22.680   9.609
 1204POPC   GL118769  37.784  22.957   9.236
 1204POPC   GL218770  37.570  23.280   9.198
 1204POPC   C1A18771  37.871  23.081   8.819
 1204POPC   D2A18772  37.724  22.979   8.405
 1204POPC   C3A18773  37.903  22.716   8.109
 1204POPC   C4A18774  37.874  22.855   7.657
 1204POPC   C1B18775  37.373  23.226   8.769
 1204POPC   C2B18776  37.457  23.417   8.370
 1204POPC   C3B18777  37.469  23.257   7.967
 1204POPC   C4B18778  37.388  23.088   7.542
 1205POPC   NC318779  14.908  42.948   9.553
 1205POPC   PO418780  15.398  43.221   9.728
 1205POPC   GL118781  15.334  43.164   9.258
 1205POPC   GL218782  14.980  43.150   9.099
 1205POPC   C1A18783  15.511  43.004   8.831
 1205POPC   D2A18784  15.443  42.767   8.425
 1205POPC   C3A18785  15.466  42.924   7.981
 1205POPC   C4A18786  15.370  43.135   7.560
 1205POPC   C1B18787  15.014  43.026   8.671
 1205POPC   C2B18788  15.149  43.183   8.300
 1205POPC   C3B18789  15.002  43.181   7.906
 1205POPC   C4B18790  14.897  42.913   7.556
 1206POPC   NC318791  16.297   0.715   9.356
 1206POPC   PO418792  15.851   0.361   9.665
 1206POPC   GL118793  15.833   0.438   9.215
 1206POPC   GL218794  16.126   0.335   9.029
 1206POPC   C1A18795  15.764   0.568   8.745
 1206POPC   D2A18796  15.999   0.345   8.408
 1206POPC   C3A18797  16.029   0.501   7.971
 1206POPC   C4A18798  15.924   0.730   7.608
 1206POPC   C1B18799  16.262   0.712   8.725
 1206POPC   C2B18800  16.075   0.860   8.367
 1206POPC   C3B18801  16.212   0.982   7.971
 1206POPC   C4B18802  16.428   0.688   7.711
 1207POPC   NC318803  24.030  17.144   9.361
 1207POPC   PO418804  23.559  17.658   9.440
 1207POPC   GL118805  23.721  17.714   9.045
 1207POPC   GL218806  23.791  17.387   8.954
 1207POPC   C1A18807  23.635  17.747   8.604
 1207POPC   D2A18808  23.653  17.918   8.201
 1207POPC   C3A18809  23.541  17.618   7.844
 1207POPC   C4A18810  23.394  17.181   7.785
 1207POPC   C1B18811  23.980  17.198   8.569
 1207POPC   C2B18812  23.889  17.160   8.090
 1207POPC   C3B18813  23.887  17.145   7.618
 1207POPC   C4B18814  24.025  17.117   7.168
 1208POPC   NC318815   0.710   6.453   9.423
 1208POPC   PO418816   0.092   6.836   9.377
 1208POPC   GL118817   0.365   6.650   9.094
 1208POPC   GL218818   0.731   6.715   8.973
 1208POPC   C1A18819   0.256   6.637   8.701
 1208POPC   D2A18820   0.512   6.728   8.383
 1208POPC   C3A18821   0.295   6.577   8.050
 1208POPC   C4A18822   0.004   6.475   7.759
 1208POPC   C1B18823   0.666   6.350   8.748
 1208POPC   C2B18824   0.423   6.193   8.404
 1208POPC   C3B18825   0.461   6.104   7.975
 1208POPC   C4B18826   0.511   6.371   7.644
 1209POPC   NC318827  44.470   1.538   9.733
 1209POPC   PO418828  44.830   2.036   9.516
 1209POPC   GL118829  44.744   1.964   9.102
 1209POPC   GL218830  44.536   2.209   8.969
 1209POPC   C1A18831  44.846   1.888   8.683
 1209POPC   D2A18832  44.967   1.753   8.284
 1209POPC   C3A18833  44.936   2.023   7.934
 1209POPC   C4A18834  44.792   1.887   7.489
 1209POPC   C1B18835  44.290   1.999   8.694
 1209POPC   C2B18836  44.526   2.104   8.350
 1209POPC   C3B18837  44.581   2.354   8.047
 1209POPC   C4B18838  44.490   2.217   7.697
 1210POPC   NC318839  35.589  28.488   9.527
 1210POPC   PO418840  34.960  28.314   9.587
 1210POPC   GL118841  35.265  28.229   9.222
 1210POPC   GL218842  35.351  28.557   9.080
 1210POPC   C1A18843  35.202  28.045   8.803
 1210POPC   D2A18844  35.061  28.193   8.391
 1210POPC   C3A18845  35.307  28.399   8.086
 1210POPC   C4A18846  35.139  28.456   7.671
 1210POPC   C1B18847  35.358  28.508   8.651
 1210POPC   C2B18848  35.603  28.761   8.366
 1210POPC   C3B18849  35.719  28.926   7.974
 1210POPC   C4B18850  35.573  28.760   7.585
 1211POPC   NC318851  16.611  18.014   9.650
 1211POPC   PO418852  16.802  17.360   9.637
 1211POPC   GL118853  16.779  17.407   9.226
 1211POPC   GL218854  16.508  17.607   9.241
 1211POPC   C1A18855  16.938  17.564   8.847
 1211POPC   D2A18856  17.071  17.366   8.481
 1211POPC   C3A18857  16.994  17.540   8.082
 1211POPC   C4A18858  17.004  17.433   7.634
 1211POPC   C1B18859  16.433  17.392   8.832
 1211POPC   C2B18860  16.581  17.356   8.400
 1211POPC   C3B18861  16.398  17.410   7.964
 1211POPC   C4B18862  16.193  17.604   7.589
 1212POPC   NC318863  38.404  42.329   9.544
 1212POPC   PO418864  38.735  41.746   9.590
 1212POPC   GL118865  38.755  42.113   9.212
 1212POPC   GL218866  38.615  42.482   9.140
 1212POPC   C1A18867  38.524  42.136   8.788
 1212POPC   D2A18868  38.283  42.142   8.376
 1212POPC   C3A18869  38.563  42.205   8.063
 1212POPC   C4A18870  38.626  42.508   7.747
 1212POPC   C1B18871  38.296  42.591   8.864
 1212POPC   C2B18872  38.447  42.614   8.457
 1212POPC   C3B18873  38.260  42.623   8.072
 1212POPC   C4B18874  38.090  42.710   7.651
 1213POPC   NC318875   8.795  11.650   9.577
 1213POPC   PO418876   8.853  12.255   9.576
 1213POPC   GL118877   8.920  12.030   9.220
 1213POPC   GL218878   8.628  11.853   9.123
 1213POPC   C1A18879   9.003  12.116   8.799
 1213POPC   D2A18880   9.286  12.144   8.439
 1213POPC   C3A18881   9.051  12.012   8.095
 1213POPC   C4A18882   9.028  12.008   7.634
 1213POPC   C1B18883   8.461  11.931   8.707
 1213POPC   C2B18884   8.589  12.159   8.340
 1213POPC   C3B18885   8.618  12.162   7.904
 1213POPC   C4B18886   8.590  11.783   7.660
 1214POPC   NC318887  44.383  10.981   9.458
 1214POPC   PO418888  44.963  11.146   9.352
 1214POPC   GL118889  44.907  11.554   9.129
 1214POPC   GL218890  44.556  11.662   9.020
 1214POPC   C1A18891  44.864  11.418   8.700
 1214POPC   D2A18892  44.669  11.182   8.372
 1214POPC   C3A18893  44.828  11.223   7.949
 1214POPC   C4A18894   0.066  11.053   7.621
 1214POPC   C1B18895  44.397  11.594   8.575
 1214POPC   C2B18896  44.497  11.603   8.112
 1214POPC   C3B18897  44.360  11.369   7.760
 1214POPC   C4B18898  44.247  11.345   7.297
 1215POPC   NC318899  10.927  12.698   9.469
 1215POPC   PO418900  10.403  13.213   9.694
 1215POPC   GL118901  10.498  13.018   9.274
 1215POPC   GL218902  10.838  13.021   9.097
 1215POPC   C1A18903  10.312  12.874   8.884
 1215POPC   D2A18904  10.352  12.612   8.523
 1215POPC   C3A18905  10.201  12.782   8.159
 1215POPC   C4A18906  10.283  12.802   7.744
 1215POPC   C1B18907  10.772  12.899   8.697
 1215POPC   C2B18908  10.597  13.041   8.350
 1215POPC   C3B18909  10.737  12.863   7.992
 1215POPC   C4B18910  10.811  12.943   7.576
 1216POPC   NC318911  13.124  17.448   9.567
 1216POPC   PO418912  12.633  17.833   9.426
 1216POPC   GL118913  12.803  17.531   9.172
 1216POPC   GL218914  12.501  17.533   8.991
 1216POPC   C1A18915  12.969  17.535   8.773
 1216POPC   D2A18916  12.873  17.681   8.390
 1216POPC   C3A18917  13.135  17.453   8.124
 1216POPC   C4A18918  13.200  17.497   7.708
 1216POPC   C1B18919  12.264  17.252   8.765
 1216POPC   C2B18920  12.358  17.189   8.350
 1216POPC   C3B18921  12.586  17.396   8.050
 1216POPC   C4B18922  12.738  17.298   7.656
 1217POPC   NC318923  12.403  17.408   9.477
 1217POPC   PO418924  11.846  17.796   9.709
 1217POPC   GL118925  12.068  17.748   9.292
 1217POPC   GL218926  11.937  17.450   9.113
 1217POPC   C1A18927  12.119  17.855   8.843
 1217POPC   D2A18928  12.348  17.748   8.453
 1217POPC   C3A18929  12.073  17.586   8.130
 1217POPC   C4A18930  11.792  17.532   7.788
 1217POPC   C1B18931  11.764  17.148   8.786
 1217POPC   C2B18932  11.878  16.991   8.369
 1217POPC   C3B18933  12.002  17.089   7.935
 1217POPC   C4B18934  12.194  17.257   7.537
 1218POPC   NC318935  26.239  31.025   9.863
 1218POPC   PO418936  26.209  31.655   9.546
 1218POPC   GL118937  25.982  31.511   9.196
 1218POPC   GL218938  25.817  31.182   9.305
 1218POPC   C1A18939  26.154  31.486   8.771
 1218POPC   D2A18940  26.323  31.590   8.365
 1218POPC   C3A18941  26.358  31.357   7.974
 1218POPC   C4A18942  26.332  31.496   7.500
 1218POPC   C1B18943  25.804  31.135   8.846
 1218POPC   C2B18944  25.932  31.224   8.414
 1218POPC   C3B18945  25.906  31.111   8.026
 1218POPC   C4B18946  25.837  31.045   7.617
 1219POPC   NC318947  29.231  11.969   9.468
 1219POPC   PO418948  28.655  12.006   9.432
 1219POPC   GL118949  28.961  11.864   9.049
 1219POPC   GL218950  29.381  11.831   9.021
 1219POPC   C1A18951  29.108  11.708   8.633
 1219POPC   D2A18952  28.950  11.800   8.255
 1219POPC   C3A18953  29.276  11.906   7.990
 1219POPC   C4A18954  29.235  12.017   7.554
 1219POPC   C1B18955  29.423  12.117   8.671
 1219POPC   C2B18956  29.178  12.283   8.320
 1219POPC   C3B18957  29.268  12.404   7.881
 1219POPC   C4B18958  29.665  12.313   7.619
 1220POPC   NC318959  24.791  30.657   9.451
 1220POPC   PO418960  24.217  30.703   9.657
 1220POPC   GL118961  24.372  30.785   9.197
 1220POPC   GL218962  24.672  31.025   9.123
 1220POPC   C1A18963  24.505  30.648   8.770
 1220POPC   D2A18964  24.540  30.518   8.330
 1220POPC   C3A18965  24.291  30.365   8.006
 1220POPC   C4A18966  24.531  30.465   7.636
 1220POPC   C1B18967  24.883  31.011   8.738
 1220POPC   C2B18968  24.724  31.033   8.301
 1220POPC   C3B18969  24.766  30.867   7.859
 1220POPC   C4B18970  24.957  30.872   7.424
 1221POPC   NC318971  19.226  43.561   9.511
 1221POPC   PO418972  18.926  42.937   9.547
 1221POPC   GL118973  19.208  43.115   9.239
 1221POPC   GL218974  18.972  43.341   9.110
 1221POPC   C1A18975  19.244  43.069   8.781
 1221POPC   D2A18976  19.361  43.006   8.366
 1221POPC   C3A18977  19.127  42.836   8.041
 1221POPC   C4A18978  19.401  42.891   7.722
 1221POPC   C1B18979  18.744  43.226   8.758
 1221POPC   C2B18980  18.811  42.975   8.412
 1221POPC   C3B18981  18.772  43.202   8.009
 1221POPC   C4B18982  18.855  43.587   7.774
 1222POPC   NC318983  39.294  28.213   9.687
 1222POPC   PO418984  38.815  28.651   9.480
 1222POPC   GL118985  39.073  28.335   9.201
 1222POPC   GL218986  39.407  28.259   9.206
 1222POPC   C1A18987  39.122  28.159   8.765
 1222POPC   D2A18988  39.070  27.991   8.343
 1222POPC   C3A18989  39.138  28.286   8.035
 1222POPC   C4A18990  38.987  28.158   7.650
 1222POPC   C1B18991  39.507  28.516   8.849
 1222POPC   C2B18992  39.425  28.615   8.429
 1222POPC   C3B18993  39.607  28.520   8.029
 1222POPC   C4B18994  39.528  28.298   7.643
 1223POPC   NC318995  43.811   3.815   9.887
 1223POPC   PO418996  44.139   4.321   9.511
 1223POPC   GL118997  43.974   4.416   9.147
 1223POPC   GL218998  43.642   4.252   9.194
 1223POPC   C1A18999  43.895   4.234   8.740
 1223POPC   D2A19000  43.858   4.152   8.327
 1223POPC   C3A19001  43.976   4.366   7.963
 1223POPC   C4A19002  43.805   4.109   7.622
 1223POPC   C1B19003  43.551   4.592   8.913
 1223POPC   C2B19004  43.624   4.613   8.495
 1223POPC   C3B19005  43.511   4.491   8.126
 1223POPC   C4B19006  43.594   4.611   7.734
 1224POPC   NC319007  32.675   3.176   9.736
 1224POPC   PO419008  32.201   3.602   9.552
 1224POPC   GL119009  32.191   3.553   9.154
 1224POPC   GL219010  32.158   3.888   9.095
 1224POPC   C1A19011  32.455   3.459   8.771
 1224POPC   D2A19012  32.524   3.246   8.361
 1224POPC   C3A19013  32.437   3.374   7.928
 1224POPC   C4A19014  32.722   3.364   7.537
 1224POPC   C1B19015  31.991   3.667   8.720
 1224POPC   C2B19016  32.031   3.475   8.322
 1224POPC   C3B19017  32.005   3.672   7.922
 1224POPC   C4B19018  32.151   3.895   7.561
 1225POPC   NC319019  13.157  35.810   9.214
 1225POPC   PO419020  12.691  36.240   9.471
 1225POPC   GL119021  12.767  36.091   9.051
 1225POPC   GL219022  12.681  35.713   9.068
 1225POPC   C1A19023  13.041  36.280   8.718
 1225POPC   D2A19024  13.232  36.459   8.330
 1225POPC   C3A19025  13.039  36.390   7.937
 1225POPC   C4A19026  12.989  36.511   7.508
 1225POPC   C1B19027  12.864  35.769   8.638
 1225POPC   C2B19028  13.098  35.953   8.308
 1225POPC   C3B19029  12.863  35.881   7.972
 1225POPC   C4B19030  12.831  36.012   7.568
 1226POPC   NC319031  10.851  34.189   9.672
 1226POPC   PO419032  10.411  34.720   9.507
 1226POPC   GL119033  10.278  34.593   9.082
 1226POPC   GL219034  10.438  34.275   8.884
 1226POPC   C1A19035  10.376  34.728   8.653
 1226POPC   D2A19036  10.620  34.566   8.311
 1226POPC   C3A19037  10.712  34.825   7.956
 1226POPC   C4A19038  10.333  34.696   7.772
 1226POPC   C1B19039  10.835  34.195   8.656
 1226POPC   C2B19040  10.998  34.241   8.223
 1226POPC   C3B19041  10.732  34.323   7.844
 1226POPC   C4B19042  10.780  34.151   7.381
 1227POPC   NC319043   7.642  23.102   9.343
 1227POPC   PO419044   7.301  22.568   9.278
 1227POPC   GL119045   7.431  22.792   8.982
 1227POPC   GL219046   7.229  23.062   9.036
 1227POPC   C1A19047   7.509  22.778   8.568
 1227POPC   D2A19048   7.274  22.827   8.261
 1227POPC   C3A19049   7.490  22.960   7.936
 1227POPC   C4A19050   7.661  22.795   7.551
 1227POPC   C1B19051   7.475  23.256   8.705
 1227POPC   C2B19052   7.329  23.359   8.285
 1227POPC   C3B19053   7.091  23.250   7.911
 1227POPC   C4B19054   7.201  23.048   7.507
 1228POPC   NC319055  38.175  39.429   9.275
 1228POPC   PO419056  37.551  39.483   9.328
 1228POPC   GL119057  37.777  39.227   9.028
 1228POPC   GL219058  37.563  38.993   8.963
 1228POPC   C1A19059  38.034  39.001   8.734
 1228POPC   D2A19060  38.178  39.228   8.396
 1228POPC   C3A19061  37.852  39.291   8.100
 1228POPC   C4A19062  37.838  39.485   7.683
 1228POPC   C1B19063  37.248  39.065   8.693
 1228POPC   C2B19064  37.140  39.277   8.314
 1228POPC   C3B19065  37.389  39.397   7.935
 1228POPC   C4B19066  37.617  39.033   7.686
 1229POPC   NC319067   1.623  37.981   9.526
 1229POPC   PO419068   0.998  37.619   9.490
 1229POPC   GL119069   1.254  37.693   9.134
 1229POPC   GL219070   1.365  38.026   9.106
 1229POPC   C1A19071   1.176  37.752   8.693
 1229POPC   D2A19072   1.044  37.942   8.316
 1229POPC   C3A19073   0.966  37.660   7.978
 1229POPC   C4A19074   1.228  37.478   7.675
 1229POPC   C1B19075   1.651  37.963   8.759
 1229POPC   C2B19076   1.570  37.798   8.368
 1229POPC   C3B19077   1.435  37.912   7.949
 1229POPC   C4B19078   1.553  37.826   7.520
 1230POPC   NC319079  27.043  44.606   9.394
 1230POPC   PO419080  27.621  44.651   9.643
 1230POPC   GL119081  27.551  44.786   9.234
 1230POPC   GL219082  27.791  44.589   9.050
 1230POPC   C1A19083  27.405  44.878   8.814
 1230POPC   D2A19084  27.581  44.834   8.401
 1230POPC   C3A19085  27.368  44.832   7.996
 1230POPC   C4A19086  27.400   0.136   7.671
 1230POPC   C1B19087  27.575  44.379   8.712
 1230POPC   C2B19088  27.506  44.347   8.254
 1230POPC   C3B19089  27.786  44.554   7.954
 1230POPC   C4B19090  27.771  44.708   7.526
 1231POPC   NC319091  43.556  40.818   9.588
 1231POPC   PO419092  42.882  40.746   9.554
 1231POPC   GL119093  43.175  40.715   9.203
 1231POPC   GL219094  43.366  40.396   9.200
 1231POPC   C1A19095  43.206  40.921   8.794
 1231POPC   D2A19096  43.436  41.100   8.433
 1231POPC   C3A19097  43.248  40.960   8.047
 1231POPC   C4A19098  42.996  40.835   7.701
 1231POPC   C1B19099  43.150  40.401   8.776
 1231POPC   C2B19100  43.096  40.607   8.387
 1231POPC   C3B19101  43.247  40.432   7.994
 1231POPC   C4B19102  43.410  40.207   7.638
 1232POPC   NC319103  38.590  31.989   9.285
 1232POPC   PO419104  38.916  32.563   9.464
 1232POPC   GL119105  38.617  32.490   9.131
 1232POPC   GL219106  38.889  32.474   8.949
 1232POPC   C1A19107  38.238  32.482   8.845
 1232POPC   D2A19108  38.161  32.518   8.382
 1232POPC   C3A19109  38.414  32.275   8.091
 1232POPC   C4A19110  38.565  31.917   7.863
 1232POPC   C1B19111  38.646  32.264   8.610
 1232POPC   C2B19112  38.832  32.021   8.291
 1232POPC   C3B19113  38.981  32.336   8.084
 1232POPC   C4B19114  38.788  32.531   7.805
 1233POPC   NC319115  21.062  18.325   9.513
 1233POPC   PO419116  20.342  18.539   9.456
 1233POPC   GL119117  20.454  18.318   9.100
 1233POPC   GL219118  20.734  18.107   9.177
 1233POPC   C1A19119  20.707  18.453   8.759
 1233POPC   D2A19120  20.869  18.418   8.329
 1233POPC   C3A19121  20.560  18.347   7.998
 1233POPC   C4A19122  20.275  18.563   7.698
 1233POPC   C1B19123  20.911  17.994   8.799
 1233POPC   C2B19124  20.950  17.908   8.341
 1233POPC   C3B19125  21.038  18.095   7.936
 1233POPC   C4B19126  20.803  18.217   7.558
 1234POPC   NC319127  10.385  19.465   9.812
 1234POPC   PO419128  10.785  19.912   9.466
 1234POPC   GL119129  10.493  19.831   9.122
 1234POPC   GL219130  10.609  20.097   8.931
 1234POPC   C1A19131  10.567  19.608   8.727
 1234POPC   D2A19132  10.619  19.848   8.340
 1234POPC   C3A19133  10.680  19.573   7.998
 1234POPC   C4A19134  10.335  19.400   7.764
 1234POPC   C1B19135  10.233  19.991   8.689
 1234POPC   C2B19136  10.047  19.920   8.263
 1234POPC   C3B19137  10.324  19.943   7.886
 1234POPC   C4B19138  10.730  20.083   7.889
 1235POPC   NC319139   2.100   7.626   9.377
 1235POPC   PO419140   1.790   6.961   9.324
 1235POPC   GL119141   1.767   7.356   9.088
 1235POPC   GL219142   2.122   7.401   8.936
 1235POPC   C1A19143   1.739   7.702   8.780
 1235POPC   D2A19144   2.034   7.746   8.428
 1235POPC   C3A19145   1.847   7.524   8.079
 1235POPC   C4A19146   1.849   7.336   7.681
 1235POPC   C1B19147   1.917   7.232   8.600
 1235POPC   C2B19148   2.182   7.173   8.283
 1235POPC   C3B19149   2.300   7.311   7.902
 1235POPC   C4B19150   2.242   7.027   7.556
 1236POPC   NC319151  30.622  19.377   9.259
 1236POPC   PO419152  30.992  18.857   9.444
 1236POPC   GL119153  30.849  18.969   9.082
 1236POPC   GL219154  30.481  18.882   9.142
 1236POPC   C1A19155  31.042  19.129   8.725
 1236POPC   D2A19156  30.805  19.082   8.356
 1236POPC   C3A19157  31.000  19.129   7.973
 1236POPC   C4A19158  30.778  19.297   7.636
 1236POPC   C1B19159  30.366  18.710   8.744
 1236POPC   C2B19160  30.334  18.696   8.274
 1236POPC   C3B19161  30.475  18.971   7.925
 1236POPC   C4B19162  30.506  18.922   7.452
 1237POPC   NC319163  43.745  31.656   9.478
 1237POPC   PO419164  43.682  31.018   9.455
 1237POPC   GL119165  43.637  31.299   9.119
 1237POPC   GL219166  44.002  31.388   9.131
 1237POPC   C1A19167  43.654  31.505   8.710
 1237POPC   D2A19168  43.740  31.274   8.328
 1237POPC   C3A19169  43.865  31.513   7.945
 1237POPC   C4A19170  43.784  31.666   7.531
 1237POPC   C1B19171  44.126  31.330   8.732
 1237POPC   C2B19172  44.180  31.547   8.356
 1237POPC   C3B19173  44.367  31.397   7.971
 1237POPC   C4B19174  44.161  31.323   7.556
 1238POPC   NC319175  23.973  23.135   9.723
 1238POPC   PO419176  23.752  22.570   9.516
 1238POPC   GL119177  23.736  22.971   9.284
 1238POPC   GL219178  24.010  23.224   9.180
 1238POPC   C1A19179  23.683  22.981   8.859
 1238POPC   D2A19180  23.723  23.083   8.454
 1238POPC   C3A19181  23.592  22.808   8.141
 1238POPC   C4A19182  23.654  22.871   7.740
 1238POPC   C1B19183  24.164  23.167   8.742
 1238POPC   C2B19184  24.114  23.353   8.322
 1238POPC   C3B19185  23.867  23.289   7.948
 1238POPC   C4B19186  23.997  23.151   7.498
 1239POPC   NC319187   0.702  36.403   9.507
 1239POPC   PO419188   0.539  35.887   9.421
 1239POPC   GL119189   0.604  36.173   9.065
 1239POPC   GL219190   0.374  36.444   9.108
 1239POPC   C1A19191   0.638  36.148   8.635
 1239POPC   D2A19192   0.385  36.001   8.310
 1239POPC   C3A19193   0.570  35.996   7.915
 1239POPC   C4A19194   0.393  35.804   7.550
 1239POPC   C1B19195   0.106  36.454   8.740
 1239POPC   C2B19196  44.961  36.641   8.358
 1239POPC   C3B19197   0.056  36.482   7.926
 1239POPC   C4B19198   0.368  36.347   7.611
 1240POPC   NC319199  11.190  29.497   9.609
 1240POPC   PO419200  11.546  30.136   9.551
 1240POPC   GL119201  11.331  30.086   9.175
 1240POPC   GL219202  11.104  29.814   9.231
 1240POPC   C1A19203  11.195  30.045   8.767
 1240POPC   D2A19204  11.000  30.205   8.450
 1240POPC   C3A19205  11.170  30.080   8.065
 1240POPC   C4A19206  11.025  30.156   7.656
 1240POPC   C1B19207  11.286  29.561   8.893
 1240POPC   C2B19208  11.368  29.403   8.500
 1240POPC   C3B19209  11.281  29.572   8.099
 1240POPC   C4B19210  11.505  29.570   7.712
 1241POPC   NC319211  16.872  18.788   9.624
 1241POPC   PO419212  16.749  19.307   9.710
 1241POPC   GL119213  16.820  19.142   9.252
 1241POPC   GL219214  16.508  18.974   9.208
 1241POPC   C1A19215  16.931  18.854   8.864
 1241POPC   D2A19216  17.136  18.763   8.436
 1241POPC   C3A19217  17.001  18.820   7.981
 1241POPC   C4A19218  17.087  18.957   7.542
 1241POPC   C1B19219  16.555  19.172   8.762
 1241POPC   C2B19220  16.750  19.112   8.321
 1241POPC   C3B19221  16.898  19.317   7.917
 1241POPC   C4B19222  16.733  19.354   7.497
 1242POPC   NC319223   0.838  22.194   9.389
 1242POPC   PO419224   1.515  22.440   9.445
 1242POPC   GL119225   1.441  22.267   9.091
 1242POPC   GL219226   1.253  22.002   9.148
 1242POPC   C1A19227   1.290  22.182   8.677
 1242POPC   D2A19228   1.468  22.002   8.361
 1242POPC   C3A19229   1.361  22.188   8.029
 1242POPC   C4A19230   1.522  22.145   7.672
 1242POPC   C1B19231   0.917  21.864   8.811
 1242POPC   C2B19232   0.851  21.697   8.396
 1242POPC   C3B19233   0.991  21.785   7.967
 1242POPC   C4B19234   0.993  22.156   7.694
 1243POPC   NC319235  11.541  24.009   9.834
 1243POPC   PO419236  11.964  23.582   9.497
 1243POPC   GL119237  12.098  23.736   9.148
 1243POPC   GL219238  12.397  23.685   9.168
 1243POPC   C1A19239  11.939  23.820   8.752
 1243POPC   D2A19240  11.928  23.560   8.408
 1243POPC   C3A19241  12.033  23.733   8.029
 1243POPC   C4A19242  11.800  23.866   7.696
 1243POPC   C1B19243  12.403  23.574   8.728
 1243POPC   C2B19244  12.423  23.462   8.286
 1243POPC   C3B19245  12.477  23.512   7.868
 1243POPC   C4B19246  12.217  23.664   7.526
 1244POPC   NC319247  44.138  16.745   9.610
 1244POPC   PO419248  43.592  16.916   9.244
 1244POPC   GL119249  43.961  16.786   9.111
 1244POPC   GL219250  44.030  16.439   9.184
 1244POPC   C1A19251  43.954  16.746   8.682
 1244POPC   D2A19252  43.741  16.570   8.318
 1244POPC   C3A19253  43.787  16.770   7.939
 1244POPC   C4A19254  43.525  16.673   7.594
 1244POPC   C1B19255  44.192  16.308   8.772
 1244POPC   C2B19256  44.244  16.487   8.368
 1244POPC   C3B19257  44.144  16.338   7.979
 1244POPC   C4B19258  44.235  16.650   7.724
 1245POPC   NC319259   6.661  15.816   9.638
 1245POPC   PO419260   7.263  16.106   9.551
 1245POPC   GL119261   7.212  15.789   9.220
 1245POPC   GL219262   7.507  15.626   9.074
 1245POPC   C1A19263   7.129  15.795   8.774
 1245POPC   D2A19264   7.270  16.017   8.426
 1245POPC   C3A19265   7.458  15.791   8.126
 1245POPC   C4A19266   7.380  15.856   7.704
 1245POPC   C1B19267   7.653  15.809   8.690
 1245POPC   C2B19268   7.767  16.153   8.386
 1245POPC   C3B19269   7.738  16.205   7.924
 1245POPC   C4B19270   7.805  16.095   7.474
 1246POPC   NC319271   6.538   6.172   9.424
 1246POPC   PO419272   6.786   5.492   9.600
 1246POPC   GL119273   6.741   5.721   9.227
 1246POPC   GL219274   6.859   5.444   9.056
 1246POPC   C1A19275   6.788   5.960   8.823
 1246POPC   D2A19276   6.799   6.048   8.366
 1246POPC   C3A19277   6.488   6.044   8.016
 1246POPC   C4A19278   6.778   6.029   7.697
 1246POPC   C1B19279   6.478   5.545   8.805
 1246POPC   C2B19280   6.403   5.513   8.377
 1246POPC   C3B19281   6.685   5.583   8.059
 1246POPC   C4B19282   6.520   5.593   7.662
 1247POPC   NC319283   3.000   3.316   9.433
 1247POPC   PO419284   2.339   3.558   9.466
 1247POPC   GL119285   2.617   3.656   9.144
 1247POPC   GL219286   2.928   3.826   9.228
 1247POPC   C1A19287   2.868   3.550   8.792
 1247POPC   D2A19288   2.833   3.436   8.383
 1247POPC   C3A19289   2.655   3.635   8.064
 1247POPC   C4A19290   2.523   3.372   7.751
 1247POPC   C1B19291   3.046   4.044   8.825
 1247POPC   C2B19292   3.012   3.973   8.357
 1247POPC   C3B19293   3.173   3.714   8.026
 1247POPC   C4B19294   3.042   3.301   7.922
 1248POPC   NC319295  22.193   6.148   9.300
 1248POPC   PO419296  21.699   5.826   9.613
 1248POPC   GL119297  21.904   5.763   9.162
 1248POPC   GL219298  22.244   5.685   9.091
 1248POPC   C1A19299  21.934   5.999   8.706
 1248POPC   D2A19300  21.740   6.130   8.269
 1248POPC   C3A19301  21.930   6.142   7.828
 1248POPC   C4A19302  21.915   5.802   7.485
 1248POPC   C1B19303  22.452   6.002   8.763
 1248POPC   C2B19304  22.341   6.160   8.363
 1248POPC   C3B19305  22.373   5.961   7.953
 1248POPC   C4B19306  22.363   5.587   7.698
 1249POPC   NC319307  41.585  44.264   9.446
 1249POPC   PO419308  41.843  44.908   9.377
 1249POPC   GL119309  41.694  44.614   9.101
 1249POPC   GL219310  41.970  44.401   9.084
 1249POPC   C1A19311  41.442  44.594   8.724
 1249POPC   D2A19312  41.429  44.793   8.332
 1249POPC   C3A19313  41.324  44.564   7.949
 1249POPC   C4A19314  41.334  44.799   7.567
 1249POPC   C1B19315  41.961  44.679   8.686
 1249POPC   C2B19316  41.896  44.610   8.265
 1249POPC   C3B19317  41.786  44.750   7.846
 1249POPC   C4B19318  41.808  44.662   7.404
 1250POPC   NC319319   5.647   8.946   9.366
 1250POPC   PO419320   6.267   9.103   9.276
 1250POPC   GL119321   5.989   8.838   8.996
 1250POPC   GL219322   5.681   9.055   8.872
 1250POPC   C1A19323   6.012   8.717   8.563
 1250POPC   D2A19324   5.717   8.740   8.226
 1250POPC   C3A19325   5.848   8.870   7.837
 1250POPC   C4A19326   6.169   8.602   7.716
 1250POPC   C1B19327   6.014   9.221   8.640
 1250POPC   C2B19328   6.120   9.110   8.230
 1250POPC   C3B19329   6.156   9.363   7.895
 1250POPC   C4B19330   5.811   9.366   7.613
 1251POPC   NC319331  32.072  40.514   9.444
 1251POPC   PO419332  32.279  41.217   9.412
 1251POPC   GL119333  32.252  41.093   8.981
 1251POPC   GL219334  32.600  41.085   8.834
 1251POPC   C1A19335  32.025  40.742   8.785
 1251POPC   D2A19336  31.832  40.684   8.373
 1251POPC   C3A19337  32.149  40.733   8.073
 1251POPC   C4A19338  32.144  40.771   7.631
 1251POPC   C1B19339  32.480  40.769   8.540
 1251POPC   C2B19340  32.587  40.505   8.203
 1251POPC   C3B19341  32.622  40.683   7.783
 1251POPC   C4B19342  32.678  40.807   7.350
 1252POPC   NC319343  43.163  16.774   9.389
 1252POPC   PO419344  43.715  16.609   9.687
 1252POPC   GL119345  43.491  16.458   9.125
 1252POPC   GL219346  43.078  16.427   9.020
 1252POPC   C1A19347  43.403  16.627   8.696
 1252POPC   D2A19348  43.091  16.613   8.405
 1252POPC   C3A19349  43.249  16.696   8.017
 1252POPC   C4A19350  43.039  16.456   7.703
 1252POPC   C1B19351  42.854  16.806   8.810
 1252POPC   C2B19352  42.674  16.915   8.394
 1252POPC   C3B19353  42.736  16.801   7.965
 1252POPC   C4B19354  42.899  16.937   7.551
 1253POPC   NC319355  43.868   9.267   9.432
 1253POPC   PO419356  43.861   9.937   9.626
 1253POPC   GL119357  43.921   9.786   9.184
 1253POPC   GL219358  43.591   9.681   9.146
 1253POPC   C1A19359  43.828   9.733   8.707
 1253POPC   D2A19360  43.624   9.374   8.455
 1253POPC   C3A19361  43.632   9.469   8.004
 1253POPC   C4A19362  43.837   9.739   7.709
 1253POPC   C1B19363  43.555  10.120   8.963
 1253POPC   C2B19364  43.646  10.263   8.521
 1253POPC   C3B19365  43.744  10.098   8.106
 1253POPC   C4B19366  43.561  10.164   7.683
 1254POPC   NC319367  14.340  20.655   9.719
 1254POPC   PO419368  14.214  21.162   9.508
 1254POPC   GL119369  14.263  20.790   9.187
 1254POPC   GL219370  14.319  20.422   9.239
 1254POPC   C1A19371  14.371  20.607   8.737
 1254POPC   D2A19372  14.404  20.594   8.252
 1254POPC   C3A19373  14.220  20.982   8.040
 1254POPC   C4A19374  13.992  21.076   7.657
 1254POPC   C1B19375  14.321  20.113   8.866
 1254POPC   C2B19376  14.274  20.079   8.399
 1254POPC   C3B19377  14.200  20.197   7.964
 1254POPC   C4B19378  14.283  20.145   7.510
 1255POPC   NC319379  27.947  18.167   9.450
 1255POPC   PO419380  27.301  18.419   9.427
 1255POPC   GL119381  27.510  18.286   9.082
 1255POPC   GL219382  27.835  18.496   9.069
 1255POPC   C1A19383  27.529  18.456   8.666
 1255POPC   D2A19384  27.801  18.423   8.320
 1255POPC   C3A19385  27.614  18.427   7.888
 1255POPC   C4A19386  27.606  18.444   7.388
 1255POPC   C1B19387  27.914  18.113   8.795
 1255POPC   C2B19388  27.792  17.838   8.464
 1255POPC   C3B19389  27.814  17.990   8.051
 1255POPC   C4B19390  27.710  17.990   7.627
 1256POPC   NC319391  12.710  10.119   9.540
 1256POPC   PO419392  13.046  10.705   9.483
 1256POPC   GL119393  12.780  10.532   9.137
 1256POPC   GL219394  12.467  10.273   9.103
 1256POPC   C1A19395  12.960  10.622   8.740
 1256POPC   D2A19396  13.266  10.562   8.387
 1256POPC   C3A19397  13.180  10.795   8.013
 1256POPC   C4A19398  12.905  10.928   7.721
 1256POPC   C1B19399  12.675  10.193   8.669
 1256POPC   C2B19400  12.754  10.509   8.297
 1256POPC   C3B19401  12.846  10.431   7.871
 1256POPC   C4B19402  12.473  10.264   7.688
 1257POPC   NC319403  31.131  35.630   9.523
 1257POPC   PO419404  31.907  35.635   9.559
 1257POPC   GL119405  31.706  35.581   9.154
 1257POPC   GL219406  31.348  35.646   9.081
 1257POPC   C1A19407  31.591  35.378   8.762
 1257POPC   D2A19408  31.449  35.637   8.439
 1257POPC   C3A19409  31.647  35.530   8.066
 1257POPC   C4A19410  31.619  35.400   7.655
 1257POPC   C1B19411  31.071  35.462   8.781
 1257POPC   C2B19412  30.963  35.501   8.341
 1257POPC   C3B19413  31.163  35.385   7.917
 1257POPC   C4B19414  31.169  35.164   7.490
 1258POPC   NC319415  32.072  18.551   9.384
 1258POPC   PO419416  32.289  17.992   9.755
 1258POPC   GL119417  32.352  18.137   9.256
 1258POPC   GL219418  32.615  18.374   9.256
 1258POPC   C1A19419  32.199  18.058   8.797
 1258POPC   D2A19420  31.965  18.004   8.374
 1258POPC   C3A19421  32.212  18.031   8.034
 1258POPC   C4A19422  32.138  18.325   7.695
 1258POPC   C1B19423  32.527  18.460   8.818
 1258POPC   C2B19424  32.257  18.449   8.461
 1258POPC   C3B19425  32.480  18.443   8.098
 1258POPC   C4B19426  32.502  18.663   7.741
 1259POPC   NC319427  24.487  14.341   9.823
 1259POPC   PO419428  24.868  14.718   9.359
 1259POPC   GL119429  24.563  14.491   9.078
 1259POPC   GL219430  24.255  14.295   9.154
 1259POPC   C1A19431  24.541  14.368   8.697
 1259POPC   D2A19432  24.539  14.631   8.399
 1259POPC   C3A19433  24.490  14.534   8.031
 1259POPC   C4A19434  24.665  14.791   7.724
 1259POPC   C1B19435  24.090  14.133   8.726
 1259POPC   C2B19436  24.100  14.308   8.335
 1259POPC   C3B19437  24.038  14.155   7.909
 1259POPC   C4B19438  24.096  14.147   7.451
 1260POPC   NC319439  37.143  30.214   9.362
 1260POPC   PO419440  37.743  29.901   9.525
 1260POPC   GL119441  37.544  29.825   9.118
 1260POPC   GL219442  37.313  30.056   8.926
 1260POPC   C1A19443  37.471  29.611   8.762
 1260POPC   D2A19444  37.492  29.813   8.387
 1260POPC   C3A19445  37.478  29.638   8.006
 1260POPC   C4A19446  37.512  29.806   7.616
 1260POPC   C1B19447  37.589  30.254   8.644
 1260POPC   C2B19448  37.838  30.190   8.288
 1260POPC   C3B19449  37.843  30.163   7.853
 1260POPC   C4B19450  37.861  30.096   7.411
 1261POPC   NC319451   0.850  44.473   9.224
 1261POPC   PO419452   0.188  44.467   9.519
 1261POPC   GL119453   0.362  44.794   9.214
 1261POPC   GL219454   0.390  44.516   9.029
 1261POPC   C1A19455   0.515  44.911   8.735
 1261POPC   D2A19456   0.742  44.681   8.368
 1261POPC   C3A19457   0.539  44.657   7.946
 1261POPC   C4A19458   0.217  44.923   7.757
 1261POPC   C1B19459   0.129  44.482   8.711
 1261POPC   C2B19460   0.247  44.443   8.310
 1261POPC   C3B19461   0.044  44.479   7.944
 1261POPC   C4B19462  44.917  44.273   7.574
 1262POPC   NC319463   0.742  18.265   9.273
 1262POPC   PO419464   1.382  18.138   9.490
 1262POPC   GL119465   1.244  18.197   9.128
 1262POPC   GL219466   1.061  17.916   9.081
 1262POPC   C1A19467   1.164  18.255   8.703
 1262POPC   D2A19468   1.179  18.498   8.358
 1262POPC   C3A19469   1.129  18.297   7.971
 1262POPC   C4A19470   1.369  18.437   7.623
 1262POPC   C1B19471   0.762  17.911   8.720
 1262POPC   C2B19472   0.738  17.750   8.287
 1262POPC   C3B19473   0.806  17.886   7.863
 1262POPC   C4B19474   1.042  18.049   7.519
 1263POPC   NC319475  32.407   9.405   9.409
 1263POPC   PO419476  31.928   9.948   9.455
 1263POPC   GL119477  32.113   9.949   9.035
 1263POPC   GL219478  32.491   9.903   9.121
 1263POPC   C1A19479  32.067   9.948   8.551
 1263POPC   D2A19480  32.046   9.669   8.218
 1263POPC   C3A19481  32.059   9.847   7.818
 1263POPC   C4A19482  32.041   9.642   7.393
 1263POPC   C1B19483  32.412   9.632   8.749
 1263POPC   C2B19484  32.497   9.416   8.358
 1263POPC   C3B19485  32.449   9.552   7.921
 1263POPC   C4B19486  32.499   9.797   7.565
 1264POPC   NC319487   4.010   2.274   9.340
 1264POPC   PO419488   4.494   1.865   9.453
 1264POPC   GL119489   4.335   1.979   9.091
 1264POPC   GL219490   4.497   2.310   9.144
 1264POPC   C1A19491   4.311   1.924   8.680
 1264POPC   D2A19492   4.589   1.723   8.403
 1264POPC   C3A19493   4.450   1.885   8.020
 1264POPC   C4A19494   4.384   1.763   7.614
 1264POPC   C1B19495   4.766   2.117   8.812
 1264POPC   C2B19496   4.934   2.147   8.404
 1264POPC   C3B19497   4.782   2.259   7.985
 1264POPC   C4B19498   4.479   2.263   7.655
 1265POPC   NC319499  24.394  35.646   9.576
 1265POPC   PO419500  24.602  35.030   9.506
 1265POPC   GL119501  24.413  35.279   9.192
 1265POPC   GL219502  24.686  35.481   9.094
 1265POPC   C1A19503  24.303  35.185   8.772
 1265POPC   D2A19504  24.504  35.131   8.378
 1265POPC   C3A19505  24.314  35.232   8.000
 1265POPC   C4A19506  24.579  35.536   7.810
 1265POPC   C1B19507  24.472  35.644   8.705
 1265POPC   C2B19508  24.243  35.697   8.288
 1265POPC   C3B19509  24.276  35.927   7.878
 1265POPC   C4B19510  24.407  36.048   7.421
 1266POPC   NC319511  25.397  20.285   9.435
 1266POPC   PO419512  24.851  20.708   9.426
 1266POPC   GL119513  25.084  20.567   9.087
 1266POPC   GL219514  25.117  20.212   9.030
 1266POPC   C1A19515  25.437  20.588   8.783
 1266POPC   D2A19516  25.404  20.371   8.397
 1266POPC   C3A19517  25.396  20.636   7.983
 1266POPC   C4A19518  25.360  20.658   7.486
 1266POPC   C1B19519  24.860  20.112   8.723
 1266POPC   C2B19520  25.027  20.040   8.371
 1266POPC   C3B19521  24.966  20.357   8.102
 1266POPC   C4B19522  25.019  20.359   7.701
 1267POPC   NC319523   8.926  14.981   9.530
 1267POPC   PO419524   8.806  15.629   9.499
 1267POPC   GL119525   9.096  15.389   9.234
 1267POPC   GL219526   8.797  15.248   9.129
 1267POPC   C1A19527   9.219  15.216   8.820
 1267POPC   D2A19528   9.381  15.073   8.427
 1267POPC   C3A19529   9.218  15.167   8.026
 1267POPC   C4A19530   9.315  15.016   7.618
 1267POPC   C1B19531   8.726  15.005   8.809
 1267POPC   C2B19532   8.853  15.141   8.439
 1267POPC   C3B19533   8.696  15.243   8.064
 1267POPC   C4B19534   8.815  14.998   7.717
 1268POPC   NC319535  23.451   9.454   9.459
 1268POPC   PO419536  24.012   9.851   9.524
 1268POPC   GL119537  23.804   9.737   9.164
 1268POPC   GL219538  23.516   9.898   9.150
 1268POPC   C1A19539  23.810   9.581   8.740
 1268POPC   D2A19540  24.094   9.504   8.401
 1268POPC   C3A19541  23.879   9.459   8.053
 1268POPC   C4A19542  23.464   9.457   7.850
 1268POPC   C1B19543  23.633  10.070   8.767
 1268POPC   C2B19544  23.604   9.891   8.356
 1268POPC   C3B19545  23.699   9.900   7.931
 1268POPC   C4B19546  23.721   9.799   7.507
 1269POPC   NC319547  44.151  42.853   9.506
 1269POPC   PO419548  43.633  42.232   9.448
 1269POPC   GL119549  43.897  42.272   9.104
 1269POPC   GL219550  43.902  42.620   9.093
 1269POPC   C1A19551  44.166  42.347   8.746
 1269POPC   D2A19552  44.045  42.535   8.385
 1269POPC   C3A19553  44.167  42.416   7.988
 1269POPC   C4A19554  43.866  42.476   7.671
 1269POPC   C1B19555  43.784  42.864   8.708
 1269POPC   C2B19556  43.549  42.771   8.330
 1269POPC   C3B19557  43.554  42.826   7.878
 1269POPC   C4B19558  43.487  42.723   7.427
 1270POPC   NC319559  31.142  37.891   9.254
 1270POPC   PO419560  31.604  37.606   9.707
 1270POPC   GL119561  31.600  37.578   9.246
 1270POPC   GL219562  31.832  37.835   9.174
 1270POPC   C1A19563  31.548  37.339   8.830
 1270POPC   D2A19564  31.274  37.280   8.470
 1270POPC   C3A19565  31.428  37.485   8.113
 1270POPC   C4A19566  31.804  37.512   7.818
 1270POPC   C1B19567  31.650  37.831   8.767
 1270POPC   C2B19568  31.513  38.029   8.405
 1270POPC   C3B19569  31.640  37.964   7.982
 1270POPC   C4B19570  31.336  37.739   7.699
 1271POPC   NC319571   5.588  42.531   9.414
 1271POPC   PO419572   4.967  42.308   9.589
 1271POPC   GL119573   5.006  42.144   9.200
 1271POPC   GL219574   5.341  42.129   9.142
 1271POPC   C1A19575   4.872  41.990   8.811
 1271POPC   D2A19576   5.054  41.934   8.414
 1271POPC   C3A19577   5.022  42.291   8.140
 1271POPC   C4A19578   4.736  42.353   7.813
 1271POPC   C1B19579   5.430  42.078   8.727
 1271POPC   C2B19580   5.548  41.931   8.304
 1271POPC   C3B19581   5.503  42.218   7.965
 1271POPC   C4B19582   5.450  42.662   7.957
 1272POPC   NC319583  12.254  35.626   9.604
 1272POPC   PO419584  11.793  35.257   9.359
 1272POPC   GL119585  12.054  35.230   9.063
 1272POPC   GL219586  12.214  35.506   9.121
 1272POPC   C1A19587  12.007  35.179   8.653
 1272POPC   D2A19588  12.209  35.198   8.294
 1272POPC   C3A19589  11.903  35.278   8.000
 1272POPC   C4A19590  11.942  35.146   7.581
 1272POPC   C1B19591  11.934  35.670   8.826
 1272POPC   C2B19592  11.993  35.661   8.404
 1272POPC   C3B19593  11.904  35.814   8.006
 1272POPC   C4B19594  11.975  35.657   7.615
 1273POPC   NC319595  40.199  12.244   9.429
 1273POPC   PO419596  39.532  12.219   9.402
 1273POPC   GL119597  39.800  12.241   9.077
 1273POPC   GL219598  39.865  11.898   9.135
 1273POPC   C1A19599  39.976  12.104   8.692
 1273POPC   D2A19600  40.134  12.107   8.312
 1273POPC   C3A19601  40.120  11.929   7.931
 1273POPC   C4A19602  40.077  12.340   7.754
 1273POPC   C1B19603  39.523  11.864   8.822
 1273POPC   C2B19604  39.474  12.063   8.432
 1273POPC   C3B19605  39.663  12.109   8.054
 1273POPC   C4B19606  39.623  12.130   7.629
 1274POPC   NC319607  17.637   1.249   9.695
 1274POPC   PO419608  17.131   1.622   9.608
 1274POPC   GL119609  17.339   1.285   9.258
 1274POPC   GL219610  17.704   1.179   9.175
 1274POPC   C1A19611  17.426   1.214   8.788
 1274POPC   D2A19612  17.298   1.301   8.412
 1274POPC   C3A19613  17.484   1.144   8.081
 1274POPC   C4A19614  17.423   1.319   7.705
 1274POPC   C1B19615  17.817   0.854   8.820
 1274POPC   C2B19616  17.718   0.796   8.402
 1274POPC   C3B19617  17.892   0.831   8.011
 1274POPC   C4B19618  17.668   0.876   7.651
 1275POPC   NC319619  12.285  14.400   9.587
 1275POPC   PO419620  12.921  14.613   9.513
 1275POPC   GL119621  12.852  14.323   9.147
 1275POPC   GL219622  12.592  14.439   9.064
 1275POPC   C1A19623  13.050  14.312   8.739
 1275POPC   D2A19624  13.204  14.107   8.369
 1275POPC   C3A19625  13.057  14.268   7.950
 1275POPC   C4A19626  12.772  14.040   7.666
 1275POPC   C1B19627  12.596  14.518   8.652
 1275POPC   C2B19628  12.691  14.251   8.310
 1275POPC   C3B19629  12.568  14.427   7.914
 1275POPC   C4B19630  12.427  14.865   7.872
 1276POPC   NC319631  17.239  15.590   9.234
 1276POPC   PO419632  17.556  15.915   9.722
 1276POPC   GL119633  17.688  15.850   9.232
 1276POPC   GL219634  17.998  16.031   9.153
 1276POPC   C1A19635  17.597  15.938   8.776
 1276POPC   D2A19636  17.714  16.036   8.368
 1276POPC   C3A19637  17.428  16.125   8.039
 1276POPC   C4A19638  17.494  16.112   7.591
 1276POPC   C1B19639  18.104  15.960   8.720
 1276POPC   C2B19640  18.111  15.724   8.346
 1276POPC   C3B19641  17.863  15.797   7.942
 1276POPC   C4B19642  17.774  15.704   7.496
 1277POPC   NC319643  20.352  35.856   9.380
 1277POPC   PO419644  20.841  36.136   9.585
 1277POPC   GL119645  20.652  36.226   9.187
 1277POPC   GL219646  20.319  36.339   9.113
 1277POPC   C1A19647  20.658  36.114   8.774
 1277POPC   D2A19648  20.839  36.017   8.397
 1277POPC   C3A19649  20.590  35.848   8.103
 1277POPC   C4A19650  20.482  36.037   7.726
 1277POPC   C1B19651  20.294  36.469   8.662
 1277POPC   C2B19652  20.480  36.368   8.248
 1277POPC   C3B19653  20.561  36.516   7.834
 1277POPC   C4B19654  20.288  36.546   7.470
 1278POPC   NC319655   3.982   7.244   9.497
 1278POPC   PO419656   4.260   7.858   9.523
 1278POPC   GL119657   4.368   7.543   9.222
 1278POPC   GL219658   4.054   7.571   9.122
 1278POPC   C1A19659   4.431   7.660   8.792
 1278POPC   D2A19660   4.181   7.661   8.448
 1278POPC   C3A19661   4.429   7.743   8.113
 1278POPC   C4A19662   4.414   7.446   7.816
 1278POPC   C1B19663   4.172   7.230   8.818
 1278POPC   C2B19664   4.388   7.209   8.414
 1278POPC   C3B19665   4.282   6.984   8.100
 1278POPC   C4B19666   4.090   7.010   7.724
 1279POPC   NC319667  39.628  25.883   9.592
 1279POPC   PO419668  39.035  26.219   9.525
 1279POPC   GL119669  39.170  26.086   9.140
 1279POPC   GL219670  39.409  25.873   9.109
 1279POPC   C1A19671  39.232  26.166   8.713
 1279POPC   D2A19672  39.471  26.105   8.342
 1279POPC   C3A19673  39.221  26.193   8.010
 1279POPC   C4A19674  38.843  26.180   7.868
 1279POPC   C1B19675  39.591  25.799   8.733
 1279POPC   C2B19676  39.496  25.581   8.358
 1279POPC   C3B19677  39.470  25.714   7.974
 1279POPC   C4B19678  39.367  25.905   7.619
 1280POPC   NC319679  40.939  42.121   9.499
 1280POPC   PO419680  40.734  42.773   9.562
 1280POPC   GL119681  40.759  42.581   9.145
 1280POPC   GL219682  40.609  42.257   9.147
 1280POPC   C1A19683  40.937  42.423   8.759
 1280POPC   D2A19684  40.996  42.421   8.316
 1280POPC   C3A19685  40.637  42.557   8.088
 1280POPC   C4A19686  40.229  42.550   7.900
 1280POPC   C1B19687  40.667  41.948   8.845
 1280POPC   C2B19688  40.740  41.994   8.447
 1280POPC   C3B19689  40.990  41.955   8.088
 1280POPC   C4B19690  41.001  42.288   7.822
 1281POPC   NC319691  39.261  17.983   9.367
 1281POPC   PO419692  39.448  18.712   9.292
 1281POPC   GL119693  39.420  18.388   9.070
 1281POPC   GL219694  39.057  18.393   9.127
 1281POPC   C1A19695  39.335  18.537   8.665
 1281POPC   D2A19696  39.064  18.487   8.374
 1281POPC   C3A19697  39.234  18.268   8.030
 1281POPC   C4A19698  39.308  18.408   7.614
 1281POPC   C1B19699  39.005  18.122   8.778
 1281POPC   C2B19700  38.879  18.016   8.393
 1281POPC   C3B19701  38.679  18.272   8.109
 1281POPC   C4B19702  38.821  18.266   7.711
 1282POPC   NC319703   3.433  21.527   9.655
 1282POPC   PO419704   3.257  21.031   9.351
 1282POPC   GL119705   3.469  21.350   9.131
 1282POPC   GL219706   3.547  21.725   9.203
 1282POPC   C1A19707   3.443  21.261   8.721
 1282POPC   D2A19708   3.352  21.039   8.352
 1282POPC   C3A19709   3.713  21.174   8.094
 1282POPC   C4A19710   3.737  21.314   7.665
 1282POPC   C1B19711   3.651  21.718   8.791
 1282POPC   C2B19712   3.577  21.589   8.375
 1282POPC   C3B19713   3.723  21.705   8.008
 1282POPC   C4B19714   3.969  21.777   7.653
 1283POPC   NC319715   2.271  13.661   9.452
 1283POPC   PO419716   2.879  13.339   9.607
 1283POPC   GL119717   2.872  13.494   9.172
 1283POPC   GL219718   2.535  13.561   9.030
 1283POPC   C1A19719   2.958  13.647   8.760
 1283POPC   D2A19720   2.691  13.752   8.396
 1283POPC   C3A19721   2.794  13.650   7.962
 1283POPC   C4A19722   2.892  13.912   7.598
 1283POPC   C1B19723   2.366  13.334   8.658
 1283POPC   C2B19724   2.455  13.323   8.236
 1283POPC   C3B19725   2.319  13.471   7.830
 1283POPC   C4B19726   2.347  13.280   7.432
 1284POPC   NC319727  20.529   5.929   9.468
 1284POPC   PO419728  21.072   5.501   9.529
 1284POPC   GL119729  20.816   5.543   9.180
 1284POPC   GL219730  20.919   5.880   9.148
 1284POPC   C1A19731  20.614   5.672   8.749
 1284POPC   D2A19732  20.324   5.558   8.394
 1284POPC   C3A19733  20.489   5.516   7.955
 1284POPC   C4A19734  20.540   5.767   7.547
 1284POPC   C1B19735  20.913   6.108   8.782
 1284POPC   C2B19736  20.723   6.082   8.386
 1284POPC   C3B19737  20.578   6.045   7.981
 1284POPC   C4B19738  20.833   6.248   7.759
 1285POPC   NC319739  39.652  21.112   9.496
 1285POPC   PO419740  40.124  21.604   9.594
 1285POPC   GL119741  40.010  21.378   9.229
 1285POPC   GL219742  39.714  21.526   9.199
 1285POPC   C1A19743  40.236  21.261   8.825
 1285POPC   D2A19744  40.413  21.086   8.424
 1285POPC   C3A19745  40.260  21.202   8.014
 1285POPC   C4A19746  40.116  21.489   7.705
 1285POPC   C1B19747  39.726  21.220   8.834
 1285POPC   C2B19748  39.912  21.283   8.425
 1285POPC   C3B19749  39.734  21.261   8.018
 1285POPC   C4B19750  39.613  21.530   7.696
 1286POPC   NC319751  12.794   2.308   9.479
 1286POPC   PO419752  12.190   2.853   9.532
 1286POPC   GL119753  12.217   2.778   9.125
 1286POPC   GL219754  12.481   2.557   9.160
 1286POPC   C1A19755  11.962   2.800   8.747
 1286POPC   D2A19756  11.993   2.549   8.354
 1286POPC   C3A19757  11.982   2.747   7.945
 1286POPC   C4A19758  11.785   2.974   7.615
 1286POPC   C1B19759  12.411   2.572   8.717
 1286POPC   C2B19760  12.500   2.466   8.298
 1286POPC   C3B19761  12.249   2.319   7.945
 1286POPC   C4B19762  12.221   2.496   7.534
 1287POPC   NC319763  32.490  23.368   9.700
 1287POPC   PO419764  32.169  23.831   9.701
 1287POPC   GL119765  32.199  23.904   9.222
 1287POPC   GL219766  32.447  23.649   9.200
 1287POPC   C1A19767  32.080  23.869   8.728
 1287POPC   D2A19768  32.194  23.620   8.332
 1287POPC   C3A19769  32.229  23.696   7.870
 1287POPC   C4A19770  31.905  23.547   7.551
 1287POPC   C1B19771  32.530  23.610   8.755
 1287POPC   C2B19772  32.641  23.339   8.414
 1287POPC   C3B19773  32.493  23.273   8.003
 1287POPC   C4B19774  32.775  23.446   7.714
 1288POPC   NC319775   8.158   6.126   9.878
 1288POPC   PO419776   8.408   5.600   9.480
 1288POPC   GL119777   8.197   5.777   9.130
 1288POPC   GL219778   8.002   6.074   9.077
 1288POPC   C1A19779   8.376   5.750   8.743
 1288POPC   D2A19780   8.539   5.977   8.408
 1288POPC   C3A19781   8.451   5.774   8.035
 1288POPC   C4A19782   8.117   5.634   7.714
 1288POPC   C1B19783   8.175   6.212   8.686
 1288POPC   C2B19784   8.140   6.261   8.269
 1288POPC   C3B19785   8.108   6.121   7.854
 1288POPC   C4B19786   8.065   6.075   7.395
 1289POPC   NC319787  27.429  31.792   9.679
 1289POPC   PO419788  27.453  31.126   9.523
 1289POPC   GL119789  27.551  31.187   9.108
 1289POPC   GL219790  27.816  30.978   8.969
 1289POPC   C1A19791  27.611  31.431   8.724
 1289POPC   D2A19792  27.787  31.588   8.349
 1289POPC   C3A19793  27.545  31.701   8.009
 1289POPC   C4A19794  27.757  31.952   7.700
 1289POPC   C1B19795  27.422  30.958   8.672
 1289POPC   C2B19796  27.415  31.206   8.288
 1289POPC   C3B19797  27.712  31.224   7.948
 1289POPC   C4B19798  27.695  31.466   7.559
 1290POPC   NC319799  13.829  27.324   9.387
 1290POPC   PO419800  14.490  27.456   9.506
 1290POPC   GL119801  14.459  27.607   9.077
 1290POPC   GL219802  14.169  27.837   9.137
 1290POPC   C1A19803  14.532  27.692   8.645
 1290POPC   D2A19804  14.249  27.450   8.409
 1290POPC   C3A19805  14.267  27.348   7.996
 1290POPC   C4A19806  14.419  27.469   7.586
 1290POPC   C1B19807  14.116  27.994   8.704
 1290POPC   C2B19808  14.273  27.957   8.272
 1290POPC   C3B19809  14.306  27.890   7.844
 1290POPC   C4B19810  14.484  27.991   7.420
 1291POPC   NC319811  16.210  11.548   9.594
 1291POPC   PO419812  16.573  11.061   9.420
 1291POPC   GL119813  16.734  11.413   9.131
 1291POPC   GL219814  17.113  11.506   9.197
 1291POPC   C1A19815  16.610  11.440   8.667
 1291POPC   D2A19816  16.553  11.095   8.326
 1291POPC   C3A19817  16.456  11.172   7.871
 1291POPC   C4A19818  16.466  11.571   7.638
 1291POPC   C1B19819  17.110  11.390   8.757
 1291POPC   C2B19820  16.990  11.401   8.310
 1291POPC   C3B19821  16.911  11.384   7.865
 1291POPC   C4B19822  16.943  11.417   7.408
 1292POPC   NC319823  38.076  11.108   9.839
 1292POPC   PO419824  37.768  10.580   9.486
 1292POPC   GL119825  37.621  10.518   9.137
 1292POPC   GL219826  37.556  10.157   9.130
 1292POPC   C1A19827  37.772  10.482   8.741
 1292POPC   D2A19828  37.606  10.625   8.386
 1292POPC   C3A19829  37.771  10.504   7.966
 1292POPC   C4A19830  37.657  10.704   7.610
 1292POPC   C1B19831  37.255  10.373   8.819
 1292POPC   C2B19832  37.102  10.516   8.405
 1292POPC   C3B19833  37.326  10.311   8.104
 1292POPC   C4B19834  37.283  10.046   7.778
 1293POPC   NC319835   2.302   4.031   9.471
 1293POPC   PO419836   2.925   4.359   9.500
 1293POPC   GL119837   2.607   4.474   9.206
 1293POPC   GL219838   2.569   4.165   9.056
 1293POPC   C1A19839   2.620   4.605   8.777
 1293POPC   D2A19840   2.923   4.467   8.480
 1293POPC   C3A19841   2.826   4.455   8.066
 1293POPC   C4A19842   2.840   4.080   7.851
 1293POPC   C1B19843   2.564   3.951   8.670
 1293POPC   C2B19844   2.485   4.089   8.263
 1293POPC   C3B19845   2.332   3.985   7.859
 1293POPC   C4B19846   2.297   4.235   7.485
 1294POPC   NC319847  13.677   1.620   9.516
 1294POPC   PO419848  13.426   1.078   9.718
 1294POPC   GL119849  13.598   1.193   9.248
 1294POPC   GL219850  13.978   1.205   9.178
 1294POPC   C1A19851  13.638   1.419   8.812
 1294POPC   D2A19852  13.905   1.421   8.423
 1294POPC   C3A19853  13.745   1.452   7.971
 1294POPC   C4A19854  13.523   1.197   7.650
 1294POPC   C1B19855  13.958   0.997   8.755
 1294POPC   C2B19856  13.998   0.883   8.308
 1294POPC   C3B19857  13.945   0.977   7.869
 1294POPC   C4B19858  13.787   0.787   7.466
 1295POPC   NC319859  41.271  32.209   9.453
 1295POPC   PO419860  42.034  32.047   9.345
 1295POPC   GL119861  41.683  32.120   9.148
 1295POPC   GL219862  41.629  32.472   9.194
 1295POPC   C1A19863  41.462  32.017   8.776
 1295POPC   D2A19864  41.218  31.879   8.426
 1295POPC   C3A19865  41.317  32.128   8.079
 1295POPC   C4A19866  41.424  32.171   7.639
 1295POPC   C1B19867  41.488  32.537   8.769
 1295POPC   C2B19868  41.663  32.454   8.352
 1295POPC   C3B19869  41.522  32.591   7.933
 1295POPC   C4B19870  41.374  32.672   7.506
 1296POPC   NC319871  14.344  24.873   9.382
 1296POPC   PO419872  14.079  25.507   9.411
 1296POPC   GL119873  14.194  25.249   9.087
 1296POPC   GL219874  14.436  25.473   8.982
 1296POPC   C1A19875  14.375  24.996   8.751
 1296POPC   D2A19876  14.339  25.284   8.425
 1296POPC   C3A19877  14.251  25.201   8.020
 1296POPC   C4A19878  14.526  25.403   7.747
 1296POPC   C1B19879  14.764  25.338   8.708
 1296POPC   C2B19880  14.843  25.024   8.483
 1296POPC   C3B19881  14.785  25.159   8.120
 1296POPC   C4B19882  14.841  25.006   7.760
 1297POPC   NC319883  18.198  38.039   9.309
 1297POPC   PO419884  18.533  38.553   9.551
 1297POPC   GL119885  18.360  38.696   9.133
 1297POPC   GL219886  18.013  38.619   9.167
 1297POPC   C1A19887  18.503  38.576   8.738
 1297POPC   D2A19888  18.490  38.140   8.572
 1297POPC   C3A19889  18.468  38.254   8.169
 1297POPC   C4A19890  18.595  38.377   7.772
 1297POPC   C1B19891  18.061  38.351   8.771
 1297POPC   C2B19892  17.953  38.231   8.321
 1297POPC   C3B19893  18.057  38.343   7.885
 1297POPC   C4B19894  18.191  38.634   7.556
 1298POPC   NC319895  30.034   8.829   9.456
 1298POPC   PO419896  29.361   8.485   9.397
 1298POPC   GL119897  29.586   8.849   9.168
 1298POPC   GL219898  29.858   8.690   8.980
 1298POPC   C1A19899  29.735   9.168   8.839
 1298POPC   D2A19900  29.918   9.011   8.512
 1298POPC   C3A19901  29.799   9.009   8.115
 1298POPC   C4A19902  29.957   8.764   7.808
 1298POPC   C1B19903  30.285   8.827   8.854
 1298POPC   C2B19904  30.433   8.965   8.501
 1298POPC   C3B19905  30.289   9.141   8.148
 1298POPC   C4B19906  30.399   9.013   7.772
 1299POPC   NC319907  42.303  44.960   9.448
 1299POPC   PO419908  42.748  44.470   9.360
 1299POPC   GL119909  42.489  44.407   9.062
 1299POPC   GL219910  42.353  44.725   9.007
 1299POPC   C1A19911  42.339  44.342   8.651
 1299POPC   D2A19912  42.419  44.617   8.319
 1299POPC   C3A19913  42.254  44.515   7.926
 1299POPC   C4A19914  42.249  44.860   7.620
 1299POPC   C1B19915  42.501   0.091   8.815
 1299POPC   C2B19916  42.710   0.065   8.432
 1299POPC   C3B19917  42.555   0.047   8.028
 1299POPC   C4B19918  42.727   0.086   7.638
 1300POPC   NC319919  14.720  41.166   9.429
 1300POPC   PO419920  15.222  41.633   9.636
 1300POPC   GL119921  15.248  41.592   9.205
 1300POPC   GL219922  15.048  41.858   9.119
 1300POPC   C1A19923  15.035  41.429   8.823
 1300POPC   D2A19924  15.154  41.449   8.415
 1300POPC   C3A19925  14.991  41.481   7.991
 1300POPC   C4A19926  15.316  41.559   7.683
 1300POPC   C1B19927  15.103  41.942   8.712
 1300POPC   C2B19928  15.358  41.910   8.368
 1300POPC   C3B19929  15.167  41.963   8.011
 1300POPC   C4B19930  14.916  41.874   7.672
 1301POPC   NC319931  44.982  43.316   9.813
 1301POPC   PO419932   0.210  42.867   9.370
 1301POPC   GL119933   0.374  42.786   9.012
 1301POPC   GL219934   0.700  42.925   9.031
 1301POPC   C1A19935   0.283  42.934   8.621
 1301POPC   D2A19936   0.081  42.761   8.294
 1301POPC   C3A19937   0.338  42.854   7.968
 1301POPC   C4A19938   0.265  43.031   7.573
 1301POPC   C1B19939   0.731  43.183   8.652
 1301POPC   C2B19940   0.540  43.236   8.255
 1301POPC   C3B19941   0.708  43.179   7.837
 1301POPC   C4B19942   0.691  43.297   7.391
 1302POPC   NC319943  41.967  39.132   9.640
 1302POPC   PO419944  42.483  38.924   9.305
 1302POPC   GL119945  42.182  39.143   9.080
 1302POPC   GL219946  42.071  39.463   9.184
 1302POPC   C1A19947  42.331  39.240   8.678
 1302POPC   D2A19948  42.649  39.548   8.526
 1302POPC   C3A19949  42.639  39.581   8.064
 1302POPC   C4A19950  42.585  39.379   7.625
 1302POPC   C1B19951  42.016  39.639   8.762
 1302POPC   C2B19952  42.167  39.573   8.326
 1302POPC   C3B19953  42.212  39.277   7.995
 1302POPC   C4B19954  42.105  39.548   7.670
 1303POPC   NC319955  35.684  26.757   9.346
 1303POPC   PO419956  36.345  26.533   9.482
 1303POPC   GL119957  36.137  26.660   9.084
 1303POPC   GL219958  35.975  26.995   9.021
 1303POPC   C1A19959  36.282  26.824   8.668
 1303POPC   D2A19960  36.398  26.985   8.256
 1303POPC   C3A19961  36.142  26.756   7.952
 1303POPC   C4A19962  36.078  26.337   7.855
 1303POPC   C1B19963  35.800  26.665   8.705
 1303POPC   C2B19964  35.750  26.767   8.309
 1303POPC   C3B19965  35.900  27.133   8.238
 1303POPC   C4B19966  36.138  27.268   7.896
 1304POPC   NC319967  10.683  24.448   9.570
 1304POPC   PO419968  10.406  24.996   9.297
 1304POPC   GL119969  10.541  24.608   9.106
 1304POPC   GL219970  10.434  24.272   9.151
 1304POPC   C1A19971  10.692  24.468   8.716
 1304POPC   D2A19972  10.631  24.761   8.393
 1304POPC   C3A19973  10.479  24.689   8.010
 1304POPC   C4A19974  10.082  24.748   7.850
 1304POPC   C1B19975  10.396  24.044   8.789
 1304POPC   C2B19976  10.493  24.133   8.364
 1304POPC   C3B19977  10.593  24.215   7.948
 1304POPC   C4B19978  10.733  24.100   7.566
 1305POPC   NC319979  20.442  21.566   9.491
 1305POPC   PO419980  20.948  21.241   9.490
 1305POPC   GL119981  20.907  21.221   9.073
 1305POPC   GL219982  20.564  21.277   9.070
 1305POPC   C1A19983  20.916  21.340   8.621
 1305POPC   D2A19984  20.690  21.168   8.225
 1305POPC   C3A19985  20.784  21.289   7.799
 1305POPC   C4A19986  20.973  21.382   7.349
 1305POPC   C1B19987  20.249  21.228   8.746
 1305POPC   C2B19988  20.192  21.327   8.329
 1305POPC   C3B19989  20.280  21.400   7.901
 1305POPC   C4B19990  20.111  21.156   7.568
 1306POPC   NC319991  12.124   9.273   9.477
 1306POPC   PO419992  11.906   8.573   9.545
 1306POPC   GL119993  12.092   8.830   9.218
 1306POPC   GL219994  11.772   8.848   9.064
 1306POPC   C1A19995  12.229   9.040   8.812
 1306POPC   D2A19996  12.228   8.866   8.378
 1306POPC   C3A19997  12.200   9.040   7.956
 1306POPC   C4A19998  12.035   9.398   7.832
 1306POPC   C1B19999  11.760   8.830   8.623
 1306POPC   C2B20000  11.762   8.878   8.177
 1306POPC   C3B20001  11.702   8.919   7.772
 1306POPC   C4B20002  11.939   8.978   7.444
 1307POPC   NC320003  25.479   2.298   9.418
 1307POPC   PO420004  24.871   2.096   9.531
 1307POPC   GL120005  25.070   1.915   9.184
 1307POPC   GL220006  25.250   2.167   8.995
 1307POPC   C1A20007  25.147   1.710   8.783
 1307POPC   D2A20008  25.345   1.680   8.362
 1307POPC   C3A20009  25.125   1.902   8.045
 1307POPC   C4A20010  25.252   1.828   7.612
 1307POPC   C1B20011  25.474   2.390   8.691
 1307POPC   C2B20012  25.460   2.200   8.280
 1307POPC   C3B20013  25.410   2.263   7.809
 1307POPC   C4B20014  25.502   2.235   7.316
 1308POPC   NC320015  19.395   5.833   9.289
 1308POPC   PO420016  20.098   5.750   9.511
 1308POPC   GL120017  19.886   5.899   9.180
 1308POPC   GL220018  19.789   5.560   9.127
 1308POPC   C1A20019  19.969   6.164   8.832
 1308POPC   D2A20020  20.250   6.049   8.542
 1308POPC   C3A20021  20.103   5.946   8.132
 1308POPC   C4A20022  20.049   6.125   7.734
 1308POPC   C1B20023  19.844   5.697   8.710
 1308POPC   C2B20024  19.639   5.876   8.369
 1308POPC   C3B20025  19.694   5.663   7.989
 1308POPC   C4B20026  20.055   5.600   7.721
 1309POPC   NC320027  13.711  42.141   9.149
 1309POPC   PO420028  13.473  41.557   9.525
 1309POPC   GL120029  13.596  41.650   9.125
 1309POPC   GL220030  13.914  41.557   8.992
 1309POPC   C1A20031  13.448  41.552   8.715
 1309POPC   D2A20032  13.609  41.293   8.398
 1309POPC   C3A20033  13.632  41.489   8.011
 1309POPC   C4A20034  13.302  41.608   7.723
 1309POPC   C1B20035  13.892  41.780   8.587
 1309POPC   C2B20036  13.542  41.934   8.296
 1309POPC   C3B20037  13.603  41.986   7.851
 1309POPC   C4B20038  14.015  41.811   7.753
 1310POPC   NC320039  27.617   2.942   9.877
 1310POPC   PO420040  27.915   2.870   9.349
 1310POPC   GL120041  27.449   2.861   9.204
 1310POPC   GL220042  27.606   2.778   8.951
 1310POPC   C1A20043  27.160   2.871   8.796
 1310POPC   D2A20044  27.431   2.818   8.442
 1310POPC   C3A20045  27.242   2.770   8.064
 1310POPC   C4A20046  27.379   2.583   7.702
 1310POPC   C1B20047  27.906   2.948   8.693
 1310POPC   C2B20048  27.982   2.801   8.341
 1310POPC   C3B20049  27.747   2.890   8.022
 1310POPC   C4B20050  27.747   2.979   7.640
 1311POPC   NC320051  37.587  39.031   9.454
 1311POPC   PO420052  37.659  38.280   9.480
 1311POPC   GL120053  37.822  38.267   9.115
 1311POPC   GL220054  37.915  38.612   9.068
 1311POPC   C1A20055  37.937  38.140   8.733
 1311POPC   D2A20056  37.955  38.394   8.398
 1311POPC   C3A20057  37.836  38.216   8.008
 1311POPC   C4A20058  37.854  38.552   7.689
 1311POPC   C1B20059  37.593  38.551   8.760
 1311POPC   C2B20060  37.409  38.463   8.392
 1311POPC   C3B20061  37.495  38.640   8.025
 1311POPC   C4B20062  37.325  38.592   7.611
 1312POPC   NC320063   3.775  19.401   9.297
 1312POPC   PO420064   3.863  18.806   9.449
 1312POPC   GL120065   3.483  18.894   9.132
 1312POPC   GL220066   3.281  18.597   9.060
 1312POPC   C1A20067   3.357  18.960   8.679
 1312POPC   D2A20068   3.705  19.007   8.362
 1312POPC   C3A20069   3.645  19.100   7.923
 1312POPC   C4A20070   3.298  19.345   7.753
 1312POPC   C1B20071   3.459  18.456   8.687
 1312POPC   C2B20072   3.410  18.594   8.269
 1312POPC   C3B20073   3.198  18.856   7.966
 1312POPC   C4B20074   3.320  18.910   7.523
 1313POPC   NC320075  14.870   5.650   9.452
 1313POPC   PO420076  14.778   6.267   9.458
 1313POPC   GL120077  15.121   6.053   9.184
 1313POPC   GL220078  15.316   5.748   9.172
 1313POPC   C1A20079  15.176   5.945   8.724
 1313POPC   D2A20080  15.025   5.811   8.331
 1313POPC   C3A20081  15.133   6.052   7.976
 1313POPC   C4A20082  15.172   5.751   7.684
 1313POPC   C1B20083  15.449   5.494   8.820
 1313POPC   C2B20084  15.331   5.365   8.387
 1313POPC   C3B20085  15.270   5.323   7.940
 1313POPC   C4B20086  15.593   5.454   7.644
 1314POPC   NC320087  41.783  40.518   9.430
 1314POPC   PO420088  41.253  40.961   9.524
 1314POPC   GL120089  41.498  40.856   9.189
 1314POPC   GL220090  41.361  40.535   9.119
 1314POPC   C1A20091  41.778  40.882   8.820
 1314POPC   D2A20092  41.827  41.162   8.456
 1314POPC   C3A20093  41.904  40.974   8.043
 1314POPC   C4A20094  41.638  40.814   7.718
 1314POPC   C1B20095  41.304  40.698   8.727
 1314POPC   C2B20096  41.473  40.765   8.331
 1314POPC   C3B20097  41.170  40.882   8.039
 1314POPC   C4B20098  41.107  40.686   7.726
 1315POPC   NC320099  43.136   3.077   9.871
 1315POPC   PO420100  42.825   3.484   9.430
 1315POPC   GL120101  42.944   3.573   9.041
 1315POPC   GL220102  43.270   3.527   9.148
 1315POPC   C1A20103  43.094   3.736   8.679
 1315POPC   D2A20104  43.142   3.666   8.265
 1315POPC   C3A20105  42.785   3.772   8.023
 1315POPC   C4A20106  42.897   3.644   7.618
 1315POPC   C1B20107  43.353   3.301   8.764
 1315POPC   C2B20108  43.236   3.149   8.385
 1315POPC   C3B20109  43.447   3.303   8.045
 1315POPC   C4B20110  43.315   3.340   7.639
 1316POPC   NC320111  29.072   8.768   9.189
 1316POPC   PO420112  28.689   9.211   9.539
 1316POPC   GL120113  28.861   9.229   9.101
 1316POPC   GL220114  29.247   9.230   9.027
 1316POPC   C1A20115  28.806   9.087   8.661
 1316POPC   D2A20116  28.617   9.188   8.267
 1316POPC   C3A20117  28.977   9.187   8.016
 1316POPC   C4A20118  28.948   8.774   7.836
 1316POPC   C1B20119  29.316   9.002   8.608
 1316POPC   C2B20120  29.332   8.850   8.178
 1316POPC   C3B20121  29.454   8.732   7.752
 1316POPC   C4B20122  29.565   8.943   7.395
 1317POPC   NC320123  40.258  16.404   9.398
 1317POPC   PO420124  40.716  16.966   9.542
 1317POPC   GL120125  40.706  16.925   9.123
 1317POPC   GL220126  40.989  17.129   9.095
 1317POPC   C1A20127  40.537  16.790   8.714
 1317POPC   D2A20128  40.529  16.601   8.307
 1317POPC   C3A20129  40.680  16.776   7.909
 1317POPC   C4A20130  40.975  16.850   7.563
 1317POPC   C1B20131  41.022  16.958   8.692
 1317POPC   C2B20132  40.794  17.088   8.311
 1317POPC   C3B20133  40.939  17.235   7.886
 1317POPC   C4B20134  40.968  17.333   7.402
 1318POPC   NC320135  26.411   0.240   9.353
 1318POPC   PO420136  25.974   0.740   9.506
 1318POPC   GL120137  26.030   0.496   9.111
 1318POPC   GL220138  25.881   0.190   9.097
 1318POPC   C1A20139  25.843   0.506   8.668
 1318POPC   D2A20140  25.834   0.708   8.238
 1318POPC   C3A20141  26.130   0.586   7.944
 1318POPC   C4A20142  26.121   0.270   7.678
 1318POPC   C1B20143  26.129   0.074   8.739
 1318POPC   C2B20144  26.134   0.223   8.320
 1318POPC   C3B20145  25.785   0.199   8.038
 1318POPC   C4B20146  25.696  44.977   7.611
 1319POPC   NC320147  28.764  21.242   9.551
 1319POPC   PO420148  29.426  21.402   9.529
 1319POPC   GL120149  29.104  21.424   9.213
 1319POPC   GL220150  29.089  21.068   9.200
 1319POPC   C1A20151  28.989  21.427   8.799
 1319POPC   D2A20152  29.276  21.407   8.474
 1319POPC   C3A20153  29.063  21.485   8.089
 1319POPC   C4A20154  29.250  21.568   7.705
 1319POPC   C1B20155  29.344  21.016   8.831
 1319POPC   C2B20156  29.240  20.908   8.378
 1319POPC   C3B20157  29.332  21.072   7.930
 1319POPC   C4B20158  29.157  21.104   7.497
 1320POPC   NC320159  39.132  35.086   9.402
 1320POPC   PO420160  39.569  35.554   9.510
 1320POPC   GL120161  39.385  35.453   9.125
 1320POPC   GL220162  39.092  35.608   9.125
 1320POPC   C1A20163  39.319  35.214   8.729
 1320POPC   D2A20164  39.395  35.435   8.302
 1320POPC   C3A20165  39.305  35.294   7.884
 1320POPC   C4A20166  39.279  35.468   7.449
 1320POPC   C1B20167  38.982  35.593   8.684
 1320POPC   C2B20168  38.905  35.253   8.396
 1320POPC   C3B20169  38.828  35.358   7.999
 1320POPC   C4B20170  38.894  35.159   7.579
 1321POPC   NC320171  10.238  15.362   9.521
 1321POPC   PO420172  10.709  14.900   9.551
 1321POPC   GL120173  10.638  15.249   9.225
 1321POPC   GL220174  10.346  15.064   9.112
 1321POPC   C1A20175  10.533  15.381   8.766
 1321POPC   D2A20176  10.385  15.334   8.337
 1321POPC   C3A20177  10.641  15.350   7.950
 1321POPC   C4A20178  10.415  15.388   7.561
 1321POPC   C1B20179  10.671  14.805   8.868
 1321POPC   C2B20180  10.752  14.652   8.448
 1321POPC   C3B20181  10.556  14.882   8.131
 1321POPC   C4B20182  10.435  14.919   7.730
 1322POPC   NC320183  42.459  19.670   9.419
 1322POPC   PO420184  41.984  20.180   9.472
 1322POPC   GL120185  42.126  19.942   9.107
 1322POPC   GL220186  42.289  19.620   8.955
 1322POPC   C1A20187  42.218  20.041   8.687
 1322POPC   D2A20188  42.272  19.788   8.321
 1322POPC   C3A20189  42.248  20.092   7.985
 1322POPC   C4A20190  42.050  20.097   7.561
 1322POPC   C1B20191  42.672  19.804   8.767
 1322POPC   C2B20192  42.793  19.932   8.343
 1322POPC   C3B20193  42.610  19.753   7.931
 1322POPC   C4B20194  42.168  19.629   7.750
 1323POPC   NC320195  38.065  22.312   9.510
 1323POPC   PO420196  38.611  21.991   9.350
 1323POPC   GL120197  38.375  22.221   9.083
 1323POPC   GL220198  38.676  22.315   8.909
 1323POPC   C1A20199  38.219  22.281   8.659
 1323POPC   D2A20200  38.372  22.468   8.259
 1323POPC   C3A20201  38.181  22.367   7.860
 1323POPC   C4A20202  38.029  21.993   7.710
 1323POPC   C1B20203  38.549  21.889   8.701
 1323POPC   C2B20204  38.358  21.901   8.307
 1323POPC   C3B20205  38.497  21.982   7.933
 1323POPC   C4B20206  38.683  21.796   7.605
 1324POPC   NC320207  39.477  31.589   9.332
 1324POPC   PO420208  40.218  31.637   9.406
 1324POPC   GL120209  40.192  31.470   9.034
 1324POPC   GL220210  39.843  31.401   9.038
 1324POPC   C1A20211  40.078  31.661   8.652
 1324POPC   D2A20212  40.254  31.924   8.317
 1324POPC   C3A20213  40.308  31.676   7.941
 1324POPC   C4A20214  40.195  31.253   7.740
 1324POPC   C1B20215  39.599  31.397   8.648
 1324POPC   C2B20216  39.629  31.409   8.191
 1324POPC   C3B20217  39.684  31.392   7.750
 1324POPC   C4B20218  39.576  31.386   7.320
 1325POPC   NC320219  13.038   8.649   9.358
 1325POPC   PO420220  12.513   9.034   9.487
 1325POPC   GL120221  12.600   8.787   9.140
 1325POPC   GL220222  12.853   9.059   9.073
 1325POPC   C1A20223  12.663   8.771   8.703
 1325POPC   D2A20224  12.657   9.089   8.407
 1325POPC   C3A20225  12.664   8.861   8.063
 1325POPC   C4A20226  12.651   8.951   7.656
 1325POPC   C1B20227  13.052   9.172   8.700
 1325POPC   C2B20228  13.135   9.017   8.287
 1325POPC   C3B20229  13.047   9.167   7.916
 1325POPC   C4B20230  13.143   9.101   7.502
 1326POPC   NC320231  20.930   5.023   9.604
 1326POPC   PO420232  20.354   4.787   9.591
 1326POPC   GL120233  20.460   4.794   9.162
 1326POPC   GL220234  20.754   4.968   9.127
 1326POPC   C1A20235  20.373   4.763   8.717
 1326POPC   D2A20236  20.429   5.055   8.375
 1326POPC   C3A20237  20.485   4.949   7.929
 1326POPC   C4A20238  20.829   4.845   7.637
 1326POPC   C1B20239  20.835   5.172   8.747
 1326POPC   C2B20240  21.049   5.243   8.359
 1326POPC   C3B20241  20.936   5.241   7.929
 1326POPC   C4B20242  20.887   5.357   7.506
 1327POPC   NC320243  32.381  39.779   9.316
 1327POPC   PO420244  32.541  40.435   9.381
 1327POPC   GL120245  32.476  40.211   9.010
 1327POPC   GL220246  32.140  40.242   8.982
 1327POPC   C1A20247  32.413  39.899   8.659
 1327POPC   D2A20248  32.506  39.591   8.354
 1327POPC   C3A20249  32.528  39.697   7.915
 1327POPC   C4A20250  32.318  39.548   7.558
 1327POPC   C1B20251  32.200  40.329   8.529
 1327POPC   C2B20252  32.286  40.084   8.165
 1327POPC   C3B20253  32.456  40.195   7.751
 1327POPC   C4B20254  32.329  40.399   7.351
 1328POPC   NC320255  43.526  42.691   9.473
 1328POPC   PO420256  42.816  42.610   9.410
 1328POPC   GL120257  42.981  42.623   8.997
 1328POPC   GL220258  43.343  42.499   9.037
 1328POPC   C1A20259  43.125  42.536   8.553
 1328POPC   D2A20260  43.122  42.162   8.257
 1328POPC   C3A20261  42.940  42.312   7.869
 1328POPC   C4A20262  43.068  42.725   7.778
 1328POPC   C1B20263  43.620  42.375   8.693
 1328POPC   C2B20264  43.629  42.247   8.269
 1328POPC   C3B20265  43.435  42.330   7.865
 1328POPC   C4B20266  43.465  42.197   7.425
 1329POPC   NC320267   9.976  22.143   9.588
 1329POPC   PO420268   9.289  22.147   9.654
 1329POPC   GL120269   9.567  22.083   9.247
 1329POPC   GL220270   9.936  21.930   9.122
 1329POPC   C1A20271   9.595  22.202   8.805
 1329POPC   D2A20272   9.880  22.400   8.477
 1329POPC   C3A20273  10.039  22.228   8.123
 1329POPC   C4A20274  10.001  22.435   7.751
 1329POPC   C1B20275   9.913  21.826   8.660
 1329POPC   C2B20276   9.617  21.994   8.343
 1329POPC   C3B20277   9.595  22.052   7.925
 1329POPC   C4B20278   9.605  22.202   7.547
 1330POPC   NC320279   2.166  31.771   9.431
 1330POPC   PO420280   1.538  31.514   9.351
 1330POPC   GL120281   1.874  31.545   9.075
 1330POPC   GL220282   2.091  31.232   9.167
 1330POPC   C1A20283   1.868  31.662   8.612
 1330POPC   D2A20284   1.808  31.487   8.195
 1330POPC   C3A20285   1.738  31.641   7.757
 1330POPC   C4A20286   1.569  31.541   7.312
 1330POPC   C1B20287   1.998  31.203   8.746
 1330POPC   C2B20288   2.270  31.361   8.371
 1330POPC   C3B20289   2.233  31.462   7.897
 1330POPC   C4B20290   2.078  31.440   7.414
 1331POPC   NC320291  11.052   6.182   9.622
 1331POPC   PO420292  10.963   5.571   9.357
 1331POPC   GL120293  11.328   5.781   9.117
 1331POPC   GL220294  11.405   6.145   9.081
 1331POPC   C1A20295  11.407   5.832   8.675
 1331POPC   D2A20296  11.519   6.094   8.347
 1331POPC   C3A20297  11.427   5.823   8.016
 1331POPC   C4A20298  11.335   5.674   7.623
 1331POPC   C1B20299  11.085   6.234   8.708
 1331POPC   C2B20300  11.011   6.149   8.264
 1331POPC   C3B20301  11.238   6.271   7.895
 1331POPC   C4B20302  11.495   6.227   7.525
 1332POPC   NC320303  40.515   1.307   9.438
 1332POPC   PO420304  41.022   0.920   9.341
 1332POPC   GL120305  40.837   1.181   9.041
 1332POPC   GL220306  40.492   1.046   8.992
 1332POPC   C1A20307  40.955   1.415   8.660
 1332POPC   D2A20308  41.168   1.410   8.247
 1332POPC   C3A20309  40.981   1.390   7.825
 1332POPC   C4A20310  41.114   1.598   7.398
 1332POPC   C1B20311  40.695   0.994   8.588
 1332POPC   C2B20312  40.691   1.097   8.178
 1332POPC   C3B20313  40.419   0.888   7.878
 1332POPC   C4B20314  40.562   1.117   7.568
 1333POPC   NC320315  22.362  35.146   9.479
 1333POPC   PO420316  22.351  35.820   9.533
 1333POPC   GL120317  22.187  35.554   9.212
 1333POPC   GL220318  21.889  35.710   9.141
 1333POPC   C1A20319  22.027  35.271   8.861
 1333POPC   D2A20320  21.968  35.321   8.403
 1333POPC   C3A20321  22.256  35.099   8.120
 1333POPC   C4A20322  22.279  35.160   7.678
 1333POPC   C1B20323  22.102  35.758   8.729
 1333POPC   C2B20324  22.258  35.783   8.315
 1333POPC   C3B20325  22.144  35.593   7.952
 1333POPC   C4B20326  21.983  35.545   7.526
 1334POPC   NC320327  29.572  40.220   9.240
 1334POPC   PO420328  30.125  39.897   9.560
 1334POPC   GL120329  30.057  40.001   9.173
 1334POPC   GL220330  29.866  39.781   9.008
 1334POPC   C1A20331  30.221  40.236   8.829
 1334POPC   D2A20332  30.316  40.161   8.416
 1334POPC   C3A20333  29.936  40.090   8.169
 1334POPC   C4A20334  29.949  39.876   7.809
 1334POPC   C1B20335  29.770  40.044   8.655
 1334POPC   C2B20336  29.488  39.924   8.350
 1334POPC   C3B20337  29.482  39.729   7.990
 1334POPC   C4B20338  29.479  39.875   7.593
 1335POPC   NC320339  28.894  19.712   9.510
 1335POPC   PO420340  29.497  19.468   9.555
 1335POPC   GL120341  29.349  19.767   9.235
 1335POPC   GL220342  29.054  19.991   9.120
 1335POPC   C1A20343  29.313  19.672   8.804
 1335POPC   D2A20344  29.246  20.018   8.576
 1335POPC   C3A20345  29.114  19.945   8.213
 1335POPC   C4A20346  29.210  19.595   7.939
 1335POPC   C1B20347  28.828  20.212   8.789
 1335POPC   C2B20348  28.904  20.434   8.400
 1335POPC   C3B20349  28.818  20.310   7.982
 1335POPC   C4B20350  28.841  19.934   7.760
 1336POPC   NC320351  18.352   8.695   9.635
 1336POPC   PO420352  18.074   8.125   9.785
 1336POPC   GL120353  18.246   8.152   9.315
 1336POPC   GL220354  18.104   7.821   9.145
 1336POPC   C1A20355  18.339   8.156   8.848
 1336POPC   D2A20356  18.127   8.240   8.438
 1336POPC   C3A20357  18.344   8.098   8.052
 1336POPC   C4A20358  18.388   8.379   7.634
 1336POPC   C1B20359  18.040   7.647   8.726
 1336POPC   C2B20360  18.022   7.753   8.280
 1336POPC   C3B20361  17.966   7.829   7.835
 1336POPC   C4B20362  17.958   8.148   7.524
 1337POPC   NC320363  21.466   2.180   9.577
 1337POPC   PO420364  21.124   1.561   9.549
 1337POPC   GL120365  21.216   1.878   9.243
 1337POPC   GL220366  21.583   1.828   9.182
 1337POPC   C1A20367  21.304   2.003   8.820
 1337POPC   D2A20368  21.284   1.822   8.416
 1337POPC   C3A20369  21.415   2.132   8.118
 1337POPC   C4A20370  21.245   2.237   7.728
 1337POPC   C1B20371  21.673   1.666   8.735
 1337POPC   C2B20372  21.789   1.785   8.289
 1337POPC   C3B20373  21.669   1.711   7.830
 1337POPC   C4B20374  21.735   1.727   7.354
 1338POPC   NC320375  33.051  10.156   9.559
 1338POPC   PO420376  32.823   9.514   9.555
 1338POPC   GL120377  33.001   9.672   9.180
 1338POPC   GL220378  33.269   9.420   9.100
 1338POPC   C1A20379  32.884   9.870   8.769
 1338POPC   D2A20380  32.697   9.883   8.355
 1338POPC   C3A20381  32.884   9.801   7.959
 1338POPC   C4A20382  32.896  10.080   7.613
 1338POPC   C1B20383  33.395   9.780   8.827
 1338POPC   C2B20384  33.256   9.973   8.426
 1338POPC   C3B20385  33.381   9.880   8.007
 1338POPC   C4B20386  33.288   9.582   7.671
 1339POPC   NC320387  10.665  17.847   9.255
 1339POPC   PO420388  10.335  17.336   9.559
 1339POPC   GL120389  10.402  17.411   9.161
 1339POPC   GL220390  10.180  17.727   9.154
 1339POPC   C1A20391  10.752  17.346   8.806
 1339POPC   D2A20392  10.993  17.405   8.376
 1339POPC   C3A20393  10.780  17.483   7.967
 1339POPC   C4A20394  10.384  17.396   7.768
 1339POPC   C1B20395  10.340  17.631   8.715
 1339POPC   C2B20396  10.420  17.718   8.312
 1339POPC   C3B20397  10.147  17.973   8.113
 1339POPC   C4B20398  10.146  17.849   7.710
 1340POPC   NC320399  36.223  16.128   9.595
 1340POPC   PO420400  35.582  16.018   9.791
 1340POPC   GL120401  35.831  15.975   9.306
 1340POPC   GL220402  35.882  16.256   9.070
 1340POPC   C1A20403  35.955  15.797   8.870
 1340POPC   D2A20404  35.890  15.990   8.451
 1340POPC   C3A20405  36.014  15.871   8.039
 1340POPC   C4A20406  35.843  15.691   7.685
 1340POPC   C1B20407  36.212  16.286   8.728
 1340POPC   C2B20408  36.392  16.083   8.335
 1340POPC   C3B20409  36.471  16.176   7.873
 1340POPC   C4B20410  36.336  16.185   7.427
 1341POPC   NC320411  23.588  13.911   9.746
 1341POPC   PO420412  23.970  13.438   9.382
 1341POPC   GL120413  23.706  13.528   9.021
 1341POPC   GL220414  24.003  13.646   8.839
 1341POPC   C1A20415  23.556  13.852   8.714
 1341POPC   D2A20416  23.659  14.035   8.333
 1341POPC   C3A20417  23.531  13.812   7.970
 1341POPC   C4A20418  23.329  13.736   7.566
 1341POPC   C1B20419  23.977  13.255   8.654
 1341POPC   C2B20420  24.039  13.187   8.240
 1341POPC   C3B20421  24.012  13.585   8.049
 1341POPC   C4B20422  23.943  13.696   7.654
 1342POPC   NC320423   2.789  11.088   9.454
 1342POPC   PO420424   3.205  11.605   9.569
 1342POPC   GL120425   2.936  11.472   9.161
 1342POPC   GL220426   2.562  11.299   9.075
 1342POPC   C1A20427   2.964  11.180   8.807
 1342POPC   D2A20428   3.074  11.392   8.454
 1342POPC   C3A20429   2.945  11.390   8.045
 1342POPC   C4A20430   3.159  11.260   7.671
 1342POPC   C1B20431   2.429  10.994   8.787
 1342POPC   C2B20432   2.603  11.103   8.407
 1342POPC   C3B20433   2.427  11.249   8.053
 1342POPC   C4B20434   2.609  11.234   7.684
 1343POPC   NC320435  33.609  37.866   9.297
 1343POPC   PO420436  34.035  37.425   9.635
 1343POPC   GL120437  34.078  37.489   9.158
 1343POPC   GL220438  33.879  37.693   8.906
 1343POPC   C1A20439  34.070  37.245   8.750
 1343POPC   D2A20440  33.871  37.468   8.394
 1343POPC   C3A20441  34.039  37.349   8.012
 1343POPC   C4A20442  33.932  37.624   7.746
 1343POPC   C1B20443  33.671  38.063   8.680
 1343POPC   C2B20444  33.643  38.163   8.249
 1343POPC   C3B20445  33.634  38.056   7.834
 1343POPC   C4B20446  33.471  38.187   7.419
 1344POPC   NC320447  40.802  43.889   9.635
 1344POPC   PO420448  40.098  43.958   9.768
 1344POPC   GL120449  40.401  43.901   9.318
 1344POPC   GL220450  40.760  43.977   9.148
 1344POPC   C1A20451  40.399  43.861   8.836
 1344POPC   D2A20452  40.416  44.045   8.410
 1344POPC   C3A20453  40.558  43.815   8.056
 1344POPC   C4A20454  40.778  43.922   7.670
 1344POPC   C1B20455  40.936  43.651   8.859
 1344POPC   C2B20456  40.876  43.493   8.433
 1344POPC   C3B20457  41.037  43.615   8.040
 1344POPC   C4B20458  41.165  43.553   7.649
 1345POPC   NC320459  44.902  20.449   9.520
 1345POPC   PO420460  44.268  20.764   9.508
 1345POPC   GL120461  44.566  20.824   9.198
 1345POPC   GL220462  44.592  20.476   9.121
 1345POPC   C1A20463  44.509  20.770   8.739
 1345POPC   D2A20464  44.808  20.708   8.475
 1345POPC   C3A20465  44.746  20.744   8.075
 1345POPC   C4A20466  44.871  20.627   7.704
 1345POPC   C1B20467  44.586  20.243   8.743
 1345POPC   C2B20468  44.749  20.208   8.343
 1345POPC   C3B20469  44.577  20.280   7.958
 1345POPC   C4B20470  44.764  20.152   7.589
 1346POPC   NC320471   4.734   7.810   9.448
 1346POPC   PO420472   5.081   7.283   9.704
 1346POPC   GL120473   4.913   7.298   9.219
 1346POPC   GL220474   5.097   7.011   8.992
 1346POPC   C1A20475   4.703   7.249   8.820
 1346POPC   D2A20476   4.785   7.527   8.453
 1346POPC   C3A20477   4.839   7.324   8.066
 1346POPC   C4A20478   4.850   7.385   7.603
 1346POPC   C1B20479   5.212   7.378   8.737
 1346POPC   C2B20480   5.304   7.523   8.318
 1346POPC   C3B20481   5.223   7.624   7.884
 1346POPC   C4B20482   5.340   7.358   7.552
 1347POPC   NC320483  20.407   2.841   9.307
 1347POPC   PO420484  19.696   2.593   9.354
 1347POPC   GL120485  19.865   2.859   9.049
 1347POPC   GL220486  19.597   3.105   8.879
 1347POPC   C1A20487  20.065   2.807   8.670
 1347POPC   D2A20488  19.936   2.928   8.271
 1347POPC   C3A20489  19.886   2.591   8.000
 1347POPC   C4A20490  20.030   2.446   7.593
 1347POPC   C1B20491  19.480   2.686   8.752
 1347POPC   C2B20492  19.602   2.460   8.398
 1347POPC   C3B20493  19.385   2.458   8.010
 1347POPC   C4B20494  19.534   2.592   7.628
 1348POPC   NC320495  43.140  24.172   9.972
 1348POPC   PO420496  43.145  23.633   9.442
 1348POPC   GL120497  43.026  23.404   9.034
 1348POPC   GL220498  43.373  23.355   9.019
 1348POPC   C1A20499  42.789  23.533   8.638
 1348POPC   D2A20500  42.732  23.856   8.326
 1348POPC   C3A20501  42.826  23.625   7.971
 1348POPC   C4A20502  42.871  23.605   7.550
 1348POPC   C1B20503  43.316  23.668   8.695
 1348POPC   C2B20504  43.247  23.733   8.262
 1348POPC   C3B20505  43.296  23.740   7.812
 1348POPC   C4B20506  43.283  23.926   7.417
 1349POPC   NC320507   3.500  38.084   9.452
 1349POPC   PO420508   3.374  37.420   9.571
 1349POPC   GL120509   3.411  37.437   9.119
 1349POPC   GL220510   3.631  37.713   9.103
 1349POPC   C1A20511   3.576  37.361   8.680
 1349POPC   D2A20512   3.640  37.457   8.211
 1349POPC   C3A20513   3.344  37.512   7.878
 1349POPC   C4A20514   3.488  37.716   7.491
 1349POPC   C1B20515   3.783  38.022   8.794
 1349POPC   C2B20516   3.864  37.918   8.347
 1349POPC   C3B20517   3.792  37.830   7.897
 1349POPC   C4B20518   3.723  38.165   7.604
 1350POPC   NC320519   4.066   6.477   9.424
 1350POPC   PO420520   4.435   7.015   9.410
 1350POPC   GL120521   4.418   6.791   9.014
 1350POPC   GL220522   4.284   6.447   8.981
 1350POPC   C1A20523   4.276   6.742   8.580
 1350POPC   D2A20524   4.441   6.492   8.272
 1350POPC   C3A20525   4.743   6.716   8.065
 1350POPC   C4A20526   4.614   6.969   7.738
 1350POPC   C1B20527   3.884   6.484   8.763
 1350POPC   C2B20528   3.729   6.574   8.390
 1350POPC   C3B20529   3.966   6.593   8.052
 1350POPC   C4B20530   4.304   6.534   7.781
 1351POPC   NC320531  16.275  39.092   9.498
 1351POPC   PO420532  15.702  39.381   9.626
 1351POPC   GL120533  15.638  39.463   9.174
 1351POPC   GL220534  15.932  39.234   9.104
 1351POPC   C1A20535  15.684  39.366   8.686
 1351POPC   D2A20536  16.038  39.295   8.472
 1351POPC   C3A20537  16.032  39.569   8.129
 1351POPC   C4A20538  15.859  39.471   7.738
 1351POPC   C1B20539  15.833  38.898   8.790
 1351POPC   C2B20540  15.874  38.797   8.333
 1351POPC   C3B20541  15.964  38.985   7.933
 1351POPC   C4B20542  16.010  39.046   7.470
 1352POPC   NC320543  18.116  24.979   9.463
 1352POPC   PO420544  18.444  24.435   9.618
 1352POPC   GL120545  18.344  24.411   9.158
 1352POPC   GL220546  18.445  24.742   9.144
 1352POPC   C1A20547  18.136  24.203   8.738
 1352POPC   D2A20548  18.054  24.460   8.306
 1352POPC   C3A20549  18.337  24.427   7.903
 1352POPC   C4A20550  17.954  24.475   7.670
 1352POPC   C1B20551  18.368  24.672   8.706
 1352POPC   C2B20552  18.466  24.739   8.302
 1352POPC   C3B20553  18.189  24.886   7.978
 1352POPC   C4B20554  18.271  24.860   7.572
 1353POPC   NC320555   8.567  14.322   9.438
 1353POPC   PO420556   7.994  14.158   9.727
 1353POPC   GL120557   8.020  14.173   9.254
 1353POPC   GL220558   8.337  14.155   9.022
 1353POPC   C1A20559   7.948  14.472   8.899
 1353POPC   D2A20560   8.091  14.581   8.436
 1353POPC   C3A20561   8.029  14.269   8.172
 1353POPC   C4A20562   8.032  14.204   7.750
 1353POPC   C1B20563   8.428  14.587   8.809
 1353POPC   C2B20564   8.620  14.677   8.404
 1353POPC   C3B20565   8.416  14.811   8.020
 1353POPC   C4B20566   8.012  14.713   7.862
 1354POPC   NC320567  31.100  22.108   9.237
 1354POPC   PO420568  30.587  22.466   9.500
 1354POPC   GL120569  30.608  22.200   9.134
 1354POPC   GL220570  30.294  22.047   8.988
 1354POPC   C1A20571  30.734  22.184   8.696
 1354POPC   D2A20572  30.496  21.991   8.385
 1354POPC   C3A20573  30.649  21.992   7.992
 1354POPC   C4A20574  30.872  22.247   7.750
 1354POPC   C1B20575  30.167  21.715   8.664
 1354POPC   C2B20576  30.137  21.682   8.183
 1354POPC   C3B20577  30.232  21.809   7.730
 1354POPC   C4B20578  30.234  21.840   7.241
 1355POPC   NC320579  26.277  26.168   9.699
 1355POPC   PO420580  26.863  25.987   9.421
 1355POPC   GL120581  26.564  25.816   9.111
 1355POPC   GL220582  26.723  26.052   8.885
 1355POPC   C1A20583  26.443  25.727   8.653
 1355POPC   D2A20584  26.791  25.776   8.320
 1355POPC   C3A20585  26.716  25.997   7.922
 1355POPC   C4A20586  26.544  26.065   7.533
 1355POPC   C1B20587  27.036  26.130   8.594
 1355POPC   C2B20588  27.333  25.910   8.350
 1355POPC   C3B20589  27.223  25.975   7.978
 1355POPC   C4B20590  27.097  26.381   7.893
 1356POPC   NC320591  36.527  13.024   9.307
 1356POPC   PO420592  37.091  12.875   9.542
 1356POPC   GL120593  36.990  13.000   9.115
 1356POPC   GL220594  36.828  12.703   9.031
 1356POPC   C1A20595  37.102  12.923   8.669
 1356POPC   D2A20596  37.020  12.608   8.345
 1356POPC   C3A20597  37.030  12.762   7.911
 1356POPC   C4A20598  37.080  12.793   7.470
 1356POPC   C1B20599  36.594  12.890   8.662
 1356POPC   C2B20600  36.393  12.672   8.318
 1356POPC   C3B20601  36.539  12.628   7.929
 1356POPC   C4B20602  36.595  12.951   7.678
 1357POPC   NC320603   3.132  23.127   9.553
 1357POPC   PO420604   3.789  23.027   9.645
 1357POPC   GL120605   3.623  23.001   9.268
 1357POPC   GL220606   3.919  22.772   9.223
 1357POPC   C1A20607   3.372  23.027   8.891
 1357POPC   D2A20608   3.495  23.102   8.454
 1357POPC   C3A20609   3.371  23.018   8.018
 1357POPC   C4A20610   3.560  23.231   7.670
 1357POPC   C1B20611   3.905  22.978   8.829
 1357POPC   C2B20612   3.963  22.871   8.404
 1357POPC   C3B20613   3.884  22.919   7.953
 1357POPC   C4B20614   3.725  22.647   7.623
 1358POPC   NC320615  34.011  40.090   9.528
 1358POPC   PO420616  33.352  39.921   9.613
 1358POPC   GL120617  33.648  39.872   9.226
 1358POPC   GL220618  33.729  40.223   9.141
 1358POPC   C1A20619  33.852  39.860   8.768
 1358POPC   D2A20620  34.145  39.927   8.385
 1358POPC   C3A20621  34.043  39.863   7.936
 1358POPC   C4A20622  34.185  39.865   7.501
 1358POPC   C1B20623  33.625  40.325   8.755
 1358POPC   C2B20624  33.828  40.338   8.354
 1358POPC   C3B20625  33.537  40.331   8.030
 1358POPC   C4B20626  33.416  40.119   7.626
 1359POPC   NC320627  25.526   0.882   9.427
 1359POPC   PO420628  25.083   1.428   9.434
 1359POPC   GL120629  25.375   1.319   9.130
 1359POPC   GL220630  25.214   1.033   9.065
 1359POPC   C1A20631  25.438   1.290   8.682
 1359POPC   D2A20632  25.440   0.974   8.390
 1359POPC   C3A20633  25.418   1.079   7.970
 1359POPC   C4A20634  25.552   1.437   7.731
 1359POPC   C1B20635  24.938   1.250   8.793
 1359POPC   C2B20636  24.927   1.385   8.358
 1359POPC   C3B20637  25.056   1.428   7.912
 1359POPC   C4B20638  24.846   1.275   7.554
 1360POPC   NC320639  13.456  31.803   9.363
 1360POPC   PO420640  13.885  31.173   9.523
 1360POPC   GL120641  13.746  31.377   9.142
 1360POPC   GL220642  13.394  31.377   9.092
 1360POPC   C1A20643  13.698  31.466   8.684
 1360POPC   D2A20644  13.840  31.488   8.256
 1360POPC   C3A20645  13.560  31.600   7.942
 1360POPC   C4A20646  13.630  31.503   7.508
 1360POPC   C1B20647  13.195  31.599   8.695
 1360POPC   C2B20648  12.963  31.562   8.264
 1360POPC   C3B20649  13.058  31.738   7.845
 1360POPC   C4B20650  13.239  31.886   7.427
 1361POPC   NC320651   5.232   3.430   9.655
 1361POPC   PO420652   4.842   2.886   9.332
 1361POPC   GL120653   5.020   3.415   9.162
 1361POPC   GL220654   5.291   3.713   9.224
 1361POPC   C1A20655   5.048   3.695   8.793
 1361POPC   D2A20656   4.806   3.759   8.461
 1361POPC   C3A20657   5.054   3.652   8.153
 1361POPC   C4A20658   5.087   3.677   7.761
 1361POPC   C1B20659   5.403   4.037   8.841
 1361POPC   C2B20660   5.227   4.088   8.402
 1361POPC   C3B20661   5.465   3.977   7.998
 1361POPC   C4B20662   5.449   3.912   7.530
 1362POPC   NC320663   6.749  38.022   9.569
 1362POPC   PO420664   6.533  37.387   9.537
 1362POPC   GL120665   6.673  37.645   9.227
 1362POPC   GL220666   6.877  37.431   9.086
 1362POPC   C1A20667   6.570  37.814   8.830
 1362POPC   D2A20668   6.328  37.662   8.494
 1362POPC   C3A20669   6.373  37.874   8.101
 1362POPC   C4A20670   6.597  37.935   7.706
 1362POPC   C1B20671   6.750  37.340   8.711
 1362POPC   C2B20672   6.819  37.607   8.380
 1362POPC   C3B20673   6.961  37.743   7.991
 1362POPC   C4B20674   6.979  37.422   7.651
 1363POPC   NC320675  33.197  36.236   9.429
 1363POPC   PO420676  32.806  35.703   9.403
 1363POPC   GL120677  33.114  35.865   9.088
 1363POPC   GL220678  33.022  36.207   8.959
 1363POPC   C1A20679  33.327  35.932   8.666
 1363POPC   D2A20680  33.136  36.202   8.332
 1363POPC   C3A20681  32.885  36.135   7.951
 1363POPC   C4A20682  32.826  35.975   7.523
 1363POPC   C1B20683  33.356  36.468   8.731
 1363POPC   C2B20684  33.586  36.464   8.313
 1363POPC   C3B20685  33.427  36.412   7.931
 1363POPC   C4B20686  33.249  36.247   7.570
 1364POPC   NC320687  22.696  25.534   9.276
 1364POPC   PO420688  22.122  25.373   9.538
 1364POPC   GL120689  22.082  25.129   9.173
 1364POPC   GL220690  22.454  25.063   9.171
 1364POPC   C1A20691  21.940  25.153   8.760
 1364POPC   D2A20692  22.150  25.019   8.350
 1364POPC   C3A20693  22.019  25.285   8.016
 1364POPC   C4A20694  21.763  25.304   7.710
 1364POPC   C1B20695  22.484  25.087   8.760
 1364POPC   C2B20696  22.745  25.195   8.432
 1364POPC   C3B20697  22.519  25.273   8.068
 1364POPC   C4B20698  22.303  24.912   7.832
 1365POPC   NC320699  43.112  17.850   9.448
 1365POPC   PO420700  42.953  17.188   9.400
 1365POPC   GL120701  42.982  17.476   9.087
 1365POPC   GL220702  42.710  17.705   9.166
 1365POPC   C1A20703  42.899  17.375   8.641
 1365POPC   D2A20704  43.146  17.116   8.325
 1365POPC   C3A20705  43.095  17.257   7.897
 1365POPC   C4A20706  43.303  17.655   7.791
 1365POPC   C1B20707  42.793  17.949   8.797
 1365POPC   C2B20708  42.641  17.942   8.389
 1365POPC   C3B20709  42.828  17.673   8.092
 1365POPC   C4B20710  42.741  17.601   7.682
 1366POPC   NC320711  15.318  28.238   9.585
 1366POPC   PO420712  14.625  28.261   9.722
 1366POPC   GL120713  14.842  28.357   9.315
 1366POPC   GL220714  15.033  28.040   9.158
 1366POPC   C1A20715  14.915  28.457   8.866
 1366POPC   D2A20716  15.122  28.596   8.457
 1366POPC   C3A20717  14.926  28.574   8.043
 1366POPC   C4A20718  15.132  28.496   7.657
 1366POPC   C1B20719  15.007  27.925   8.686
 1366POPC   C2B20720  15.245  27.849   8.234
 1366POPC   C3B20721  15.315  28.051   7.788
 1366POPC   C4B20722  15.023  28.095   7.377
 1367POPC   NC320723  10.851  13.602   9.490
 1367POPC   PO420724  10.123  13.501   9.355
 1367POPC   GL120725  10.438  13.741   9.137
 1367POPC   GL220726  10.608  13.470   9.051
 1367POPC   C1A20727  10.587  13.821   8.690
 1367POPC   D2A20728  10.584  13.551   8.332
 1367POPC   C3A20729  10.601  13.776   7.973
 1367POPC   C4A20730  10.492  13.704   7.523
 1367POPC   C1B20731  10.896  13.391   8.716
 1367POPC   C2B20732  11.089  13.595   8.359
 1367POPC   C3B20733  10.930  13.390   7.958
 1367POPC   C4B20734  10.483  13.275   7.838
 1368POPC   NC320735  42.112  21.293   9.654
 1368POPC   PO420736  42.586  21.679   9.615
 1368POPC   GL120737  42.443  21.504   9.241
 1368POPC   GL220738  42.538  21.147   9.284
 1368POPC   C1A20739  42.304  21.667   8.821
 1368POPC   D2A20740  42.406  21.913   8.429
 1368POPC   C3A20741  42.365  21.672   8.058
 1368POPC   C4A20742  42.083  21.737   7.739
 1368POPC   C1B20743  42.261  21.071   8.928
 1368POPC   C2B20744  42.244  21.208   8.509
 1368POPC   C3B20745  42.401  21.129   8.104
 1368POPC   C4B20746  42.273  21.267   7.718
 1369POPC   NC320747  10.825  40.714   9.382
 1369POPC   PO420748  11.301  40.963   9.744
 1369POPC   GL120749  11.373  40.956   9.236
 1369POPC   GL220750  11.130  40.786   9.001
 1369POPC   C1A20751  11.475  41.018   8.743
 1369POPC   D2A20752  11.097  40.947   8.477
 1369POPC   C3A20753  11.175  40.946   8.045
 1369POPC   C4A20754  11.559  40.827   7.871
 1369POPC   C1B20755  10.944  40.501   8.724
 1369POPC   C2B20756  11.169  40.326   8.373
 1369POPC   C3B20757  11.202  40.413   7.946
 1369POPC   C4B20758  10.931  40.333   7.618
 1370POPC   NC320759  42.472  22.599   9.463
 1370POPC   PO420760  42.537  23.244   9.400
 1370POPC   GL120761  42.248  22.971   9.200
 1370POPC   GL220762  41.926  23.044   9.357
 1370POPC   C1A20763  42.267  22.715   8.839
 1370POPC   D2A20764  42.249  22.917   8.454
 1370POPC   C3A20765  42.329  22.741   8.048
 1370POPC   C4A20766  42.401  22.809   7.585
 1370POPC   C1B20767  41.832  23.033   8.902
 1370POPC   C2B20768  41.799  23.151   8.481
 1370POPC   C3B20769  41.999  23.144   8.066
 1370POPC   C4B20770  41.914  23.286   7.667
 1371POPC   NC320771  10.251  30.972   9.867
 1371POPC   PO420772  10.677  30.561   9.562
 1371POPC   GL120773  10.522  30.637   9.198
 1371POPC   GL220774  10.766  30.888   9.144
 1371POPC   C1A20775  10.409  30.457   8.819
 1371POPC   D2A20776  10.406  30.526   8.402
 1371POPC   C3A20777  10.654  30.321   8.094
 1371POPC   C4A20778  10.624  30.474   7.709
 1371POPC   C1B20779  10.903  30.615   8.845
 1371POPC   C2B20780  10.890  30.715   8.441
 1371POPC   C3B20781  10.694  30.836   8.060
 1371POPC   C4B20782  10.815  30.934   7.624
 1372POPC   NC320783  11.113  36.492   9.472
 1372POPC   PO420784  11.252  37.167   9.290
 1372POPC   GL120785  11.289  36.760   9.096
 1372POPC   GL220786  11.653  36.655   9.144
 1372POPC   C1A20787  11.021  36.688   8.761
 1372POPC   D2A20788  11.191  36.949   8.449
 1372POPC   C3A20789  11.027  36.996   8.049
 1372POPC   C4A20790  11.054  36.593   7.853
 1372POPC   C1B20791  11.623  36.928   8.778
 1372POPC   C2B20792  11.685  37.030   8.373
 1372POPC   C3B20793  11.607  36.818   7.995
 1372POPC   C4B20794  11.377  36.928   7.660
 1373POPC   NC320795  16.521  38.186   9.579
 1373POPC   PO420796  17.047  38.566   9.758
 1373POPC   GL120797  16.809  38.651   9.348
 1373POPC   GL220798  16.798  38.362   9.181
 1373POPC   C1A20799  16.867  38.762   8.869
 1373POPC   D2A20800  16.955  38.657   8.428
 1373POPC   C3A20801  16.753  38.823   8.076
 1373POPC   C4A20802  16.430  38.801   7.774
 1373POPC   C1B20803  16.633  38.335   8.756
 1373POPC   C2B20804  16.508  38.405   8.336
 1373POPC   C3B20805  16.609  38.324   7.926
 1373POPC   C4B20806  16.636  38.268   7.489
 1374POPC   NC320807  33.233  35.385   9.382
 1374POPC   PO420808  33.952  35.234   9.179
 1374POPC   GL120809  33.739  35.282   8.860
 1374POPC   GL220810  33.530  35.568   8.994
 1374POPC   C1A20811  33.777  35.107   8.446
 1374POPC   D2A20812  33.443  34.967   8.180
 1374POPC   C3A20813  33.450  35.332   7.908
 1374POPC   C4A20814  33.727  35.622   7.660
 1374POPC   C1B20815  33.924  35.752   8.807
 1374POPC   C2B20816  34.107  35.558   8.455
 1374POPC   C3B20817  33.999  35.350   8.056
 1374POPC   C4B20818  34.242  35.378   7.720
 1375POPC   NC320819  13.136  13.411   9.437
 1375POPC   PO420820  12.597  13.850   9.384
 1375POPC   GL120821  12.843  13.717   9.091
 1375POPC   GL220822  13.163  13.902   9.049
 1375POPC   C1A20823  12.749  13.870   8.700
 1375POPC   D2A20824  12.451  13.690   8.439
 1375POPC   C3A20825  12.569  13.798   8.057
 1375POPC   C4A20826  12.777  13.552   7.768
 1375POPC   C1B20827  13.163  13.554   8.725
 1375POPC   C2B20828  12.992  13.623   8.308
 1375POPC   C3B20829  13.188  13.781   7.961
 1375POPC   C4B20830  13.218  13.678   7.566
 1376POPC   NC320831  27.835  30.859   9.518
 1376POPC   PO420832  28.435  30.565   9.522
 1376POPC   GL120833  28.425  30.514   9.095
 1376POPC   GL220834  28.141  30.292   9.140
 1376POPC   C1A20835  28.274  30.747   8.705
 1376POPC   D2A20836  28.151  30.625   8.272
 1376POPC   C3A20837  28.346  30.900   7.934
 1376POPC   C4A20838  28.147  31.215   7.660
 1376POPC   C1B20839  28.157  30.261   8.701
 1376POPC   C2B20840  28.395  30.184   8.362
 1376POPC   C3B20841  28.536  30.242   7.982
 1376POPC   C4B20842  28.287  30.436   7.686
 1377POPC   NC320843  29.377  43.553   9.635
 1377POPC   PO420844  29.275  42.923   9.585
 1377POPC   GL120845  29.208  43.145   9.242
 1377POPC   GL220846  28.959  43.393   9.236
 1377POPC   C1A20847  29.328  43.002   8.864
 1377POPC   D2A20848  29.343  43.127   8.466
 1377POPC   C3A20849  29.097  43.278   8.116
 1377POPC   C4A20850  29.225  43.116   7.707
 1377POPC   C1B20851  28.844  43.157   8.880
 1377POPC   C2B20852  28.829  42.998   8.450
 1377POPC   C3B20853  28.886  42.832   8.012
 1377POPC   C4B20854  28.733  43.134   7.713
 1378POPC   NC320855  42.066  32.485   9.472
 1378POPC   PO420856  42.710  32.212   9.586
 1378POPC   GL120857  42.523  32.281   9.169
 1378POPC   GL220858  42.378  31.985   9.000
 1378POPC   C1A20859  42.354  32.412   8.740
 1378POPC   D2A20860  42.207  32.272   8.324
 1378POPC   C3A20861  42.501  32.472   8.035
 1378POPC   C4A20862  42.409  32.640   7.638
 1378POPC   C1B20863  42.020  31.904   8.689
 1378POPC   C2B20864  41.751  31.903   8.314
 1378POPC   C3B20865  41.838  32.150   7.948
 1378POPC   C4B20866  42.212  32.178   7.723
 1379POPC   NC320867  41.950  25.822   9.548
 1379POPC   PO420868  42.442  26.235   9.672
 1379POPC   GL120869  42.318  26.059   9.291
 1379POPC   GL220870  41.966  26.127   9.136
 1379POPC   C1A20871  42.349  25.806   8.958
 1379POPC   D2A20872  42.392  25.943   8.537
 1379POPC   C3A20873  42.562  25.962   8.145
 1379POPC   C4A20874  42.445  25.858   7.757
 1379POPC   C1B20875  41.907  25.932   8.710
 1379POPC   C2B20876  41.956  26.021   8.303
 1379POPC   C3B20877  42.126  26.224   7.996
 1379POPC   C4B20878  42.034  26.140   7.579
 1380POPC   NC320879  20.778  20.823   9.444
 1380POPC   PO420880  20.447  20.200   9.504
 1380POPC   GL120881  20.303  20.376   9.102
 1380POPC   GL220882  20.413  20.746   9.108
 1380POPC   C1A20883  20.534  20.411   8.744
 1380POPC   D2A20884  20.881  20.222   8.519
 1380POPC   C3A20885  20.683  20.152   8.122
 1380POPC   C4A20886  20.710  20.119   7.678
 1380POPC   C1B20887  20.629  20.901   8.726
 1380POPC   C2B20888  20.433  20.755   8.350
 1380POPC   C3B20889  20.258  20.886   7.987
 1380POPC   C4B20890  20.534  20.837   7.734
 1381POPC   NC320891  26.393  40.483   9.459
 1381POPC   PO420892  25.725  40.705   9.367
 1381POPC   GL120893  26.000  40.726   9.037
 1381POPC   GL220894  26.298  40.893   9.121
 1381POPC   C1A20895  25.902  40.748   8.604
 1381POPC   D2A20896  25.902  40.506   8.221
 1381POPC   C3A20897  26.097  40.679   7.853
 1381POPC   C4A20898  26.108  40.542   7.404
 1381POPC   C1B20899  26.269  41.091   8.719
 1381POPC   C2B20900  26.041  41.148   8.306
 1381POPC   C3B20901  25.987  41.306   7.883
 1381POPC   C4B20902  26.085  41.069   7.532
 1382POPC   NC320903  28.878  25.335   9.480
 1382POPC   PO420904  28.263  25.363   9.385
 1382POPC   GL120905  28.478  25.207   9.058
 1382POPC   GL220906  28.587  24.865   9.098
 1382POPC   C1A20907  28.463  25.387   8.628
 1382POPC   D2A20908  28.605  25.556   8.207
 1382POPC   C3A20909  28.318  25.656   7.856
 1382POPC   C4A20910  28.215  25.365   7.502
 1382POPC   C1B20911  28.399  24.840   8.710
 1382POPC   C2B20912  28.520  24.990   8.299
 1382POPC   C3B20913  28.329  25.023   7.908
 1382POPC   C4B20914  28.467  24.759   7.594
 1383POPC   NC320915   2.045  19.286   9.522
 1383POPC   PO420916   2.426  19.693   9.216
 1383POPC   GL120917   2.213  19.267   9.017
 1383POPC   GL220918   1.943  18.977   9.122
 1383POPC   C1A20919   2.211  18.905   8.686
 1383POPC   D2A20920   2.145  18.756   8.237
 1383POPC   C3A20921   2.075  19.116   7.970
 1383POPC   C4A20922   2.362  19.424   7.785
 1383POPC   C1B20923   1.573  18.951   8.807
 1383POPC   C2B20924   1.321  18.982   8.405
 1383POPC   C3B20925   1.420  18.787   7.992
 1383POPC   C4B20926   1.837  18.686   7.790
 1384POPC   NC320927   1.483  19.592   9.390
 1384POPC   PO420928   1.029  20.083   9.556
 1384POPC   GL120929   1.197  19.966   9.173
 1384POPC   GL220930   1.005  19.612   9.193
 1384POPC   C1A20931   1.212  20.203   8.752
 1384POPC   D2A20932   1.115  19.980   8.349
 1384POPC   C3A20933   1.094  20.087   7.909
 1384POPC   C4A20934   1.218  19.681   7.699
 1384POPC   C1B20935   0.905  19.786   8.797
 1384POPC   C2B20936   0.661  19.792   8.444
 1384POPC   C3B20937   0.805  19.684   8.042
 1384POPC   C4B20938   0.739  19.519   7.673
 1385POPC   NC320939   5.047  35.815   9.709
 1385POPC   PO420940   5.180  36.470   9.582
 1385POPC   GL120941   4.985  36.217   9.236
 1385POPC   GL220942   4.867  36.559   9.137
 1385POPC   C1A20943   5.134  35.975   8.824
 1385POPC   D2A20944   5.418  35.877   8.478
 1385POPC   C3A20945   5.284  36.078   8.104
 1385POPC   C4A20946   5.033  35.935   7.773
 1385POPC   C1B20947   4.845  36.391   8.766
 1385POPC   C2B20948   5.026  36.410   8.398
 1385POPC   C3B20949   4.866  36.369   8.011
 1385POPC   C4B20950   4.777  36.636   7.670
 1386POPC   NC320951  27.421  21.448   9.524
 1386POPC   PO420952  27.983  21.052   9.524
 1386POPC   GL120953  27.718  21.222   9.169
 1386POPC   GL220954  27.357  21.182   9.110
 1386POPC   C1A20955  27.768  21.391   8.750
 1386POPC   D2A20956  28.069  21.358   8.394
 1386POPC   C3A20957  28.009  21.637   8.038
 1386POPC   C4A20958  27.623  21.728   7.818
 1386POPC   C1B20959  27.255  21.239   8.706
 1386POPC   C2B20960  27.508  21.222   8.314
 1386POPC   C3B20961  27.575  21.225   7.867
 1386POPC   C4B20962  27.275  21.422   7.571
 1387POPC   NC320963   4.203  43.260   9.441
 1387POPC   PO420964   4.414  42.705   9.699
 1387POPC   GL120965   4.318  42.800   9.228
 1387POPC   GL220966   3.973  42.929   9.127
 1387POPC   C1A20967   4.468  43.092   8.871
 1387POPC   D2A20968   4.803  43.132   8.557
 1387POPC   C3A20969   4.651  43.191   8.140
 1387POPC   C4A20970   4.400  42.912   7.880
 1387POPC   C1B20971   3.945  43.184   8.780
 1387POPC   C2B20972   4.161  43.144   8.374
 1387POPC   C3B20973   4.021  43.248   7.946
 1387POPC   C4B20974   4.047  43.060   7.518
 1388POPC   NC320975  23.201  19.877   9.469
 1388POPC   PO420976  22.644  19.651   9.436
 1388POPC   GL120977  22.813  19.651   9.048
 1388POPC   GL220978  23.014  19.958   8.999
 1388POPC   C1A20979  22.675  19.629   8.613
 1388POPC   D2A20980  22.715  19.328   8.257
 1388POPC   C3A20981  22.891  19.550   7.902
 1388POPC   C4A20982  22.616  19.871   7.823
 1388POPC   C1B20983  23.330  20.156   8.718
 1388POPC   C2B20984  23.370  20.073   8.242
 1388POPC   C3B20985  23.102  20.037   7.822
 1388POPC   C4B20986  23.160  20.155   7.344
 1389POPC   NC320987   1.046  40.451   9.424
 1389POPC   PO420988   1.455  40.853   9.283
 1389POPC   GL120989   1.295  40.702   8.962
 1389POPC   GL220990   0.971  40.704   8.999
 1389POPC   C1A20991   1.195  40.760   8.553
 1389POPC   D2A20992   1.111  40.563   8.224
 1389POPC   C3A20993   1.256  40.830   7.991
 1389POPC   C4A20994   1.396  40.847   7.628
 1389POPC   C1B20995   0.782  40.996   8.761
 1389POPC   C2B20996   0.856  41.123   8.362
 1389POPC   C3B20997   0.739  40.887   8.015
 1389POPC   C4B20998   0.889  40.730   7.647
 1390POPC   NC320999   7.350  34.869   9.523
 1390POPC   PO421000   7.889  34.438   9.565
 1390POPC   GL121001   7.571  34.342   9.202
 1390POPC   GL221002   7.228  34.496   9.164
 1390POPC   C1A21003   7.649  34.284   8.756
 1390POPC   D2A21004   7.527  34.619   8.479
 1390POPC   C3A21005   7.635  34.627   8.057
 1390POPC   C4A21006   7.403  34.529   7.713
 1390POPC   C1B21007   7.170  34.783   8.857
 1390POPC   C2B21008   7.102  34.904   8.438
 1390POPC   C3B21009   7.065  34.659   8.070
 1390POPC   C4B21010   7.021  34.845   7.633
 1391POPC   NC321011  20.123  20.577   9.522
 1391POPC   PO421012  19.546  20.964   9.483
 1391POPC   GL121013  19.898  20.840   9.165
 1391POPC   GL221014  19.808  20.526   9.051
 1391POPC   C1A21015  20.097  20.747   8.733
 1391POPC   D2A21016  19.927  20.880   8.354
 1391POPC   C3A21017  19.797  20.637   8.009
 1391POPC   C4A21018  19.610  20.636   7.589
 1391POPC   C1B21019  19.688  20.476   8.598
 1391POPC   C2B21020  19.659  20.196   8.240
 1391POPC   C3B21021  19.404  20.185   7.857
 1391POPC   C4B21022  19.428  19.895   7.497
 1392POPC   NC321023  20.870  23.905   9.602
 1392POPC   PO421024  20.354  23.575   9.507
 1392POPC   GL121025  20.654  23.458   9.211
 1392POPC   GL221026  20.986  23.564   9.194
 1392POPC   C1A21027  20.687  23.395   8.776
 1392POPC   D2A21028  20.681  23.238   8.345
 1392POPC   C3A21029  20.523  23.620   8.197
 1392POPC   C4A21030  20.473  23.764   7.753
 1392POPC   C1B21031  21.147  23.676   8.790
 1392POPC   C2B21032  21.063  23.570   8.339
 1392POPC   C3B21033  20.909  23.525   7.891
 1392POPC   C4B21034  20.749  23.461   7.447
 1393POPC   NC321035   4.307  13.123   9.578
 1393POPC   PO421036   4.549  12.466   9.481
 1393POPC   GL121037   4.373  12.792   9.172
 1393POPC   GL221038   4.137  13.086   9.111
 1393POPC   C1A21039   4.200  12.735   8.760
 1393POPC   D2A21040   4.255  12.427   8.456
 1393POPC   C3A21041   4.273  12.580   8.057
 1393POPC   C4A21042   4.120  12.746   7.687
 1393POPC   C1B21043   3.884  13.144   8.741
 1393POPC   C2B21044   3.828  13.327   8.407
 1393POPC   C3B21045   4.121  13.284   8.118
 1393POPC   C4B21046   4.071  13.245   7.744
 1394POPC   NC321047  12.030  26.447   9.653
 1394POPC   PO421048  12.310  27.030   9.587
 1394POPC   GL121049  12.198  27.113   9.177
 1394POPC   GL221050  11.980  26.805   9.236
 1394POPC   C1A21051  12.369  26.972   8.779
 1394POPC   D2A21052  12.212  26.873   8.379
 1394POPC   C3A21053  12.366  26.961   7.940
 1394POPC   C4A21054  12.064  27.063   7.588
 1394POPC   C1B21055  11.760  27.012   8.906
 1394POPC   C2B21056  11.705  26.942   8.470
 1394POPC   C3B21057  11.851  26.870   8.039
 1394POPC   C4B21058  11.673  26.764   7.675
 1395POPC   NC321059  35.259  17.294   9.704
 1395POPC   PO421060  34.688  17.733   9.673
 1395POPC   GL121061  34.662  17.470   9.275
 1395POPC   GL221062  34.922  17.210   9.223
 1395POPC   C1A21063  34.395  17.392   8.868
 1395POPC   D2A21064  34.550  17.242   8.496
 1395POPC   C3A21065  34.410  17.411   8.134
 1395POPC   C4A21066  34.584  17.540   7.796
 1395POPC   C1B21067  34.907  17.429   8.841
 1395POPC   C2B21068  35.077  17.529   8.469
 1395POPC   C3B21069  34.993  17.700   8.080
 1395POPC   C4B21070  35.065  17.436   7.707
 1396POPC   NC321071  27.930  25.089   9.230
 1396POPC   PO421072  27.368  25.370   9.479
 1396POPC   GL121073  27.452  25.358   9.031
 1396POPC   GL221074  27.295  25.034   9.005
 1396POPC   C1A21075  27.652  25.583   8.629
 1396POPC   D2A21076  28.033  25.559   8.300
 1396POPC   C3A21077  27.884  25.355   7.902
 1396POPC   C4A21078  27.455  25.203   7.848
 1396POPC   C1B21079  27.105  24.927   8.590
 1396POPC   C2B21080  27.372  24.837   8.223
 1396POPC   C3B21081  27.783  24.845   7.998
 1396POPC   C4B21082  27.952  24.895   7.566
 1397POPC   NC321083  44.885  27.720   9.645
 1397POPC   PO421084  44.754  28.354   9.604
 1397POPC   GL121085  44.810  28.259   9.191
 1397POPC   GL221086  44.979  28.535   9.064
 1397POPC   C1A21087  44.565  28.332   8.805
 1397POPC   D2A21088  44.692  28.254   8.372
 1397POPC   C3A21089  44.476  28.241   7.960
 1397POPC   C4A21090  44.590  28.262   7.502
 1397POPC   C1B21091  44.846  28.720   8.625
 1397POPC   C2B21092  44.695  28.733   8.160
 1397POPC   C3B21093  44.769  28.724   7.679
 1397POPC   C4B21094  44.826  28.656   7.202
 1398POPC   NC321095  27.780   7.079   9.690
 1398POPC   PO421096  27.778   7.771   9.751
 1398POPC   GL121097  27.636   7.550   9.325
 1398POPC   GL221098  27.685   7.207   9.218
 1398POPC   C1A21099  27.466   7.581   8.880
 1398POPC   D2A21100  27.318   7.650   8.454
 1398POPC   C3A21101  27.474   7.507   8.089
 1398POPC   C4A21102  27.562   7.599   7.690
 1398POPC   C1B21103  27.910   7.364   8.861
 1398POPC   C2B21104  27.770   7.272   8.458
 1398POPC   C3B21105  27.959   7.375   8.091
 1398POPC   C4B21106  27.928   7.198   7.721
 1399POPC   NC321107   2.115   3.155   9.513
 1399POPC   PO421108   1.853   3.820   9.430
 1399POPC   GL121109   2.090   3.772   9.053
 1399POPC   GL221110   1.968   3.430   9.099
 1399POPC   C1A21111   2.326   3.491   8.740
 1399POPC   D2A21112   2.337   3.259   8.341
 1399POPC   C3A21113   2.143   3.530   8.062
 1399POPC   C4A21114   2.045   3.542   7.645
 1399POPC   C1B21115   1.713   3.415   8.737
 1399POPC   C2B21116   1.801   3.262   8.367
 1399POPC   C3B21117   1.844   3.088   7.983
 1399POPC   C4B21118   1.693   3.171   7.592
 1400POPC   NC321119   2.187  37.327   9.615
 1400POPC   PO421120   2.054  38.098   9.638
 1400POPC   GL121121   2.094  37.858   9.220
 1400POPC   GL221122   1.795  37.701   9.151
 1400POPC   C1A21123   2.117  37.699   8.758
 1400POPC   D2A21124   2.005  37.529   8.327
 1400POPC   C3A21125   1.930  37.796   7.989
 1400POPC   C4A21126   2.246  37.893   7.762
 1400POPC   C1B21127   1.642  37.461   8.815
 1400POPC   C2B21128   1.569  37.258   8.442
 1400POPC   C3B21129   1.583  37.408   8.034
 1400POPC   C4B21130   1.739  37.359   7.624
 1401POPC   NC321131  29.512   7.998   9.440
 1401POPC   PO421132  30.148   8.351   9.555
 1401POPC   GL121133  29.995   8.224   9.201
 1401POPC   GL221134  30.019   7.849   9.250
 1401POPC   C1A21135  30.176   8.339   8.766
 1401POPC   D2A21136  30.096   8.564   8.392
 1401POPC   C3A21137  29.746   8.439   8.136
 1401POPC   C4A21138  29.963   8.245   7.797
 1401POPC   C1B21139  29.839   7.961   8.823
 1401POPC   C2B21140  29.977   8.029   8.396
 1401POPC   C3B21141  30.022   7.804   8.015
 1401POPC   C4B21142  29.959   7.741   7.607
 1402POPC   NC321143  32.366  43.930   9.533
 1402POPC   PO421144  31.743  43.627   9.451
 1402POPC   GL121145  32.123  43.611   9.189
 1402POPC   GL221146  32.143  43.967   9.079
 1402POPC   C1A21147  32.316  43.615   8.742
 1402POPC   D2A21148  32.453  43.937   8.417
 1402POPC   C3A21149  32.489  43.802   7.969
 1402POPC   C4A21150  32.201  43.700   7.659
 1402POPC   C1B21151  32.003  44.139   8.682
 1402POPC   C2B21152  31.934  44.083   8.234
 1402POPC   C3B21153  32.145  44.215   7.858
 1402POPC   C4B21154  32.466  44.225   7.543
 1403POPC   NC321155  12.887   7.617   9.415
 1403POPC   PO421156  12.803   8.256   9.350
 1403POPC   GL121157  12.526   8.264   9.000
 1403POPC   GL221158  12.525   7.921   9.039
 1403POPC   C1A21159  12.552   8.289   8.556
 1403POPC   D2A21160  12.897   8.455   8.287
 1403POPC   C3A21161  13.137   8.173   8.000
 1403POPC   C4A21162  13.130   8.235   7.522
 1403POPC   C1B21163  12.835   7.878   8.744
 1403POPC   C2B21164  12.666   7.818   8.337
 1403POPC   C3B21165  12.480   8.097   8.092
 1403POPC   C4B21166  12.355   8.074   7.699
 1404POPC   NC321167  33.101  33.637   9.712
 1404POPC   PO421168  32.467  33.603   9.543
 1404POPC   GL121169  32.716  33.833   9.236
 1404POPC   GL221170  32.872  33.578   9.074
 1404POPC   C1A21171  32.879  33.974   8.791
 1404POPC   D2A21172  33.207  33.980   8.491
 1404POPC   C3A21173  33.057  33.885   8.098
 1404POPC   C4A21174  33.014  34.097   7.741
 1404POPC   C1B21175  33.080  33.486   8.710
 1404POPC   C2B21176  33.296  33.498   8.354
 1404POPC   C3B21177  33.232  33.412   7.962
 1404POPC   C4B21178  33.229  33.656   7.638
 1405POPC   NC321179  15.867  30.692   9.521
 1405POPC   PO421180  16.328  31.016   9.477
 1405POPC   GL121181  16.047  31.082   9.133
 1405POPC   GL221182  15.701  31.083   9.237
 1405POPC   C1A21183  16.128  30.953   8.711
 1405POPC   D2A21184  15.997  30.617   8.423
 1405POPC   C3A21185  16.052  30.629   7.966
 1405POPC   C4A21186  15.955  30.284   7.658
 1405POPC   C1B21187  15.675  30.768   8.860
 1405POPC   C2B21188  15.487  30.638   8.420
 1405POPC   C3B21189  15.562  30.480   7.998
 1405POPC   C4B21190  15.480  30.532   7.570
 1406POPC   NC321191  38.390  16.249   9.464
 1406POPC   PO421192  38.384  15.615   9.552
 1406POPC   GL121193  38.185  15.804   9.189
 1406POPC   GL221194  38.481  15.924   9.071
 1406POPC   C1A21195  38.127  15.868   8.727
 1406POPC   D2A21196  38.391  15.918   8.334
 1406POPC   C3A21197  38.288  15.850   7.866
 1406POPC   C4A21198  38.324  16.062   7.429
 1406POPC   C1B21199  38.733  16.176   8.806
 1406POPC   C2B21200  38.781  16.318   8.400
 1406POPC   C3B21201  38.697  16.190   8.005
 1406POPC   C4B21202  38.740  16.411   7.639
 1407POPC   NC321203  30.867  30.215   9.554
 1407POPC   PO421204  31.163  29.530   9.457
 1407POPC   GL121205  30.945  29.804   9.130
 1407POPC   GL221206  30.712  30.112   9.090
 1407POPC   C1A21207  30.746  29.760   8.722
 1407POPC   D2A21208  30.418  29.769   8.411
 1407POPC   C3A21209  30.568  29.810   7.978
 1407POPC   C4A21210  30.768  29.526   7.713
 1407POPC   C1B21211  30.447  30.172   8.740
 1407POPC   C2B21212  30.696  30.270   8.396
 1407POPC   C3B21213  30.879  30.208   8.026
 1407POPC   C4B21214  30.744  30.196   7.639
 1408POPC   NC321215  44.712  12.446   9.554
 1408POPC   PO421216  44.907  13.055   9.392
 1408POPC   GL121217  44.493  12.927   9.211
 1408POPC   GL221218  44.575  12.670   9.093
 1408POPC   C1A21219  44.410  13.019   8.761
 1408POPC   D2A21220  44.657  13.005   8.383
 1408POPC   C3A21221  44.451  12.975   7.993
 1408POPC   C4A21222  44.450  12.762   7.553
 1408POPC   C1B21223  44.719  12.443   8.757
 1408POPC   C2B21224  44.821  12.515   8.359
 1408POPC   C3B21225  44.694  12.507   7.950
 1408POPC   C4B21226   0.006  12.468   7.623
 1409POPC   NC321227   5.258   8.378   9.437
 1409POPC   PO421228   5.174   7.722   9.299
 1409POPC   GL121229   5.056   8.057   9.079
 1409POPC   GL221230   5.450   8.098   9.047
 1409POPC   C1A21231   4.816   8.012   8.694
 1409POPC   D2A21232   5.012   7.952   8.275
 1409POPC   C3A21233   4.792   8.107   7.957
 1409POPC   C4A21234   4.855   7.884   7.616
 1409POPC   C1B21235   5.311   8.166   8.633
 1409POPC   C2B21236   5.373   8.338   8.223
 1409POPC   C3B21237   5.277   8.172   7.807
 1409POPC   C4B21238   5.199   8.122   7.353
 1410POPC   NC321239  32.955  18.769   9.430
 1410POPC   PO421240  33.036  18.096   9.702
 1410POPC   GL121241  33.099  18.222   9.233
 1410POPC   GL221242  33.334  18.499   9.166
 1410POPC   C1A21243  32.926  18.113   8.824
 1410POPC   D2A21244  32.613  18.046   8.477
 1410POPC   C3A21245  32.768  17.983   8.052
 1410POPC   C4A21246  32.640  18.180   7.677
 1410POPC   C1B21247  33.085  18.613   8.804
 1410POPC   C2B21248  32.897  18.470   8.426
 1410POPC   C3B21249  32.969  18.558   7.985
 1410POPC   C4B21250  33.142  18.248   7.717
 1411POPC   NC321251  33.668  33.514   9.454
 1411POPC   PO421252  33.310  34.071   9.679
 1411POPC   GL121253  33.502  33.940   9.222
 1411POPC   GL221254  33.902  33.856   9.141
 1411POPC   C1A21255  33.543  33.720   8.787
 1411POPC   D2A21256  33.766  33.681   8.358
 1411POPC   C3A21257  33.581  33.877   7.976
 1411POPC   C4A21258  33.857  34.174   7.744
 1411POPC   C1B21259  34.021  33.494   8.795
 1411POPC   C2B21260  34.178  33.308   8.375
 1411POPC   C3B21261  34.003  33.175   7.947
 1411POPC   C4B21262  33.702  33.430   7.738
 1412POPC   NC321263  16.668  38.815   9.902
 1412POPC   PO421264  16.701  39.403   9.588
 1412POPC   GL121265  16.966  39.297   9.267
 1412POPC   GL221266  16.670  39.113   9.160
 1412POPC   C1A21267  17.055  39.230   8.839
 1412POPC   D2A21268  16.803  39.157   8.487
 1412POPC   C3A21269  16.891  39.324   8.074
 1412POPC   C4A21270  16.808  39.176   7.670
 1412POPC   C1B21271  16.377  39.015   8.834
 1412POPC   C2B21272  16.368  38.893   8.422
 1412POPC   C3B21273  16.398  39.181   8.121
 1412POPC   C4B21274  16.326  39.302   7.740
 1413POPC   NC321275  17.772   2.751   9.451
 1413POPC   PO421276  17.062   2.608   9.453
 1413POPC   GL121277  17.370   2.693   9.097
 1413POPC   GL221278  17.737   2.566   8.990
 1413POPC   C1A21279  17.430   2.915   8.697
 1413POPC   D2A21280  17.301   3.184   8.341
 1413POPC   C3A21281  17.388   2.986   7.930
 1413POPC   C4A21282  17.273   3.012   7.474
 1413POPC   C1B21283  17.483   2.385   8.691
 1413POPC   C2B21284  17.437   2.605   8.299
 1413POPC   C3B21285  17.746   2.608   7.985
 1413POPC   C4B21286  17.509   2.537   7.640
 1414POPC   NC321287  42.723   5.808   9.431
 1414POPC   PO421288  43.401   6.007   9.526
 1414POPC   GL121289  43.174   5.959   9.136
 1414POPC   GL221290  42.871   6.158   9.074
 1414POPC   C1A21291  43.136   5.776   8.732
 1414POPC   D2A21292  43.358   5.579   8.381
 1414POPC   C3A21293  43.084   5.522   8.014
 1414POPC   C4A21294  43.195   5.567   7.564
 1414POPC   C1B21295  43.160   6.277   8.698
 1414POPC   C2B21296  43.405   6.121   8.334
 1414POPC   C3B21297  43.256   6.000   7.894
 1414POPC   C4B21298  42.972   6.219   7.589
 1415POPC   NC321299   6.300  11.248   9.539
 1415POPC   PO421300   5.622  11.067   9.457
 1415POPC   GL121301   5.923  11.125   9.107
 1415POPC   GL221302   6.108  11.437   9.096
 1415POPC   C1A21303   6.142  11.123   8.697
 1415POPC   D2A21304   6.095  10.905   8.338
 1415POPC   C3A21305   6.157  11.109   7.951
 1415POPC   C4A21306   5.846  11.228   7.668
 1415POPC   C1B21307   5.833  11.515   8.725
 1415POPC   C2B21308   5.980  11.450   8.295
 1415POPC   C3B21309   6.054  11.640   7.896
 1415POPC   C4B21310   6.039  11.643   7.433
 1416POPC   NC321311  41.993  37.677   9.419
 1416POPC   PO421312  42.556  37.542   9.763
 1416POPC   GL121313  42.509  37.737   9.302
 1416POPC   GL221314  42.320  37.500   9.064
 1416POPC   C1A21315  42.560  37.871   8.831
 1416POPC   D2A21316  42.443  37.651   8.468
 1416POPC   C3A21317  42.457  37.811   8.042
 1416POPC   C4A21318  42.455  37.763   7.606
 1416POPC   C1B21319  42.109  37.303   8.684
 1416POPC   C2B21320  41.992  37.497   8.270
 1416POPC   C3B21321  42.068  37.482   7.818
 1416POPC   C4B21322  42.038  37.588   7.364
 1417POPC   NC321323  43.996   3.897   9.349
 1417POPC   PO421324  43.722   3.328   9.627
 1417POPC   GL121325  43.775   3.457   9.193
 1417POPC   GL221326  44.132   3.389   9.197
 1417POPC   C1A21327  43.595   3.774   8.847
 1417POPC   D2A21328  43.625   3.630   8.431
 1417POPC   C3A21329  43.605   3.803   8.016
 1417POPC   C4A21330  43.817   3.547   7.710
 1417POPC   C1B21331  44.061   3.575   8.768
 1417POPC   C2B21332  44.247   3.832   8.442
 1417POPC   C3B21333  44.126   3.877   7.991
 1417POPC   C4B21334  44.280   3.826   7.576
 1418POPC   NC321335  32.236   8.551   9.462
 1418POPC   PO421336  32.320   7.853   9.521
 1418POPC   GL121337  32.076   8.112   9.220
 1418POPC   GL221338  32.349   8.305   9.029
 1418POPC   C1A21339  31.925   8.135   8.790
 1418POPC   D2A21340  32.247   8.250   8.495
 1418POPC   C3A21341  32.278   8.233   8.060
 1418POPC   C4A21342  31.998   8.237   7.708
 1418POPC   C1B21343  32.539   8.590   8.728
 1418POPC   C2B21344  32.482   8.704   8.325
 1418POPC   C3B21345  32.586   8.617   7.920
 1418POPC   C4B21346  32.454   8.387   7.569
 1419POPC   NC321347  42.436  26.689   9.655
 1419POPC   PO421348  42.000  27.031   9.258
 1419POPC   GL121349  42.182  26.838   8.980
 1419POPC   GL221350  42.237  26.557   9.209
 1419POPC   C1A21351  42.120  26.923   8.543
 1419POPC   D2A21352  42.474  26.942   8.274
 1419POPC   C3A21353  42.428  26.941   7.849
 1419POPC   C4A21354  42.407  26.830   7.413
 1419POPC   C1B21355  42.437  26.344   8.866
 1419POPC   C2B21356  42.359  26.440   8.422
 1419POPC   C3B21357  42.576  26.488   8.054
 1419POPC   C4B21358  42.471  26.387   7.655
 1420POPC   NC321359  44.854   0.692   9.494
 1420POPC   PO421360  44.426   0.100   9.566
 1420POPC   GL121361  44.570   0.067   9.155
 1420POPC   GL221362  44.795   0.356   9.099
 1420POPC   C1A21363  44.498   0.160   8.733
 1420POPC   D2A21364  44.735   0.309   8.394
 1420POPC   C3A21365  44.519   0.377   8.015
 1420POPC   C4A21366  44.358   0.057   7.730
 1420POPC   C1B21367  44.972   0.603   8.743
 1420POPC   C2B21368  44.944   0.766   8.270
 1420POPC   C3B21369  44.921   0.657   7.786
 1420POPC   C4B21370  44.986   0.652   7.293
 1421POPC   NC321371  35.361  24.804   9.857
 1421POPC   PO421372  35.304  25.444   9.634
 1421POPC   GL121373  35.387  25.318   9.182
 1421POPC   GL221374  35.343  24.941   9.166
 1421POPC   C1A21375  35.533  25.510   8.775
 1421POPC   D2A21376  35.583  25.742   8.379
 1421POPC   C3A21377  35.532  25.448   8.035
 1421POPC   C4A21378  35.158  25.375   7.804
 1421POPC   C1B21379  35.276  25.060   8.736
 1421POPC   C2B21380  35.435  25.050   8.358
 1421POPC   C3B21381  35.311  24.910   7.971
 1421POPC   C4B21382  35.179  24.913   7.525
 1422POPC   NC321383  19.939  34.542   9.594
 1422POPC   PO421384  19.210  34.558   9.547
 1422POPC   GL121385  19.572  34.449   9.243
 1422POPC   GL221386  19.755  34.725   9.138
 1422POPC   C1A21387  19.564  34.386   8.791
 1422POPC   D2A21388  19.516  34.221   8.390
 1422POPC   C3A21389  19.654  34.410   8.002
 1422POPC   C4A21390  19.591  34.281   7.567
 1422POPC   C1B21391  19.824  34.830   8.698
 1422POPC   C2B21392  20.025  34.882   8.278
 1422POPC   C3B21393  19.923  34.812   7.822
 1422POPC   C4B21394  20.060  34.904   7.384
 1423POPC   NC321395   5.682  38.579   9.480
 1423POPC   PO421396   6.317  38.210   9.506
 1423POPC   GL121397   6.067  38.375   9.199
 1423POPC   GL221398   5.766  38.131   9.210
 1423POPC   C1A21399   6.093  38.667   8.854
 1423POPC   D2A21400   5.954  38.628   8.430
 1423POPC   C3A21401   6.064  38.753   8.038
 1423POPC   C4A21402   5.954  38.598   7.665
 1423POPC   C1B21403   5.725  38.332   8.807
 1423POPC   C2B21404   5.598  38.266   8.392
 1423POPC   C3B21405   5.560  38.424   7.966
 1423POPC   C4B21406   5.556  38.271   7.551
 1424POPC   NC321407  22.344  28.050   9.509
 1424POPC   PO421408  21.771  27.586   9.525
 1424POPC   GL121409  21.974  27.720   9.089
 1424POPC   GL221410  22.340  27.810   9.060
 1424POPC   C1A21411  22.101  27.568   8.635
 1424POPC   D2A21412  22.304  27.368   8.257
 1424POPC   C3A21413  22.088  27.488   7.920
 1424POPC   C4A21414  21.724  27.772   7.881
 1424POPC   C1B21415  22.515  27.862   8.649
 1424POPC   C2B21416  22.373  27.871   8.226
 1424POPC   C3B21417  22.495  27.797   7.815
 1424POPC   C4B21418  22.611  27.888   7.373
 1425POPC   NC321419  38.887  22.380   9.381
 1425POPC   PO421420  39.273  21.883   9.620
 1425POPC   GL121421  39.398  21.960   9.205
 1425POPC   GL221422  39.067  21.957   9.115
 1425POPC   C1A21423  39.570  22.086   8.802
 1425POPC   D2A21424  39.390  22.213   8.412
 1425POPC   C3A21425  39.572  22.247   8.066
 1425POPC   C4A21426  39.437  22.080   7.689
 1425POPC   C1B21427  39.050  21.952   8.680
 1425POPC   C2B21428  38.952  21.952   8.235
 1425POPC   C3B21429  38.957  22.183   7.848
 1425POPC   C4B21430  38.767  22.583   7.750
 1426POPC   NC321431  16.446   4.454   9.507
 1426POPC   PO421432  15.752   4.530   9.561
 1426POPC   GL121433  16.047   4.489   9.177
 1426POPC   GL221434  15.820   4.288   8.957
 1426POPC   C1A21435  16.255   4.417   8.758
 1426POPC   D2A21436  16.012   4.122   8.514
 1426POPC   C3A21437  16.105   4.169   8.129
 1426POPC   C4A21438  15.968   4.216   7.720
 1426POPC   C1B21439  15.614   3.913   8.793
 1426POPC   C2B21440  15.462   3.855   8.395
 1426POPC   C3B21441  15.654   3.919   8.001
 1426POPC   C4B21442  15.514   4.042   7.598
 1427POPC   NC321443   9.599  14.719   9.582
 1427POPC   PO421444   9.766  15.360   9.580
 1427POPC   GL121445   9.826  15.134   9.202
 1427POPC   GL221446   9.555  14.911   9.100
 1427POPC   C1A21447   9.762  15.234   8.771
 1427POPC   D2A21448   9.881  15.514   8.473
 1427POPC   C3A21449   9.733  15.332   8.098
 1427POPC   C4A21450   9.976  15.204   7.752
 1427POPC   C1B21451   9.654  14.741   8.668
 1427POPC   C2B21452   9.714  14.779   8.174
 1427POPC   C3B21453   9.754  14.753   7.690
 1427POPC   C4B21454   9.539  14.701   7.269
 1428POPC   NC321455  23.451  32.478   9.400
 1428POPC   PO421456  23.785  31.988   9.340
 1428POPC   GL121457  23.653  31.933   8.964
 1428POPC   GL221458  24.012  31.888   8.895
 1428POPC   C1A21459  23.438  32.179   8.676
 1428POPC   D2A21460  23.270  32.102   8.270
 1428POPC   C3A21461  23.552  32.246   7.947
 1428POPC   C4A21462  23.599  32.636   7.713
 1428POPC   C1B21463  23.974  32.298   8.731
 1428POPC   C2B21464  23.834  32.425   8.343
 1428POPC   C3B21465  24.012  32.468   7.939
 1428POPC   C4B21466  23.995  32.160   7.654
 1429POPC   NC321467  32.173  33.977   9.561
 1429POPC   PO421468  32.429  34.544   9.662
 1429POPC   GL121469  32.428  34.571   9.189
 1429POPC   GL221470  32.426  34.917   9.039
 1429POPC   C1A21471  32.209  34.529   8.771
 1429POPC   D2A21472  31.991  34.461   8.356
 1429POPC   C3A21473  32.157  34.234   8.007
 1429POPC   C4A21474  32.102  34.354   7.573
 1429POPC   C1B21475  32.609  34.938   8.683
 1429POPC   C2B21476  32.467  34.689   8.337
 1429POPC   C3B21477  32.266  34.750   7.938
 1429POPC   C4B21478  32.467  34.748   7.538
 1430POPC   NC321479  35.183  18.557  10.121
 1430POPC   PO421480  35.576  18.192   9.637
 1430POPC   GL121481  35.410  18.161   9.218
 1430POPC   GL221482  35.693  18.365   9.138
 1430POPC   C1A21483  35.130  18.316   8.852
 1430POPC   D2A21484  34.860  18.225   8.475
 1430POPC   C3A21485  35.060  18.241   8.069
 1430POPC   C4A21486  35.107  18.499   7.705
 1430POPC   C1B21487  35.614  18.232   8.724
 1430POPC   C2B21488  35.545  18.382   8.262
 1430POPC   C3B21489  35.580  18.329   7.785
 1430POPC   C4B21490  35.479  18.539   7.373
 1431POPC   NC321491   3.993  31.809   9.917
 1431POPC   PO421492   4.022  32.290   9.399
 1431POPC   GL121493   3.872  32.199   8.991
 1431POPC   GL221494   3.500  32.305   9.006
 1431POPC   C1A21495   3.933  32.015   8.583
 1431POPC   D2A21496   3.587  32.119   8.310
 1431POPC   C3A21497   3.409  31.937   7.962
 1431POPC   C4A21498   3.656  32.215   7.736
 1431POPC   C1B21499   3.099  32.269   8.724
 1431POPC   C2B21500   3.083  32.241   8.262
 1431POPC   C3B21501   3.187  32.397   7.832
 1431POPC   C4B21502   3.260  32.178   7.422
 1432POPC   NC321503  18.719  34.669   9.571
 1432POPC   PO421504  18.211  34.301   9.585
 1432POPC   GL121505  18.283  34.645   9.238
 1432POPC   GL221506  18.589  34.827   9.119
 1432POPC   C1A21507  18.195  34.728   8.780
 1432POPC   D2A21508  17.907  34.560   8.456
 1432POPC   C3A21509  18.135  34.588   8.067
 1432POPC   C4A21510  18.019  34.757   7.683
 1432POPC   C1B21511  18.802  34.791   8.749
 1432POPC   C2B21512  18.614  34.764   8.386
 1432POPC   C3B21513  18.700  34.552   8.037
 1432POPC   C4B21514  18.503  34.634   7.689
 1433POPC   NC321515  18.479  16.038   9.498
 1433POPC   PO421516  18.056  15.539   9.372
 1433POPC   GL121517  18.413  15.717   9.086
 1433POPC   GL221518  18.487  16.104   9.006
 1433POPC   C1A21519  18.556  15.718   8.660
 1433POPC   D2A21520  18.562  16.041   8.336
 1433POPC   C3A21521  18.339  15.984   7.952
 1433POPC   C4A21522  18.059  16.136   7.604
 1433POPC   C1B21523  18.755  16.327   8.719
 1433POPC   C2B21524  18.648  16.559   8.347
 1433POPC   C3B21525  18.784  16.409   7.976
 1433POPC   C4B21526  18.591  16.294   7.622
 1434POPC   NC321527  44.305   4.846   9.414
 1434POPC   PO421528  44.864   5.228   9.459
 1434POPC   GL121529  44.729   4.972   9.111
 1434POPC   GL221530  44.758   4.645   9.244
 1434POPC   C1A21531  44.528   4.920   8.668
 1434POPC   D2A21532  44.354   5.223   8.341
 1434POPC   C3A21533  44.480   5.220   7.922
 1434POPC   C4A21534  44.917   5.225   7.867
 1434POPC   C1B21535  44.860   4.557   8.822
 1434POPC   C2B21536  44.844   4.523   8.397
 1434POPC   C3B21537  44.601   4.768   8.138
 1434POPC   C4B21538  44.310   4.749   7.798
 1435POPC   NC321539  17.496  43.468   9.614
 1435POPC   PO421540  17.342  42.868   9.566
 1435POPC   GL121541  17.479  43.121   9.210
 1435POPC   GL221542  17.311  43.416   9.140
 1435POPC   C1A21543  17.395  43.060   8.760
 1435POPC   D2A21544  17.563  43.048   8.347
 1435POPC   C3A21545  17.566  42.764   7.990
 1435POPC   C4A21546  17.656  42.875   7.548
 1435POPC   C1B21547  17.705  43.457   8.873
 1435POPC   C2B21548  17.909  43.447   8.430
 1435POPC   C3B21549  17.816  43.294   7.982
 1435POPC   C4B21550  17.370  43.207   7.837
 1436POPC   NC321551  10.235  11.108   9.490
 1436POPC   PO421552  10.787  11.530   9.563
 1436POPC   GL121553  10.550  11.421   9.168
 1436POPC   GL221554  10.197  11.458   9.132
 1436POPC   C1A21555  10.486  11.308   8.723
 1436POPC   D2A21556  10.377  11.469   8.334
 1436POPC   C3A21557  10.717  11.374   8.099
 1436POPC   C4A21558  10.781  11.247   7.695
 1436POPC   C1B21559  10.042  11.121   8.858
 1436POPC   C2B21560  10.157  10.936   8.442
 1436POPC   C3B21561  10.292  11.054   8.013
 1436POPC   C4B21562  10.294  11.468   7.766
 1437POPC   NC321563  26.792   7.049   9.836
 1437POPC   PO421564  26.713   6.469   9.530
 1437POPC   GL121565  26.788   6.573   9.091
 1437POPC   GL221566  27.088   6.394   9.044
 1437POPC   C1A21567  26.982   6.805   8.712
 1437POPC   D2A21568  27.134   6.672   8.278
 1437POPC   C3A21569  26.931   6.926   8.023
 1437POPC   C4A21570  26.706   6.768   7.705
 1437POPC   C1B21571  27.312   6.405   8.666
 1437POPC   C2B21572  27.209   6.152   8.295
 1437POPC   C3B21573  27.145   6.211   7.878
 1437POPC   C4B21574  27.210   6.622   7.703
 1438POPC   NC321575  26.850  18.528   9.533
 1438POPC   PO421576  27.080  19.207   9.455
 1438POPC   GL121577  26.788  19.107   9.110
 1438POPC   GL221578  26.733  18.771   9.114
 1438POPC   C1A21579  26.708  19.008   8.661
 1438POPC   D2A21580  26.928  19.033   8.268
 1438POPC   C3A21581  26.685  19.268   7.941
 1438POPC   C4A21582  26.420  18.991   7.702
 1438POPC   C1B21583  27.072  18.674   8.824
 1438POPC   C2B21584  27.067  18.532   8.406
 1438POPC   C3B21585  27.123  18.571   7.975
 1438POPC   C4B21586  26.931  18.881   7.711
 1439POPC   NC321587  36.532   8.438   9.596
 1439POPC   PO421588  36.973   7.956   9.534
 1439POPC   GL121589  36.771   8.163   9.197
 1439POPC   GL221590  36.928   8.475   9.251
 1439POPC   C1A21591  36.604   8.169   8.771
 1439POPC   D2A21592  36.828   8.160   8.385
 1439POPC   C3A21593  36.693   8.098   7.949
 1439POPC   C4A21594  36.970   8.279   7.631
 1439POPC   C1B21595  36.857   8.588   8.848
 1439POPC   C2B21596  36.748   8.670   8.432
 1439POPC   C3B21597  36.954   8.549   8.057
 1439POPC   C4B21598  37.350   8.607   7.800
 1440POPC   NC321599  38.014  31.341   9.783
 1440POPC   PO421600  38.557  30.996   9.742
 1440POPC   GL121601  38.428  31.135   9.282
 1440POPC   GL221602  38.469  31.495   9.229
 1440POPC   C1A21603  38.634  31.277   8.840
 1440POPC   D2A21604  38.716  31.551   8.483
 1440POPC   C3A21605  38.587  31.410   8.105
 1440POPC   C4A21606  38.560  31.440   7.698
 1440POPC   C1B21607  38.263  31.657   8.794
 1440POPC   C2B21608  38.283  31.810   8.342
 1440POPC   C3B21609  38.134  31.603   7.956
 1440POPC   C4B21610  38.002  31.524   7.529
 1441POPC   NC321611  12.217  32.637   9.417
 1441POPC   PO421612  12.134  31.993   9.554
 1441POPC   GL121613  12.106  32.189   9.158
 1441POPC   GL221614  12.442  32.192   9.058
 1441POPC   C1A21615  11.932  32.104   8.736
 1441POPC   D2A21616  11.827  31.852   8.368
 1441POPC   C3A21617  11.853  32.153   8.037
 1441POPC   C4A21618  12.034  32.373   7.694
 1441POPC   C1B21619  12.327  32.453   8.713
 1441POPC   C2B21620  12.278  32.328   8.285
 1441POPC   C3B21621  12.503  32.430   7.922
 1441POPC   C4B21622  12.472  32.475   7.492
 1442POPC   NC321623  36.899  40.223   9.735
 1442POPC   PO421624  36.551  39.684   9.420
 1442POPC   GL121625  36.692  39.870   9.057
 1442POPC   GL221626  36.973  40.056   9.213
 1442POPC   C1A21627  36.767  40.236   8.803
 1442POPC   D2A21628  36.995  40.254   8.486
 1442POPC   C3A21629  36.757  40.245   8.190
 1442POPC   C4A21630  36.839  40.248   7.807
 1442POPC   C1B21631  37.172  39.866   8.799
 1442POPC   C2B21632  37.236  39.793   8.312
 1442POPC   C3B21633  37.174  39.858   7.854
 1442POPC   C4B21634  37.347  39.646   7.465
 1443POPC   NC321635  20.233  23.136   9.412
 1443POPC   PO421636  20.933  22.876   9.478
 1443POPC   GL121637  20.648  22.939   9.137
 1443POPC   GL221638  20.373  22.680   9.163
 1443POPC   C1A21639  20.663  22.865   8.697
 1443POPC   D2A21640  20.830  22.702   8.292
 1443POPC   C3A21641  20.647  22.885   7.918
 1443POPC   C4A21642  20.429  23.276   7.853
 1443POPC   C1B21643  20.186  22.643   8.740
 1443POPC   C2B21644  20.280  22.872   8.329
 1443POPC   C3B21645  20.126  22.876   7.895
 1443POPC   C4B21646  20.212  22.546   7.630
 1444POPC   NC321647  40.643  27.920   9.591
 1444POPC   PO421648  40.459  27.343   9.243
 1444POPC   GL121649  40.807  27.599   9.067
 1444POPC   GL221650  40.901  27.948   9.156
 1444POPC   C1A21651  41.100  27.475   8.720
 1444POPC   D2A21652  41.315  27.570   8.299
 1444POPC   C3A21653  41.014  27.484   7.951
 1444POPC   C4A21654  40.595  27.215   7.896
 1444POPC   C1B21655  40.913  27.964   8.743
 1444POPC   C2B21656  40.720  27.995   8.370
 1444POPC   C3B21657  40.714  27.910   7.960
 1444POPC   C4B21658  41.057  27.943   7.724
 1445POPC   NC321659  19.481   3.026   9.379
 1445POPC   PO421660  18.864   2.710   9.461
 1445POPC   GL121661  19.114   2.695   9.149
 1445POPC   GL221662  19.097   3.018   9.048
 1445POPC   C1A21663  18.931   2.624   8.772
 1445POPC   D2A21664  19.096   2.544   8.423
 1445POPC   C3A21665  18.831   2.446   8.104
 1445POPC   C4A21666  19.001   2.715   7.799
 1445POPC   C1B21667  19.131   3.084   8.631
 1445POPC   C2B21668  19.423   2.971   8.325
 1445POPC   C3B21669  19.432   2.998   7.897
 1445POPC   C4B21670  19.432   3.041   7.428
 1446POPC   NC321671  21.554  43.533   9.323
 1446POPC   PO421672  21.790  42.880   9.353
 1446POPC   GL121673  21.501  42.941   9.027
 1446POPC   GL221674  21.202  43.117   9.069
 1446POPC   C1A21675  21.332  42.846   8.636
 1446POPC   D2A21676  21.352  43.065   8.252
 1446POPC   C3A21677  21.334  42.884   7.857
 1446POPC   C4A21678  21.481  42.973   7.443
 1446POPC   C1B21679  21.386  43.358   8.706
 1446POPC   C2B21680  21.174  43.545   8.345
 1446POPC   C3B21681  21.080  43.369   7.935
 1446POPC   C4B21682  21.229  43.407   7.487
 1447POPC   NC321683   3.835  40.640   9.625
 1447POPC   PO421684   3.240  40.696   9.459
 1447POPC   GL121685   3.346  40.928   9.102
 1447POPC   GL221686   3.719  40.972   9.164
 1447POPC   C1A21687   3.288  40.787   8.670
 1447POPC   D2A21688   3.530  40.546   8.356
 1447POPC   C3A21689   3.394  40.568   7.914
 1447POPC   C4A21690   3.404  40.551   7.433
 1447POPC   C1B21691   3.847  40.757   8.781
 1447POPC   C2B21692   4.038  40.778   8.387
 1447POPC   C3B21693   3.879  40.740   7.999
 1447POPC   C4B21694   3.700  40.883   7.635
 1448POPC   NC321695  44.157  22.824   9.390
 1448POPC   PO421696  43.483  23.006   9.457
 1448POPC   GL121697  43.684  22.940   9.063
 1448POPC   GL221698  44.031  23.098   8.980
 1448POPC   C1A21699  43.643  23.147   8.641
 1448POPC   D2A21700  43.617  23.345   8.225
 1448POPC   C3A21701  43.859  23.032   7.961
 1448POPC   C4A21702  43.847  22.635   7.718
 1448POPC   C1B21703  43.974  22.711   8.702
 1448POPC   C2B21704  44.046  22.504   8.286
 1448POPC   C3B21705  44.281  22.674   7.960
 1448POPC   C4B21706  44.340  23.061   7.761
 1449POPC   NC321707  17.226   4.771   9.510
 1449POPC   PO421708  17.661   5.190   9.547
 1449POPC   GL121709  17.541   5.210   9.092
 1449POPC   GL221710  17.265   4.992   9.047
 1449POPC   C1A21711  17.457   5.248   8.627
 1449POPC   D2A21712  17.611   5.045   8.254
 1449POPC   C3A21713  17.638   5.286   7.867
 1449POPC   C4A21714  17.669   5.001   7.531
 1449POPC   C1B21715  17.250   4.769   8.658
 1449POPC   C2B21716  17.093   4.924   8.282
 1449POPC   C3B21717  17.272   4.896   7.889
 1449POPC   C4B21718  17.217   4.717   7.530
 1450POPC   NC321719  35.313   2.654   9.490
 1450POPC   PO421720  34.880   3.221   9.277
 1450POPC   GL121721  35.223   3.067   8.981
 1450POPC   GL221722  35.511   2.874   9.080
 1450POPC   C1A21723  35.327   2.984   8.577
 1450POPC   D2A21724  35.052   3.001   8.240
 1450POPC   C3A21725  35.309   3.020   7.886
 1450POPC   C4A21726  35.425   2.631   7.821
 1450POPC   C1B21727  35.301   2.549   8.851
 1450POPC   C2B21728  35.281   2.497   8.408
 1450POPC   C3B21729  35.610   2.314   8.151
 1450POPC   C4B21730  35.902   2.447   7.853
 1451POPC   NC321731  23.467  11.125   9.567
 1451POPC   PO421732  23.817  11.724   9.717
 1451POPC   GL121733  23.561  11.543   9.307
 1451POPC   GL221734  23.799  11.286   9.222
 1451POPC   C1A21735  23.500  11.513   8.834
 1451POPC   D2A21736  23.660  11.322   8.429
 1451POPC   C3A21737  23.441  11.235   8.023
 1451POPC   C4A21738  23.475  11.264   7.600
 1451POPC   C1B21739  23.851  11.090   8.853
 1451POPC   C2B21740  24.088  11.010   8.537
 1451POPC   C3B21741  24.087  11.249   8.143
 1451POPC   C4B21742  23.948  11.144   7.725
 1452POPC   NC321743   0.509  37.383   9.464
 1452POPC   PO421744   0.888  36.821   9.503
 1452POPC   GL121745   0.585  36.911   9.189
 1452POPC   GL221746   0.767  36.984   8.898
 1452POPC   C1A21747   0.242  36.966   8.879
 1452POPC   D2A21748   0.290  37.037   8.415
 1452POPC   C3A21749   0.366  36.874   7.958
 1452POPC   C4A21750   0.281  36.817   7.480
 1452POPC   C1B21751   0.569  36.647   8.690
 1452POPC   C2B21752   0.455  36.498   8.290
 1452POPC   C3B21753   0.741  36.498   7.933
 1452POPC   C4B21754   0.778  36.739   7.580
 1453POPC   NC321755  23.264   2.222   9.364
 1453POPC   PO421756  22.610   2.152   9.601
 1453POPC   GL121757  22.789   2.167   9.170
 1453POPC   GL221758  22.934   1.819   9.167
 1453POPC   C1A21759  22.822   2.019   8.718
 1453POPC   D2A21760  23.068   2.064   8.354
 1453POPC   C3A21761  22.858   1.895   8.002
 1453POPC   C4A21762  22.899   2.142   7.628
 1453POPC   C1B21763  23.268   1.799   8.808
 1453POPC   C2B21764  23.536   1.798   8.443
 1453POPC   C3B21765  23.362   1.752   8.047
 1453POPC   C4B21766  23.200   1.739   7.645
 1454POPC   NC321767  18.628   9.371   9.503
 1454POPC   PO421768  18.083   9.068   9.543
 1454POPC   GL121769  18.411   8.966   9.202
 1454POPC   GL221770  18.536   8.611   9.144
 1454POPC   C1A21771  18.618   9.023   8.793
 1454POPC   D2A21772  18.393   9.061   8.382
 1454POPC   C3A21773  18.475   9.089   7.938
 1454POPC   C4A21774  18.613   8.830   7.590
 1454POPC   C1B21775  18.236   8.672   8.777
 1454POPC   C2B21776  17.999   8.738   8.388
 1454POPC   C3B21777  17.962   8.945   8.001
 1454POPC   C4B21778  18.103   8.804   7.621
 1455POPC   NC321779  15.433  40.553   9.350
 1455POPC   PO421780  14.847  40.669   9.444
 1455POPC   GL121781  15.058  40.779   9.088
 1455POPC   GL221782  15.178  41.084   9.167
 1455POPC   C1A21783  15.191  40.624   8.682
 1455POPC   D2A21784  15.520  40.491   8.380
 1455POPC   C3A21785  15.448  40.597   7.976
 1455POPC   C4A21786  15.013  40.659   7.913
 1455POPC   C1B21787  15.444  41.100   8.791
 1455POPC   C2B21788  15.366  40.986   8.368
 1455POPC   C3B21789  15.332  41.103   7.967
 1455POPC   C4B21790  15.061  41.106   7.630
 1456POPC   NC321791  11.686  43.367   9.823
 1456POPC   PO421792  11.422  42.779   9.533
 1456POPC   GL121793  11.406  42.924   9.095
 1456POPC   GL221794  11.064  43.072   9.102
 1456POPC   C1A21795  11.651  42.836   8.696
 1456POPC   D2A21796  11.829  42.802   8.241
 1456POPC   C3A21797  11.527  42.794   7.911
 1456POPC   C4A21798  11.150  42.932   7.931
 1456POPC   C1B21799  11.065  43.108   8.660
 1456POPC   C2B21800  11.376  43.100   8.371
 1456POPC   C3B21801  11.593  43.268   8.056
 1456POPC   C4B21802  11.421  43.255   7.649
 1457POPC   NC321803  21.048  11.168   9.264
 1457POPC   PO421804  20.498  11.204   9.628
 1457POPC   GL121805  20.466  11.334   9.203
 1457POPC   GL221806  20.719  11.576   9.160
 1457POPC   C1A21807  20.498  11.131   8.802
 1457POPC   D2A21808  20.264  10.947   8.459
 1457POPC   C3A21809  20.439  11.038   8.055
 1457POPC   C4A21810  20.360  11.384   7.772
 1457POPC   C1B21811  20.527  11.659   8.755
 1457POPC   C2B21812  20.499  11.514   8.312
 1457POPC   C3B21813  20.716  11.719   7.934
 1457POPC   C4B21814  20.777  11.633   7.498
 1458POPC   NC321815  18.438  25.757   9.487
 1458POPC   PO421816  17.865  26.129   9.505
 1458POPC   GL121817  17.888  25.876   9.097
 1458POPC   GL221818  17.791  26.202   8.990
 1458POPC   C1A21819  18.178  25.651   8.711
 1458POPC   D2A21820  18.476  25.700   8.326
 1458POPC   C3A21821  18.310  25.903   7.943
 1458POPC   C4A21822  18.461  26.306   7.740
 1458POPC   C1B21823  17.997  26.122   8.633
 1458POPC   C2B21824  17.930  25.959   8.283
 1458POPC   C3B21825  17.885  26.177   7.917
 1458POPC   C4B21826  18.040  26.050   7.518
 1459POPC   NC321827   2.416  30.134   9.520
 1459POPC   PO421828   2.995  29.786   9.533
 1459POPC   GL121829   2.837  29.958   9.175
 1459POPC   GL221830   2.498  29.852   9.095
 1459POPC   C1A21831   2.874  29.835   8.763
 1459POPC   D2A21832   2.587  29.884   8.432
 1459POPC   C3A21833   2.736  30.020   8.064
 1459POPC   C4A21834   2.584  29.937   7.712
 1459POPC   C1B21835   2.541  30.243   8.796
 1459POPC   C2B21836   2.585  30.421   8.354
 1459POPC   C3B21837   2.364  30.369   7.934
 1459POPC   C4B21838   2.028  30.229   7.646
 1460POPC   NC321839  34.055  20.128   9.553
 1460POPC   PO421840  33.464  19.828   9.717
 1460POPC   GL121841  33.658  19.898   9.257
 1460POPC   GL221842  33.958  19.972   9.091
 1460POPC   C1A21843  33.543  20.008   8.800
 1460POPC   D2A21844  33.779  19.956   8.423
 1460POPC   C3A21845  33.658  20.105   8.041
 1460POPC   C4A21846  33.888  20.081   7.666
 1460POPC   C1B21847  33.920  19.636   8.801
 1460POPC   C2B21848  34.077  19.516   8.395
 1460POPC   C3B21849  34.028  19.704   8.000
 1460POPC   C4B21850  33.959  19.584   7.551
 1461POPC   NC321851  25.278  15.846   9.539
 1461POPC   PO421852  24.911  16.414   9.536
 1461POPC   GL121853  25.092  16.150   9.189
 1461POPC   GL221854  24.878  16.349   9.030
 1461POPC   C1A21855  25.463  15.931   8.884
 1461POPC   D2A21856  25.562  15.951   8.381
 1461POPC   C3A21857  25.435  15.697   7.974
 1461POPC   C4A21858  25.636  15.686   7.529
 1461POPC   C1B21859  25.109  16.206   8.688
 1461POPC   C2B21860  25.012  16.003   8.332
 1461POPC   C3B21861  24.987  16.208   7.976
 1461POPC   C4B21862  25.273  16.131   7.701
 1462POPC   NC321863  35.020  38.969   9.446
 1462POPC   PO421864  35.650  39.070   9.774
 1462POPC   GL121865  35.465  39.155   9.278
 1462POPC   GL221866  35.674  39.355   9.038
 1462POPC   C1A21867  35.206  39.237   8.855
 1462POPC   D2A21868  35.054  39.115   8.409
 1462POPC   C3A21869  35.202  39.249   8.002
 1462POPC   C4A21870  35.594  39.448   7.956
 1462POPC   C1B21871  35.677  38.993   8.704
 1462POPC   C2B21872  35.654  38.743   8.299
 1462POPC   C3B21873  35.580  38.910   7.862
 1462POPC   C4B21874  35.795  39.176   7.562
 1463POPC   NC321875   3.751  22.539   9.660
 1463POPC   PO421876   3.301  21.978   9.669
 1463POPC   GL121877   3.517  22.223   9.310
 1463POPC   GL221878   3.337  22.562   9.328
 1463POPC   C1A21879   3.367  22.131   8.841
 1463POPC   D2A21880   3.547  22.083   8.426
 1463POPC   C3A21881   3.361  22.066   8.062
 1463POPC   C4A21882   3.577  22.131   7.710
 1463POPC   C1B21883   3.575  22.571   8.947
 1463POPC   C2B21884   3.549  22.588   8.535
 1463POPC   C3B21885   3.577  22.527   8.104
 1463POPC   C4B21886   3.237  22.563   7.788
 1464POPC   NC321887  20.750  19.846   9.549
 1464POPC   PO421888  21.361  19.723   9.637
 1464POPC   GL121889  21.196  19.735   9.235
 1464POPC   GL221890  21.529  19.788   9.086
 1464POPC   C1A21891  21.077  19.786   8.818
 1464POPC   D2A21892  21.358  19.868   8.489
 1464POPC   C3A21893  21.189  20.032   8.107
 1464POPC   C4A21894  21.196  19.930   7.698
 1464POPC   C1B21895  21.769  19.622   8.739
 1464POPC   C2B21896  21.772  19.592   8.283
 1464POPC   C3B21897  21.656  19.834   7.917
 1464POPC   C4B21898  21.728  19.752   7.494
 1465POPC   NC321899  41.096   8.660   9.376
 1465POPC   PO421900  40.879   7.961   9.521
 1465POPC   GL121901  40.976   8.037   9.137
 1465POPC   GL221902  40.800   8.339   9.113
 1465POPC   C1A21903  40.849   7.947   8.711
 1465POPC   D2A21904  40.717   7.717   8.349
 1465POPC   C3A21905  40.958   7.881   8.017
 1465POPC   C4A21906  40.806   8.051   7.622
 1465POPC   C1B21907  40.989   8.451   8.733
 1465POPC   C2B21908  41.034   8.285   8.332
 1465POPC   C3B21909  41.028   8.405   7.895
 1465POPC   C4B21910  40.953   8.469   7.383
 1466POPC   NC321911  26.319  28.668   9.559
 1466POPC   PO421912  26.880  28.348   9.514
 1466POPC   GL121913  26.943  28.442   9.099
 1466POPC   GL221914  26.610  28.576   9.099
 1466POPC   C1A21915  26.810  28.236   8.744
 1466POPC   D2A21916  26.706  28.407   8.374
 1466POPC   C3A21917  26.915  28.202   8.054
 1466POPC   C4A21918  27.015  28.345   7.679
 1466POPC   C1B21919  26.414  28.715   8.690
 1466POPC   C2B21920  26.407  28.827   8.246
 1466POPC   C3B21921  26.701  28.700   7.921
 1466POPC   C4B21922  26.470  28.603   7.570
 1467POPC   NC321923  28.699   5.663   9.626
 1467POPC   PO421924  29.343   5.979   9.481
 1467POPC   GL121925  29.308   5.754   9.141
 1467POPC   GL221926  29.013   5.591   9.221
 1467POPC   C1A21927  29.134   5.899   8.762
 1467POPC   D2A21928  28.991   5.774   8.394
 1467POPC   C3A21929  29.131   5.877   7.994
 1467POPC   C4A21930  29.267   5.586   7.660
 1467POPC   C1B21931  28.878   5.452   8.826
 1467POPC   C2B21932  28.928   5.268   8.460
 1467POPC   C3B21933  28.963   5.387   8.033
 1467POPC   C4B21934  28.749   5.353   7.643
 1468POPC   NC321935  31.568  36.988   9.445
 1468POPC   PO421936  32.081  36.413   9.551
 1468POPC   GL121937  31.704  36.533   9.207
 1468POPC   GL221938  31.638  36.835   8.978
 1468POPC   C1A21939  31.370  36.449   8.832
 1468POPC   D2A21940  31.127  36.780   8.557
 1468POPC   C3A21941  31.198  36.882   8.124
 1468POPC   C4A21942  31.264  36.675   7.710
 1468POPC   C1B21943  31.606  36.905   8.547
 1468POPC   C2B21944  31.734  37.075   8.177
 1468POPC   C3B21945  31.523  37.103   7.778
 1468POPC   C4B21946  31.086  37.259   7.769
 1469POPC   NC321947   2.856  36.355   9.375
 1469POPC   PO421948   2.205  36.240   9.336
 1469POPC   GL121949   2.501  36.251   9.005
 1469POPC   GL221950   2.539  36.567   8.987
 1469POPC   C1A21951   2.880  36.239   8.718
 1469POPC   D2A21952   3.000  36.459   8.291
 1469POPC   C3A21953   2.900  36.199   7.905
 1469POPC   C4A21954   2.660  35.814   7.748
 1469POPC   C1B21955   2.562  36.582   8.554
 1469POPC   C2B21956   2.532  36.232   8.278
 1469POPC   C3B21957   2.388  36.261   7.856
 1469POPC   C4B21958   2.622  36.472   7.553
 1470POPC   NC321959  16.495   2.451   9.826
 1470POPC   PO421960  16.283   2.996   9.410
 1470POPC   GL121961  16.689   2.986   9.201
 1470POPC   GL221962  16.700   2.704   9.027
 1470POPC   C1A21963  16.936   3.083   8.796
 1470POPC   D2A21964  16.971   2.801   8.448
 1470POPC   C3A21965  16.894   2.946   8.022
 1470POPC   C4A21966  16.839   2.759   7.634
 1470POPC   C1B21967  16.574   2.516   8.635
 1470POPC   C2B21968  16.463   2.771   8.309
 1470POPC   C3B21969  16.415   2.812   7.906
 1470POPC   C4B21970  16.402   2.433   7.662
 1471POPC   NC321971  19.658   6.296   9.417
 1471POPC   PO421972  20.053   6.776   9.552
 1471POPC   GL121973  19.906   6.660   9.119
 1471POPC   GL221974  19.532   6.741   9.088
 1471POPC   C1A21975  20.097   6.625   8.693
 1471POPC   D2A21976  19.901   6.380   8.338
 1471POPC   C3A21977  19.943   6.596   7.946
 1471POPC   C4A21978  20.023   6.631   7.513
 1471POPC   C1B21979  19.574   6.634   8.634
 1471POPC   C2B21980  19.399   6.367   8.316
 1471POPC   C3B21981  19.570   6.206   7.928
 1471POPC   C4B21982  19.523   6.554   7.626
 1472POPC   NC321983  11.630  13.408   9.421
 1472POPC   PO421984  11.220  13.788   9.721
 1472POPC   GL121985  11.299  13.754   9.225
 1472POPC   GL221986  11.022  13.804   8.981
 1472POPC   C1A21987  11.385  13.451   8.838
 1472POPC   D2A21988  11.667  13.401   8.511
 1472POPC   C3A21989  11.492  13.376   8.123
 1472POPC   C4A21990  11.375  13.382   7.704
 1472POPC   C1B21991  11.383  13.937   8.720
 1472POPC   C2B21992  11.522  13.881   8.293
 1472POPC   C3B21993  11.284  13.828   7.920
 1472POPC   C4B21994  10.960  13.943   7.665
 1473POPC   NC321995   3.576  24.868   9.256
 1473POPC   PO421996   3.827  25.344   9.678
 1473POPC   GL121997   3.711  25.416   9.199
 1473POPC   GL221998   3.450  25.242   8.952
 1473POPC   C1A21999   3.798  25.465   8.722
 1473POPC   D2A22000   3.486  25.299   8.423
 1473POPC   C3A22001   3.609  25.217   8.019
 1473POPC   C4A22002   3.719  25.536   7.757
 1473POPC   C1B22003   3.283  24.902   8.693
 1473POPC   C2B22004   3.414  24.762   8.303
 1473POPC   C3B22005   3.283  24.853   7.905
 1473POPC   C4B22006   3.475  24.913   7.475
 1474POPC   NC322007  27.963  40.350   9.511
 1474POPC   PO422008  28.274  40.910   9.624
 1474POPC   GL122009  28.289  40.678   9.206
 1474POPC   GL222010  28.663  40.732   9.061
 1474POPC   C1A22011  28.290  40.601   8.749
 1474POPC   D2A22012  28.630  40.865   8.547
 1474POPC   C3A22013  28.534  41.054   8.149
 1474POPC   C4A22014  28.323  40.909   7.766
 1474POPC   C1B22015  28.770  40.399   8.757
 1474POPC   C2B22016  28.572  40.341   8.366
 1474POPC   C3B22017  28.585  40.523   7.969
 1474POPC   C4B22018  28.608  40.450   7.516
 1475POPC   NC322019  33.724   3.689   9.652
 1475POPC   PO422020  33.882   3.154   9.296
 1475POPC   GL122021  33.729   3.447   9.046
 1475POPC   GL222022  33.862   3.778   9.144
 1475POPC   C1A22023  33.773   3.605   8.622
 1475POPC   D2A22024  34.122   3.840   8.435
 1475POPC   C3A22025  34.188   3.649   8.042
 1475POPC   C4A22026  33.982   3.407   7.732
 1475POPC   C1B22027  33.476   3.881   8.952
 1475POPC   C2B22028  33.389   3.945   8.503
 1475POPC   C3B22029  33.632   3.816   8.130
 1475POPC   C4B22030  33.510   3.584   7.755
 1476POPC   NC322031   5.280  37.751   9.656
 1476POPC   PO422032   4.646  37.869   9.507
 1476POPC   GL122033   4.986  37.644   9.247
 1476POPC   GL222034   5.239  37.899   9.175
 1476POPC   C1A22035   5.111  37.512   8.813
 1476POPC   D2A22036   4.847  37.379   8.435
 1476POPC   C3A22037   5.043  37.554   8.044
 1476POPC   C4A22038   5.465  37.446   7.841
 1476POPC   C1B22039   5.423  37.927   8.794
 1476POPC   C2B22040   5.355  37.740   8.410
 1476POPC   C3B22041   5.427  37.929   8.031
 1476POPC   C4B22042   5.241  37.872   7.657
 1477POPC   NC322043  23.413   4.732   9.495
 1477POPC   PO422044  23.863   4.292   9.364
 1477POPC   GL122045  23.612   4.316   9.043
 1477POPC   GL222046  23.471   4.641   8.996
 1477POPC   C1A22047  23.711   4.053   8.701
 1477POPC   D2A22048  24.061   4.121   8.407
 1477POPC   C3A22049  23.831   4.327   8.074
 1477POPC   C4A22050  23.666   4.107   7.691
 1477POPC   C1B22051  23.301   4.396   8.660
 1477POPC   C2B22052  23.272   4.226   8.264
 1477POPC   C3B22053  23.364   4.449   7.912
 1477POPC   C4B22054  23.226   4.831   7.756
 1478POPC   NC322055   0.854  23.729   9.449
 1478POPC   PO422056   1.437  23.872   9.340
 1478POPC   GL122057   1.234  23.715   9.046
 1478POPC   GL222058   0.954  23.506   9.014
 1478POPC   C1A22059   1.358  23.719   8.640
 1478POPC   D2A22060   1.402  23.554   8.225
 1478POPC   C3A22061   1.281  23.825   7.852
 1478POPC   C4A22062   1.170  23.590   7.433
 1478POPC   C1B22063   0.849  23.868   8.763
 1478POPC   C2B22064   0.976  23.852   8.334
 1478POPC   C3B22065   0.861  23.613   7.982
 1478POPC   C4B22066   0.779  23.851   7.629
 1479POPC   NC322067   4.217  33.496   9.626
 1479POPC   PO422068   4.749  33.944   9.543
 1479POPC   GL122069   4.359  33.886   9.289
 1479POPC   GL222070   4.177  34.213   9.243
 1479POPC   C1A22071   4.199  33.604   8.948
 1479POPC   D2A22072   4.022  33.697   8.541
 1479POPC   C3A22073   4.041  33.479   8.130
 1479POPC   C4A22074   4.138  33.648   7.719
 1479POPC   C1B22075   4.311  34.083   8.825
 1479POPC   C2B22076   4.477  33.936   8.465
 1479POPC   C3B22077   4.277  33.946   8.102
 1479POPC   C4B22078   4.349  34.156   7.735
 1480POPC   NC322079  26.958  27.204   9.503
 1480POPC   PO422080  26.499  26.697   9.529
 1480POPC   GL122081  26.716  26.803   9.170
 1480POPC   GL222082  26.612  27.134   9.101
 1480POPC   C1A22083  26.780  26.657   8.749
 1480POPC   D2A22084  26.579  26.846   8.393
 1480POPC   C3A22085  26.707  26.692   7.981
 1480POPC   C4A22086  26.746  26.522   7.559
 1480POPC   C1B22087  26.878  27.189   8.744
 1480POPC   C2B22088  26.871  27.356   8.318
 1480POPC   C3B22089  26.674  27.186   7.954
 1480POPC   C4B22090  26.923  26.995   7.560
 1481POPC   NC322091  41.271  25.851   9.515
 1481POPC   PO422092  41.762  26.265   9.625
 1481POPC   GL122093  41.446  26.222   9.212
 1481POPC   GL222094  41.206  25.973   9.038
 1481POPC   C1A22095  41.500  26.254   8.742
 1481POPC   D2A22096  41.472  26.145   8.321
 1481POPC   C3A22097  41.621  26.205   7.903
 1481POPC   C4A22098  41.281  26.148   7.622
 1481POPC   C1B22099  41.271  25.672   8.706
 1481POPC   C2B22100  41.581  25.649   8.389
 1481POPC   C3B22101  41.360  25.770   8.011
 1481POPC   C4B22102  41.308  25.546   7.691
 1482POPC   NC322103  39.576  37.559   9.526
 1482POPC   PO422104  38.876  37.597   9.648
 1482POPC   GL122105  39.040  37.818   9.205
 1482POPC   GL222106  39.357  37.959   9.274
 1482POPC   C1A22107  39.156  37.658   8.762
 1482POPC   D2A22108  39.466  37.494   8.499
 1482POPC   C3A22109  39.353  37.418   8.071
 1482POPC   C4A22110  39.085  37.456   7.722
 1482POPC   C1B22111  39.494  38.015   8.850
 1482POPC   C2B22112  39.321  37.990   8.426
 1482POPC   C3B22113  39.116  37.951   8.018
 1482POPC   C4B22114  39.280  37.946   7.608
 1483POPC   NC322115   7.203  43.402   9.671
 1483POPC   PO422116   7.607  42.902   9.626
 1483POPC   GL122117   7.573  43.027   9.195
 1483POPC   GL222118   7.260  43.194   9.197
 1483POPC   C1A22119   7.657  42.835   8.791
 1483POPC   D2A22120   7.617  42.792   8.365
 1483POPC   C3A22121   7.646  43.084   8.033
 1483POPC   C4A22122   7.578  43.223   7.606
 1483POPC   C1B22123   7.336  43.223   8.752
 1483POPC   C2B22124   7.202  43.122   8.341
 1483POPC   C3B22125   7.159  43.235   7.880
 1483POPC   C4B22126   7.141  43.304   7.366
 1484POPC   NC322127  13.210  40.240   9.300
 1484POPC   PO422128  13.836  40.202   9.410
 1484POPC   GL122129  13.646  39.955   9.104
 1484POPC   GL222130  13.392  39.757   9.234
 1484POPC   C1A22131  13.518  40.063   8.704
 1484POPC   D2A22132  13.752  40.018   8.323
 1484POPC   C3A22133  13.664  39.921   7.895
 1484POPC   C4A22134  13.929  39.665   7.674
 1484POPC   C1B22135  13.262  39.646   8.827
 1484POPC   C2B22136  13.321  39.739   8.376
 1484POPC   C3B22137  13.185  39.728   8.011
 1484POPC   C4B22138  13.191  39.953   7.637
 1485POPC   NC322139  16.526  41.569   9.578
 1485POPC   PO422140  17.133  41.270   9.354
 1485POPC   GL122141  16.778  41.518   9.122
 1485POPC   GL222142  16.360  41.494   9.118
 1485POPC   C1A22143  16.663  41.769   8.756
 1485POPC   D2A22144  16.530  41.937   8.363
 1485POPC   C3A22145  16.843  41.895   8.040
 1485POPC   C4A22146  16.821  41.801   7.596
 1485POPC   C1B22147  16.477  41.312   8.755
 1485POPC   C2B22148  16.728  41.397   8.382
 1485POPC   C3B22149  16.607  41.431   7.944
 1485POPC   C4B22150  16.764  41.312   7.533
 1486POPC   NC322151  37.980  10.957   9.323
 1486POPC   PO422152  38.322  11.457   9.630
 1486POPC   GL122153  38.386  11.410   9.180
 1486POPC   GL222154  38.483  11.062   9.086
 1486POPC   C1A22155  38.184  11.304   8.778
 1486POPC   D2A22156  38.379  11.100   8.448
 1486POPC   C3A22157  38.187  11.213   8.079
 1486POPC   C4A22158  38.293  11.376   7.684
 1486POPC   C1B22159  38.732  10.837   8.780
 1486POPC   C2B22160  38.856  10.829   8.344
 1486POPC   C3B22161  38.658  11.036   7.993
 1486POPC   C4B22162  38.597  10.981   7.525
 1487POPC   NC322163  38.780   5.493   9.497
 1487POPC   PO422164  38.441   6.075   9.600
 1487POPC   GL122165  38.522   5.984   9.170
 1487POPC   GL222166  38.610   5.661   9.051
 1487POPC   C1A22167  38.405   6.069   8.736
 1487POPC   D2A22168  38.181   6.057   8.366
 1487POPC   C3A22169  38.363   6.122   7.979
 1487POPC   C4A22170  38.222   5.978   7.605
 1487POPC   C1B22171  38.699   5.675   8.635
 1487POPC   C2B22172  38.487   5.668   8.250
 1487POPC   C3B22173  38.511   5.636   7.828
 1487POPC   C4B22174  38.756   5.902   7.576
 1488POPC   NC322175  20.567  31.162   9.388
 1488POPC   PO422176  20.851  31.792   9.449
 1488POPC   GL122177  20.816  31.550   9.132
 1488POPC   GL222178  20.492  31.629   9.061
 1488POPC   C1A22179  20.778  31.337   8.756
 1488POPC   D2A22180  20.854  31.234   8.354
 1488POPC   C3A22181  20.776  31.441   7.924
 1488POPC   C4A22182  20.693  31.385   7.465
 1488POPC   C1B22183  20.277  31.484   8.702
 1488POPC   C2B22184  20.353  31.398   8.268
 1488POPC   C3B22185  20.280  31.546   7.838
 1488POPC   C4B22186  20.163  31.473   7.405
 1489POPC   NC322187  26.848  43.492   9.476
 1489POPC   PO422188  26.922  44.191   9.543
 1489POPC   GL122189  26.873  43.924   9.197
 1489POPC   GL222190  26.581  43.699   9.112
 1489POPC   C1A22191  26.974  43.888   8.789
 1489POPC   D2A22192  26.995  43.724   8.393
 1489POPC   C3A22193  27.133  44.001   8.082
 1489POPC   C4A22194  26.888  44.054   7.722
 1489POPC   C1B22195  26.590  43.552   8.695
 1489POPC   C2B22196  26.422  43.670   8.286
 1489POPC   C3B22197  26.399  43.727   7.819
 1489POPC   C4B22198  26.591  43.600   7.417
 1490POPC   NC322199   9.049  38.670   9.500
 1490POPC   PO422200   8.854  38.030   9.496
 1490POPC   GL122201   8.836  38.356   9.125
 1490POPC   GL222202   9.132  38.638   9.010
 1490POPC   C1A22203   8.907  38.338   8.677
 1490POPC   D2A22204   9.131  38.600   8.406
 1490POPC   C3A22205   8.956  38.428   8.054
 1490POPC   C4A22206   8.787  38.300   7.673
 1490POPC   C1B22207   8.774  38.815   8.779
 1490POPC   C2B22208   8.612  38.792   8.325
 1490POPC   C3B22209   8.720  38.870   7.876
 1490POPC   C4B22210   9.081  38.703   7.634
 1491POPC   NC322211  35.529   9.867   9.485
 1491POPC   PO422212  35.220   9.216   9.564
 1491POPC   GL122213  35.396   9.472   9.202
 1491POPC   GL222214  35.151   9.674   9.191
 1491POPC   C1A22215  35.441   9.507   8.746
 1491POPC   D2A22216  35.211   9.609   8.336
 1491POPC   C3A22217  35.462   9.698   7.966
 1491POPC   C4A22218  35.648   9.673   7.533
 1491POPC   C1B22219  35.005   9.771   8.789
 1491POPC   C2B22220  34.837   9.937   8.453
 1491POPC   C3B22221  35.007  10.044   8.065
 1491POPC   C4B22222  34.970   9.727   7.797
 1492POPC   NC322223  30.560  37.085   9.363
 1492POPC   PO422224  31.161  36.769   9.384
 1492POPC   GL122225  30.953  36.861   9.021
 1492POPC   GL222226  30.675  36.702   9.055
 1492POPC   C1A22227  30.759  37.128   8.680
 1492POPC   D2A22228  30.808  37.302   8.257
 1492POPC   C3A22229  30.596  37.175   7.894
 1492POPC   C4A22230  30.786  36.807   7.774
 1492POPC   C1B22231  30.457  36.723   8.698
 1492POPC   C2B22232  30.428  36.919   8.290
 1492POPC   C3B22233  30.300  36.751   7.866
 1492POPC   C4B22234  30.366  36.692   7.402
 1493POPC   NC322235  38.263  18.555   9.504
 1493POPC   PO422236  38.757  17.997   9.399
 1493POPC   GL122237  38.488  18.150   9.089
 1493POPC   GL222238  38.562  18.490   9.100
 1493POPC   C1A22239  38.462  18.187   8.641
 1493POPC   D2A22240  38.336  17.850   8.352
 1493POPC   C3A22241  38.314  17.971   7.927
 1493POPC   C4A22242  38.189  18.120   7.565
 1493POPC   C1B22243  38.214  18.590   8.851
 1493POPC   C2B22244  38.107  18.770   8.476
 1493POPC   C3B22245  38.222  18.545   8.095
 1493POPC   C4B22246  38.427  18.571   7.713
 1494POPC   NC322247  18.448  13.003   9.465
 1494POPC   PO422248  17.829  13.212   9.298
 1494POPC   GL122249  18.073  12.947   9.047
 1494POPC   GL222250  18.391  12.769   9.017
 1494POPC   C1A22251  18.030  12.811   8.643
 1494POPC   D2A22252  18.326  12.731   8.328
 1494POPC   C3A22253  18.150  12.809   7.950
 1494POPC   C4A22254  18.023  12.569   7.580
 1494POPC   C1B22255  18.487  13.052   8.690
 1494POPC   C2B22256  18.469  13.230   8.242
 1494POPC   C3B22257  18.619  12.960   7.877
 1494POPC   C4B22258  18.527  12.591   7.657
 1495POPC   NC322259  36.346  10.902   9.440
 1495POPC   PO422260  36.120  11.603   9.431
 1495POPC   GL122261  36.088  11.339   9.128
 1495POPC   GL222262  35.757  11.432   9.019
 1495POPC   C1A22263  36.322  11.505   8.791
 1495POPC   D2A22264  36.404  11.341   8.380
 1495POPC   C3A22265  36.243  11.469   7.999
 1495POPC   C4A22266  36.446  11.400   7.639
 1495POPC   C1B22267  35.879  11.374   8.604
 1495POPC   C2B22268  35.963  11.109   8.265
 1495POPC   C3B22269  35.832  11.174   7.841
 1495POPC   C4B22270  35.779  10.941   7.444
 1496POPC   NC322271  19.703  32.590   9.358
 1496POPC   PO422272  20.052  33.129   9.468
 1496POPC   GL122273  19.853  33.074   9.098
 1496POPC   GL222274  19.818  33.435   9.083
 1496POPC   C1A22275  19.724  32.847   8.716
 1496POPC   D2A22276  19.513  32.991   8.341
 1496POPC   C3A22277  19.669  32.822   7.967
 1496POPC   C4A22278  19.661  32.840   7.517
 1496POPC   C1B22279  19.679  33.365   8.664
 1496POPC   C2B22280  19.872  33.330   8.238
 1496POPC   C3B22281  19.830  33.293   7.794
 1496POPC   C4B22282  20.089  33.167   7.466
 1497POPC   NC322283   1.694  28.401   9.568
 1497POPC   PO422284   1.307  27.846   9.500
 1497POPC   GL122285   1.301  28.218   9.234
 1497POPC   GL222286   1.494  28.560   9.149
 1497POPC   C1A22287   1.156  28.347   8.847
 1497POPC   D2A22288   1.309  28.307   8.452
 1497POPC   C3A22289   1.119  28.566   8.190
 1497POPC   C4A22290   1.034  28.352   7.857
 1497POPC   C1B22291   1.567  28.830   8.805
 1497POPC   C2B22292   1.591  28.731   8.385
 1497POPC   C3B22293   1.595  28.626   7.984
 1497POPC   C4B22294   1.337  28.795   7.733
 1498POPC   NC322295  39.029  19.958   9.526
 1498POPC   PO422296  39.627  19.749   9.370
 1498POPC   GL122297  39.340  19.880   9.118
 1498POPC   GL222298  39.340  20.209   9.143
 1498POPC   C1A22299  39.112  19.849   8.762
 1498POPC   D2A22300  39.117  19.585   8.409
 1498POPC   C3A22301  39.127  19.779   7.992
 1498POPC   C4A22302  39.367  19.581   7.678
 1498POPC   C1B22303  39.448  20.255   8.762
 1498POPC   C2B22304  39.284  20.169   8.389
 1498POPC   C3B22305  39.503  20.230   8.056
 1498POPC   C4B22306  39.382  20.094   7.689
 1499POPC   NC322307   7.933  24.712   9.908
 1499POPC   PO422308   8.230  24.306   9.473
 1499POPC   GL122309   8.208  24.291   9.066
 1499POPC   GL222310   7.891  24.179   9.060
 1499POPC   C1A22311   8.284  24.507   8.705
 1499POPC   D2A22312   8.575  24.717   8.478
 1499POPC   C3A22313   8.573  24.640   8.046
 1499POPC   C4A22314   8.335  24.347   7.838
 1499POPC   C1B22315   7.818  24.299   8.661
 1499POPC   C2B22316   8.053  24.287   8.297
 1499POPC   C3B22317   7.913  24.123   7.952
 1499POPC   C4B22318   7.816  24.302   7.573
 1500POPC   NC322319   7.929   2.356   9.971
 1500POPC   PO422320   8.085   1.893   9.482
 1500POPC   GL122321   7.925   2.190   9.173
 1500POPC   GL222322   8.244   2.212   9.009
 1500POPC   C1A22323   7.744   2.204   8.745
 1500POPC   D2A22324   8.011   2.258   8.370
 1500POPC   C3A22325   7.919   2.076   7.960
 1500POPC   C4A22326   7.854   2.276   7.576
 1500POPC   C1B22327   8.111   1.852   8.794
 1500POPC   C2B22328   8.136   1.753   8.373
 1500POPC   C3B22329   8.328   1.739   7.976
 1500POPC   C4B22330   8.098   1.633   7.653
 1501POPC   NC322331  29.106  24.251   9.493
 1501POPC   PO422332  28.887  24.863   9.531
 1501POPC   GL122333  29.057  24.648   9.143
 1501POPC   GL222334  29.352  24.423   9.091
 1501POPC   C1A22335  29.153  24.722   8.699
 1501POPC   D2A22336  29.204  24.876   8.268
 1501POPC   C3A22337  29.242  24.555   7.985
 1501POPC   C4A22338  29.006  24.237   7.873
 1501POPC   C1B22339  29.203  24.199   8.731
 1501POPC   C2B22340  29.352  24.152   8.290
 1501POPC   C3B22341  29.531  24.080   7.878
 1501POPC   C4B22342  29.964  24.137   7.698
 1502POPC   NC322343   6.686  29.517   9.491
 1502POPC   PO422344   6.273  30.096   9.529
 1502POPC   GL122345   6.512  29.927   9.236
 1502POPC   GL222346   6.315  29.644   9.155
 1502POPC   C1A22347   6.758  29.897   8.866
 1502POPC   D2A22348   7.086  29.981   8.559
 1502POPC   C3A22349   6.879  30.023   8.174
 1502POPC   C4A22350   6.566  29.922   7.852
 1502POPC   C1B22351   6.428  29.478   8.778
 1502POPC   C2B22352   6.701  29.596   8.448
 1502POPC   C3B22353   6.726  29.497   8.054
 1502POPC   C4B22354   6.479  29.395   7.699
 1503POPC   NC322355  12.446  24.133   9.435
 1503POPC   PO422356  12.853  24.683   9.532
 1503POPC   GL122357  12.788  24.506   9.166
 1503POPC   GL222358  12.721  24.870   9.063
 1503POPC   C1A22359  12.693  24.482   8.736
 1503POPC   D2A22360  12.643  24.694   8.346
 1503POPC   C3A22361  12.717  24.409   8.024
 1503POPC   C4A22362  12.949  24.348   7.648
 1503POPC   C1B22363  12.389  24.909   8.753
 1503POPC   C2B22364  12.314  25.128   8.353
 1503POPC   C3B22365  12.472  25.009   7.944
 1503POPC   C4B22366  12.560  24.688   7.625
 1504POPC   NC322367  13.190  14.215   9.495
 1504POPC   PO422368  13.820  14.548   9.459
 1504POPC   GL122369  13.602  14.318   9.173
 1504POPC   GL222370  13.332  14.532   9.115
 1504POPC   C1A22371  13.561  14.189   8.758
 1504POPC   D2A22372  13.632  14.399   8.349
 1504POPC   C3A22373  13.580  14.132   8.004
 1504POPC   C4A22374  13.655  14.180   7.615
 1504POPC   C1B22375  13.393  14.724   8.695
 1504POPC   C2B22376  13.365  14.854   8.251
 1504POPC   C3B22377  13.424  14.609   7.872
 1504POPC   C4B22378  13.654  14.707   7.523
 1505POPC   NC322379  38.736  30.749  10.107
 1505POPC   PO422380  39.090  30.526   9.548
 1505POPC   GL122381  39.148  30.529   9.092
 1505POPC   GL222382  39.386  30.799   9.012
 1505POPC   C1A22383  39.047  30.508   8.627
 1505POPC   D2A22384  39.027  30.732   8.192
 1505POPC   C3A22385  39.038  30.596   7.724
 1505POPC   C4A22386  39.098  30.322   7.308
 1505POPC   C1B22387  39.560  30.519   8.758
 1505POPC   C2B22388  39.466  30.438   8.347
 1505POPC   C3B22389  39.488  30.624   7.957
 1505POPC   C4B22390  39.505  30.452   7.572
 1506POPC   NC322391  39.869   2.325   9.427
 1506POPC   PO422392  40.389   2.682   9.662
 1506POPC   GL122393  40.413   2.771   9.192
 1506POPC   GL222394  40.247   2.458   9.094
 1506POPC   C1A22395  40.174   2.841   8.768
 1506POPC   D2A22396  39.936   2.925   8.365
 1506POPC   C3A22397  40.022   2.774   7.954
 1506POPC   C4A22398  40.342   2.643   7.677
 1506POPC   C1B22399  39.882   2.417   8.785
 1506POPC   C2B22400  40.003   2.420   8.371
 1506POPC   C3B22401  39.882   2.280   7.986
 1506POPC   C4B22402  40.027   2.260   7.600
 1507POPC   NC322403  30.759  10.182   9.459
 1507POPC   PO422404  30.879  10.804   9.504
 1507POPC   GL122405  30.537  10.748   9.182
 1507POPC   GL222406  30.400  10.397   9.181
 1507POPC   C1A22407  30.523  10.594   8.731
 1507POPC   D2A22408  30.794  10.542   8.390
 1507POPC   C3A22409  30.717  10.740   8.017
 1507POPC   C4A22410  30.407  10.827   7.695
 1507POPC   C1B22411  30.552  10.103   8.823
 1507POPC   C2B22412  30.490  10.119   8.372
 1507POPC   C3B22413  30.700  10.233   7.965
 1507POPC   C4B22414  30.507  10.325   7.586
 1508POPC   NC322415   1.537  39.644   9.479
 1508POPC   PO422416   2.092  39.970   9.637
 1508POPC   GL122417   2.079  40.079   9.216
 1508POPC   GL222418   1.778  39.909   9.096
 1508POPC   C1A22419   2.119  40.206   8.808
 1508POPC   D2A22420   1.857  39.979   8.529
 1508POPC   C3A22421   1.953  40.120   8.132
 1508POPC   C4A22422   2.026  40.197   7.710
 1508POPC   C1B22423   2.143  39.693   8.857
 1508POPC   C2B22424   2.133  39.561   8.404
 1508POPC   C3B22425   2.255  39.729   8.005
 1508POPC   C4B22426   2.060  39.669   7.622
 1509POPC   NC322427  24.696  17.883   9.463
 1509POPC   PO422428  24.490  17.218   9.492
 1509POPC   GL122429  24.584  17.461   9.191
 1509POPC   GL222430  24.307  17.388   8.994
 1509POPC   C1A22431  24.763  17.575   8.831
 1509POPC   D2A22432  24.483  17.436   8.476
 1509POPC   C3A22433  24.515  17.671   8.079
 1509POPC   C4A22434  24.643  17.545   7.678
 1509POPC   C1B22435  24.125  17.691   8.717
 1509POPC   C2B22436  24.046  17.621   8.278
 1509POPC   C3B22437  24.062  17.588   7.837
 1509POPC   C4B22438  24.196  17.537   7.433
 1510POPC   NC322439   7.091  44.320   9.292
 1510POPC   PO422440   7.618  44.705   9.576
 1510POPC   GL122441   7.475  44.641   9.160
 1510POPC   GL222442   7.216  44.856   9.091
 1510POPC   C1A22443   7.542  44.725   8.699
 1510POPC   D2A22444   7.544  44.514   8.312
 1510POPC   C3A22445   7.593  44.821   8.066
 1510POPC   C4A22446   7.527  44.939   7.685
 1510POPC   C1B22447   7.056  44.683   8.714
 1510POPC   C2B22448   7.138  44.880   8.338
 1510POPC   C3B22449   7.054  44.766   7.929
 1510POPC   C4B22450   7.329  44.494   7.754
 1511POPC   NC322451  19.674  26.523   9.589
 1511POPC   PO422452  19.886  25.937   9.616
 1511POPC   GL122453  19.917  25.899   9.214
 1511POPC   GL222454  19.917  26.263   9.150
 1511POPC   C1A22455  19.687  25.789   8.863
 1511POPC   D2A22456  19.888  25.720   8.445
 1511POPC   C3A22457  19.787  25.862   7.996
 1511POPC   C4A22458  19.824  25.814   7.503
 1511POPC   C1B22459  20.007  26.153   8.744
 1511POPC   C2B22460  19.898  26.280   8.359
 1511POPC   C3B22461  20.135  26.254   8.024
 1511POPC   C4B22462  20.128  26.202   7.617
 1512POPC   NC322463  12.635  40.460   9.448
 1512POPC   PO422464  12.593  41.094   9.427
 1512POPC   GL122465  12.571  40.834   9.070
 1512POPC   GL222466  12.892  40.850   9.052
 1512POPC   C1A22467  12.678  40.691   8.616
 1512POPC   D2A22468  12.609  40.350   8.329
 1512POPC   C3A22469  12.522  40.552   7.962
 1512POPC   C4A22470  12.744  40.874   7.800
 1512POPC   C1B22471  13.086  41.046   8.733
 1512POPC   C2B22472  13.227  40.929   8.335
 1512POPC   C3B22473  13.193  41.179   7.981
 1512POPC   C4B22474  13.048  41.190   7.566
 1513POPC   NC322475  30.060  41.057   9.485
 1513POPC   PO422476  29.948  40.433   9.436
 1513POPC   GL122477  29.682  40.720   9.176
 1513POPC   GL222478  29.646  41.074   9.185
 1513POPC   C1A22479  29.646  40.710   8.741
 1513POPC   D2A22480  29.950  40.515   8.472
 1513POPC   C3A22481  29.866  40.585   8.028
 1513POPC   C4A22482  29.843  40.340   7.625
 1513POPC   C1B22483  29.948  41.118   8.803
 1513POPC   C2B22484  30.044  40.995   8.356
 1513POPC   C3B22485  29.948  41.111   7.909
 1513POPC   C4B22486  30.128  41.180   7.466
 1514POPC   NC322487  19.438  20.506   9.400
 1514POPC   PO422488  18.886  20.226   9.346
 1514POPC   GL122489  19.156  20.396   9.008
 1514POPC   GL222490  19.456  20.173   8.964
 1514POPC   C1A22491  19.252  20.701   8.659
 1514POPC   D2A22492  19.328  20.587   8.199
 1514POPC   C3A22493  19.135  20.737   7.800
 1514POPC   C4A22494  19.208  20.868   7.351
 1514POPC   C1B22495  19.236  20.193   8.552
 1514POPC   C2B22496  18.901  20.293   8.266
 1514POPC   C3B22497  18.892  20.284   7.832
 1514POPC   C4B22498  18.904  19.973   7.527
 1515POPC   NC322499  36.968  30.315   9.858
 1515POPC   PO422500  37.006  29.765   9.462
 1515POPC   GL122501  36.728  29.966   9.181
 1515POPC   GL222502  36.521  29.707   9.077
 1515POPC   C1A22503  36.740  30.123   8.754
 1515POPC   D2A22504  37.092  30.112   8.460
 1515POPC   C3A22505  37.067  30.263   8.026
 1515POPC   C4A22506  36.824  30.034   7.716
 1515POPC   C1B22507  36.964  29.656   8.839
 1515POPC   C2B22508  37.077  29.511   8.434
 1515POPC   C3B22509  36.962  29.673   8.069
 1515POPC   C4B22510  37.072  29.572   7.680
 1516POPC   NC322511  41.763  30.206   9.466
 1516POPC   PO422512  41.949  29.485   9.461
 1516POPC   GL122513  41.686  29.712   9.110
 1516POPC   GL222514  41.347  29.871   9.110
 1516POPC   C1A22515  41.507  29.543   8.711
 1516POPC   D2A22516  41.637  29.662   8.327
 1516POPC   C3A22517  41.397  29.689   7.980
 1516POPC   C4A22518  41.751  29.895   7.771
 1516POPC   C1B22519  41.542  30.050   8.700
 1516POPC   C2B22520  41.347  30.098   8.268
 1516POPC   C3B22521  41.260  30.199   7.807
 1516POPC   C4B22522  41.043  30.306   7.379
 1517POPC   NC322523  35.955  14.615   9.377
 1517POPC   PO422524  36.327  14.168   9.664
 1517POPC   GL122525  36.159  14.206   9.186
 1517POPC   GL222526  36.196  14.494   8.945
 1517POPC   C1A22527  35.882  14.178   8.764
 1517POPC   D2A22528  36.175  14.387   8.458
 1517POPC   C3A22529  36.102  14.412   8.044
 1517POPC   C4A22530  36.286  14.388   7.633
 1517POPC   C1B22531  35.945  14.779   8.725
 1517POPC   C2B22532  35.785  14.717   8.341
 1517POPC   C3B22533  35.874  14.867   7.951
 1517POPC   C4B22534  36.018  14.812   7.557
 1518POPC   NC322535   0.573  17.154   9.375
 1518POPC   PO422536   0.640  17.859   9.445
 1518POPC   GL122537   0.679  17.586   9.127
 1518POPC   GL222538   0.330  17.621   9.074
 1518POPC   C1A22539   0.680  17.410   8.714
 1518POPC   D2A22540   0.507  17.289   8.328
 1518POPC   C3A22541   0.695  17.350   7.928
 1518POPC   C4A22542   0.381  17.212   7.623
 1518POPC   C1B22543   0.179  17.560   8.657
 1518POPC   C2B22544   0.211  17.724   8.227
 1518POPC   C3B22545   0.336  17.684   7.798
 1518POPC   C4B22546   0.159  17.580   7.361
 1519POPC   NC322547   3.626  42.782   9.502
 1519POPC   PO422548   3.777  43.428   9.434
 1519POPC   GL122549   3.503  43.155   9.141
 1519POPC   GL222550   3.177  42.949   9.167
 1519POPC   C1A22551   3.408  43.100   8.706
 1519POPC   D2A22552   3.648  43.075   8.351
 1519POPC   C3A22553   3.520  43.278   8.037
 1519POPC   C4A22554   3.572  43.157   7.642
 1519POPC   C1B22555   3.127  42.689   8.768
 1519POPC   C2B22556   3.345  42.608   8.387
 1519POPC   C3B22557   3.371  42.789   7.992
 1519POPC   C4B22558   3.099  43.064   7.750
 1520POPC   NC322559  11.976  29.867   9.492
 1520POPC   PO422560  12.276  30.500   9.640
 1520POPC   GL122561  12.215  30.329   9.230
 1520POPC   GL222562  11.870  30.251   9.182
 1520POPC   C1A22563  12.248  30.064   8.853
 1520POPC   D2A22564  12.110  29.768   8.532
 1520POPC   C3A22565  12.166  29.903   8.096
 1520POPC   C4A22566  11.989  29.780   7.687
 1520POPC   C1B22567  11.727  29.963   8.862
 1520POPC   C2B22568  11.578  29.894   8.460
 1520POPC   C3B22569  11.657  29.928   8.053
 1520POPC   C4B22570  11.550  30.138   7.675
 1521POPC   NC322571  26.748   5.080   9.798
 1521POPC   PO422572  27.408   5.082   9.673
 1521POPC   GL122573  27.136   4.919   9.253
 1521POPC   GL222574  26.794   5.014   9.300
 1521POPC   C1A22575  27.070   4.852   8.791
 1521POPC   D2A22576  27.030   5.225   8.464
 1521POPC   C3A22577  26.857   5.275   8.058
 1521POPC   C4A22578  26.903   4.966   7.720
 1521POPC   C1B22579  26.673   5.132   8.903
 1521POPC   C2B22580  26.639   4.890   8.514
 1521POPC   C3B22581  26.510   4.898   8.086
 1521POPC   C4B22582  26.462   5.196   7.733
 1522POPC   NC322583  16.376  32.495   9.507
 1522POPC   PO422584  15.815  32.123   9.687
 1522POPC   GL122585  15.792  32.061   9.247
 1522POPC   GL222586  15.766  32.426   9.260
 1522POPC   C1A22587  16.027  31.950   8.831
 1522POPC   D2A22588  16.035  32.163   8.433
 1522POPC   C3A22589  15.960  31.965   8.043
 1522POPC   C4A22590  16.081  32.188   7.665
 1522POPC   C1B22591  15.774  32.400   8.823
 1522POPC   C2B22592  15.649  32.555   8.412
 1522POPC   C3B22593  15.769  32.427   8.031
 1522POPC   C4B22594  15.679  32.471   7.613
 1523POPC   NC322595  11.095  30.334   9.558
 1523POPC   PO422596  11.419  30.931   9.588
 1523POPC   GL122597  11.259  30.691   9.244
 1523POPC   GL222598  11.271  30.953   9.061
 1523POPC   C1A22599  11.399  30.502   8.834
 1523POPC   D2A22600  11.492  30.425   8.378
 1523POPC   C3A22601  11.177  30.580   8.061
 1523POPC   C4A22602  11.224  30.629   7.649
 1523POPC   C1B22603  11.522  31.025   8.720
 1523POPC   C2B22604  11.437  30.960   8.306
 1523POPC   C3B22605  11.632  30.769   7.926
 1523POPC   C4B22606  11.678  30.980   7.546
 1524POPC   NC322607   8.422  12.113   9.523
 1524POPC   PO422608   7.808  12.136   9.777
 1524POPC   GL122609   8.008  11.980   9.268
 1524POPC   GL222610   8.236  12.208   9.068
 1524POPC   C1A22611   7.936  11.900   8.802
 1524POPC   D2A22612   8.065  12.072   8.366
 1524POPC   C3A22613   8.169  11.887   7.942
 1524POPC   C4A22614   8.145  11.838   7.468
 1524POPC   C1B22615   8.320  12.441   8.693
 1524POPC   C2B22616   8.310  12.631   8.280
 1524POPC   C3B22617   8.188  12.424   7.899
 1524POPC   C4B22618   8.372  12.270   7.478
 1525POPC   NC322619   0.361  38.292   9.574
 1525POPC   PO422620   0.739  38.744   9.350
 1525POPC   GL122621   0.392  38.569   9.129
 1525POPC   GL222622   0.567  38.278   9.105
 1525POPC   C1A22623   0.285  38.430   8.689
 1525POPC   D2A22624   0.468  38.648   8.325
 1525POPC   C3A22625   0.443  38.550   7.905
 1525POPC   C4A22626   0.502  38.846   7.580
 1525POPC   C1B22627   0.723  38.084   8.721
 1525POPC   C2B22628   0.536  38.125   8.303
 1525POPC   C3B22629   0.782  38.174   7.935
 1525POPC   C4B22630   0.804  38.400   7.564
 1526POPC   NC322631  30.886  17.701   9.714
 1526POPC   PO422632  30.282  17.405   9.933
 1526POPC   GL122633  30.517  17.520   9.400
 1526POPC   GL222634  30.908  17.575   9.226
 1526POPC   C1A22635  30.543  17.549   8.869
 1526POPC   D2A22636  30.505  17.783   8.450
 1526POPC   C3A22637  30.551  17.635   8.015
 1526POPC   C4A22638  30.529  17.543   7.564
 1526POPC   C1B22639  31.045  17.688   8.778
 1526POPC   C2B22640  30.997  17.873   8.350
 1526POPC   C3B22641  31.038  17.678   7.933
 1526POPC   C4B22642  31.004  17.705   7.418
 1527POPC   NC322643  37.825  24.233   9.314
 1527POPC   PO422644  37.987  24.935   9.307
 1527POPC   GL122645  37.758  24.752   8.922
 1527POPC   GL222646  37.371  24.697   8.791
 1527POPC   C1A22647  37.712  24.980   8.549
 1527POPC   D2A22648  37.774  24.886   8.137
 1527POPC   C3A22649  37.599  24.551   7.914
 1527POPC   C4A22650  37.595  24.687   7.516
 1527POPC   C1B22651  37.566  24.507   8.449
 1527POPC   C2B22652  37.905  24.363   8.269
 1527POPC   C3B22653  37.934  24.140   7.900
 1527POPC   C4B22654  37.786  24.186   7.470
 1528POPC   NC322655   8.659  36.184   9.523
 1528POPC   PO422656   9.251  36.472   9.397
 1528POPC   GL122657   8.988  36.174   9.079
 1528POPC   GL222658   8.606  36.014   9.049
 1528POPC   C1A22659   9.229  36.001   8.731
 1528POPC   D2A22660   9.269  35.615   8.448
 1528POPC   C3A22661   9.243  35.825   8.077
 1528POPC   C4A22662   8.866  35.900   7.852
 1528POPC   C1B22663   8.580  36.109   8.620
 1528POPC   C2B22664   8.921  36.148   8.340
 1528POPC   C3B22665   9.015  36.375   7.972
 1528POPC   C4B22666   8.816  36.321   7.583
 1529POPC   NC322667   6.198  22.625   9.532
 1529POPC   PO422668   5.718  23.026   9.650
 1529POPC   GL122669   5.753  22.866   9.213
 1529POPC   GL222670   6.113  22.865   9.082
 1529POPC   C1A22671   5.558  22.743   8.797
 1529POPC   D2A22672   5.665  22.552   8.379
 1529POPC   C3A22673   5.585  22.767   8.005
 1529POPC   C4A22674   5.872  22.767   7.677
 1529POPC   C1B22675   5.919  23.116   8.760
 1529POPC   C2B22676   5.999  23.356   8.365
 1529POPC   C3B22677   5.796  23.249   7.975
 1529POPC   C4B22678   5.563  23.504   7.694
 1530POPC   NC322679  21.063  32.229   9.425
 1530POPC   PO422680  20.413  32.461   9.521
 1530POPC   GL122681  20.665  32.479   9.160
 1530POPC   GL222682  20.691  32.123   9.090
 1530POPC   C1A22683  20.568  32.446   8.722
 1530POPC   D2A22684  20.456  32.251   8.358
 1530POPC   C3A22685  20.497  32.443   7.978
 1530POPC   C4A22686  20.581  32.573   7.570
 1530POPC   C1B22687  20.789  31.891   8.739
 1530POPC   C2B22688  20.710  31.749   8.341
 1530POPC   C3B22689  20.667  31.944   7.930
 1530POPC   C4B22690  20.483  31.884   7.514
 1531POPC   NC322691  37.646  32.230   9.510
 1531POPC   PO422692  38.070  31.674   9.451
 1531POPC   GL122693  37.900  31.999   9.096
 1531POPC   GL222694  37.784  32.380   9.065
 1531POPC   C1A22695  37.834  32.138   8.648
 1531POPC   D2A22696  37.519  32.032   8.347
 1531POPC   C3A22697  37.882  32.067   8.126
 1531POPC   C4A22698  38.078  32.067   7.770
 1531POPC   C1B22699  37.404  32.394   8.813
 1531POPC   C2B22700  37.165  32.418   8.413
 1531POPC   C3B22701  37.304  32.374   7.975
 1531POPC   C4B22702  37.588  32.136   7.724
 1532POPC   NC322703  42.859   2.221   9.671
 1532POPC   PO422704  43.325   1.754   9.642
 1532POPC   GL122705  43.082   1.754   9.218
 1532POPC   GL222706  42.804   2.026   9.162
 1532POPC   C1A22707  43.136   1.812   8.749
 1532POPC   D2A22708  43.327   1.944   8.353
 1532POPC   C3A22709  43.234   1.648   8.000
 1532POPC   C4A22710  42.853   1.629   7.811
 1532POPC   C1B22711  42.968   2.302   8.824
 1532POPC   C2B22712  42.953   2.365   8.366
 1532POPC   C3B22713  43.015   2.121   7.963
 1532POPC   C4B22714  42.882   2.070   7.522
 1533POPC   NC322715  37.400  16.133   9.540
 1533POPC   PO422716  37.779  15.594   9.486
 1533POPC   GL122717  37.547  15.868   9.132
 1533POPC   GL222718  37.207  16.094   9.080
 1533POPC   C1A22719  37.644  16.106   8.757
 1533POPC   D2A22720  37.880  16.121   8.382
 1533POPC   C3A22721  37.800  15.964   8.018
 1533POPC   C4A22722  37.886  16.112   7.646
 1533POPC   C1B22723  37.220  15.851   8.703
 1533POPC   C2B22724  37.347  15.963   8.276
 1533POPC   C3B22725  37.368  16.163   7.844
 1533POPC   C4B22726  37.507  16.340   7.420
 1534POPC   NC322727  24.337  10.752   9.541
 1534POPC   PO422728  24.756  10.224   9.457
 1534POPC   GL122729  24.448  10.403   9.119
 1534POPC   GL222730  24.236  10.753   9.053
 1534POPC   C1A22731  24.473  10.300   8.678
 1534POPC   D2A22732  24.832  10.175   8.403
 1534POPC   C3A22733  24.698  10.195   7.989
 1534POPC   C4A22734  24.579  10.553   7.792
 1534POPC   C1B22735  24.588  10.805   8.781
 1534POPC   C2B22736  24.665  10.668   8.383
 1534POPC   C3B22737  24.374  10.837   8.140
 1534POPC   C4B22738  24.081  10.661   7.837
 1535POPC   NC322739  24.628  37.247   9.485
 1535POPC   PO422740  24.699  37.835   9.407
 1535POPC   GL122741  24.401  37.640   9.116
 1535POPC   GL222742  24.181  37.340   9.225
 1535POPC   C1A22743  24.543  37.605   8.692
 1535POPC   D2A22744  24.813  37.508   8.334
 1535POPC   C3A22745  24.552  37.420   7.983
 1535POPC   C4A22746  24.415  37.724   7.674
 1535POPC   C1B22747  24.053  37.412   8.775
 1535POPC   C2B22748  24.170  37.470   8.374
 1535POPC   C3B22749  24.053  37.529   7.989
 1535POPC   C4B22750  24.137  37.285   7.667
 1536POPC   NC322751  23.451  34.242   9.502
 1536POPC   PO422752  23.900  33.812   9.381
 1536POPC   GL122753  23.821  33.713   9.003
 1536POPC   GL222754  23.484  33.770   9.028
 1536POPC   C1A22755  23.775  33.750   8.574
 1536POPC   D2A22756  23.956  33.946   8.252
 1536POPC   C3A22757  23.811  33.876   7.905
 1536POPC   C4A22758  23.426  33.671   7.769
 1536POPC   C1B22759  23.579  34.153   8.805
 1536POPC   C2B22760  23.560  34.283   8.390
 1536POPC   C3B22761  23.395  34.133   8.010
 1536POPC   C4B22762  23.532  34.123   7.556
 1537POPC   NC322763  19.055  14.694   9.395
 1537POPC   PO422764  19.214  14.168   9.650
 1537POPC   GL122765  19.206  14.327   9.110
 1537POPC   GL222766  18.949  14.285   8.910
 1537POPC   C1A22767  19.324  14.506   8.668
 1537POPC   D2A22768  19.025  14.357   8.378
 1537POPC   C3A22769  19.168  14.241   7.984
 1537POPC   C4A22770  19.511  14.312   7.719
 1537POPC   C1B22771  18.848  14.693   8.760
 1537POPC   C2B22772  18.678  14.754   8.354
 1537POPC   C3B22773  18.831  14.651   7.968
 1537POPC   C4B22774  18.647  14.775   7.563
 1538POPC   NC322775   2.333  22.583   9.577
 1538POPC   PO422776   1.986  23.182   9.406
 1538POPC   GL122777   2.009  22.942   9.085
 1538POPC   GL222778   1.982  22.605   9.168
 1538POPC   C1A22779   1.835  22.881   8.708
 1538POPC   D2A22780   2.001  22.783   8.308
 1538POPC   C3A22781   1.813  22.995   7.943
 1538POPC   C4A22782   2.014  23.233   7.643
 1538POPC   C1B22783   2.220  22.557   8.753
 1538POPC   C2B22784   2.215  22.320   8.402
 1538POPC   C3B22785   2.328  22.516   8.036
 1538POPC   C4B22786   2.167  22.728   7.664
 1539POPC   NC322787  24.944  21.167   9.529
 1539POPC   PO422788  25.296  21.678   9.435
 1539POPC   GL122789  25.331  21.432   9.078
 1539POPC   GL222790  25.331  21.066   9.186
 1539POPC   C1A22791  25.477  21.640   8.702
 1539POPC   D2A22792  25.478  21.865   8.299
 1539POPC   C3A22793  25.435  21.535   8.006
 1539POPC   C4A22794  25.539  21.458   7.580
 1539POPC   C1B22795  25.125  20.996   8.800
 1539POPC   C2B22796  25.054  20.757   8.419
 1539POPC   C3B22797  24.943  20.867   7.988
 1539POPC   C4B22798  25.162  21.126   7.689
 1540POPC   NC322799   3.766   3.142   9.542
 1540POPC   PO422800   3.336   3.629   9.511
 1540POPC   GL122801   3.484   3.420   9.191
 1540POPC   GL222802   3.747   3.648   9.181
 1540POPC   C1A22803   3.364   3.395   8.769
 1540POPC   D2A22804   3.204   3.104   8.436
 1540POPC   C3A22805   3.461   3.075   8.073
 1540POPC   C4A22806   3.537   3.416   7.777
 1540POPC   C1B22807   3.834   3.746   8.727
 1540POPC   C2B22808   3.596   3.782   8.320
 1540POPC   C3B22809   3.693   3.880   7.867
 1540POPC   C4B22810   3.699   3.761   7.395
 1541POPC   NC322811  13.649   3.817   9.412
 1541POPC   PO422812  13.776   3.161   9.379
 1541POPC   GL122813  13.732   3.453   9.051
 1541POPC   GL222814  13.386   3.590   9.008
 1541POPC   C1A22815  13.717   3.478   8.624
 1541POPC   D2A22816  13.497   3.525   8.293
 1541POPC   C3A22817  13.762   3.556   7.979
 1541POPC   C4A22818  13.605   3.357   7.629
 1541POPC   C1B22819  13.439   3.906   8.676
 1541POPC   C2B22820  13.300   4.000   8.257
 1541POPC   C3B22821  13.355   3.865   7.832
 1541POPC   C4B22822  13.327   3.932   7.382
 1542POPC   NC322823  15.345  42.051   9.487
 1542POPC   PO422824  14.743  42.504   9.519
 1542POPC   GL122825  14.891  42.351   9.121
 1542POPC   GL222826  15.273  42.326   9.076
 1542POPC   C1A22827  15.002  42.512   8.708
 1542POPC   D2A22828  15.135  42.367   8.341
 1542POPC   C3A22829  15.019  42.618   8.003
 1542POPC   C4A22830  14.922  42.384   7.649
 1542POPC   C1B22831  15.577  42.158   8.764
 1542POPC   C2B22832  15.693  42.315   8.357
 1542POPC   C3B22833  15.510  42.359   7.973
 1542POPC   C4B22834  15.423  42.115   7.611
 1543POPC   NC322835   0.820  20.719   9.489
 1543POPC   PO422836   0.148  20.905   9.504
 1543POPC   GL122837   0.373  20.798   9.189
 1543POPC   GL222838   0.120  20.571   9.077
 1543POPC   C1A22839   0.558  20.655   8.830
 1543POPC   D2A22840   0.611  20.820   8.451
 1543POPC   C3A22841   0.694  20.670   8.068
 1543POPC   C4A22842   0.367  20.730   7.791
 1543POPC   C1B22843   0.139  20.379   8.686
 1543POPC   C2B22844   0.232  20.480   8.275
 1543POPC   C3B22845   0.144  20.246   7.920
 1543POPC   C4B22846   0.225  20.322   7.491
 1544POPC   NC322847  18.868   6.583   9.388
 1544POPC   PO422848  19.379   6.225   9.059
 1544POPC   GL122849  19.090   6.520   8.918
 1544POPC   GL222850  18.969   6.854   8.976
 1544POPC   C1A22851  19.013   6.646   8.518
 1544POPC   D2A22852  18.827   6.956   8.269
 1544POPC   C3A22853  18.866   6.688   7.949
 1544POPC   C4A22854  19.066   6.299   7.896
 1544POPC   C1B22855  19.291   7.041   8.701
 1544POPC   C2B22856  19.368   6.927   8.261
 1544POPC   C3B22857  19.259   6.983   7.821
 1544POPC   C4B22858  18.877   6.995   7.547
 1545POPC   NC322859  36.250   2.993   9.407
 1545POPC   PO422860  35.803   2.437   9.488
 1545POPC   GL122861  36.000   2.599   9.105
 1545POPC   GL222862  36.001   2.954   8.962
 1545POPC   C1A22863  36.296   2.610   8.770
 1545POPC   D2A22864  36.269   2.917   8.456
 1545POPC   C3A22865  36.246   2.744   8.062
 1545POPC   C4A22866  36.415   2.881   7.701
 1545POPC   C1B22867  35.777   2.723   8.638
 1545POPC   C2B22868  35.731   2.822   8.197
 1545POPC   C3B22869  35.849   2.933   7.754
 1545POPC   C4B22870  35.744   3.140   7.361
 1546POPC   NC322871  13.798  35.084   9.462
 1546POPC   PO422872  13.519  35.680   9.478
 1546POPC   GL122873  13.599  35.434   9.119
 1546POPC   GL222874  13.916  35.299   9.012
 1546POPC   C1A22875  13.476  35.304   8.705
 1546POPC   D2A22876  13.230  35.459   8.341
 1546POPC   C3A22877  13.520  35.605   8.041
 1546POPC   C4A22878  13.837  35.365   7.835
 1546POPC   C1B22879  13.903  34.981   8.737
 1546POPC   C2B22880  14.011  35.050   8.330
 1546POPC   C3B22881  13.874  34.884   7.947
 1546POPC   C4B22882  13.738  34.968   7.529
 1547POPC   NC322883  35.139  35.213   9.523
 1547POPC   PO422884  35.697  35.296   9.165
 1547POPC   GL122885  35.268  35.449   9.090
 1547POPC   GL222886  34.961  35.251   9.025
 1547POPC   C1A22887  35.171  35.626   8.709
 1547POPC   D2A22888  35.539  35.727   8.440
 1547POPC   C3A22889  35.580  35.401   8.121
 1547POPC   C4A22890  35.450  35.504   7.720
 1547POPC   C1B22891  35.201  35.028   8.717
 1547POPC   C2B22892  35.200  34.997   8.258
 1547POPC   C3B22893  35.215  35.016   7.794
 1547POPC   C4B22894  35.069  35.311   7.456
 1548POPC   NC322895  12.604  18.970   9.541
 1548POPC   PO422896  12.026  19.126   9.638
 1548POPC   GL122897  12.014  19.021   9.202
 1548POPC   GL222898  12.351  19.097   9.102
 1548POPC   C1A22899  12.067  18.757   8.846
 1548POPC   D2A22900  12.380  18.720   8.512
 1548POPC   C3A22901  12.191  18.827   8.126
 1548POPC   C4A22902  12.064  19.029   7.705
 1548POPC   C1B22903  12.140  19.266   8.730
 1548POPC   C2B22904  12.247  19.293   8.286
 1548POPC   C3B22905  12.112  19.523   7.897
 1548POPC   C4B22906  11.971  19.544   7.450
 1549POPC   NC322907  19.976  10.103   9.787
 1549POPC   PO422908  19.589   9.648   9.567
 1549POPC   GL122909  19.828   9.776   9.239
 1549POPC   GL222910  19.868  10.108   9.271
 1549POPC   C1A22911  19.839   9.615   8.824
 1549POPC   D2A22912  20.045   9.729   8.468
 1549POPC   C3A22913  19.811   9.630   8.107
 1549POPC   C4A22914  19.908   9.593   7.683
 1549POPC   C1B22915  19.864  10.126   8.821
 1549POPC   C2B22916  19.729  10.109   8.360
 1549POPC   C3B22917  19.847  10.107   7.917
 1549POPC   C4B22918  19.858  10.154   7.462
 1550POPC   NC322919  30.873   7.171   9.275
 1550POPC   PO422920  30.474   7.583   9.632
 1550POPC   GL122921  30.565   7.563   9.191
 1550POPC   GL222922  30.798   7.829   9.209
 1550POPC   C1A22923  30.590   7.403   8.714
 1550POPC   D2A22924  30.711   7.159   8.299
 1550POPC   C3A22925  30.451   7.115   7.955
 1550POPC   C4A22926  30.392   7.518   7.776
 1550POPC   C1B22927  30.968   7.756   8.803
 1550POPC   C2B22928  31.005   7.589   8.412
 1550POPC   C3B22929  30.780   7.650   8.070
 1550POPC   C4B22930  30.876   7.333   7.791
 1551POPC   NC322931  15.617  39.826   9.621
 1551POPC   PO422932  15.838  40.341   9.380
 1551POPC   GL122933  15.870  39.930   9.172
 1551POPC   GL222934  16.152  39.680   9.250
 1551POPC   C1A22935  15.803  39.837   8.745
 1551POPC   D2A22936  15.705  40.029   8.366
 1551POPC   C3A22937  15.677  39.918   7.958
 1551POPC   C4A22938  15.769  40.275   7.702
 1551POPC   C1B22939  16.293  39.892   8.867
 1551POPC   C2B22940  16.213  40.011   8.452
 1551POPC   C3B22941  16.166  40.092   8.038
 1551POPC   C4B22942  16.123  39.907   7.663
 1552POPC   NC322943  43.643  29.446   9.564
 1552POPC   PO422944  44.154  28.945   9.466
 1552POPC   GL122945  43.868  29.164   9.190
 1552POPC   GL222946  43.649  28.899   9.088
 1552POPC   C1A22947  43.852  29.227   8.735
 1552POPC   D2A22948  43.638  29.290   8.340
 1552POPC   C3A22949  43.969  29.438   8.086
 1552POPC   C4A22950  44.024  29.408   7.654
 1552POPC   C1B22951  43.547  28.816   8.669
 1552POPC   C2B22952  43.659  28.810   8.237
 1552POPC   C3B22953  43.909  28.946   7.888
 1552POPC   C4B22954  43.908  28.917   7.433
 1553POPC   NC322955  10.823  38.255   9.877
 1553POPC   PO422956  10.608  37.805   9.387
 1553POPC   GL122957  10.632  37.633   9.010
 1553POPC   GL222958  10.325  37.434   8.927
 1553POPC   C1A22959  10.630  37.713   8.595
 1553POPC   D2A22960  10.295  37.603   8.352
 1553POPC   C3A22961  10.482  37.663   7.962
 1553POPC   C4A22962  10.773  37.497   7.691
 1553POPC   C1B22963  10.184  37.884   8.809
 1553POPC   C2B22964  10.235  38.120   8.424
 1553POPC   C3B22965  10.260  38.118   7.999
 1553POPC   C4B22966  10.177  37.949   7.579
 1554POPC   NC322967  34.274   7.601   9.836
 1554POPC   PO422968  34.764   7.157   9.573
 1554POPC   GL122969  34.717   7.381   9.203
 1554POPC   GL222970  35.030   7.547   9.148
 1554POPC   C1A22971  34.462   7.453   8.836
 1554POPC   D2A22972  34.183   7.593   8.512
 1554POPC   C3A22973  34.401   7.512   8.151
 1554POPC   C4A22974  34.340   7.387   7.745
 1554POPC   C1B22975  35.002   7.691   8.715
 1554POPC   C2B22976  34.914   7.442   8.334
 1554POPC   C3B22977  34.845   7.429   7.894
 1554POPC   C4B22978  34.909   7.732   7.600
 1555POPC   NC322979  39.335   4.661   9.488
 1555POPC   PO422980  39.055   4.031   9.537
 1555POPC   GL122981  38.986   4.178   9.150
 1555POPC   GL222982  39.041   4.547   9.081
 1555POPC   C1A22983  39.095   4.069   8.754
 1555POPC   D2A22984  39.124   4.311   8.419
 1555POPC   C3A22985  39.341   4.141   8.084
 1555POPC   C4A22986  39.170   4.070   7.678
 1555POPC   C1B22987  39.445   4.444   8.838
 1555POPC   C2B22988  39.612   4.469   8.397
 1555POPC   C3B22989  39.472   4.719   8.054
 1555POPC   C4B22990  39.119   4.558   7.854
 1556POPC   NC322991  36.362  38.788   9.363
 1556POPC   PO422992  35.954  38.187   9.580
 1556POPC   GL122993  35.904  38.399   9.188
 1556POPC   GL222994  36.210  38.371   9.128
 1556POPC   C1A22995  35.886  38.485   8.736
 1556POPC   D2A22996  36.090  38.312   8.367
 1556POPC   C3A22997  35.969  38.497   7.957
 1556POPC   C4A22998  35.915  38.686   7.505
 1556POPC   C1B22999  36.428  38.514   8.769
 1556POPC   C2B23000  36.591  38.456   8.392
 1556POPC   C3B23001  36.478  38.570   8.005
 1556POPC   C4B23002  36.353  38.434   7.608
 1557POPC   NC323003  42.081   1.701   9.319
 1557POPC   PO423004  42.439   2.196   9.500
 1557POPC   GL123005  42.269   2.197   9.104
 1557POPC   GL223006  42.019   2.447   9.106
 1557POPC   C1A23007  42.456   2.238   8.697
 1557POPC   D2A23008  42.690   1.937   8.441
 1557POPC   C3A23009  42.452   1.681   8.143
 1557POPC   C4A23010  42.408   1.845   7.707
 1557POPC   C1B23011  41.913   2.262   8.705
 1557POPC   C2B23012  42.110   1.973   8.413
 1557POPC   C3B23013  42.277   2.175   8.068
 1557POPC   C4B23014  41.984   2.396   7.781
 1558POPC   NC323015  38.667  17.651   9.684
 1558POPC   PO423016  39.334  17.511   9.458
 1558POPC   GL123017  39.177  17.487   9.086
 1558POPC   GL223018  39.043  17.152   9.168
 1558POPC   C1A23019  39.157  17.614   8.655
 1558POPC   D2A23020  39.452  17.618   8.326
 1558POPC   C3A23021  39.377  17.769   7.901
 1558POPC   C4A23022  39.482  17.584   7.497
 1558POPC   C1B23023  39.182  17.101   8.752
 1558POPC   C2B23024  39.071  17.071   8.339
 1558POPC   C3B23025  39.227  17.290   7.997
 1558POPC   C4B23026  38.924  17.369   7.700
 1559POPC   NC323027   2.435   5.702   9.402
 1559POPC   PO423028   3.042   5.961   9.599
 1559POPC   GL123029   2.872   5.883   9.190
 1559POPC   GL223030   2.982   5.551   9.150
 1559POPC   C1A23031   2.597   5.808   8.792
 1559POPC   D2A23032   2.472   5.553   8.420
 1559POPC   C3A23033   2.718   5.686   8.086
 1559POPC   C4A23034   2.638   5.862   7.694
 1559POPC   C1B23035   3.111   5.822   8.753
 1559POPC   C2B23036   2.964   6.036   8.402
 1559POPC   C3B23037   3.022   6.086   7.972
 1559POPC   C4B23038   3.158   5.776   7.697
 1560POPC   NC323039  25.145  37.873   9.292
 1560POPC   PO423040  25.529  37.341   9.423
 1560POPC   GL123041  25.266  37.382   9.045
 1560POPC   GL223042  24.898  37.491   9.054
 1560POPC   C1A23043  25.396  37.428   8.613
 1560POPC   D2A23044  25.518  37.263   8.219
 1560POPC   C3A23045  25.329  37.579   7.966
 1560POPC   C4A23046  25.306  38.025   7.847
 1560POPC   C1B23047  25.026  37.783   8.698
 1560POPC   C2B23048  25.079  37.974   8.327
 1560POPC   C3B23049  24.858  37.855   7.983
 1560POPC   C4B23050  24.920  37.607   7.666
 1561POPC   NC323051  33.828  43.645   9.547
 1561POPC   PO423052  34.016  42.962   9.510
 1561POPC   GL123053  33.978  43.104   9.111
 1561POPC   GL223054  33.645  43.245   9.148
 1561POPC   C1A23055  33.883  43.247   8.681
 1561POPC   D2A23056  33.618  43.028   8.371
 1561POPC   C3A23057  33.764  42.933   7.989
 1561POPC   C4A23058  33.771  43.149   7.620
 1561POPC   C1B23059  33.332  43.228   8.779
 1561POPC   C2B23060  33.257  43.364   8.332
 1561POPC   C3B23061  33.525  43.458   7.990
 1561POPC   C4B23062  33.404  43.490   7.570
 1562POPC   NC323063  36.230  31.484   9.968
 1562POPC   PO423064  36.407  31.485   9.310
 1562POPC   GL123065  36.149  31.346   9.039
 1562POPC   GL223066  35.896  31.177   9.186
 1562POPC   C1A23067  36.053  31.539   8.678
 1562POPC   D2A23068  36.204  31.400   8.320
 1562POPC   C3A23069  36.076  31.670   8.035
 1562POPC   C4A23070  36.243  31.532   7.681
 1562POPC   C1B23071  35.835  31.081   8.736
 1562POPC   C2B23072  35.723  31.285   8.340
 1562POPC   C3B23073  35.848  31.241   7.900
 1562POPC   C4B23074  35.743  31.567   7.630
 1563POPC   NC323075  40.317  23.478   9.365
 1563POPC   PO423076  39.785  23.927   9.538
 1563POPC   GL123077  40.035  23.845   9.149
 1563POPC   GL223078  39.917  23.528   9.034
 1563POPC   C1A23079  40.231  23.762   8.730
 1563POPC   D2A23080  39.998  23.623   8.379
 1563POPC   C3A23081  40.222  23.709   8.000
 1563POPC   C4A23082  40.243  24.120   7.808
 1563POPC   C1B23083  39.683  23.346   8.706
 1563POPC   C2B23084  39.569  23.331   8.278
 1563POPC   C3B23085  39.786  23.307   7.887
 1563POPC   C4B23086  39.949  23.593   7.569
 1564POPC   NC323087   1.135  11.137   9.588
 1564POPC   PO423088   1.622  11.657   9.576
 1564POPC   GL123089   1.410  11.373   9.223
 1564POPC   GL223090   1.021  11.271   9.131
 1564POPC   C1A23091   1.386  11.089   8.835
 1564POPC   D2A23092   1.162  11.168   8.431
 1564POPC   C3A23093   1.314  11.023   8.014
 1564POPC   C4A23094   1.487  11.139   7.551
 1564POPC   C1B23095   0.753  11.390   8.758
 1564POPC   C2B23096   0.634  11.537   8.369
 1564POPC   C3B23097   0.858  11.365   8.054
 1564POPC   C4B23098   1.047  11.327   7.686
 1565POPC   NC323099  37.841   3.047   9.408
 1565POPC   PO423100  38.498   2.763   9.520
 1565POPC   GL123101  38.328   2.667   9.167
 1565POPC   GL223102  38.255   3.021   9.114
 1565POPC   C1A23103  38.461   2.681   8.763
 1565POPC   D2A23104  38.551   2.775   8.367
 1565POPC   C3A23105  38.400   2.499   8.065
 1565POPC   C4A23106  38.629   2.616   7.716
 1565POPC   C1B23107  38.348   3.206   8.725
 1565POPC   C2B23108  38.472   3.269   8.279
 1565POPC   C3B23109  38.324   3.001   7.939
 1565POPC   C4B23110  37.963   3.093   7.669
 1566POPC   NC323111  27.489  44.216   9.563
 1566POPC   PO423112  27.293  43.644   9.454
 1566POPC   GL123113  27.619  43.799   9.180
 1566POPC   GL223114  27.391  44.018   9.057
 1566POPC   C1A23115  27.801  43.908   8.754
 1566POPC   D2A23116  27.949  43.828   8.335
 1566POPC   C3A23117  27.765  44.024   7.933
 1566POPC   C4A23118  27.774  44.184   7.478
 1566POPC   C1B23119  27.404  43.606   8.760
 1566POPC   C2B23120  27.494  43.613   8.320
 1566POPC   C3B23121  27.437  43.615   7.897
 1566POPC   C4B23122  27.366  43.911   7.617
 1567POPC   NC323123  37.416  39.948   9.471
 1567POPC   PO423124  37.984  40.300   9.709
 1567POPC   GL123125  37.890  40.093   9.319
 1567POPC   GL223126  37.680  40.337   9.221
 1567POPC   C1A23127  37.826  40.013   8.859
 1567POPC   D2A23128  37.973  40.013   8.423
 1567POPC   C3A23129  37.737  39.808   8.119
 1567POPC   C4A23130  37.653  39.953   7.744
 1567POPC   C1B23131  37.357  40.315   8.872
 1567POPC   C2B23132  37.491  40.187   8.500
 1567POPC   C3B23133  37.431  40.250   8.095
 1567POPC   C4B23134  37.302  40.407   7.712
 1568POPC   NC323135   2.393  14.711   9.399
 1568POPC   PO423136   2.417  14.081   9.597
 1568POPC   GL123137   2.612  14.250   9.195
 1568POPC   GL223138   2.822  14.558   9.121
 1568POPC   C1A23139   2.733  14.108   8.781
 1568POPC   D2A23140   3.088  14.073   8.478
 1568POPC   C3A23141   2.901  14.159   8.081
 1568POPC   C4A23142   2.725  14.366   7.731
 1568POPC   C1B23143   2.985  14.546   8.695
 1568POPC   C2B23144   2.799  14.632   8.297
 1568POPC   C3B23145   2.694  14.838   7.903
 1568POPC   C4B23146   2.903  14.748   7.466
 1569POPC   NC323147  42.750   4.939   9.360
 1569POPC   PO423148  42.242   5.372   9.554
 1569POPC   GL123149  42.253   5.060   9.165
 1569POPC   GL223150  42.555   4.978   8.910
 1569POPC   C1A23151  42.103   4.824   8.774
 1569POPC   D2A23152  42.322   4.718   8.368
 1569POPC   C3A23153  42.129   4.829   7.968
 1569POPC   C4A23154  42.149   4.667   7.560
 1569POPC   C1B23155  42.386   5.324   8.724
 1569POPC   C2B23156  42.596   5.551   8.450
 1569POPC   C3B23157  42.551   5.386   8.074
 1569POPC   C4B23158  42.399   5.200   7.688
 1570POPC   NC323159  41.013  13.988   9.384
 1570POPC   PO423160  40.523  13.492   9.399
 1570POPC   GL123161  40.663  13.754   9.074
 1570POPC   GL223162  41.005  13.701   8.963
 1570POPC   C1A23163  40.622  13.981   8.710
 1570POPC   D2A23164  40.867  13.748   8.408
 1570POPC   C3A23165  40.715  13.643   8.006
 1570POPC   C4A23166  40.794  13.844   7.622
 1570POPC   C1B23167  41.209  13.458   8.644
 1570POPC   C2B23168  41.331  13.585   8.253
 1570POPC   C3B23169  41.191  13.497   7.877
 1570POPC   C4B23170  40.912  13.196   7.812
 1571POPC   NC323171  14.781  15.800   9.375
 1571POPC   PO423172  15.430  16.195   9.480
 1571POPC   GL123173  15.233  15.938   9.183
 1571POPC   GL223174  15.378  15.594   9.227
 1571POPC   C1A23175  15.042  16.009   8.768
 1571POPC   D2A23176  15.008  16.336   8.476
 1571POPC   C3A23177  14.922  16.165   8.092
 1571POPC   C4A23178  15.146  15.966   7.835
 1571POPC   C1B23179  15.170  15.516   8.813
 1571POPC   C2B23180  15.154  15.670   8.368
 1571POPC   C3B23181  15.235  15.468   7.969
 1571POPC   C4B23182  15.108  15.578   7.553
 1572POPC   NC323183   4.781   4.321   9.602
 1572POPC   PO423184   4.897   3.737   9.565
 1572POPC   GL123185   4.829   3.970   9.184
 1572POPC   GL223186   5.084   4.255   9.186
 1572POPC   C1A23187   4.832   4.163   8.770
 1572POPC   D2A23188   4.739   4.358   8.400
 1572POPC   C3A23189   4.808   4.087   8.049
 1572POPC   C4A23190   5.102   4.240   7.757
 1572POPC   C1B23191   5.202   4.519   8.779
 1572POPC   C2B23192   5.237   4.597   8.316
 1572POPC   C3B23193   5.480   4.561   7.926
 1572POPC   C4B23194   5.540   4.403   7.503
 1573POPC   NC323195  18.516  41.506   9.605
 1573POPC   PO423196  18.499  42.074   9.411
 1573POPC   GL123197  18.283  41.719   9.173
 1573POPC   GL223198  18.383  41.371   9.129
 1573POPC   C1A23199  18.170  41.742   8.735
 1573POPC   D2A23200  18.405  41.995   8.405
 1573POPC   C3A23201  18.431  41.785   8.008
 1573POPC   C4A23202  18.466  41.736   7.554
 1573POPC   C1B23203  18.214  41.239   8.743
 1573POPC   C2B23204  18.189  41.400   8.313
 1573POPC   C3B23205  18.220  41.349   7.853
 1573POPC   C4B23206  18.403  41.117   7.483
 1574POPC   NC323207  28.532   9.595   9.345
 1574POPC   PO423208  28.136  10.042   9.487
 1574POPC   GL123209  28.339  10.007   9.088
 1574POPC   GL223210  28.152   9.703   9.011
 1574POPC   C1A23211  28.570   9.851   8.717
 1574POPC   D2A23212  28.386   9.717   8.329
 1574POPC   C3A23213  28.546   9.911   8.008
 1574POPC   C4A23214  28.686   9.628   7.751
 1574POPC   C1B23215  28.077   9.963   8.633
 1574POPC   C2B23216  28.044  10.078   8.165
 1574POPC   C3B23217  28.147  10.000   7.711
 1574POPC   C4B23218  28.089   9.608   7.417
 1575POPC   NC323219  12.051  28.992   9.553
 1575POPC   PO423220  12.365  29.629   9.400
 1575POPC   GL123221  12.109  29.461   9.039
 1575POPC   GL223222  12.119  29.080   9.036
 1575POPC   C1A23223  11.858  29.287   8.655
 1575POPC   D2A23224  11.928  28.851   8.453
 1575POPC   C3A23225  11.920  28.882   7.997
 1575POPC   C4A23226  11.991  29.295   7.832
 1575POPC   C1B23227  12.362  29.216   8.653
 1575POPC   C2B23228  12.350  29.136   8.210
 1575POPC   C3B23229  12.487  29.092   7.786
 1575POPC   C4B23230  12.565  29.039   7.346
 1576POPC   NC323231  27.439  36.208   9.394
 1576POPC   PO423232  28.065  36.020   9.459
 1576POPC   GL123233  27.937  36.069   9.035
 1576POPC   GL223234  27.761  36.377   9.044
 1576POPC   C1A23235  27.732  36.102   8.615
 1576POPC   D2A23236  27.756  36.213   8.201
 1576POPC   C3A23237  27.655  35.914   7.924
 1576POPC   C4A23238  27.536  36.077   7.567
 1576POPC   C1B23239  27.376  36.431   8.798
 1576POPC   C2B23240  27.344  36.477   8.383
 1576POPC   C3B23241  27.388  36.601   7.990
 1576POPC   C4B23242  27.315  36.575   7.574
 1577POPC   NC323243   8.515  23.589   9.422
 1577POPC   PO423244   7.886  23.445   9.525
 1577POPC   GL123245   8.069  23.440   9.114
 1577POPC   GL223246   8.181  23.770   9.090
 1577POPC   C1A23247   8.258  23.445   8.675
 1577POPC   D2A23248   8.594  23.647   8.395
 1577POPC   C3A23249   8.477  23.759   7.941
 1577POPC   C4A23250   8.199  23.909   7.584
 1577POPC   C1B23251   8.221  23.954   8.677
 1577POPC   C2B23252   8.092  23.763   8.288
 1577POPC   C3B23253   7.742  23.608   8.055
 1577POPC   C4B23254   7.702  23.789   7.647
 1578POPC   NC323255  11.608  22.472   9.299
 1578POPC   PO423256  11.255  21.875   9.342
 1578POPC   GL123257  11.180  22.227   9.081
 1578POPC   GL223258  10.821  22.389   9.056
 1578POPC   C1A23259  11.222  22.514   8.739
 1578POPC   D2A23260  11.441  22.611   8.356
 1578POPC   C3A23261  11.502  22.258   8.082
 1578POPC   C4A23262  11.477  22.223   7.639
 1578POPC   C1B23263  10.867  22.134   8.699
 1578POPC   C2B23264  11.042  22.249   8.331
 1578POPC   C3B23265  10.992  22.275   7.916
 1578POPC   C4B23266  10.988  22.092   7.531
 1579POPC   NC323267  25.936   7.490   9.565
 1579POPC   PO423268  26.551   7.254   9.506
 1579POPC   GL123269  26.289   7.413   9.143
 1579POPC   GL223270  25.996   7.654   9.101
 1579POPC   C1A23271  25.996   7.222   8.844
 1579POPC   D2A23272  25.794   7.317   8.440
 1579POPC   C3A23273  25.992   7.175   8.047
 1579POPC   C4A23274  25.823   7.248   7.624
 1579POPC   C1B23275  25.794   7.769   8.723
 1579POPC   C2B23276  25.557   7.762   8.348
 1579POPC   C3B23277  25.732   7.642   7.957
 1579POPC   C4B23278  26.096   7.729   7.694
 1580POPC   NC323279  40.206   3.117   9.536
 1580POPC   PO423280  39.957   3.768   9.475
 1580POPC   GL123281  39.867   3.628   9.095
 1580POPC   GL223282  40.052   3.305   9.098
 1580POPC   C1A23283  40.092   3.687   8.729
 1580POPC   D2A23284  40.344   3.559   8.421
 1580POPC   C3A23285  40.171   3.686   8.054
 1580POPC   C4A23286  40.425   3.911   7.817
 1580POPC   C1B23287  39.811   3.246   8.747
 1580POPC   C2B23288  39.824   3.424   8.347
 1580POPC   C3B23289  39.850   3.287   7.929
 1580POPC   C4B23290  39.694   3.412   7.495
 1581POPC   NC323291  36.660  13.255   9.845
 1581POPC   PO423292  36.854  13.746   9.499
 1581POPC   GL123293  36.628  13.806   9.168
 1581POPC   GL223294  36.756  13.456   9.077
 1581POPC   C1A23295  36.843  13.870   8.787
 1581POPC   D2A23296  36.812  13.587   8.461
 1581POPC   C3A23297  37.033  13.757   8.133
 1581POPC   C4A23298  36.782  13.719   7.803
 1581POPC   C1B23299  37.156  13.414   8.815
 1581POPC   C2B23300  37.238  13.320   8.356
 1581POPC   C3B23301  36.914  13.258   8.026
 1581POPC   C4B23302  36.961  13.277   7.585
 1582POPC   NC323303  12.156  25.670   9.402
 1582POPC   PO423304  11.715  26.078   9.677
 1582POPC   GL123305  11.842  26.288   9.200
 1582POPC   GL223306  12.181  26.311   9.168
 1582POPC   C1A23307  12.052  26.087   8.730
 1582POPC   D2A23308  11.982  25.929   8.278
 1582POPC   C3A23309  12.267  26.022   7.919
 1582POPC   C4A23310  12.125  26.116   7.480
 1582POPC   C1B23311  11.993  26.577   8.785
 1582POPC   C2B23312  11.822  26.437   8.373
 1582POPC   C3B23313  11.873  26.347   7.915
 1582POPC   C4B23314  12.185  26.572   7.669
 1583POPC   NC323315  42.721  25.189   9.493
 1583POPC   PO423316  42.067  25.315   9.560
 1583POPC   GL123317  42.332  25.310   9.121
 1583POPC   GL223318  42.607  25.087   9.001
 1583POPC   C1A23319  42.403  25.410   8.641
 1583POPC   D2A23320  42.205  25.571   8.235
 1583POPC   C3A23321  42.195  25.302   7.868
 1583POPC   C4A23322  42.233  24.828   7.858
 1583POPC   C1B23323  42.767  25.059   8.573
 1583POPC   C2B23324  42.575  25.052   8.157
 1583POPC   C3B23325  42.660  25.134   7.695
 1583POPC   C4B23326  42.887  24.967   7.308
 1584POPC   NC323327  26.978  23.951   9.587
 1584POPC   PO423328  26.424  23.925   9.729
 1584POPC   GL123329  26.685  23.873   9.189
 1584POPC   GL223330  27.087  23.866   9.089
 1584POPC   C1A23331  26.693  23.504   8.851
 1584POPC   D2A23332  26.845  23.279   8.479
 1584POPC   C3A23333  26.959  23.553   8.134
 1584POPC   C4A23334  26.717  23.716   7.780
 1584POPC   C1B23335  27.020  23.824   8.645
 1584POPC   C2B23336  26.881  24.033   8.303
 1584POPC   C3B23337  27.082  24.081   7.922
 1584POPC   C4B23338  27.217  23.737   7.721
 1585POPC   NC323339  37.552  12.886   9.582
 1585POPC   PO423340  38.148  13.031   9.259
 1585POPC   GL123341  37.657  13.099   9.073
 1585POPC   GL223342  37.419  12.760   9.112
 1585POPC   C1A23343  37.606  13.042   8.604
 1585POPC   D2A23344  37.910  12.924   8.245
 1585POPC   C3A23345  37.867  12.963   7.788
 1585POPC   C4A23346  38.007  12.697   7.380
 1585POPC   C1B23347  37.379  12.511   8.761
 1585POPC   C2B23348  37.607  12.499   8.392
 1585POPC   C3B23349  37.512  12.639   8.007
 1585POPC   C4B23350  37.549  12.586   7.578
 1586POPC   NC323351  32.503  31.712   9.420
 1586POPC   PO423352  32.124  31.136   9.305
 1586POPC   GL123353  32.379  31.368   9.053
 1586POPC   GL223354  32.144  31.592   9.062
 1586POPC   C1A23355  32.542  31.405   8.646
 1586POPC   D2A23356  32.597  31.154   8.292
 1586POPC   C3A23357  32.499  31.339   7.922
 1586POPC   C4A23358  32.084  31.335   7.776
 1586POPC   C1B23359  32.193  31.769   8.675
 1586POPC   C2B23360  32.448  31.800   8.285
 1586POPC   C3B23361  32.294  31.803   7.866
 1586POPC   C4B23362  31.925  31.850   7.633
 1587POPC   NC323363   3.933  44.869   9.513
 1587POPC   PO423364   3.279  44.796   9.469
 1587POPC   GL123365   3.412  44.512   9.154
 1587POPC   GL223366   3.782  44.579   9.117
 1587POPC   C1A23367   3.183  44.509   8.779
 1587POPC   D2A23368   3.019  44.540   8.367
 1587POPC   C3A23369   3.326  44.481   8.042
 1587POPC   C4A23370   3.314  44.777   7.742
 1587POPC   C1B23371   3.623  44.760   8.723
 1587POPC   C2B23372   3.614  44.797   8.274
 1587POPC   C3B23373   3.787  44.676   7.843
 1587POPC   C4B23374   3.669  44.869   7.388
 1588POPC   NC323375  44.293  25.071   9.415
 1588POPC   PO423376  44.838  25.427   9.420
 1588POPC   GL123377  44.464  25.516   9.194
 1588POPC   GL223378  44.547  25.216   8.997
 1588POPC   C1A23379  44.514  25.681   8.790
 1588POPC   D2A23380  44.869  25.602   8.522
 1588POPC   C3A23381  44.805  25.270   8.210
 1588POPC   C4A23382  44.823  25.383   7.795
 1588POPC   C1B23383  44.385  24.828   8.783
 1588POPC   C2B23384  44.108  24.752   8.444
 1588POPC   C3B23385  44.062  24.885   8.013
 1588POPC   C4B23386  44.400  25.105   7.812
 1589POPC   NC323387  17.754  26.830   9.855
 1589POPC   PO423388  17.263  26.712   9.491
 1589POPC   GL123389  17.397  26.730   9.054
 1589POPC   GL223390  17.334  26.432   8.847
 1589POPC   C1A23391  17.377  26.923   8.651
 1589POPC   D2A23392  17.209  26.681   8.342
 1589POPC   C3A23393  17.154  26.895   7.975
 1589POPC   C4A23394  17.343  26.843   7.592
 1589POPC   C1B23395  17.764  26.583   8.654
 1589POPC   C2B23396  18.042  26.514   8.270
 1589POPC   C3B23397  18.108  26.676   7.826
 1589POPC   C4B23398  18.021  26.957   7.459
 1590POPC   NC323399  32.100  33.308   9.593
 1590POPC   PO423400  31.745  33.839   9.477
 1590POPC   GL123401  32.094  33.671   9.166
 1590POPC   GL223402  32.367  33.428   9.088
 1590POPC   C1A23403  32.351  33.944   8.888
 1590POPC   D2A23404  32.388  34.137   8.480
 1590POPC   C3A23405  32.540  33.903   8.139
 1590POPC   C4A23406  32.335  33.815   7.747
 1590POPC   C1B23407  32.533  33.526   8.663
 1590POPC   C2B23408  32.302  33.466   8.279
 1590POPC   C3B23409  32.034  33.451   7.926
 1590POPC   C4B23410  31.982  33.530   7.472
 1591POPC   NC323411   1.537   3.473   9.438
 1591POPC   PO423412   0.857   3.739   9.392
 1591POPC   GL123413   1.031   3.607   9.023
 1591POPC   GL223414   1.375   3.671   9.013
 1591POPC   C1A23415   1.095   3.381   8.652
 1591POPC   D2A23416   1.259   3.266   8.242
 1591POPC   C3A23417   1.141   3.572   7.959
 1591POPC   C4A23418   1.023   3.662   7.547
 1591POPC   C1B23419   1.260   3.877   8.638
 1591POPC   C2B23420   1.497   3.731   8.324
 1591POPC   C3B23421   1.643   3.565   7.969
 1591POPC   C4B23422   1.535   3.645   7.575
 1592POPC   NC323423   4.941  32.834   9.820
 1592POPC   PO423424   4.334  33.041   9.656
 1592POPC   GL123425   4.516  33.104   9.290
 1592POPC   GL223426   4.599  33.437   9.252
 1592POPC   C1A23427   4.466  33.071   8.870
 1592POPC   D2A23428   4.604  32.924   8.492
 1592POPC   C3A23429   4.326  32.985   8.158
 1592POPC   C4A23430   4.269  33.151   7.767
 1592POPC   C1B23431   4.699  33.520   8.819
 1592POPC   C2B23432   4.471  33.425   8.448
 1592POPC   C3B23433   4.556  33.490   8.026
 1592POPC   C4B23434   4.776  33.283   7.684
 1593POPC   NC323435  44.891  42.489   9.472
 1593POPC   PO423436  44.192  42.408   9.484
 1593POPC   GL123437  44.466  42.333   9.166
 1593POPC   GL223438  44.533  42.665   9.148
 1593POPC   C1A23439  44.675  42.388   8.751
 1593POPC   D2A23440  44.585  42.571   8.342
 1593POPC   C3A23441  44.662  42.295   7.975
 1593POPC   C4A23442  44.372  41.972   7.793
 1593POPC   C1B23443  44.800  42.874   8.813
 1593POPC   C2B23444  44.693  43.078   8.432
 1593POPC   C3B23445  44.585  42.990   8.021
 1593POPC   C4B23446  44.875  42.762   7.819
 1594POPC   NC323447  34.247   5.304   9.955
 1594POPC   PO423448  33.907   4.860   9.510
 1594POPC   GL123449  33.838   5.010   9.059
 1594POPC   GL223450  33.517   4.885   8.934
 1594POPC   C1A23451  33.892   5.140   8.663
 1594POPC   D2A23452  33.841   5.301   8.272
 1594POPC   C3A23453  34.158   5.264   8.015
 1594POPC   C4A23454  34.083   5.037   7.661
 1594POPC   C1B23455  33.672   4.645   8.673
 1594POPC   C2B23456  33.642   4.796   8.310
 1594POPC   C3B23457  33.687   4.837   7.904
 1594POPC   C4B23458  33.706   4.665   7.518
 1595POPC   NC323459  27.060  37.133   9.354
 1595POPC   PO423460  26.732  36.582   9.589
 1595POPC   GL123461  26.616  36.870   9.237
 1595POPC   GL223462  26.413  37.183   9.266
 1595POPC   C1A23463  26.808  36.934   8.817
 1595POPC   D2A23464  26.862  36.964   8.393
 1595POPC   C3A23465  26.901  36.661   8.112
 1595POPC   C4A23466  27.090  36.968   7.827
 1595POPC   C1B23467  26.289  37.022   8.864
 1595POPC   C2B23468  26.413  36.753   8.543
 1595POPC   C3B23469  26.387  36.881   8.131
 1595POPC   C4B23470  26.604  36.854   7.747
 1596POPC   NC323471  11.938  33.204   9.678
 1596POPC   PO423472  12.487  32.931   9.652
 1596POPC   GL123473  12.253  33.134   9.238
 1596POPC   GL223474  11.885  33.213   9.170
 1596POPC   C1A23475  12.167  33.221   8.758
 1596POPC   D2A23476  11.849  33.152   8.437
 1596POPC   C3A23477  12.069  33.169   8.040
 1596POPC   C4A23478  12.244  32.848   7.779
 1596POPC   C1B23479  11.910  32.809   8.871
 1596POPC   C2B23480  11.852  32.587   8.478
 1596POPC   C3B23481  11.847  32.683   8.051
 1596POPC   C4B23482  11.756  32.790   7.588
 1597POPC   NC323483  38.234  13.462   9.451
 1597POPC   PO423484  38.801  13.787   9.307
 1597POPC   GL123485  38.565  13.750   9.015
 1597POPC   GL223486  38.283  13.925   9.147
 1597POPC   C1A23487  38.637  13.713   8.585
 1597POPC   D2A23488  38.327  13.510   8.365
 1597POPC   C3A23489  38.505  13.552   8.037
 1597POPC   C4A23490  38.358  13.376   7.724
 1597POPC   C1B23491  38.229  13.960   8.689
 1597POPC   C2B23492  38.335  14.006   8.242
 1597POPC   C3B23493  38.104  13.818   7.870
 1597POPC   C4B23494  38.092  13.733   7.368
 1598POPC   NC323495   6.548   4.303   9.649
 1598POPC   PO423496   7.047   4.563   9.363
 1598POPC   GL123497   6.746   4.240   9.169
 1598POPC   GL223498   6.960   4.006   8.970
 1598POPC   C1A23499   6.499   4.126   8.770
 1598POPC   D2A23500   6.714   4.095   8.355
 1598POPC   C3A23501   6.468   4.293   8.022
 1598POPC   C4A23502   6.413   4.216   7.590
 1598POPC   C1B23503   6.906   4.426   8.735
 1598POPC   C2B23504   6.906   4.687   8.398
 1598POPC   C3B23505   6.879   4.592   7.959
 1598POPC   C4B23506   6.862   4.435   7.550
 1599POPC   NC323507  20.077   4.510   9.326
 1599POPC   PO423508  20.390   4.015   9.732
 1599POPC   GL123509  20.543   4.298   9.339
 1599POPC   GL223510  20.329   4.234   9.019
 1599POPC   C1A23511  20.755   4.451   8.920
 1599POPC   D2A23512  20.744   4.287   8.500
 1599POPC   C3A23513  20.737   4.524   8.113
 1599POPC   C4A23514  20.749   4.348   7.713
 1599POPC   C1B23515  20.076   4.334   8.663
 1599POPC   C2B23516  20.264   4.385   8.269
 1599POPC   C3B23517  20.273   4.439   7.831
 1599POPC   C4B23518  20.332   4.281   7.372
 1600POPC   NC323519   7.608   9.103   9.499
 1600POPC   PO423520   7.679   8.426   9.437
 1600POPC   GL123521   7.440   8.689   9.115
 1600POPC   GL223522   7.383   9.068   9.066
 1600POPC   C1A23523   7.499   8.780   8.686
 1600POPC   D2A23524   7.701   8.989   8.397
 1600POPC   C3A23525   7.496   8.954   8.049
 1600POPC   C4A23526   7.547   8.769   7.695
 1600POPC   C1B23527   7.616   9.312   8.781
 1600POPC   C2B23528   7.387   9.398   8.391
 1600POPC   C3B23529   7.409   9.444   7.968
 1600POPC   C4B23530   7.674   9.252   7.643
 1601POPC   NC323531  19.781  42.075   9.402
 1601POPC   PO423532  20.068  42.603   9.744
 1601POPC   GL123533  20.079  42.578   9.303
 1601POPC   GL223534  20.171  42.299   9.134
 1601POPC   C1A23535  19.778  42.638   8.967
 1601POPC   D2A23536  19.749  42.591   8.532
 1601POPC   C3A23537  19.601  42.613   8.122
 1601POPC   C4A23538  19.862  42.669   7.762
 1601POPC   C1B23539  19.917  42.143   8.777
 1601POPC   C2B23540  19.586  42.125   8.441
 1601POPC   C3B23541  19.588  42.102   7.986
 1601POPC   C4B23542  19.789  42.188   7.591
 1602POPC   NC323543   9.298  34.344   9.775
 1602POPC   PO423544   8.752  34.784   9.724
 1602POPC   GL123545   8.986  34.587   9.370
 1602POPC   GL223546   8.801  34.284   9.340
 1602POPC   C1A23547   9.239  34.622   8.953
 1602POPC   D2A23548   9.174  34.483   8.508
 1602POPC   C3A23549   9.405  34.455   8.108
 1602POPC   C4A23550   9.164  34.541   7.725
 1602POPC   C1B23551   8.861  34.243   8.896
 1602POPC   C2B23552   8.704  34.259   8.471
 1602POPC   C3B23553   8.928  34.250   8.089
 1602POPC   C4B23554   8.871  34.111   7.693
 1603POPC   NC323555  31.813  42.443   9.563
 1603POPC   PO423556  31.215  42.662   9.553
 1603POPC   GL123557  31.440  42.474   9.179
 1603POPC   GL223558  31.714  42.241   9.102
 1603POPC   C1A23559  31.351  42.333   8.754
 1603POPC   D2A23560  31.508  42.460   8.389
 1603POPC   C3A23561  31.352  42.370   8.032
 1603POPC   C4A23562  31.544  42.346   7.651
 1603POPC   C1B23563  31.699  41.970   8.744
 1603POPC   C2B23564  31.473  41.933   8.400
 1603POPC   C3B23565  31.615  41.939   8.016
 1603POPC   C4B23566  31.950  42.066   7.792
 1604POPC   NC323567  44.030   1.199   9.615
 1604POPC   PO423568  44.333   1.773   9.365
 1604POPC   GL123569  44.090   1.555   9.044
 1604POPC   GL223570  43.861   1.267   9.136
 1604POPC   C1A23571  44.043   1.332   8.649
 1604POPC   D2A23572  43.986   1.075   8.305
 1604POPC   C3A23573  44.137   1.366   7.996
 1604POPC   C4A23574  43.869   1.509   7.688
 1604POPC   C1B23575  43.812   0.919   8.828
 1604POPC   C2B23576  43.536   0.799   8.496
 1604POPC   C3B23577  43.677   0.693   8.058
 1604POPC   C4B23578  43.977   0.932   7.791
 1605POPC   NC323579   7.010  22.863   9.476
 1605POPC   PO423580   6.352  23.137   9.475
 1605POPC   GL123581   6.585  23.134   9.068
 1605POPC   GL223582   6.771  22.820   9.013
 1605POPC   C1A23583   6.413  23.086   8.637
 1605POPC   D2A23584   6.245  22.929   8.210
 1605POPC   C3A23585   6.476  23.022   7.809
 1605POPC   C4A23586   6.398  23.098   7.361
 1605POPC   C1B23587   6.934  23.009   8.631
 1605POPC   C2B23588   6.790  22.972   8.219
 1605POPC   C3B23589   6.951  22.742   7.866
 1605POPC   C4B23590   6.785  22.713   7.486
 1606POPC   NC323591  13.802  40.664   9.469
 1606POPC   PO423592  13.077  40.641   9.466
 1606POPC   GL123593  13.397  40.735   9.136
 1606POPC   GL223594  13.612  40.465   9.026
 1606POPC   C1A23595  13.591  40.873   8.724
 1606POPC   D2A23596  13.884  40.842   8.375
 1606POPC   C3A23597  13.705  40.948   8.018
 1606POPC   C4A23598  13.368  40.725   7.856
 1606POPC   C1B23599  13.933  40.369   8.711
 1606POPC   C2B23600  14.099  40.384   8.278
 1606POPC   C3B23601  13.795  40.424   7.952
 1606POPC   C4B23602  13.527  40.322   7.565
 1607POPC   NC323603  15.099   3.371   9.451
 1607POPC   PO423604  15.012   3.993   9.512
 1607POPC   GL123605  15.245   3.884   9.166
 1607POPC   GL223606  15.506   3.688   9.260
 1607POPC   C1A23607  15.152   3.669   8.762
 1607POPC   D2A23608  14.937   3.396   8.474
 1607POPC   C3A23609  14.654   3.621   8.192
 1607POPC   C4A23610  14.758   3.530   7.784
 1607POPC   C1B23611  15.510   3.364   8.920
 1607POPC   C2B23612  15.458   3.332   8.458
 1607POPC   C3B23613  15.258   3.495   8.072
 1607POPC   C4B23614  15.431   3.535   7.667
 1608POPC   NC323615  34.230  17.575   9.514
 1608POPC   PO423616  33.645  17.320   9.722
 1608POPC   GL123617  33.790  17.297   9.280
 1608POPC   GL223618  33.797  17.646   9.249
 1608POPC   C1A23619  33.835  17.384   8.794
 1608POPC   D2A23620  33.673  17.590   8.392
 1608POPC   C3A23621  33.793  17.360   8.024
 1608POPC   C4A23622  33.494  17.192   7.761
 1608POPC   C1B23623  34.044  17.830   8.899
 1608POPC   C2B23624  34.154  17.686   8.479
 1608POPC   C3B23625  34.055  17.793   8.034
 1608POPC   C4B23626  33.777  17.813   7.690
 1609POPC   NC323627   7.828   7.975   9.366
 1609POPC   PO423628   8.461   8.120   9.639
 1609POPC   GL123629   8.412   8.170   9.228
 1609POPC   GL223630   8.116   8.322   9.159
 1609POPC   C1A23631   8.361   8.002   8.824
 1609POPC   D2A23632   8.525   7.910   8.436
 1609POPC   C3A23633   8.230   8.095   8.139
 1609POPC   C4A23634   8.353   8.205   7.723
 1609POPC   C1B23635   7.931   8.512   8.833
 1609POPC   C2B23636   7.806   8.430   8.444
 1609POPC   C3B23637   7.875   8.596   8.070
 1609POPC   C4B23638   7.908   8.417   7.699
 1610POPC   NC323639  38.898   6.164   9.537
 1610POPC   PO423640  39.404   6.722   9.372
 1610POPC   GL123641  39.177   6.440   9.200
 1610POPC   GL223642  39.053   6.671   9.005
 1610POPC   C1A23643  39.366   6.308   8.835
 1610POPC   D2A23644  39.319   6.118   8.444
 1610POPC   C3A23645  39.637   6.137   8.151
 1610POPC   C4A23646  39.575   6.389   7.772
 1610POPC   C1B23647  39.335   6.835   8.708
 1610POPC   C2B23648  39.288   6.893   8.269
 1610POPC   C3B23649  39.126   6.599   7.919
 1610POPC   C4B23650  39.123   6.715   7.472
 1611POPC   NC323651  35.938  24.230   9.424
 1611POPC   PO423652  36.411  24.715   9.458
 1611POPC   GL123653  36.167  24.614   9.108
 1611POPC   GL223654  36.277  24.263   9.006
 1611POPC   C1A23655  36.311  24.649   8.689
 1611POPC   D2A23656  36.239  24.334   8.402
 1611POPC   C3A23657  36.210  24.603   8.086
 1611POPC   C4A23658  36.078  24.615   7.710
 1611POPC   C1B23659  35.887  24.327   8.764
 1611POPC   C2B23660  35.723  24.200   8.372
 1611POPC   C3B23661  35.984  24.145   7.987
 1611POPC   C4B23662  35.866  24.006   7.593
 1612POPC   NC323663  29.131  10.291   9.497
 1612POPC   PO423664  28.686  10.769   9.560
 1612POPC   GL123665  28.979  10.697   9.185
 1612POPC   GL223666  29.355  10.605   9.143
 1612POPC   C1A23667  29.004  10.499   8.770
 1612POPC   D2A23668  29.016  10.092   8.539
 1612POPC   C3A23669  28.922  10.228   8.140
 1612POPC   C4A23670  28.976  10.624   7.932
 1612POPC   C1B23671  29.549  10.444   8.737
 1612POPC   C2B23672  29.440  10.353   8.287
 1612POPC   C3B23673  29.534  10.471   7.858
 1612POPC   C4B23674  29.676  10.172   7.555
 1613POPC   NC323675   7.270  13.351   9.494
 1613POPC   PO423676   7.834  13.673   9.345
 1613POPC   GL123677   7.524  13.532   9.063
 1613POPC   GL223678   7.184  13.534   9.046
 1613POPC   C1A23679   7.421  13.694   8.648
 1613POPC   D2A23680   7.462  13.446   8.311
 1613POPC   C3A23681   7.512  13.669   7.982
 1613POPC   C4A23682   7.195  13.723   7.768
 1613POPC   C1B23683   6.959  13.434   8.682
 1613POPC   C2B23684   6.931  13.506   8.242
 1613POPC   C3B23685   6.993  13.281   7.857
 1613POPC   C4B23686   7.003  13.344   7.402
 1614POPC   NC323687  24.170  43.747   9.482
 1614POPC   PO423688  24.634  44.219   9.525
 1614POPC   GL123689  24.582  43.933   9.200
 1614POPC   GL223690  24.245  44.000   9.049
 1614POPC   C1A23691  24.644  43.859   8.767
 1614POPC   D2A23692  24.548  44.018   8.358
 1614POPC   C3A23693  24.686  43.807   8.016
 1614POPC   C4A23694  24.801  43.813   7.616
 1614POPC   C1B23695  24.123  44.112   8.624
 1614POPC   C2B23696  24.040  43.847   8.229
 1614POPC   C3B23697  24.226  43.678   7.825
 1614POPC   C4B23698  24.163  43.883   7.413
 1615POPC   NC323699  41.489  22.586   9.648
 1615POPC   PO423700  41.480  23.220   9.589
 1615POPC   GL123701  41.439  22.884   9.238
 1615POPC   GL223702  41.725  22.609   9.172
 1615POPC   C1A23703  41.366  22.779   8.813
 1615POPC   D2A23704  41.354  22.880   8.376
 1615POPC   C3A23705  41.494  23.194   8.063
 1615POPC   C4A23706  41.494  22.959   7.700
 1615POPC   C1B23707  41.801  22.558   8.692
 1615POPC   C2B23708  41.838  22.669   8.234
 1615POPC   C3B23709  41.919  22.700   7.764
 1615POPC   C4B23710  41.828  22.864   7.333
 1616POPC   NC323711  43.904  32.561   9.873
 1616POPC   PO423712  44.041  31.996   9.543
 1616POPC   GL123713  43.896  32.198   9.137
 1616POPC   GL223714  43.563  32.193   9.307
 1616POPC   C1A23715  43.743  32.236   8.641
 1616POPC   D2A23716  43.767  31.872   8.345
 1616POPC   C3A23717  44.084  31.971   8.058
 1616POPC   C4A23718  44.070  32.392   7.864
 1616POPC   C1B23719  43.510  31.936   8.949
 1616POPC   C2B23720  43.285  31.914   8.564
 1616POPC   C3B23721  43.306  32.049   8.157
 1616POPC   C4B23722  43.645  32.052   7.846
 1617POPC   NC323723  16.480  14.253   9.931
 1617POPC   PO423724  17.002  14.458   9.731
 1617POPC   GL123725  16.972  14.485   9.219
 1617POPC   GL223726  16.662  14.539   9.199
 1617POPC   C1A23727  16.955  14.393   8.793
 1617POPC   D2A23728  16.731  14.317   8.433
 1617POPC   C3A23729  16.942  14.355   8.046
 1617POPC   C4A23730  16.892  14.077   7.745
 1617POPC   C1B23731  16.446  14.515   8.844
 1617POPC   C2B23732  16.358  14.663   8.459
 1617POPC   C3B23733  16.369  14.434   8.076
 1617POPC   C4B23734  16.551  14.463   7.690
 1618POPC   NC323735  12.838   9.363   9.497
 1618POPC   PO423736  13.025   9.898   9.778
 1618POPC   GL123737  13.015   9.791   9.260
 1618POPC   GL223738  12.715   9.829   9.075
 1618POPC   C1A23739  13.072   9.733   8.745
 1618POPC   D2A23740  13.168   9.526   8.341
 1618POPC   C3A23741  13.023   9.668   7.966
 1618POPC   C4A23742  12.891   9.958   7.687
 1618POPC   C1B23743  12.633   9.465   8.816
 1618POPC   C2B23744  12.666   9.583   8.378
 1618POPC   C3B23745  12.575   9.405   7.965
 1618POPC   C4B23746  12.793   9.461   7.566
 1619POPC   NC323747   0.204   4.816   9.518
 1619POPC   PO423748   0.671   5.318   9.508
 1619POPC   GL123749   0.390   5.234   9.198
 1619POPC   GL223750   0.547   4.949   9.140
 1619POPC   C1A23751   0.328   5.401   8.768
 1619POPC   D2A23752   0.540   5.142   8.453
 1619POPC   C3A23753   0.416   5.242   8.054
 1619POPC   C4A23754   0.371   5.006   7.668
 1619POPC   C1B23755   0.168   4.944   8.861
 1619POPC   C2B23756   0.006   5.015   8.457
 1619POPC   C3B23757   0.117   4.815   8.073
 1619POPC   C4B23758  44.904   4.727   7.714
 1620POPC   NC323759   8.846  24.415   9.413
 1620POPC   PO423760   9.590  24.311   9.399
 1620POPC   GL123761   9.306  24.468   9.071
 1620POPC   GL223762   9.081  24.175   9.027
 1620POPC   C1A23763   9.015  24.594   8.730
 1620POPC   D2A23764   8.996  24.500   8.295
 1620POPC   C3A23765   9.068  24.586   7.864
 1620POPC   C4A23766   9.228  24.229   7.654
 1620POPC   C1B23767   8.698  24.166   8.767
 1620POPC   C2B23768   8.566  24.184   8.341
 1620POPC   C3B23769   8.792  24.163   7.964
 1620POPC   C4B23770   8.666  24.098   7.560
 1621POPC   NC323771  23.797  33.372   9.407
 1621POPC   PO423772  23.336  32.914   9.462
 1621POPC   GL123773  23.577  32.992   9.100
 1621POPC   GL223774  23.952  32.960   9.152
 1621POPC   C1A23775  23.722  32.782   8.733
 1621POPC   D2A23776  24.041  32.876   8.455
 1621POPC   C3A23777  23.818  32.903   8.086
 1621POPC   C4A23778  23.945  33.017   7.674
 1621POPC   C1B23779  23.954  33.260   8.783
 1621POPC   C2B23780  23.686  33.275   8.417
 1621POPC   C3B23781  23.797  33.392   8.001
 1621POPC   C4B23782  24.173  33.484   7.768
 1622POPC   NC323783   2.028  26.204   9.479
 1622POPC   PO423784   1.622  25.743   9.513
 1622POPC   GL123785   1.916  25.789   9.127
 1622POPC   GL223786   2.281  25.900   9.142
 1622POPC   C1A23787   2.027  25.844   8.675
 1622POPC   D2A23788   1.770  25.979   8.306
 1622POPC   C3A23789   1.968  26.201   7.976
 1622POPC   C4A23790   2.384  26.025   7.928
 1622POPC   C1B23791   2.267  26.261   8.837
 1622POPC   C2B23792   2.192  26.426   8.416
 1622POPC   C3B23793   2.312  26.569   7.997
 1622POPC   C4B23794   2.152  26.560   7.580
 1623POPC   NC323795  16.710  43.192   9.565
 1623POPC   PO423796  16.680  42.575   9.290
 1623POPC   GL123797  16.952  42.930   9.128
 1623POPC   GL223798  16.808  43.294   9.087
 1623POPC   C1A23799  16.851  42.993   8.684
 1623POPC   D2A23800  16.554  43.118   8.361
 1623POPC   C3A23801  16.559  42.919   7.973
 1623POPC   C4A23802  16.291  42.931   7.635
 1623POPC   C1B23803  17.040  43.450   8.714
 1623POPC   C2B23804  17.076  43.269   8.287
 1623POPC   C3B23805  16.846  43.338   7.887
 1623POPC   C4B23806  16.689  43.211   7.460
 1624POPC   NC323807  31.431  43.649   9.800
 1624POPC   PO423808  31.325  44.171   9.334
 1624POPC   GL123809  31.603  44.009   8.983
 1624POPC   GL223810  31.690  43.653   8.940
 1624POPC   C1A23811  31.484  44.072   8.560
 1624POPC   D2A23812  31.129  43.877   8.322
 1624POPC   C3A23813  31.256  43.876   7.880
 1624POPC   C4A23814  31.683  43.965   7.787
 1624POPC   C1B23815  31.464  43.545   8.594
 1624POPC   C2B23816  31.594  43.676   8.238
 1624POPC   C3B23817  31.868  43.549   8.014
 1624POPC   C4B23818  31.736  43.458   7.635
 1625POPC   NC323819   3.432   9.707   9.311
 1625POPC   PO423820   3.438   9.338   9.845
 1625POPC   GL123821   3.562   9.153   9.354
 1625POPC   GL223822   3.809   9.301   9.107
 1625POPC   C1A23823   3.599   8.856   8.929
 1625POPC   D2A23824   3.731   8.823   8.435
 1625POPC   C3A23825   3.486   8.767   8.027
 1625POPC   C4A23826   3.301   8.976   7.654
 1625POPC   C1B23827   3.686   9.304   8.697
 1625POPC   C2B23828   3.809   9.355   8.299
 1625POPC   C3B23829   3.731   9.204   7.913
 1625POPC   C4B23830   3.741   9.293   7.507
 1626POPC   NC323831  21.651  28.778   9.523
 1626POPC   PO423832  21.254  29.382   9.613
 1626POPC   GL123833  21.248  29.228   9.219
 1626POPC   GL223834  21.338  29.548   9.108
 1626POPC   C1A23835  21.550  29.100   8.912
 1626POPC   D2A23836  21.648  28.818   8.591
 1626POPC   C3A23837  21.549  28.917   8.161
 1626POPC   C4A23838  21.678  29.107   7.774
 1626POPC   C1B23839  21.224  29.459   8.696
 1626POPC   C2B23840  21.164  29.216   8.315
 1626POPC   C3B23841  21.172  29.162   7.857
 1626POPC   C4B23842  21.289  29.472   7.563
 1627POPC   NC323843  37.110  40.899   9.436
 1627POPC   PO423844  36.584  40.560   9.565
 1627POPC   GL123845  36.802  40.592   9.166
 1627POPC   GL223846  36.679  40.927   9.094
 1627POPC   C1A23847  37.049  40.733   8.777
 1627POPC   D2A23848  37.213  40.692   8.353
 1627POPC   C3A23849  36.877  40.717   8.024
 1627POPC   C4A23850  36.880  40.692   7.575
 1627POPC   C1B23851  36.723  41.154   8.725
 1627POPC   C2B23852  37.047  41.210   8.438
 1627POPC   C3B23853  37.176  41.119   8.038
 1627POPC   C4B23854  36.947  41.215   7.677
 1628POPC   NC323855  13.492  42.134   9.626
 1628POPC   PO423856  13.889  42.574   9.303
 1628POPC   GL123857  13.624  42.588   8.906
 1628POPC   GL223858  13.627  42.281   8.681
 1628POPC   C1A23859  13.222  42.567   8.629
 1628POPC   D2A23860  13.141  42.308   8.299
 1628POPC   C3A23861  13.417  42.434   8.009
 1628POPC   C4A23862  13.388  42.527   7.602
 1628POPC   C1B23863  14.082  42.295   8.610
 1628POPC   C2B23864  14.212  42.218   8.189
 1628POPC   C3B23865  13.982  42.329   7.789
 1628POPC   C4B23866  13.719  42.218   7.390
 1629POPC   NC323867  12.032  39.662   9.454
 1629POPC   PO423868  12.003  40.292   9.505
 1629POPC   GL123869  12.067  40.084   9.117
 1629POPC   GL223870  12.384  39.961   9.121
 1629POPC   C1A23871  11.880  39.920   8.730
 1629POPC   D2A23872  11.701  40.047   8.307
 1629POPC   C3A23873  11.845  39.833   7.921
 1629POPC   C4A23874  11.805  39.912   7.465
 1629POPC   C1B23875  12.453  39.996   8.689
 1629POPC   C2B23876  12.220  39.780   8.373
 1629POPC   C3B23877  12.335  39.605   8.011
 1629POPC   C4B23878  12.283  39.752   7.637
 1630POPC   NC323879   4.655  36.723   9.560
 1630POPC   PO423880   4.204  37.195   9.635
 1630POPC   GL123881   4.247  37.169   9.171
 1630POPC   GL223882   4.426  36.849   9.119
 1630POPC   C1A23883   4.376  37.212   8.746
 1630POPC   D2A23884   4.339  36.964   8.400
 1630POPC   C3A23885   4.453  37.189   8.053
 1630POPC   C4A23886   4.446  37.047   7.630
 1630POPC   C1B23887   4.333  36.589   8.773
 1630POPC   C2B23888   4.488  36.389   8.402
 1630POPC   C3B23889   4.411  36.615   8.033
 1630POPC   C4B23890   4.257  36.557   7.671
 1631POPC   NC323891  24.472   9.857   9.478
 1631POPC   PO423892  24.791   9.225   9.475
 1631POPC   GL123893  24.563   9.480   9.131
 1631POPC   GL223894  24.636   9.880   9.007
 1631POPC   C1A23895  24.510   9.482   8.694
 1631POPC   D2A23896  24.521   9.784   8.344
 1631POPC   C3A23897  24.382   9.656   7.938
 1631POPC   C4A23898  24.129   9.485   7.607
 1631POPC   C1B23899  24.212   9.889   8.845
 1631POPC   C2B23900  24.072  10.037   8.449
 1631POPC   C3B23901  24.154  10.157   8.014
 1631POPC   C4B23902  24.212  10.008   7.584
 1632POPC   NC323903  24.657  31.345   9.532
 1632POPC   PO423904  24.084  31.582   9.595
 1632POPC   GL123905  24.248  31.300   9.229
 1632POPC   GL223906  24.413  31.522   9.069
 1632POPC   C1A23907  24.349  31.137   8.750
 1632POPC   D2A23908  24.292  31.406   8.366
 1632POPC   C3A23909  24.436  31.296   7.956
 1632POPC   C4A23910  24.620  31.291   7.538
 1632POPC   C1B23911  24.712  31.485   8.769
 1632POPC   C2B23912  24.800  31.546   8.386
 1632POPC   C3B23913  24.596  31.741   8.125
 1632POPC   C4B23914  24.672  31.752   7.746
 1633POPC   NC323915  44.773  44.249   9.521
 1633POPC   PO423916  44.705  43.591   9.542
 1633POPC   GL123917  44.686  43.869   9.188
 1633POPC   GL223918  44.346  44.004   9.257
 1633POPC   C1A23919  44.839  43.970   8.771
 1633POPC   D2A23920  44.586  43.995   8.402
 1633POPC   C3A23921  44.807  44.015   8.031
 1633POPC   C4A23922  44.900  43.759   7.677
 1633POPC   C1B23923  44.374  44.227   8.844
 1633POPC   C2B23924  44.215  44.345   8.436
 1633POPC   C3B23925  44.222  44.095   8.024
 1633POPC   C4B23926  44.452  44.011   7.650
 1634POPC   NC323927   9.370  36.008   9.378
 1634POPC   PO423928   9.961  36.396   9.494
 1634POPC   GL123929   9.712  36.361   9.142
 1634POPC   GL223930   9.802  36.032   9.061
 1634POPC   C1A23931   9.697  36.389   8.689
 1634POPC   D2A23932   9.580  36.112   8.340
 1634POPC   C3A23933   9.523  36.327   7.954
 1634POPC   C4A23934   9.814  36.535   7.694
 1634POPC   C1B23935   9.681  35.765   8.704
 1634POPC   C2B23936   9.733  35.634   8.250
 1634POPC   C3B23937   9.734  35.895   7.860
 1634POPC   C4B23938   9.331  35.967   7.602
 1635POPC   NC323939  10.582   8.526   9.519
 1635POPC   PO423940  10.057   8.042   9.566
 1635POPC   GL123941  10.240   8.173   9.145
 1635POPC   GL223942  10.576   8.266   9.090
 1635POPC   C1A23943  10.387   8.102   8.670
 1635POPC   D2A23944  10.171   7.969   8.297
 1635POPC   C3A23945  10.292   8.102   7.898
 1635POPC   C4A23946  10.334   8.163   7.465
 1635POPC   C1B23947  10.752   8.525   8.813
 1635POPC   C2B23948  10.732   8.403   8.372
 1635POPC   C3B23949  10.777   8.488   7.937
 1635POPC   C4B23950  10.878   8.229   7.588
 1636POPC   NC323951   3.052   0.189   9.544
 1636POPC   PO423952   2.620   0.656   9.457
 1636POPC   GL123953   2.885   0.528   9.177
 1636POPC   GL223954   2.656   0.252   9.093
 1636POPC   C1A23955   2.971   0.665   8.775
 1636POPC   D2A23956   2.759   0.493   8.430
 1636POPC   C3A23957   2.713   0.668   8.027
 1636POPC   C4A23958   2.908   0.474   7.746
 1636POPC   C1B23959   3.042   0.128   8.881
 1636POPC   C2B23960   3.205   0.015   8.486
 1636POPC   C3B23961   3.108   0.117   8.062
 1636POPC   C4B23962   2.841  44.969   7.695
 1637POPC   NC323963  41.281  35.778   9.514
 1637POPC   PO423964  41.647  35.222   9.651
 1637POPC   GL123965  41.516  35.154   9.205
 1637POPC   GL223966  41.301  35.459   9.112
 1637POPC   C1A23967  41.696  34.960   8.808
 1637POPC   D2A23968  41.951  34.980   8.417
 1637POPC   C3A23969  41.743  34.950   8.012
 1637POPC   C4A23970  41.609  35.274   7.762
 1637POPC   C1B23971  41.546  35.498   8.738
 1637POPC   C2B23972  41.614  35.410   8.301
 1637POPC   C3B23973  41.675  35.726   7.987
 1637POPC   C4B23974  41.548  35.750   7.527
 1638POPC   NC323975  34.566  33.198   9.451
 1638POPC   PO423976  34.144  32.674   9.518
 1638POPC   GL123977  34.322  32.857   9.169
 1638POPC   GL223978  34.716  32.822   9.130
 1638POPC   C1A23979  34.350  33.043   8.793
 1638POPC   D2A23980  34.535  32.794   8.494
 1638POPC   C3A23981  34.458  32.960   8.105
 1638POPC   C4A23982  34.469  33.284   7.804
 1638POPC   C1B23983  34.877  33.078   8.783
 1638POPC   C2B23984  34.978  33.001   8.356
 1638POPC   C3B23985  34.922  33.025   7.924
 1638POPC   C4B23986  34.923  33.316   7.603
 1639POPC   NC323987  14.960  24.843   9.381
 1639POPC   PO423988  15.189  24.244   9.489
 1639POPC   GL123989  15.013  24.390   9.115
 1639POPC   GL223990  15.285  24.632   9.025
 1639POPC   C1A23991  14.896  24.558   8.708
 1639POPC   D2A23992  15.187  24.642   8.402
 1639POPC   C3A23993  15.211  24.442   8.019
 1639POPC   C4A23994  15.151  24.629   7.639
 1639POPC   C1B23995  15.350  24.277   8.738
 1639POPC   C2B23996  15.401  24.072   8.340
 1639POPC   C3B23997  15.558  24.038   7.926
 1639POPC   C4B23998  15.526  24.271   7.545
 1640POPC   NC323999  24.256  34.785   9.282
 1640POPC   PO424000  23.557  34.740   9.524
 1640POPC   GL124001  23.673  34.543   9.132
 1640POPC   GL224002  23.957  34.267   9.120
 1640POPC   C1A24003  23.851  34.657   8.731
 1640POPC   D2A24004  24.031  34.942   8.410
 1640POPC   C3A24005  23.909  34.858   8.009
 1640POPC   C4A24006  23.600  34.560   7.840
 1640POPC   C1B24007  24.094  34.215   8.674
 1640POPC   C2B24008  24.036  34.436   8.255
 1640POPC   C3B24009  24.048  34.322   7.780
 1640POPC   C4B24010  23.920  34.334   7.325
 1641POPC   NC324011  10.179  37.599   9.400
 1641POPC   PO424012   9.619  37.911   9.494
 1641POPC   GL124013   9.686  37.609   9.195
 1641POPC   GL224014   9.426  37.744   9.032
 1641POPC   C1A24015   9.805  37.551   8.749
 1641POPC   D2A24016   9.817  37.824   8.378
 1641POPC   C3A24017   9.966  37.672   7.963
 1641POPC   C4A24018   9.765  37.390   7.710
 1641POPC   C1B24019   9.286  37.393   8.813
 1641POPC   C2B24020   9.221  37.488   8.378
 1641POPC   C3B24021   9.449  37.635   8.035
 1641POPC   C4B24022   9.466  37.789   7.601
 1642POPC   NC324023   3.881  41.388   9.413
 1642POPC   PO424024   3.397  41.725   9.470
 1642POPC   GL124025   3.566  41.755   9.083
 1642POPC   GL224026   3.538  41.423   9.031
 1642POPC   C1A24027   3.559  41.731   8.634
 1642POPC   D2A24028   3.575  41.564   8.221
 1642POPC   C3A24029   3.731  41.802   7.881
 1642POPC   C4A24030   3.645  41.731   7.440
 1642POPC   C1B24031   3.596  41.195   8.662
 1642POPC   C2B24032   3.522  41.042   8.248
 1642POPC   C3B24033   3.308  41.115   7.864
 1642POPC   C4B24034   3.453  41.261   7.430
 1643POPC   NC324035  44.807  39.579   9.562
 1643POPC   PO424036  44.778  40.269   9.608
 1643POPC   GL124037  44.771  40.077   9.160
 1643POPC   GL224038  44.535  40.228   9.028
 1643POPC   C1A24039  44.882  39.861   8.790
 1643POPC   D2A24040  44.935  39.665   8.384
 1643POPC   C3A24041  44.833  39.877   7.993
 1643POPC   C4A24042  44.925  40.027   7.577
 1643POPC   C1B24043  44.393  39.947   8.766
 1643POPC   C2B24044  44.457  39.845   8.375
 1643POPC   C3B24045  44.326  40.023   8.010
 1643POPC   C4B24046  44.477  40.264   7.705
 1644POPC   NC324047  37.904  14.444   9.763
 1644POPC   PO424048  37.303  14.269   9.473
 1644POPC   GL124049  37.594  14.496   9.177
 1644POPC   GL224050  37.958  14.686   9.149
 1644POPC   C1A24051  37.546  14.550   8.733
 1644POPC   D2A24052  37.691  14.684   8.337
 1644POPC   C3A24053  37.512  14.444   8.011
 1644POPC   C4A24054  37.287  14.228   7.715
 1644POPC   C1B24055  37.992  14.345   8.890
 1644POPC   C2B24056  37.893  14.238   8.438
 1644POPC   C3B24057  38.004  14.325   8.012
 1644POPC   C4B24058  37.805  14.157   7.646
 1645POPC   NC324059  36.668  41.796   9.470
 1645POPC   PO424060  36.108  41.437   9.508
 1645POPC   GL124061  36.381  41.435   9.172
 1645POPC   GL224062  36.304  41.761   9.124
 1645POPC   C1A24063  36.256  41.386   8.744
 1645POPC   D2A24064  36.042  41.577   8.382
 1645POPC   C3A24065  36.174  41.455   7.984
 1645POPC   C4A24066  36.109  41.346   7.581
 1645POPC   C1B24067  36.076  41.874   8.797
 1645POPC   C2B24068  36.089  42.099   8.423
 1645POPC   C3B24069  36.012  41.977   8.015
 1645POPC   C4B24070  36.131  41.884   7.599
 1646POPC   NC324071   1.113  13.718   9.543
 1646POPC   PO424072   1.301  13.121   9.328
 1646POPC   GL124073   1.277  13.506   9.120
 1646POPC   GL224074   1.468  13.388   8.864
 1646POPC   C1A24075   1.225  13.844   8.826
 1646POPC   D2A24076   1.175  13.589   8.460
 1646POPC   C3A24077   1.326  13.647   8.071
 1646POPC   C4A24078   1.011  13.812   7.816
 1646POPC   C1B24079   1.015  13.203   8.756
 1646POPC   C2B24080   0.788  13.155   8.376
 1646POPC   C3B24081   0.935  13.315   7.997
 1646POPC   C4B24082   1.104  13.366   7.584
 1647POPC   NC324083  39.829   1.388   9.419
 1647POPC   PO424084  40.230   0.925   9.428
 1647POPC   GL124085  39.969   0.949   9.071
 1647POPC   GL224086  39.781   1.230   8.946
 1647POPC   C1A24087  40.106   0.936   8.665
 1647POPC   D2A24088  40.002   1.129   8.300
 1647POPC   C3A24089  39.919   0.922   7.910
 1647POPC   C4A24090  40.067   0.954   7.495
 1647POPC   C1B24091  40.155   1.470   8.803
 1647POPC   C2B24092  40.402   1.457   8.414
 1647POPC   C3B24093  40.295   1.368   7.964
 1647POPC   C4B24094  39.920   1.392   7.743
 1648POPC   NC324095  25.128  36.064   9.616
 1648POPC   PO424096  25.750  36.416   9.498
 1648POPC   GL124097  25.434  36.144   9.197
 1648POPC   GL224098  25.022  36.064   9.136
 1648POPC   C1A24099  25.302  36.203   8.754
 1648POPC   D2A24100  25.263  35.994   8.366
 1648POPC   C3A24101  25.209  36.236   8.019
 1648POPC   C4A24102  25.344  35.999   7.692
 1648POPC   C1B24103  24.971  35.782   8.773
 1648POPC   C2B24104  24.811  35.752   8.357
 1648POPC   C3B24105  25.014  35.736   7.996
 1648POPC   C4B24106  25.066  35.565   7.607
 1649POPC   NC324107   5.507   0.192   9.438
 1649POPC   PO424108   6.219   0.313   9.519
 1649POPC   GL124109   5.985   0.231   9.128
 1649POPC   GL224110   5.776   0.507   9.073
 1649POPC   C1A24111   6.078   0.345   8.669
 1649POPC   D2A24112   6.233   0.369   8.232
 1649POPC   C3A24113   5.938   0.461   7.911
 1649POPC   C4A24114   5.947   0.487   7.452
 1649POPC   C1B24115   5.603   0.160   8.773
 1649POPC   C2B24116   5.696  44.983   8.333
 1649POPC   C3B24117   5.583   0.085   7.881
 1649POPC   C4B24118   5.470   0.273   7.447
 1650POPC   NC324119  25.681  17.341   9.868
 1650POPC   PO424120  25.994  17.724   9.394
 1650POPC   GL124121  26.188  17.771   9.030
 1650POPC   GL224122  26.359  17.454   8.997
 1650POPC   C1A24123  25.867  17.681   8.721
 1650POPC   D2A24124  25.666  17.321   8.567
 1650POPC   C3A24125  25.729  17.213   8.147
 1650POPC   C4A24126  25.772  17.095   7.715
 1650POPC   C1B24127  26.285  17.422   8.622
 1650POPC   C2B24128  26.127  17.523   8.277
 1650POPC   C3B24129  26.216  17.496   7.867
 1650POPC   C4B24130  25.928  17.786   7.740
 1651POPC   NC324131  34.000  37.032   9.377
 1651POPC   PO424132  33.528  36.571   9.510
 1651POPC   GL124133  33.696  36.612   9.105
 1651POPC   GL224134  33.583  36.944   9.055
 1651POPC   C1A24135  33.807  36.744   8.667
 1651POPC   D2A24136  33.901  36.965   8.306
 1651POPC   C3A24137  34.125  36.786   7.958
 1651POPC   C4A24138  33.872  36.516   7.682
 1651POPC   C1B24139  33.566  37.203   8.698
 1651POPC   C2B24140  33.419  37.200   8.319
 1651POPC   C3B24141  33.534  37.323   7.939
 1651POPC   C4B24142  33.749  37.021   7.725
 1652POPC   NC324143   4.809  23.805   9.612
 1652POPC   PO424144   5.459  23.591   9.458
 1652POPC   GL124145   5.106  23.747   9.193
 1652POPC   GL224146   4.848  23.446   9.231
 1652POPC   C1A24147   5.072  23.983   8.781
 1652POPC   D2A24148   5.052  23.784   8.371
 1652POPC   C3A24149   5.025  24.021   7.996
 1652POPC   C4A24150   5.413  24.101   7.789
 1652POPC   C1B24151   4.657  23.672   8.876
 1652POPC   C2B24152   4.622  23.510   8.446
 1652POPC   C3B24153   4.813  23.470   8.028
 1652POPC   C4B24154   5.074  23.623   7.691
 1653POPC   NC324155  34.794  18.863   9.421
 1653POPC   PO424156  34.242  19.235   9.512
 1653POPC   GL124157  34.469  19.103   9.128
 1653POPC   GL224158  34.824  19.224   9.037
 1653POPC   C1A24159  34.458  18.909   8.721
 1653POPC   D2A24160  34.223  18.956   8.341
 1653POPC   C3A24161  34.273  18.809   7.932
 1653POPC   C4A24162  34.218  19.099   7.629
 1653POPC   C1B24163  34.971  18.849   8.791
 1653POPC   C2B24164  34.835  18.748   8.370
 1653POPC   C3B24165  34.850  18.894   7.930
 1653POPC   C4B24166  34.688  19.010   7.509
 1654POPC   NC324167   0.603   9.610   9.340
 1654POPC   PO424168   1.197   9.962   9.489
 1654POPC   GL124169   1.264   9.884   9.071
 1654POPC   GL224170   1.270  10.224   9.026
 1654POPC   C1A24171   1.399   9.803   8.652
 1654POPC   D2A24172   1.136   9.740   8.252
 1654POPC   C3A24173   1.202   9.725   7.769
 1654POPC   C4A24174   1.188   9.463   7.348
 1654POPC   C1B24175   1.082  10.219   8.642
 1654POPC   C2B24176   1.366  10.192   8.317
 1654POPC   C3B24177   1.515  10.161   7.896
 1654POPC   C4B24178   1.251  10.212   7.552
 1655POPC   NC324179  28.467  10.356   9.442
 1655POPC   PO424180  28.292  11.079   9.342
 1655POPC   GL124181  28.161  10.699   9.180
 1655POPC   GL224182  28.487  10.668   9.063
 1655POPC   C1A24183  28.146  10.444   8.775
 1655POPC   D2A24184  28.465  10.289   8.425
 1655POPC   C3A24185  28.389  10.420   7.968
 1655POPC   C4A24186  27.977  10.482   7.751
 1655POPC   C1B24187  28.570  10.873   8.713
 1655POPC   C2B24188  28.723  10.895   8.316
 1655POPC   C3B24189  28.501  10.929   7.943
 1655POPC   C4B24190  28.281  10.859   7.574
 1656POPC   NC324191  33.162   4.465   9.754
 1656POPC   PO424192  32.573   4.209   9.439
 1656POPC   GL124193  32.855   4.505   9.170
 1656POPC   GL224194  33.223   4.558   9.249
 1656POPC   C1A24195  32.815   4.453   8.708
 1656POPC   D2A24196  32.867   4.107   8.395
 1656POPC   C3A24197  33.010   4.217   7.995
 1656POPC   C4A24198  32.733   4.535   7.818
 1656POPC   C1B24199  33.296   4.352   8.860
 1656POPC   C2B24200  33.253   4.459   8.425
 1656POPC   C3B24201  33.194   4.698   8.059
 1656POPC   C4B24202  33.227   4.558   7.648
 1657POPC   NC324203  18.043  42.125   9.365
 1657POPC   PO424204  18.322  42.736   9.414
 1657POPC   GL124205  18.175  42.541   9.062
 1657POPC   GL224206  18.287  42.216   8.927
 1657POPC   C1A24207  18.218  42.638   8.644
 1657POPC   D2A24208  17.974  42.690   8.308
 1657POPC   C3A24209  18.164  42.390   8.081
 1657POPC   C4A24210  18.286  42.190   7.732
 1657POPC   C1B24211  17.965  42.180   8.573
 1657POPC   C2B24212  17.947  41.913   8.180
 1657POPC   C3B24213  17.944  41.826   7.726
 1657POPC   C4B24214  18.118  41.989   7.269
 1658POPC   NC324215  26.348   1.977   9.421
 1658POPC   PO424216  26.810   1.526   9.720
 1658POPC   GL124217  26.856   1.872   9.347
 1658POPC   GL224218  27.204   1.985   9.251
 1658POPC   C1A24219  26.711   2.021   8.893
 1658POPC   D2A24220  26.682   1.695   8.570
 1658POPC   C3A24221  26.695   1.850   8.145
 1658POPC   C4A24222  26.715   2.063   7.754
 1658POPC   C1B24223  27.143   1.779   8.854
 1658POPC   C2B24224  27.146   1.833   8.381
 1658POPC   C3B24225  27.133   1.761   7.902
 1658POPC   C4B24226  27.170   2.064   7.532
 1659POPC   NC324227   1.103   8.748   9.430
 1659POPC   PO424228   0.955   9.350   9.490
 1659POPC   GL124229   1.237   9.146   9.140
 1659POPC   GL224230   1.587   9.014   9.228
 1659POPC   C1A24231   1.362   8.780   8.809
 1659POPC   D2A24232   1.425   8.552   8.384
 1659POPC   C3A24233   1.338   8.809   7.964
 1659POPC   C4A24234   1.029   9.108   7.719
 1659POPC   C1B24235   1.602   9.234   8.806
 1659POPC   C2B24236   1.508   9.072   8.406
 1659POPC   C3B24237   1.363   9.310   8.077
 1659POPC   C4B24238   1.506   9.319   7.699
 1660POPC   NC324239  38.622   8.312   9.710
 1660POPC   PO424240  38.221   7.925   9.366
 1660POPC   GL124241  38.418   8.029   9.047
 1660POPC   GL224242  38.712   8.142   9.207
 1660POPC   C1A24243  38.223   8.128   8.681
 1660POPC   D2A24244  37.990   7.938   8.361
 1660POPC   C3A24245  38.243   8.056   8.041
 1660POPC   C4A24246  38.256   8.294   7.678
 1660POPC   C1B24247  38.756   8.277   8.766
 1660POPC   C2B24248  38.579   8.350   8.353
 1660POPC   C3B24249  38.696   8.311   7.925
 1660POPC   C4B24250  38.672   8.030   7.547
 1661POPC   NC324251   3.087  16.327   9.350
 1661POPC   PO424252   2.682  15.902   9.608
 1661POPC   GL124253   2.662  16.100   9.168
 1661POPC   GL224254   2.313  16.062   9.139
 1661POPC   C1A24255   2.909  16.066   8.739
 1661POPC   D2A24256   3.033  16.233   8.290
 1661POPC   C3A24257   2.813  16.082   7.892
 1661POPC   C4A24258   2.770  15.700   7.651
 1661POPC   C1B24259   2.451  15.849   8.745
 1661POPC   C2B24260   2.539  15.668   8.337
 1661POPC   C3B24261   2.341  15.926   8.038
 1661POPC   C4B24262   2.374  16.027   7.598
 1662POPC   NC324263  18.085   5.271   9.355
 1662POPC   PO424264  18.581   4.812   9.444
 1662POPC   GL124265  18.303   4.885   9.101
 1662POPC   GL224266  17.915   4.831   9.141
 1662POPC   C1A24267  18.442   4.964   8.697
 1662POPC   D2A24268  18.517   4.687   8.350
 1662POPC   C3A24269  18.553   4.918   7.979
 1662POPC   C4A24270  18.451   4.995   7.532
 1662POPC   C1B24271  17.909   5.000   8.708
 1662POPC   C2B24272  18.135   5.036   8.296
 1662POPC   C3B24273  18.073   5.049   7.866
 1662POPC   C4B24274  18.066   5.308   7.491
 1663POPC   NC324275   7.956  42.722   9.361
 1663POPC   PO424276   8.210  43.381   9.316
 1663POPC   GL124277   8.080  43.093   9.037
 1663POPC   GL224278   8.416  42.927   9.064
 1663POPC   C1A24279   7.864  43.302   8.713
 1663POPC   D2A24280   8.023  43.653   8.487
 1663POPC   C3A24281   8.047  43.449   8.080
 1663POPC   C4A24282   8.051  43.167   7.748
 1663POPC   C1B24283   8.369  43.143   8.624
 1663POPC   C2B24284   8.207  42.969   8.212
 1663POPC   C3B24285   8.453  42.882   7.818
 1663POPC   C4B24286   8.595  42.562   7.544
 1664POPC   NC324287   7.667  38.071   9.198
 1664POPC   PO424288   7.134  37.758   9.516
 1664POPC   GL124289   7.348  37.623   9.137
 1664POPC   GL224290   7.591  37.346   9.119
 1664POPC   C1A24291   7.257  37.431   8.741
 1664POPC   D2A24292   7.329  37.645   8.380
 1664POPC   C3A24293   7.333  37.417   8.020
 1664POPC   C4A24294   7.476  37.583   7.630
 1664POPC   C1B24295   7.746  37.596   8.733
 1664POPC   C2B24296   8.023  37.869   8.489
 1664POPC   C3B24297   8.060  38.077   8.087
 1664POPC   C4B24298   7.808  37.964   7.724
 1665POPC   NC324299  19.419   3.908   9.315
 1665POPC   PO424300  18.926   4.294   9.583
 1665POPC   GL124301  18.942   4.068   9.209
 1665POPC   GL224302  19.156   4.342   9.124
 1665POPC   C1A24303  19.002   4.057   8.740
 1665POPC   D2A24304  18.933   4.392   8.449
 1665POPC   C3A24305  18.827   4.297   8.052
 1665POPC   C4A24306  19.026   4.391   7.691
 1665POPC   C1B24307  19.285   4.591   8.768
 1665POPC   C2B24308  19.383   4.763   8.371
 1665POPC   C3B24309  19.369   4.435   8.069
 1665POPC   C4B24310  19.527   4.241   7.680
 1666POPC   NC324311  14.706   1.841   9.371
 1666POPC   PO424312  14.019   1.723   9.237
 1666POPC   GL124313  14.334   1.984   9.028
 1666POPC   GL224314  14.460   1.796   8.778
 1666POPC   C1A24315  14.285   2.252   8.634
 1666POPC   D2A24316  14.551   2.130   8.265
 1666POPC   C3A24317  14.476   1.758   7.969
 1666POPC   C4A24318  14.144   1.681   7.699
 1666POPC   C1B24319  14.760   2.145   8.751
 1666POPC   C2B24320  15.038   2.160   8.431
 1666POPC   C3B24321  14.982   2.399   8.102
 1666POPC   C4B24322  14.665   2.282   7.785
 1667POPC   NC324323  17.016  37.367   9.871
 1667POPC   PO424324  16.487  37.713   9.601
 1667POPC   GL124325  16.656  37.632   9.195
 1667POPC   GL224326  16.562  37.934   9.069
 1667POPC   C1A24327  16.822  37.486   8.779
 1667POPC   D2A24328  16.707  37.415   8.333
 1667POPC   C3A24329  16.706  37.805   8.055
 1667POPC   C4A24330  16.871  37.842   7.618
 1667POPC   C1B24331  16.245  38.015   8.759
 1667POPC   C2B24332  16.346  37.911   8.385
 1667POPC   C3B24333  16.228  37.972   7.975
 1667POPC   C4B24334  16.382  37.753   7.641
 1668POPC   NC324335  35.619  44.323   9.513
 1668POPC   PO424336  35.361  44.837   9.813
 1668POPC   GL124337  35.321  44.668   9.272
 1668POPC   GL224338  35.591  44.563   9.053
 1668POPC   C1A24339  35.158  44.712   8.827
 1668POPC   D2A24340  35.028  44.481   8.431
 1668POPC   C3A24341  35.065  44.752   8.087
 1668POPC   C4A24342  35.201  44.825   7.649
 1668POPC   C1B24343  35.705  44.589   8.598
 1668POPC   C2B24344  35.495  44.514   8.180
 1668POPC   C3B24345  35.592  44.492   7.705
 1668POPC   C4B24346  35.699  44.608   7.262
 1669POPC   NC324347  20.821  41.742   9.647
 1669POPC   PO424348  20.188  41.857   9.409
 1669POPC   GL124349  20.497  41.890   9.059
 1669POPC   GL224350  20.878  41.897   9.121
 1669POPC   C1A24351  20.426  41.908   8.621
 1669POPC   D2A24352  20.242  41.721   8.269
 1669POPC   C3A24353  20.215  41.922   7.871
 1669POPC   C4A24354  20.222  41.907   7.407
 1669POPC   C1B24355  20.925  41.878   8.665
 1669POPC   C2B24356  20.745  41.596   8.359
 1669POPC   C3B24357  20.642  41.588   7.907
 1669POPC   C4B24358  21.013  41.659   7.618
 1670POPC   NC324359   3.789  37.212   9.426
 1670POPC   PO424360   3.352  36.707   9.447
 1670POPC   GL124361   3.570  36.802   9.105
 1670POPC   GL224362   3.922  36.761   9.167
 1670POPC   C1A24363   3.455  36.832   8.683
 1670POPC   D2A24364   3.478  36.669   8.290
 1670POPC   C3A24365   3.485  36.975   7.997
 1670POPC   C4A24366   3.568  36.868   7.635
 1670POPC   C1B24367   3.936  36.988   8.778
 1670POPC   C2B24368   3.844  37.022   8.344
 1670POPC   C3B24369   4.003  36.991   7.885
 1670POPC   C4B24370   4.032  36.894   7.384
 1671POPC   NC324371  38.965  20.793   9.681
 1671POPC   PO424372  39.355  20.298   9.629
 1671POPC   GL124373  39.358  20.685   9.335
 1671POPC   GL224374  39.020  20.643   9.180
 1671POPC   C1A24375  39.432  20.768   8.873
 1671POPC   D2A24376  39.539  20.632   8.445
 1671POPC   C3A24377  39.306  20.695   8.087
 1671POPC   C4A24378  39.445  20.621   7.691
 1671POPC   C1B24379  38.960  20.365   8.796
 1671POPC   C2B24380  38.858  20.477   8.350
 1671POPC   C3B24381  38.980  20.318   7.929
 1671POPC   C4B24382  39.047  20.373   7.425
 1672POPC   NC324383  17.996  22.606   9.392
 1672POPC   PO424384  18.266  23.172   9.446
 1672POPC   GL124385  18.570  23.163   9.070
 1672POPC   GL224386  18.638  22.812   9.155
 1672POPC   C1A24387  18.466  23.258   8.603
 1672POPC   D2A24388  18.040  23.258   8.464
 1672POPC   C3A24389  17.936  23.157   8.062
 1672POPC   C4A24390  18.226  23.025   7.786
 1672POPC   C1B24391  18.590  22.773   8.707
 1672POPC   C2B24392  18.379  22.859   8.320
 1672POPC   C3B24393  18.509  22.662   7.963
 1672POPC   C4B24394  18.200  22.495   7.694
 1673POPC   NC324395  38.427  40.184   9.703
 1673POPC   PO424396  38.595  39.555   9.439
 1673POPC   GL124397  38.556  39.861   9.097
 1673POPC   GL224398  38.370  40.181   9.171
 1673POPC   C1A24399  38.419  39.881   8.653
 1673POPC   D2A24400  38.559  39.897   8.197
 1673POPC   C3A24401  38.260  39.852   7.824
 1673POPC   C4A24402  38.449  39.952   7.399
 1673POPC   C1B24403  38.215  40.361   8.754
 1673POPC   C2B24404  38.315  40.359   8.283
 1673POPC   C3B24405  38.000  40.279   7.920
 1673POPC   C4B24406  38.083  40.315   7.441
 1674POPC   NC324407  37.950  34.477   9.497
 1674POPC   PO424408  37.326  34.720   9.521
 1674POPC   GL124409  37.577  34.643   9.171
 1674POPC   GL224410  37.642  34.254   9.124
 1674POPC   C1A24411  37.604  34.661   8.747
 1674POPC   D2A24412  37.523  34.769   8.337
 1674POPC   C3A24413  37.545  34.423   8.097
 1674POPC   C4A24414  37.636  34.588   7.719
 1674POPC   C1B24415  38.003  34.348   8.849
 1674POPC   C2B24416  38.002  34.548   8.434
 1674POPC   C3B24417  38.020  34.335   8.046
 1674POPC   C4B24418  38.168  34.355   7.660
 1675POPC   NC324419  25.298  22.141   9.425
 1675POPC   PO424420  25.711  22.579   9.592
 1675POPC   GL124421  25.448  22.509   9.106
 1675POPC   GL224422  25.076  22.407   9.045
 1675POPC   C1A24423  25.417  22.222   8.702
 1675POPC   D2A24424  25.089  22.233   8.373
 1675POPC   C3A24425  25.244  22.284   7.937
 1675POPC   C4A24426  25.637  22.110   7.758
 1675POPC   C1B24427  25.039  21.942   8.854
 1675POPC   C2B24428  24.995  21.732   8.458
 1675POPC   C3B24429  25.004  21.828   8.038
 1675POPC   C4B24430  25.213  21.842   7.655
 1676POPC   NC324431  42.271  37.226   9.503
 1676POPC   PO424432  42.443  36.588   9.487
 1676POPC   GL124433  42.167  36.797   9.178
 1676POPC   GL224434  42.384  36.996   9.037
 1676POPC   C1A24435  42.040  36.763   8.705
 1676POPC   D2A24436  42.092  36.634   8.217
 1676POPC   C3A24437  42.167  36.924   7.867
 1676POPC   C4A24438  42.239  36.794   7.424
 1676POPC   C1B24439  42.588  37.180   8.685
 1676POPC   C2B24440  42.460  37.176   8.264
 1676POPC   C3B24441  42.556  37.313   7.869
 1676POPC   C4B24442  42.395  37.257   7.485
 1677POPC   NC324443  10.420  11.836   9.470
 1677POPC   PO424444  10.522  12.475   9.367
 1677POPC   GL124445  10.628  12.144   9.094
 1677POPC   GL224446  10.370  11.897   8.971
 1677POPC   C1A24447  10.625  12.214   8.676
 1677POPC   D2A24448  10.312  12.116   8.381
 1677POPC   C3A24449  10.448  12.364   8.036
 1677POPC   C4A24450  10.716  12.425   7.701
 1677POPC   C1B24451  10.759  11.737   8.780
 1677POPC   C2B24452  10.747  11.844   8.351
 1677POPC   C3B24453  10.550  11.868   7.968
 1677POPC   C4B24454  10.519  11.882   7.533
 1678POPC   NC324455  25.094  11.044   9.445
 1678POPC   PO424456  25.508  11.603   9.411
 1678POPC   GL124457  25.304  11.388   9.076
 1678POPC   GL224458  25.384  11.031   9.021
 1678POPC   C1A24459  25.367  11.374   8.629
 1678POPC   D2A24460  25.407  11.208   8.220
 1678POPC   C3A24461  25.352  11.451   7.825
 1678POPC   C4A24462  25.490  11.555   7.386
 1678POPC   C1B24463  25.159  10.898   8.639
 1678POPC   C2B24464  24.936  11.068   8.292
 1678POPC   C3B24465  24.942  10.985   7.873
 1678POPC   C4B24466  25.379  10.924   7.790
 1679POPC   NC324467  37.118   5.333   9.424
 1679POPC   PO424468  37.197   4.733   9.513
 1679POPC   GL124469  36.848   4.902   9.234
 1679POPC   GL224470  36.647   5.223   9.334
 1679POPC   C1A24471  36.812   4.816   8.781
 1679POPC   D2A24472  36.998   4.753   8.366
 1679POPC   C3A24473  36.866   4.970   7.990
 1679POPC   C4A24474  36.558   4.931   7.681
 1679POPC   C1B24475  36.640   5.289   8.903
 1679POPC   C2B24476  36.719   5.237   8.464
 1679POPC   C3B24477  36.766   5.474   8.085
 1679POPC   C4B24478  36.779   5.381   7.625
 1680POPC   NC324479  34.589   6.288   9.438
 1680POPC   PO424480  34.277   5.654   9.636
 1680POPC   GL124481  34.497   5.584   9.273
 1680POPC   GL224482  34.212   5.665   9.080
 1680POPC   C1A24483  34.680   5.696   8.865
 1680POPC   D2A24484  34.912   5.671   8.474
 1680POPC   C3A24485  34.879   6.042   8.197
 1680POPC   C4A24486  34.740   6.061   7.769
 1680POPC   C1B24487  34.230   5.993   8.766
 1680POPC   C2B24488  34.366   5.979   8.316
 1680POPC   C3B24489  34.472   5.686   7.947
 1680POPC   C4B24490  34.532   5.682   7.464
 1681POPC   NC324491  19.972   7.195   9.722
 1681POPC   PO424492  19.553   7.640   9.484
 1681POPC   GL124493  19.757   7.480   9.148
 1681POPC   GL224494  19.822   7.158   9.229
 1681POPC   C1A24495  19.803   7.568   8.739
 1681POPC   D2A24496  19.632   7.366   8.406
 1681POPC   C3A24497  19.795   7.568   8.079
 1681POPC   C4A24498  19.960   7.510   7.675
 1681POPC   C1B24499  19.815   7.057   8.785
 1681POPC   C2B24500  19.903   6.931   8.346
 1681POPC   C3B24501  19.758   7.083   7.980
 1681POPC   C4B24502  19.722   7.026   7.592
 1682POPC   NC324503  42.125   5.715   9.275
 1682POPC   PO424504  42.758   5.399   9.221
 1682POPC   GL124505  42.555   5.754   8.952
 1682POPC   GL224506  42.312   6.060   8.943
 1682POPC   C1A24507  42.696   6.020   8.623
 1682POPC   D2A24508  42.933   5.928   8.296
 1682POPC   C3A24509  42.680   5.918   7.969
 1682POPC   C4A24510  42.698   5.630   7.672
 1682POPC   C1B24511  42.141   5.793   8.615
 1682POPC   C2B24512  42.210   5.781   8.177
 1682POPC   C3B24513  42.108   5.865   7.753
 1682POPC   C4B24514  42.020   6.044   7.306
 1683POPC   NC324515  36.908   0.902   9.695
 1683POPC   PO424516  37.540   1.163   9.663
 1683POPC   GL124517  37.145   1.183   9.327
 1683POPC   GL224518  37.109   1.518   9.113
 1683POPC   C1A24519  36.993   1.072   8.865
 1683POPC   D2A24520  37.025   1.011   8.386
 1683POPC   C3A24521  36.684   1.248   8.175
 1683POPC   C4A24522  36.412   1.330   7.799
 1683POPC   C1B24523  37.250   1.441   8.633
 1683POPC   C2B24524  37.183   1.504   8.163
 1683POPC   C3B24525  37.177   1.479   7.679
 1683POPC   C4B24526  37.223   1.495   7.204
 1684POPC   NC324527   8.680   5.201   9.532
 1684POPC   PO424528   9.314   5.010   9.480
 1684POPC   GL124529   9.018   4.963   9.160
 1684POPC   GL224530   8.670   4.813   9.198
 1684POPC   C1A24531   9.214   5.055   8.717
 1684POPC   D2A24532   9.270   5.312   8.327
 1684POPC   C3A24533   9.228   5.113   7.912
 1684POPC   C4A24534   9.106   5.269   7.490
 1684POPC   C1B24535   8.718   4.882   8.763
 1684POPC   C2B24536   8.843   5.056   8.385
 1684POPC   C3B24537   8.720   5.137   8.017
 1684POPC   C4B24538   8.756   4.925   7.650
 1685POPC   NC324539  43.202  44.524   9.425
 1685POPC   PO424540  43.451   0.046   9.779
 1685POPC   GL124541  43.141  44.993   9.289
 1685POPC   GL224542  42.797  44.951   9.199
 1685POPC   C1A24543  43.306  44.845   8.796
 1685POPC   D2A24544  43.352  44.534   8.466
 1685POPC   C3A24545  43.451  44.676   8.054
 1685POPC   C4A24546  43.228  44.739   7.695
 1685POPC   C1B24547  42.829  44.719   8.805
 1685POPC   C2B24548  42.853  44.443   8.531
 1685POPC   C3B24549  42.931  44.648   8.143
 1685POPC   C4B24550  42.719  44.606   7.781
 1686POPC   NC324551  11.530  35.615   9.472
 1686POPC   PO424552  11.088  35.021   9.377
 1686POPC   GL124553  11.292  35.302   9.144
 1686POPC   GL224554  11.042  35.555   9.231
 1686POPC   C1A24555  11.513  35.254   8.760
 1686POPC   D2A24556  11.469  34.957   8.415
 1686POPC   C3A24557  11.344  35.138   8.031
 1686POPC   C4A24558  11.493  35.369   7.676
 1686POPC   C1B24559  11.175  35.697   8.813
 1686POPC   C2B24560  11.310  35.561   8.394
 1686POPC   C3B24561  11.164  35.626   7.990
 1686POPC   C4B24562  10.984  35.368   7.677
 1687POPC   NC324563  32.617   3.746   9.355
 1687POPC   PO424564  33.086   3.312   9.578
 1687POPC   GL124565  33.122   3.629   9.239
 1687POPC   GL224566  32.904   3.427   9.041
 1687POPC   C1A24567  32.987   3.877   8.837
 1687POPC   D2A24568  32.871   3.600   8.498
 1687POPC   C3A24569  32.822   3.703   8.059
 1687POPC   C4A24570  33.025   3.773   7.652
 1687POPC   C1B24571  33.287   3.434   8.768
 1687POPC   C2B24572  33.312   3.418   8.307
 1687POPC   C3B24573  33.116   3.272   7.901
 1687POPC   C4B24574  33.216   3.324   7.442
 1688POPC   NC324575   6.211  24.382   9.502
 1688POPC   PO424576   5.640  24.733   9.452
 1688POPC   GL124577   5.905  24.577   9.147
 1688POPC   GL224578   6.204  24.775   9.144
 1688POPC   C1A24579   5.886  24.398   8.767
 1688POPC   D2A24580   5.654  24.490   8.420
 1688POPC   C3A24581   5.792  24.292   8.093
 1688POPC   C4A24582   5.872  24.414   7.694
 1688POPC   C1B24583   6.014  24.914   8.766
 1688POPC   C2B24584   5.854  25.034   8.378
 1688POPC   C3B24585   5.860  24.853   7.975
 1688POPC   C4B24586   6.033  24.876   7.555
 1689POPC   NC324587  35.372  42.959   9.634
 1689POPC   PO424588  34.697  42.838   9.354
 1689POPC   GL124589  35.159  42.945   9.168
 1689POPC   GL224590  35.553  42.897   9.180
 1689POPC   C1A24591  35.326  43.153   8.794
 1689POPC   D2A24592  35.074  43.039   8.463
 1689POPC   C3A24593  35.222  43.089   8.076
 1689POPC   C4A24594  35.129  42.922   7.730
 1689POPC   C1B24595  35.488  42.673   8.807
 1689POPC   C2B24596  35.536  42.817   8.377
 1689POPC   C3B24597  35.594  42.748   7.916
 1689POPC   C4B24598  35.475  42.621   7.491
 1690POPC   NC324599  39.659  14.798   9.541
 1690POPC   PO424600  40.244  15.157   9.508
 1690POPC   GL124601  40.036  15.164   9.097
 1690POPC   GL224602  39.928  14.838   9.099
 1690POPC   C1A24603  39.820  15.298   8.672
 1690POPC   D2A24604  39.656  15.405   8.229
 1690POPC   C3A24605  39.986  15.458   7.888
 1690POPC   C4A24606  39.923  15.391   7.414
 1690POPC   C1B24607  40.151  14.862   8.706
 1690POPC   C2B24608  40.143  14.730   8.335
 1690POPC   C3B24609  39.940  14.966   8.055
 1690POPC   C4B24610  40.073  14.971   7.637
 1691POPC   NC324611  21.722  30.790   9.362
 1691POPC   PO424612  22.432  30.790   9.582
 1691POPC   GL124613  22.286  30.675   9.197
 1691POPC   GL224614  22.543  30.394   9.226
 1691POPC   C1A24615  22.053  30.747   8.759
 1691POPC   D2A24616  22.054  30.754   8.281
 1691POPC   C3A24617  21.995  30.898   7.860
 1691POPC   C4A24618  21.891  30.663   7.533
 1691POPC   C1B24619  22.372  30.321   8.841
 1691POPC   C2B24620  22.430  30.474   8.488
 1691POPC   C3B24621  22.415  30.367   8.089
 1691POPC   C4B24622  22.342  30.498   7.712
 1692POPC   NC324623  22.867  23.801   9.713
 1692POPC   PO424624  22.836  23.387   9.256
 1692POPC   GL124625  23.044  23.700   9.071
 1692POPC   GL224626  23.248  23.471   8.869
 1692POPC   C1A24627  23.025  23.925   8.678
 1692POPC   D2A24628  23.186  23.829   8.274
 1692POPC   C3A24629  22.864  23.919   7.974
 1692POPC   C4A24630  22.738  23.656   7.602
 1692POPC   C1B24631  22.919  23.433   8.552
 1692POPC   C2B24632  22.858  23.410   8.088
 1692POPC   C3B24633  22.670  23.193   7.758
 1692POPC   C4B24634  22.544  23.242   7.320
 1693POPC   NC324635  16.433  15.120   9.593
 1693POPC   PO424636  15.777  15.384   9.571
 1693POPC   GL124637  15.800  15.302   9.176
 1693POPC   GL224638  16.150  15.302   9.197
 1693POPC   C1A24639  15.704  15.377   8.770
 1693POPC   D2A24640  15.940  15.277   8.426
 1693POPC   C3A24641  15.746  15.375   8.069
 1693POPC   C4A24642  15.657  14.993   7.808
 1693POPC   C1B24643  16.288  15.320   8.798
 1693POPC   C2B24644  16.460  15.166   8.415
 1693POPC   C3B24645  16.280  15.347   8.042
 1693POPC   C4B24646  16.060  15.256   7.701
 1694POPC   NC324647  39.309  23.280   9.277
 1694POPC   PO424648  39.402  22.598   9.420
 1694POPC   GL124649  39.206  22.827   9.092
 1694POPC   GL224650  39.581  22.925   9.035
 1694POPC   C1A24651  39.234  23.071   8.670
 1694POPC   D2A24652  39.078  23.221   8.287
 1694POPC   C3A24653  39.312  23.088   7.898
 1694POPC   C4A24654  39.589  22.951   7.557
 1694POPC   C1B24655  39.443  22.612   8.716
 1694POPC   C2B24656  39.285  22.713   8.277
 1694POPC   C3B24657  39.273  22.592   7.839
 1694POPC   C4B24658  39.288  22.525   7.404
 1695POPC   NC324659  42.136  42.877   9.738
 1695POPC   PO424660  42.430  43.411   9.543
 1695POPC   GL124661  42.379  43.171   9.152
 1695POPC   GL224662  42.343  42.820   9.232
 1695POPC   C1A24663  42.303  43.240   8.715
 1695POPC   D2A24664  42.269  43.492   8.335
 1695POPC   C3A24665  42.365  43.156   8.060
 1695POPC   C4A24666  42.265  43.025   7.635
 1695POPC   C1B24667  42.434  42.746   8.775
 1695POPC   C2B24668  42.269  42.718   8.329
 1695POPC   C3B24669  42.447  42.632   7.897
 1695POPC   C4B24670  42.650  42.715   7.498
 1696POPC   NC324671  38.513   4.887   9.434
 1696POPC   PO424672  38.329   5.456   9.427
 1696POPC   GL124673  38.286   5.216   9.076
 1696POPC   GL224674  38.060   4.929   9.156
 1696POPC   C1A24675  38.636   5.175   8.792
 1696POPC   D2A24676  38.753   5.247   8.361
 1696POPC   C3A24677  38.391   5.191   8.096
 1696POPC   C4A24678  38.489   5.151   7.686
 1696POPC   C1B24679  38.317   4.725   8.834
 1696POPC   C2B24680  38.483   4.810   8.436
 1696POPC   C3B24681  38.580   4.698   8.006
 1696POPC   C4B24682  38.323   4.682   7.654
 1697POPC   NC324683  21.176  33.232   9.426
 1697POPC   PO424684  21.822  33.031   9.586
 1697POPC   GL124685  21.650  33.066   9.065
 1697POPC   GL224686  21.289  33.196   8.950
 1697POPC   C1A24687  21.657  33.244   8.614
 1697POPC   D2A24688  21.483  33.083   8.218
 1697POPC   C3A24689  21.623  33.017   7.793
 1697POPC   C4A24690  21.490  32.687   7.452
 1697POPC   C1B24691  21.290  32.819   8.711
 1697POPC   C2B24692  21.312  32.554   8.327
 1697POPC   C3B24693  21.243  32.715   7.919
 1697POPC   C4B24694  21.138  33.168   7.807
 1698POPC   NC324695  21.011  15.718   9.457
 1698POPC   PO424696  21.416  16.239   9.562
 1698POPC   GL124697  21.144  16.290   9.200
 1698POPC   GL224698  21.272  15.979   9.122
 1698POPC   C1A24699  21.134  16.229   8.732
 1698POPC   D2A24700  21.315  15.992   8.403
 1698POPC   C3A24701  21.354  16.150   7.983
 1698POPC   C4A24702  21.216  16.149   7.531
 1698POPC   C1B24703  21.158  15.682   8.791
 1698POPC   C2B24704  21.303  15.463   8.411
 1698POPC   C3B24705  21.347  15.646   8.023
 1698POPC   C4B24706  20.993  15.760   7.741
 1699POPC   NC324707  19.684  24.705   9.434
 1699POPC   PO424708  20.315  24.418   9.319
 1699POPC   GL124709  20.106  24.223   8.966
 1699POPC   GL224710  19.776  24.250   9.095
 1699POPC   C1A24711  20.035  24.276   8.543
 1699POPC   D2A24712  19.886  24.568   8.253
 1699POPC   C3A24713  19.899  24.392   7.850
 1699POPC   C4A24714  19.797  24.714   7.589
 1699POPC   C1B24715  19.526  24.457   8.782
 1699POPC   C2B24716  19.457  24.331   8.382
 1699POPC   C3B24717  19.412  24.554   8.008
 1699POPC   C4B24718  19.402  24.322   7.640
 1700POPC   NC324719  23.367  31.709   9.354
 1700POPC   PO424720  22.684  31.583   9.480
 1700POPC   GL124721  22.884  31.727   9.158
 1700POPC   GL224722  23.030  31.418   9.115
 1700POPC   C1A24723  23.090  31.786   8.745
 1700POPC   D2A24724  23.176  31.606   8.355
 1700POPC   C3A24725  22.960  31.718   8.019
 1700POPC   C4A24726  23.087  31.708   7.617
 1700POPC   C1B24727  22.922  31.226   8.775
 1700POPC   C2B24728  22.989  31.145   8.358
 1700POPC   C3B24729  22.886  31.216   7.951
 1700POPC   C4B24730  22.777  31.323   7.533
 1701POPC   NC324731  37.502  42.348   9.450
 1701POPC   PO424732  38.076  41.988   9.521
 1701POPC   GL124733  38.002  42.290   9.199
 1701POPC   GL224734  37.917  42.662   9.288
 1701POPC   C1A24735  37.990  42.152   8.782
 1701POPC   D2A24736  37.751  42.275   8.420
 1701POPC   C3A24737  37.863  42.304   8.001
 1701POPC   C4A24738  38.190  42.198   7.737
 1701POPC   C1B24739  37.772  42.607   8.853
 1701POPC   C2B24740  37.934  42.737   8.461
 1701POPC   C3B24741  37.802  42.840   8.051
 1701POPC   C4B24742  37.577  42.655   7.746
 1702POPC   NC324743  36.474  19.435   9.730
 1702POPC   PO424744  36.878  18.983   9.295
 1702POPC   GL124745  37.071  19.279   9.060
 1702POPC   GL224746  37.350  19.024   9.051
 1702POPC   C1A24747  36.854  19.400   8.676
 1702POPC   D2A24748  36.763  19.064   8.407
 1702POPC   C3A24749  37.017  19.029   8.067
 1702POPC   C4A24750  36.850  19.171   7.656
 1702POPC   C1B24751  37.202  18.997   8.658
 1702POPC   C2B24752  37.288  19.331   8.415
 1702POPC   C3B24753  37.403  19.427   8.048
 1702POPC   C4B24754  37.381  19.120   7.732
 1703POPC   NC324755   5.873  28.741   9.330
 1703POPC   PO424756   6.225  29.272   9.562
 1703POPC   GL124757   6.075  29.196   9.178
 1703POPC   GL224758   5.813  29.389   9.182
 1703POPC   C1A24759   5.908  29.058   8.782
 1703POPC   D2A24760   6.100  28.874   8.472
 1703POPC   C3A24761   5.919  29.130   8.153
 1703POPC   C4A24762   6.025  29.172   7.750
 1703POPC   C1B24763   5.915  29.573   8.763
 1703POPC   C2B24764   5.742  29.677   8.329
 1703POPC   C3B24765   5.708  29.546   7.876
 1703POPC   C4B24766   5.806  29.486   7.397
 1704POPC   NC324767   7.309  32.645   9.393
 1704POPC   PO424768   7.591  33.263   9.477
 1704POPC   GL124769   7.384  33.118   9.120
 1704POPC   GL224770   7.489  32.798   8.953
 1704POPC   C1A24771   7.304  33.225   8.707
 1704POPC   D2A24772   7.467  32.964   8.408
 1704POPC   C3A24773   7.490  33.249   8.094
 1704POPC   C4A24774   7.326  33.223   7.705
 1704POPC   C1B24775   7.812  32.645   8.670
 1704POPC   C2B24776   7.746  32.564   8.239
 1704POPC   C3B24777   7.525  32.709   7.866
 1704POPC   C4B24778   7.672  32.734   7.412
 1705POPC   NC324779  17.662  18.189   9.497
 1705POPC   PO424780  16.973  18.343   9.569
 1705POPC   GL124781  17.277  18.334   9.166
 1705POPC   GL224782  17.427  17.994   9.075
 1705POPC   C1A24783  17.434  18.398   8.698
 1705POPC   D2A24784  17.621  18.382   8.227
 1705POPC   C3A24785  17.509  18.692   7.865
 1705POPC   C4A24786  17.535  18.735   7.381
 1705POPC   C1B24787  17.786  17.994   8.782
 1705POPC   C2B24788  17.821  17.857   8.347
 1705POPC   C3B24789  17.847  17.997   7.937
 1705POPC   C4B24790  17.487  18.174   7.739
 1706POPC   NC324791  11.604  18.987   9.530
 1706POPC   PO424792  11.063  19.392   9.660
 1706POPC   GL124793  11.179  19.171   9.188
 1706POPC   GL224794  11.041  19.406   8.924
 1706POPC   C1A24795  11.531  18.889   8.874
 1706POPC   D2A24796  11.804  18.975   8.465
 1706POPC   C3A24797  11.689  18.945   8.024
 1706POPC   C4A24798  11.617  19.255   7.710
 1706POPC   C1B24799  11.266  19.194   8.582
 1706POPC   C2B24800  11.310  18.830   8.319
 1706POPC   C3B24801  11.216  18.810   7.853
 1706POPC   C4B24802  11.071  18.827   7.415
 1707POPC   NC324803  21.705  20.084   9.493
 1707POPC   PO424804  21.228  20.650   9.471
 1707POPC   GL124805  21.563  20.744   9.198
 1707POPC   GL224806  21.636  20.411   9.130
 1707POPC   C1A24807  21.595  20.752   8.752
 1707POPC   D2A24808  21.405  20.939   8.407
 1707POPC   C3A24809  21.221  20.818   8.047
 1707POPC   C4A24810  21.498  20.846   7.722
 1707POPC   C1B24811  21.304  20.295   8.841
 1707POPC   C2B24812  21.388  20.398   8.406
 1707POPC   C3B24813  21.529  20.379   7.962
 1707POPC   C4B24814  21.135  20.432   7.706
 1708POPC   NC324815   4.170  25.533   9.442
 1708POPC   PO424816   4.068  24.894   9.283
 1708POPC   GL124817   4.197  25.254   9.018
 1708POPC   GL224818   4.529  25.318   9.127
 1708POPC   C1A24819   4.288  25.492   8.622
 1708POPC   D2A24820   3.985  25.601   8.266
 1708POPC   C3A24821   4.109  25.302   8.014
 1708POPC   C4A24822   4.398  25.366   7.738
 1708POPC   C1B24823   4.590  25.044   8.759
 1708POPC   C2B24824   4.426  25.043   8.331
 1708POPC   C3B24825   4.681  24.999   7.931
 1708POPC   C4B24826   4.889  24.893   7.519
 1709POPC   NC324827   6.089   4.767   9.411
 1709POPC   PO424828   6.127   4.162   9.546
 1709POPC   GL124829   6.219   4.274   9.160
 1709POPC   GL224830   6.089   3.959   9.060
 1709POPC   C1A24831   6.021   4.388   8.734
 1709POPC   D2A24832   5.726   4.247   8.378
 1709POPC   C3A24833   5.918   4.295   7.959
 1709POPC   C4A24834   6.020   4.542   7.550
 1709POPC   C1B24835   5.966   3.882   8.657
 1709POPC   C2B24836   6.213   3.941   8.317
 1709POPC   C3B24837   6.203   3.869   7.885
 1709POPC   C4B24838   5.935   4.047   7.519
 1710POPC   NC324839  17.553  36.976   9.521
 1710POPC   PO424840  17.383  36.436   9.704
 1710POPC   GL124841  17.465  36.580   9.224
 1710POPC   GL224842  17.187  36.813   9.184
 1710POPC   C1A24843  17.602  36.898   8.875
 1710POPC   D2A24844  17.679  37.033   8.452
 1710POPC   C3A24845  17.552  36.846   8.070
 1710POPC   C4A24846  17.577  37.111   7.720
 1710POPC   C1B24847  17.055  36.973   8.782
 1710POPC   C2B24848  17.133  37.073   8.357
 1710POPC   C3B24849  17.104  37.081   7.918
 1710POPC   C4B24850  17.143  37.358   7.558
 1711POPC   NC324851  34.190  15.015   9.516
 1711POPC   PO424852  34.876  15.178   9.526
 1711POPC   GL124853  34.714  15.282   9.129
 1711POPC   GL224854  34.364  15.274   9.095
 1711POPC   C1A24855  34.628  15.112   8.698
 1711POPC   D2A24856  34.431  15.237   8.276
 1711POPC   C3A24857  34.607  15.202   7.833
 1711POPC   C4A24858  34.716  15.344   7.397
 1711POPC   C1B24859  34.096  15.162   8.709
 1711POPC   C2B24860  33.999  14.947   8.318
 1711POPC   C3B24861  34.064  15.026   7.870
 1711POPC   C4B24862  34.325  14.841   7.556
 1712POPC   NC324863  26.745  22.928   9.575
 1712POPC   PO424864  26.982  23.505   9.438
 1712POPC   GL124865  26.928  23.136   9.129
 1712POPC   GL224866  27.108  22.808   9.210
 1712POPC   C1A24867  26.584  22.987   8.822
 1712POPC   D2A24868  26.359  23.142   8.408
 1712POPC   C3A24869  26.607  23.023   8.019
 1712POPC   C4A24870  26.557  22.776   7.623
 1712POPC   C1B24871  27.017  22.691   8.766
 1712POPC   C2B24872  27.067  22.812   8.318
 1712POPC   C3B24873  27.113  23.085   7.962
 1712POPC   C4B24874  27.218  23.269   7.573
 1713POPC   NC324875  19.992  14.900   9.199
 1713POPC   PO424876  19.846  15.529   9.433
 1713POPC   GL124877  19.710  15.411   9.058
 1713POPC   GL224878  19.390  15.573   9.033
 1713POPC   C1A24879  19.970  15.330   8.693
 1713POPC   D2A24880  20.204  15.256   8.302
 1713POPC   C3A24881  19.907  15.037   8.049
 1713POPC   C4A24882  19.814  15.090   7.599
 1713POPC   C1B24883  19.588  15.684   8.644
 1713POPC   C2B24884  19.728  15.476   8.268
 1713POPC   C3B24885  19.498  15.338   7.917
 1713POPC   C4B24886  19.110  15.496   7.769
 1714POPC   NC324887  20.376  31.959   9.469
 1714POPC   PO424888  19.666  32.089   9.412
 1714POPC   GL124889  19.838  32.204   9.025
 1714POPC   GL224890  20.174  32.279   9.106
 1714POPC   C1A24891  19.998  32.398   8.633
 1714POPC   D2A24892  20.017  32.467   8.188
 1714POPC   C3A24893  19.753  32.320   7.884
 1714POPC   C4A24894  19.371  32.463   7.722
 1714POPC   C1B24895  20.284  31.996   8.778
 1714POPC   C2B24896  20.157  31.866   8.353
 1714POPC   C3B24897  20.165  32.032   7.943
 1714POPC   C4B24898  19.970  31.946   7.556
 1715POPC   NC324899  38.968   9.825   9.687
 1715POPC   PO424900  38.328   9.701   9.566
 1715POPC   GL124901  38.513   9.697   9.172
 1715POPC   GL224902  38.392  10.022   9.109
 1715POPC   C1A24903  38.441   9.682   8.731
 1715POPC   D2A24904  38.525   9.934   8.382
 1715POPC   C3A24905  38.362   9.725   8.032
 1715POPC   C4A24906  38.607   9.543   7.715
 1715POPC   C1B24907  38.183  10.167   8.729
 1715POPC   C2B24908  38.017  10.205   8.322
 1715POPC   C3B24909  38.261  10.233   7.943
 1715POPC   C4B24910  38.377   9.988   7.578
 1716POPC   NC324911  35.330  25.978   9.664
 1716POPC   PO424912  34.706  26.204   9.406
 1716POPC   GL124913  35.110  26.049   9.159
 1716POPC   GL224914  35.474  25.902   9.186
 1716POPC   C1A24915  35.209  25.924   8.709
 1716POPC   D2A24916  35.100  26.087   8.304
 1716POPC   C3A24917  35.334  25.960   7.936
 1716POPC   C4A24918  35.511  25.709   7.592
 1716POPC   C1B24919  35.538  26.250   8.913
 1716POPC   C2B24920  35.592  26.234   8.513
 1716POPC   C3B24921  35.653  26.302   8.133
 1716POPC   C4B24922  35.605  26.524   7.791
 1717POPC   NC324923  10.079  34.299   9.505
 1717POPC   PO424924   9.592  34.742   9.701
 1717POPC   GL124925   9.800  34.683   9.310
 1717POPC   GL224926   9.635  34.347   9.220
 1717POPC   C1A24927   9.831  34.779   8.883
 1717POPC   D2A24928   9.670  34.674   8.494
 1717POPC   C3A24929   9.876  34.696   8.087
 1717POPC   C4A24930   9.607  34.766   7.717
 1717POPC   C1B24931   9.931  34.281   8.875
 1717POPC   C2B24932  10.135  34.329   8.462
 1717POPC   C3B24933  10.175  34.240   8.026
 1717POPC   C4B24934   9.842  34.292   7.738
 1718POPC   NC324935  17.823  23.353   9.374
 1718POPC   PO424936  17.588  22.780   9.347
 1718POPC   GL124937  17.466  23.088   9.050
 1718POPC   GL224938  17.729  23.250   8.868
 1718POPC   C1A24939  17.274  23.159   8.644
 1718POPC   D2A24940  17.511  23.313   8.319
 1718POPC   C3A24941  17.432  23.155   7.905
 1718POPC   C4A24942  17.740  23.220   7.563
 1718POPC   C1B24943  17.715  22.877   8.588
 1718POPC   C2B24944  17.901  22.683   8.210
 1718POPC   C3B24945  17.766  22.747   7.764
 1718POPC   C4B24946  17.769  22.466   7.385
 1719POPC   NC324947  37.904   0.862   9.776
 1719POPC   PO424948  37.878   1.354   9.264
 1719POPC   GL124949  37.849   1.075   8.966
 1719POPC   GL224950  37.495   1.151   8.970
 1719POPC   C1A24951  37.947   0.987   8.578
 1719POPC   D2A24952  38.087   1.214   8.251
 1719POPC   C3A24953  37.835   1.216   7.908
 1719POPC   C4A24954  37.639   1.333   7.531
 1719POPC   C1B24955  37.454   0.855   8.673
 1719POPC   C2B24956  37.535   1.025   8.279
 1719POPC   C3B24957  37.321   1.069   7.923
 1719POPC   C4B24958  36.890   1.022   7.770
 1720POPC   NC324959  39.855  22.601   9.495
 1720POPC   PO424960  39.776  23.237   9.416
 1720POPC   GL124961  40.101  23.028   9.143
 1720POPC   GL224962  40.063  22.644   9.055
 1720POPC   C1A24963  40.209  23.214   8.744
 1720POPC   D2A24964  40.028  23.123   8.345
 1720POPC   C3A24965  40.258  23.134   7.998
 1720POPC   C4A24966  40.096  22.945   7.652
 1720POPC   C1B24967  39.927  22.779   8.701
 1720POPC   C2B24968  39.789  22.642   8.350
 1720POPC   C3B24969  39.752  22.767   7.991
 1720POPC   C4B24970  39.744  22.485   7.647
 1721POPC   NC324971  34.910   5.359   9.624
 1721POPC   PO424972  35.298   4.839   9.699
 1721POPC   GL124973  35.114   5.166   9.224
 1721POPC   GL224974  35.395   5.131   8.921
 1721POPC   C1A24975  34.932   5.242   8.790
 1721POPC   D2A24976  35.232   5.222   8.424
 1721POPC   C3A24977  35.199   4.924   8.104
 1721POPC   C4A24978  35.073   5.153   7.744
 1721POPC   C1B24979  35.744   5.100   8.628
 1721POPC   C2B24980  35.767   5.422   8.356
 1721POPC   C3B24981  35.531   5.361   7.985
 1721POPC   C4B24982  35.559   5.026   7.724
 1722POPC   NC324983   9.082  12.590   9.379
 1722POPC   PO424984   8.693  13.160   9.361
 1722POPC   GL124985   9.052  13.018   9.100
 1722POPC   GL224986   9.401  13.110   9.193
 1722POPC   C1A24987   9.121  12.739   8.751
 1722POPC   D2A24988   8.964  12.905   8.391
 1722POPC   C3A24989   8.845  12.572   8.156
 1722POPC   C4A24990   9.073  12.470   7.810
 1722POPC   C1B24991   9.452  13.118   8.726
 1722POPC   C2B24992   9.462  13.015   8.242
 1722POPC   C3B24993   9.113  12.977   7.899
 1722POPC   C4B24994   9.049  12.854   7.431
 1723POPC   NC324995  12.337  37.317   9.655
 1723POPC   PO424996  11.878  36.780   9.687
 1723POPC   GL124997  12.018  36.995   9.344
 1723POPC   GL224998  11.767  37.223   9.316
 1723POPC   C1A24999  12.104  36.825   8.929
 1723POPC   D2A25000  11.966  36.624   8.523
 1723POPC   C3A25001  12.106  36.843   8.123
 1723POPC   C4A25002  12.161  36.698   7.690
 1723POPC   C1B25003  11.930  37.323   8.904
 1723POPC   C2B25004  12.038  37.394   8.471
 1723POPC   C3B25005  11.907  37.345   8.046
 1723POPC   C4B25006  11.835  37.149   7.673
 1724POPC   NC325007  37.833  27.996   9.483
 1724POPC   PO425008  37.497  27.444   9.428
 1724POPC   GL125009  37.813  27.551   9.120
 1724POPC   GL225010  37.998  27.867   9.034
 1724POPC   C1A25011  37.620  27.690   8.749
 1724POPC   D2A25012  37.759  27.829   8.376
 1724POPC   C3A25013  37.666  27.508   8.084
 1724POPC   C4A25014  37.411  27.641   7.737
 1724POPC   C1B25015  38.168  27.730   8.699
 1724POPC   C2B25016  38.278  27.916   8.335
 1724POPC   C3B25017  38.144  27.718   8.022
 1724POPC   C4B25018  37.885  27.814   7.725
 1725POPC   NC325019  12.715  16.462   9.568
 1725POPC   PO425020  12.912  17.052   9.513
 1725POPC   GL125021  12.620  17.035   9.170
 1725POPC   GL225022  12.735  16.710   9.104
 1725POPC   C1A25023  12.739  17.067   8.729
 1725POPC   D2A25024  12.835  16.766   8.412
 1725POPC   C3A25025  12.943  16.972   8.049
 1725POPC   C4A25026  13.167  16.962   7.694
 1725POPC   C1B25027  13.097  16.661   8.858
 1725POPC   C2B25028  13.328  16.592   8.501
 1725POPC   C3B25029  13.255  16.526   8.082
 1725POPC   C4B25030  13.272  16.465   7.652
 1726POPC   NC325031  39.252  41.911   9.670
 1726POPC   PO425032  39.048  42.622   9.692
 1726POPC   GL125033  39.122  42.505   9.254
 1726POPC   GL225034  39.291  42.231   9.272
 1726POPC   C1A25035  38.982  42.434   8.809
 1726POPC   D2A25036  38.908  42.165   8.447
 1726POPC   C3A25037  39.013  42.409   8.077
 1726POPC   C4A25038  39.275  42.539   7.779
 1726POPC   C1B25039  39.398  42.158   8.849
 1726POPC   C2B25040  39.387  42.356   8.430
 1726POPC   C3B25041  39.421  42.117   8.012
 1726POPC   C4B25042  39.567  42.174   7.561
 1727POPC   NC325043  16.024  25.430   9.520
 1727POPC   PO425044  15.457  25.038   9.419
 1727POPC   GL125045  15.690  25.335   9.117
 1727POPC   GL225046  16.045  25.538   9.042
 1727POPC   C1A25047  15.852  25.140   8.769
 1727POPC   D2A25048  16.078  25.078   8.337
 1727POPC   C3A25049  15.854  24.945   7.997
 1727POPC   C4A25050  15.614  24.683   7.820
 1727POPC   C1B25051  16.240  25.427   8.655
 1727POPC   C2B25052  15.796  25.539   8.456
 1727POPC   C3B25053  15.690  25.439   8.063
 1727POPC   C4B25054  16.080  25.372   7.844
 1728POPC   NC325055  35.267  34.361   9.494
 1728POPC   PO425056  35.523  34.980   9.651
 1728POPC   GL125057  35.445  34.840   9.251
 1728POPC   GL225058  35.101  34.784   9.203
 1728POPC   C1A25059  35.534  34.652   8.876
 1728POPC   D2A25060  35.431  34.572   8.470
 1728POPC   C3A25061  35.618  34.780   8.073
 1728POPC   C4A25062  35.554  34.618   7.656
 1728POPC   C1B25063  35.026  34.475   8.879
 1728POPC   C2B25064  34.949  34.457   8.429
 1728POPC   C3B25065  35.211  34.460   8.037
 1728POPC   C4B25066  35.206  34.136   7.733
 1729POPC   NC325067  23.009  36.693   9.334
 1729POPC   PO425068  22.658  37.185   9.550
 1729POPC   GL125069  22.761  37.128   9.148
 1729POPC   GL225070  22.594  36.821   9.058
 1729POPC   C1A25071  23.029  37.092   8.788
 1729POPC   D2A25072  22.880  36.951   8.400
 1729POPC   C3A25073  23.068  37.091   8.033
 1729POPC   C4A25074  22.693  37.080   7.803
 1729POPC   C1B25075  22.771  36.554   8.755
 1729POPC   C2B25076  22.826  36.402   8.371
 1729POPC   C3B25077  22.804  36.468   7.952
 1729POPC   C4B25078  23.041  36.714   7.684
 1730POPC   NC325079  34.999  25.136   9.476
 1730POPC   PO425080  34.381  24.984   9.430
 1730POPC   GL125081  34.566  25.217   9.085
 1730POPC   GL225082  34.853  25.087   8.991
 1730POPC   C1A25083  34.558  25.331   8.620
 1730POPC   D2A25084  34.685  25.725   8.394
 1730POPC   C3A25085  34.735  25.629   7.970
 1730POPC   C4A25086  34.546  25.248   7.806
 1730POPC   C1B25087  35.006  25.481   8.841
 1730POPC   C2B25088  35.136  25.487   8.407
 1730POPC   C3B25089  34.915  25.168   8.194
 1730POPC   C4B25090  34.813  24.830   7.884
 1731POPC   NC325091  17.790  44.359   9.610
 1731POPC   PO425092  17.382  44.871   9.520
 1731POPC   GL125093  17.415  44.690   9.164
 1731POPC   GL225094  17.765  44.663   9.179
 1731POPC   C1A25095  17.189  44.630   8.786
 1731POPC   D2A25096  17.280  44.836   8.397
 1731POPC   C3A25097  17.253  44.598   8.009
 1731POPC   C4A25098  17.366  44.716   7.568
 1731POPC   C1B25099  17.682  44.826   8.750
 1731POPC   C2B25100  17.763  44.608   8.359
 1731POPC   C3B25101  17.743  44.570   7.914
 1731POPC   C4B25102  17.795  44.440   7.488
 1732POPC   NC325103  27.440   4.635   9.527
 1732POPC   PO425104  27.755   4.111   9.583
 1732POPC   GL125105  27.724   4.325   9.203
 1732POPC   GL225106  27.360   4.285   9.134
 1732POPC   C1A25107  27.767   4.346   8.739
 1732POPC   D2A25108  27.809   4.122   8.340
 1732POPC   C3A25109  27.493   4.233   8.030
 1732POPC   C4A25110  27.555   4.421   7.643
 1732POPC   C1B25111  27.276   4.384   8.697
 1732POPC   C2B25112  27.466   4.704   8.430
 1732POPC   C3B25113  27.345   4.756   8.004
 1732POPC   C4B25114  27.053   4.474   7.803
 1733POPC   NC325115  27.140   5.377   9.444
 1733POPC   PO425116  27.657   5.737   9.578
 1733POPC   GL125117  27.620   5.923   9.187
 1733POPC   GL225118  27.274   5.946   9.253
 1733POPC   C1A25119  27.748   5.864   8.753
 1733POPC   D2A25120  27.706   6.139   8.400
 1733POPC   C3A25121  27.631   5.979   8.006
 1733POPC   C4A25122  27.815   5.788   7.653
 1733POPC   C1B25123  27.245   5.942   8.821
 1733POPC   C2B25124  27.343   5.672   8.488
 1733POPC   C3B25125  27.203   5.659   8.098
 1733POPC   C4B25126  27.311   5.733   7.689
 1734POPC   NC325127  17.400  37.911   9.198
 1734POPC   PO425128  17.458  37.417   9.690
 1734POPC   GL125129  17.604  37.413   9.233
 1734POPC   GL225130  17.863  37.670   9.150
 1734POPC   C1A25131  17.405  37.370   8.807
 1734POPC   D2A25132  17.446  37.478   8.384
 1734POPC   C3A25133  17.177  37.597   8.047
 1734POPC   C4A25134  17.362  37.808   7.693
 1734POPC   C1B25135  17.812  37.907   8.728
 1734POPC   C2B25136  17.484  37.987   8.458
 1734POPC   C3B25137  17.647  37.857   8.102
 1734POPC   C4B25138  17.873  37.882   7.742
 1735POPC   NC325139  24.711  32.966   9.386
 1735POPC   PO425140  24.222  33.370   9.543
 1735POPC   GL125141  24.357  33.276   9.097
 1735POPC   GL225142  24.433  32.899   8.958
 1735POPC   C1A25143  24.512  33.293   8.650
 1735POPC   D2A25144  24.525  32.997   8.361
 1735POPC   C3A25145  24.310  33.038   8.021
 1735POPC   C4A25146  24.462  33.083   7.609
 1735POPC   C1B25147  24.792  32.721   8.688
 1735POPC   C2B25148  24.866  32.635   8.237
 1735POPC   C3B25149  24.597  32.640   7.854
 1735POPC   C4B25150  24.728  32.652   7.394
 1736POPC   NC325151  38.641   9.343   9.521
 1736POPC   PO425152  38.450   8.709   9.536
 1736POPC   GL125153  38.585   8.941   9.180
 1736POPC   GL225154  38.784   8.649   9.127
 1736POPC   C1A25155  38.337   9.164   8.824
 1736POPC   D2A25156  38.178   9.356   8.410
 1736POPC   C3A25157  38.336   9.200   7.988
 1736POPC   C4A25158  38.387   9.113   7.526
 1736POPC   C1B25159  38.740   8.823   8.696
 1736POPC   C2B25160  38.382   8.848   8.405
 1736POPC   C3B25161  38.370   8.687   7.987
 1736POPC   C4B25162  38.601   8.664   7.564
 1737POPC   NC325163  23.602  40.413   9.643
 1737POPC   PO425164  24.016  40.030   9.646
 1737POPC   GL125165  23.866  39.869   9.257
 1737POPC   GL225166  23.678  40.155   9.167
 1737POPC   C1A25167  24.008  39.926   8.835
 1737POPC   D2A25168  24.029  40.163   8.458
 1737POPC   C3A25169  24.065  39.944   8.093
 1737POPC   C4A25170  24.099  39.853   7.681
 1737POPC   C1B25171  23.563  40.148   8.704
 1737POPC   C2B25172  23.571  40.106   8.230
 1737POPC   C3B25173  23.473  39.793   7.914
 1737POPC   C4B25174  23.119  39.769   7.608
 1738POPC   NC325175  39.193  38.610   9.789
 1738POPC   PO425176  39.214  39.236   9.499
 1738POPC   GL125177  39.246  39.331   9.067
 1738POPC   GL225178  39.485  39.591   8.975
 1738POPC   C1A25179  39.102  39.036   8.751
 1738POPC   D2A25180  39.310  38.852   8.389
 1738POPC   C3A25181  39.208  38.961   7.949
 1738POPC   C4A25182  39.162  38.884   7.467
 1738POPC   C1B25183  39.485  39.335   8.600
 1738POPC   C2B25184  39.153  39.336   8.334
 1738POPC   C3B25185  39.051  39.636   8.059
 1738POPC   C4B25186  39.136  39.404   7.674
 1739POPC   NC325187  41.405  14.971   9.418
 1739POPC   PO425188  41.878  15.436   9.494
 1739POPC   GL125189  41.874  15.332   9.077
 1739POPC   GL225190  41.810  15.010   9.113
 1739POPC   C1A25191  41.754  15.339   8.642
 1739POPC   D2A25192  41.362  15.224   8.410
 1739POPC   C3A25193  41.469  15.278   7.989
 1739POPC   C4A25194  41.883  15.176   7.867
 1739POPC   C1B25195  41.642  14.864   8.737
 1739POPC   C2B25196  41.823  14.900   8.337
 1739POPC   C3B25197  41.638  14.750   7.989
 1739POPC   C4B25198  41.422  14.884   7.651
 1740POPC   NC325199   0.980   5.657   9.684
 1740POPC   PO425200   1.409   6.075   9.456
 1740POPC   GL125201   1.315   5.822   9.138
 1740POPC   GL225202   0.962   5.925   9.135
 1740POPC   C1A25203   1.515   5.778   8.723
 1740POPC   D2A25204   1.288   5.720   8.323
 1740POPC   C3A25205   1.397   5.506   7.942
 1740POPC   C4A25206   1.030   5.341   7.775
 1740POPC   C1B25207   1.078   6.046   8.698
 1740POPC   C2B25208   1.384   6.225   8.394
 1740POPC   C3B25209   1.365   6.114   7.980
 1740POPC   C4B25210   0.962   6.202   7.806
 1741POPC   NC325211   9.943  38.229   9.575
 1741POPC   PO425212   9.497  38.737   9.628
 1741POPC   GL125213   9.590  38.474   9.213
 1741POPC   GL225214   9.790  38.156   9.085
 1741POPC   C1A25215   9.628  38.634   8.777
 1741POPC   D2A25216   9.797  38.459   8.375
 1741POPC   C3A25217   9.576  38.637   8.018
 1741POPC   C4A25218   9.814  38.945   7.774
 1741POPC   C1B25219   9.522  38.135   8.708
 1741POPC   C2B25220   9.409  38.133   8.258
 1741POPC   C3B25221   9.724  38.113   7.951
 1741POPC   C4B25222   9.935  38.405   7.727
 1742POPC   NC325223  43.677  13.248   9.353
 1742POPC   PO425224  43.479  12.594   9.404
 1742POPC   GL125225  43.792  12.764   9.166
 1742POPC   GL225226  44.078  12.589   9.233
 1742POPC   C1A25227  43.864  12.955   8.788
 1742POPC   D2A25228  43.612  13.085   8.447
 1742POPC   C3A25229  43.679  12.902   8.096
 1742POPC   C4A25230  43.518  12.977   7.705
 1742POPC   C1B25231  44.190  12.550   8.796
 1742POPC   C2B25232  44.127  12.757   8.382
 1742POPC   C3B25233  44.108  12.588   7.954
 1742POPC   C4B25234  44.009  12.916   7.706
 1743POPC   NC325235  28.818  39.842   9.400
 1743POPC   PO425236  29.543  39.779   9.402
 1743POPC   GL125237  29.280  39.794   9.030
 1743POPC   GL225238  29.052  40.076   9.021
 1743POPC   C1A25239  29.057  39.819   8.606
 1743POPC   D2A25240  29.033  40.148   8.284
 1743POPC   C3A25241  29.024  39.948   7.929
 1743POPC   C4A25242  28.856  39.995   7.552
 1743POPC   C1B25243  29.296  40.267   8.692
 1743POPC   C2B25244  29.472  40.435   8.333
 1743POPC   C3B25245  29.437  40.280   7.941
 1743POPC   C4B25246  29.060  40.424   7.788
 1744POPC   NC325247   6.261  27.855   9.585
 1744POPC   PO425248   5.570  27.666   9.609
 1744POPC   GL125249   5.890  27.638   9.286
 1744POPC   GL225250   5.682  27.859   9.136
 1744POPC   C1A25251   5.916  27.491   8.858
 1744POPC   D2A25252   5.730  27.478   8.432
 1744POPC   C3A25253   5.930  27.750   8.120
 1744POPC   C4A25254   6.235  27.887   7.811
 1744POPC   C1B25255   5.730  27.965   8.703
 1744POPC   C2B25256   5.690  28.213   8.330
 1744POPC   C3B25257   5.812  28.270   7.918
 1744POPC   C4B25258   5.673  27.954   7.715
 1745POPC   NC325259  24.693  26.389   9.467
 1745POPC   PO425260  24.381  25.774   9.466
 1745POPC   GL125261  24.336  25.887   9.081
 1745POPC   GL225262  24.404  26.238   9.073
 1745POPC   C1A25263  24.443  25.930   8.658
 1745POPC   D2A25264  24.484  26.149   8.279
 1745POPC   C3A25265  24.468  25.929   7.885
 1745POPC   C4A25266  24.218  25.824   7.512
 1745POPC   C1B25267  24.767  26.319   8.782
 1745POPC   C2B25268  24.977  26.227   8.377
 1745POPC   C3B25269  24.842  26.321   7.956
 1745POPC   C4B25270  24.415  26.445   7.843
 1746POPC   NC325271   4.822   0.834   9.785
 1746POPC   PO425272   5.471   0.680   9.442
 1746POPC   GL125273   5.163   0.531   9.171
 1746POPC   GL225274   5.057   0.814   8.970
 1746POPC   C1A25275   5.051   0.283   8.802
 1746POPC   D2A25276   5.208   0.039   8.439
 1746POPC   C3A25277   5.069   0.139   8.004
 1746POPC   C4A25278   4.969   0.497   7.716
 1746POPC   C1B25279   5.415   0.637   8.728
 1746POPC   C2B25280   5.617   0.499   8.351
 1746POPC   C3B25281   5.437   0.569   7.948
 1746POPC   C4B25282   5.520   0.770   7.578
 1747POPC   NC325283   1.747  22.027   9.535
 1747POPC   PO425284   2.400  22.163   9.777
 1747POPC   GL125285   2.169  21.875   9.334
 1747POPC   GL225286   1.955  22.100   9.081
 1747POPC   C1A25287   2.259  21.790   8.846
 1747POPC   D2A25288   1.927  21.871   8.527
 1747POPC   C3A25289   1.914  22.011   8.081
 1747POPC   C4A25290   1.916  21.835   7.671
 1747POPC   C1B25291   1.769  22.348   8.723
 1747POPC   C2B25292   1.592  22.508   8.343
 1747POPC   C3B25293   1.791  22.490   7.911
 1747POPC   C4B25294   1.796  22.499   7.406
 1748POPC   NC325295  23.642   1.313   9.413
 1748POPC   PO425296  24.205   1.129   9.807
 1748POPC   GL125297  24.040   0.991   9.337
 1748POPC   GL225298  23.715   0.856   9.205
 1748POPC   C1A25299  23.986   1.123   8.864
 1748POPC   D2A25300  24.033   1.383   8.463
 1748POPC   C3A25301  23.744   1.411   8.104
 1748POPC   C4A25302  23.827   1.365   7.658
 1748POPC   C1B25303  23.535   0.827   8.803
 1748POPC   C2B25304  23.406   0.787   8.354
 1748POPC   C3B25305  23.669   0.913   8.010
 1748POPC   C4B25306  23.684   0.832   7.594
 1749POPC   NC325307  18.034   3.531   9.524
 1749POPC   PO425308  18.713   3.597   9.439
 1749POPC   GL125309  18.336   3.468   9.117
 1749POPC   GL225310  18.017   3.666   9.054
 1749POPC   C1A25311  18.196   3.358   8.680
 1749POPC   D2A25312  18.350   3.250   8.255
 1749POPC   C3A25313  18.325   3.486   7.839
 1749POPC   C4A25314  17.990   3.415   7.481
 1749POPC   C1B25315  18.098   3.882   8.712
 1749POPC   C2B25316  18.143   3.731   8.316
 1749POPC   C3B25317  17.897   3.678   7.977
 1749POPC   C4B25318  18.001   3.874   7.643
 1750POPC   NC325319  12.330   8.295   9.466
 1750POPC   PO425320  11.799   7.940   9.384
 1750POPC   GL125321  12.041   8.070   9.108
 1750POPC   GL225322  11.966   8.355   9.100
 1750POPC   C1A25323  12.138   8.000   8.712
 1750POPC   D2A25324  11.815   7.998   8.432
 1750POPC   C3A25325  11.970   7.994   8.044
 1750POPC   C4A25326  11.855   7.998   7.675
 1750POPC   C1B25327  12.140   8.521   8.766
 1750POPC   C2B25328  12.071   8.408   8.334
 1750POPC   C3B25329  12.197   8.522   7.921
 1750POPC   C4B25330  12.330   8.588   7.488
 1751POPC   NC325331  36.595   1.606   9.416
 1751POPC   PO425332  37.095   2.028   9.429
 1751POPC   GL125333  36.820   2.015   9.097
 1751POPC   GL225334  36.540   1.808   8.961
 1751POPC   C1A25335  37.002   1.881   8.734
 1751POPC   D2A25336  37.329   1.934   8.460
 1751POPC   C3A25337  37.121   2.085   8.106
 1751POPC   C4A25338  37.242   1.978   7.708
 1751POPC   C1B25339  36.550   2.121   8.612
 1751POPC   C2B25340  36.593   2.490   8.353
 1751POPC   C3B25341  36.698   2.499   7.929
 1751POPC   C4B25342  36.743   2.070   7.728
 1752POPC   NC325343  31.309  43.713   9.274
 1752POPC   PO425344  31.513  43.205   9.715
 1752POPC   GL125345  31.489  43.229   9.279
 1752POPC   GL225346  31.315  42.983   9.189
 1752POPC   C1A25347  31.649  43.139   8.863
 1752POPC   D2A25348  31.471  42.986   8.488
 1752POPC   C3A25349  31.677  43.069   8.087
 1752POPC   C4A25350  31.530  42.997   7.674
 1752POPC   C1B25351  31.148  42.766   8.864
 1752POPC   C2B25352  31.045  42.683   8.454
 1752POPC   C3B25353  31.176  42.860   8.059
 1752POPC   C4B25354  31.143  42.662   7.663
 1753POPC   NC325355   1.803  12.096   9.485
 1753POPC   PO425356   2.438  12.221   9.447
 1753POPC   GL125357   2.240  12.184   9.030
 1753POPC   GL225358   1.856  12.176   8.976
 1753POPC   C1A25359   2.148  11.939   8.649
 1753POPC   D2A25360   1.748  12.029   8.393
 1753POPC   C3A25361   1.833  11.922   7.971
 1753POPC   C4A25362   2.099  11.575   7.822
 1753POPC   C1B25363   2.030  12.424   8.592
 1753POPC   C2B25364   2.288  12.250   8.241
 1753POPC   C3B25365   2.272  12.159   7.789
 1753POPC   C4B25366   2.199  12.327   7.357
 1754POPC   NC325367   5.524  25.246   9.537
 1754POPC   PO425368   4.817  25.293   9.549
 1754POPC   GL125369   5.084  25.251   9.200
 1754POPC   GL225370   5.349  25.493   9.138
 1754POPC   C1A25371   5.128  25.145   8.775
 1754POPC   D2A25372   4.925  25.147   8.370
 1754POPC   C3A25373   5.171  25.147   7.966
 1754POPC   C4A25374   4.916  25.379   7.686
 1754POPC   C1B25375   5.275  25.677   8.783
 1754POPC   C2B25376   5.319  25.468   8.412
 1754POPC   C3B25377   5.233  25.647   8.047
 1754POPC   C4B25378   5.377  25.607   7.657
 1755POPC   NC325379  25.907  11.821   9.592
 1755POPC   PO425380  26.173  12.517   9.409
 1755POPC   GL125381  26.022  12.271   9.083
 1755POPC   GL225382  26.177  11.988   9.190
 1755POPC   C1A25383  25.950  12.154   8.619
 1755POPC   D2A25384  25.842  12.134   8.166
 1755POPC   C3A25385  26.147  12.160   7.809
 1755POPC   C4A25386  26.091  12.305   7.361
 1755POPC   C1B25387  26.004  11.723   8.923
 1755POPC   C2B25388  26.007  11.609   8.502
 1755POPC   C3B25389  26.057  11.664   8.064
 1755POPC   C4B25390  26.276  11.671   7.681
 1756POPC   NC325391  43.318  25.052   9.635
 1756POPC   PO425392  42.984  25.379   9.166
 1756POPC   GL125393  43.223  25.299   8.908
 1756POPC   GL225394  43.496  25.213   9.137
 1756POPC   C1A25395  43.145  25.542   8.549
 1756POPC   D2A25396  42.783  25.515   8.302
 1756POPC   C3A25397  43.034  25.247   8.077
 1756POPC   C4A25398  43.168  25.193   7.691
 1756POPC   C1B25399  43.652  25.498   8.770
 1756POPC   C2B25400  43.606  25.686   8.364
 1756POPC   C3B25401  43.477  25.563   7.968
 1756POPC   C4B25402  43.632  25.366   7.625
 1757POPC   NC325403  36.021  31.751   9.355
 1757POPC   PO425404  36.584  32.067   9.553
 1757POPC   GL125405  36.365  32.179   9.177
 1757POPC   GL225406  35.988  32.272   9.176
 1757POPC   C1A25407  36.324  32.295   8.746
 1757POPC   D2A25408  36.280  32.434   8.332
 1757POPC   C3A25409  36.387  32.086   8.070
 1757POPC   C4A25410  36.186  32.030   7.684
 1757POPC   C1B25411  35.867  32.014   8.803
 1757POPC   C2B25412  35.969  32.021   8.396
 1757POPC   C3B25413  35.871  32.243   8.037
 1757POPC   C4B25414  35.664  32.069   7.715
 1758POPC   NC325415  32.289  21.637   9.543
 1758POPC   PO425416  32.781  21.223   9.552
 1758POPC   GL125417  32.419  21.245   9.235
 1758POPC   GL225418  32.205  20.953   9.208
 1758POPC   C1A25419  32.183  21.399   8.851
 1758POPC   D2A25420  32.091  21.527   8.402
 1758POPC   C3A25421  32.257  21.419   8.022
 1758POPC   C4A25422  32.129  21.619   7.661
 1758POPC   C1B25423  32.449  20.954   8.817
 1758POPC   C2B25424  32.369  21.092   8.414
 1758POPC   C3B25425  32.479  20.962   8.010
 1758POPC   C4B25426  32.206  21.047   7.659
 1759POPC   NC325427  33.696  21.872   9.607
 1759POPC   PO425428  33.960  21.234   9.601
 1759POPC   GL125429  33.796  21.357   9.201
 1759POPC   GL225430  33.801  21.702   9.147
 1759POPC   C1A25431  33.953  21.377   8.761
 1759POPC   D2A25432  34.051  21.245   8.331
 1759POPC   C3A25433  33.857  21.452   7.982
 1759POPC   C4A25434  33.921  21.360   7.566
 1759POPC   C1B25435  33.552  21.698   8.786
 1759POPC   C2B25436  33.584  21.494   8.412
 1759POPC   C3B25437  33.304  21.420   8.108
 1759POPC   C4B25438  33.442  21.238   7.728
 1760POPC   NC325439  10.444  32.768   9.453
 1760POPC   PO425440  10.835  33.265   9.461
 1760POPC   GL125441  10.527  33.209   9.128
 1760POPC   GL225442  10.413  32.884   8.971
 1760POPC   C1A25443  10.241  33.329   8.822
 1760POPC   D2A25444  10.057  33.305   8.411
 1760POPC   C3A25445  10.352  33.172   8.080
 1760POPC   C4A25446  10.722  33.385   7.935
 1760POPC   C1B25447  10.439  32.914   8.528
 1760POPC   C2B25448  10.808  32.830   8.264
 1760POPC   C3B25449  10.838  32.885   7.839
 1760POPC   C4B25450  10.444  32.935   7.614
 1761POPC   NC325451  12.301   7.296   9.501
 1761POPC   PO425452  12.923   7.150   9.417
 1761POPC   GL125453  12.899   7.272   9.009
 1761POPC   GL225454  12.600   7.397   9.078
 1761POPC   C1A25455  12.969   7.397   8.583
 1761POPC   D2A25456  13.156   7.744   8.351
 1761POPC   C3A25457  13.425   7.602   8.087
 1761POPC   C4A25458  13.306   7.308   7.790
 1761POPC   C1B25459  12.483   7.518   8.721
 1761POPC   C2B25460  12.541   7.315   8.329
 1761POPC   C3B25461  12.860   7.398   8.043
 1761POPC   C4B25462  12.832   7.331   7.587
 1762POPC   NC325463  14.571  14.848   9.588
 1762POPC   PO425464  14.049  15.280   9.646
 1762POPC   GL125465  14.314  15.218   9.320
 1762POPC   GL225466  14.191  14.914   9.253
 1762POPC   C1A25467  14.301  15.277   8.881
 1762POPC   D2A25468  14.443  15.279   8.469
 1762POPC   C3A25469  14.230  15.188   8.123
 1762POPC   C4A25470  14.341  15.373   7.776
 1762POPC   C1B25471  14.456  14.786   8.912
 1762POPC   C2B25472  14.528  14.778   8.485
 1762POPC   C3B25473  14.453  14.676   8.082
 1762POPC   C4B25474  14.270  14.862   7.716
 1763POPC   NC325475  26.456   9.115   9.542
 1763POPC   PO425476  26.116   8.575   9.578
 1763POPC   GL125477  26.057   8.858   9.207
 1763POPC   GL225478  26.394   8.930   9.048
 1763POPC   C1A25479  25.942   8.740   8.753
 1763POPC   D2A25480  25.871   8.954   8.345
 1763POPC   C3A25481  25.950   8.732   7.966
 1763POPC   C4A25482  26.054   8.627   7.541
 1763POPC   C1B25483  26.309   9.117   8.630
 1763POPC   C2B25484  26.332   9.452   8.301
 1763POPC   C3B25485  26.259   9.448   7.855
 1763POPC   C4B25486  25.935   9.141   7.663
 1764POPC   NC325487   1.598   8.111   9.666
 1764POPC   PO425488   2.189   8.215   9.451
 1764POPC   GL125489   1.902   8.062   9.156
 1764POPC   GL225490   2.163   7.942   8.931
 1764POPC   C1A25491   1.757   8.227   8.746
 1764POPC   D2A25492   1.989   8.269   8.356
 1764POPC   C3A25493   1.850   8.096   7.964
 1764POPC   C4A25494   2.067   7.812   7.711
 1764POPC   C1B25495   2.233   8.409   8.804
 1764POPC   C2B25496   2.359   8.611   8.385
 1764POPC   C3B25497   2.397   8.517   7.938
 1764POPC   C4B25498   2.136   8.371   7.596
 1765POPC   NC325499  23.913   6.257   9.590
 1765POPC   PO425500  23.432   5.857   9.444
 1765POPC   GL125501  23.831   5.892   9.198
 1765POPC   GL225502  24.042   6.177   9.124
 1765POPC   C1A25503  23.934   5.794   8.765
 1765POPC   D2A25504  23.686   5.648   8.402
 1765POPC   C3A25505  23.646   5.894   8.027
 1765POPC   C4A25506  23.864   5.763   7.687
 1765POPC   C1B25507  23.939   6.312   8.751
 1765POPC   C2B25508  23.956   6.123   8.356
 1765POPC   C3B25509  23.996   6.292   7.938
 1765POPC   C4B25510  24.230   6.144   7.551
 1766POPC   NC325511   1.709  30.271   9.394
 1766POPC   PO425512   2.152  29.767   9.492
 1766POPC   GL125513   1.975  29.889   9.130
 1766POPC   GL225514   2.113  30.219   9.064
 1766POPC   C1A25515   2.137  29.791   8.726
 1766POPC   D2A25516   2.212  29.544   8.371
 1766POPC   C3A25517   2.170  29.821   8.008
 1766POPC   C4A25518   1.791  29.816   7.795
 1766POPC   C1B25519   1.785  30.167   8.714
 1766POPC   C2B25520   1.673  30.158   8.256
 1766POPC   C3B25521   1.522  30.237   7.854
 1766POPC   C4B25522   1.534  30.140   7.422
 1767POPC   NC325523  31.052  41.805   9.455
 1767POPC   PO425524  30.362  41.485   9.511
 1767POPC   GL125525  30.652  41.586   9.171
 1767POPC   GL225526  30.385  41.601   8.944
 1767POPC   C1A25527  30.817  41.405   8.776
 1767POPC   D2A25528  30.497  41.247   8.465
 1767POPC   C3A25529  30.691  41.250   8.072
 1767POPC   C4A25530  30.793  41.601   7.821
 1767POPC   C1B25531  30.609  41.875   8.720
 1767POPC   C2B25532  30.675  41.738   8.328
 1767POPC   C3B25533  30.577  42.018   8.043
 1767POPC   C4B25534  30.430  41.993   7.644
 1768POPC   NC325535   2.495  40.162   9.509
 1768POPC   PO425536   3.056  39.822   9.414
 1768POPC   GL125537   2.852  40.071   9.134
 1768POPC   GL225538   2.857  40.418   9.260
 1768POPC   C1A25539   2.721  39.994   8.710
 1768POPC   D2A25540   2.886  39.810   8.320
 1768POPC   C3A25541   2.738  39.940   7.920
 1768POPC   C4A25542   2.462  39.986   7.568
 1768POPC   C1B25543   2.879  40.487   8.841
 1768POPC   C2B25544   2.652  40.456   8.465
 1768POPC   C3B25545   2.839  40.461   8.074
 1768POPC   C4B25546   2.626  40.435   7.711
 1769POPC   NC325547  39.561  23.537   9.687
 1769POPC   PO425548  39.046  23.864   9.578
 1769POPC   GL125549  39.161  23.748   9.159
 1769POPC   GL225550  39.485  23.768   9.176
 1769POPC   C1A25551  39.195  23.591   8.716
 1769POPC   D2A25552  39.032  23.717   8.326
 1769POPC   C3A25553  39.242  23.591   7.950
 1769POPC   C4A25554  39.020  23.403   7.620
 1769POPC   C1B25555  39.618  23.899   8.784
 1769POPC   C2B25556  39.517  23.839   8.372
 1769POPC   C3B25557  39.701  23.802   7.981
 1769POPC   C4B25558  39.533  23.949   7.602
 1770POPC   NC325559   1.600   1.703   9.569
 1770POPC   PO425560   1.898   1.135   9.540
 1770POPC   GL125561   1.919   1.201   9.111
 1770POPC   GL225562   2.084   1.517   9.197
 1770POPC   C1A25563   1.900   1.013   8.696
 1770POPC   D2A25564   1.926   0.797   8.296
 1770POPC   C3A25565   1.845   1.083   7.908
 1770POPC   C4A25566   1.802   1.411   7.547
 1770POPC   C1B25567   2.087   1.500   8.742
 1770POPC   C2B25568   1.868   1.409   8.356
 1770POPC   C3B25569   2.020   1.593   7.977
 1770POPC   C4B25570   2.252   1.629   7.579
 1771POPC   NC325571  35.888  29.139   9.451
 1771POPC   PO425572  36.556  28.889   9.426
 1771POPC   GL125573  36.219  28.888   9.175
 1771POPC   GL225574  36.282  29.213   9.088
 1771POPC   C1A25575  35.952  28.966   8.780
 1771POPC   D2A25576  36.096  29.329   8.547
 1771POPC   C3A25577  36.141  29.287   8.099
 1771POPC   C4A25578  36.135  29.092   7.726
 1771POPC   C1B25579  36.445  28.865   8.754
 1771POPC   C2B25580  36.372  28.921   8.377
 1771POPC   C3B25581  36.375  28.723   8.036
 1771POPC   C4B25582  36.570  28.846   7.696
 1772POPC   NC325583   6.266  28.834   9.761
 1772POPC   PO425584   6.970  28.855   9.792
 1772POPC   GL125585   6.662  28.992   9.370
 1772POPC   GL225586   6.791  29.267   9.079
 1772POPC   C1A25587   6.439  28.954   8.917
 1772POPC   D2A25588   6.672  29.074   8.518
 1772POPC   C3A25589   6.436  29.074   8.108
 1772POPC   C4A25590   6.436  28.875   7.688
 1772POPC   C1B25591   7.091  29.490   8.765
 1772POPC   C2B25592   7.213  29.553   8.289
 1772POPC   C3B25593   7.169  29.382   7.865
 1772POPC   C4B25594   6.867  29.090   7.762
 1773POPC   NC325595  37.505  24.835   9.361
 1773POPC   PO425596  37.588  25.537   9.332
 1773POPC   GL125597  37.714  25.297   8.989
 1773POPC   GL225598  37.450  25.154   8.980
 1773POPC   C1A25599  37.624  25.491   8.593
 1773POPC   D2A25600  37.629  25.654   8.179
 1773POPC   C3A25601  37.655  25.346   7.861
 1773POPC   C4A25602  37.717  25.166   7.470
 1773POPC   C1B25603  37.214  25.153   8.640
 1773POPC   C2B25604  37.353  25.199   8.250
 1773POPC   C3B25605  37.327  24.981   7.894
 1773POPC   C4B25606  37.230  25.146   7.564
 1774POPC   NC325607  10.337  20.213   9.436
 1774POPC   PO425608  10.618  20.897   9.501
 1774POPC   GL125609  10.271  20.809   9.184
 1774POPC   GL225610  10.249  20.480   9.015
 1774POPC   C1A25611  10.436  20.948   8.802
 1774POPC   D2A25612  10.790  20.813   8.578
 1774POPC   C3A25613  10.685  20.745   8.137
 1774POPC   C4A25614  10.389  20.976   7.877
 1774POPC   C1B25615  10.376  20.480   8.600
 1774POPC   C2B25616  10.250  20.391   8.202
 1774POPC   C3B25617  10.369  20.466   7.796
 1774POPC   C4B25618  10.131  20.498   7.436
 1775POPC   NC325619  31.687   1.679   9.536
 1775POPC   PO425620  31.145   1.951   9.278
 1775POPC   GL125621  31.574   2.033   9.157
 1775POPC   GL225622  31.617   2.408   9.155
 1775POPC   C1A25623  31.675   1.752   8.820
 1775POPC   D2A25624  31.373   1.675   8.491
 1775POPC   C3A25625  31.352   1.825   8.064
 1775POPC   C4A25626  31.084   1.598   7.766
 1775POPC   C1B25627  31.440   2.336   8.733
 1775POPC   C2B25628  31.198   2.214   8.387
 1775POPC   C3B25629  31.368   2.363   8.012
 1775POPC   C4B25630  31.742   2.231   7.856
 1776POPC   NC325631  32.497  20.875   9.634
 1776POPC   PO425632  31.966  20.423   9.472
 1776POPC   GL125633  32.386  20.469   9.204
 1776POPC   GL225634  32.173  20.524   8.901
 1776POPC   C1A25635  32.675  20.500   8.818
 1776POPC   D2A25636  32.479  20.598   8.403
 1776POPC   C3A25637  32.435  20.446   7.957
 1776POPC   C4A25638  32.029  20.293   7.780
 1776POPC   C1B25639  31.942  20.930   8.760
 1776POPC   C2B25640  31.870  21.054   8.326
 1776POPC   C3B25641  31.992  20.744   8.010
 1776POPC   C4B25642  31.828  20.706   7.553
 1777POPC   NC325643  29.442   2.696   9.489
 1777POPC   PO425644  28.779   2.657   9.593
 1777POPC   GL125645  28.995   2.838   9.221
 1777POPC   GL225646  29.205   2.575   9.058
 1777POPC   C1A25647  29.075   3.021   8.797
 1777POPC   D2A25648  28.865   2.996   8.394
 1777POPC   C3A25649  29.113   3.027   8.002
 1777POPC   C4A25650  29.175   2.774   7.638
 1777POPC   C1B25651  29.393   2.569   8.641
 1777POPC   C2B25652  29.415   2.308   8.261
 1777POPC   C3B25653  29.481   2.420   7.822
 1777POPC   C4B25654  29.331   2.375   7.318
 1778POPC   NC325655  31.317   6.273   9.428
 1778POPC   PO425656  31.135   5.542   9.480
 1778POPC   GL125657  31.402   5.598   9.097
 1778POPC   GL225658  31.528   5.930   9.104
 1778POPC   C1A25659  31.447   5.640   8.680
 1778POPC   D2A25660  31.418   5.859   8.307
 1778POPC   C3A25661  31.475   5.618   7.958
 1778POPC   C4A25662  31.476   5.765   7.562
 1778POPC   C1B25663  31.570   6.151   8.710
 1778POPC   C2B25664  31.846   6.134   8.321
 1778POPC   C3B25665  31.653   6.129   7.903
 1778POPC   C4B25666  31.481   6.305   7.508
 1779POPC   NC325667  17.443   6.838   9.559
 1779POPC   PO425668  17.663   6.190   9.552
 1779POPC   GL125669  17.638   6.462   9.174
 1779POPC   GL225670  17.865   6.778   9.228
 1779POPC   C1A25671  17.416   6.413   8.745
 1779POPC   D2A25672  17.514   6.334   8.285
 1779POPC   C3A25673  17.388   6.609   7.924
 1779POPC   C4A25674  17.611   6.779   7.563
 1779POPC   C1B25675  17.547   6.897   8.902
 1779POPC   C2B25676  17.300   6.850   8.494
 1779POPC   C3B25677  17.328   7.101   8.146
 1779POPC   C4B25678  17.209   7.096   7.739
 1780POPC   NC325679  41.843  23.519   9.594
 1780POPC   PO425680  41.378  23.957   9.322
 1780POPC   GL125681  41.654  23.692   9.147
 1780POPC   GL225682  41.559  23.381   9.129
 1780POPC   C1A25683  41.799  23.600   8.749
 1780POPC   D2A25684  41.559  23.606   8.377
 1780POPC   C3A25685  41.854  23.648   8.056
 1780POPC   C4A25686  41.923  23.946   7.707
 1780POPC   C1B25687  41.335  23.283   8.742
 1780POPC   C2B25688  41.092  23.345   8.357
 1780POPC   C3B25689  41.191  23.639   8.016
 1780POPC   C4B25690  41.509  23.646   7.686
 1781POPC   NC325691  28.242  11.867   9.568
 1781POPC   PO425692  27.662  12.113   9.496
 1781POPC   GL125693  27.966  12.022   9.106
 1781POPC   GL225694  28.309  12.107   9.075
 1781POPC   C1A25695  28.137  11.792   8.722
 1781POPC   D2A25696  28.388  11.849   8.349
 1781POPC   C3A25697  28.239  11.970   7.951
 1781POPC   C4A25698  27.933  12.284   7.838
 1781POPC   C1B25699  28.620  12.131   8.718
 1781POPC   C2B25700  28.665  12.253   8.257
 1781POPC   C3B25701  28.791  12.092   7.824
 1781POPC   C4B25702  28.810  12.221   7.362
 1782POPC   NC325703   2.007  11.136   9.498
 1782POPC   PO425704   2.573  11.498   9.537
 1782POPC   GL125705   2.243  11.667   9.198
 1782POPC   GL225706   1.912  11.575   9.182
 1782POPC   C1A25707   2.172  11.446   8.759
 1782POPC   D2A25708   2.085  11.148   8.429
 1782POPC   C3A25709   1.848  11.180   8.037
 1782POPC   C4A25710   2.094  11.052   7.702
 1782POPC   C1B25711   1.716  11.673   8.808
 1782POPC   C2B25712   1.614  11.451   8.434
 1782POPC   C3B25713   1.440  11.515   8.019
 1782POPC   C4B25714   1.584  11.631   7.627
 1783POPC   NC325715  39.249   2.834   9.495
 1783POPC   PO425716  39.940   2.775   9.360
 1783POPC   GL125717  39.552   2.672   9.095
 1783POPC   GL225718  39.161   2.532   9.106
 1783POPC   C1A25719  39.533   2.781   8.672
 1783POPC   D2A25720  39.528   2.541   8.293
 1783POPC   C3A25721  39.493   2.645   7.902
 1783POPC   C4A25722  39.623   2.934   7.624
 1783POPC   C1B25723  39.015   2.870   8.857
 1783POPC   C2B25724  39.070   2.798   8.440
 1783POPC   C3B25725  39.005   2.791   8.028
 1783POPC   C4B25726  39.116   2.842   7.597
 1784POPC   NC325727  44.042  24.337   9.624
 1784POPC   PO425728  43.386  24.575   9.554
 1784POPC   GL125729  43.615  24.482   9.167
 1784POPC   GL225730  43.961  24.359   9.133
 1784POPC   C1A25731  43.690  24.467   8.713
 1784POPC   D2A25732  43.624  24.654   8.330
 1784POPC   C3A25733  43.781  24.451   7.998
 1784POPC   C4A25734  43.513  24.296   7.678
 1784POPC   C1B25735  44.191  24.299   8.746
 1784POPC   C2B25736  44.192  24.268   8.296
 1784POPC   C3B25737  44.164  24.088   7.894
 1784POPC   C4B25738  43.993  24.329   7.534
 1785POPC   NC325739  44.868  19.692   9.365
 1785POPC   PO425740  44.606  19.081   9.555
 1785POPC   GL125741  44.618  19.085   9.126
 1785POPC   GL225742  44.894  19.224   9.151
 1785POPC   C1A25743  44.582  18.960   8.717
 1785POPC   D2A25744  44.546  19.148   8.311
 1785POPC   C3A25745  44.444  18.937   7.955
 1785POPC   C4A25746  44.517  18.710   7.605
 1785POPC   C1B25747   0.014  19.321   8.771
 1785POPC   C2B25748   0.019  19.069   8.465
 1785POPC   C3B25749   0.014  19.062   8.071
 1785POPC   C4B25750  44.785  19.303   7.827
 1786POPC   NC325751  39.449  16.991   9.425
 1786POPC   PO425752  38.920  16.547   9.568
 1786POPC   GL125753  39.039  16.412   9.141
 1786POPC   GL225754  39.399  16.447   9.005
 1786POPC   C1A25755  39.016  16.618   8.744
 1786POPC   D2A25756  39.310  16.541   8.402
 1786POPC   C3A25757  39.090  16.529   8.032
 1786POPC   C4A25758  38.969  16.883   7.846
 1786POPC   C1B25759  39.601  16.803   8.741
 1786POPC   C2B25760  39.577  17.059   8.351
 1786POPC   C3B25761  39.518  16.845   7.948
 1786POPC   C4B25762  39.544  16.388   7.836
 1787POPC   NC325763  13.096  19.410   9.414
 1787POPC   PO425764  12.993  18.727   9.422
 1787POPC   GL125765  12.835  18.823   9.047
 1787POPC   GL225766  12.861  19.149   9.042
 1787POPC   C1A25767  13.083  18.904   8.634
 1787POPC   D2A25768  12.934  18.727   8.258
 1787POPC   C3A25769  12.863  19.014   7.940
 1787POPC   C4A25770  12.509  19.200   7.820
 1787POPC   C1B25771  12.642  19.150   8.656
 1787POPC   C2B25772  12.751  19.387   8.294
 1787POPC   C3B25773  12.717  19.636   7.941
 1787POPC   C4B25774  12.929  19.395   7.581
 1788POPC   NC325775   2.883  20.789   9.534
 1788POPC   PO425776   2.239  20.603   9.586
 1788POPC   GL125777   2.490  20.660   9.168
 1788POPC   GL225778   2.584  20.965   9.116
 1788POPC   C1A25779   2.890  20.647   8.871
 1788POPC   D2A25780   3.018  20.602   8.432
 1788POPC   C3A25781   2.783  20.325   8.170
 1788POPC   C4A25782   2.979  20.300   7.793
 1788POPC   C1B25783   2.442  20.783   8.673
 1788POPC   C2B25784   2.446  20.709   8.205
 1788POPC   C3B25785   2.622  20.746   7.769
 1788POPC   C4B25786   2.528  20.914   7.331
 1789POPC   NC325787  20.150  23.983   9.409
 1789POPC   PO425788  19.819  23.403   9.316
 1789POPC   GL125789  19.889  23.738   9.041
 1789POPC   GL225790  20.252  23.710   8.989
 1789POPC   C1A25791  19.704  23.912   8.676
 1789POPC   D2A25792  19.736  23.661   8.276
 1789POPC   C3A25793  19.547  23.879   7.938
 1789POPC   C4A25794  19.365  23.658   7.580
 1789POPC   C1B25795  20.166  23.735   8.551
 1789POPC   C2B25796  20.127  23.970   8.132
 1789POPC   C3B25797  19.989  23.887   7.697
 1789POPC   C4B25798  20.161  24.005   7.312
 1790POPC   NC325799  40.529  11.560   9.651
 1790POPC   PO425800  40.950  11.115   9.544
 1790POPC   GL125801  40.713  11.340   9.211
 1790POPC   GL225802  40.601  11.736   9.183
 1790POPC   C1A25803  40.675  11.423   8.777
 1790POPC   D2A25804  40.894  11.494   8.392
 1790POPC   C3A25805  40.861  11.149   8.132
 1790POPC   C4A25806  40.751  11.098   7.690
 1790POPC   C1B25807  40.467  11.896   8.756
 1790POPC   C2B25808  40.377  11.652   8.356
 1790POPC   C3B25809  40.482  11.467   7.943
 1790POPC   C4B25810  40.642  11.578   7.488
 1791POPC   NC325811  40.513  37.215   9.586
 1791POPC   PO425812  41.018  36.876   9.681
 1791POPC   GL125813  40.936  37.065   9.290
 1791POPC   GL225814  40.811  36.742   9.199
 1791POPC   C1A25815  40.725  37.174   8.880
 1791POPC   D2A25816  40.528  37.096   8.455
 1791POPC   C3A25817  40.628  36.799   8.114
 1791POPC   C4A25818  40.563  36.942   7.699
 1791POPC   C1B25819  41.093  36.837   8.862
 1791POPC   C2B25820  41.032  36.710   8.466
 1791POPC   C3B25821  41.153  36.831   8.078
 1791POPC   C4B25822  40.980  36.668   7.694
 1792POPC   NC325823  38.003  20.830   9.940
 1792POPC   PO425824  38.527  20.566   9.553
 1792POPC   GL125825  38.523  20.454   9.128
 1792POPC   GL225826  38.188  20.486   9.055
 1792POPC   C1A25827  38.614  20.717   8.771
 1792POPC   D2A25828  38.616  20.982   8.416
 1792POPC   C3A25829  38.624  20.797   8.003
 1792POPC   C4A25830  38.941  20.774   7.714
 1792POPC   C1B25831  38.121  20.794   8.720
 1792POPC   C2B25832  38.189  20.776   8.284
 1792POPC   C3B25833  38.010  20.739   7.904
 1792POPC   C4B25834  38.056  20.430   7.601
 1793POPC   NC325835  37.079   2.469   9.275
 1793POPC   PO425836  37.523   2.888   9.706
 1793POPC   GL125837  37.534   2.670   9.241
 1793POPC   GL225838  37.840   2.517   9.201
 1793POPC   C1A25839  37.356   2.756   8.779
 1793POPC   D2A25840  37.562   2.778   8.429
 1793POPC   C3A25841  37.442   3.015   8.104
 1793POPC   C4A25842  37.517   2.845   7.722
 1793POPC   C1B25843  37.912   2.781   8.814
 1793POPC   C2B25844  38.048   2.927   8.403
 1793POPC   C3B25845  37.904   2.707   8.042
 1793POPC   C4B25846  38.070   2.601   7.661
 1794POPC   NC325847  12.725  11.904   9.455
 1794POPC   PO425848  13.287  12.296   9.342
 1794POPC   GL125849  12.990  12.114   9.076
 1794POPC   GL225850  12.976  11.746   9.050
 1794POPC   C1A25851  12.745  12.222   8.728
 1794POPC   D2A25852  12.574  12.137   8.312
 1794POPC   C3A25853  12.782  12.280   7.953
 1794POPC   C4A25854  12.847  12.213   7.530
 1794POPC   C1B25855  12.649  11.725   8.680
 1794POPC   C2B25856  12.641  11.639   8.226
 1794POPC   C3B25857  12.851  11.774   7.829
 1794POPC   C4B25858  12.617  11.775   7.413
 1795POPC   NC325859  15.664  32.558   9.768
 1795POPC   PO425860  15.653  33.090   9.482
 1795POPC   GL125861  15.861  33.014   9.104
 1795POPC   GL225862  16.109  32.782   9.154
 1795POPC   C1A25863  15.936  32.880   8.675
 1795POPC   D2A25864  16.040  33.007   8.254
 1795POPC   C3A25865  15.830  32.909   7.876
 1795POPC   C4A25866  15.776  32.990   7.449
 1795POPC   C1B25867  16.411  32.803   8.821
 1795POPC   C2B25868  16.310  32.606   8.419
 1795POPC   C3B25869  16.246  32.608   7.989
 1795POPC   C4B25870  16.197  32.702   7.567
 1796POPC   NC325871   5.518  26.246   9.520
 1796POPC   PO425872   4.783  26.239   9.544
 1796POPC   GL125873   5.065  26.042   9.215
 1796POPC   GL225874   4.885  25.720   9.142
 1796POPC   C1A25875   5.315  26.200   8.858
 1796POPC   D2A25876   5.223  26.440   8.480
 1796POPC   C3A25877   5.042  26.154   8.149
 1796POPC   C4A25878   5.236  26.258   7.768
 1796POPC   C1B25879   4.789  25.529   8.762
 1796POPC   C2B25880   4.832  25.686   8.384
 1796POPC   C3B25881   4.678  25.744   7.992
 1796POPC   C4B25882   4.943  25.874   7.704
 1797POPC   NC325883  38.042  25.456   9.337
 1797POPC   PO425884  38.702  25.278   9.442
 1797POPC   GL125885  38.530  25.461   9.116
 1797POPC   GL225886  38.319  25.171   9.011
 1797POPC   C1A25887  38.675  25.360   8.727
 1797POPC   D2A25888  38.518  25.079   8.421
 1797POPC   C3A25889  38.535  25.222   8.019
 1797POPC   C4A25890  38.814  25.263   7.729
 1797POPC   C1B25891  38.109  25.281   8.652
 1797POPC   C2B25892  38.055  25.316   8.209
 1797POPC   C3B25893  38.096  25.108   7.792
 1797POPC   C4B25894  38.180  25.067   7.313
 1798POPC   NC325895  22.174  25.891   9.562
 1798POPC   PO425896  21.859  26.406   9.351
 1798POPC   GL125897  22.117  26.154   9.104
 1798POPC   GL225898  22.420  26.225   8.969
 1798POPC   C1A25899  22.113  25.737   8.893
 1798POPC   D2A25900  22.186  25.510   8.485
 1798POPC   C3A25901  22.224  25.760   8.106
 1798POPC   C4A25902  21.941  26.021   7.880
 1798POPC   C1B25903  22.230  26.386   8.567
 1798POPC   C2B25904  22.281  26.315   8.124
 1798POPC   C3B25905  22.430  26.096   7.745
 1798POPC   C4B25906  22.536  25.887   7.332
 1799POPC   NC325907   8.768  14.198  10.010
 1799POPC   PO425908   9.158  14.567   9.559
 1799POPC   GL125909   9.075  14.768   9.117
 1799POPC   GL225910   8.839  14.576   9.094
 1799POPC   C1A25911   9.119  14.694   8.669
 1799POPC   D2A25912   9.090  14.711   8.225
 1799POPC   C3A25913   9.003  14.326   8.105
 1799POPC   C4A25914   9.002  14.278   7.689
 1799POPC   C1B25915   8.810  14.260   8.786
 1799POPC   C2B25916   8.507  14.187   8.450
 1799POPC   C3B25917   8.511  14.316   8.010
 1799POPC   C4B25918   8.529  14.106   7.622
 1800POPC   NC325919  29.360  38.348   9.503
 1800POPC   PO425920  28.759  38.679   9.650
 1800POPC   GL125921  28.916  38.587   9.254
 1800POPC   GL225922  28.652  38.425   9.177
 1800POPC   C1A25923  29.204  38.443   8.902
 1800POPC   D2A25924  29.467  38.685   8.618
 1800POPC   C3A25925  29.404  38.604   8.171
 1800POPC   C4A25926  29.307  38.441   7.767
 1800POPC   C1B25927  28.743  38.268   8.795
 1800POPC   C2B25928  28.957  38.452   8.454
 1800POPC   C3B25929  28.881  38.538   8.051
 1800POPC   C4B25930  28.830  38.238   7.709
 1801POPC   NC325931  15.618   5.010   9.579
 1801POPC   PO425932  16.086   5.470   9.633
 1801POPC   GL125933  15.818   5.377   9.216
 1801POPC   GL225934  15.645   5.048   9.078
 1801POPC   C1A25935  15.941   5.351   8.774
 1801POPC   D2A25936  15.811   5.146   8.395
 1801POPC   C3A25937  16.091   5.243   8.050
 1801POPC   C4A25938  16.036   5.230   7.637
 1801POPC   C1B25939  15.942   4.833   8.813
 1801POPC   C2B25940  15.926   4.628   8.421
 1801POPC   C3B25941  16.089   4.691   8.040
 1801POPC   C4B25942  16.354   4.860   7.737
 1802POPC   NC325943  21.429  10.664   9.535
 1802POPC   PO425944  21.981  10.376   9.494
 1802POPC   GL125945  21.657  10.544   9.102
 1802POPC   GL225946  21.243  10.545   9.084
 1802POPC   C1A25947  21.544  10.866   8.765
 1802POPC   D2A25948  21.325  10.985   8.363
 1802POPC   C3A25949  21.543  10.732   8.075
 1802POPC   C4A25950  21.553  10.449   7.770
 1802POPC   C1B25951  21.376  10.147   8.882
 1802POPC   C2B25952  21.301  10.058   8.447
 1802POPC   C3B25953  21.160  10.304   8.094
 1802POPC   C4B25954  21.075  10.333   7.656
 1803POPC   NC325955  11.646  40.599   9.500
 1803POPC   PO425956  11.803  41.248   9.268
 1803POPC   GL125957  12.047  40.992   9.026
 1803POPC   GL225958  12.088  40.678   9.184
 1803POPC   C1A25959  11.972  40.789   8.660
 1803POPC   D2A25960  12.245  40.813   8.318
 1803POPC   C3A25961  12.066  40.754   7.907
 1803POPC   C4A25962  12.294  40.816   7.507
 1803POPC   C1B25963  12.290  40.451   8.853
 1803POPC   C2B25964  12.114  40.319   8.466
 1803POPC   C3B25965  12.166  40.199   8.049
 1803POPC   C4B25966  12.133  40.282   7.608
 1804POPC   NC325967  24.943  38.952   9.398
 1804POPC   PO425968  25.236  38.296   9.464
 1804POPC   GL125969  25.285  38.631   9.188
 1804POPC   GL225970  25.655  38.767   9.161
 1804POPC   C1A25971  25.032  38.543   8.818
 1804POPC   D2A25972  24.803  38.458   8.449
 1804POPC   C3A25973  24.958  38.376   8.035
 1804POPC   C4A25974  25.107  38.512   7.642
 1804POPC   C1B25975  25.553  38.469   8.803
 1804POPC   C2B25976  25.330  38.451   8.388
 1804POPC   C3B25977  25.505  38.473   7.957
 1804POPC   C4B25978  25.598  38.290   7.508
 1805POPC   NC325979  41.264  37.298   9.618
 1805POPC   PO425980  41.846  37.258   9.326
 1805POPC   GL125981  41.469  37.069   9.136
 1805POPC   GL225982  41.348  36.715   9.282
 1805POPC   C1A25983  41.507  37.044   8.670
 1805POPC   D2A25984  41.797  37.036   8.339
 1805POPC   C3A25985  41.687  37.174   7.944
 1805POPC   C4A25986  41.845  37.106   7.496
 1805POPC   C1B25987  41.538  36.551   8.874
 1805POPC   C2B25988  41.532  36.588   8.405
 1805POPC   C3B25989  41.645  36.673   7.972
 1805POPC   C4B25990  41.436  36.852   7.657
 1806POPC   NC325991  14.443  26.997   9.603
 1806POPC   PO425992  13.954  26.920   9.210
 1806POPC   GL125993  14.400  26.791   9.119
 1806POPC   GL225994  14.595  27.097   9.138
 1806POPC   C1A25995  14.625  26.529   8.808
 1806POPC   D2A25996  14.598  26.290   8.414
 1806POPC   C3A25997  14.236  26.467   8.225
 1806POPC   C4A25998  14.134  26.545   7.822
 1806POPC   C1B25999  14.480  27.141   8.737
 1806POPC   C2B26000  14.652  27.050   8.352
 1806POPC   C3B26001  14.595  26.771   8.006
 1806POPC   C4B26002  14.380  26.962   7.673
 1807POPC   NC326003   0.902   1.873   9.404
 1807POPC   PO426004   1.491   2.188   9.510
 1807POPC   GL126005   1.162   2.274   9.199
 1807POPC   GL226006   1.389   2.566   9.118
 1807POPC   C1A26007   0.958   2.037   8.791
 1807POPC   D2A26008   0.887   1.775   8.363
 1807POPC   C3A26009   1.182   1.859   7.983
 1807POPC   C4A26010   1.108   1.977   7.517
 1807POPC   C1B26011   1.466   2.216   8.820
 1807POPC   C2B26012   1.323   2.078   8.435
 1807POPC   C3B26013   1.277   2.353   8.082
 1807POPC   C4B26014   1.366   2.388   7.655
 1808POPC   NC326015  35.138  24.236   9.467
 1808POPC   PO426016  35.679  24.668   9.545
 1808POPC   GL126017  35.623  24.526   9.128
 1808POPC   GL226018  35.466  24.225   9.055
 1808POPC   C1A26019  35.431  24.578   8.692
 1808POPC   D2A26020  35.275  24.473   8.275
 1808POPC   C3A26021  35.625  24.500   7.964
 1808POPC   C4A26022  35.641  24.441   7.510
 1808POPC   C1B26023  35.119  24.172   8.715
 1808POPC   C2B26024  35.127  23.933   8.327
 1808POPC   C3B26025  35.253  24.042   7.911
 1808POPC   C4B26026  35.182  24.455   7.739
 1809POPC   NC326027  41.332   7.898   9.600
 1809POPC   PO426028  41.488   8.543   9.604
 1809POPC   GL126029  41.476   8.285   9.237
 1809POPC   GL226030  41.744   8.023   9.297
 1809POPC   C1A26031  41.365   8.106   8.831
 1809POPC   D2A26032  41.366   7.897   8.444
 1809POPC   C3A26033  41.475   8.116   8.063
 1809POPC   C4A26034  41.328   8.103   7.639
 1809POPC   C1B26035  41.870   8.156   8.895
 1809POPC   C2B26036  41.812   8.233   8.455
 1809POPC   C3B26037  41.905   8.480   8.090
 1809POPC   C4B26038  41.693   8.459   7.714
 1810POPC   NC326039  28.179   9.163   9.689
 1810POPC   PO426040  28.625   8.726   9.304
 1810POPC   GL126041  28.466   8.915   8.986
 1810POPC   GL226042  28.335   9.184   9.139
 1810POPC   C1A26043  28.325   8.853   8.589
 1810POPC   D2A26044  28.087   8.661   8.308
 1810POPC   C3A26045  28.290   8.809   7.968
 1810POPC   C4A26046  28.496   8.629   7.632
 1810POPC   C1B26047  28.370   9.357   8.711
 1810POPC   C2B26048  28.111   9.290   8.333
 1810POPC   C3B26049  28.253   9.364   7.919
 1810POPC   C4B26050  28.598   9.133   7.709
 1811POPC   NC326051  10.144  27.671   9.562
 1811POPC   PO426052  10.835  27.473   9.480
 1811POPC   GL126053  10.673  27.663   9.127
 1811POPC   GL226054  10.342  27.585   9.082
 1811POPC   C1A26055  10.710  27.513   8.714
 1811POPC   D2A26056  10.441  27.626   8.406
 1811POPC   C3A26057  10.578  27.579   8.029
 1811POPC   C4A26058  10.460  27.874   7.727
 1811POPC   C1B26059  10.221  27.291   8.723
 1811POPC   C2B26060  10.123  27.262   8.255
 1811POPC   C3B26061  10.130  27.436   7.845
 1811POPC   C4B26062  10.130  27.616   7.404
 1812POPC   NC326063  14.018  44.452   9.575
 1812POPC   PO426064  13.476  44.810   9.489
 1812POPC   GL126065  13.658  44.561   9.135
 1812POPC   GL226066  13.987  44.674   9.111
 1812POPC   C1A26067  13.623  44.592   8.659
 1812POPC   D2A26068  13.860  44.741   8.291
 1812POPC   C3A26069  13.632  44.860   7.908
 1812POPC   C4A26070  13.460  44.629   7.584
 1812POPC   C1B26071  14.084  44.435   8.768
 1812POPC   C2B26072  14.349  44.374   8.486
 1812POPC   C3B26073  14.170  44.354   8.109
 1812POPC   C4B26074  13.961  44.481   7.741
 1813POPC   NC326075  36.207  12.743   9.757
 1813POPC   PO426076  35.709  12.514   9.462
 1813POPC   GL126077  36.015  12.816   9.211
 1813POPC   GL226078  36.306  12.681   9.024
 1813POPC   C1A26079  36.125  13.066   8.804
 1813POPC   D2A26080  36.252  13.162   8.378
 1813POPC   C3A26081  36.161  13.007   7.952
 1813POPC   C4A26082  35.887  13.194   7.672
 1813POPC   C1B26083  36.073  12.561   8.698
 1813POPC   C2B26084  36.014  12.301   8.383
 1813POPC   C3B26085  36.070  12.470   7.951
 1813POPC   C4B26086  36.197  12.656   7.543
 1814POPC   NC326087   9.756  19.427   9.487
 1814POPC   PO426088   9.624  18.744   9.417
 1814POPC   GL126089   9.762  19.053   9.141
 1814POPC   GL226090  10.024  18.923   9.056
 1814POPC   C1A26091   9.611  19.157   8.723
 1814POPC   D2A26092   9.391  18.842   8.424
 1814POPC   C3A26093   9.451  18.908   7.970
 1814POPC   C4A26094   9.424  19.191   7.618
 1814POPC   C1B26095   9.915  18.764   8.660
 1814POPC   C2B26096   9.874  18.927   8.258
 1814POPC   C3B26097   9.895  19.149   7.864
 1814POPC   C4B26098   9.896  19.343   7.457
 1815POPC   NC326099  28.190  28.154   9.528
 1815POPC   PO426100  28.155  28.787   9.378
 1815POPC   GL126101  28.435  28.415   9.150
 1815POPC   GL226102  28.450  28.020   9.101
 1815POPC   C1A26103  28.582  28.458   8.716
 1815POPC   D2A26104  28.517  28.727   8.330
 1815POPC   C3A26105  28.405  28.485   7.963
 1815POPC   C4A26106  28.060  28.521   7.662
 1815POPC   C1B26107  28.139  28.181   8.787
 1815POPC   C2B26108  28.052  28.259   8.342
 1815POPC   C3B26109  28.063  28.093   7.927
 1815POPC   C4B26110  28.475  28.042   7.701
 1816POPC   NC326111  11.048  15.134   9.760
 1816POPC   PO426112  11.560  15.436   9.459
 1816POPC   GL126113  11.405  15.193   9.152
 1816POPC   GL226114  11.104  15.051   9.240
 1816POPC   C1A26115  11.488  15.346   8.727
 1816POPC   D2A26116  11.408  15.209   8.321
 1816POPC   C3A26117  11.139  15.412   8.039
 1816POPC   C4A26118  11.361  15.301   7.686
 1816POPC   C1B26119  11.005  15.237   8.834
 1816POPC   C2B26120  10.898  15.150   8.427
 1816POPC   C3B26121  11.054  14.908   8.076
 1816POPC   C4B26122  10.935  14.974   7.679
 1817POPC   NC326123  35.414   0.105   9.450
 1817POPC   PO426124  35.741   0.706   9.495
 1817POPC   GL126125  35.684   0.423   9.148
 1817POPC   GL226126  35.389   0.562   9.049
 1817POPC   C1A26127  35.565   0.129   8.799
 1817POPC   D2A26128  35.380   0.284   8.405
 1817POPC   C3A26129  35.406   0.146   7.998
 1817POPC   C4A26130  35.521   0.441   7.668
 1817POPC   C1B26131  35.066   0.499   8.742
 1817POPC   C2B26132  35.008   0.696   8.357
 1817POPC   C3B26133  35.098   0.554   7.963
 1817POPC   C4B26134  35.099   0.792   7.596
 1818POPC   NC326135  14.524  25.741   9.423
 1818POPC   PO426136  14.010  26.217   9.479
 1818POPC   GL126137  14.302  26.272   9.140
 1818POPC   GL226138  14.627  26.085   9.068
 1818POPC   C1A26139  14.167  26.316   8.722
 1818POPC   D2A26140  14.150  25.989   8.427
 1818POPC   C3A26141  14.255  25.999   7.996
 1818POPC   C4A26142  14.077  25.643   7.772
 1818POPC   C1B26143  14.603  25.847   8.690
 1818POPC   C2B26144  14.775  25.664   8.310
 1818POPC   C3B26145  14.733  25.835   7.913
 1818POPC   C4B26146  14.658  26.278   7.805
 1819POPC   NC326147  24.482   8.138   9.327
 1819POPC   PO426148  23.832   8.163   9.368
 1819POPC   GL126149  24.067   8.129   9.008
 1819POPC   GL226150  24.146   8.426   9.007
 1819POPC   C1A26151  24.420   8.112   8.695
 1819POPC   D2A26152  24.538   7.836   8.375
 1819POPC   C3A26153  24.620   8.029   7.989
 1819POPC   C4A26154  24.874   7.945   7.624
 1819POPC   C1B26155  24.148   8.571   8.594
 1819POPC   C2B26156  24.199   8.528   8.149
 1819POPC   C3B26157  24.140   8.574   7.701
 1819POPC   C4B26158  24.148   8.501   7.253
 1820POPC   NC326159   9.503   9.648   9.607
 1820POPC   PO426160  10.099   9.930   9.720
 1820POPC   GL126161   9.954   9.750   9.289
 1820POPC   GL226162   9.830   9.377   9.218
 1820POPC   C1A26163   9.739   9.750   8.859
 1820POPC   D2A26164   9.827   9.546   8.432
 1820POPC   C3A26165   9.917   9.740   8.017
 1820POPC   C4A26166  10.103  10.033   7.725
 1820POPC   C1B26167  10.126   9.425   8.832
 1820POPC   C2B26168  10.268   9.247   8.446
 1820POPC   C3B26169  10.135   9.218   8.019
 1820POPC   C4B26170   9.947   9.354   7.644
 1821POPC   NC326171  40.196  37.572   9.917
 1821POPC   PO426172  40.205  37.266   9.249
 1821POPC   GL126173  39.891  37.517   9.064
 1821POPC   GL226174  39.861  37.821   9.195
 1821POPC   C1A26175  39.958  37.541   8.621
 1821POPC   D2A26176  39.863  37.476   8.183
 1821POPC   C3A26177  40.066  37.722   7.910
 1821POPC   C4A26178  40.072  37.628   7.480
 1821POPC   C1B26179  39.991  38.029   8.782
 1821POPC   C2B26180  39.840  37.979   8.377
 1821POPC   C3B26181  39.615  37.913   8.021
 1821POPC   C4B26182  39.784  38.153   7.733
 1822POPC   NC326183  31.537  17.041   9.594
 1822POPC   PO426184  31.903  16.630   9.349
 1822POPC   GL126185  31.725  17.007   9.116
 1822POPC   GL226186  31.336  17.043   9.131
 1822POPC   C1A26187  31.624  16.967   8.675
 1822POPC   D2A26188  31.568  16.648   8.407
 1822POPC   C3A26189  31.534  16.809   8.013
 1822POPC   C4A26190  31.489  16.592   7.609
 1822POPC   C1B26191  31.069  17.132   8.770
 1822POPC   C2B26192  31.106  16.939   8.363
 1822POPC   C3B26193  31.072  16.978   7.936
 1822POPC   C4B26194  30.954  17.260   7.654
 1823POPC   NC326195   6.968  14.282   9.289
 1823POPC   PO426196   6.387  14.581   9.456
 1823POPC   GL126197   6.563  14.532   9.107
 1823POPC   GL226198   6.473  14.166   9.138
 1823POPC   C1A26199   6.706  14.644   8.699
 1823POPC   D2A26200   6.682  14.445   8.318
 1823POPC   C3A26201   6.658  14.643   7.932
 1823POPC   C4A26202   6.738  14.388   7.582
 1823POPC   C1B26203   6.357  14.274   8.726
 1823POPC   C2B26204   6.236  14.203   8.349
 1823POPC   C3B26205   6.438  14.160   7.950
 1823POPC   C4B26206   6.324  14.060   7.527
 1824POPC   NC326207  20.527  37.260   9.457
 1824POPC   PO426208  20.705  36.660   9.437
 1824POPC   GL126209  20.615  36.727   9.022
 1824POPC   GL226210  20.328  36.914   9.103
 1824POPC   C1A26211  20.772  36.637   8.585
 1824POPC   D2A26212  20.963  36.626   8.148
 1824POPC   C3A26213  20.874  36.900   7.781
 1824POPC   C4A26214  20.719  36.790   7.404
 1824POPC   C1B26215  20.370  36.978   8.652
 1824POPC   C2B26216  20.187  36.817   8.272
 1824POPC   C3B26217  20.319  36.953   7.847
 1824POPC   C4B26218  20.463  37.221   7.478
 1825POPC   NC326219  33.260  31.927   9.445
 1825POPC   PO426220  32.804  31.365   9.371
 1825POPC   GL126221  33.064  31.479   9.082
 1825POPC   GL226222  33.128  31.122   9.070
 1825POPC   C1A26223  33.038  31.649   8.673
 1825POPC   D2A26224  32.976  31.817   8.280
 1825POPC   C3A26225  33.019  31.604   7.903
 1825POPC   C4A26226  33.139  31.777   7.532
 1825POPC   C1B26227  32.969  31.138   8.695
 1825POPC   C2B26228  33.087  31.279   8.292
 1825POPC   C3B26229  32.967  31.094   7.887
 1825POPC   C4B26230  32.842  30.935   7.476
 1826POPC   NC326231  17.705   0.209   9.503
 1826POPC   PO426232  17.504   0.846   9.512
 1826POPC   GL126233  17.497   0.617   9.132
 1826POPC   GL226234  17.403   0.244   9.079
 1826POPC   C1A26235  17.316   0.717   8.720
 1826POPC   D2A26236  17.284   0.421   8.363
 1826POPC   C3A26237  17.473   0.498   7.977
 1826POPC   C4A26238  17.411   0.231   7.616
 1826POPC   C1B26239  17.665   0.354   8.700
 1826POPC   C2B26240  17.713   0.127   8.327
 1826POPC   C3B26241  17.781   0.079   7.920
 1826POPC   C4B26242  17.828  44.944   7.500
 1827POPC   NC326243  25.338  41.848   9.482
 1827POPC   PO426244  25.522  41.289   9.546
 1827POPC   GL126245  25.505  41.478   9.150
 1827POPC   GL226246  25.134  41.506   9.154
 1827POPC   C1A26247  25.407  41.684   8.766
 1827POPC   D2A26248  25.165  41.511   8.463
 1827POPC   C3A26249  25.233  41.659   8.079
 1827POPC   C4A26250  25.454  41.353   7.879
 1827POPC   C1B26251  24.964  41.204   8.861
 1827POPC   C2B26252  25.046  41.007   8.481
 1827POPC   C3B26253  24.990  41.216   8.062
 1827POPC   C4B26254  24.820  41.606   7.782
 1828POPC   NC326255  23.791  37.038   9.515
 1828POPC   PO426256  23.330  36.444   9.568
 1828POPC   GL126257  23.536  36.536   9.191
 1828POPC   GL226258  23.875  36.652   9.222
 1828POPC   C1A26259  23.499  36.754   8.789
 1828POPC   D2A26260  23.278  36.637   8.416
 1828POPC   C3A26261  23.444  36.731   8.002
 1828POPC   C4A26262  23.467  36.989   7.635
 1828POPC   C1B26263  23.980  36.913   8.863
 1828POPC   C2B26264  23.853  37.046   8.454
 1828POPC   C3B26265  23.775  37.112   8.028
 1828POPC   C4B26266  23.943  36.815   7.729
 1829POPC   NC326267   3.123  38.654   9.556
 1829POPC   PO426268   3.820  38.432   9.524
 1829POPC   GL126269   3.537  38.560   9.231
 1829POPC   GL226270   3.238  38.375   9.122
 1829POPC   C1A26271   3.607  38.552   8.803
 1829POPC   D2A26272   3.510  38.299   8.466
 1829POPC   C3A26273   3.679  38.387   8.081
 1829POPC   C4A26274   3.399  38.526   7.798
 1829POPC   C1B26275   3.274  38.011   8.859
 1829POPC   C2B26276   3.383  37.802   8.487
 1829POPC   C3B26277   3.350  37.990   8.081
 1829POPC   C4B26278   3.202  38.079   7.679
 1830POPC   NC326279   0.019  43.305   9.301
 1830POPC   PO426280  44.613  42.916   9.604
 1830POPC   GL126281  44.564  43.168   9.160
 1830POPC   GL226282  44.414  43.450   9.139
 1830POPC   C1A26283  44.791  43.453   8.761
 1830POPC   D2A26284  44.927  43.576   8.352
 1830POPC   C3A26285   0.029  43.270   8.044
 1830POPC   C4A26286  44.832  43.251   7.651
 1830POPC   C1B26287  44.321  43.329   8.729
 1830POPC   C2B26288  44.421  43.504   8.365
 1830POPC   C3B26289  44.522  43.555   7.960
 1830POPC   C4B26290  44.274  43.291   7.721
 1831POPC   NC326291  15.563  44.245   9.490
 1831POPC   PO426292  15.203  44.843   9.384
 1831POPC   GL126293  15.208  44.471   9.116
 1831POPC   GL226294  15.518  44.378   9.004
 1831POPC   C1A26295  15.074  44.349   8.700
 1831POPC   D2A26296  15.342  44.225   8.350
 1831POPC   C3A26297  15.191  44.378   7.923
 1831POPC   C4A26298  14.982  44.778   7.815
 1831POPC   C1B26299  15.436  44.718   8.718
 1831POPC   C2B26300  15.287  44.746   8.293
 1831POPC   C3B26301  15.456  44.953   7.954
 1831POPC   C4B26302  15.407  44.990   7.532
 1832POPC   NC326303   2.286   0.282   9.509
 1832POPC   PO426304   1.811   0.660   9.259
 1832POPC   GL126305   2.137   0.481   9.057
 1832POPC   GL226306   1.948   0.187   9.078
 1832POPC   C1A26307   2.280   0.539   8.637
 1832POPC   D2A26308   2.298   0.366   8.205
 1832POPC   C3A26309   2.222   0.708   7.901
 1832POPC   C4A26310   2.094   0.786   7.501
 1832POPC   C1B26311   1.734   0.132   8.690
 1832POPC   C2B26312   1.802   0.199   8.239
 1832POPC   C3B26313   1.926   0.297   7.795
 1832POPC   C4B26314   1.862   0.302   7.325
 1833POPC   NC326315  34.818  15.684   9.498
 1833POPC   PO426316  34.130  15.557   9.510
 1833POPC   GL126317  34.443  15.782   9.153
 1833POPC   GL226318  34.794  15.988   9.111
 1833POPC   C1A26319  34.544  15.800   8.688
 1833POPC   D2A26320  34.599  16.130   8.343
 1833POPC   C3A26321  34.517  16.017   7.907
 1833POPC   C4A26322  34.479  15.860   7.480
 1833POPC   C1B26323  35.010  16.039   8.727
 1833POPC   C2B26324  35.011  15.804   8.346
 1833POPC   C3B26325  35.028  16.098   8.023
 1833POPC   C4B26326  34.902  16.155   7.603
 1834POPC   NC326327  34.925  20.369   9.526
 1834POPC   PO426328  34.509  20.855   9.623
 1834POPC   GL126329  34.538  20.599   9.236
 1834POPC   GL226330  34.323  20.348   9.142
 1834POPC   C1A26331  34.601  20.715   8.775
 1834POPC   D2A26332  34.565  21.030   8.422
 1834POPC   C3A26333  34.704  20.882   8.039
 1834POPC   C4A26334  34.458  20.781   7.684
 1834POPC   C1B26335  34.721  20.232   8.885
 1834POPC   C2B26336  34.704  20.335   8.431
 1834POPC   C3B26337  34.565  20.357   7.988
 1834POPC   C4B26338  34.836  20.115   7.747
 1835POPC   NC326339  14.030  24.159   9.444
 1835POPC   PO426340  14.617  24.509   9.413
 1835POPC   GL126341  14.504  24.536   9.019
 1835POPC   GL226342  14.181  24.465   9.074
 1835POPC   C1A26343  14.433  24.299   8.647
 1835POPC   D2A26344  14.386  24.338   8.249
 1835POPC   C3A26345  14.699  24.622   8.097
 1835POPC   C4A26346  14.751  24.347   7.759
 1835POPC   C1B26347  14.015  24.616   8.713
 1835POPC   C2B26348  14.148  24.781   8.332
 1835POPC   C3B26349  14.213  24.689   7.906
 1835POPC   C4B26350  14.357  24.948   7.589
 1836POPC   NC326351  25.946  10.846   9.423
 1836POPC   PO426352  26.107  11.379   9.838
 1836POPC   GL126353  25.991  11.362   9.349
 1836POPC   GL226354  26.316  11.410   9.227
 1836POPC   C1A26355  25.867  11.223   8.874
 1836POPC   D2A26356  26.057  11.070   8.446
 1836POPC   C3A26357  25.855  11.092   8.038
 1836POPC   C4A26358  25.846  11.335   7.701
 1836POPC   C1B26359  26.376  11.360   8.783
 1836POPC   C2B26360  26.489  11.447   8.346
 1836POPC   C3B26361  26.342  11.242   7.975
 1836POPC   C4B26362  26.324  11.199   7.531
 1837POPC   NC326363  21.552  17.342   9.532
 1837POPC   PO426364  21.079  17.864   9.478
 1837POPC   GL126365  21.060  17.609   9.101
 1837POPC   GL226366  21.397  17.471   9.082
 1837POPC   C1A26367  21.241  17.643   8.655
 1837POPC   D2A26368  21.461  17.438   8.351
 1837POPC   C3A26369  21.288  17.619   7.990
 1837POPC   C4A26370  21.177  17.366   7.634
 1837POPC   C1B26371  21.681  17.231   8.818
 1837POPC   C2B26372  21.947  17.387   8.494
 1837POPC   C3B26373  21.916  17.592   8.074
 1837POPC   C4B26374  21.695  17.494   7.716
 1838POPC   NC326375  44.953   1.561   9.366
 1838POPC   PO426376  44.517   1.093   9.634
 1838POPC   GL126377  44.603   1.218   9.207
 1838POPC   GL226378  44.340   1.103   9.005
 1838POPC   C1A26379  44.804   1.085   8.780
 1838POPC   D2A26380  44.543   1.101   8.395
 1838POPC   C3A26381  44.721   1.294   8.026
 1838POPC   C4A26382   0.025   1.536   7.811
 1838POPC   C1B26383  44.517   1.497   8.777
 1838POPC   C2B26384  44.437   1.612   8.358
 1838POPC   C3B26385  44.499   1.757   7.941
 1838POPC   C4B26386  44.362   1.591   7.562
 1839POPC   NC326387  31.949   0.128   9.577
 1839POPC   PO426388  32.228  44.410   9.447
 1839POPC   GL126389  32.337  44.800   9.214
 1839POPC   GL226390  32.013  44.909   9.128
 1839POPC   C1A26391  32.556  44.773   8.813
 1839POPC   D2A26392  32.661  44.447   8.510
 1839POPC   C3A26393  32.619  44.658   8.132
 1839POPC   C4A26394  32.401  44.790   7.769
 1839POPC   C1B26395  32.022  44.695   8.753
 1839POPC   C2B26396  32.156  44.534   8.368
 1839POPC   C3B26397  31.981  44.681   8.013
 1839POPC   C4B26398  31.859  44.960   7.702
 1840POPC   NC326399  11.941  10.935  10.002
 1840POPC   PO426400  11.904  10.474   9.493
 1840POPC   GL126401  12.010  10.569   9.111
 1840POPC   GL226402  12.309  10.776   9.139
 1840POPC   C1A26403  11.738  10.425   8.802
 1840POPC   D2A26404  11.682  10.527   8.404
 1840POPC   C3A26405  11.766  10.291   8.079
 1840POPC   C4A26406  11.968  10.339   7.725
 1840POPC   C1B26407  12.438  10.638   8.755
 1840POPC   C2B26408  12.192  10.348   8.537
 1840POPC   C3B26409  12.273  10.384   8.128
 1840POPC   C4B26410  12.439  10.739   7.861
 1841POPC   NC326411  37.925  36.886   9.275
 1841POPC   PO426412  37.497  36.498   9.607
 1841POPC   GL126413  37.258  36.653   9.183
 1841POPC   GL226414  37.431  36.962   9.139
 1841POPC   C1A26415  37.190  36.768   8.727
 1841POPC   D2A26416  37.475  36.929   8.378
 1841POPC   C3A26417  37.661  36.805   7.961
 1841POPC   C4A26418  37.698  36.773   7.503
 1841POPC   C1B26419  37.442  37.248   8.794
 1841POPC   C2B26420  37.397  37.443   8.385
 1841POPC   C3B26421  37.391  37.277   8.015
 1841POPC   C4B26422  37.576  37.243   7.663
 1842POPC   NC326423  15.790  14.295   9.483
 1842POPC   PO426424  16.442  14.641   9.648
 1842POPC   GL126425  16.157  14.602   9.273
 1842POPC   GL226426  15.938  14.848   9.351
 1842POPC   C1A26427  15.952  14.399   8.870
 1842POPC   D2A26428  16.126  14.185   8.508
 1842POPC   C3A26429  15.900  14.260   8.127
 1842POPC   C4A26430  16.045  14.268   7.690
 1842POPC   C1B26431  15.933  14.910   8.881
 1842POPC   C2B26432  15.845  14.737   8.458
 1842POPC   C3B26433  16.069  14.873   8.091
 1842POPC   C4B26434  16.113  14.763   7.672
 1843POPC   NC326435  30.468   6.513   9.436
 1843POPC   PO426436  31.054   6.835   9.516
 1843POPC   GL126437  30.815   6.731   9.068
 1843POPC   GL226438  30.575   6.939   8.908
 1843POPC   C1A26439  30.718   6.507   8.663
 1843POPC   D2A26440  30.601   6.639   8.244
 1843POPC   C3A26441  30.668   6.360   7.893
 1843POPC   C4A26442  30.475   6.331   7.449
 1843POPC   C1B26443  30.982   6.965   8.664
 1843POPC   C2B26444  31.134   6.821   8.281
 1843POPC   C3B26445  30.937   6.838   7.901
 1843POPC   C4B26446  30.627   6.801   7.609
 1844POPC   NC326447  43.623  10.350   9.612
 1844POPC   PO426448  43.944  10.869   9.369
 1844POPC   GL126449  43.789  10.566   9.132
 1844POPC   GL226450  43.982  10.286   9.272
 1844POPC   C1A26451  43.852  10.681   8.709
 1844POPC   D2A26452  43.985  10.746   8.297
 1844POPC   C3A26453  43.726  10.591   7.961
 1844POPC   C4A26454  43.681  10.651   7.521
 1844POPC   C1B26455  44.042  10.214   8.857
 1844POPC   C2B26456  44.140  10.240   8.442
 1844POPC   C3B26457  44.209  10.382   8.039
 1844POPC   C4B26458  44.088  10.197   7.677
 1845POPC   NC326459  32.116   4.050   9.586
 1845POPC   PO426460  32.010   4.641   9.536
 1845POPC   GL126461  32.132   4.398   9.174
 1845POPC   GL226462  32.381   4.463   8.987
 1845POPC   C1A26463  31.974   4.220   8.750
 1845POPC   D2A26464  31.907   3.995   8.342
 1845POPC   C3A26465  31.843   4.225   7.968
 1845POPC   C4A26466  32.188   4.396   7.746
 1845POPC   C1B26467  32.492   4.060   8.773
 1845POPC   C2B26468  32.404   3.827   8.422
 1845POPC   C3B26469  32.353   4.023   8.066
 1845POPC   C4B26470  32.598   4.056   7.742
 1846POPC   NC326471  42.185  36.204   9.491
 1846POPC   PO426472  42.947  36.332   9.600
 1846POPC   GL126473  42.631  36.244   9.183
 1846POPC   GL226474  42.299  36.332   9.008
 1846POPC   C1A26475  42.656  36.056   8.783
 1846POPC   D2A26476  42.420  36.156   8.422
 1846POPC   C3A26477  42.637  36.192   8.021
 1846POPC   C4A26478  42.401  36.419   7.710
 1846POPC   C1B26479  42.135  35.926   8.820
 1846POPC   C2B26480  41.972  35.790   8.417
 1846POPC   C3B26481  42.188  35.906   8.032
 1846POPC   C4B26482  42.369  35.924   7.632
 1847POPC   NC326483  39.805  17.637   9.534
 1847POPC   PO426484  39.851  16.998   9.642
 1847POPC   GL126485  39.835  17.198   9.189
 1847POPC   GL226486  40.053  17.433   9.059
 1847POPC   C1A26487  39.654  17.363   8.767
 1847POPC   D2A26488  39.929  17.446   8.371
 1847POPC   C3A26489  39.813  17.325   7.929
 1847POPC   C4A26490  40.177  17.374   7.630
 1847POPC   C1B26491  40.099  17.752   8.749
 1847POPC   C2B26492  40.167  17.932   8.324
 1847POPC   C3B26493  40.073  17.780   7.900
 1847POPC   C4B26494  39.950  17.768   7.408
 1848POPC   NC326495  39.136  13.480   9.408
 1848POPC   PO426496  39.146  14.196   9.451
 1848POPC   GL126497  39.347  13.870   9.152
 1848POPC   GL226498  39.065  13.866   8.890
 1848POPC   C1A26499  39.448  13.591   8.757
 1848POPC   D2A26500  39.142  13.692   8.381
 1848POPC   C3A26501  39.273  13.717   7.944
 1848POPC   C4A26502  39.610  13.631   7.655
 1848POPC   C1B26503  38.979  13.394   8.782
 1848POPC   C2B26504  38.807  13.273   8.399
 1848POPC   C3B26505  38.948  13.304   8.001
 1848POPC   C4B26506  38.857  13.579   7.670
 1849POPC   NC326507  30.609   5.669   9.447
 1849POPC   PO426508  30.880   6.305   9.278
 1849POPC   GL126509  30.684   6.020   9.100
 1849POPC   GL226510  30.928   5.770   9.082
 1849POPC   C1A26511  30.543   5.853   8.743
 1849POPC   D2A26512  30.452   6.121   8.392
 1849POPC   C3A26513  30.488   5.846   8.067
 1849POPC   C4A26514  30.581   5.892   7.673
 1849POPC   C1B26515  31.068   5.960   8.747
 1849POPC   C2B26516  30.912   5.856   8.356
 1849POPC   C3B26517  31.017   5.829   7.929
 1849POPC   C4B26518  30.999   5.677   7.487
 1850POPC   NC326519  30.607  20.057   9.510
 1850POPC   PO426520  31.033  19.604   9.320
 1850POPC   GL126521  30.772  19.848   9.076
 1850POPC   GL226522  30.850  20.195   9.083
 1850POPC   C1A26523  30.710  19.815   8.657
 1850POPC   D2A26524  30.885  19.625   8.307
 1850POPC   C3A26525  30.711  19.735   7.930
 1850POPC   C4A26526  30.918  19.770   7.561
 1850POPC   C1B26527  30.465  20.217   8.855
 1850POPC   C2B26528  30.354  20.111   8.413
 1850POPC   C3B26529  30.507  20.213   8.001
 1850POPC   C4B26530  30.542  20.120   7.575
 1851POPC   NC326531  18.729   0.489   9.392
 1851POPC   PO426532  19.281   0.176   9.625
 1851POPC   GL126533  19.234   0.358   9.219
 1851POPC   GL226534  18.976   0.094   9.158
 1851POPC   C1A26535  19.067   0.450   8.784
 1851POPC   D2A26536  19.026   0.727   8.408
 1851POPC   C3A26537  19.087   0.502   8.013
 1851POPC   C4A26538  19.331   0.266   7.713
 1851POPC   C1B26539  18.656   0.086   8.826
 1851POPC   C2B26540  18.695  44.923   8.395
 1851POPC   C3B26541  18.668   0.139   8.004
 1851POPC   C4B26542  18.835   0.257   7.623
 1852POPC   NC326543  21.694   3.764   9.641
 1852POPC   PO426544  21.178   3.383   9.830
 1852POPC   GL126545  21.255   3.314   9.345
 1852POPC   GL226546  21.566   3.422   9.258
 1852POPC   C1A26547  21.197   3.499   8.892
 1852POPC   D2A26548  21.414   3.504   8.486
 1852POPC   C3A26549  21.236   3.501   8.045
 1852POPC   C4A26550  21.292   3.252   7.644
 1852POPC   C1B26551  21.684   3.734   8.909
 1852POPC   C2B26552  21.740   3.904   8.483
 1852POPC   C3B26553  21.761   3.623   8.120
 1852POPC   C4B26554  21.613   3.634   7.719
 1853POPC   NC326555  42.651  44.045   9.504
 1853POPC   PO426556  41.996  44.074   9.506
 1853POPC   GL126557  42.256  43.953   9.146
 1853POPC   GL226558  42.485  43.683   9.116
 1853POPC   C1A26559  42.170  43.849   8.715
 1853POPC   D2A26560  42.047  44.058   8.317
 1853POPC   C3A26561  42.259  43.982   7.948
 1853POPC   C4A26562  42.596  44.122   7.668
 1853POPC   C1B26563  42.713  43.524   8.740
 1853POPC   C2B26564  42.770  43.415   8.308
 1853POPC   C3B26565  42.612  43.616   7.930
 1853POPC   C4B26566  42.633  43.667   7.469
 1854POPC   NC326567  21.011  44.251   9.424
 1854POPC   PO426568  21.284  43.666   9.707
 1854POPC   GL126569  21.046  43.560   9.252
 1854POPC   GL226570  20.833  43.855   9.155
 1854POPC   C1A26571  20.913  43.501   8.808
 1854POPC   D2A26572  20.597  43.649   8.509
 1854POPC   C3A26573  20.763  43.766   8.115
 1854POPC   C4A26574  20.679  43.923   7.740
 1854POPC   C1B26575  20.530  44.073   8.851
 1854POPC   C2B26576  20.434  44.291   8.435
 1854POPC   C3B26577  20.302  44.100   8.053
 1854POPC   C4B26578  20.201  44.069   7.611
 1855POPC   NC326579  40.913  29.639   9.528
 1855POPC   PO426580  41.279  30.228   9.482
 1855POPC   GL126581  40.979  30.280   9.166
 1855POPC   GL226582  40.785  29.944   9.146
 1855POPC   C1A26583  41.042  30.143   8.760
 1855POPC   D2A26584  40.793  30.065   8.442
 1855POPC   C3A26585  40.911  29.899   8.086
 1855POPC   C4A26586  40.755  30.088   7.736
 1855POPC   C1B26587  40.471  29.777   8.847
 1855POPC   C2B26588  40.533  29.622   8.451
 1855POPC   C3B26589  40.419  29.756   8.064
 1855POPC   C4B26590  40.462  29.617   7.666
 1856POPC   NC326591  35.922  17.951   9.379
 1856POPC   PO426592  36.248  18.600   9.367
 1856POPC   GL126593  36.351  18.199   9.156
 1856POPC   GL226594  36.083  18.120   8.912
 1856POPC   C1A26595  36.566  18.098   8.762
 1856POPC   D2A26596  36.379  18.269   8.426
 1856POPC   C3A26597  36.460  18.214   7.984
 1856POPC   C4A26598  36.259  18.436   7.681
 1856POPC   C1B26599  35.940  17.938   8.502
 1856POPC   C2B26600  35.973  18.144   8.143
 1856POPC   C3B26601  35.971  17.990   7.795
 1856POPC   C4B26602  35.674  17.797   7.554
 1857POPC   NC326603  33.680  41.043   9.575
 1857POPC   PO426604  34.101  40.529   9.399
 1857POPC   GL126605  33.844  40.763   9.141
 1857POPC   GL226606  33.515  40.680   9.252
 1857POPC   C1A26607  33.937  40.737   8.709
 1857POPC   D2A26608  33.951  40.957   8.340
 1857POPC   C3A26609  33.913  40.756   7.944
 1857POPC   C4A26610  34.068  40.994   7.584
 1857POPC   C1B26611  33.392  40.769   8.836
 1857POPC   C2B26612  33.501  40.712   8.414
 1857POPC   C3B26613  33.426  40.860   8.023
 1857POPC   C4B26614  33.497  40.631   7.639
 1858POPC   NC326615  25.162   3.271   9.268
 1858POPC   PO426616  25.494   2.754   9.339
 1858POPC   GL126617  25.225   2.767   9.035
 1858POPC   GL226618  24.976   2.561   9.165
 1858POPC   C1A26619  25.351   2.906   8.641
 1858POPC   D2A26620  25.661   2.751   8.339
 1858POPC   C3A26621  25.513   2.795   7.932
 1858POPC   C4A26622  25.352   2.679   7.526
 1858POPC   C1B26623  24.950   2.494   8.703
 1858POPC   C2B26624  25.152   2.587   8.292
 1858POPC   C3B26625  24.984   2.531   7.888
 1858POPC   C4B26626  24.849   2.151   7.693
 1859POPC   NC326627   2.239  29.376   9.288
 1859POPC   PO426628   1.769  28.869   9.484
 1859POPC   GL126629   1.804  29.134   9.140
 1859POPC   GL226630   2.062  28.935   9.004
 1859POPC   C1A26631   1.868  29.320   8.726
 1859POPC   D2A26632   1.981  29.084   8.352
 1859POPC   C3A26633   2.057  29.289   7.941
 1859POPC   C4A26634   1.874  28.960   7.697
 1859POPC   C1B26635   2.358  29.124   8.708
 1859POPC   C2B26636   2.526  29.104   8.330
 1859POPC   C3B26637   2.352  28.880   8.033
 1859POPC   C4B26638   2.371  28.973   7.618
 1860POPC   NC326639   9.476   3.897   9.416
 1860POPC   PO426640  10.024   4.389   9.505
 1860POPC   GL126641   9.713   4.400   9.205
 1860POPC   GL226642   9.965   4.574   9.021
 1860POPC   C1A26643   9.551   4.345   8.782
 1860POPC   D2A26644   9.696   4.370   8.340
 1860POPC   C3A26645   9.564   4.122   7.961
 1860POPC   C4A26646   9.481   4.158   7.506
 1860POPC   C1B26647  10.059   4.220   8.745
 1860POPC   C2B26648  10.103   4.040   8.335
 1860POPC   C3B26649  10.055   4.187   7.907
 1860POPC   C4B26650  10.083   4.266   7.452
 1861POPC   NC326651  42.046  31.586   9.348
 1861POPC   PO426652  42.739  31.352   9.478
 1861POPC   GL126653  42.486  31.356   9.116
 1861POPC   GL226654  42.665  31.148   8.882
 1861POPC   C1A26655  42.433  31.579   8.736
 1861POPC   D2A26656  42.519  31.514   8.319
 1861POPC   C3A26657  42.300  31.799   8.072
 1861POPC   C4A26658  42.298  31.672   7.655
 1861POPC   C1B26659  42.218  31.144   8.657
 1861POPC   C2B26660  42.014  31.422   8.373
 1861POPC   C3B26661  42.177  31.295   7.996
 1861POPC   C4B26662  42.043  31.228   7.605
 1862POPC   NC326663   4.317  26.362   9.460
 1862POPC   PO426664   3.907  25.910   9.385
 1862POPC   GL126665   4.033  25.791   9.017
 1862POPC   GL226666   4.395  25.816   9.007
 1862POPC   C1A26667   4.005  25.954   8.638
 1862POPC   D2A26668   4.389  25.962   8.434
 1862POPC   C3A26669   4.252  26.010   8.076
 1862POPC   C4A26670   4.131  25.810   7.745
 1862POPC   C1B26671   4.753  26.050   8.784
 1862POPC   C2B26672   4.707  26.387   8.493
 1862POPC   C3B26673   4.591  26.396   8.089
 1862POPC   C4B26674   4.549  26.192   7.713
 1863POPC   NC326675  36.319  26.005   9.522
 1863POPC   PO426676  35.689  26.331   9.541
 1863POPC   GL126677  35.943  26.200   9.216
 1863POPC   GL226678  36.017  25.842   9.127
 1863POPC   C1A26679  36.037  26.227   8.780
 1863POPC   D2A26680  36.137  26.400   8.378
 1863POPC   C3A26681  36.218  26.004   8.202
 1863POPC   C4A26682  35.853  25.864   7.962
 1863POPC   C1B26683  36.349  25.727   8.805
 1863POPC   C2B26684  36.425  25.522   8.385
 1863POPC   C3B26685  36.532  25.663   7.963
 1863POPC   C4B26686  36.476  26.057   7.749
 1864POPC   NC326687  36.574  20.919   9.446
 1864POPC   PO426688  37.086  20.416   9.485
 1864POPC   GL126689  36.915  20.427   9.064
 1864POPC   GL226690  36.790  20.766   9.016
 1864POPC   C1A26691  36.914  20.455   8.590
 1864POPC   D2A26692  36.613  20.587   8.260
 1864POPC   C3A26693  36.650  20.497   7.817
 1864POPC   C4A26694  37.022  20.283   7.674
 1864POPC   C1B26695  37.141  20.887   8.784
 1864POPC   C2B26696  37.310  20.757   8.358
 1864POPC   C3B26697  37.077  20.722   7.968
 1864POPC   C4B26698  36.757  20.983   7.705
 1865POPC   NC326699  44.051  39.218   9.584
 1865POPC   PO426700  44.444  39.833   9.423
 1865POPC   GL126701  44.093  39.568   9.193
 1865POPC   GL226702  44.084  39.200   9.069
 1865POPC   C1A26703  43.674  39.462   8.933
 1865POPC   D2A26704  43.654  39.288   8.505
 1865POPC   C3A26705  43.566  39.307   8.095
 1865POPC   C4A26706  43.780  39.377   7.711
 1865POPC   C1B26707  43.905  38.925   8.765
 1865POPC   C2B26708  43.791  38.797   8.359
 1865POPC   C3B26709  43.905  38.926   7.953
 1865POPC   C4B26710  43.791  38.902   7.527
 1866POPC   NC326711  11.507  32.407   9.465
 1866POPC   PO426712  11.151  32.002   9.741
 1866POPC   GL126713  11.248  32.012   9.253
 1866POPC   GL226714  10.962  32.108   9.066
 1866POPC   C1A26715  11.405  31.970   8.787
 1866POPC   D2A26716  11.346  32.038   8.308
 1866POPC   C3A26717  11.406  32.367   7.941
 1866POPC   C4A26718  11.564  32.335   7.495
 1866POPC   C1B26719  10.932  32.217   8.629
 1866POPC   C2B26720  10.792  31.988   8.263
 1866POPC   C3B26721  11.030  31.959   7.921
 1866POPC   C4B26722  11.089  32.210   7.566
 1867POPC   NC326723  27.714  43.406   9.504
 1867POPC   PO426724  27.627  42.732   9.694
 1867POPC   GL126725  27.529  42.955   9.317
 1867POPC   GL226726  27.854  43.042   9.165
 1867POPC   C1A26727  27.374  43.038   8.897
 1867POPC   D2A26728  27.502  43.142   8.489
 1867POPC   C3A26729  27.252  43.195   8.104
 1867POPC   C4A26730  27.601  43.143   7.747
 1867POPC   C1B26731  27.862  42.877   8.761
 1867POPC   C2B26732  27.901  42.623   8.414
 1867POPC   C3B26733  27.999  42.820   8.026
 1867POPC   C4B26734  27.986  42.688   7.611
 1868POPC   NC326735  29.328  41.511   9.607
 1868POPC   PO426736  28.852  41.145   9.453
 1868POPC   GL126737  28.875  41.511   9.179
 1868POPC   GL226738  29.248  41.480   9.125
 1868POPC   C1A26739  28.995  41.718   8.781
 1868POPC   D2A26740  29.254  41.608   8.427
 1868POPC   C3A26741  29.109  41.788   8.067
 1868POPC   C4A26742  28.785  41.789   7.738
 1868POPC   C1B26743  29.501  41.362   8.799
 1868POPC   C2B26744  29.544  41.154   8.402
 1868POPC   C3B26745  29.457  41.356   7.997
 1868POPC   C4B26746  29.256  41.586   7.639
 1869POPC   NC326747  35.582   6.171   9.461
 1869POPC   PO426748  35.193   5.676   9.440
 1869POPC   GL126749  35.226   5.687   9.028
 1869POPC   GL226750  35.563   5.809   9.087
 1869POPC   C1A26751  35.417   5.643   8.640
 1869POPC   D2A26752  35.408   5.811   8.235
 1869POPC   C3A26753  35.093   5.620   7.993
 1869POPC   C4A26754  35.014   5.660   7.595
 1869POPC   C1B26755  35.523   6.137   8.768
 1869POPC   C2B26756  35.513   6.345   8.360
 1869POPC   C3B26757  35.472   6.230   7.912
 1869POPC   C4B26758  35.511   5.814   7.694
 1870POPC   NC326759   7.243  36.515   9.349
 1870POPC   PO426760   7.627  36.025   9.593
 1870POPC   GL126761   7.505  35.973   9.170
 1870POPC   GL226762   7.271  35.681   9.166
 1870POPC   C1A26763   7.434  36.223   8.776
 1870POPC   D2A26764   7.659  36.231   8.375
 1870POPC   C3A26765   7.487  36.294   7.955
 1870POPC   C4A26766   7.318  36.543   7.562
 1870POPC   C1B26767   7.445  35.729   8.721
 1870POPC   C2B26768   7.284  35.847   8.355
 1870POPC   C3B26769   7.445  35.751   7.992
 1870POPC   C4B26770   7.849  35.838   7.856
 1871POPC   NC326771  38.075  38.501   9.537
 1871POPC   PO426772  38.761  38.589   9.637
 1871POPC   GL126773  38.490  38.533   9.241
 1871POPC   GL226774  38.324  38.215   9.181
 1871POPC   C1A26775  38.330  38.581   8.798
 1871POPC   D2A26776  38.493  38.472   8.392
 1871POPC   C3A26777  38.276  38.471   7.990
 1871POPC   C4A26778  38.313  38.753   7.646
 1871POPC   C1B26779  38.454  38.097   8.768
 1871POPC   C2B26780  38.300  38.004   8.342
 1871POPC   C3B26781  38.407  38.004   7.913
 1871POPC   C4B26782  38.503  38.286   7.546
 1872POPC   NC326783  33.670   6.833   9.625
 1872POPC   PO426784  34.124   6.401   9.433
 1872POPC   GL126785  33.874   6.688   9.175
 1872POPC   GL226786  33.515   6.559   9.205
 1872POPC   C1A26787  33.641   6.858   8.814
 1872POPC   D2A26788  33.629   6.686   8.371
 1872POPC   C3A26789  33.888   6.824   8.040
 1872POPC   C4A26790  33.849   6.878   7.598
 1872POPC   C1B26791  33.660   6.343   8.827
 1872POPC   C2B26792  33.855   6.208   8.457
 1872POPC   C3B26793  33.702   6.271   8.050
 1872POPC   C4B26794  33.821   6.360   7.630
 1873POPC   NC326795  35.567  37.491   9.728
 1873POPC   PO426796  35.425  36.835   9.735
 1873POPC   GL126797  35.521  37.005   9.277
 1873POPC   GL226798  35.261  37.175   9.088
 1873POPC   C1A26799  35.634  36.962   8.820
 1873POPC   D2A26800  35.486  37.157   8.434
 1873POPC   C3A26801  35.495  36.913   8.088
 1873POPC   C4A26802  35.480  36.816   7.682
 1873POPC   C1B26803  35.090  37.021   8.722
 1873POPC   C2B26804  34.952  36.961   8.289
 1873POPC   C3B26805  34.993  36.930   7.822
 1873POPC   C4B26806  35.005  36.671   7.435
 1874POPC   NC326807  41.560  31.065   9.429
 1874POPC   PO426808  41.465  31.775   9.519
 1874POPC   GL126809  41.562  31.545   9.162
 1874POPC   GL226810  41.265  31.348   9.094
 1874POPC   C1A26811  41.629  31.526   8.714
 1874POPC   D2A26812  41.365  31.387   8.378
 1874POPC   C3A26813  41.419  31.603   7.997
 1874POPC   C4A26814  41.813  31.650   7.806
 1874POPC   C1B26815  41.446  31.043   8.786
 1874POPC   C2B26816  41.697  31.014   8.417
 1874POPC   C3B26817  41.680  31.149   8.002
 1874POPC   C4B26818  41.534  31.242   7.602
 1875POPC   NC326819  38.830  33.690   9.545
 1875POPC   PO426820  38.310  34.169   9.465
 1875POPC   GL126821  38.541  33.892   9.152
 1875POPC   GL226822  38.726  33.569   9.068
 1875POPC   C1A26823  38.389  33.808   8.745
 1875POPC   D2A26824  38.273  34.103   8.427
 1875POPC   C3A26825  38.403  34.017   8.002
 1875POPC   C4A26826  38.136  33.764   7.729
 1875POPC   C1B26827  38.882  33.358   8.746
 1875POPC   C2B26828  38.818  33.168   8.388
 1875POPC   C3B26829  38.684  33.230   7.989
 1875POPC   C4B26830  38.634  33.630   7.762
 1876POPC   NC326831  32.372  35.882   9.486
 1876POPC   PO426832  32.781  36.475   9.382
 1876POPC   GL126833  32.504  36.229   9.117
 1876POPC   GL226834  32.600  35.917   8.997
 1876POPC   C1A26835  32.487  36.263   8.655
 1876POPC   D2A26836  32.267  36.516   8.362
 1876POPC   C3A26837  32.084  36.284   8.020
 1876POPC   C4A26838  32.386  36.079   7.739
 1876POPC   C1B26839  32.193  35.830   8.843
 1876POPC   C2B26840  32.048  35.988   8.469
 1876POPC   C3B26841  32.167  35.776   8.098
 1876POPC   C4B26842  31.965  35.770   7.718
 1877POPC   NC326843   4.649  13.813   9.534
 1877POPC   PO426844   4.730  13.191   9.795
 1877POPC   GL126845   4.967  13.386   9.361
 1877POPC   GL226846   4.964  13.724   9.163
 1877POPC   C1A26847   5.047  13.337   8.857
 1877POPC   D2A26848   5.271  13.452   8.450
 1877POPC   C3A26849   5.038  13.461   8.039
 1877POPC   C4A26850   5.242  13.203   7.813
 1877POPC   C1B26851   5.283  13.802   8.828
 1877POPC   C2B26852   5.413  13.998   8.459
 1877POPC   C3B26853   5.450  13.787   8.073
 1877POPC   C4B26854   5.216  13.906   7.752
 1878POPC   NC326855  18.859  10.887   9.671
 1878POPC   PO426856  19.492  10.519   9.554
 1878POPC   GL126857  19.214  10.533   9.186
 1878POPC   GL226858  18.862  10.575   9.266
 1878POPC   C1A26859  19.002  10.448   8.767
 1878POPC   D2A26860  18.801  10.395   8.330
 1878POPC   C3A26861  18.971  10.283   7.889
 1878POPC   C4A26862  19.001  10.237   7.398
 1878POPC   C1B26863  18.768  10.890   8.954
 1878POPC   C2B26864  18.835  10.892   8.503
 1878POPC   C3B26865  18.723  10.839   8.060
 1878POPC   C4B26866  18.859  11.089   7.708
 1879POPC   NC326867  39.526   6.331   9.584
 1879POPC   PO426868  40.058   6.768   9.754
 1879POPC   GL126869  39.983   6.734   9.296
 1879POPC   GL226870  40.282   6.730   9.076
 1879POPC   C1A26871  39.863   6.463   8.940
 1879POPC   D2A26872  39.700   6.520   8.503
 1879POPC   C3A26873  39.974   6.530   8.147
 1879POPC   C4A26874  39.939   6.761   7.816
 1879POPC   C1B26875  40.353   6.933   8.721
 1879POPC   C2B26876  40.430   6.645   8.407
 1879POPC   C3B26877  40.395   6.843   8.067
 1879POPC   C4B26878  40.199   7.185   7.912
 1880POPC   NC326879  43.580   7.948   9.510
 1880POPC   PO426880  44.052   8.412   9.365
 1880POPC   GL126881  43.794   8.224   9.109
 1880POPC   GL226882  43.957   7.911   9.132
 1880POPC   C1A26883  43.719   8.327   8.690
 1880POPC   D2A26884  43.526   8.211   8.308
 1880POPC   C3A26885  43.626   8.501   7.980
 1880POPC   C4A26886  43.985   8.534   7.711
 1880POPC   C1B26887  44.067   7.882   8.688
 1880POPC   C2B26888  44.220   7.641   8.336
 1880POPC   C3B26889  44.350   7.881   7.986
 1880POPC   C4B26890  44.058   8.031   7.671
 1881POPC   NC326891  13.011  41.275   9.467
 1881POPC   PO426892  12.502  41.781   9.438
 1881POPC   GL126893  12.784  41.701   9.078
 1881POPC   GL226894  12.726  41.366   9.041
 1881POPC   C1A26895  12.937  41.540   8.630
 1881POPC   D2A26896  13.118  41.625   8.229
 1881POPC   C3A26897  12.810  41.554   7.886
 1881POPC   C4A26898  12.880  41.642   7.434
 1881POPC   C1B26899  12.568  41.179   8.699
 1881POPC   C2B26900  12.689  41.103   8.277
 1881POPC   C3B26901  12.383  41.208   7.948
 1881POPC   C4B26902  12.511  41.273   7.518
 1882POPC   NC326903  21.758  43.669   9.789
 1882POPC   PO426904  21.354  43.955   9.295
 1882POPC   GL126905  21.356  43.833   8.931
 1882POPC   GL226906  21.717  43.869   8.934
 1882POPC   C1A26907  21.364  44.141   8.641
 1882POPC   D2A26908  21.713  44.251   8.407
 1882POPC   C3A26909  21.683  43.953   8.055
 1882POPC   C4A26910  21.259  43.830   7.814
 1882POPC   C1B26911  21.715  43.748   8.545
 1882POPC   C2B26912  21.670  43.452   8.267
 1882POPC   C3B26913  21.580  43.404   7.857
 1882POPC   C4B26914  21.716  43.768   7.586
 1883POPC   NC326915  29.714  36.943   9.410
 1883POPC   PO426916  30.368  36.615   9.430
 1883POPC   GL126917  30.152  36.907   9.102
 1883POPC   GL226918  29.814  36.807   8.925
 1883POPC   C1A26919  30.140  37.113   8.684
 1883POPC   D2A26920  29.905  36.851   8.383
 1883POPC   C3A26921  29.821  36.907   7.939
 1883POPC   C4A26922  29.839  36.640   7.564
 1883POPC   C1B26923  29.639  37.202   8.686
 1883POPC   C2B26924  29.719  37.337   8.236
 1883POPC   C3B26925  29.490  37.255   7.818
 1883POPC   C4B26926  29.554  37.033   7.421
 1884POPC   NC326927   2.623  25.510   9.417
 1884POPC   PO426928   3.235  25.170   9.386
 1884POPC   GL126929   2.996  25.391   9.095
 1884POPC   GL226930   2.700  25.207   9.021
 1884POPC   C1A26931   3.027  25.371   8.657
 1884POPC   D2A26932   2.728  25.299   8.344
 1884POPC   C3A26933   2.709  25.515   7.939
 1884POPC   C4A26934   2.359  25.545   7.659
 1884POPC   C1B26935   2.770  24.914   8.711
 1884POPC   C2B26936   2.904  24.797   8.308
 1884POPC   C3B26937   2.805  25.008   7.918
 1884POPC   C4B26938   2.945  24.871   7.542
 1885POPC   NC326939   9.857  35.153   9.595
 1885POPC   PO426940   9.454  35.556   9.299
 1885POPC   GL126941   9.751  35.327   9.116
 1885POPC   GL226942   9.978  35.564   9.166
 1885POPC   C1A26943   9.683  35.245   8.713
 1885POPC   D2A26944   9.870  35.141   8.380
 1885POPC   C3A26945   9.588  35.158   8.053
 1885POPC   C4A26946   9.486  35.476   7.772
 1885POPC   C1B26947  10.147  35.617   8.756
 1885POPC   C2B26948  10.230  35.703   8.313
 1885POPC   C3B26949  10.092  35.535   7.893
 1885POPC   C4B26950  10.149  35.441   7.394
 1886POPC   NC326951  21.665  29.562   9.536
 1886POPC   PO426952  21.667  30.291   9.527
 1886POPC   GL126953  21.498  30.081   9.181
 1886POPC   GL226954  21.752  29.841   9.124
 1886POPC   C1A26955  21.394  29.955   8.753
 1886POPC   D2A26956  21.666  29.861   8.408
 1886POPC   C3A26957  21.551  30.046   8.038
 1886POPC   C4A26958  21.317  29.970   7.695
 1886POPC   C1B26959  21.743  29.561   8.814
 1886POPC   C2B26960  21.641  29.351   8.434
 1886POPC   C3B26961  21.530  29.508   8.037
 1886POPC   C4B26962  21.772  29.695   7.712
 1887POPC   NC326963  29.684  23.439   9.409
 1887POPC   PO426964  29.929  22.792   9.511
 1887POPC   GL126965  29.933  22.983   9.126
 1887POPC   GL226966  30.262  22.988   9.029
 1887POPC   C1A26967  29.733  23.123   8.758
 1887POPC   D2A26968  29.631  22.936   8.357
 1887POPC   C3A26969  29.739  23.166   8.025
 1887POPC   C4A26970  29.871  23.049   7.646
 1887POPC   C1B26971  30.226  23.218   8.640
 1887POPC   C2B26972  30.204  23.057   8.222
 1887POPC   C3B26973  30.366  23.000   7.798
 1887POPC   C4B26974  30.207  22.701   7.476
 1888POPC   NC326975   8.687  43.404   9.376
 1888POPC   PO426976   9.026  42.851   9.549
 1888POPC   GL126977   9.046  42.800   9.113
 1888POPC   GL226978   8.928  43.110   9.029
 1888POPC   C1A26979   8.755  42.797   8.687
 1888POPC   D2A26980   8.713  42.942   8.263
 1888POPC   C3A26981   8.959  42.887   7.884
 1888POPC   C4A26982   9.183  43.113   7.581
 1888POPC   C1B26983   9.236  42.965   8.679
 1888POPC   C2B26984   9.246  43.055   8.283
 1888POPC   C3B26985   9.199  43.364   8.018
 1888POPC   C4B26986   9.316  43.602   7.704
 1889POPC   NC326987  14.881  30.316   9.322
 1889POPC   PO426988  15.433  30.597   9.627
 1889POPC   GL126989  15.247  30.839   9.206
 1889POPC   GL226990  14.928  30.745   9.021
 1889POPC   C1A26991  15.248  30.990   8.718
 1889POPC   D2A26992  15.034  30.891   8.318
 1889POPC   C3A26993  15.154  30.870   7.862
 1889POPC   C4A26994  14.981  30.785   7.418
 1889POPC   C1B26995  15.251  30.462   8.841
 1889POPC   C2B26996  15.207  30.189   8.507
 1889POPC   C3B26997  15.086  30.402   8.154
 1889POPC   C4B26998  15.004  30.387   7.724
 1890POPC   NC326999  13.103  18.412   9.744
 1890POPC   PO427000  13.870  18.366   9.565
 1890POPC   GL127001  13.752  18.261   9.099
 1890POPC   GL227002  13.578  18.492   8.899
 1890POPC   C1A27003  13.747  18.047   8.704
 1890POPC   D2A27004  13.726  18.241   8.293
 1890POPC   C3A27005  13.914  18.123   7.893
 1890POPC   C4A27006  13.763  18.171   7.442
 1890POPC   C1B27007  13.312  18.441   8.544
 1890POPC   C2B27008  13.291  18.410   8.094
 1890POPC   C3B27009  13.615  18.513   7.818
 1890POPC   C4B27010  13.644  18.688   7.428
 1891POPC   NC327011  11.910   6.377   9.557
 1891POPC   PO427012  11.920   7.057   9.468
 1891POPC   GL127013  12.084   6.703   9.190
 1891POPC   GL227014  11.850   6.452   9.057
 1891POPC   C1A27015  12.244   6.555   8.768
 1891POPC   D2A27016  12.102   6.212   8.477
 1891POPC   C3A27017  12.279   6.240   8.109
 1891POPC   C4A27018  12.479   6.449   7.785
 1891POPC   C1B27019  11.789   6.894   8.810
 1891POPC   C2B27020  11.703   7.053   8.354
 1891POPC   C3B27021  11.888   6.909   7.946
 1891POPC   C4B27022  12.144   6.775   7.566
 1892POPC   NC327023   7.073   2.200   9.558
 1892POPC   PO427024   6.426   2.020   9.486
 1892POPC   GL127025   6.677   2.227   9.211
 1892POPC   GL227026   6.371   2.201   9.013
 1892POPC   C1A27027   6.827   2.177   8.811
 1892POPC   D2A27028   6.663   2.087   8.416
 1892POPC   C3A27029   6.840   2.090   8.066
 1892POPC   C4A27030   6.701   2.321   7.700
 1892POPC   C1B27031   6.449   1.810   8.764
 1892POPC   C2B27032   6.583   1.589   8.354
 1892POPC   C3B27033   6.495   1.688   7.921
 1892POPC   C4B27034   6.783   1.824   7.641
 1893POPC   NC327035   6.502  13.536   9.701
 1893POPC   PO427036   7.077  13.857   9.466
 1893POPC   GL127037   6.734  13.719   9.178
 1893POPC   GL227038   6.374  13.653   9.213
 1893POPC   C1A27039   6.634  13.835   8.743
 1893POPC   D2A27040   6.388  13.700   8.372
 1893POPC   C3A27041   6.536  13.656   7.938
 1893POPC   C4A27042   6.519  13.404   7.557
 1893POPC   C1B27043   6.353  13.412   8.833
 1893POPC   C2B27044   6.543  13.193   8.479
 1893POPC   C3B27045   6.530  13.148   8.029
 1893POPC   C4B27046   6.235  12.998   7.701
 1894POPC   NC327047  27.683  27.624   9.582
 1894POPC   PO427048  27.023  27.641   9.647
 1894POPC   GL127049  27.313  27.644   9.215
 1894POPC   GL227050  27.607  27.436   9.117
 1894POPC   C1A27051  27.476  27.757   8.740
 1894POPC   D2A27052  27.589  27.991   8.322
 1894POPC   C3A27053  27.706  27.728   7.952
 1894POPC   C4A27054  27.487  27.635   7.571
 1894POPC   C1B27055  27.803  27.222   8.765
 1894POPC   C2B27056  27.684  27.309   8.355
 1894POPC   C3B27057  27.584  27.217   7.951
 1894POPC   C4B27058  27.895  27.307   7.702
 1895POPC   NC327059  21.870  22.539   9.473
 1895POPC   PO427060  22.373  22.113   9.725
 1895POPC   GL127061  22.180  22.038   9.240
 1895POPC   GL227062  22.047  22.312   9.032
 1895POPC   C1A27063  21.929  21.864   8.868
 1895POPC   D2A27064  22.105  22.091   8.533
 1895POPC   C3A27065  22.322  21.910   8.189
 1895POPC   C4A27066  22.044  21.996   7.849
 1895POPC   C1B27067  22.258  22.556   8.721
 1895POPC   C2B27068  22.287  22.694   8.306
 1895POPC   C3B27069  22.035  22.611   7.929
 1895POPC   C4B27070  22.173  22.402   7.540
 1896POPC   NC327071  19.392  16.256   9.420
 1896POPC   PO427072  18.890  15.807   9.480
 1896POPC   GL127073  18.926  15.837   9.070
 1896POPC   GL227074  18.984  16.185   9.133
 1896POPC   C1A27075  19.055  15.622   8.682
 1896POPC   D2A27076  19.214  15.596   8.278
 1896POPC   C3A27077  18.971  15.903   8.040
 1896POPC   C4A27078  18.729  15.817   7.664
 1896POPC   C1B27079  19.234  16.105   8.775
 1896POPC   C2B27080  19.366  16.071   8.361
 1896POPC   C3B27081  19.310  16.307   8.012
 1896POPC   C4B27082  19.146  16.213   7.667
 1897POPC   NC327083  34.333   0.298   9.488
 1897POPC   PO427084  35.038   0.350   9.375
 1897POPC   GL127085  34.726   0.606   9.121
 1897POPC   GL227086  34.365   0.695   9.139
 1897POPC   C1A27087  34.670   0.848   8.742
 1897POPC   D2A27088  34.401   0.711   8.438
 1897POPC   C3A27089  34.564   0.519   8.098
 1897POPC   C4A27090  34.663   0.561   7.665
 1897POPC   C1B27091  34.299   0.369   8.847
 1897POPC   C2B27092  34.313   0.182   8.469
 1897POPC   C3B27093  34.129   0.242   8.088
 1897POPC   C4B27094  34.331   0.207   7.731
 1898POPC   NC327095   5.939  23.424   9.592
 1898POPC   PO427096   6.303  23.960   9.694
 1898POPC   GL127097   5.906  23.852   9.329
 1898POPC   GL227098   5.874  23.487   9.115
 1898POPC   C1A27099   5.753  23.908   8.870
 1898POPC   D2A27100   5.528  23.998   8.478
 1898POPC   C3A27101   5.715  23.771   8.132
 1898POPC   C4A27102   5.896  23.911   7.762
 1898POPC   C1B27103   6.192  23.555   8.809
 1898POPC   C2B27104   6.150  23.877   8.490
 1898POPC   C3B27105   6.279  23.838   8.078
 1898POPC   C4B27106   6.212  23.488   7.792
 1899POPC   NC327107   7.894  36.429   9.541
 1899POPC   PO427108   8.289  35.903   9.460
 1899POPC   GL127109   8.032  36.066   9.169
 1899POPC   GL227110   8.242  36.367   9.155
 1899POPC   C1A27111   7.920  35.961   8.746
 1899POPC   D2A27112   8.138  36.015   8.335
 1899POPC   C3A27113   8.017  36.291   8.004
 1899POPC   C4A27114   8.110  36.145   7.562
 1899POPC   C1B27115   8.104  36.456   8.741
 1899POPC   C2B27116   8.338  36.477   8.370
 1899POPC   C3B27117   8.517  36.272   8.026
 1899POPC   C4B27118   8.384  36.541   7.689
 1900POPC   NC327119  13.509   6.179   9.453
 1900POPC   PO427120  13.981   5.773   9.488
 1900POPC   GL127121  13.800   5.826   9.098
 1900POPC   GL227122  13.428   5.814   9.097
 1900POPC   C1A27123  13.710   5.555   8.736
 1900POPC   D2A27124  13.707   5.437   8.311
 1900POPC   C3A27125  13.617   5.818   8.097
 1900POPC   C4A27126  13.700   5.982   7.710
 1900POPC   C1B27127  13.528   6.073   8.726
 1900POPC   C2B27128  13.289   6.138   8.343
 1900POPC   C3B27129  13.167   5.980   7.939
 1900POPC   C4B27130  13.222   5.572   7.767
 1901POPC   NC327131  26.186  13.918   9.347
 1901POPC   PO427132  26.518  13.415   9.529
 1901POPC   GL127133  26.149  13.472   9.148
 1901POPC   GL227134  25.828  13.468   8.958
 1901POPC   C1A27135  26.123  13.806   8.737
 1901POPC   D2A27136  26.179  13.868   8.305
 1901POPC   C3A27137  25.832  13.674   8.102
 1901POPC   C4A27138  25.826  13.770   7.679
 1901POPC   C1B27139  26.192  13.305   8.673
 1901POPC   C2B27140  26.331  13.387   8.251
 1901POPC   C3B27141  26.274  13.521   7.875
 1901POPC   C4B27142  25.976  13.283   7.671
 1902POPC   NC327143  16.993   0.909   9.445
 1902POPC   PO427144  16.537   0.313   9.446
 1902POPC   GL127145  16.620   0.439   9.034
 1902POPC   GL227146  16.953   0.537   9.041
 1902POPC   C1A27147  16.456   0.256   8.640
 1902POPC   D2A27148  16.458   0.477   8.244
 1902POPC   C3A27149  16.811   0.519   7.997
 1902POPC   C4A27150  16.705   0.265   7.654
 1902POPC   C1B27151  16.850   0.580   8.581
 1902POPC   C2B27152  17.065   0.874   8.263
 1902POPC   C3B27153  17.158   0.873   7.804
 1902POPC   C4B27154  17.078   0.580   7.482
 1903POPC   NC327155  23.058  24.783   9.705
 1903POPC   PO427156  23.193  24.126   9.468
 1903POPC   GL127157  23.088  24.454   9.079
 1903POPC   GL227158  22.861  24.754   9.057
 1903POPC   C1A27159  22.805  24.404   8.685
 1903POPC   D2A27160  22.539  24.663   8.424
 1903POPC   C3A27161  22.531  24.439   8.038
 1903POPC   C4A27162  22.541  24.507   7.631
 1903POPC   C1B27163  23.112  24.795   8.658
 1903POPC   C2B27164  23.246  24.506   8.330
 1903POPC   C3B27165  23.031  24.436   7.948
 1903POPC   C4B27166  23.048  24.598   7.545
 1904POPC   NC327167  42.895   9.275   9.402
 1904POPC   PO427168  43.303   8.767   9.237
 1904POPC   GL127169  43.159   8.694   8.895
 1904POPC   GL227170  42.917   8.967   8.947
 1904POPC   C1A27171  43.151   8.826   8.485
 1904POPC   D2A27172  42.828   8.997   8.264
 1904POPC   C3A27173  42.832   8.928   7.856
 1904POPC   C4A27174  43.170   8.664   7.700
 1904POPC   C1B27175  43.058   9.322   8.656
 1904POPC   C2B27176  43.115   9.416   8.186
 1904POPC   C3B27177  43.231   9.219   7.745
 1904POPC   C4B27178  43.206   9.272   7.257
 1905POPC   NC327179  43.486  43.188  10.141
 1905POPC   PO427180  43.887  43.256   9.581
 1905POPC   GL127181  43.719  43.120   9.226
 1905POPC   GL227182  44.044  43.101   9.075
 1905POPC   C1A27183  43.627  43.369   8.866
 1905POPC   D2A27184  43.873  43.384   8.526
 1905POPC   C3A27185  43.714  43.225   8.158
 1905POPC   C4A27186  43.754  43.293   7.715
 1905POPC   C1B27187  44.284  42.842   8.748
 1905POPC   C2B27188  44.185  43.015   8.331
 1905POPC   C3B27189  44.053  42.897   7.919
 1905POPC   C4B27190  43.996  42.907   7.444
 1906POPC   NC327191  15.316  43.660   9.670
 1906POPC   PO427192  15.101  44.151   9.515
 1906POPC   GL127193  15.282  43.939   9.172
 1906POPC   GL227194  15.108  43.634   9.188
 1906POPC   C1A27195  15.170  43.851   8.743
 1906POPC   D2A27196  15.248  43.722   8.356
 1906POPC   C3A27197  14.963  43.959   8.124
 1906POPC   C4A27198  14.998  43.894   7.728
 1906POPC   C1B27199  15.508  43.512   8.916
 1906POPC   C2B27200  15.606  43.359   8.449
 1906POPC   C3B27201  15.520  43.453   7.984
 1906POPC   C4B27202  15.461  43.655   7.552
 1907POPC   NC327203  28.005  29.278   9.460
 1907POPC   PO427204  27.333  29.003   9.508
 1907POPC   GL127205  27.462  29.209   9.162
 1907POPC   GL227206  27.176  29.367   9.081
 1907POPC   C1A27207  27.653  29.112   8.772
 1907POPC   D2A27208  27.810  29.374   8.433
 1907POPC   C3A27209  27.852  29.169   8.053
 1907POPC   C4A27210  27.799  29.354   7.647
 1907POPC   C1B27211  27.169  29.253   8.655
 1907POPC   C2B27212  27.371  29.071   8.329
 1907POPC   C3B27213  27.376  29.260   7.959
 1907POPC   C4B27214  27.321  29.574   7.710
 1908POPC   NC327215   8.595  31.067   9.372
 1908POPC   PO427216   7.995  30.737   9.523
 1908POPC   GL127217   7.964  30.799   9.111
 1908POPC   GL227218   8.292  30.841   9.031
 1908POPC   C1A27219   7.967  30.584   8.716
 1908POPC   D2A27220   8.187  30.728   8.361
 1908POPC   C3A27221   7.963  30.548   8.041
 1908POPC   C4A27222   7.881  30.666   7.631
 1908POPC   C1B27223   8.525  30.988   8.694
 1908POPC   C2B27224   8.764  30.892   8.358
 1908POPC   C3B27225   8.615  30.870   7.978
 1908POPC   C4B27226   8.380  30.610   7.730
 1909POPC   NC327227  25.853  43.556   9.405
 1909POPC   PO427228  26.070  44.152   9.725
 1909POPC   GL127229  26.207  43.969   9.331
 1909POPC   GL227230  26.130  44.267   9.210
 1909POPC   C1A27231  26.154  43.816   8.872
 1909POPC   D2A27232  25.808  43.766   8.566
 1909POPC   C3A27233  25.937  43.686   8.140
 1909POPC   C4A27234  25.796  43.837   7.771
 1909POPC   C1B27235  25.873  44.240   8.852
 1909POPC   C2B27236  26.104  44.182   8.468
 1909POPC   C3B27237  26.012  44.251   8.049
 1909POPC   C4B27238  26.093  44.248   7.615
 1910POPC   NC327239  16.224  40.623   9.458
 1910POPC   PO427240  15.591  40.984   9.442
 1910POPC   GL127241  15.840  40.833   9.152
 1910POPC   GL227242  16.126  41.018   9.129
 1910POPC   C1A27243  15.773  40.696   8.765
 1910POPC   D2A27244  15.870  40.901   8.386
 1910POPC   C3A27245  15.964  40.597   8.085
 1910POPC   C4A27246  15.988  40.737   7.686
 1910POPC   C1B27247  16.249  40.875   8.738
 1910POPC   C2B27248  16.433  40.972   8.345
 1910POPC   C3B27249  16.191  41.078   8.004
 1910POPC   C4B27250  16.261  41.225   7.590
 1911POPC   NC327251  40.274  17.072   9.483
 1911POPC   PO427252  39.714  16.592   9.357
 1911POPC   GL127253  39.943  16.537   9.023
 1911POPC   GL227254  40.171  16.799   9.075
 1911POPC   C1A27255  40.088  16.527   8.625
 1911POPC   D2A27256  39.945  16.716   8.277
 1911POPC   C3A27257  40.158  16.510   7.979
 1911POPC   C4A27258  40.038  16.348   7.647
 1911POPC   C1B27259  40.058  17.035   8.728
 1911POPC   C2B27260  40.286  17.083   8.376
 1911POPC   C3B27261  40.255  17.032   7.988
 1911POPC   C4B27262  40.109  16.873   7.621
 1912POPC   NC327263  29.152  38.938   9.665
 1912POPC   PO427264  28.709  39.342   9.514
 1912POPC   GL127265  29.049  39.219   9.212
 1912POPC   GL227266  29.273  38.923   9.145
 1912POPC   C1A27267  29.154  39.332   8.788
 1912POPC   D2A27268  29.307  39.437   8.388
 1912POPC   C3A27269  29.014  39.445   8.084
 1912POPC   C4A27270  29.114  39.531   7.672
 1912POPC   C1B27271  28.963  38.864   8.792
 1912POPC   C2B27272  29.091  38.963   8.359
 1912POPC   C3B27273  29.148  38.961   7.905
 1912POPC   C4B27274  28.810  39.132   7.724
 1913POPC   NC327275  37.557   1.625   9.461
 1913POPC   PO427276  38.087   1.980   9.538
 1913POPC   GL127277  37.827   1.974   9.138
 1913POPC   GL227278  37.487   2.137   9.100
 1913POPC   C1A27279  37.841   1.869   8.676
 1913POPC   D2A27280  37.677   1.550   8.363
 1913POPC   C3A27281  37.625   1.704   7.943
 1913POPC   C4A27282  37.990   1.662   7.694
 1913POPC   C1B27283  37.596   2.322   8.692
 1913POPC   C2B27284  37.563   2.325   8.212
 1913POPC   C3B27285  37.648   2.301   7.762
 1913POPC   C4B27286  37.404   2.304   7.348
 1914POPC   NC327287  21.184   7.361   9.517
 1914POPC   PO427288  21.622   7.798   9.438
 1914POPC   GL127289  21.462   7.570   9.062
 1914POPC   GL227290  21.115   7.445   9.026
 1914POPC   C1A27291  21.397   7.564   8.604
 1914POPC   D2A27292  21.189   7.755   8.232
 1914POPC   C3A27293  21.467   7.751   7.887
 1914POPC   C4A27294  21.660   7.340   7.861
 1914POPC   C1B27295  21.069   7.166   8.678
 1914POPC   C2B27296  21.095   7.050   8.240
 1914POPC   C3B27297  21.156   7.313   7.876
 1914POPC   C4B27298  20.960   7.579   7.548
 1915POPC   NC327299  35.705  11.411   9.534
 1915POPC   PO427300  35.081  11.059   9.514
 1915POPC   GL127301  35.296  11.243   9.196
 1915POPC   GL227302  35.499  10.992   9.083
 1915POPC   C1A27303  35.255  11.357   8.767
 1915POPC   D2A27304  35.427  11.422   8.379
 1915POPC   C3A27305  35.195  11.381   8.021
 1915POPC   C4A27306  35.007  11.305   7.633
 1915POPC   C1B27307  35.545  10.960   8.623
 1915POPC   C2B27308  35.482  10.954   8.180
 1915POPC   C3B27309  35.369  10.954   7.759
 1915POPC   C4B27310  35.267  10.863   7.345
 1916POPC   NC327311   9.021  44.318   9.608
 1916POPC   PO427312   9.083  43.650   9.468
 1916POPC   GL127313   9.075  43.883   9.080
 1916POPC   GL227314   8.914  43.621   8.962
 1916POPC   C1A27315   8.873  44.022   8.660
 1916POPC   D2A27316   8.743  44.397   8.403
 1916POPC   C3A27317   8.871  44.297   7.991
 1916POPC   C4A27318   8.921  43.836   7.927
 1916POPC   C1B27319   8.523  43.628   8.751
 1916POPC   C2B27320   8.501  43.537   8.309
 1916POPC   C3B27321   8.692  43.333   7.939
 1916POPC   C4B27322   8.852  43.494   7.552
 1917POPC   NC327323  39.731  21.888   9.594
 1917POPC   PO427324  40.246  22.338   9.504
 1917POPC   GL127325  40.334  22.143   9.133
 1917POPC   GL227326  40.089  21.895   9.157
 1917POPC   C1A27327  40.279  22.252   8.708
 1917POPC   D2A27328  39.978  22.168   8.403
 1917POPC   C3A27329  40.073  22.340   8.002
 1917POPC   C4A27330  40.231  22.365   7.605
 1917POPC   C1B27331  39.918  21.703   8.772
 1917POPC   C2B27332  39.685  21.751   8.380
 1917POPC   C3B27333  39.883  21.853   7.983
 1917POPC   C4B27334  39.908  21.942   7.529
 1918POPC   NC327335  22.827  10.234   9.509
 1918POPC   PO427336  22.755  10.822   9.462
 1918POPC   GL127337  22.880  10.541   9.095
 1918POPC   GL227338  23.093  10.212   9.089
 1918POPC   C1A27339  22.876  10.720   8.676
 1918POPC   D2A27340  22.573  10.846   8.328
 1918POPC   C3A27341  22.653  10.662   7.912
 1918POPC   C4A27342  22.833  10.247   7.794
 1918POPC   C1B27343  22.826  10.188   8.714
 1918POPC   C2B27344  22.838  10.368   8.302
 1918POPC   C3B27345  23.140  10.592   8.025
 1918POPC   C4B27346  23.291  10.403   7.674
 1919POPC   NC327347  12.250  41.372   9.309
 1919POPC   PO427348  11.729  41.860   9.284
 1919POPC   GL127349  12.125  41.789   9.094
 1919POPC   GL227350  11.986  41.556   8.898
 1919POPC   C1A27351  12.419  41.771   8.734
 1919POPC   D2A27352  12.493  41.568   8.363
 1919POPC   C3A27353  12.318  41.746   8.030
 1919POPC   C4A27354  12.138  41.598   7.679
 1919POPC   C1B27355  12.081  41.284   8.578
 1919POPC   C2B27356  11.787  41.107   8.298
 1919POPC   C3B27357  11.721  41.330   7.951
 1919POPC   C4B27358  11.899  41.148   7.593
 1920POPC   NC327359  33.467  18.217   9.588
 1920POPC   PO427360  34.050  18.023   9.588
 1920POPC   GL127361  33.845  18.244   9.237
 1920POPC   GL227362  33.579  18.063   9.093
 1920POPC   C1A27363  33.936  18.326   8.812
 1920POPC   D2A27364  33.850  18.103   8.439
 1920POPC   C3A27365  34.062  18.300   8.091
 1920POPC   C4A27366  34.185  18.248   7.707
 1920POPC   C1B27367  33.420  18.235   8.728
 1920POPC   C2B27368  33.391  18.395   8.340
 1920POPC   C3B27369  33.561  18.188   8.021
 1920POPC   C4B27370  33.653  18.307   7.651
 1921POPC   NC327371  13.112  33.995   9.604
 1921POPC   PO427372  13.178  33.344   9.567
 1921POPC   GL127373  13.060  33.662   9.209
 1921POPC   GL227374  12.709  33.741   9.192
 1921POPC   C1A27375  12.939  33.833   8.740
 1921POPC   D2A27376  13.078  33.904   8.271
 1921POPC   C3A27377  12.852  33.849   7.855
 1921POPC   C4A27378  13.019  33.909   7.428
 1921POPC   C1B27379  12.599  33.456   8.822
 1921POPC   C2B27380  12.542  33.324   8.366
 1921POPC   C3B27381  12.502  33.435   7.900
 1921POPC   C4B27382  12.640  33.506   7.442
 1922POPC   NC327383   1.865  10.453   9.555
 1922POPC   PO427384   2.389  10.837   9.473
 1922POPC   GL127385   2.294  10.485   9.216
 1922POPC   GL227386   1.979  10.532   9.069
 1922POPC   C1A27387   2.370  10.448   8.767
 1922POPC   D2A27388   2.008  10.535   8.497
 1922POPC   C3A27389   2.091  10.724   8.111
 1922POPC   C4A27390   2.115  10.537   7.699
 1922POPC   C1B27391   1.870  10.909   8.839
 1922POPC   C2B27392   1.639  10.924   8.430
 1922POPC   C3B27393   1.604  10.609   8.150
 1922POPC   C4B27394   1.681  10.738   7.772
 1923POPC   NC327395  23.719  20.362   9.371
 1923POPC   PO427396  23.559  20.996   9.505
 1923POPC   GL127397  23.647  20.843   9.127
 1923POPC   GL227398  24.010  20.775   9.151
 1923POPC   C1A27399  23.738  20.904   8.718
 1923POPC   D2A27400  24.038  20.814   8.411
 1923POPC   C3A27401  23.792  20.895   8.104
 1923POPC   C4A27402  23.703  20.762   7.659
 1923POPC   C1B27403  23.990  20.475   8.794
 1923POPC   C2B27404  23.668  20.464   8.470
 1923POPC   C3B27405  23.677  20.414   8.028
 1923POPC   C4B27406  23.557  20.169   7.692
 1924POPC   NC327407  34.202  27.265   9.496
 1924POPC   PO427408  34.788  27.633   9.481
 1924POPC   GL127409  34.963  27.630   9.057
 1924POPC   GL227410  35.044  27.265   9.031
 1924POPC   C1A27411  34.897  27.516   8.624
 1924POPC   D2A27412  34.672  27.383   8.315
 1924POPC   C3A27413  34.671  27.570   7.932
 1924POPC   C4A27414  34.331  27.588   7.687
 1924POPC   C1B27415  34.592  27.159   8.850
 1924POPC   C2B27416  34.469  26.938   8.436
 1924POPC   C3B27417  34.386  27.085   8.000
 1924POPC   C4B27418  34.435  27.114   7.562
 1925POPC   NC327419  25.095  44.207   9.443
 1925POPC   PO427420  25.363  43.562   9.335
 1925POPC   GL127421  25.154  43.864   9.046
 1925POPC   GL227422  25.336  44.235   9.001
 1925POPC   C1A27423  25.104  43.678   8.620
 1925POPC   D2A27424  25.039  43.492   8.210
 1925POPC   C3A27425  25.289  43.736   7.891
 1925POPC   C4A27426  25.266  43.834   7.418
 1925POPC   C1B27427  25.034  44.185   8.662
 1925POPC   C2B27428  25.071  44.076   8.226
 1925POPC   C3B27429  25.126  44.187   7.764
 1925POPC   C4B27430  25.243  44.329   7.318
 1926POPC   NC327431  40.362  25.944   9.377
 1926POPC   PO427432  39.871  26.268   9.758
 1926POPC   GL127433  39.708  26.270   9.259
 1926POPC   GL227434  39.909  26.005   9.136
 1926POPC   C1A27435  39.737  26.301   8.774
 1926POPC   D2A27436  39.973  26.089   8.407
 1926POPC   C3A27437  39.972  26.243   7.955
 1926POPC   C4A27438  40.009  26.253   7.482
 1926POPC   C1B27439  40.090  25.748   8.805
 1926POPC   C2B27440  40.005  25.562   8.408
 1926POPC   C3B27441  39.979  25.729   7.991
 1926POPC   C4B27442  39.887  25.767   7.542
 1927POPC   NC327443   8.229  13.108   9.427
 1927POPC   PO427444   7.917  12.507   9.328
 1927POPC   GL127445   8.166  12.736   9.085
 1927POPC   GL227446   8.519  12.655   9.189
 1927POPC   C1A27447   8.094  12.924   8.709
 1927POPC   D2A27448   7.972  13.058   8.320
 1927POPC   C3A27449   8.051  12.931   7.903
 1927POPC   C4A27450   7.859  13.095   7.476
 1927POPC   C1B27451   8.606  12.863   8.782
 1927POPC   C2B27452   8.488  13.132   8.431
 1927POPC   C3B27453   8.592  13.016   8.019
 1927POPC   C4B27454   8.600  12.680   7.713
 1928POPC   NC327455  26.414  39.838   9.854
 1928POPC   PO427456  26.729  40.172   9.365
 1928POPC   GL127457  27.005  40.109   9.044
 1928POPC   GL227458  27.017  39.795   9.123
 1928POPC   C1A27459  26.904  40.253   8.661
 1928POPC   D2A27460  26.501  40.183   8.417
 1928POPC   C3A27461  26.461  40.363   8.012
 1928POPC   C4A27462  26.448  40.217   7.605
 1928POPC   C1B27463  26.796  39.747   8.733
 1928POPC   C2B27464  26.891  39.882   8.315
 1928POPC   C3B27465  26.930  40.137   7.957
 1928POPC   C4B27466  26.941  39.831   7.666
 1929POPC   NC327467  35.917   0.275   9.579
 1929POPC   PO427468  36.630   0.251   9.442
 1929POPC   GL127469  36.230   0.325   9.173
 1929POPC   GL227470  36.130   0.699   9.167
 1929POPC   C1A27471  36.024   0.403   8.767
 1929POPC   D2A27472  36.049   0.634   8.380
 1929POPC   C3A27473  35.884   0.374   8.054
 1929POPC   C4A27474  36.176   0.152   7.771
 1929POPC   C1B27475  36.288   0.882   8.761
 1929POPC   C2B27476  36.548   0.790   8.402
 1929POPC   C3B27477  36.394   0.845   7.977
 1929POPC   C4B27478  36.456   0.890   7.511
 1930POPC   NC327479  14.012   5.353   9.268
 1930POPC   PO427480  14.294   5.005   9.792
 1930POPC   GL127481  14.380   4.968   9.292
 1930POPC   GL227482  14.672   5.209   9.147
 1930POPC   C1A27483  14.442   4.923   8.826
 1930POPC   D2A27484  14.510   4.754   8.426
 1930POPC   C3A27485  14.445   5.035   8.067
 1930POPC   C4A27486  14.373   4.914   7.626
 1930POPC   C1B27487  14.542   5.454   8.776
 1930POPC   C2B27488  14.205   5.435   8.471
 1930POPC   C3B27489  14.165   5.569   8.037
 1930POPC   C4B27490  14.410   5.416   7.680
 1931POPC   NC327491  24.019  27.702   9.362
 1931POPC   PO427492  24.755  27.627   9.495
 1931POPC   GL127493  24.478  27.651   9.157
 1931POPC   GL227494  24.508  27.294   9.008
 1931POPC   C1A27495  24.471  27.754   8.735
 1931POPC   D2A27496  24.667  27.439   8.488
 1931POPC   C3A27497  24.634  27.505   8.040
 1931POPC   C4A27498  24.509  27.820   7.772
 1931POPC   C1B27499  24.149  27.392   8.786
 1931POPC   C2B27500  24.164  27.536   8.358
 1931POPC   C3B27501  24.124  27.374   7.952
 1931POPC   C4B27502  24.339  27.366   7.580
 1932POPC   NC327503  23.164   5.599   9.719
 1932POPC   PO427504  22.544   5.701   9.505
 1932POPC   GL127505  22.738   5.616   9.148
 1932POPC   GL227506  23.017   5.687   9.233
 1932POPC   C1A27507  22.627   5.535   8.749
 1932POPC   D2A27508  22.665   5.760   8.376
 1932POPC   C3A27509  22.759   5.623   8.008
 1932POPC   C4A27510  22.791   5.889   7.661
 1932POPC   C1B27511  23.000   5.900   8.830
 1932POPC   C2B27512  23.186   5.799   8.447
 1932POPC   C3B27513  23.145   5.945   8.038
 1932POPC   C4B27514  23.306   6.023   7.626
 1933POPC   NC327515  13.917  34.212   9.486
 1933POPC   PO427516  14.587  34.388   9.627
 1933POPC   GL127517  14.532  34.671   9.234
 1933POPC   GL227518  14.171  34.832   9.207
 1933POPC   C1A27519  14.726  34.614   8.811
 1933POPC   D2A27520  14.571  34.416   8.421
 1933POPC   C3A27521  14.474  34.706   8.064
 1933POPC   C4A27522  14.653  34.649   7.654
 1933POPC   C1B27523  14.190  34.547   8.852
 1933POPC   C2B27524  14.071  34.562   8.420
 1933POPC   C3B27525  14.049  34.421   8.004
 1933POPC   C4B27526  14.153  34.633   7.604
 1934POPC   NC327527  36.475  36.270   9.433
 1934POPC   PO427528  35.906  36.355   9.626
 1934POPC   GL127529  35.967  36.278   9.211
 1934POPC   GL227530  35.778  36.572   9.160
 1934POPC   C1A27531  36.133  36.127   8.783
 1934POPC   D2A27532  36.238  36.376   8.360
 1934POPC   C3A27533  36.270  36.163   7.951
 1934POPC   C4A27534  36.435  35.719   7.903
 1934POPC   C1B27535  35.729  36.430   8.785
 1934POPC   C2B27536  35.707  36.231   8.431
 1934POPC   C3B27537  35.650  36.399   8.070
 1934POPC   C4B27538  35.839  36.360   7.710
 1935POPC   NC327539  30.179  28.641   9.540
 1935POPC   PO427540  30.247  29.323   9.441
 1935POPC   GL127541  30.084  29.246   9.088
 1935POPC   GL227542  30.026  28.923   9.151
 1935POPC   C1A27543  29.992  29.190   8.684
 1935POPC   D2A27544  29.960  29.070   8.304
 1935POPC   C3A27545  29.988  29.193   7.938
 1935POPC   C4A27546  29.646  29.168   7.780
 1935POPC   C1B27547  30.300  28.805   8.835
 1935POPC   C2B27548  30.428  28.920   8.443
 1935POPC   C3B27549  30.297  28.770   8.052
 1935POPC   C4B27550  30.131  28.767   7.683
 1936POPC   NC327551   1.787  13.084   9.331
 1936POPC   PO427552   1.820  13.750   9.567
 1936POPC   GL127553   1.734  13.762   9.126
 1936POPC   GL227554   2.001  13.523   9.021
 1936POPC   C1A27555   1.721  13.766   8.662
 1936POPC   D2A27556   1.885  13.405   8.438
 1936POPC   C3A27557   1.837  13.492   8.005
 1936POPC   C4A27558   1.968  13.840   7.753
 1936POPC   C1B27559   2.224  13.818   8.714
 1936POPC   C2B27560   2.202  13.806   8.250
 1936POPC   C3B27561   2.429  13.978   7.884
 1936POPC   C4B27562   2.410  13.815   7.442
 1937POPC   NC327563  10.544  10.137   9.456
 1937POPC   PO427564  10.156  10.658   9.502
 1937POPC   GL127565  10.338  10.526   9.143
 1937POPC   GL227566  10.699  10.475   9.115
 1937POPC   C1A27567  10.308  10.239   8.823
 1937POPC   D2A27568  10.439  10.185   8.416
 1937POPC   C3A27569  10.402  10.530   8.141
 1937POPC   C4A27570  10.507  10.308   7.770
 1937POPC   C1B27571  10.657  10.606   8.702
 1937POPC   C2B27572  10.658  10.916   8.409
 1937POPC   C3B27573  10.832  10.876   8.047
 1937POPC   C4B27574  10.638  10.765   7.711
 1938POPC   NC327575   8.036  33.298   9.599
 1938POPC   PO427576   8.505  32.836   9.440
 1938POPC   GL127577   8.267  33.063   9.132
 1938POPC   GL227578   7.920  32.980   9.179
 1938POPC   C1A27579   8.252  32.929   8.704
 1938POPC   D2A27580   8.238  32.686   8.307
 1938POPC   C3A27581   8.436  32.924   7.970
 1938POPC   C4A27582   8.288  33.361   7.896
 1938POPC   C1B27583   7.797  33.157   8.781
 1938POPC   C2B27584   7.951  33.201   8.360
 1938POPC   C3B27585   7.929  32.998   7.988
 1938POPC   C4B27586   8.027  32.630   7.801
 1939POPC   NC327587  18.759  37.838   9.601
 1939POPC   PO427588  19.383  37.654   9.508
 1939POPC   GL127589  19.226  37.412   9.123
 1939POPC   GL227590  18.850  37.398   9.111
 1939POPC   C1A27591  19.205  37.472   8.679
 1939POPC   D2A27592  19.467  37.454   8.343
 1939POPC   C3A27593  19.335  37.740   8.013
 1939POPC   C4A27594  19.361  37.523   7.622
 1939POPC   C1B27595  18.794  37.740   8.822
 1939POPC   C2B27596  18.962  37.925   8.467
 1939POPC   C3B27597  18.833  37.899   8.040
 1939POPC   C4B27598  18.859  37.674   7.655
 1940POPC   NC327599  23.637  10.138   9.584
 1940POPC   PO427600  23.846  10.833   9.537
 1940POPC   GL127601  23.690  10.735   9.153
 1940POPC   GL227602  23.551  10.428   9.179
 1940POPC   C1A27603  23.877  10.527   8.776
 1940POPC   D2A27604  24.020  10.540   8.365
 1940POPC   C3A27605  23.750  10.854   8.176
 1940POPC   C4A27606  23.563  10.803   7.776
 1940POPC   C1B27607  23.347  10.529   8.807
 1940POPC   C2B27608  23.373  10.378   8.422
 1940POPC   C3B27609  23.633  10.373   8.066
 1940POPC   C4B27610  23.782  10.297   7.646
 1941POPC   NC327611   0.941  38.086   9.471
 1941POPC   PO427612   0.339  37.836   9.499
 1941POPC   GL127613   0.634  37.778   9.166
 1941POPC   GL227614   0.352  37.835   8.977
 1941POPC   C1A27615   0.728  37.519   8.809
 1941POPC   D2A27616   0.640  37.629   8.395
 1941POPC   C3A27617   0.565  37.323   8.085
 1941POPC   C4A27618   0.511  37.234   7.633
 1941POPC   C1B27619  44.969  38.018   8.836
 1941POPC   C2B27620  44.847  38.017   8.397
 1941POPC   C3B27621   0.049  37.973   7.984
 1941POPC   C4B27622   0.468  37.782   7.909
 1942POPC   NC327623  17.078  34.772   9.483
 1942POPC   PO427624  16.521  34.436   9.427
 1942POPC   GL127625  16.848  34.534   9.103
 1942POPC   GL227626  16.758  34.893   9.095
 1942POPC   C1A27627  16.966  34.289   8.743
 1942POPC   D2A27628  16.757  34.402   8.388
 1942POPC   C3A27629  16.899  34.428   7.984
 1942POPC   C4A27630  16.515  34.329   7.774
 1942POPC   C1B27631  16.571  34.979   8.686
 1942POPC   C2B27632  16.762  34.906   8.267
 1942POPC   C3B27633  16.571  34.838   7.866
 1942POPC   C4B27634  16.695  34.882   7.465
 1943POPC   NC327635   1.407  42.056   9.393
 1943POPC   PO427636   0.787  42.215   9.603
 1943POPC   GL127637   1.006  42.317   9.173
 1943POPC   GL227638   1.348  42.496   9.108
 1943POPC   C1A27639   1.083  42.128   8.735
 1943POPC   D2A27640   0.923  42.269   8.318
 1943POPC   C3A27641   1.146  42.168   7.912
 1943POPC   C4A27642   1.417  42.127   7.541
 1943POPC   C1B27643   1.227  42.616   8.672
 1943POPC   C2B27644   1.400  42.454   8.276
 1943POPC   C3B27645   1.506  42.539   7.856
 1943POPC   C4B27646   1.446  42.703   7.470
 1944POPC   NC327647  14.929  34.716   9.567
 1944POPC   PO427648  15.025  34.191   9.259
 1944POPC   GL127649  15.183  34.542   9.106
 1944POPC   GL227650  15.303  34.833   9.221
 1944POPC   C1A27651  15.358  34.600   8.725
 1944POPC   D2A27652  15.285  34.540   8.301
 1944POPC   C3A27653  14.950  34.441   8.044
 1944POPC   C4A27654  15.154  34.497   7.659
 1944POPC   C1B27655  15.078  35.015   8.878
 1944POPC   C2B27656  15.204  35.056   8.456
 1944POPC   C3B27657  15.150  34.948   8.009
 1944POPC   C4B27658  15.040  34.984   7.583
 1945POPC   NC327659  40.657  10.763   9.504
 1945POPC   PO427660  40.870  10.111   9.562
 1945POPC   GL127661  41.010  10.431   9.205
 1945POPC   GL227662  41.036  10.796   9.154
 1945POPC   C1A27663  41.102  10.508   8.740
 1945POPC   D2A27664  40.855  10.722   8.415
 1945POPC   C3A27665  40.870  10.642   7.977
 1945POPC   C4A27666  40.720  10.344   7.697
 1945POPC   C1B27667  40.682  10.897   8.858
 1945POPC   C2B27668  40.466  11.068   8.474
 1945POPC   C3B27669  40.407  10.923   8.067
 1945POPC   C4B27670  40.393  10.747   7.673
 1946POPC   NC327671  14.650  27.882   9.450
 1946POPC   PO427672  15.347  27.727   9.554
 1946POPC   GL127673  15.266  27.557   9.165
 1946POPC   GL227674  14.948  27.473   9.278
 1946POPC   C1A27675  15.384  27.557   8.716
 1946POPC   D2A27676  15.551  27.373   8.334
 1946POPC   C3A27677  15.259  27.335   8.012
 1946POPC   C4A27678  15.041  27.648   7.777
 1946POPC   C1B27679  14.909  27.399   8.854
 1946POPC   C2B27680  14.957  27.468   8.435
 1946POPC   C3B27681  14.691  27.587   8.135
 1946POPC   C4B27682  14.764  27.238   7.873
 1947POPC   NC327683  21.983   8.893   9.609
 1947POPC   PO427684  22.692   9.120   9.766
 1947POPC   GL127685  22.417   8.950   9.364
 1947POPC   GL227686  22.498   8.943   9.061
 1947POPC   C1A27687  22.017   8.936   8.985
 1947POPC   D2A27688  21.908   8.861   8.558
 1947POPC   C3A27689  21.851   9.187   8.259
 1947POPC   C4A27690  22.005   9.059   7.852
 1947POPC   C1B27691  22.417   9.102   8.632
 1947POPC   C2B27692  22.355   9.245   8.189
 1947POPC   C3B27693  22.523   9.242   7.772
 1947POPC   C4B27694  22.632   9.197   7.330
 1948POPC   NC327695  11.556  23.016   9.710
 1948POPC   PO427696  11.094  22.599   9.418
 1948POPC   GL127697  10.970  22.884   9.056
 1948POPC   GL227698  11.004  23.215   9.175
 1948POPC   C1A27699  11.023  22.980   8.595
 1948POPC   D2A27700  10.964  22.745   8.178
 1948POPC   C3A27701  11.301  22.683   7.859
 1948POPC   C4A27702  11.353  22.669   7.412
 1948POPC   C1B27703  11.365  23.370   8.948
 1948POPC   C2B27704  11.395  23.401   8.488
 1948POPC   C3B27705  11.304  23.152   8.091
 1948POPC   C4B27706  11.340  23.130   7.612
 1949POPC   NC327707  43.454  22.465   9.465
 1949POPC   PO427708  43.222  21.825   9.704
 1949POPC   GL127709  43.036  21.844   9.266
 1949POPC   GL227710  43.041  22.172   9.161
 1949POPC   C1A27711  42.842  21.839   8.829
 1949POPC   D2A27712  42.895  22.110   8.447
 1949POPC   C3A27713  43.003  21.895   8.063
 1949POPC   C4A27714  43.373  21.909   7.779
 1949POPC   C1B27715  43.155  22.418   8.822
 1949POPC   C2B27716  43.177  22.591   8.426
 1949POPC   C3B27717  43.135  22.466   8.020
 1949POPC   C4B27718  43.396  22.416   7.673
 1950POPC   NC327719  24.570   6.323   9.454
 1950POPC   PO427720  24.833   6.950   9.532
 1950POPC   GL127721  24.616   6.806   9.129
 1950POPC   GL227722  24.426   6.506   9.013
 1950POPC   C1A27723  24.698   6.808   8.665
 1950POPC   D2A27724  24.985   6.878   8.299
 1950POPC   C3A27725  24.718   6.862   7.944
 1950POPC   C4A27726  24.478   6.492   7.836
 1950POPC   C1B27727  24.183   6.768   8.755
 1950POPC   C2B27728  24.256   6.977   8.360
 1950POPC   C3B27729  24.166   6.857   7.956
 1950POPC   C4B27730  24.064   6.643   7.559
 1951POPC   NC327731   8.092   8.467   9.655
 1951POPC   PO427732   8.399   9.051   9.736
 1951POPC   GL127733   8.139   8.941   9.366
 1951POPC   GL227734   8.389   8.735   9.256
 1951POPC   C1A27735   8.045   9.009   8.898
 1951POPC   D2A27736   8.168   8.822   8.480
 1951POPC   C3A27737   8.083   9.070   8.067
 1951POPC   C4A27738   8.200   9.240   7.646
 1951POPC   C1B27739   8.488   8.546   8.881
 1951POPC   C2B27740   8.488   8.412   8.476
 1951POPC   C3B27741   8.406   8.574   8.093
 1951POPC   C4B27742   8.289   8.746   7.731
 1952POPC   NC327743  34.865  36.174   9.478
 1952POPC   PO427744  34.260  35.964   9.582
 1952POPC   GL127745  34.503  35.997   9.176
 1952POPC   GL227746  34.488  36.387   9.158
 1952POPC   C1A27747  34.803  36.024   8.771
 1952POPC   D2A27748  34.866  35.787   8.331
 1952POPC   C3A27749  34.795  36.097   8.024
 1952POPC   C4A27750  34.763  36.273   7.632
 1952POPC   C1B27751  34.281  36.634   8.801
 1952POPC   C2B27752  34.164  36.481   8.368
 1952POPC   C3B27753  34.265  36.289   7.936
 1952POPC   C4B27754  34.288  36.334   7.452
 1953POPC   NC327755  41.163  34.001   9.500
 1953POPC   PO427756  41.719  33.642   9.579
 1953POPC   GL127757  41.530  33.734   9.209
 1953POPC   GL227758  41.437  33.442   9.118
 1953POPC   C1A27759  41.412  33.943   8.841
 1953POPC   D2A27760  41.494  34.157   8.469
 1953POPC   C3A27761  41.323  34.056   8.070
 1953POPC   C4A27762  41.097  34.019   7.680
 1953POPC   C1B27763  41.520  33.468   8.692
 1953POPC   C2B27764  41.539  33.649   8.321
 1953POPC   C3B27765  41.557  33.571   7.930
 1953POPC   C4B27766  41.354  33.580   7.548
 1954POPC   NC327767   4.981  31.871   9.552
 1954POPC   PO427768   5.179  32.510   9.597
 1954POPC   GL127769   5.285  32.340   9.176
 1954POPC   GL227770   5.344  31.965   9.139
 1954POPC   C1A27771   5.032  32.196   8.798
 1954POPC   D2A27772   5.101  32.040   8.357
 1954POPC   C3A27773   4.995  32.287   7.980
 1954POPC   C4A27774   4.938  32.227   7.514
 1954POPC   C1B27775   5.534  32.195   8.752
 1954POPC   C2B27776   5.534  32.369   8.367
 1954POPC   C3B27777   5.486  32.129   7.985
 1954POPC   C4B27778   5.530  31.835   7.685
 1955POPC   NC327779   9.006  32.666   9.571
 1955POPC   PO427780   8.633  32.077   9.662
 1955POPC   GL127781   8.784  32.154   9.271
 1955POPC   GL227782   8.497  32.016   9.108
 1955POPC   C1A27783   8.757  32.441   8.917
 1955POPC   D2A27784   9.061  32.405   8.596
 1955POPC   C3A27785   8.980  32.275   8.208
 1955POPC   C4A27786   9.086  32.319   7.825
 1955POPC   C1B27787   8.802  31.954   8.785
 1955POPC   C2B27788   9.076  31.848   8.482
 1955POPC   C3B27789   9.055  31.804   8.035
 1955POPC   C4B27790   8.749  31.897   7.733
 1956POPC   NC327791   7.964  10.106   9.476
 1956POPC   PO427792   7.580   9.553   9.457
 1956POPC   GL127793   7.483   9.776   9.112
 1956POPC   GL227794   7.749   9.946   9.018
 1956POPC   C1A27795   7.229   9.993   8.863
 1956POPC   D2A27796   7.107   9.869   8.490
 1956POPC   C3A27797   7.333   9.943   8.116
 1956POPC   C4A27798   7.421   9.837   7.667
 1956POPC   C1B27799   7.647   9.800   8.581
 1956POPC   C2B27800   7.850   9.538   8.224
 1956POPC   C3B27801   7.930   9.678   7.765
 1956POPC   C4B27802   7.925   9.540   7.296
 1957POPC   NC327803  34.090  41.810   9.488
 1957POPC   PO427804  33.502  41.538   9.672
 1957POPC   GL127805  33.683  41.541   9.264
 1957POPC   GL227806  33.506  41.247   9.165
 1957POPC   C1A27807  33.878  41.713   8.848
 1957POPC   D2A27808  33.923  41.494   8.444
 1957POPC   C3A27809  34.098  41.620   8.057
 1957POPC   C4A27810  33.977  41.496   7.670
 1957POPC   C1B27811  33.706  41.192   8.812
 1957POPC   C2B27812  33.500  41.210   8.433
 1957POPC   C3B27813  33.679  41.281   8.020
 1957POPC   C4B27814  33.591  41.121   7.584
 1958POPC   NC327815  26.528  10.429   9.617
 1958POPC   PO427816  26.950  11.001   9.676
 1958POPC   GL127817  26.858  10.600   9.291
 1958POPC   GL227818  26.571  10.464   9.116
 1958POPC   C1A27819  27.124  10.461   8.958
 1958POPC   D2A27820  27.161  10.325   8.540
 1958POPC   C3A27821  27.004  10.487   8.157
 1958POPC   C4A27822  27.150  10.276   7.794
 1958POPC   C1B27823  26.700  10.666   8.757
 1958POPC   C2B27824  26.557  10.663   8.373
 1958POPC   C3B27825  26.487  10.335   8.108
 1958POPC   C4B27826  26.651  10.309   7.750
 1959POPC   NC327827   2.164  20.254   9.300
 1959POPC   PO427828   1.706  20.807   9.422
 1959POPC   GL127829   1.964  20.668   9.095
 1959POPC   GL227830   2.094  20.946   9.020
 1959POPC   C1A27831   2.053  20.433   8.689
 1959POPC   D2A27832   2.037  20.333   8.244
 1959POPC   C3A27833   1.664  20.478   8.019
 1959POPC   C4A27834   1.831  20.346   7.646
 1959POPC   C1B27835   1.946  20.930   8.630
 1959POPC   C2B27836   1.939  20.834   8.237
 1959POPC   C3B27837   2.079  20.748   7.825
 1959POPC   C4B27838   2.048  20.982   7.421
 1960POPC   NC327839   2.482  12.691   9.417
 1960POPC   PO427840   1.813  12.679   9.555
 1960POPC   GL127841   2.030  12.664   9.143
 1960POPC   GL227842   1.703  12.664   9.029
 1960POPC   C1A27843   2.029  12.926   8.741
 1960POPC   D2A27844   1.866  12.894   8.355
 1960POPC   C3A27845   2.092  13.037   8.031
 1960POPC   C4A27846   1.937  13.112   7.645
 1960POPC   C1B27847   1.536  12.460   8.664
 1960POPC   C2B27848   1.480  12.594   8.268
 1960POPC   C3B27849   1.842  12.453   8.067
 1960POPC   C4B27850   2.059  12.629   7.738
 1961POPC   NC327851  34.680  19.401   9.529
 1961POPC   PO427852  34.525  20.083   9.551
 1961POPC   GL127853  34.476  19.861   9.175
 1961POPC   GL227854  34.289  19.590   9.164
 1961POPC   C1A27855  34.340  19.935   8.751
 1961POPC   D2A27856  34.661  19.813   8.482
 1961POPC   C3A27857  34.523  19.847   8.100
 1961POPC   C4A27858  34.368  19.895   7.689
 1961POPC   C1B27859  34.429  19.436   8.763
 1961POPC   C2B27860  34.621  19.283   8.395
 1961POPC   C3B27861  34.551  19.320   7.964
 1961POPC   C4B27862  34.770  19.606   7.729
 1962POPC   NC327863  37.155  43.283   9.518
 1962POPC   PO427864  36.517  42.948   9.651
 1962POPC   GL127865  36.738  43.123   9.252
 1962POPC   GL227866  37.057  42.946   9.140
 1962POPC   C1A27867  36.869  43.278   8.821
 1962POPC   D2A27868  36.902  43.129   8.367
 1962POPC   C3A27869  36.883  43.369   7.961
 1962POPC   C4A27870  36.840  43.117   7.567
 1962POPC   C1B27871  37.135  42.820   8.735
 1962POPC   C2B27872  36.960  42.622   8.362
 1962POPC   C3B27873  36.804  42.630   7.945
 1962POPC   C4B27874  36.896  42.460   7.547
 1963POPC   NC327875   8.094  41.977   9.419
 1963POPC   PO427876   8.444  41.448   9.476
 1963POPC   GL127877   8.279  41.494   9.091
 1963POPC   GL227878   8.199  41.806   8.953
 1963POPC   C1A27879   8.427  41.411   8.703
 1963POPC   D2A27880   8.644  41.660   8.431
 1963POPC   C3A27881   8.662  41.455   8.070
 1963POPC   C4A27882   8.346  41.217   7.847
 1963POPC   C1B27883   7.763  41.917   8.795
 1963POPC   C2B27884   7.520  41.817   8.413
 1963POPC   C3B27885   7.742  41.802   8.037
 1963POPC   C4B27886   8.125  41.670   7.861
 1964POPC   NC327887  18.191  24.923   9.981
 1964POPC   PO427888  18.078  25.441   9.562
 1964POPC   GL127889  18.095  25.396   9.156
 1964POPC   GL227890  18.445  25.292   9.203
 1964POPC   C1A27891  18.071  25.100   8.822
 1964POPC   D2A27892  17.977  25.015   8.414
 1964POPC   C3A27893  18.138  25.356   8.164
 1964POPC   C4A27894  18.179  25.341   7.745
 1964POPC   C1B27895  18.640  25.111   8.872
 1964POPC   C2B27896  18.490  25.194   8.498
 1964POPC   C3B27897  18.619  25.185   8.082
 1964POPC   C4B27898  18.626  25.538   7.822
 1965POPC   NC327899   7.251  38.883   9.488
 1965POPC   PO427900   7.867  39.258   9.438
 1965POPC   GL127901   7.628  39.476   9.157
 1965POPC   GL227902   7.300  39.307   9.187
 1965POPC   C1A27903   7.547  39.364   8.734
 1965POPC   D2A27904   7.651  38.970   8.512
 1965POPC   C3A27905   7.651  39.120   8.099
 1965POPC   C4A27906   7.769  39.190   7.678
 1965POPC   C1B27907   7.215  38.988   8.861
 1965POPC   C2B27908   7.138  39.042   8.454
 1965POPC   C3B27909   7.109  39.333   8.141
 1965POPC   C4B27910   7.234  39.158   7.769
 1966POPC   NC327911  28.279  29.970   9.570
 1966POPC   PO427912  28.895  30.108   9.487
 1966POPC   GL127913  28.600  30.017   9.174
 1966POPC   GL227914  28.254  29.795   9.113
 1966POPC   C1A27915  28.563  29.961   8.775
 1966POPC   D2A27916  28.409  29.646   8.543
 1966POPC   C3A27917  28.385  29.726   8.102
 1966POPC   C4A27918  28.640  29.804   7.747
 1966POPC   C1B27919  27.950  29.822   8.838
 1966POPC   C2B27920  27.969  29.880   8.405
 1966POPC   C3B27921  28.032  30.097   7.992
 1966POPC   C4B27922  28.178  29.933   7.574
 1967POPC   NC327923  14.091  33.237   9.622
 1967POPC   PO427924  14.669  32.951   9.693
 1967POPC   GL127925  14.462  33.059   9.292
 1967POPC   GL227926  14.121  32.896   9.238
 1967POPC   C1A27927  14.600  33.187   8.885
 1967POPC   D2A27928  14.618  33.324   8.437
 1967POPC   C3A27929  14.377  33.114   8.102
 1967POPC   C4A27930  14.554  32.948   7.728
 1967POPC   C1B27931  14.123  32.923   8.794
 1967POPC   C2B27932  14.158  32.683   8.385
 1967POPC   C3B27933  14.253  32.611   7.935
 1967POPC   C4B27934  14.170  32.670   7.468
 1968POPC   NC327935   3.712  20.961   9.363
 1968POPC   PO427936   3.300  20.642   9.743
 1968POPC   GL127937   3.293  20.553   9.204
 1968POPC   GL227938   3.437  20.820   8.941
 1968POPC   C1A27939   3.323  20.378   8.764
 1968POPC   D2A27940   3.638  20.422   8.417
 1968POPC   C3A27941   3.536  20.646   8.032
 1968POPC   C4A27942   3.339  20.987   7.806
 1968POPC   C1B27943   3.770  20.882   8.599
 1968POPC   C2B27944   4.012  20.780   8.218
 1968POPC   C3B27945   3.958  20.824   7.766
 1968POPC   C4B27946   3.675  20.863   7.427
 1969POPC   NC327947  15.430  34.100   9.464
 1969POPC   PO427948  14.995  33.579   9.489
 1969POPC   GL127949  15.297  33.739   9.126
 1969POPC   GL227950  15.404  34.097   8.949
 1969POPC   C1A27951  15.322  33.661   8.691
 1969POPC   D2A27952  15.524  33.684   8.311
 1969POPC   C3A27953  15.270  33.526   7.994
 1969POPC   C4A27954  15.501  33.322   7.711
 1969POPC   C1B27955  15.097  34.160   8.618
 1969POPC   C2B27956  15.094  33.965   8.238
 1969POPC   C3B27957  15.176  34.012   7.827
 1969POPC   C4B27958  14.834  34.113   7.544
 1970POPC   NC327959  30.883  28.405   9.594
 1970POPC   PO427960  30.296  28.180   9.568
 1970POPC   GL127961  30.526  28.458   9.194
 1970POPC   GL227962  30.911  28.605   9.139
 1970POPC   C1A27963  30.641  28.438   8.751
 1970POPC   D2A27964  30.506  28.431   8.364
 1970POPC   C3A27965  30.660  28.308   7.984
 1970POPC   C4A27966  30.581  28.542   7.644
 1970POPC   C1B27967  31.151  28.446   8.741
 1970POPC   C2B27968  31.119  28.328   8.257
 1970POPC   C3B27969  31.121  28.451   7.779
 1970POPC   C4B27970  30.994  28.581   7.305
 1971POPC   NC327971  28.530  37.944   9.367
 1971POPC   PO427972  28.335  37.331   9.606
 1971POPC   GL127973  28.471  37.392   9.193
 1971POPC   GL227974  28.147  37.550   9.119
 1971POPC   C1A27975  28.619  37.604   8.806
 1971POPC   D2A27976  28.574  37.907   8.465
 1971POPC   C3A27977  28.643  37.778   8.033
 1971POPC   C4A27978  28.798  37.732   7.612
 1971POPC   C1B27979  28.099  37.724   8.689
 1971POPC   C2B27980  28.060  38.002   8.313
 1971POPC   C3B27981  28.061  37.898   7.862
 1971POPC   C4B27982  28.305  37.561   7.705
 1972POPC   NC327983  26.551  39.738   9.325
 1972POPC   PO427984  26.070  40.139   9.552
 1972POPC   GL127985  26.171  40.228   9.085
 1972POPC   GL227986  26.477  40.117   8.942
 1972POPC   C1A27987  26.042  40.229   8.646
 1972POPC   D2A27988  26.054  39.897   8.301
 1972POPC   C3A27989  25.775  39.879   7.974
 1972POPC   C4A27990  25.951  40.218   7.790
 1972POPC   C1B27991  26.290  39.767   8.730
 1972POPC   C2B27992  26.470  39.596   8.351
 1972POPC   C3B27993  26.489  39.834   7.985
 1972POPC   C4B27994  26.195  39.788   7.670
 1973POPC   NC327995  10.205  42.818   9.623
 1973POPC   PO427996  10.695  42.411   9.736
 1973POPC   GL127997  10.720  42.283   9.316
 1973POPC   GL227998  10.326  42.296   9.277
 1973POPC   C1A27999  10.657  42.151   8.883
 1973POPC   D2A28000  10.286  42.044   8.635
 1973POPC   C3A28001  10.368  41.984   8.195
 1973POPC   C4A28002  10.756  42.045   7.940
 1973POPC   C1B28003  10.223  42.493   8.895
 1973POPC   C2B28004  10.511  42.542   8.564
 1973POPC   C3B28005  10.536  42.474   8.102
 1973POPC   C4B28006  10.210  42.336   7.807
 1974POPC   NC328007   4.742   3.302   9.538
 1974POPC   PO428008   4.081   3.497   9.557
 1974POPC   GL128009   4.432   3.616   9.260
 1974POPC   GL228010   4.194   3.497   9.038
 1974POPC   C1A28011   4.624   3.437   8.838
 1974POPC   D2A28012   4.327   3.465   8.476
 1974POPC   C3A28013   4.534   3.540   8.071
 1974POPC   C4A28014   4.593   3.744   7.681
 1974POPC   C1B28015   3.870   3.241   8.875
 1974POPC   C2B28016   3.736   3.280   8.449
 1974POPC   C3B28017   3.938   3.456   8.110
 1974POPC   C4B28018   4.101   3.459   7.721
 1975POPC   NC328019  15.851   4.086   9.413
 1975POPC   PO428020  15.863   3.536   9.609
 1975POPC   GL128021  15.948   3.454   9.172
 1975POPC   GL228022  16.030   3.762   9.053
 1975POPC   C1A28023  15.968   3.349   8.720
 1975POPC   D2A28024  15.909   3.626   8.376
 1975POPC   C3A28025  15.797   3.427   8.013
 1975POPC   C4A28026  16.021   3.221   7.703
 1975POPC   C1B28027  16.292   3.745   8.705
 1975POPC   C2B28028  16.404   3.720   8.259
 1975POPC   C3B28029  16.185   3.743   7.851
 1975POPC   C4B28030  16.315   3.963   7.457
 1976POPC   NC328031  44.194  41.176   9.468
 1976POPC   PO428032  43.955  40.550   9.576
 1976POPC   GL128033  43.833  40.674   9.171
 1976POPC   GL228034  43.622  40.979   9.104
 1976POPC   C1A28035  43.620  40.593   8.787
 1976POPC   D2A28036  43.562  40.371   8.436
 1976POPC   C3A28037  43.714  40.630   8.113
 1976POPC   C4A28038  43.556  40.704   7.709
 1976POPC   C1B28039  43.969  41.010   8.802
 1976POPC   C2B28040  43.971  41.188   8.375
 1976POPC   C3B28041  43.750  41.119   7.993
 1976POPC   C4B28042  44.021  40.884   7.733
 1977POPC   NC328043  28.692  40.704   9.556
 1977POPC   PO428044  29.182  40.222   9.484
 1977POPC   GL128045  29.177  40.565   9.110
 1977POPC   GL228046  29.163  40.932   9.123
 1977POPC   C1A28047  29.136  40.735   8.658
 1977POPC   D2A28048  28.999  40.665   8.253
 1977POPC   C3A28049  29.312  40.845   8.018
 1977POPC   C4A28050  29.495  40.726   7.658
 1977POPC   C1B28051  29.006  41.198   8.778
 1977POPC   C2B28052  29.019  41.177   8.339
 1977POPC   C3B28053  28.934  41.299   7.931
 1977POPC   C4B28054  28.863  40.910   7.770
 1978POPC   NC328055  34.049  13.367   9.381
 1978POPC   PO428056  33.735  13.932   9.516
 1978POPC   GL128057  33.736  13.704   9.142
 1978POPC   GL228058  34.045  13.837   9.055
 1978POPC   C1A28059  33.834  13.510   8.722
 1978POPC   D2A28060  33.770  13.221   8.392
 1978POPC   C3A28061  33.694  13.328   7.983
 1978POPC   C4A28062  33.992  13.387   7.689
 1978POPC   C1B28063  34.160  13.905   8.629
 1978POPC   C2B28064  34.055  13.689   8.230
 1978POPC   C3B28065  34.015  13.869   7.806
 1978POPC   C4B28066  33.998  13.923   7.345
 1979POPC   NC328067  39.593  34.226   9.183
 1979POPC   PO428068  39.493  34.816   9.478
 1979POPC   GL128069  39.384  34.701   9.092
 1979POPC   GL228070  39.069  34.600   9.186
 1979POPC   C1A28071  39.351  34.689   8.644
 1979POPC   D2A28072  39.308  34.938   8.290
 1979POPC   C3A28073  39.524  34.841   7.969
 1979POPC   C4A28074  39.274  34.795   7.629
 1979POPC   C1B28075  38.976  34.374   8.815
 1979POPC   C2B28076  39.182  34.230   8.427
 1979POPC   C3B28077  39.194  34.447   8.039
 1979POPC   C4B28078  38.915  34.398   7.692
 1980POPC   NC328079   8.193  22.378   9.510
 1980POPC   PO428080   8.017  21.786   9.470
 1980POPC   GL128081   8.158  22.054   9.090
 1980POPC   GL228082   8.228  22.421   8.978
 1980POPC   C1A28083   8.094  22.065   8.625
 1980POPC   D2A28084   7.928  22.357   8.335
 1980POPC   C3A28085   7.863  22.134   8.003
 1980POPC   C4A28086   8.017  22.036   7.648
 1980POPC   C1B28087   8.382  22.505   8.543
 1980POPC   C2B28088   8.328  22.466   8.066
 1980POPC   C3B28089   8.341  22.440   7.636
 1980POPC   C4B28090   8.499  22.723   7.326
 1981POPC   NC328091  18.237  18.709   9.894
 1981POPC   PO428092  17.907  18.575   9.297
 1981POPC   GL128093  18.117  18.868   8.996
 1981POPC   GL228094  18.233  19.123   9.221
 1981POPC   C1A28095  18.232  18.967   8.569
 1981POPC   D2A28096  18.388  18.890   8.161
 1981POPC   C3A28097  18.050  18.902   7.843
 1981POPC   C4A28098  17.858  19.150   7.482
 1981POPC   C1B28099  18.500  19.269   8.876
 1981POPC   C2B28100  18.500  19.402   8.434
 1981POPC   C3B28101  18.575  19.337   7.993
 1981POPC   C4B28102  18.532  19.053   7.652
 1982POPC   NC328103  12.052  11.634   9.804
 1982POPC   PO428104  12.316  12.176   9.504
 1982POPC   GL128105  12.182  12.052   9.123
 1982POPC   GL228106  11.833  11.957   9.155
 1982POPC   C1A28107  12.247  12.091   8.693
 1982POPC   D2A28108  12.154  11.830   8.328
 1982POPC   C3A28109  12.365  11.917   7.900
 1982POPC   C4A28110  12.308  12.145   7.519
 1982POPC   C1B28111  11.749  12.010   8.713
 1982POPC   C2B28112  11.881  12.286   8.370
 1982POPC   C3B28113  11.898  12.112   7.972
 1982POPC   C4B28114  11.820  12.128   7.565
 1983POPC   NC328115   3.686  11.660   9.477
 1983POPC   PO428116   3.860  12.346   9.445
 1983POPC   GL128117   3.697  12.051   9.141
 1983POPC   GL228118   3.324  11.914   9.160
 1983POPC   C1A28119   3.684  12.099   8.709
 1983POPC   D2A28120   3.898  12.094   8.299
 1983POPC   C3A28121   3.779  12.428   8.000
 1983POPC   C4A28122   3.409  12.343   7.747
 1983POPC   C1B28123   3.084  11.902   8.751
 1983POPC   C2B28124   2.969  11.866   8.291
 1983POPC   C3B28125   3.216  11.872   7.892
 1983POPC   C4B28126   3.141  12.047   7.440
 1984POPC   NC328127  24.587  36.413   9.368
 1984POPC   PO428128  24.259  36.960   9.605
 1984POPC   GL128129  24.375  36.844   9.183
 1984POPC   GL228130  24.294  36.511   8.975
 1984POPC   C1A28131  24.459  37.123   8.855
 1984POPC   D2A28132  24.517  37.125   8.442
 1984POPC   C3A28133  24.258  37.006   8.134
 1984POPC   C4A28134  24.458  36.904   7.789
 1984POPC   C1B28135  24.614  36.672   8.689
 1984POPC   C2B28136  24.668  36.692   8.230
 1984POPC   C3B28137  24.849  36.594   7.855
 1984POPC   C4B28138  24.624  36.526   7.459
 1985POPC   NC328139  38.965  15.435   9.550
 1985POPC   PO428140  39.537  15.142   9.266
 1985POPC   GL128141  39.234  15.385   9.104
 1985POPC   GL228142  39.009  15.086   9.195
 1985POPC   C1A28143  39.296  15.487   8.652
 1985POPC   D2A28144  39.101  15.373   8.251
 1985POPC   C3A28145  39.309  15.044   8.036
 1985POPC   C4A28146  39.593  15.163   7.741
 1985POPC   C1B28147  38.876  15.178   8.773
 1985POPC   C2B28148  38.893  14.925   8.417
 1985POPC   C3B28149  38.794  14.983   8.027
 1985POPC   C4B28150  38.921  15.161   7.652
 1986POPC   NC328151  27.672   2.494   9.499
 1986POPC   PO428152  27.633   1.786   9.469
 1986POPC   GL128153  27.712   1.952   9.069
 1986POPC   GL228154  27.706   2.286   9.043
 1986POPC   C1A28155  27.546   1.992   8.659
 1986POPC   D2A28156  27.661   1.851   8.272
 1986POPC   C3A28157  27.567   2.026   7.855
 1986POPC   C4A28158  27.693   1.840   7.454
 1986POPC   C1B28159  27.746   2.445   8.613
 1986POPC   C2B28160  27.620   2.417   8.177
 1986POPC   C3B28161  27.852   2.435   7.792
 1986POPC   C4B28162  28.041   2.214   7.495
 1987POPC   NC328163  34.978  44.667   9.649
 1987POPC   PO428164  34.267  44.742   9.539
 1987POPC   GL128165  34.510  44.667   9.180
 1987POPC   GL228166  34.822  44.882   9.194
 1987POPC   C1A28167  34.641  44.578   8.760
 1987POPC   D2A28168  34.572  44.765   8.348
 1987POPC   C3A28169  34.608  44.537   7.981
 1987POPC   C4A28170  34.963  44.333   7.802
 1987POPC   C1B28171  34.743   0.085   8.781
 1987POPC   C2B28172  34.873   0.189   8.348
 1987POPC   C3B28173  34.813   0.129   7.901
 1987POPC   C4B28174  34.687  44.844   7.601
 1988POPC   NC328175  33.108  41.333   9.774
 1988POPC   PO428176  32.863  41.900   9.490
 1988POPC   GL128177  33.123  41.601   9.257
 1988POPC   GL228178  32.811  41.432   9.157
 1988POPC   C1A28179  33.381  41.630   8.850
 1988POPC   D2A28180  33.468  41.725   8.397
 1988POPC   C3A28181  33.207  41.496   8.126
 1988POPC   C4A28182  33.222  41.427   7.711
 1988POPC   C1B28183  32.891  41.743   8.789
 1988POPC   C2B28184  32.837  41.821   8.306
 1988POPC   C3B28185  32.750  41.582   7.888
 1988POPC   C4B28186  32.776  41.300   7.519
 1989POPC   NC328187  27.556  38.779   9.518
 1989POPC   PO428188  27.970  38.171   9.684
 1989POPC   GL128189  27.685  38.152   9.267
 1989POPC   GL228190  27.684  38.485   9.134
 1989POPC   C1A28191  27.694  38.147   8.765
 1989POPC   D2A28192  27.525  38.481   8.451
 1989POPC   C3A28193  27.398  38.496   7.989
 1989POPC   C4A28194  27.464  38.290   7.598
 1989POPC   C1B28195  27.892  38.636   8.779
 1989POPC   C2B28196  28.038  38.724   8.398
 1989POPC   C3B28197  27.968  38.483   8.065
 1989POPC   C4B28198  27.880  38.610   7.680
 1990POPC   NC328199   5.341  11.438   9.455
 1990POPC   PO428200   4.860  10.994   9.622
 1990POPC   GL128201   4.973  11.057   9.196
 1990POPC   GL228202   5.244  10.867   9.146
 1990POPC   C1A28203   4.884  11.151   8.746
 1990POPC   D2A28204   5.066  11.235   8.318
 1990POPC   C3A28205   4.837  11.060   7.978
 1990POPC   C4A28206   4.835  11.201   7.555
 1990POPC   C1B28207   5.404  11.190   8.839
 1990POPC   C2B28208   5.593  11.159   8.433
 1990POPC   C3B28209   5.527  11.317   8.048
 1990POPC   C4B28210   5.301  11.110   7.772
 1991POPC   NC328211  20.802  43.681   9.663
 1991POPC   PO428212  20.515  43.067   9.630
 1991POPC   GL128213  20.641  43.093   9.216
 1991POPC   GL228214  20.529  42.770   9.132
 1991POPC   C1A28215  20.491  43.216   8.805
 1991POPC   D2A28216  20.229  43.271   8.459
 1991POPC   C3A28217  20.491  43.311   8.104
 1991POPC   C4A28218  20.640  43.421   7.701
 1991POPC   C1B28219  20.840  42.847   8.805
 1991POPC   C2B28220  20.874  43.101   8.428
 1991POPC   C3B28221  20.831  42.932   7.997
 1991POPC   C4B28222  20.911  43.017   7.568
 1992POPC   NC328223  22.732  13.385   9.438
 1992POPC   PO428224  23.263  13.664   9.543
 1992POPC   GL128225  23.191  13.747   9.106
 1992POPC   GL228226  22.823  13.708   9.051
 1992POPC   C1A28227  23.146  13.567   8.711
 1992POPC   D2A28228  23.158  13.721   8.341
 1992POPC   C3A28229  23.104  13.415   8.086
 1992POPC   C4A28230  22.884  13.620   7.798
 1992POPC   C1B28231  22.631  13.522   8.691
 1992POPC   C2B28232  22.612  13.629   8.253
 1992POPC   C3B28233  22.382  13.605   7.856
 1992POPC   C4B28234  22.594  13.307   7.522
 1993POPC   NC328235  14.694  33.954   9.466
 1993POPC   PO428236  14.011  33.693   9.559
 1993POPC   GL128237  14.238  33.659   9.209
 1993POPC   GL228238  14.039  33.391   9.120
 1993POPC   C1A28239  14.411  33.925   8.859
 1993POPC   D2A28240  14.640  33.896   8.478
 1993POPC   C3A28241  14.509  33.942   8.042
 1993POPC   C4A28242  14.747  33.657   7.772
 1993POPC   C1B28243  14.193  33.438   8.728
 1993POPC   C2B28244  14.210  33.609   8.334
 1993POPC   C3B28245  14.094  33.532   7.927
 1993POPC   C4B28246  14.349  33.376   7.578
 1994POPC   NC328247  12.698  15.814   9.476
 1994POPC   PO428248  13.153  16.357   9.507
 1994POPC   GL128249  12.852  16.202   9.161
 1994POPC   GL228250  13.002  15.892   9.073
 1994POPC   C1A28251  12.580  15.998   8.810
 1994POPC   D2A28252  12.750  15.767   8.438
 1994POPC   C3A28253  12.671  15.732   7.984
 1994POPC   C4A28254  13.064  15.636   7.737
 1994POPC   C1B28255  13.061  16.160   8.699
 1994POPC   C2B28256  13.187  16.051   8.325
 1994POPC   C3B28257  13.010  16.116   7.936
 1994POPC   C4B28258  12.780  16.508   7.809
 1995POPC   NC328259  39.842  43.581   9.800
 1995POPC   PO428260  39.691  44.037   9.322
 1995POPC   GL128261  39.948  43.827   9.108
 1995POPC   GL228262  40.092  43.509   9.303
 1995POPC   C1A28263  39.918  43.901   8.675
 1995POPC   D2A28264  39.921  44.090   8.269
 1995POPC   C3A28265  39.880  43.897   7.898
 1995POPC   C4A28266  39.912  44.038   7.467
 1995POPC   C1B28267  40.098  43.426   8.855
 1995POPC   C2B28268  40.240  43.551   8.448
 1995POPC   C3B28269  40.216  43.435   8.041
 1995POPC   C4B28270  40.231  43.634   7.645
 1996POPC   NC328271   8.609  28.371   9.381
 1996POPC   PO428272   7.973  28.178   9.437
 1996POPC   GL128273   8.177  28.282   9.055
 1996POPC   GL228274   7.889  28.403   8.955
 1996POPC   C1A28275   8.274  28.553   8.674
 1996POPC   D2A28276   8.296  28.373   8.250
 1996POPC   C3A28277   8.231  28.571   7.856
 1996POPC   C4A28278   8.570  28.484   7.602
 1996POPC   C1B28279   7.856  28.296   8.536
 1996POPC   C2B28280   7.623  28.177   8.183
 1996POPC   C3B28281   7.849  28.201   7.837
 1996POPC   C4B28282   8.234  28.006   7.813
 1997POPC   NC328283  16.774   1.621   9.991
 1997POPC   PO428284  16.533   1.082   9.541
 1997POPC   GL128285  16.668   1.166   9.147
 1997POPC   GL228286  16.846   1.420   9.227
 1997POPC   C1A28287  16.740   1.027   8.747
 1997POPC   D2A28288  16.569   0.958   8.343
 1997POPC   C3A28289  16.707   1.053   7.915
 1997POPC   C4A28290  16.753   0.971   7.442
 1997POPC   C1B28291  16.981   1.458   8.808
 1997POPC   C2B28292  16.793   1.429   8.392
 1997POPC   C3B28293  16.995   1.447   7.995
 1997POPC   C4B28294  16.962   1.395   7.551
 1998POPC   NC328295  41.162   5.882   9.487
 1998POPC   PO428296  40.555   6.143   9.431
 1998POPC   GL128297  40.763   5.863   9.114
 1998POPC   GL228298  41.073   5.632   9.058
 1998POPC   C1A28299  40.712   5.689   8.693
 1998POPC   D2A28300  40.896   5.649   8.272
 1998POPC   C3A28301  40.682   5.819   7.907
 1998POPC   C4A28302  40.721   6.112   7.547
 1998POPC   C1B28303  41.141   5.984   8.754
 1998POPC   C2B28304  41.321   5.941   8.331
 1998POPC   C3B28305  41.193   5.945   7.918
 1998POPC   C4B28306  41.104   5.527   7.773
 1999POPC   NC328307  36.274  28.217   9.473
 1999POPC   PO428308  35.983  28.725   9.601
 1999POPC   GL128309  35.931  28.481   9.164
 1999POPC   GL228310  36.139  28.201   9.007
 1999POPC   C1A28311  35.841  28.476   8.743
 1999POPC   D2A28312  36.104  28.451   8.408
 1999POPC   C3A28313  35.872  28.427   8.047
 1999POPC   C4A28314  36.051  28.582   7.690
 1999POPC   C1B28315  36.470  28.240   8.716
 1999POPC   C2B28316  36.490  28.033   8.342
 1999POPC   C3B28317  36.319  28.159   7.971
 1999POPC   C4B28318  36.619  28.343   7.750
 2000POPC   NC328319  44.903  41.489   9.501
 2000POPC   PO428320  44.264  41.597   9.619
 2000POPC   GL128321  44.387  41.656   9.203
 2000POPC   GL228322  44.695  41.877   9.237
 2000POPC   C1A28323  44.248  41.521   8.766
 2000POPC   D2A28324  44.371  41.561   8.306
 2000POPC   C3A28325  44.346  41.261   7.920
 2000POPC   C4A28326  44.397  41.137   7.463
 2000POPC   C1B28327  44.820  41.908   8.812
 2000POPC   C2B28328  44.632  42.003   8.401
 2000POPC   C3B28329  44.773  41.765   8.034
 2000POPC   C4B28330  44.690  41.554   7.639
 2001POPC   NC328331  17.918  39.793   9.922
 2001POPC   PO428332  18.018  40.049   9.320
 2001POPC   GL128333  18.069  40.070   8.947
 2001POPC   GL228334  18.299  39.783   8.955
 2001POPC   C1A28335  18.037  39.991   8.529
 2001POPC   D2A28336  18.325  39.714   8.327
 2001POPC   C3A28337  18.422  39.874   7.912
 2001POPC   C4A28338  18.252  40.201   7.713
 2001POPC   C1B28339  18.026  39.516   8.727
 2001POPC   C2B28340  17.858  39.447   8.338
 2001POPC   C3B28341  18.009  39.588   7.936
 2001POPC   C4B28342  17.970  39.811   7.519
 2002POPC   NC328343  10.370  26.089   9.585
 2002POPC   PO428344  11.026  25.950   9.456
 2002POPC   GL128345  10.657  26.135   9.156
 2002POPC   GL228346  10.262  26.097   9.103
 2002POPC   C1A28347  10.536  26.259   8.723
 2002POPC   D2A28348  10.654  26.014   8.394
 2002POPC   C3A28349  10.502  26.004   8.016
 2002POPC   C4A28350  10.627  26.051   7.587
 2002POPC   C1B28351  10.250  25.791   8.759
 2002POPC   C2B28352  10.369  25.591   8.363
 2002POPC   C3B28353  10.156  25.638   7.958
 2002POPC   C4B28354  10.536  25.569   7.724
 2003POPC   NC328355  22.223  42.830   9.504
 2003POPC   PO428356  22.153  43.435   9.829
 2003POPC   GL128357  22.125  43.311   9.339
 2003POPC   GL228358  21.873  43.324   9.023
 2003POPC   C1A28359  22.318  43.134   8.940
 2003POPC   D2A28360  22.369  42.999   8.513
 2003POPC   C3A28361  22.439  43.115   8.077
 2003POPC   C4A28362  22.382  42.796   7.759
 2003POPC   C1B28363  21.821  43.088   8.631
 2003POPC   C2B28364  21.942  43.043   8.198
 2003POPC   C3B28365  21.876  42.963   7.773
 2003POPC   C4B28366  22.006  42.820   7.361
 2004POPC   NC328367  31.417   0.973   9.617
 2004POPC   PO428368  31.282   1.620   9.759
 2004POPC   GL128369  31.359   1.367   9.297
 2004POPC   GL228370  31.578   1.013   9.145
 2004POPC   C1A28371  31.302   1.310   8.855
 2004POPC   D2A28372  31.292   1.155   8.432
 2004POPC   C3A28373  31.636   1.311   8.227
 2004POPC   C4A28374  31.626   1.466   7.821
 2004POPC   C1B28375  31.698   0.991   8.703
 2004POPC   C2B28376  31.670   0.770   8.295
 2004POPC   C3B28377  31.681   0.940   7.852
 2004POPC   C4B28378  31.623   0.820   7.403
 2005POPC   NC328379   9.560  15.749   9.440
 2005POPC   PO428380  10.246  15.722   9.247
 2005POPC   GL128381   9.919  15.984   9.167
 2005POPC   GL228382   9.806  15.680   9.003
 2005POPC   C1A28383   9.723  16.158   8.834
 2005POPC   D2A28384   9.717  16.211   8.430
 2005POPC   C3A28385   9.704  15.884   8.159
 2005POPC   C4A28386   9.721  15.956   7.752
 2005POPC   C1B28387   9.470  15.693   8.764
 2005POPC   C2B28388   9.372  15.561   8.388
 2005POPC   C3B28389   9.262  15.662   7.961
 2005POPC   C4B28390   9.523  15.489   7.662
 2006POPC   NC328391  26.200  33.833   9.272
 2006POPC   PO428392  25.565  33.705   9.424
 2006POPC   GL128393  25.764  33.719   9.026
 2006POPC   GL228394  25.562  34.011   8.952
 2006POPC   C1A28395  25.931  33.681   8.599
 2006POPC   D2A28396  25.789  33.727   8.206
 2006POPC   C3A28397  26.056  33.565   7.951
 2006POPC   C4A28398  26.263  33.710   7.544
 2006POPC   C1B28399  25.906  34.165   8.690
 2006POPC   C2B28400  26.173  34.051   8.331
 2006POPC   C3B28401  26.043  34.072   7.898
 2006POPC   C4B28402  25.616  34.141   7.935
 2007POPC   NC328403  41.074  30.625   9.562
 2007POPC   PO428404  41.784  30.675   9.580
 2007POPC   GL128405  41.500  30.605   9.231
 2007POPC   GL228406  41.760  30.740   9.061
 2007POPC   C1A28407  41.399  30.528   8.802
 2007POPC   D2A28408  41.613  30.509   8.377
 2007POPC   C3A28409  41.399  30.681   8.014
 2007POPC   C4A28410  41.358  30.674   7.564
 2007POPC   C1B28411  41.966  30.684   8.686
 2007POPC   C2B28412  42.143  30.788   8.276
 2007POPC   C3B28413  42.023  30.792   7.848
 2007POPC   C4B28414  41.803  30.833   7.419
 2008POPC   NC328415   5.795  44.235   9.416
 2008POPC   PO428416   5.125  44.190   9.730
 2008POPC   GL128417   5.278  44.081   9.329
 2008POPC   GL228418   4.927  44.056   9.262
 2008POPC   C1A28419   5.287  43.830   8.922
 2008POPC   D2A28420   4.966  43.665   8.604
 2008POPC   C3A28421   4.984  43.766   8.138
 2008POPC   C4A28422   5.230  43.884   7.780
 2008POPC   C1B28423   5.056  44.284   8.891
 2008POPC   C2B28424   4.954  44.169   8.474
 2008POPC   C3B28425   4.985  44.310   8.055
 2008POPC   C4B28426   4.830  44.286   7.667
 2009POPC   NC328427  23.242  19.092   9.446
 2009POPC   PO428428  22.619  18.936   9.695
 2009POPC   GL128429  22.762  19.104   9.259
 2009POPC   GL228430  23.005  18.836   9.059
 2009POPC   C1A28431  22.678  19.156   8.807
 2009POPC   D2A28432  22.451  18.930   8.477
 2009POPC   C3A28433  22.712  18.836   8.105
 2009POPC   C4A28434  22.843  19.072   7.749
 2009POPC   C1B28435  23.407  18.849   8.744
 2009POPC   C2B28436  23.529  18.959   8.277
 2009POPC   C3B28437  23.348  18.988   7.827
 2009POPC   C4B28438  23.102  18.759   7.438
 2010POPC   NC328439  32.657  44.567   9.560
 2010POPC   PO428440  33.174  44.877   9.830
 2010POPC   GL128441  33.092  44.757   9.371
 2010POPC   GL228442  32.875  44.983   9.183
 2010POPC   C1A28443  33.001  44.535   8.959
 2010POPC   D2A28444  33.167  44.431   8.534
 2010POPC   C3A28445  33.093  44.442   8.070
 2010POPC   C4A28446  32.856  44.560   7.691
 2010POPC   C1B28447  33.131  44.991   8.761
 2010POPC   C2B28448  33.069  44.943   8.295
 2010POPC   C3B28449  33.209  44.881   7.855
 2010POPC   C4B28450  33.349   0.127   7.534
 2011POPC   NC328451  13.669  15.037   9.496
 2011POPC   PO428452  13.200  15.256   9.120
 2011POPC   GL128453  13.623  15.193   9.022
 2011POPC   GL228454  13.747  14.833   9.034
 2011POPC   C1A28455  13.813  15.392   8.732
 2011POPC   D2A28456  13.786  15.245   8.344
 2011POPC   C3A28457  13.497  15.340   8.024
 2011POPC   C4A28458  13.338  15.099   7.709
 2011POPC   C1B28459  14.005  14.916   8.697
 2011POPC   C2B28460  13.990  14.778   8.305
 2011POPC   C3B28461  13.806  14.928   7.957
 2011POPC   C4B28462  13.866  15.193   7.658
 2012POPC   NC328463  23.007  20.993   9.545
 2012POPC   PO428464  22.938  20.297   9.393
 2012POPC   GL128465  22.968  20.661   9.170
 2012POPC   GL228466  22.606  20.790   9.211
 2012POPC   C1A28467  23.217  20.758   8.806
 2012POPC   D2A28468  23.184  20.553   8.408
 2012POPC   C3A28469  23.292  20.758   8.041
 2012POPC   C4A28470  23.227  20.528   7.689
 2012POPC   C1B28471  22.685  20.730   8.768
 2012POPC   C2B28472  22.859  20.937   8.422
 2012POPC   C3B28473  22.791  20.681   8.082
 2012POPC   C4B28474  22.817  20.784   7.721
 2013POPC   NC328475  38.314   0.079   9.456
 2013POPC   PO428476  38.090  44.413   9.390
 2013POPC   GL128477  38.440  44.633   9.165
 2013POPC   GL228478  38.575  44.345   8.967
 2013POPC   C1A28479  38.585  44.830   8.762
 2013POPC   D2A28480  38.748  45.000   8.367
 2013POPC   C3A28481  38.579  44.788   8.044
 2013POPC   C4A28482  38.474  44.827   7.644
 2013POPC   C1B28483  38.165  44.480   8.747
 2013POPC   C2B28484  37.849  44.393   8.421
 2013POPC   C3B28485  37.894  44.239   7.991
 2013POPC   C4B28486  38.258  44.354   7.730
 2014POPC   NC328487   2.291   6.834   9.353
 2014POPC   PO428488   2.023   6.354   9.697
 2014POPC   GL128489   2.029   6.475   9.160
 2014POPC   GL228490   2.352   6.456   9.006
 2014POPC   C1A28491   1.974   6.739   8.740
 2014POPC   D2A28492   1.682   6.784   8.368
 2014POPC   C3A28493   1.781   6.969   8.013
 2014POPC   C4A28494   1.826   6.740   7.625
 2014POPC   C1B28495   2.480   6.683   8.718
 2014POPC   C2B28496   2.343   6.689   8.347
 2014POPC   C3B28497   2.221   6.722   7.976
 2014POPC   C4B28498   2.298   6.516   7.624
 2015POPC   NC328499   5.992  29.713   9.534
 2015POPC   PO428500   5.349  29.746   9.476
 2015POPC   GL128501   5.650  29.864   9.108
 2015POPC   GL228502   5.945  30.079   9.154
 2015POPC   C1A28503   5.764  30.053   8.690
 2015POPC   D2A28504   5.948  30.265   8.368
 2015POPC   C3A28505   5.884  30.062   7.992
 2015POPC   C4A28506   5.668  29.985   7.599
 2015POPC   C1B28507   6.247  30.008   8.814
 2015POPC   C2B28508   6.245  29.836   8.421
 2015POPC   C3B28509   6.193  29.589   8.072
 2015POPC   C4B28510   6.127  29.762   7.661
 2016POPC   NC328511  33.803  10.813   9.609
 2016POPC   PO428512  33.513  10.150   9.510
 2016POPC   GL128513  33.654  10.480   9.220
 2016POPC   GL228514  34.002  10.602   9.204
 2016POPC   C1A28515  33.675  10.554   8.783
 2016POPC   D2A28516  33.470  10.554   8.380
 2016POPC   C3A28517  33.732  10.777   8.099
 2016POPC   C4A28518  33.732  10.662   7.663
 2016POPC   C1B28519  34.190  10.473   8.856
 2016POPC   C2B28520  34.073  10.536   8.435
 2016POPC   C3B28521  34.218  10.344   8.095
 2016POPC   C4B28522  34.124  10.316   7.678
 2017POPC   NC328523   2.714  27.154   9.547
 2017POPC   PO428524   3.030  27.773   9.623
 2017POPC   GL128525   2.957  27.862   9.182
 2017POPC   GL228526   2.634  27.685   9.200
 2017POPC   C1A28527   2.899  27.714   8.744
 2017POPC   D2A28528   2.988  27.432   8.371
 2017POPC   C3A28529   3.055  27.663   7.978
 2017POPC   C4A28530   2.843  27.762   7.561
 2017POPC   C1B28531   2.405  27.545   8.819
 2017POPC   C2B28532   2.479  27.332   8.456
 2017POPC   C3B28533   2.535  27.468   8.034
 2017POPC   C4B28534   2.566  27.347   7.602
 2018POPC   NC328535  36.015  35.103   9.444
 2018POPC   PO428536  36.406  34.551   9.459
 2018POPC   GL128537  36.082  34.659   9.183
 2018POPC   GL228538  35.807  34.438   9.274
 2018POPC   C1A28539  36.007  34.812   8.781
 2018POPC   D2A28540  35.926  34.596   8.444
 2018POPC   C3A28541  36.129  34.624   8.107
 2018POPC   C4A28542  36.039  34.892   7.765
 2018POPC   C1B28543  35.909  34.281   8.846
 2018POPC   C2B28544  35.742  34.128   8.435
 2018POPC   C3B28545  35.712  34.278   8.019
 2018POPC   C4B28546  36.009  34.369   7.678
 2019POPC   NC328547  43.140  34.015   9.424
 2019POPC   PO428548  43.440  33.469   9.138
 2019POPC   GL128549  43.163  33.777   8.989
 2019POPC   GL228550  42.852  33.694   9.126
 2019POPC   C1A28551  43.176  34.076   8.663
 2019POPC   D2A28552  43.274  33.817   8.288
 2019POPC   C3A28553  43.166  33.946   7.865
 2019POPC   C4A28554  43.128  33.696   7.509
 2019POPC   C1B28555  42.764  33.806   8.687
 2019POPC   C2B28556  42.796  33.984   8.268
 2019POPC   C3B28557  42.658  33.851   7.850
 2019POPC   C4B28558  42.689  33.429   7.676
 2020POPC   NC328559  20.658   1.736   9.435
 2020POPC   PO428560  20.674   2.438   9.384
 2020POPC   GL128561  20.836   2.186   9.057
 2020POPC   GL228562  20.562   1.948   8.988
 2020POPC   C1A28563  20.881   2.155   8.611
 2020POPC   D2A28564  20.662   2.251   8.274
 2020POPC   C3A28565  20.807   2.050   7.936
 2020POPC   C4A28566  20.464   2.052   7.704
 2020POPC   C1B28567  20.883   1.682   8.811
 2020POPC   C2B28568  20.783   1.692   8.382
 2020POPC   C3B28569  20.442   1.720   8.101
 2020POPC   C4B28570  20.598   1.566   7.712
 2021POPC   NC328571  40.802   2.900   9.588
 2021POPC   PO428572  40.811   2.278   9.360
 2021POPC   GL128573  40.904   2.680   9.127
 2021POPC   GL228574  40.893   3.088   9.144
 2021POPC   C1A28575  40.748   2.793   8.741
 2021POPC   D2A28576  40.497   2.547   8.459
 2021POPC   C3A28577  40.621   2.730   8.084
 2021POPC   C4A28578  40.837   2.796   7.707
 2021POPC   C1B28579  41.180   3.115   8.831
 2021POPC   C2B28580  41.225   2.977   8.427
 2021POPC   C3B28581  41.040   3.106   8.042
 2021POPC   C4B28582  41.276   3.105   7.654
 2022POPC   NC328583   8.743  26.281   9.595
 2022POPC   PO428584   9.263  25.883   9.552
 2022POPC   GL128585   8.901  25.919   9.240
 2022POPC   GL228586   8.938  25.670   9.016
 2022POPC   C1A28587   8.735  26.191   8.861
 2022POPC   D2A28588   8.910  26.437   8.449
 2022POPC   C3A28589   8.817  26.287   7.981
 2022POPC   C4A28590   8.867  25.876   7.753
 2022POPC   C1B28591   9.143  25.945   8.698
 2022POPC   C2B28592   9.079  25.950   8.253
 2022POPC   C3B28593   9.308  26.102   7.899
 2022POPC   C4B28594   9.646  26.347   7.760
 2023POPC   NC328595   0.812  16.852   9.856
 2023POPC   PO428596   0.377  16.727   9.476
 2023POPC   GL128597   0.382  16.800   9.080
 2023POPC   GL228598   0.693  16.618   9.090
 2023POPC   C1A28599   0.542  16.925   8.697
 2023POPC   D2A28600   0.784  16.854   8.330
 2023POPC   C3A28601   0.535  16.867   7.997
 2023POPC   C4A28602   0.175  16.775   7.805
 2023POPC   C1B28603   0.913  16.569   8.749
 2023POPC   C2B28604   1.008  16.395   8.375
 2023POPC   C3B28605   0.874  16.401   7.968
 2023POPC   C4B28606   0.682  16.574   7.622
 2024POPC   NC328607  37.319  20.857   9.497
 2024POPC   PO428608  37.892  20.487   9.626
 2024POPC   GL128609  37.699  20.514   9.233
 2024POPC   GL228610  37.756  20.809   9.112
 2024POPC   C1A28611  37.754  20.417   8.794
 2024POPC   D2A28612  37.774  20.526   8.390
 2024POPC   C3A28613  37.770  20.277   8.038
 2024POPC   C4A28614  37.494  20.464   7.764
 2024POPC   C1B28615  37.638  20.944   8.719
 2024POPC   C2B28616  37.754  21.045   8.303
 2024POPC   C3B28617  37.548  20.971   7.896
 2024POPC   C4B28618  37.263  20.940   7.546
 2025POPC   NC328619  41.921   8.563   9.426
 2025POPC   PO428620  42.248   7.984   9.456
 2025POPC   GL128621  42.337   8.254   9.137
 2025POPC   GL228622  42.436   7.967   8.972
 2025POPC   C1A28623  42.267   8.393   8.698
 2025POPC   D2A28624  42.338   8.261   8.288
 2025POPC   C3A28625  42.062   7.985   8.036
 2025POPC   C4A28626  42.197   8.261   7.719
 2025POPC   C1B28627  42.641   7.973   8.610
 2025POPC   C2B28628  42.588   7.789   8.262
 2025POPC   C3B28629  42.572   7.980   7.927
 2025POPC   C4B28630  42.782   8.051   7.601
 2026POPC   NC328631  16.321   3.461   9.509
 2026POPC   PO428632  17.078   3.572   9.378
 2026POPC   GL128633  16.700   3.602   9.109
 2026POPC   GL228634  16.430   3.379   9.029
 2026POPC   C1A28635  16.759   3.568   8.676
 2026POPC   D2A28636  16.781   3.306   8.347
 2026POPC   C3A28637  16.971   3.483   7.996
 2026POPC   C4A28638  16.686   3.742   7.742
 2026POPC   C1B28639  16.426   3.131   8.679
 2026POPC   C2B28640  16.236   3.222   8.262
 2026POPC   C3B28641  16.491   3.307   7.904
 2026POPC   C4B28642  16.816   3.271   7.561
 2027POPC   NC328643   0.651  16.292   9.500
 2027POPC   PO428644   0.111  15.861   9.490
 2027POPC   GL128645   0.403  15.984   9.171
 2027POPC   GL228646   0.296  16.304   9.133
 2027POPC   C1A28647   0.684  16.082   8.810
 2027POPC   D2A28648   0.890  15.912   8.417
 2027POPC   C3A28649   0.568  15.903   8.083
 2027POPC   C4A28650   0.552  16.069   7.664
 2027POPC   C1B28651   0.341  16.451   8.708
 2027POPC   C2B28652   0.454  16.397   8.286
 2027POPC   C3B28653   0.171  16.275   7.950
 2027POPC   C4B28654   0.166  16.359   7.512
 2028POPC   NC328655   7.105  42.129   9.402
 2028POPC   PO428656   7.761  42.302   9.425
 2028POPC   GL128657   7.460  42.487   9.182
 2028POPC   GL228658   7.192  42.679   9.324
 2028POPC   C1A28659   7.429  42.329   8.765
 2028POPC   D2A28660   7.720  42.302   8.443
 2028POPC   C3A28661   7.477  42.259   8.118
 2028POPC   C4A28662   7.470  42.340   7.707
 2028POPC   C1B28663   7.145  42.742   8.852
 2028POPC   C2B28664   7.148  42.588   8.387
 2028POPC   C3B28665   7.274  42.732   7.975
 2028POPC   C4B28666   7.294  42.800   7.533
 2029POPC   NC328667  12.330  38.828   9.914
 2029POPC   PO428668  11.862  39.230   9.540
 2029POPC   GL128669  12.135  39.250   9.171
 2029POPC   GL228670  12.460  39.438   9.233
 2029POPC   C1A28671  11.953  39.369   8.775
 2029POPC   D2A28672  11.794  39.128   8.438
 2029POPC   C3A28673  11.905  39.333   8.082
 2029POPC   C4A28674  11.979  39.186   7.684
 2029POPC   C1B28675  12.443  39.492   8.784
 2029POPC   C2B28676  12.324  39.208   8.434
 2029POPC   C3B28677  12.366  39.096   8.007
 2029POPC   C4B28678  12.471  39.244   7.594
 2030POPC   NC328679  14.547  23.208   9.142
 2030POPC   PO428680  14.310  23.766   9.470
 2030POPC   GL128681  14.131  23.812   9.080
 2030POPC   GL228682  14.449  24.007   9.041
 2030POPC   C1A28683  14.034  23.852   8.637
 2030POPC   D2A28684  14.232  23.610   8.287
 2030POPC   C3A28685  14.503  23.849   8.020
 2030POPC   C4A28686  14.306  23.711   7.662
 2030POPC   C1B28687  14.515  23.694   8.702
 2030POPC   C2B28688  14.744  23.518   8.340
 2030POPC   C3B28689  14.861  23.472   7.891
 2030POPC   C4B28690  14.750  23.592   7.482
 2031POPC   NC328691  14.681  37.105   9.501
 2031POPC   PO428692  14.199  36.523   9.439
 2031POPC   GL128693  14.356  36.806   9.119
 2031POPC   GL228694  14.700  36.831   9.020
 2031POPC   C1A28695  14.277  36.945   8.728
 2031POPC   D2A28696  14.442  37.063   8.340
 2031POPC   C3A28697  14.245  36.875   7.984
 2031POPC   C4A28698  14.362  37.057   7.601
 2031POPC   C1B28699  14.912  36.551   8.709
 2031POPC   C2B28700  14.909  36.620   8.253
 2031POPC   C3B28701  14.757  36.815   7.872
 2031POPC   C4B28702  14.903  37.206   7.720
 2032POPC   NC328703  11.865   3.968   9.463
 2032POPC   PO428704  12.469   4.395   9.475
 2032POPC   GL128705  12.205   4.384   9.161
 2032POPC   GL228706  12.250   4.037   9.121
 2032POPC   C1A28707  12.114   4.645   8.807
 2032POPC   D2A28708  12.156   4.770   8.390
 2032POPC   C3A28709  11.996   4.453   8.105
 2032POPC   C4A28710  12.132   4.500   7.719
 2032POPC   C1B28711  12.056   4.122   8.733
 2032POPC   C2B28712  12.347   4.275   8.434
 2032POPC   C3B28713  12.432   4.066   8.052
 2032POPC   C4B28714  12.075   3.908   7.813
 2033POPC   NC328715  30.051   7.408   9.595
 2033POPC   PO428716  30.131   6.955   9.151
 2033POPC   GL128717  30.112   7.371   9.041
 2033POPC   GL228718  29.798   7.427   8.992
 2033POPC   C1A28719  30.095   7.564   8.628
 2033POPC   D2A28720  30.267   7.450   8.274
 2033POPC   C3A28721  29.961   7.294   7.959
 2033POPC   C4A28722  29.706   7.017   7.697
 2033POPC   C1B28723  29.541   7.593   8.694
 2033POPC   C2B28724  29.668   7.618   8.310
 2033POPC   C3B28725  29.529   7.602   7.903
 2033POPC   C4B28726  29.261   7.266   7.746
 2034POPC   NC328727  30.047  17.637   9.594
 2034POPC   PO428728  29.682  17.125   9.412
 2034POPC   GL128729  29.807  17.475   9.074
 2034POPC   GL228730  30.110  17.661   9.098
 2034POPC   C1A28731  29.961  17.543   8.614
 2034POPC   D2A28732  30.259  17.348   8.343
 2034POPC   C3A28733  30.145  17.337   7.894
 2034POPC   C4A28734  29.742  17.514   7.807
 2034POPC   C1B28735  30.190  17.961   8.798
 2034POPC   C2B28736  30.086  18.063   8.421
 2034POPC   C3B28737  30.082  17.823   8.076
 2034POPC   C4B28738  30.268  17.983   7.721
 2035POPC   NC328739  43.491  18.337   9.481
 2035POPC   PO428740  42.768  18.165   9.421
 2035POPC   GL128741  42.906  18.374   9.063
 2035POPC   GL228742  43.277  18.452   9.022
 2035POPC   C1A28743  42.910  18.536   8.673
 2035POPC   D2A28744  43.097  18.299   8.349
 2035POPC   C3A28745  42.870  18.182   7.980
 2035POPC   C4A28746  43.015  18.041   7.619
 2035POPC   C1B28747  43.579  18.555   8.685
 2035POPC   C2B28748  43.569  18.491   8.221
 2035POPC   C3B28749  43.279  18.511   7.885
 2035POPC   C4B28750  43.546  18.716   7.608
 2036POPC   NC328751  17.742  16.276   9.511
 2036POPC   PO428752  17.530  16.929   9.392
 2036POPC   GL128753  17.636  16.602   9.111
 2036POPC   GL228754  17.381  16.402   8.902
 2036POPC   C1A28755  17.800  16.612   8.718
 2036POPC   D2A28756  17.551  16.505   8.403
 2036POPC   C3A28757  17.734  16.528   8.042
 2036POPC   C4A28758  17.516  16.593   7.693
 2036POPC   C1B28759  17.256  16.775   8.747
 2036POPC   C2B28760  17.325  16.954   8.402
 2036POPC   C3B28761  17.243  16.824   8.050
 2036POPC   C4B28762  17.158  16.952   7.647
 2037POPC   NC328763  40.520  21.895   9.573
 2037POPC   PO428764  41.105  22.310   9.764
 2037POPC   GL128765  40.810  22.188   9.308
 2037POPC   GL228766  40.851  21.881   9.126
 2037POPC   C1A28767  40.781  22.301   8.858
 2037POPC   D2A28768  40.764  22.470   8.465
 2037POPC   C3A28769  40.511  22.224   8.229
 2037POPC   C4A28770  40.669  22.206   7.832
 2037POPC   C1B28771  41.006  21.861   8.681
 2037POPC   C2B28772  40.894  21.876   8.205
 2037POPC   C3B28773  40.864  21.747   7.752
 2037POPC   C4B28774  40.856  21.829   7.267
 2038POPC   NC328775   0.598  23.127   9.659
 2038POPC   PO428776   0.540  22.516   9.519
 2038POPC   GL128777   0.386  22.850   9.240
 2038POPC   GL228778   0.595  23.141   9.144
 2038POPC   C1A28779   0.371  22.846   8.779
 2038POPC   D2A28780   0.566  22.781   8.349
 2038POPC   C3A28781   0.314  22.892   7.991
 2038POPC   C4A28782   0.443  22.877   7.539
 2038POPC   C1B28783   0.821  23.074   8.728
 2038POPC   C2B28784   0.912  23.208   8.313
 2038POPC   C3B28785   0.782  23.109   7.881
 2038POPC   C4B28786   0.720  23.360   7.492
 2039POPC   NC328787   9.447  27.202   9.769
 2039POPC   PO428788  10.119  27.201   9.477
 2039POPC   GL128789   9.862  27.467   9.200
 2039POPC   GL228790   9.644  27.657   9.358
 2039POPC   C1A28791   9.842  27.603   8.790
 2039POPC   D2A28792   9.678  27.272   8.522
 2039POPC   C3A28793   9.669  27.445   8.104
 2039POPC   C4A28794   9.674  27.502   7.654
 2039POPC   C1B28795   9.391  27.567   8.988
 2039POPC   C2B28796   9.377  27.697   8.539
 2039POPC   C3B28797   9.287  27.779   8.099
 2039POPC   C4B28798   9.295  27.814   7.659
 2040POPC   NC328799  40.541  34.455   9.406
 2040POPC   PO428800  41.149  34.463   9.568
 2040POPC   GL128801  40.980  34.668   9.184
 2040POPC   GL228802  40.670  34.915   9.182
 2040POPC   C1A28803  40.856  34.521   8.769
 2040POPC   D2A28804  41.061  34.402   8.385
 2040POPC   C3A28805  40.843  34.406   7.992
 2040POPC   C4A28806  40.938  34.537   7.592
 2040POPC   C1B28807  40.624  35.003   8.737
 2040POPC   C2B28808  40.710  34.802   8.335
 2040POPC   C3B28809  40.694  34.913   7.893
 2040POPC   C4B28810  40.346  34.974   7.613
 2041POPC   NC328811  25.053  42.804   9.421
 2041POPC   PO428812  24.992  42.132   9.446
 2041POPC   GL128813  25.322  42.285   9.186
 2041POPC   GL228814  25.137  42.511   9.012
 2041POPC   C1A28815  25.439  42.203   8.750
 2041POPC   D2A28816  25.146  42.049   8.426
 2041POPC   C3A28817  25.235  42.156   7.995
 2041POPC   C4A28818  25.511  42.212   7.655
 2041POPC   C1B28819  25.015  42.707   8.654
 2041POPC   C2B28820  25.007  42.579   8.230
 2041POPC   C3B28821  24.956  42.536   7.785
 2041POPC   C4B28822  24.982  42.625   7.343
 2042POPC   NC328823  38.005   4.031   9.336
 2042POPC   PO428824  37.402   3.830   9.560
 2042POPC   GL128825  37.417   4.066   9.224
 2042POPC   GL228826  37.603   4.391   9.230
 2042POPC   C1A28827  37.433   3.952   8.834
 2042POPC   D2A28828  37.702   4.166   8.589
 2042POPC   C3A28829  37.644   4.179   8.176
 2042POPC   C4A28830  37.547   4.319   7.782
 2042POPC   C1B28831  37.820   4.578   8.859
 2042POPC   C2B28832  38.019   4.552   8.439
 2042POPC   C3B28833  37.966   4.570   8.019
 2042POPC   C4B28834  38.055   4.271   7.742
 2043POPC   NC328835   4.867  42.706   9.795
 2043POPC   PO428836   5.263  43.214   9.560
 2043POPC   GL128837   5.326  42.976   9.166
 2043POPC   GL228838   5.119  42.669   9.231
 2043POPC   C1A28839   5.354  43.092   8.701
 2043POPC   D2A28840   5.239  43.335   8.310
 2043POPC   C3A28841   5.166  43.285   7.859
 2043POPC   C4A28842   5.036  43.105   7.439
 2043POPC   C1B28843   5.221  42.589   8.778
 2043POPC   C2B28844   5.127  42.780   8.338
 2043POPC   C3B28845   4.921  42.823   7.905
 2043POPC   C4B28846   4.686  42.722   7.479
 2044POPC   NC328847  17.992  11.092   9.459
 2044POPC   PO428848  18.084  11.737   9.470
 2044POPC   GL128849  18.443  11.532   9.238
 2044POPC   GL228850  18.440  11.176   9.217
 2044POPC   C1A28851  18.456  11.463   8.787
 2044POPC   D2A28852  18.329  11.551   8.379
 2044POPC   C3A28853  18.498  11.333   8.015
 2044POPC   C4A28854  18.361  11.217   7.607
 2044POPC   C1B28855  18.277  10.994   8.832
 2044POPC   C2B28856  18.350  11.051   8.411
 2044POPC   C3B28857  18.206  10.910   7.999
 2044POPC   C4B28858  18.277  10.733   7.595
 2045POPC   NC328859  34.044  38.763   9.371
 2045POPC   PO428860  33.563  38.276   9.553
 2045POPC   GL128861  33.669  38.409   9.174
 2045POPC   GL228862  33.972  38.237   9.180
 2045POPC   C1A28863  33.855  38.548   8.798
 2045POPC   D2A28864  34.014  38.458   8.432
 2045POPC   C3A28865  33.795  38.643   8.109
 2045POPC   C4A28866  33.749  38.524   7.711
 2045POPC   C1B28867  34.172  38.110   8.819
 2045POPC   C2B28868  34.108  37.939   8.421
 2045POPC   C3B28869  34.115  38.168   8.021
 2045POPC   C4B28870  34.180  38.045   7.629
 2046POPC   NC328871  34.965  16.226  10.012
 2046POPC   PO428872  35.227  15.882   9.450
 2046POPC   GL128873  35.356  15.961   9.107
 2046POPC   GL228874  35.275  16.288   9.103
 2046POPC   C1A28875  35.460  15.749   8.752
 2046POPC   D2A28876  35.451  15.511   8.393
 2046POPC   C3A28877  35.488  15.735   8.052
 2046POPC   C4A28878  35.347  15.888   7.682
 2046POPC   C1B28879  35.519  16.268   8.737
 2046POPC   C2B28880  35.413  16.107   8.384
 2046POPC   C3B28881  35.548  16.239   8.022
 2046POPC   C4B28882  35.304  16.432   7.734
 2047POPC   NC328883   4.378  34.162   9.727
 2047POPC   PO428884   4.133  34.727   9.630
 2047POPC   GL128885   4.274  34.723   9.216
 2047POPC   GL228886   4.032  34.999   9.161
 2047POPC   C1A28887   4.565  34.508   8.946
 2047POPC   D2A28888   4.525  34.441   8.495
 2047POPC   C3A28889   4.454  34.525   8.068
 2047POPC   C4A28890   4.537  34.805   7.708
 2047POPC   C1B28891   4.032  35.045   8.704
 2047POPC   C2B28892   4.129  34.814   8.334
 2047POPC   C3B28893   4.091  34.904   7.917
 2047POPC   C4B28894   3.990  35.086   7.515
 2048POPC   NC328895  34.393  40.870   9.332
 2048POPC   PO428896  34.935  41.217   9.350
 2048POPC   GL128897  34.743  41.100   9.021
 2048POPC   GL228898  34.824  40.733   9.093
 2048POPC   C1A28899  34.505  40.917   8.704
 2048POPC   D2A28900  34.677  40.859   8.348
 2048POPC   C3A28901  34.399  40.831   8.063
 2048POPC   C4A28902  34.500  40.766   7.692
 2048POPC   C1B28903  35.033  40.813   8.720
 2048POPC   C2B28904  35.099  40.588   8.363
 2048POPC   C3B28905  34.845  40.522   7.994
 2048POPC   C4B28906  34.925  40.235   7.697
 2049POPC   NC328907  39.634  35.939   9.256
 2049POPC   PO428908  40.143  36.362   9.384
 2049POPC   GL128909  39.955  36.248   9.023
 2049POPC   GL228910  40.114  35.930   9.035
 2049POPC   C1A28911  39.604  36.287   8.717
 2049POPC   D2A28912  39.682  36.432   8.317
 2049POPC   C3A28913  39.771  36.111   8.018
 2049POPC   C4A28914  39.887  36.216   7.622
 2049POPC   C1B28915  40.154  35.764   8.648
 2049POPC   C2B28916  40.007  35.688   8.226
 2049POPC   C3B28917  40.176  35.827   7.812
 2049POPC   C4B28918  40.153  35.858   7.347
 2050POPC   NC328919  15.295  37.644   9.673
 2050POPC   PO428920  14.639  37.950   9.569
 2050POPC   GL128921  15.009  37.938   9.287
 2050POPC   GL228922  15.127  37.645   9.202
 2050POPC   C1A28923  15.178  37.982   8.829
 2050POPC   D2A28924  14.970  37.950   8.425
 2050POPC   C3A28925  15.198  37.992   8.063
 2050POPC   C4A28926  15.316  37.814   7.687
 2050POPC   C1B28927  15.357  37.495   8.855
 2050POPC   C2B28928  15.394  37.612   8.429
 2050POPC   C3B28929  15.240  37.468   8.038
 2050POPC   C4B28930  15.410  37.308   7.665
 2051POPC   NC328931  29.483  44.280   9.449
 2051POPC   PO428932  28.963  43.768   9.573
 2051POPC   GL128933  29.229  43.855   9.234
 2051POPC   GL228934  29.448  43.594   9.145
 2051POPC   C1A28935  29.263  44.010   8.834
 2051POPC   D2A28936  29.362  44.147   8.429
 2051POPC   C3A28937  29.371  43.888   8.053
 2051POPC   C4A28938  29.092  44.090   7.769
 2051POPC   C1B28939  29.239  43.495   8.805
 2051POPC   C2B28940  29.110  43.676   8.450
 2051POPC   C3B28941  28.857  43.746   8.095
 2051POPC   C4B28942  29.027  43.594   7.708
 2052POPC   NC328943  34.201  30.564   9.517
 2052POPC   PO428944  33.629  30.874   9.652
 2052POPC   GL128945  33.894  30.928   9.266
 2052POPC   GL228946  33.931  30.613   9.078
 2052POPC   C1A28947  33.868  31.054   8.833
 2052POPC   D2A28948  33.899  30.763   8.489
 2052POPC   C3A28949  33.861  30.861   8.041
 2052POPC   C4A28950  34.034  30.702   7.660
 2052POPC   C1B28951  33.598  30.424   8.806
 2052POPC   C2B28952  33.621  30.213   8.418
 2052POPC   C3B28953  33.790  30.323   8.018
 2052POPC   C4B28954  33.594  30.376   7.621
 2053POPC   NC328955  44.597  13.405   9.296
 2053POPC   PO428956  44.954  13.948   9.268
 2053POPC   GL128957  44.767  13.837   8.922
 2053POPC   GL228958  44.449  13.968   9.059
 2053POPC   C1A28959  44.750  13.489   8.618
 2053POPC   D2A28960  44.473  13.503   8.268
 2053POPC   C3A28961  44.549  13.762   7.946
 2053POPC   C4A28962  44.796  13.410   7.843
 2053POPC   C1B28963  44.291  13.725   8.712
 2053POPC   C2B28964  44.036  13.789   8.355
 2053POPC   C3B28965  44.026  13.830   7.934
 2053POPC   C4B28966  44.154  13.740   7.537
 2054POPC   NC328967  40.827  18.723   9.585
 2054POPC   PO428968  40.903  18.069   9.453
 2054POPC   GL128969  40.896  18.364   9.124
 2054POPC   GL228970  40.592  18.361   8.955
 2054POPC   C1A28971  41.019  18.225   8.702
 2054POPC   D2A28972  41.051  18.460   8.352
 2054POPC   C3A28973  40.859  18.426   7.990
 2054POPC   C4A28974  40.938  18.167   7.675
 2054POPC   C1B28975  40.591  17.961   8.735
 2054POPC   C2B28976  40.735  17.967   8.305
 2054POPC   C3B28977  40.503  18.066   7.952
 2054POPC   C4B28978  40.389  17.978   7.544
 2055POPC   NC328979   1.778   5.752   9.454
 2055POPC   PO428980   2.387   6.163   9.400
 2055POPC   GL128981   2.140   5.988   9.063
 2055POPC   GL228982   1.771   6.055   9.070
 2055POPC   C1A28983   2.061   5.922   8.629
 2055POPC   D2A28984   1.763   5.912   8.285
 2055POPC   C3A28985   1.890   5.660   8.007
 2055POPC   C4A28986   2.229   5.400   7.938
 2055POPC   C1B28987   1.724   6.305   8.754
 2055POPC   C2B28988   1.951   6.369   8.369
 2055POPC   C3B28989   1.866   6.316   7.935
 2055POPC   C4B28990   2.164   6.041   7.780
 2056POPC   NC328991  42.673   7.781   9.409
 2056POPC   PO428992  42.305   7.187   9.439
 2056POPC   GL128993  42.385   7.450   9.079
 2056POPC   GL228994  42.044   7.390   9.006
 2056POPC   C1A28995  42.306   7.555   8.622
 2056POPC   D2A28996  42.483   7.291   8.280
 2056POPC   C3A28997  42.490   7.477   7.858
 2056POPC   C4A28998  42.281   7.782   7.569
 2056POPC   C1B28999  42.031   7.118   8.643
 2056POPC   C2B29000  41.983   7.147   8.220
 2056POPC   C3B29001  41.997   7.422   7.857
 2056POPC   C4B29002  41.873   7.488   7.426
 2057POPC   NC329003  26.868   3.226   9.279
 2057POPC   PO429004  27.056   3.834   9.081
 2057POPC   GL129005  26.746   3.572   8.917
 2057POPC   GL229006  26.475   3.612   9.151
 2057POPC   C1A29007  26.766   3.205   8.626
 2057POPC   D2A29008  27.096   3.192   8.323
 2057POPC   C3A29009  26.964   3.468   7.992
 2057POPC   C4A29010  27.135   3.663   7.628
 2057POPC   C1B29011  26.284   3.516   8.718
 2057POPC   C2B29012  26.416   3.433   8.276
 2057POPC   C3B29013  26.447   3.648   7.873
 2057POPC   C4B29014  26.670   3.442   7.548
 2058POPC   NC329015  38.143   7.477   9.378
 2058POPC   PO429016  38.540   6.980   9.436
 2058POPC   GL129017  38.571   7.300   9.107
 2058POPC   GL229018  38.664   7.611   9.252
 2058POPC   C1A29019  38.500   7.291   8.656
 2058POPC   D2A29020  38.435   7.033   8.281
 2058POPC   C3A29021  38.423   7.347   7.952
 2058POPC   C4A29022  38.355   7.681   7.698
 2058POPC   C1B29023  38.743   7.734   8.818
 2058POPC   C2B29024  38.520   7.780   8.429
 2058POPC   C3B29025  38.698   7.806   8.050
 2058POPC   C4B29026  38.862   7.581   7.742
 2059POPC   NC329027  44.873  25.884   9.355
 2059POPC   PO429028  44.312  26.265   9.567
 2059POPC   GL129029  44.469  26.215   9.174
 2059POPC   GL229030  44.778  26.362   9.144
 2059POPC   C1A29031  44.351  26.173   8.753
 2059POPC   D2A29032  44.519  26.009   8.390
 2059POPC   C3A29033  44.626  26.175   8.010
 2059POPC   C4A29034  44.560  25.828   7.774
 2059POPC   C1B29035  44.866  26.151   8.759
 2059POPC   C2B29036   0.019  26.082   8.360
 2059POPC   C3B29037   0.001  25.798   8.050
 2059POPC   C4B29038   0.100  26.018   7.720
 2060POPC   NC329039  28.738  37.092   9.569
 2060POPC   PO429040  29.328  37.189   9.484
 2060POPC   GL129041  29.286  37.024   9.094
 2060POPC   GL229042  28.935  37.003   9.115
 2060POPC   C1A29043  29.219  36.897   8.668
 2060POPC   D2A29044  29.260  37.133   8.304
 2060POPC   C3A29045  29.079  36.943   7.954
 2060POPC   C4A29046  29.321  36.704   7.722
 2060POPC   C1B29047  28.749  37.103   8.753
 2060POPC   C2B29048  28.765  36.968   8.371
 2060POPC   C3B29049  28.659  36.680   8.080
 2060POPC   C4B29050  28.833  36.501   7.748
 2061POPC   NC329051   0.055  23.245   9.373
 2061POPC   PO429052  44.352  23.253   9.435
 2061POPC   GL129053  44.581  22.949   9.147
 2061POPC   GL229054  44.913  22.911   9.017
 2061POPC   C1A29055  44.489  22.810   8.726
 2061POPC   D2A29056  44.491  23.010   8.297
 2061POPC   C3A29057  44.781  22.812   7.985
 2061POPC   C4A29058  44.624  22.676   7.585
 2061POPC   C1B29059  44.929  23.037   8.587
 2061POPC   C2B29060  44.936  23.265   8.200
 2061POPC   C3B29061  44.781  23.296   7.791
 2061POPC   C4B29062  44.922  23.049   7.443
 2062POPC   NC329063  27.494  19.609   9.537
 2062POPC   PO429064  27.796  20.244   9.492
 2062POPC   GL129065  27.710  20.018   9.149
 2062POPC   GL229066  27.352  19.975   9.206
 2062POPC   C1A29067  27.868  19.915   8.744
 2062POPC   D2A29068  27.661  19.784   8.353
 2062POPC   C3A29069  27.865  19.701   7.954
 2062POPC   C4A29070  27.885  19.720   7.486
 2062POPC   C1B29071  27.366  19.770   8.802
 2062POPC   C2B29072  27.179  19.945   8.429
 2062POPC   C3B29073  27.339  20.081   8.034
 2062POPC   C4B29074  27.430  19.854   7.681
 2063POPC   NC329075  17.906  39.592   9.363
 2063POPC   PO429076  17.442  39.871   9.767
 2063POPC   GL129077  17.471  39.910   9.292
 2063POPC   GL229078  17.161  40.043   9.176
 2063POPC   C1A29079  17.611  39.878   8.845
 2063POPC   D2A29080  17.483  39.783   8.453
 2063POPC   C3A29081  17.720  39.956   8.128
 2063POPC   C4A29082  17.570  40.062   7.739
 2063POPC   C1B29083  17.131  39.716   8.888
 2063POPC   C2B29084  16.986  39.653   8.463
 2063POPC   C3B29085  17.068  39.801   8.026
 2063POPC   C4B29086  17.135  39.571   7.653
 2064POPC   NC329087  34.987  21.202   9.554
 2064POPC   PO429088  35.634  21.562   9.475
 2064POPC   GL129089  35.322  21.545   9.165
 2064POPC   GL229090  35.266  21.213   9.105
 2064POPC   C1A29091  35.292  21.599   8.709
 2064POPC   D2A29092  35.573  21.503   8.344
 2064POPC   C3A29093  35.404  21.406   7.944
 2064POPC   C4A29094  35.225  21.730   7.664
 2064POPC   C1B29095  35.465  21.109   8.696
 2064POPC   C2B29096  35.489  20.948   8.287
 2064POPC   C3B29097  35.216  20.941   7.945
 2064POPC   C4B29098  35.300  20.911   7.520
 2065POPC   NC329099  31.315  19.963   9.444
 2065POPC   PO429100  31.718  19.454   9.477
 2065POPC   GL129101  31.525  19.592   9.104
 2065POPC   GL229102  31.648  19.913   9.055
 2065POPC   C1A29103  31.304  19.600   8.720
 2065POPC   D2A29104  31.314  19.368   8.345
 2065POPC   C3A29105  31.331  19.617   7.970
 2065POPC   C4A29106  31.687  19.633   7.671
 2065POPC   C1B29107  31.923  20.063   8.738
 2065POPC   C2B29108  31.826  20.251   8.344
 2065POPC   C3B29109  31.658  20.030   8.009
 2065POPC   C4B29110  31.547  20.133   7.599
 2066POPC   NC329111  38.753  42.947   9.803
 2066POPC   PO429112  39.321  43.154   9.448
 2066POPC   GL129113  39.120  43.002   9.124
 2066POPC   GL229114  38.812  42.918   9.280
 2066POPC   C1A29115  39.255  43.057   8.687
 2066POPC   D2A29116  39.498  42.846   8.337
 2066POPC   C3A29117  39.461  42.994   7.907
 2066POPC   C4A29118  39.271  43.374   7.698
 2066POPC   C1B29119  38.731  42.893   8.819
 2066POPC   C2B29120  38.933  42.780   8.413
 2066POPC   C3B29121  38.952  42.928   7.973
 2066POPC   C4B29122  39.084  42.938   7.542
 2067POPC   NC329123  33.353  23.099   9.545
 2067POPC   PO429124  34.041  22.933   9.547
 2067POPC   GL129125  33.871  23.045   9.169
 2067POPC   GL229126  33.524  23.018   9.070
 2067POPC   C1A29127  33.922  23.219   8.751
 2067POPC   D2A29128  33.650  23.183   8.385
 2067POPC   C3A29129  33.830  23.162   7.978
 2067POPC   C4A29130  34.166  23.092   7.701
 2067POPC   C1B29131  33.693  22.792   8.733
 2067POPC   C2B29132  33.773  22.478   8.493
 2067POPC   C3B29133  33.761  22.443   8.047
 2067POPC   C4B29134  33.785  22.722   7.706
 2068POPC   NC329135  17.401  14.510   9.506
 2068POPC   PO429136  18.021  14.180   9.407
 2068POPC   GL129137  17.696  14.293   9.151
 2068POPC   GL229138  17.730  14.662   9.153
 2068POPC   C1A29139  17.466  14.388   8.794
 2068POPC   D2A29140  17.292  14.280   8.411
 2068POPC   C3A29141  17.578  14.205   8.099
 2068POPC   C4A29142  17.431  14.164   7.742
 2068POPC   C1B29143  17.839  14.773   8.755
 2068POPC   C2B29144  17.660  14.634   8.361
 2068POPC   C3B29145  17.418  14.674   7.976
 2068POPC   C4B29146  17.633  14.904   7.657
 2069POPC   NC329147  40.313   4.095   9.464
 2069POPC   PO429148  39.796   4.583   9.454
 2069POPC   GL129149  39.999   4.363   9.129
 2069POPC   GL229150  40.331   4.485   9.116
 2069POPC   C1A29151  39.869   4.153   8.746
 2069POPC   D2A29152  39.795   3.940   8.360
 2069POPC   C3A29153  39.892   4.162   8.004
 2069POPC   C4A29154  39.618   4.372   7.712
 2069POPC   C1B29155  40.349   4.349   8.726
 2069POPC   C2B29156  40.299   4.076   8.408
 2069POPC   C3B29157  40.577   4.265   8.153
 2069POPC   C4B29158  40.506   4.400   7.779
 2070POPC   NC329159  10.922  38.177   9.376
 2070POPC   PO429160  10.375  38.266   9.716
 2070POPC   GL129161  10.344  38.231   9.237
 2070POPC   GL229162  10.134  38.546   9.220
 2070POPC   C1A29163  10.584  38.209   8.806
 2070POPC   D2A29164  10.934  38.169   8.483
 2070POPC   C3A29165  10.836  38.305   8.047
 2070POPC   C4A29166  10.723  38.036   7.687
 2070POPC   C1B29167  10.110  38.426   8.810
 2070POPC   C2B29168  10.299  38.632   8.476
 2070POPC   C3B29169  10.196  38.662   8.068
 2070POPC   C4B29170  10.447  38.501   7.721
 2071POPC   NC329171  36.116  27.556   9.688
 2071POPC   PO429172  35.826  28.074   9.459
 2071POPC   GL129173  36.018  27.720   9.163
 2071POPC   GL229174  36.195  27.424   9.197
 2071POPC   C1A29175  35.896  27.465   8.763
 2071POPC   D2A29176  35.717  27.605   8.372
 2071POPC   C3A29177  35.682  27.471   7.944
 2071POPC   C4A29178  35.975  27.733   7.729
 2071POPC   C1B29179  36.400  27.447   8.785
 2071POPC   C2B29180  36.248  27.543   8.368
 2071POPC   C3B29181  36.431  27.653   7.993
 2071POPC   C4B29182  36.589  27.352   7.687
 2072POPC   NC329183  22.330  19.306   9.507
 2072POPC   PO429184  22.479  18.684   9.238
 2072POPC   GL129185  22.121  18.910   9.129
 2072POPC   GL229186  22.228  19.233   9.031
 2072POPC   C1A29187  21.914  18.960   8.716
 2072POPC   D2A29188  21.960  18.722   8.319
 2072POPC   C3A29189  21.912  18.873   7.907
 2072POPC   C4A29190  21.817  19.314   7.777
 2072POPC   C1B29191  22.217  19.373   8.631
 2072POPC   C2B29192  22.107  19.214   8.238
 2072POPC   C3B29193  22.348  19.174   7.887
 2072POPC   C4B29194  22.486  19.410   7.540
 2073POPC   NC329195  23.528   7.859   9.533
 2073POPC   PO429196  23.960   7.298   9.593
 2073POPC   GL129197  23.806   7.399   9.138
 2073POPC   GL229198  23.679   7.752   9.065
 2073POPC   C1A29199  23.896   7.196   8.739
 2073POPC   D2A29200  23.751   7.150   8.313
 2073POPC   C3A29201  23.956   7.309   7.947
 2073POPC   C4A29202  23.923   7.494   7.534
 2073POPC   C1B29203  23.655   7.636   8.633
 2073POPC   C2B29204  23.719   7.698   8.206
 2073POPC   C3B29205  23.513   7.591   7.844
 2073POPC   C4B29206  23.235   7.380   7.571
 2074POPC   NC329207  42.659  10.118   9.756
 2074POPC   PO429208  43.187  10.287   9.666
 2074POPC   GL129209  43.273  10.553   9.288
 2074POPC   GL229210  42.942  10.603   9.195
 2074POPC   C1A29211  43.331  10.573   8.835
 2074POPC   D2A29212  43.152  10.303   8.526
 2074POPC   C3A29213  43.279  10.387   8.115
 2074POPC   C4A29214  43.190  10.519   7.698
 2074POPC   C1B29215  42.844  10.750   8.778
 2074POPC   C2B29216  43.037  10.812   8.428
 2074POPC   C3B29217  43.085  10.892   8.025
 2074POPC   C4B29218  42.853  10.982   7.666
 2075POPC   NC329219  16.143   0.051   9.476
 2075POPC   PO429220  16.070  44.396   9.522
 2075POPC   GL129221  16.019  44.426   9.079
 2075POPC   GL229222  15.894  44.768   9.098
 2075POPC   C1A29223  15.879  44.423   8.628
 2075POPC   D2A29224  15.800  44.368   8.178
 2075POPC   C3A29225  16.079  44.571   7.886
 2075POPC   C4A29226  15.979   0.018   7.835
 2075POPC   C1B29227  16.173  44.834   8.758
 2075POPC   C2B29228  16.249  44.877   8.325
 2075POPC   C3B29229  16.483  44.957   7.981
 2075POPC   C4B29230  16.404  44.806   7.549
 2076POPC   NC329231  34.582  10.175   9.574
 2076POPC   PO429232  34.288  10.754   9.622
 2076POPC   GL129233  34.527  10.628   9.273
 2076POPC   GL229234  34.426  10.893   9.067
 2076POPC   C1A29235  34.716  10.431   8.916
 2076POPC   D2A29236  34.544  10.334   8.497
 2076POPC   C3A29237  34.726  10.473   8.144
 2076POPC   C4A29238  34.615  10.378   7.751
 2076POPC   C1B29239  34.523  10.815   8.622
 2076POPC   C2B29240  34.453  10.896   8.214
 2076POPC   C3B29241  34.211  10.800   7.871
 2076POPC   C4B29242  34.359  10.743   7.478
 2077POPC   NC329243  42.981  21.421   9.586
 2077POPC   PO429244  43.495  21.589   9.208
 2077POPC   GL129245  43.169  21.443   9.000
 2077POPC   GL229246  43.027  21.157   9.125
 2077POPC   C1A29247  43.166  21.460   8.579
 2077POPC   D2A29248  43.475  21.344   8.285
 2077POPC   C3A29249  43.303  21.407   7.907
 2077POPC   C4A29250  43.237  20.979   7.778
 2077POPC   C1B29251  42.706  21.335   8.839
 2077POPC   C2B29252  42.676  21.493   8.440
 2077POPC   C3B29253  42.826  21.399   8.051
 2077POPC   C4B29254  42.772  21.212   7.660
 2078POPC   NC329255  16.316  37.306   9.388
 2078POPC   PO429256  15.925  37.742   9.753
 2078POPC   GL129257  15.786  37.784   9.265
 2078POPC   GL229258  16.114  37.744   9.191
 2078POPC   C1A29259  15.811  37.726   8.746
 2078POPC   D2A29260  15.864  37.770   8.257
 2078POPC   C3A29261  15.828  37.626   7.779
 2078POPC   C4A29262  15.635  37.640   7.324
 2078POPC   C1B29263  16.293  37.526   8.816
 2078POPC   C2B29264  16.188  37.427   8.461
 2078POPC   C3B29265  16.251  37.449   8.050
 2078POPC   C4B29266  16.258  37.256   7.664
 2079POPC   NC329267   4.228  12.127   9.609
 2079POPC   PO429268   4.543  11.598   9.322
 2079POPC   GL129269   4.212  11.900   9.144
 2079POPC   GL229270   4.264  12.287   9.083
 2079POPC   C1A29271   4.191  11.955   8.707
 2079POPC   D2A29272   4.454  11.942   8.341
 2079POPC   C3A29273   4.219  11.836   7.985
 2079POPC   C4A29274   3.865  11.978   7.782
 2079POPC   C1B29275   4.638  12.493   8.810
 2079POPC   C2B29276   4.777  12.515   8.365
 2079POPC   C3B29277   4.660  12.277   7.986
 2079POPC   C4B29278   4.311  12.256   7.670
 2080POPC   NC329279  36.252   2.332   9.478
 2080POPC   PO429280  36.141   1.697   9.506
 2080POPC   GL129281  36.076   1.899   9.157
 2080POPC   GL229282  35.837   1.673   9.087
 2080POPC   C1A29283  36.078   2.137   8.793
 2080POPC   D2A29284  36.068   2.373   8.384
 2080POPC   C3A29285  36.307   2.195   8.040
 2080POPC   C4A29286  36.340   2.343   7.601
 2080POPC   C1B29287  35.759   1.696   8.679
 2080POPC   C2B29288  35.923   1.886   8.337
 2080POPC   C3B29289  35.887   1.944   7.926
 2080POPC   C4B29290  36.157   1.812   7.647
 2081POPC   NC329291  25.502  28.513   9.270
 2081POPC   PO429292  24.866  28.620   9.523
 2081POPC   GL129293  24.970  28.581   9.096
 2081POPC   GL229294  25.115  28.271   9.025
 2081POPC   C1A29295  25.205  28.612   8.689
 2081POPC   D2A29296  25.167  28.269   8.408
 2081POPC   C3A29297  25.235  28.460   8.025
 2081POPC   C4A29298  25.414  28.377   7.670
 2081POPC   C1B29299  25.435  28.047   8.804
 2081POPC   C2B29300  25.496  27.849   8.440
 2081POPC   C3B29301  25.409  27.974   8.036
 2081POPC   C4B29302  25.538  27.898   7.632
 2082POPC   NC329303  41.597   4.285   9.978
 2082POPC   PO429304  41.679   4.571   9.352
 2082POPC   GL129305  41.357   4.599   9.038
 2082POPC   GL229306  41.224   4.272   8.975
 2082POPC   C1A29307  41.533   4.578   8.655
 2082POPC   D2A29308  41.819   4.659   8.347
 2082POPC   C3A29309  41.607   4.667   7.974
 2082POPC   C4A29310  41.661   4.441   7.580
 2082POPC   C1B29311  41.111   4.277   8.550
 2082POPC   C2B29312  41.410   4.286   8.243
 2082POPC   C3B29313  41.493   4.065   7.896
 2082POPC   C4B29314  41.337   4.026   7.467
 2083POPC   NC329315   9.937  41.059   9.471
 2083POPC   PO429316  10.075  41.694   9.417
 2083POPC   GL129317   9.781  41.535   9.111
 2083POPC   GL229318   9.585  41.275   9.166
 2083POPC   C1A29319   9.913  41.610   8.699
 2083POPC   D2A29320   9.867  41.905   8.383
 2083POPC   C3A29321   9.826  41.680   8.046
 2083POPC   C4A29322   9.748  41.712   7.639
 2083POPC   C1B29323   9.563  41.216   8.718
 2083POPC   C2B29324   9.560  41.297   8.279
 2083POPC   C3B29325   9.627  41.232   7.831
 2083POPC   C4B29326   9.334  41.120   7.495
 2084POPC   NC329327  18.825  35.663   9.574
 2084POPC   PO429328  19.402  35.276   9.411
 2084POPC   GL129329  19.230  35.340   9.030
 2084POPC   GL229330  18.956  35.600   9.078
 2084POPC   C1A29331  19.319  35.616   8.696
 2084POPC   D2A29332  18.998  35.734   8.432
 2084POPC   C3A29333  19.020  35.416   8.137
 2084POPC   C4A29334  19.390  35.246   7.950
 2084POPC   C1B29335  18.624  35.764   8.800
 2084POPC   C2B29336  18.495  35.826   8.356
 2084POPC   C3B29337  18.711  35.769   7.929
 2084POPC   C4B29338  18.767  35.504   7.541
 2085POPC   NC329339   7.652  15.835   9.504
 2085POPC   PO429340   8.269  15.975   9.482
 2085POPC   GL129341   8.007  15.889   9.115
 2085POPC   GL229342   8.024  15.573   9.011
 2085POPC   C1A29343   8.149  15.931   8.668
 2085POPC   D2A29344   8.325  16.135   8.290
 2085POPC   C3A29345   8.244  16.116   7.841
 2085POPC   C4A29346   8.452  16.192   7.447
 2085POPC   C1B29347   7.991  15.445   8.602
 2085POPC   C2B29348   7.937  15.694   8.238
 2085POPC   C3B29349   7.884  15.723   7.815
 2085POPC   C4B29350   8.179  15.753   7.472
 2086POPC   NC329351  26.975  13.313   9.453
 2086POPC   PO429352  26.651  13.964   9.296
 2086POPC   GL129353  26.569  13.699   8.993
 2086POPC   GL229354  26.839  13.482   8.988
 2086POPC   C1A29355  26.602  13.664   8.561
 2086POPC   D2A29356  26.798  13.597   8.151
 2086POPC   C3A29357  26.644  13.897   7.917
 2086POPC   C4A29358  26.285  14.035   7.722
 2086POPC   C1B29359  27.096  13.559   8.600
 2086POPC   C2B29360  27.225  13.320   8.224
 2086POPC   C3B29361  27.140  13.401   7.781
 2086POPC   C4B29362  27.111  13.281   7.323
 2087POPC   NC329363  30.036   4.949   9.401
 2087POPC   PO429364  29.800   5.492   9.685
 2087POPC   GL129365  29.888   5.452   9.194
 2087POPC   GL229366  30.133   5.544   8.937
 2087POPC   C1A29367  29.827   5.167   8.792
 2087POPC   D2A29368  29.815   5.165   8.343
 2087POPC   C3A29369  30.229   5.221   8.132
 2087POPC   C4A29370  30.272   4.978   7.745
 2087POPC   C1B29371  29.663   5.642   8.795
 2087POPC   C2B29372  29.403   5.486   8.485
 2087POPC   C3B29373  29.542   5.498   8.062
 2087POPC   C4B29374  29.837   5.253   7.807
 2088POPC   NC329375  41.737  28.240   9.902
 2088POPC   PO429376  41.787  28.002   9.370
 2088POPC   GL129377  41.837  28.272   9.030
 2088POPC   GL229378  41.513  28.374   8.976
 2088POPC   C1A29379  41.724  28.232   8.563
 2088POPC   D2A29380  41.495  28.055   8.226
 2088POPC   C3A29381  41.497  28.267   7.834
 2088POPC   C4A29382  41.242  28.325   7.466
 2088POPC   C1B29383  41.518  28.682   8.672
 2088POPC   C2B29384  41.560  28.617   8.244
 2088POPC   C3B29385  41.700  28.739   7.839
 2088POPC   C4B29386  41.581  28.689   7.369
 2089POPC   NC329387  39.258   1.798   9.446
 2089POPC   PO429388  39.435   2.413   9.534
 2089POPC   GL129389  39.480   2.146   9.120
 2089POPC   GL229390  39.133   1.992   9.006
 2089POPC   C1A29391  39.373   2.286   8.694
 2089POPC   D2A29392  39.161   2.188   8.273
 2089POPC   C3A29393  39.446   2.042   7.908
 2089POPC   C4A29394  39.446   1.620   7.746
 2089POPC   C1B29395  39.266   1.759   8.652
 2089POPC   C2B29396  39.231   1.654   8.217
 2089POPC   C3B29397  38.991   1.843   7.877
 2089POPC   C4B29398  39.069   2.335   7.784
 2090POPC   NC329399  36.560  19.325   9.238
 2090POPC   PO429400  35.921  19.213   9.474
 2090POPC   GL129401  35.821  19.116   9.040
 2090POPC   GL229402  35.955  18.792   8.985
 2090POPC   C1A29403  35.982  19.141   8.598
 2090POPC   D2A29404  36.364  19.396   8.433
 2090POPC   C3A29405  36.460  19.231   8.024
 2090POPC   C4A29406  36.035  19.256   7.874
 2090POPC   C1B29407  35.984  18.569   8.612
 2090POPC   C2B29408  36.143  18.684   8.215
 2090POPC   C3B29409  35.901  18.726   7.871
 2090POPC   C4B29410  35.931  18.734   7.414
 2091POPC   NC329411  36.484  33.337   9.531
 2091POPC   PO429412  35.993  32.969   9.420
 2091POPC   GL129413  36.362  33.043   9.132
 2091POPC   GL229414  36.495  32.708   9.051
 2091POPC   C1A29415  36.276  33.306   8.775
 2091POPC   D2A29416  35.873  33.287   8.523
 2091POPC   C3A29417  35.865  33.302   8.073
 2091POPC   C4A29418  36.087  33.100   7.769
 2091POPC   C1B29419  36.194  32.800   8.703
 2091POPC   C2B29420  36.247  32.999   8.308
 2091POPC   C3B29421  36.498  32.883   7.987
 2091POPC   C4B29422  36.282  32.529   7.812
 2092POPC   NC329423   5.760  12.261   9.497
 2092POPC   PO429424   6.214  11.697   9.661
 2092POPC   GL129425   6.068  11.918   9.267
 2092POPC   GL229426   5.744  11.795   9.145
 2092POPC   C1A29427   6.014  12.034   8.797
 2092POPC   D2A29428   5.919  11.957   8.343
 2092POPC   C3A29429   6.164  12.134   7.963
 2092POPC   C4A29430   6.033  12.182   7.511
 2092POPC   C1B29431   5.502  11.901   8.742
 2092POPC   C2B29432   5.435  11.740   8.318
 2092POPC   C3B29433   5.569  11.825   7.884
 2092POPC   C4B29434   5.575  12.242   7.701
 2093POPC   NC329435   5.358  13.850   9.465
 2093POPC   PO429436   6.064  13.685   9.639
 2093POPC   GL129437   5.857  13.686   9.223
 2093POPC   GL229438   5.798  13.971   9.142
 2093POPC   C1A29439   5.724  13.511   8.804
 2093POPC   D2A29440   5.982  13.363   8.482
 2093POPC   C3A29441   5.784  13.394   8.094
 2093POPC   C4A29442   6.053  13.499   7.767
 2093POPC   C1B29443   6.084  13.853   8.782
 2093POPC   C2B29444   5.891  13.845   8.346
 2093POPC   C3B29445   5.931  14.014   7.912
 2093POPC   C4B29446   5.661  14.022   7.536
 2094POPC   NC329447  41.924  20.637   9.399
 2094POPC   PO429448  41.308  20.690   9.367
 2094POPC   GL129449  41.510  20.385   9.105
 2094POPC   GL229450  41.847  20.356   8.993
 2094POPC   C1A29451  41.357  20.392   8.698
 2094POPC   D2A29452  41.086  20.461   8.338
 2094POPC   C3A29453  41.390  20.574   8.059
 2094POPC   C4A29454  41.632  20.866   7.829
 2094POPC   C1B29455  41.803  20.725   8.717
 2094POPC   C2B29456  41.895  20.720   8.274
 2094POPC   C3B29457  41.869  20.428   7.920
 2094POPC   C4B29458  41.770  20.504   7.460
 2095POPC   NC329459  27.562  24.165   9.388
 2095POPC   PO429460  27.970  24.676   9.438
 2095POPC   GL129461  27.627  24.647   9.183
 2095POPC   GL229462  27.871  24.673   8.928
 2095POPC   C1A29463  27.330  24.528   8.861
 2095POPC   D2A29464  27.208  24.386   8.458
 2095POPC   C3A29465  26.961  24.535   8.148
 2095POPC   C4A29466  27.177  24.567   7.763
 2095POPC   C1B29467  27.750  24.479   8.586
 2095POPC   C2B29468  27.830  24.198   8.299
 2095POPC   C3B29469  27.554  24.381   8.045
 2095POPC   C4B29470  27.680  24.454   7.634
 2096POPC   NC329471  36.259   3.732   9.525
 2096POPC   PO429472  35.809   3.140   9.409
 2096POPC   GL129473  36.052   3.431   9.135
 2096POPC   GL229474  36.168   3.770   9.037
 2096POPC   C1A29475  36.258   3.374   8.734
 2096POPC   D2A29476  36.476   3.437   8.338
 2096POPC   C3A29477  36.241   3.258   8.028
 2096POPC   C4A29478  36.113   3.360   7.640
 2096POPC   C1B29479  35.825   3.809   8.730
 2096POPC   C2B29480  35.697   3.798   8.279
 2096POPC   C3B29481  35.923   3.772   7.891
 2096POPC   C4B29482  36.392   3.769   7.897
 2097POPC   NC329483   3.769  23.491   9.501
 2097POPC   PO429484   3.808  24.158   9.438
 2097POPC   GL129485   3.529  23.914   9.156
 2097POPC   GL229486   3.560  23.539   9.007
 2097POPC   C1A29487   3.444  23.962   8.724
 2097POPC   D2A29488   3.659  24.098   8.355
 2097POPC   C3A29489   3.521  23.875   7.975
 2097POPC   C4A29490   3.701  23.737   7.609
 2097POPC   C1B29491   3.190  23.468   8.691
 2097POPC   C2B29492   3.015  23.289   8.305
 2097POPC   C3B29493   3.150  23.518   7.914
 2097POPC   C4B29494   3.234  23.561   7.448
 2098POPC   NC329495  19.034   8.460   9.428
 2098POPC   PO429496  18.689   7.880   9.488
 2098POPC   GL129497  18.993   7.913   9.103
 2098POPC   GL229498  19.381   7.989   9.136
 2098POPC   C1A29499  18.923   7.870   8.652
 2098POPC   D2A29500  18.838   7.890   8.205
 2098POPC   C3A29501  18.792   8.283   7.944
 2098POPC   C4A29502  18.863   8.295   7.485
 2098POPC   C1B29503  19.304   8.249   8.756
 2098POPC   C2B29504  19.196   8.241   8.298
 2098POPC   C3B29505  19.261   8.211   7.819
 2098POPC   C4B29506  19.365   8.399   7.434
 2099POPC   NC329507  41.401  11.080   9.582
 2099POPC   PO429508  41.778  11.675   9.512
 2099POPC   GL129509  41.645  11.337   9.203
 2099POPC   GL229510  41.274  11.264   9.111
 2099POPC   C1A29511  41.686  11.191   8.778
 2099POPC   D2A29512  41.519  11.336   8.381
 2099POPC   C3A29513  41.683  11.117   8.023
 2099POPC   C4A29514  41.900  11.230   7.630
 2099POPC   C1B29515  41.187  11.029   8.701
 2099POPC   C2B29516  41.302  10.878   8.262
 2099POPC   C3B29517  41.236  11.016   7.816
 2099POPC   C4B29518  41.178  10.980   7.377
 2100POPC   NC329519  34.721   9.437   9.543
 2100POPC   PO429520  35.030  10.061   9.547
 2100POPC   GL129521  34.730   9.951   9.159
 2100POPC   GL229522  34.623   9.588   9.072
 2100POPC   C1A29523  34.406  10.006   8.851
 2100POPC   D2A29524  34.216   9.931   8.446
 2100POPC   C3A29525  34.490   9.912   8.073
 2100POPC   C4A29526  34.443   9.880   7.636
 2100POPC   C1B29527  34.523   9.550   8.636
 2100POPC   C2B29528  34.714   9.461   8.241
 2100POPC   C3B29529  34.704   9.293   7.840
 2100POPC   C4B29530  34.733   9.476   7.420
 2101POPC   NC329531  33.683  16.858   9.658
 2101POPC   PO429532  34.269  17.064   9.410
 2101POPC   GL129533  33.928  16.799   9.208
 2101POPC   GL229534  34.012  16.501   9.016
 2101POPC   C1A29535  33.664  16.914   8.855
 2101POPC   D2A29536  33.547  17.086   8.438
 2101POPC   C3A29537  33.696  16.844   8.085
 2101POPC   C4A29538  33.658  16.596   7.712
 2101POPC   C1B29539  34.193  16.885   8.771
 2101POPC   C2B29540  34.074  17.104   8.399
 2101POPC   C3B29541  34.189  16.979   7.976
 2101POPC   C4B29542  33.942  17.004   7.627
 2102POPC   NC329543   5.706   1.901   9.502
 2102POPC   PO429544   5.804   2.509   9.397
 2102POPC   GL129545   5.844   2.213   9.043
 2102POPC   GL229546   6.007   1.861   9.097
 2102POPC   C1A29547   6.043   2.111   8.628
 2102POPC   D2A29548   6.198   1.908   8.274
 2102POPC   C3A29549   6.238   2.116   7.856
 2102POPC   C4A29550   6.022   2.010   7.469
 2102POPC   C1B29551   5.677   1.795   8.789
 2102POPC   C2B29552   5.708   1.747   8.370
 2102POPC   C3B29553   5.775   1.967   7.987
 2102POPC   C4B29554   5.558   1.872   7.633
 2103POPC   NC329555  15.321  12.638   9.883
 2103POPC   PO429556  14.959  13.131   9.484
 2103POPC   GL129557  15.116  13.044   9.140
 2103POPC   GL229558  15.408  12.868   9.291
 2103POPC   C1A29559  14.897  13.001   8.756
 2103POPC   D2A29560  15.031  13.067   8.336
 2103POPC   C3A29561  14.793  13.053   7.993
 2103POPC   C4A29562  15.009  12.876   7.662
 2103POPC   C1B29563  15.477  12.917   8.831
 2103POPC   C2B29564  15.521  12.948   8.395
 2103POPC   C3B29565  15.412  12.956   7.973
 2103POPC   C4B29566  15.660  12.850   7.620
 2104POPC   NC329567  10.284  16.094   9.512
 2104POPC   PO429568  10.737  15.587   9.651
 2104POPC   GL129569  10.749  15.883   9.246
 2104POPC   GL229570  10.635  16.233   9.170
 2104POPC   C1A29571  10.675  15.890   8.789
 2104POPC   D2A29572  10.797  15.670   8.425
 2104POPC   C3A29573  10.559  15.822   8.126
 2104POPC   C4A29574  10.706  15.835   7.735
 2104POPC   C1B29575  10.268  16.212   8.850
 2104POPC   C2B29576  10.171  15.968   8.494
 2104POPC   C3B29577  10.155  16.135   8.074
 2104POPC   C4B29578  10.211  16.057   7.634
 2105POPC   NC329579  18.019  33.241   9.556
 2105POPC   PO429580  17.361  33.088   9.483
 2105POPC   GL129581  17.533  33.219   9.109
 2105POPC   GL229582  17.421  32.894   8.998
 2105POPC   C1A29583  17.345  33.408   8.729
 2105POPC   D2A29584  17.328  33.559   8.284
 2105POPC   C3A29585  17.270  33.245   7.969
 2105POPC   C4A29586  16.987  33.175   7.623
 2105POPC   C1B29587  17.702  32.989   8.688
 2105POPC   C2B29588  17.591  32.900   8.284
 2105POPC   C3B29589  17.721  33.002   7.918
 2105POPC   C4B29590  17.910  32.950   7.570
 2106POPC   NC329591  41.770  42.075   9.460
 2106POPC   PO429592  41.207  42.514   9.376
 2106POPC   GL129593  41.389  42.218   9.108
 2106POPC   GL229594  41.126  42.012   9.044
 2106POPC   C1A29595  41.581  42.361   8.751
 2106POPC   D2A29596  41.355  42.699   8.567
 2106POPC   C3A29597  41.342  42.768   8.129
 2106POPC   C4A29598  41.495  42.613   7.753
 2106POPC   C1B29599  41.223  42.027   8.601
 2106POPC   C2B29600  41.465  42.229   8.262
 2106POPC   C3B29601  41.468  42.099   7.854
 2106POPC   C4B29602  41.334  42.246   7.433
 2107POPC   NC329603   7.607  30.981   9.506
 2107POPC   PO429604   6.997  30.784   9.489
 2107POPC   GL129605   7.101  30.893   9.070
 2107POPC   GL229606   7.452  30.850   9.040
 2107POPC   C1A29607   7.191  30.778   8.621
 2107POPC   D2A29608   7.552  30.680   8.361
 2107POPC   C3A29609   7.438  30.486   7.975
 2107POPC   C4A29610   7.463  30.351   7.555
 2107POPC   C1B29611   7.695  31.027   8.706
 2107POPC   C2B29612   7.818  31.130   8.302
 2107POPC   C3B29613   7.630  30.976   7.932
 2107POPC   C4B29614   7.533  31.015   7.512
 2108POPC   NC329615  23.958   2.705   9.573
 2108POPC   PO429616  23.309   2.726   9.386
 2108POPC   GL129617  23.683   2.940   9.171
 2108POPC   GL229618  24.008   2.758   9.084
 2108POPC   C1A29619  23.840   3.036   8.720
 2108POPC   D2A29620  23.778   2.739   8.397
 2108POPC   C3A29621  23.795   2.880   8.002
 2108POPC   C4A29622  23.627   2.658   7.708
 2108POPC   C1B29623  23.980   2.432   8.750
 2108POPC   C2B29624  24.114   2.365   8.306
 2108POPC   C3B29625  23.998   2.338   7.844
 2108POPC   C4B29626  23.908   2.247   7.366
 2109POPC   NC329627   8.646  33.306   9.420
 2109POPC   PO429628   9.266  33.116   9.562
 2109POPC   GL129629   9.038  33.027   9.216
 2109POPC   GL229630   9.048  33.337   9.085
 2109POPC   C1A29631   9.001  32.883   8.810
 2109POPC   D2A29632   8.711  32.777   8.485
 2109POPC   C3A29633   8.923  32.777   8.099
 2109POPC   C4A29634   8.899  32.772   7.662
 2109POPC   C1B29635   8.682  33.291   8.783
 2109POPC   C2B29636   8.493  33.246   8.379
 2109POPC   C3B29637   8.759  33.328   8.078
 2109POPC   C4B29638   9.053  33.227   7.819
 2110POPC   NC329639  12.990  25.853   9.428
 2110POPC   PO429640  12.518  26.327   9.578
 2110POPC   GL129641  12.719  26.215   9.188
 2110POPC   GL229642  12.543  25.900   9.133
 2110POPC   C1A29643  12.952  26.255   8.783
 2110POPC   D2A29644  12.793  26.153   8.357
 2110POPC   C3A29645  13.003  26.297   7.962
 2110POPC   C4A29646  13.106  26.329   7.513
 2110POPC   C1B29647  12.731  25.797   8.745
 2110POPC   C2B29648  12.921  25.671   8.345
 2110POPC   C3B29649  12.761  25.850   7.945
 2110POPC   C4B29650  12.975  25.810   7.555
 2111POPC   NC329651  35.536  38.115   9.385
 2111POPC   PO429652  35.146  37.595   9.574
 2111POPC   GL129653  35.466  37.617   9.240
 2111POPC   GL229654  35.281  37.863   9.029
 2111POPC   C1A29655  35.530  37.493   8.816
 2111POPC   D2A29656  35.399  37.704   8.439
 2111POPC   C3A29657  35.548  37.532   8.068
 2111POPC   C4A29658  35.326  37.318   7.749
 2111POPC   C1B29659  35.651  38.016   8.751
 2111POPC   C2B29660  35.601  38.198   8.336
 2111POPC   C3B29661  35.694  38.007   7.935
 2111POPC   C4B29662  35.703  37.700   7.582
 2112POPC   NC329663  41.323  18.297   9.417
 2112POPC   PO429664  41.838  17.917   9.401
 2112POPC   GL129665  41.652  18.091   9.077
 2112POPC   GL229666  41.790  18.406   9.174
 2112POPC   C1A29667  41.518  18.343   8.743
 2112POPC   D2A29668  41.487  18.177   8.351
 2112POPC   C3A29669  41.431  18.437   7.998
 2112POPC   C4A29670  41.504  18.164   7.685
 2112POPC   C1B29671  41.998  18.547   8.805
 2112POPC   C2B29672  41.848  18.564   8.403
 2112POPC   C3B29673  42.109  18.707   8.100
 2112POPC   C4B29674  41.937  18.607   7.721
 2113POPC   NC329675   0.316   3.967   9.385
 2113POPC   PO429676   0.638   4.597   9.513
 2113POPC   GL129677   0.567   4.415   9.155
 2113POPC   GL229678   0.262   4.515   9.105
 2113POPC   C1A29679   0.613   4.643   8.767
 2113POPC   D2A29680   0.354   4.656   8.489
 2113POPC   C3A29681   0.530   4.536   8.162
 2113POPC   C4A29682   0.490   4.507   7.744
 2113POPC   C1B29683   0.271   4.247   8.783
 2113POPC   C2B29684   0.237   4.173   8.373
 2113POPC   C3B29685   0.452   4.066   8.029
 2113POPC   C4B29686   0.399   4.007   7.616
 2114POPC   NC329687  43.675  16.194   9.491
 2114POPC   PO429688  44.130  15.796   9.516
 2114POPC   GL129689  44.112  15.923   9.119
 2114POPC   GL229690  43.770  15.952   9.060
 2114POPC   C1A29691  44.128  15.775   8.708
 2114POPC   D2A29692  44.025  15.575   8.342
 2114POPC   C3A29693  44.139  15.796   7.963
 2114POPC   C4A29694  44.249  16.009   7.570
 2114POPC   C1B29695  43.710  16.212   8.716
 2114POPC   C2B29696  43.857  16.068   8.336
 2114POPC   C3B29697  43.618  15.769   8.079
 2114POPC   C4B29698  43.729  15.819   7.669
 2115POPC   NC329699   1.566   9.635   9.423
 2115POPC   PO429700   2.177  10.046   9.496
 2115POPC   GL129701   1.970   9.870   9.167
 2115POPC   GL229702   1.710  10.095   9.228
 2115POPC   C1A29703   1.920   9.646   8.758
 2115POPC   D2A29704   1.722   9.526   8.376
 2115POPC   C3A29705   1.755   9.695   7.981
 2115POPC   C4A29706   2.151   9.605   7.847
 2115POPC   C1B29707   1.773  10.151   8.797
 2115POPC   C2B29708   1.837  10.040   8.398
 2115POPC   C3B29709   2.033  10.177   8.053
 2115POPC   C4B29710   1.957  10.053   7.639
 2116POPC   NC329711  23.556  22.149   9.582
 2116POPC   PO429712  24.030  21.913   9.131
 2116POPC   GL129713  23.964  22.168   8.807
 2116POPC   GL229714  23.784  22.456   8.995
 2116POPC   C1A29715  23.896  21.871   8.461
 2116POPC   D2A29716  23.521  21.599   8.441
 2116POPC   C3A29717  23.342  21.786   8.088
 2116POPC   C4A29718  23.643  21.993   7.814
 2116POPC   C1B29719  23.718  22.550   8.563
 2116POPC   C2B29720  23.890  22.345   8.196
 2116POPC   C3B29721  23.958  22.465   7.775
 2116POPC   C4B29722  23.583  22.413   7.527
 2117POPC   NC329723   5.411  14.720   9.397
 2117POPC   PO429724   4.988  14.128   9.659
 2117POPC   GL129725   4.842  14.239   9.230
 2117POPC   GL229726   4.908  14.625   9.190
 2117POPC   C1A29727   4.928  14.166   8.776
 2117POPC   D2A29728   4.740  14.301   8.363
 2117POPC   C3A29729   4.981  14.371   7.994
 2117POPC   C4A29730   4.968  14.279   7.537
 2117POPC   C1B29731   4.825  14.650   8.752
 2117POPC   C2B29732   5.186  14.572   8.463
 2117POPC   C3B29733   5.361  14.748   8.087
 2117POPC   C4B29734   5.248  14.687   7.697
 2118POPC   NC329735  26.561  26.313   9.280
 2118POPC   PO429736  26.153  25.759   9.501
 2118POPC   GL129737  26.049  25.805   9.090
 2118POPC   GL229738  26.159  26.125   9.021
 2118POPC   C1A29739  25.926  25.832   8.668
 2118POPC   D2A29740  25.832  25.899   8.259
 2118POPC   C3A29741  26.169  25.966   7.960
 2118POPC   C4A29742  26.058  26.042   7.515
 2118POPC   C1B29743  26.355  26.338   8.656
 2118POPC   C2B29744  26.474  26.322   8.232
 2118POPC   C3B29745  26.305  26.428   7.806
 2118POPC   C4B29746  26.268  26.507   7.344
 2119POPC   NC329747  39.921  19.397   9.479
 2119POPC   PO429748  40.256  19.996   9.445
 2119POPC   GL129749  40.077  19.832   9.108
 2119POPC   GL229750  39.820  20.004   8.978
 2119POPC   C1A29751  40.122  19.731   8.684
 2119POPC   D2A29752  40.071  19.796   8.279
 2119POPC   C3A29753  40.155  19.476   7.996
 2119POPC   C4A29754  40.232  19.704   7.588
 2119POPC   C1B29755  39.607  19.775   8.658
 2119POPC   C2B29756  39.571  19.758   8.229
 2119POPC   C3B29757  39.794  19.831   7.856
 2119POPC   C4B29758  39.776  19.884   7.423
 2120POPC   NC329759   7.110  37.298   9.503
 2120POPC   PO429760   7.600  36.804   9.439
 2120POPC   GL129761   7.502  36.842   9.043
 2120POPC   GL229762   7.201  37.007   9.099
 2120POPC   C1A29763   7.607  36.686   8.656
 2120POPC   D2A29764   7.396  36.718   8.290
 2120POPC   C3A29765   7.584  36.859   7.966
 2120POPC   C4A29766   7.415  37.073   7.655
 2120POPC   C1B29767   7.119  36.913   8.694
 2120POPC   C2B29768   7.058  37.138   8.336
 2120POPC   C3B29769   6.984  37.010   7.922
 2120POPC   C4B29770   6.990  36.922   7.446
 2121POPC   NC329771  30.283  43.884   9.900
 2121POPC   PO429772  29.700  43.854   9.507
 2121POPC   GL129773  29.900  43.827   9.141
 2121POPC   GL229774  30.085  44.122   9.120
 2121POPC   C1A29775  29.758  43.883   8.742
 2121POPC   D2A29776  29.830  43.992   8.306
 2121POPC   C3A29777  29.960  43.641   8.032
 2121POPC   C4A29778  29.705  43.638   7.728
 2121POPC   C1B29779  30.294  43.963   8.724
 2121POPC   C2B29780  30.320  43.890   8.260
 2121POPC   C3B29781  30.109  44.125   7.865
 2121POPC   C4B29782  30.027  44.224   7.370
 2122POPC   NC329783  38.749  27.399   9.487
 2122POPC   PO429784  38.297  27.875   9.435
 2122POPC   GL129785  38.559  27.731   9.129
 2122POPC   GL229786  38.384  27.420   9.054
 2122POPC   C1A29787  38.689  27.747   8.723
 2122POPC   D2A29788  38.524  27.491   8.407
 2122POPC   C3A29789  38.654  27.690   8.044
 2122POPC   C4A29790  38.498  27.530   7.667
 2122POPC   C1B29791  38.736  27.234   8.825
 2122POPC   C2B29792  38.810  26.986   8.440
 2122POPC   C3B29793  38.719  27.178   8.035
 2122POPC   C4B29794  38.870  27.154   7.636
 2123POPC   NC329795  11.074  27.886   9.393
 2123POPC   PO429796  11.560  27.562   9.599
 2123POPC   GL129797  11.492  27.648   9.171
 2123POPC   GL229798  11.160  27.536   9.046
 2123POPC   C1A29799  11.556  27.467   8.752
 2123POPC   D2A29800  11.668  27.425   8.332
 2123POPC   C3A29801  11.332  27.570   8.053
 2123POPC   C4A29802  11.442  27.710   7.648
 2123POPC   C1B29803  11.074  27.878   8.725
 2123POPC   C2B29804  10.894  27.909   8.291
 2123POPC   C3B29805  10.964  27.842   7.816
 2123POPC   C4B29806  10.995  27.502   7.518
 2124POPC   NC329807  28.620  41.964   9.409
 2124POPC   PO429808  28.537  42.631   9.500
 2124POPC   GL129809  28.380  42.371   9.161
 2124POPC   GL229810  28.255  42.671   9.036
 2124POPC   C1A29811  28.343  42.308   8.689
 2124POPC   D2A29812  28.201  42.204   8.271
 2124POPC   C3A29813  28.389  42.130   7.829
 2124POPC   C4A29814  28.208  42.251   7.422
 2124POPC   C1B29815  28.672  42.674   8.822
 2124POPC   C2B29816  28.706  42.499   8.375
 2124POPC   C3B29817  28.445  42.585   8.019
 2124POPC   C4B29818  28.488  42.653   7.591
 2125POPC   NC329819   8.030  37.275   9.438
 2125POPC   PO429820   8.389  36.670   9.547
 2125POPC   GL129821   8.368  36.904   9.146
 2125POPC   GL229822   8.021  36.841   9.112
 2125POPC   C1A29823   8.341  36.925   8.669
 2125POPC   D2A29824   7.985  36.833   8.335
 2125POPC   C3A29825   8.112  36.913   7.908
 2125POPC   C4A29826   8.487  37.063   7.685
 2125POPC   C1B29827   7.869  37.102   8.782
 2125POPC   C2B29828   7.619  37.194   8.401
 2125POPC   C3B29829   7.815  37.327   7.983
 2125POPC   C4B29830   7.861  37.250   7.535
 2126POPC   NC329831  16.754  15.885   9.640
 2126POPC   PO429832  17.272  16.126   9.290
 2126POPC   GL129833  16.934  16.023   9.023
 2126POPC   GL229834  16.613  16.079   9.167
 2126POPC   C1A29835  16.854  15.976   8.575
 2126POPC   D2A29836  16.987  15.766   8.180
 2126POPC   C3A29837  17.003  15.993   7.789
 2126POPC   C4A29838  17.041  16.436   7.790
 2126POPC   C1B29839  16.405  15.835   8.833
 2126POPC   C2B29840  16.482  15.678   8.382
 2126POPC   C3B29841  16.545  15.772   7.920
 2126POPC   C4B29842  16.446  15.548   7.575
 2127POPC   NC329843  34.292   2.993   9.461
 2127POPC   PO429844  34.930   2.859   9.651
 2127POPC   GL129845  34.909   2.701   9.174
 2127POPC   GL229846  34.553   2.668   9.138
 2127POPC   C1A29847  34.801   2.559   8.716
 2127POPC   D2A29848  34.424   2.587   8.429
 2127POPC   C3A29849  34.514   2.674   7.990
 2127POPC   C4A29850  34.785   2.959   7.793
 2127POPC   C1B29851  34.432   2.946   8.815
 2127POPC   C2B29852  34.207   3.097   8.463
 2127POPC   C3B29853  34.113   3.017   8.057
 2127POPC   C4B29854  34.279   2.997   7.659
 2128POPC   NC329855  13.247  21.901   9.327
 2128POPC   PO429856  12.832  21.574   9.803
 2128POPC   GL129857  12.805  21.590   9.334
 2128POPC   GL229858  12.657  21.294   9.210
 2128POPC   C1A29859  12.754  21.678   8.874
 2128POPC   D2A29860  12.959  21.616   8.496
 2128POPC   C3A29861  12.714  21.562   8.106
 2128POPC   C4A29862  12.913  21.492   7.720
 2128POPC   C1B29863  12.733  21.183   8.730
 2128POPC   C2B29864  12.910  21.139   8.319
 2128POPC   C3B29865  12.827  21.034   7.901
 2128POPC   C4B29866  12.399  21.151   7.828
 2129POPC   NC329867  29.155   9.299   9.533
 2129POPC   PO429868  28.819   9.956   9.404
 2129POPC   GL129869  29.068   9.701   9.164
 2129POPC   GL229870  29.409   9.752   9.298
 2129POPC   C1A29871  29.008   9.564   8.731
 2129POPC   D2A29872  28.883   9.622   8.296
 2129POPC   C3A29873  29.152   9.687   7.943
 2129POPC   C4A29874  29.244  10.064   7.782
 2129POPC   C1B29875  29.524   9.699   8.861
 2129POPC   C2B29876  29.389   9.712   8.430
 2129POPC   C3B29877  29.424   9.353   8.219
 2129POPC   C4B29878  29.461   9.261   7.789
 2130POPC   NC329879  22.720  26.453   9.303
 2130POPC   PO429880  23.163  26.873   9.612
 2130POPC   GL129881  23.070  26.831   9.214
 2130POPC   GL229882  23.250  26.513   9.233
 2130POPC   C1A29883  22.874  26.911   8.787
 2130POPC   D2A29884  22.711  27.075   8.406
 2130POPC   C3A29885  22.974  26.976   8.040
 2130POPC   C4A29886  22.886  26.929   7.591
 2130POPC   C1B29887  23.284  26.616   8.814
 2130POPC   C2B29888  23.195  26.668   8.419
 2130POPC   C3B29889  23.162  26.517   8.039
 2130POPC   C4B29890  23.274  26.616   7.652
 2131POPC   NC329891  34.881  31.297   9.524
 2131POPC   PO429892  35.676  31.468   9.571
 2131POPC   GL129893  35.479  31.491   9.182
 2131POPC   GL229894  35.133  31.444   9.117
 2131POPC   C1A29895  35.507  31.484   8.760
 2131POPC   D2A29896  35.489  31.794   8.457
 2131POPC   C3A29897  35.452  31.666   8.039
 2131POPC   C4A29898  35.251  31.446   7.698
 2131POPC   C1B29899  35.023  31.657   8.734
 2131POPC   C2B29900  35.058  31.482   8.347
 2131POPC   C3B29901  34.899  31.641   8.003
 2131POPC   C4B29902  34.895  31.807   7.617
 2132POPC   NC329903   6.449  25.138   9.407
 2132POPC   PO429904   6.046  25.585   9.643
 2132POPC   GL129905   5.908  25.390   9.219
 2132POPC   GL229906   6.194  25.322   9.016
 2132POPC   C1A29907   5.727  25.385   8.770
 2132POPC   D2A29908   5.811  25.587   8.338
 2132POPC   C3A29909   5.697  25.355   7.976
 2132POPC   C4A29910   5.763  25.307   7.523
 2132POPC   C1B29911   6.233  25.461   8.606
 2132POPC   C2B29912   6.291  25.441   8.166
 2132POPC   C3B29913   6.215  25.316   7.751
 2132POPC   C4B29914   6.238  25.251   7.279
 2133POPC   NC329915  43.576  35.802   9.396
 2133POPC   PO429916  43.079  35.408   9.438
 2133POPC   GL129917  42.935  35.625   9.046
 2133POPC   GL229918  43.264  35.711   8.998
 2133POPC   C1A29919  42.921  35.642   8.592
 2133POPC   D2A29920  43.053  35.301   8.350
 2133POPC   C3A29921  42.900  35.089   7.967
 2133POPC   C4A29922  43.258  35.012   7.692
 2133POPC   C1B29923  43.527  35.778   8.644
 2133POPC   C2B29924  43.376  35.726   8.233
 2133POPC   C3B29925  43.119  35.557   7.915
 2133POPC   C4B29926  42.666  35.598   7.880
 2134POPC   NC329927  18.494   4.363   9.443
 2134POPC   PO429928  17.974   3.997   9.513
 2134POPC   GL129929  18.133   4.183   9.121
 2134POPC   GL229930  18.445   3.969   9.124
 2134POPC   C1A29931  18.110   4.519   8.772
 2134POPC   D2A29932  17.896   4.593   8.371
 2134POPC   C3A29933  18.154   4.557   7.981
 2134POPC   C4A29934  18.518   4.510   7.699
 2134POPC   C1B29935  18.512   4.218   8.749
 2134POPC   C2B29936  18.268   4.233   8.363
 2134POPC   C3B29937  18.345   4.066   7.956
 2134POPC   C4B29938  18.651   4.012   7.640
 2135POPC   NC329939  33.429  14.590   9.860
 2135POPC   PO429940  34.048  14.570   9.414
 2135POPC   GL129941  33.997  14.365   9.046
 2135POPC   GL229942  33.688  14.216   9.084
 2135POPC   C1A29943  33.814  14.557   8.704
 2135POPC   D2A29944  33.565  14.681   8.376
 2135POPC   C3A29945  33.768  14.560   8.015
 2135POPC   C4A29946  33.814  14.629   7.600
 2135POPC   C1B29947  33.687  14.038   8.724
 2135POPC   C2B29948  33.816  14.145   8.321
 2135POPC   C3B29949  33.582  14.077   7.954
 2135POPC   C4B29950  33.385  14.360   7.662
 2136POPC   NC329951  23.141  38.520   9.473
 2136POPC   PO429952  22.998  39.152   9.585
 2136POPC   GL129953  22.923  39.120   9.143
 2136POPC   GL229954  22.582  39.152   9.119
 2136POPC   C1A29955  22.905  39.197   8.678
 2136POPC   D2A29956  22.770  39.221   8.231
 2136POPC   C3A29957  23.093  39.428   7.973
 2136POPC   C4A29958  23.412  39.331   7.633
 2136POPC   C1B29959  22.576  38.836   8.801
 2136POPC   C2B29960  22.801  38.746   8.405
 2136POPC   C3B29961  22.603  38.747   7.993
 2136POPC   C4B29962  22.723  38.687   7.568
 2137POPC   NC329963   6.547   0.639   9.581
 2137POPC   PO429964   6.865   0.128   9.375
 2137POPC   GL129965   6.668   0.444   9.072
 2137POPC   GL229966   6.328   0.623   9.090
 2137POPC   C1A29967   6.599   0.381   8.617
 2137POPC   D2A29968   6.706   0.149   8.244
 2137POPC   C3A29969   6.623   0.314   7.823
 2137POPC   C4A29970   6.420   0.273   7.376
 2137POPC   C1B29971   6.400   0.841   8.662
 2137POPC   C2B29972   6.527   0.799   8.182
 2137POPC   C3B29973   6.336   0.728   7.727
 2137POPC   C4B29974   6.366   0.780   7.258
 2138POPC   NC329975   8.849   9.696   9.383
 2138POPC   PO429976   9.432  10.088   9.480
 2138POPC   GL129977   9.215   9.914   9.104
 2138POPC   GL229978   8.816   9.971   8.969
 2138POPC   C1A29979   9.239   9.856   8.684
 2138POPC   D2A29980   9.120  10.036   8.305
 2138POPC   C3A29981   9.357   9.833   7.965
 2138POPC   C4A29982   9.236   9.525   7.653
 2138POPC   C1B29983   8.808   9.531   8.743
 2138POPC   C2B29984   8.821   9.401   8.305
 2138POPC   C3B29985   8.868   9.725   7.984
 2138POPC   C4B29986   8.846   9.837   7.518
 2139POPC   NC329987   5.448   7.377   9.434
 2139POPC   PO429988   6.142   7.591   9.509
 2139POPC   GL129989   5.931   7.477   9.188
 2139POPC   GL229990   6.225   7.426   9.010
 2139POPC   C1A29991   5.736   7.457   8.797
 2139POPC   D2A29992   5.866   7.346   8.374
 2139POPC   C3A29993   5.711   7.435   7.966
 2139POPC   C4A29994   5.838   7.421   7.538
 2139POPC   C1B29995   6.327   7.395   8.608
 2139POPC   C2B29996   6.338   7.427   8.198
 2139POPC   C3B29997   6.104   7.753   8.055
 2139POPC   C4B29998   6.197   7.805   7.655
 2140POPC   NC329999   0.629  41.814   9.447
 2140POPC   PO430000   0.286  41.248   9.598
 2140POPC   GL130001   0.399  41.424   9.205
 2140POPC   GL230002   0.216  41.710   9.120
 2140POPC   C1A30003   0.628  41.480   8.803
 2140POPC   D2A30004   0.652  41.668   8.376
 2140POPC   C3A30005   0.611  41.397   8.002
 2140POPC   C4A30006   0.697  41.515   7.570
 2140POPC   C1B30007   0.347  41.921   8.748
 2140POPC   C2B30008   0.147  41.940   8.366
 2140POPC   C3B30009   0.304  41.822   7.979
 2140POPC   C4B30010   0.199  41.508   7.706
 2141POPC   NC330011  35.597  36.365   9.960
 2141POPC   PO430012  35.247  35.906   9.526
 2141POPC   GL130013  35.430  36.180   9.248
 2141POPC   GL230014  35.319  36.485   9.382
 2141POPC   C1A30015  35.383  36.077   8.819
 2141POPC   D2A30016  35.192  36.151   8.432
 2141POPC   C3A30017  35.318  35.956   8.033
 2141POPC   C4A30018  35.084  35.865   7.638
 2141POPC   C1B30019  35.290  36.592   8.943
 2141POPC   C2B30020  35.345  36.633   8.491
 2141POPC   C3B30021  35.148  36.515   8.086
 2141POPC   C4B30022  35.283  36.349   7.708
 2142POPC   NC330023  31.616  20.781   9.483
 2142POPC   PO430024  30.994  20.351   9.537
 2142POPC   GL130025  31.403  20.396   9.230
 2142POPC   GL230026  31.243  20.538   9.024
 2142POPC   C1A30027  31.654  20.481   8.791
 2142POPC   D2A30028  31.365  20.476   8.410
 2142POPC   C3A30029  31.494  20.524   7.973
 2142POPC   C4A30030  31.213  20.769   7.732
 2142POPC   C1B30031  31.254  20.129   8.785
 2142POPC   C2B30032  31.289  19.964   8.359
 2142POPC   C3B30033  31.127  20.083   7.939
 2142POPC   C4B30034  31.035  20.281   7.529
 2143POPC   NC330035  14.791  44.469   9.404
 2143POPC   PO430036  14.388  44.872   9.744
 2143POPC   GL130037  14.439  44.845   9.286
 2143POPC   GL230038  14.269   0.122   9.114
 2143POPC   C1A30039  14.549  44.730   8.841
 2143POPC   D2A30040  14.810  44.758   8.476
 2143POPC   C3A30041  14.717  44.456   8.139
 2143POPC   C4A30042  14.474  44.586   7.782
 2143POPC   C1B30043  14.140  44.974   8.682
 2143POPC   C2B30044  14.342  44.871   8.283
 2143POPC   C3B30045  14.132  44.950   7.874
 2143POPC   C4B30046  14.054  44.889   7.421
 2144POPC   NC330047   7.816  21.381   9.567
 2144POPC   PO430048   8.432  21.197   9.592
 2144POPC   GL130049   8.421  21.326   9.181
 2144POPC   GL230050   8.124  21.160   9.130
 2144POPC   C1A30051   8.234  21.613   8.848
 2144POPC   D2A30052   8.041  21.591   8.410
 2144POPC   C3A30053   8.244  21.788   8.088
 2144POPC   C4A30054   8.374  21.550   7.768
 2144POPC   C1B30055   8.360  21.157   8.685
 2144POPC   C2B30056   8.364  21.201   8.209
 2144POPC   C3B30057   8.255  21.045   7.798
 2144POPC   C4B30058   7.932  21.163   7.505
 2145POPC   NC330059   6.611   9.350   9.443
 2145POPC   PO430060   7.162   8.972   9.505
 2145POPC   GL130061   6.776   8.924   9.206
 2145POPC   GL230062   6.711   9.220   8.969
 2145POPC   C1A30063   6.522   8.778   8.781
 2145POPC   D2A30064   6.585   9.010   8.393
 2145POPC   C3A30065   6.525   8.892   7.944
 2145POPC   C4A30066   6.633   8.712   7.517
 2145POPC   C1B30067   7.006   8.957   8.760
 2145POPC   C2B30068   7.104   8.948   8.370
 2145POPC   C3B30069   6.965   9.174   8.021
 2145POPC   C4B30070   7.167   9.116   7.656
 2146POPC   NC330071  40.872  27.267   9.440
 2146POPC   PO430072  40.424  26.878   9.784
 2146POPC   GL130073  40.571  26.754   9.323
 2146POPC   GL230074  40.929  26.809   9.203
 2146POPC   C1A30075  40.566  26.723   8.843
 2146POPC   D2A30076  40.729  26.507   8.458
 2146POPC   C3A30077  40.734  26.628   8.025
 2146POPC   C4A30078  40.645  26.768   7.600
 2146POPC   C1B30079  41.048  26.943   8.778
 2146POPC   C2B30080  41.149  27.081   8.355
 2146POPC   C3B30081  41.080  26.992   7.929
 2146POPC   C4B30082  41.200  27.162   7.558
 2147POPC   NC330083   4.749  26.708   9.563
 2147POPC   PO430084   5.243  27.125   9.598
 2147POPC   GL130085   5.328  26.966   9.202
 2147POPC   GL230086   4.998  26.877   9.153
 2147POPC   C1A30087   5.349  27.052   8.762
 2147POPC   D2A30088   5.593  26.963   8.389
 2147POPC   C3A30089   5.408  27.020   7.990
 2147POPC   C4A30090   5.383  26.740   7.652
 2147POPC   C1B30091   4.902  26.785   8.745
 2147POPC   C2B30092   5.013  26.924   8.350
 2147POPC   C3B30093   5.039  26.651   8.027
 2147POPC   C4B30094   4.874  26.587   7.615
 2148POPC   NC330095  18.604  31.598   9.527
 2148POPC   PO430096  19.240  31.681   9.787
 2148POPC   GL130097  19.147  31.781   9.282
 2148POPC   GL230098  19.455  31.786   9.072
 2148POPC   C1A30099  19.052  31.762   8.783
 2148POPC   D2A30100  19.335  31.669   8.392
 2148POPC   C3A30101  19.182  31.618   7.940
 2148POPC   C4A30102  18.739  31.564   7.780
 2148POPC   C1B30103  19.452  31.412   8.827
 2148POPC   C2B30104  19.461  31.149   8.459
 2148POPC   C3B30105  19.484  31.225   8.022
 2148POPC   C4B30106  19.303  31.238   7.586
 2149POPC   NC330107  15.033  30.404   9.803
 2149POPC   PO430108  14.896  29.833   9.378
 2149POPC   GL130109  15.060  29.935   9.009
 2149POPC   GL230110  15.399  29.806   9.021
 2149POPC   C1A30111  15.035  29.723   8.651
 2149POPC   D2A30112  15.124  29.687   8.257
 2149POPC   C3A30113  15.067  29.942   7.972
 2149POPC   C4A30114  14.934  29.894   7.581
 2149POPC   C1B30115  15.510  29.536   8.654
 2149POPC   C2B30116  15.533  29.427   8.217
 2149POPC   C3B30117  15.412  29.591   7.817
 2149POPC   C4B30118  15.476  30.032   7.688
 2150POPC   NC330119  44.629  36.824   9.611
 2150POPC   PO430120   0.056  37.281   9.484
 2150POPC   GL130121  44.825  37.005   9.172
 2150POPC   GL230122  44.519  37.163   9.038
 2150POPC   C1A30123  44.650  36.699   8.846
 2150POPC   D2A30124  44.458  36.824   8.433
 2150POPC   C3A30125  44.576  36.690   8.001
 2150POPC   C4A30126  44.405  36.804   7.594
 2150POPC   C1B30127  44.810  37.138   8.662
 2150POPC   C2B30128  44.833  37.126   8.222
 2150POPC   C3B30129  44.627  37.180   7.870
 2150POPC   C4B30130  44.853  37.073   7.500
 2151POPC   NC330131  41.914  43.617   9.560
 2151POPC   PO430132  41.272  43.937   9.524
 2151POPC   GL130133  41.532  43.724   9.238
 2151POPC   GL230134  41.748  43.940   9.077
 2151POPC   C1A30135  41.463  43.603   8.826
 2151POPC   D2A30136  41.400  43.694   8.406
 2151POPC   C3A30137  41.656  43.774   8.068
 2151POPC   C4A30138  41.354  44.010   7.812
 2151POPC   C1B30139  41.728  44.169   8.700
 2151POPC   C2B30140  41.556  44.235   8.283
 2151POPC   C3B30141  41.800  44.245   7.879
 2151POPC   C4B30142  41.709  44.169   7.445
 2152POPC   NC330143   4.466  11.075   9.343
 2152POPC   PO430144   4.105  11.647   9.672
 2152POPC   GL130145   4.041  11.429   9.203
 2152POPC   GL230146   4.288  11.340   8.967
 2152POPC   C1A30147   3.902  11.515   8.714
 2152POPC   D2A30148   4.038  11.263   8.330
 2152POPC   C3A30149   4.063  11.320   7.885
 2152POPC   C4A30150   4.256  11.106   7.538
 2152POPC   C1B30151   4.490  11.490   8.618
 2152POPC   C2B30152   4.518  11.408   8.197
 2152POPC   C3B30153   4.540  11.504   7.795
 2152POPC   C4B30154   4.491  11.533   7.342
 2153POPC   NC330155  13.076  32.727   9.356
 2153POPC   PO430156  13.701  32.981   9.522
 2153POPC   GL130157  13.651  33.074   9.104
 2153POPC   GL230158  13.348  33.100   9.149
 2153POPC   C1A30159  13.651  33.199   8.692
 2153POPC   D2A30160  13.936  33.172   8.377
 2153POPC   C3A30161  13.838  32.933   8.069
 2153POPC   C4A30162  13.959  33.070   7.693
 2153POPC   C1B30163  13.251  32.844   8.775
 2153POPC   C2B30164  13.258  32.642   8.409
 2153POPC   C3B30165  13.221  32.937   8.105
 2153POPC   C4B30166  13.431  32.923   7.748
 2154POPC   NC330167  42.413  33.381   9.636
 2154POPC   PO430168  42.653  33.985   9.476
 2154POPC   GL130169  42.357  33.848   9.169
 2154POPC   GL230170  42.019  33.932   9.265
 2154POPC   C1A30171  42.371  33.538   8.832
 2154POPC   D2A30172  42.385  33.677   8.384
 2154POPC   C3A30173  42.273  33.525   7.994
 2154POPC   C4A30174  42.195  33.770   7.605
 2154POPC   C1B30175  41.916  33.756   8.856
 2154POPC   C2B30176  41.935  33.914   8.463
 2154POPC   C3B30177  41.925  33.895   8.034
 2154POPC   C4B30178  41.660  33.992   7.688
 2155POPC   NC330179  19.160  18.881   9.550
 2155POPC   PO430180  18.504  18.993   9.657
 2155POPC   GL130181  18.730  18.964   9.210
 2155POPC   GL230182  19.054  19.020   9.056
 2155POPC   C1A30183  18.677  18.782   8.771
 2155POPC   D2A30184  18.816  18.658   8.333
 2155POPC   C3A30185  18.924  18.912   7.937
 2155POPC   C4A30186  19.029  19.016   7.464
 2155POPC   C1B30187  19.401  19.196   8.787
 2155POPC   C2B30188  19.669  19.290   8.429
 2155POPC   C3B30189  19.510  19.300   8.059
 2155POPC   C4B30190  19.426  18.989   7.758
 2156POPC   NC330191  16.357   2.480   9.322
 2156POPC   PO430192  16.724   2.049   9.774
 2156POPC   GL130193  16.720   1.894   9.332
 2156POPC   GL230194  16.767   2.209   9.183
 2156POPC   C1A30195  16.636   1.815   8.873
 2156POPC   D2A30196  16.458   1.831   8.444
 2156POPC   C3A30197  16.757   1.897   8.102
 2156POPC   C4A30198  16.690   1.790   7.674
 2156POPC   C1B30199  17.011   2.362   8.843
 2156POPC   C2B30200  17.026   2.288   8.414
 2156POPC   C3B30201  16.795   2.431   8.057
 2156POPC   C4B30202  16.902   2.257   7.660
 2157POPC   NC330203  12.698  30.364   9.477
 2157POPC   PO430204  13.094  29.828   9.576
 2157POPC   GL130205  12.848  29.946   9.222
 2157POPC   GL230206  13.142  30.173   9.160
 2157POPC   C1A30207  12.772  30.159   8.805
 2157POPC   D2A30208  12.539  30.132   8.420
 2157POPC   C3A30209  12.747  30.035   8.037
 2157POPC   C4A30210  12.517  29.792   7.762
 2157POPC   C1B30211  13.127  29.773   8.848
 2157POPC   C2B30212  13.028  29.780   8.396
 2157POPC   C3B30213  13.226  29.821   7.969
 2157POPC   C4B30214  13.260  30.256   7.850
 2158POPC   NC330215  39.805  15.483   9.432
 2158POPC   PO430216  40.335  15.945   9.470
 2158POPC   GL130217  40.055  16.014   9.114
 2158POPC   GL230218  39.760  15.786   9.002
 2158POPC   C1A30219  40.195  15.950   8.702
 2158POPC   D2A30220  40.009  15.748   8.360
 2158POPC   C3A30221  40.186  15.941   8.002
 2158POPC   C4A30222  40.520  16.135   7.821
 2158POPC   C1B30223  39.731  16.164   8.715
 2158POPC   C2B30224  39.794  16.219   8.261
 2158POPC   C3B30225  39.689  15.903   7.914
 2158POPC   C4B30226  39.949  15.866   7.555
 2159POPC   NC330227  33.010  15.419   9.489
 2159POPC   PO430228  33.206  14.823   9.521
 2159POPC   GL130229  33.208  15.104   9.140
 2159POPC   GL230230  32.890  14.980   9.051
 2159POPC   C1A30231  33.072  15.374   8.751
 2159POPC   D2A30232  32.701  15.351   8.419
 2159POPC   C3A30233  32.804  15.456   7.965
 2159POPC   C4A30234  33.238  15.445   7.838
 2159POPC   C1B30235  33.143  14.882   8.671
 2159POPC   C2B30236  33.067  14.640   8.324
 2159POPC   C3B30237  33.132  14.710   7.911
 2159POPC   C4B30238  33.002  15.046   7.669
 2160POPC   NC330239  22.609  11.168   9.218
 2160POPC   PO430240  23.094  11.492   9.532
 2160POPC   GL130241  23.109  11.284   9.155
 2160POPC   GL230242  23.198  10.932   9.183
 2160POPC   C1A30243  22.988  11.434   8.732
 2160POPC   D2A30244  23.189  11.521   8.357
 2160POPC   C3A30245  22.978  11.628   7.977
 2160POPC   C4A30246  23.021  11.558   7.530
 2160POPC   C1B30247  23.348  11.032   8.783
 2160POPC   C2B30248  23.229  10.958   8.384
 2160POPC   C3B30249  22.951  11.090   8.046
 2160POPC   C4B30250  23.064  10.973   7.629
 2161POPC   NC330251  43.873  37.472   9.518
 2161POPC   PO430252  44.171  36.843   9.605
 2161POPC   GL130253  44.047  36.939   9.214
 2161POPC   GL230254  43.706  36.894   9.155
 2161POPC   C1A30255  44.089  36.855   8.788
 2161POPC   D2A30256  43.973  37.095   8.417
 2161POPC   C3A30257  44.162  37.014   8.048
 2161POPC   C4A30258  44.036  37.161   7.677
 2161POPC   C1B30259  43.580  37.007   8.733
 2161POPC   C2B30260  43.469  36.863   8.292
 2161POPC   C3B30261  43.702  36.806   7.876
 2161POPC   C4B30262  43.658  36.966   7.431
 2162POPC   NC330263  25.612   5.084   9.610
 2162POPC   PO430264  26.294   5.049   9.685
 2162POPC   GL130265  26.281   5.018   9.237
 2162POPC   GL230266  25.958   4.992   9.199
 2162POPC   C1A30267  26.190   5.195   8.808
 2162POPC   D2A30268  26.156   5.008   8.430
 2162POPC   C3A30269  26.091   5.243   8.098
 2162POPC   C4A30270  25.965   5.263   7.703
 2162POPC   C1B30271  25.777   4.898   8.759
 2162POPC   C2B30272  25.664   5.011   8.272
 2162POPC   C3B30273  25.497   5.111   7.834
 2162POPC   C4B30274  25.650   5.110   7.350
 2163POPC   NC330275  15.314  25.567   9.416
 2163POPC   PO430276  14.672  25.213   9.375
 2163POPC   GL130277  15.033  25.280   9.113
 2163POPC   GL230278  14.950  25.644   9.044
 2163POPC   C1A30279  15.292  25.072   8.777
 2163POPC   D2A30280  15.543  25.002   8.401
 2163POPC   C3A30281  15.294  25.000   8.037
 2163POPC   C4A30282  15.465  25.181   7.668
 2163POPC   C1B30283  15.293  25.596   8.756
 2163POPC   C2B30284  15.220  25.392   8.386
 2163POPC   C3B30285  15.172  25.494   7.996
 2163POPC   C4B30286  15.021  25.479   7.638
 2164POPC   NC330287  19.588  44.979   9.343
 2164POPC   PO430288  19.901  44.457   9.633
 2164POPC   GL130289  20.027  44.710   9.216
 2164POPC   GL230290  19.978   0.014   8.976
 2164POPC   C1A30291  20.185  44.589   8.811
 2164POPC   D2A30292  19.964  44.550   8.422
 2164POPC   C3A30293  20.140  44.593   8.015
 2164POPC   C4A30294  19.882  44.433   7.707
 2164POPC   C1B30295  19.638  44.837   8.707
 2164POPC   C2B30296  19.532  44.794   8.243
 2164POPC   C3B30297  19.595  44.850   7.784
 2164POPC   C4B30298  19.654   0.046   7.333
 2165POPC   NC330299  32.054  38.246   9.462
 2165POPC   PO430300  32.015  38.942   9.455
 2165POPC   GL130301  32.002  38.651   9.106
 2165POPC   GL230302  32.307  38.422   9.073
 2165POPC   C1A30303  32.044  38.602   8.656
 2165POPC   D2A30304  32.347  38.606   8.349
 2165POPC   C3A30305  32.247  38.742   7.929
 2165POPC   C4A30306  32.399  38.344   7.816
 2165POPC   C1B30307  32.094  38.100   8.824
 2165POPC   C2B30308  32.017  38.076   8.400
 2165POPC   C3B30309  31.908  38.390   8.115
 2165POPC   C4B30310  31.905  38.375   7.675
 2166POPC   NC330311  24.639   1.700   9.443
 2166POPC   PO430312  24.194   2.274   9.500
 2166POPC   GL130313  24.214   2.126   9.088
 2166POPC   GL230314  24.308   1.798   9.053
 2166POPC   C1A30315  24.473   2.211   8.697
 2166POPC   D2A30316  24.641   2.362   8.292
 2166POPC   C3A30317  24.447   2.095   8.008
 2166POPC   C4A30318  24.276   1.965   7.624
 2166POPC   C1B30319  24.580   1.684   8.712
 2166POPC   C2B30320  24.458   1.629   8.279
 2166POPC   C3B30321  24.586   1.617   7.851
 2166POPC   C4B30322  24.705   1.753   7.427
 2167POPC   NC330323  31.819  36.057   9.709
 2167POPC   PO430324  31.159  36.054   9.675
 2167POPC   GL130325  31.513  36.067   9.286
 2167POPC   GL230326  31.923  36.047   9.221
 2167POPC   C1A30327  31.636  35.989   8.807
 2167POPC   D2A30328  31.435  36.144   8.402
 2167POPC   C3A30329  31.412  35.972   7.988
 2167POPC   C4A30330  31.164  36.169   7.671
 2167POPC   C1B30331  32.037  36.336   8.884
 2167POPC   C2B30332  31.806  36.452   8.537
 2167POPC   C3B30333  31.604  36.539   8.126
 2167POPC   C4B30334  31.653  36.339   7.712
 2168POPC   NC330335  40.344  21.127   9.562
 2168POPC   PO430336  40.878  21.563   9.531
 2168POPC   GL130337  40.721  21.322   9.242
 2168POPC   GL230338  40.476  21.539   9.190
 2168POPC   C1A30339  40.746  21.213   8.829
 2168POPC   D2A30340  40.744  21.475   8.482
 2168POPC   C3A30341  40.756  21.348   8.077
 2168POPC   C4A30342  40.832  21.248   7.651
 2168POPC   C1B30343  40.453  21.755   8.803
 2168POPC   C2B30344  40.268  21.708   8.386
 2168POPC   C3B30345  40.411  21.780   7.980
 2168POPC   C4B30346  40.410  21.888   7.522
 2169POPC   NC330347  29.648  18.367   9.439
 2169POPC   PO430348  30.290  18.012   9.453
 2169POPC   GL130349  30.043  18.231   9.173
 2169POPC   GL230350  29.738  18.019   9.085
 2169POPC   C1A30351  29.932  18.414   8.781
 2169POPC   D2A30352  29.831  18.511   8.345
 2169POPC   C3A30353  30.030  18.345   7.999
 2169POPC   C4A30354  30.338  18.507   7.727
 2169POPC   C1B30355  29.651  17.937   8.657
 2169POPC   C2B30356  29.628  18.014   8.207
 2169POPC   C3B30357  29.696  18.012   7.748
 2169POPC   C4B30358  29.677  18.008   7.266
 2170POPC   NC330359  13.005  36.587   9.514
 2170POPC   PO430360  12.772  37.183   9.795
 2170POPC   GL130361  12.858  37.100   9.356
 2170POPC   GL230362  12.557  36.927   9.322
 2170POPC   C1A30363  13.002  36.942   8.947
 2170POPC   D2A30364  12.907  37.040   8.521
 2170POPC   C3A30365  12.998  36.895   8.110
 2170POPC   C4A30366  12.858  37.112   7.768
 2170POPC   C1B30367  12.513  37.161   8.935
 2170POPC   C2B30368  12.388  37.033   8.538
 2170POPC   C3B30369  12.440  37.241   8.165
 2170POPC   C4B30370  12.342  37.176   7.764
 2171POPC   NC330371  22.627  31.999   9.702
 2171POPC   PO430372  23.307  32.094   9.623
 2171POPC   GL130373  23.169  32.150   9.147
 2171POPC   GL230374  22.849  32.256   9.240
 2171POPC   C1A30375  23.001  32.458   8.792
 2171POPC   D2A30376  22.672  32.536   8.454
 2171POPC   C3A30377  22.862  32.435   8.061
 2171POPC   C4A30378  23.073  32.176   7.794
 2171POPC   C1B30379  22.673  32.073   8.826
 2171POPC   C2B30380  22.761  32.028   8.396
 2171POPC   C3B30381  22.562  32.024   8.002
 2171POPC   C4B30382  22.616  32.267   7.614
 2172POPC   NC330383  44.392  29.684   9.370
 2172POPC   PO430384   0.008  29.796   9.688
 2172POPC   GL130385  44.890  29.986   9.215
 2172POPC   GL230386  44.553  30.137   9.168
 2172POPC   C1A30387  44.868  29.938   8.767
 2172POPC   D2A30388   0.057  29.707   8.440
 2172POPC   C3A30389  44.914  29.746   8.055
 2172POPC   C4A30390  44.785  29.950   7.714
 2172POPC   C1B30391  44.336  30.041   8.772
 2172POPC   C2B30392  44.540  29.949   8.367
 2172POPC   C3B30393  44.381  29.800   7.984
 2172POPC   C4B30394  44.320  30.116   7.675
 2173POPC   NC330395  10.768  34.569   9.244
 2173POPC   PO430396  11.255  34.465   9.646
 2173POPC   GL130397  11.293  34.385   9.195
 2173POPC   GL230398  11.642  34.335   9.100
 2173POPC   C1A30399  11.314  34.468   8.713
 2173POPC   D2A30400  11.494  34.452   8.268
 2173POPC   C3A30401  11.207  34.617   7.936
 2173POPC   C4A30402  11.179  34.911   7.600
 2173POPC   C1B30403  11.788  34.705   8.794
 2173POPC   C2B30404  11.934  34.760   8.347
 2173POPC   C3B30405  11.740  34.790   7.924
 2173POPC   C4B30406  11.599  34.483   7.631
 2174POPC   NC330407  28.396  14.957  10.115
 2174POPC   PO430408  28.259  14.492   9.781
 2174POPC   GL130409  28.242  14.404   9.283
 2174POPC   GL230410  28.519  14.213   9.092
 2174POPC   C1A30411  28.223  14.550   8.827
 2174POPC   D2A30412  28.390  14.465   8.404
 2174POPC   C3A30413  28.110  14.558   8.076
 2174POPC   C4A30414  28.225  14.712   7.671
 2174POPC   C1B30415  28.265  14.053   8.711
 2174POPC   C2B30416  28.093  14.064   8.274
 2174POPC   C3B30417  28.266  13.832   7.948
 2174POPC   C4B30418  28.375  13.880   7.527
 2175POPC   NC330419   7.761  43.582   9.365
 2175POPC   PO430420   7.688  44.111   9.756
 2175POPC   GL130421   7.642  44.144   9.294
 2175POPC   GL230422   7.984  44.078   9.280
 2175POPC   C1A30423   7.683  43.931   8.821
 2175POPC   D2A30424   7.608  43.978   8.365
 2175POPC   C3A30425   7.951  43.939   8.065
 2175POPC   C4A30426   7.985  43.711   7.634
 2175POPC   C1B30427   8.178  44.007   8.879
 2175POPC   C2B30428   8.384  44.051   8.510
 2175POPC   C3B30429   8.471  44.026   8.122
 2175POPC   C4B30430   8.426  43.742   7.849
 2176POPC   NC330431  35.690  39.504   9.551
 2176POPC   PO430432  35.935  38.903   9.312
 2176POPC   GL130433  36.161  39.224   9.118
 2176POPC   GL230434  36.507  39.292   9.098
 2176POPC   C1A30435  36.234  39.062   8.719
 2176POPC   D2A30436  36.181  38.805   8.389
 2176POPC   C3A30437  36.067  38.999   8.021
 2176POPC   C4A30438  36.305  38.943   7.677
 2176POPC   C1B30439  36.394  39.543   8.746
 2176POPC   C2B30440  36.300  39.557   8.307
 2176POPC   C3B30441  36.380  39.395   7.900
 2176POPC   C4B30442  36.481  39.389   7.477
 2177POPC   NC330443  24.131   5.427   9.528
 2177POPC   PO430444  24.739   5.244   9.604
 2177POPC   GL130445  24.506   5.134   9.274
 2177POPC   GL230446  24.700   5.403   9.131
 2177POPC   C1A30447  24.361   5.116   8.844
 2177POPC   D2A30448  24.295   4.771   8.574
 2177POPC   C3A30449  24.167   4.868   8.195
 2177POPC   C4A30450  24.258   4.866   7.783
 2177POPC   C1B30451  24.873   5.198   8.777
 2177POPC   C2B30452  24.645   5.194   8.387
 2177POPC   C3B30453  24.512   5.271   7.981
 2177POPC   C4B30454  24.619   5.188   7.560
 2178POPC   NC330455  13.446  42.721   9.410
 2178POPC   PO430456  13.174  43.253   9.619
 2178POPC   GL130457  13.416  43.221   9.220
 2178POPC   GL230458  13.492  43.589   9.200
 2178POPC   C1A30459  13.491  43.051   8.759
 2178POPC   D2A30460  13.391  42.913   8.280
 2178POPC   C3A30461  13.669  42.888   7.883
 2178POPC   C4A30462  13.533  43.010   7.456
 2178POPC   C1B30463  13.645  43.567   8.797
 2178POPC   C2B30464  13.772  43.394   8.424
 2178POPC   C3B30465  13.580  43.372   8.028
 2178POPC   C4B30466  13.342  43.430   7.671
 2179POPC   NC330467  13.124  23.491   9.410
 2179POPC   PO430468  13.635  23.920   9.508
 2179POPC   GL130469  13.548  23.664   9.184
 2179POPC   GL230470  13.288  23.877   9.100
 2179POPC   C1A30471  13.742  23.481   8.866
 2179POPC   D2A30472  13.752  23.458   8.416
 2179POPC   C3A30473  13.782  23.839   8.171
 2179POPC   C4A30474  13.807  23.768   7.746
 2179POPC   C1B30475  13.490  23.929   8.717
 2179POPC   C2B30476  13.303  23.919   8.334
 2179POPC   C3B30477  13.325  23.846   7.895
 2179POPC   C4B30478  13.486  24.152   7.614
 2180POPC   NC330479  18.757  42.488   9.441
 2180POPC   PO430480  19.360  42.176   9.247
 2180POPC   GL130481  19.182  42.598   9.039
 2180POPC   GL230482  18.843  42.817   9.057
 2180POPC   C1A30483  19.190  42.587   8.574
 2180POPC   D2A30484  19.118  42.311   8.218
 2180POPC   C3A30485  19.224  42.405   7.803
 2180POPC   C4A30486  19.006  42.652   7.519
 2180POPC   C1B30487  18.703  42.544   8.764
 2180POPC   C2B30488  18.608  42.497   8.338
 2180POPC   C3B30489  18.698  42.477   7.917
 2180POPC   C4B30490  18.810  42.066   7.776
 2181POPC   NC330491  16.843  12.393   9.464
 2181POPC   PO430492  16.452  11.924   9.682
 2181POPC   GL130493  16.610  11.967   9.235
 2181POPC   GL230494  16.605  12.299   9.025
 2181POPC   C1A30495  16.889  11.850   8.884
 2181POPC   D2A30496  17.104  11.886   8.480
 2181POPC   C3A30497  16.881  11.852   8.064
 2181POPC   C4A30498  16.877  11.877   7.612
 2181POPC   C1B30499  16.963  12.341   8.732
 2181POPC   C2B30500  16.977  12.357   8.281
 2181POPC   C3B30501  16.903  12.348   7.824
 2181POPC   C4B30502  16.925  12.311   7.346
 2182POPC   NC330503  30.879  22.171   9.755
 2182POPC   PO430504  31.516  22.099   9.452
 2182POPC   GL130505  31.552  22.026   9.037
 2182POPC   GL230506  31.787  22.274   8.968
 2182POPC   C1A30507  31.309  21.824   8.696
 2182POPC   D2A30508  31.079  21.930   8.300
 2182POPC   C3A30509  31.284  21.993   7.869
 2182POPC   C4A30510  31.285  22.296   7.464
 2182POPC   C1B30511  31.471  22.314   8.625
 2182POPC   C2B30512  31.524  22.283   8.194
 2182POPC   C3B30513  31.699  22.386   7.780
 2182POPC   C4B30514  31.682  22.751   7.507
 2183POPC   NC330515   7.796  27.764   9.510
 2183POPC   PO430516   8.450  27.376   9.473
 2183POPC   GL130517   8.099  27.528   9.139
 2183POPC   GL230518   7.829  27.836   9.012
 2183POPC   C1A30519   8.164  27.605   8.707
 2183POPC   D2A30520   8.383  27.732   8.345
 2183POPC   C3A30521   8.317  27.453   7.988
 2183POPC   C4A30522   8.300  27.503   7.553
 2183POPC   C1B30523   7.701  27.807   8.549
 2183POPC   C2B30524   7.907  27.734   8.134
 2183POPC   C3B30525   7.845  27.716   7.673
 2183POPC   C4B30526   8.041  27.826   7.263
 2184POPC   NC330527  17.226  17.260   9.508
 2184POPC   PO430528  17.700  17.676   9.407
 2184POPC   GL130529  17.515  17.468   9.080
 2184POPC   GL230530  17.282  17.203   9.005
 2184POPC   C1A30531  17.493  17.584   8.669
 2184POPC   D2A30532  17.535  17.396   8.274
 2184POPC   C3A30533  17.483  17.624   7.912
 2184POPC   C4A30534  17.686  17.501   7.571
 2184POPC   C1B30535  17.677  17.110   8.738
 2184POPC   C2B30536  17.827  16.953   8.308
 2184POPC   C3B30537  17.674  17.058   7.882
 2184POPC   C4B30538  17.649  16.994   7.416
 2185POPC   NC330539  24.760  29.103   9.554
 2185POPC   PO430540  24.090  29.007   9.377
 2185POPC   GL130541  24.482  28.959   9.150
 2185POPC   GL230542  24.537  29.334   9.157
 2185POPC   C1A30543  24.640  28.946   8.734
 2185POPC   D2A30544  24.342  29.073   8.417
 2185POPC   C3A30545  24.479  29.084   7.988
 2185POPC   C4A30546  24.324  29.216   7.593
 2185POPC   C1B30547  24.418  29.430   8.755
 2185POPC   C2B30548  24.632  29.474   8.326
 2185POPC   C3B30549  24.773  29.497   7.885
 2185POPC   C4B30550  24.614  29.627   7.462
 2186POPC   NC330551  32.144  32.439   9.480
 2186POPC   PO430552  31.926  31.834   9.467
 2186POPC   GL130553  32.195  32.081   9.134
 2186POPC   GL230554  32.498  32.312   9.141
 2186POPC   C1A30555  32.038  32.250   8.767
 2186POPC   D2A30556  31.922  32.064   8.367
 2186POPC   C3A30557  31.987  32.260   8.003
 2186POPC   C4A30558  32.273  32.283   7.688
 2186POPC   C1B30559  32.367  32.637   8.826
 2186POPC   C2B30560  32.218  32.545   8.389
 2186POPC   C3B30561  32.451  32.614   8.011
 2186POPC   C4B30562  32.792  32.528   7.750
 2187POPC   NC330563  27.217  42.576   9.536
 2187POPC   PO430564  26.538  42.469   9.562
 2187POPC   GL130565  26.778  42.535   9.210
 2187POPC   GL230566  26.575  42.281   9.063
 2187POPC   C1A30567  26.935  42.562   8.797
 2187POPC   D2A30568  27.034  42.264   8.463
 2187POPC   C3A30569  27.186  42.425   8.073
 2187POPC   C4A30570  27.059  42.418   7.657
 2187POPC   C1B30571  26.404  42.489   8.750
 2187POPC   C2B30572  26.541  42.510   8.363
 2187POPC   C3B30573  26.710  42.304   8.063
 2187POPC   C4B30574  26.647  42.133   7.695
 2188POPC   NC330575  32.899  34.475   9.628
 2188POPC   PO430576  32.744  35.100   9.386
 2188POPC   GL130577  32.909  34.735   9.167
 2188POPC   GL230578  32.919  34.366   9.140
 2188POPC   C1A30579  33.092  34.744   8.758
 2188POPC   D2A30580  32.972  34.845   8.344
 2188POPC   C3A30581  33.077  34.596   7.991
 2188POPC   C4A30582  32.958  34.587   7.572
 2188POPC   C1B30583  32.704  34.439   8.759
 2188POPC   C2B30584  32.838  34.323   8.348
 2188POPC   C3B30585  32.633  34.381   7.952
 2188POPC   C4B30586  32.573  34.226   7.563
 2189POPC   NC330587   6.383   5.284   9.754
 2189POPC   PO430588   5.786   5.102   9.526
 2189POPC   GL130589   5.874   5.184   9.108
 2189POPC   GL230590   5.875   5.555   9.078
 2189POPC   C1A30591   5.843   4.909   8.742
 2189POPC   D2A30592   5.724   4.771   8.350
 2189POPC   C3A30593   5.970   4.810   7.990
 2189POPC   C4A30594   5.722   4.939   7.643
 2189POPC   C1B30595   5.965   5.400   8.641
 2189POPC   C2B30596   5.951   5.269   8.202
 2189POPC   C3B30597   5.690   5.423   7.831
 2189POPC   C4B30598   5.637   5.366   7.369
 2190POPC   NC330599   3.764  42.063   9.449
 2190POPC   PO430600   3.258  42.504   9.537
 2190POPC   GL130601   3.454  42.333   9.154
 2190POPC   GL230602   3.540  42.623   9.036
 2190POPC   C1A30603   3.602  42.239   8.714
 2190POPC   D2A30604   3.517  42.113   8.298
 2190POPC   C3A30605   3.639  42.316   7.934
 2190POPC   C4A30606   3.403  42.162   7.563
 2190POPC   C1B30607   3.743  42.721   8.703
 2190POPC   C2B30608   3.891  42.612   8.319
 2190POPC   C3B30609   3.882  42.765   7.913
 2190POPC   C4B30610   3.664  42.652   7.526
 2191POPC   NC330611  27.685  41.777   9.353
 2191POPC   PO430612  28.006  41.114   9.149
 2191POPC   GL130613  27.872  41.485   8.976
 2191POPC   GL230614  27.562  41.356   9.041
 2191POPC   C1A30615  27.665  41.506   8.561
 2191POPC   D2A30616  27.742  41.175   8.261
 2191POPC   C3A30617  27.812  41.373   7.871
 2191POPC   C4A30618  27.547  41.756   7.733
 2191POPC   C1B30619  27.231  41.211   8.806
 2191POPC   C2B30620  27.111  41.421   8.441
 2191POPC   C3B30621  27.340  41.438   8.074
 2191POPC   C4B30622  27.346  41.261   7.647
 2192POPC   NC330623  26.104  20.840   9.787
 2192POPC   PO430624  25.866  20.259   9.515
 2192POPC   GL130625  26.045  20.471   9.151
 2192POPC   GL230626  26.106  20.821   9.265
 2192POPC   C1A30627  26.050  20.547   8.692
 2192POPC   D2A30628  25.798  20.667   8.323
 2192POPC   C3A30629  25.890  20.557   7.877
 2192POPC   C4A30630  26.234  20.502   7.625
 2192POPC   C1B30631  26.236  21.000   8.890
 2192POPC   C2B30632  26.128  21.036   8.463
 2192POPC   C3B30633  26.233  20.864   8.066
 2192POPC   C4B30634  26.191  21.016   7.645
 2193POPC   NC330635  33.677  15.539   9.664
 2193POPC   PO430636  33.753  14.910   9.722
 2193POPC   GL130637  33.697  15.061   9.294
 2193POPC   GL230638  33.871  15.311   9.158
 2193POPC   C1A30639  33.611  15.010   8.832
 2193POPC   D2A30640  33.574  15.227   8.427
 2193POPC   C3A30641  33.554  15.028   7.993
 2193POPC   C4A30642  33.490  15.008   7.532
 2193POPC   C1B30643  34.043  15.647   8.832
 2193POPC   C2B30644  34.124  15.652   8.349
 2193POPC   C3B30645  34.242  15.579   7.891
 2193POPC   C4B30646  34.207  15.361   7.473
 2194POPC   NC330647  31.053   2.393   9.241
 2194POPC   PO430648  31.609   2.796   9.544
 2194POPC   GL130649  31.597   2.944   9.163
 2194POPC   GL230650  31.274   2.865   9.145
 2194POPC   C1A30651  31.716   2.772   8.786
 2194POPC   D2A30652  31.831   2.556   8.421
 2194POPC   C3A30653  31.734   2.737   8.044
 2194POPC   C4A30654  31.621   2.687   7.613
 2194POPC   C1B30655  31.235   2.968   8.721
 2194POPC   C2B30656  31.329   2.738   8.375
 2194POPC   C3B30657  31.241   2.867   7.964
 2194POPC   C4B30658  31.058   2.622   7.627
 2195POPC   NC330659   0.207  28.360   9.513
 2195POPC   PO430660   0.886  28.399   9.502
 2195POPC   GL130661   0.732  28.152   9.118
 2195POPC   GL230662   0.358  28.140   9.071
 2195POPC   C1A30663   0.707  28.182   8.660
 2195POPC   D2A30664   0.655  28.582   8.464
 2195POPC   C3A30665   0.593  28.610   8.029
 2195POPC   C4A30666   0.586  28.343   7.633
 2195POPC   C1B30667   0.225  28.336   8.683
 2195POPC   C2B30668   0.155  28.472   8.285
 2195POPC   C3B30669   0.104  28.356   7.874
 2195POPC   C4B30670   0.126  28.345   7.435
 2196POPC   NC330671  36.798  31.769   9.248
 2196POPC   PO430672  36.647  31.364   9.788
 2196POPC   GL130673  36.864  31.275   9.287
 2196POPC   GL230674  36.651  31.192   8.997
 2196POPC   C1A30675  37.083  31.309   8.806
 2196POPC   D2A30676  37.229  31.577   8.418
 2196POPC   C3A30677  37.123  31.453   7.995
 2196POPC   C4A30678  36.852  31.171   7.796
 2196POPC   C1B30679  36.631  31.483   8.606
 2196POPC   C2B30680  36.636  31.590   8.126
 2196POPC   C3B30681  36.656  31.817   7.716
 2196POPC   C4B30682  36.438  31.806   7.291
 2197POPC   NC330683  24.944   4.060   9.557
 2197POPC   PO430684  25.582   3.658   9.431
 2197POPC   GL130685  25.452   3.715   9.029
 2197POPC   GL230686  25.196   3.923   9.108
 2197POPC   C1A30687  25.392   3.584   8.592
 2197POPC   D2A30688  25.472   3.259   8.275
 2197POPC   C3A30689  25.486   3.442   7.882
 2197POPC   C4A30690  25.576   3.490   7.452
 2197POPC   C1B30691  24.947   3.811   8.759
 2197POPC   C2B30692  25.039   3.866   8.324
 2197POPC   C3B30693  24.970   3.526   8.059
 2197POPC   C4B30694  25.053   3.465   7.618
 2198POPC   NC330695   9.175   3.013   9.495
 2198POPC   PO430696   8.544   2.748   9.526
 2198POPC   GL130697   8.637   2.594   9.121
 2198POPC   GL230698   8.979   2.745   9.088
 2198POPC   C1A30699   8.627   2.811   8.709
 2198POPC   D2A30700   8.691   3.129   8.393
 2198POPC   C3A30701   8.761   2.895   8.014
 2198POPC   C4A30702   8.735   2.754   7.580
 2198POPC   C1B30703   9.221   2.999   8.772
 2198POPC   C2B30704   9.218   3.093   8.325
 2198POPC   C3B30705   9.310   2.877   7.910
 2198POPC   C4B30706   9.212   2.525   7.549
 2199POPC   NC330707  10.159  13.621   9.800
 2199POPC   PO430708   9.496  13.604   9.533
 2199POPC   GL130709   9.636  13.573   9.122
 2199POPC   GL230710   9.669  13.887   8.978
 2199POPC   C1A30711   9.737  13.523   8.655
 2199POPC   D2A30712   9.632  13.873   8.425
 2199POPC   C3A30713   9.655  13.643   8.079
 2199POPC   C4A30714   9.620  13.452   7.692
 2199POPC   C1B30715  10.083  13.868   8.758
 2199POPC   C2B30716  10.138  13.783   8.328
 2199POPC   C3B30717  10.118  13.624   7.893
 2199POPC   C4B30718   9.935  13.794   7.531
 2200POPC   NC330719  33.514   0.547   9.667
 2200POPC   PO430720  34.174   0.728   9.609
 2200POPC   GL130721  33.894   0.589   9.315
 2200POPC   GL230722  33.859   0.264   9.251
 2200POPC   C1A30723  33.859   0.657   8.888
 2200POPC   D2A30724  33.929   0.517   8.499
 2200POPC   C3A30725  33.725   0.562   8.143
 2200POPC   C4A30726  33.975   0.670   7.777
 2200POPC   C1B30727  33.817   0.137   8.819
 2200POPC   C2B30728  33.597   0.128   8.421
 2200POPC   C3B30729  33.660   0.064   7.982
 2200POPC   C4B30730  33.837   0.216   7.624
 2201POPC   NC330731  35.889  36.831   9.588
 2201POPC   PO430732  36.579  36.892   9.562
 2201POPC   GL130733  36.278  36.731   9.245
 2201POPC   GL230734  36.054  37.000   9.121
 2201POPC   C1A30735  36.181  36.639   8.797
 2201POPC   D2A30736  35.878  36.737   8.417
 2201POPC   C3A30737  36.045  36.763   7.999
 2201POPC   C4A30738  36.339  37.122   7.842
 2201POPC   C1B30739  36.109  37.128   8.679
 2201POPC   C2B30740  35.954  37.223   8.247
 2201POPC   C3B30741  35.824  37.185   7.803
 2201POPC   C4B30742  35.694  37.215   7.369
 2202POPC   NC330743  18.861  26.482   9.524
 2202POPC   PO430744  19.373  26.860   9.538
 2202POPC   GL130745  19.177  26.881   9.159
 2202POPC   GL230746  19.210  26.529   9.152
 2202POPC   C1A30747  19.041  27.022   8.742
 2202POPC   D2A30748  18.965  26.774   8.363
 2202POPC   C3A30749  18.947  26.977   7.937
 2202POPC   C4A30750  18.856  27.136   7.505
 2202POPC   C1B30751  19.012  26.429   8.776
 2202POPC   C2B30752  18.997  26.242   8.379
 2202POPC   C3B30753  18.944  26.440   7.971
 2202POPC   C4B30754  18.974  26.616   7.569
 2203POPC   NC330755  12.349   4.843   9.433
 2203POPC   PO430756  11.815   5.193   9.424
 2203POPC   GL130757  12.020   5.066   9.088
 2203POPC   GL230758  12.254   5.273   9.101
 2203POPC   C1A30759  11.913   5.166   8.672
 2203POPC   D2A30760  11.973   5.239   8.254
 2203POPC   C3A30761  11.789   4.923   8.034
 2203POPC   C4A30762  11.561   4.962   7.680
 2203POPC   C1B30763  12.416   5.124   8.712
 2203POPC   C2B30764  12.473   5.234   8.284
 2203POPC   C3B30765  12.320   5.003   7.941
 2203POPC   C4B30766  12.063   5.036   7.620
 2204POPC   NC330767   3.525   2.323   9.666
 2204POPC   PO430768   3.260   2.935   9.459
 2204POPC   GL130769   3.518   2.889   9.159
 2204POPC   GL230770   3.541   2.547   9.201
 2204POPC   C1A30771   3.542   2.874   8.736
 2204POPC   D2A30772   3.745   2.576   8.485
 2204POPC   C3A30773   3.887   2.751   8.104
 2204POPC   C4A30774   3.865   3.005   7.773
 2204POPC   C1B30775   3.335   2.417   8.811
 2204POPC   C2B30776   3.173   2.586   8.435
 2204POPC   C3B30777   3.412   2.565   8.066
 2204POPC   C4B30778   3.501   2.491   7.637
 2205POPC   NC330779  33.162   2.912   9.369
 2205POPC   PO430780  33.284   2.334   9.275
 2205POPC   GL130781  32.987   2.571   9.013
 2205POPC   GL230782  32.816   2.928   9.004
 2205POPC   C1A30783  32.763   2.600   8.637
 2205POPC   D2A30784  32.719   2.778   8.227
 2205POPC   C3A30785  32.778   2.515   7.873
 2205POPC   C4A30786  32.671   2.488   7.465
 2205POPC   C1B30787  32.969   3.073   8.606
 2205POPC   C2B30788  33.235   2.851   8.320
 2205POPC   C3B30789  33.245   2.739   7.908
 2205POPC   C4B30790  33.015   2.869   7.560
 2206POPC   NC330791  39.331  32.787   9.384
 2206POPC   PO430792  39.161  33.376   9.602
 2206POPC   GL130793  39.166  33.217   9.163
 2206POPC   GL230794  39.513  33.256   9.193
 2206POPC   C1A30795  39.112  32.913   8.801
 2206POPC   D2A30796  39.069  32.627   8.492
 2206POPC   C3A30797  39.083  32.837   8.109
 2206POPC   C4A30798  39.046  32.990   7.716
 2206POPC   C1B30799  39.578  33.118   8.784
 2206POPC   C2B30800  39.339  33.172   8.408
 2206POPC   C3B30801  39.493  33.109   7.978
 2206POPC   C4B30802  39.457  33.278   7.550
 2207POPC   NC330803  25.689  40.240   9.296
 2207POPC   PO430804  25.443  39.605   9.341
 2207POPC   GL130805  25.232  39.937   9.126
 2207POPC   GL230806  24.897  39.864   9.075
 2207POPC   C1A30807  25.318  40.184   8.743
 2207POPC   D2A30808  25.593  40.136   8.397
 2207POPC   C3A30809  25.456  40.295   8.010
 2207POPC   C4A30810  25.502  40.153   7.589
 2207POPC   C1B30811  25.015  39.780   8.665
 2207POPC   C2B30812  25.111  39.990   8.284
 2207POPC   C3B30813  25.249  39.820   7.903
 2207POPC   C4B30814  25.028  39.529   7.653
 2208POPC   NC330815  30.446  18.456   9.457
 2208POPC   PO430816  31.026  18.147   9.720
 2208POPC   GL130817  30.834  18.108   9.301
 2208POPC   GL230818  30.836  18.459   9.121
 2208POPC   C1A30819  30.692  18.045   8.871
 2208POPC   D2A30820  30.535  18.284   8.531
 2208POPC   C3A30821  30.561  18.171   8.098
 2208POPC   C4A30822  30.766  18.063   7.708
 2208POPC   C1B30823  30.879  18.639   8.688
 2208POPC   C2B30824  30.845  18.580   8.241
 2208POPC   C3B30825  30.827  18.624   7.814
 2208POPC   C4B30826  31.021  18.864   7.480
 2209POPC   NC330827  10.746  19.465   9.344
 2209POPC   PO430828  10.168  19.132   9.563
 2209POPC   GL130829  10.244  19.363   9.163
 2209POPC   GL230830  10.509  19.124   9.054
 2209POPC   C1A30831  10.184  19.230   8.686
 2209POPC   D2A30832  10.373  18.836   8.444
 2209POPC   C3A30833  10.316  18.850   7.984
 2209POPC   C4A30834  10.238  18.944   7.540
 2209POPC   C1B30835  10.786  19.002   8.720
 2209POPC   C2B30836  10.841  19.063   8.287
 2209POPC   C3B30837  10.751  19.090   7.863
 2209POPC   C4B30838  10.667  19.189   7.424
 2210POPC   NC330839   6.228   8.140   9.485
 2210POPC   PO430840   5.723   8.487   9.442
 2210POPC   GL130841   5.937   8.309   9.078
 2210POPC   GL230842   6.115   7.956   9.041
 2210POPC   C1A30843   5.795   8.283   8.676
 2210POPC   D2A30844   5.980   8.228   8.278
 2210POPC   C3A30845   5.781   8.328   7.885
 2210POPC   C4A30846   5.920   8.221   7.456
 2210POPC   C1B30847   6.064   7.831   8.642
 2210POPC   C2B30848   5.691   7.830   8.457
 2210POPC   C3B30849   5.590   7.905   8.098
 2210POPC   C4B30850   5.650   7.861   7.671
 2211POPC   NC330851   4.976   6.890   9.479
 2211POPC   PO430852   5.413   6.270   9.465
 2211POPC   GL130853   5.203   6.455   9.109
 2211POPC   GL230854   4.851   6.531   9.103
 2211POPC   C1A30855   5.241   6.599   8.686
 2211POPC   D2A30856   5.517   6.555   8.313
 2211POPC   C3A30857   5.334   6.611   7.913
 2211POPC   C4A30858   5.116   6.980   7.798
 2211POPC   C1B30859   4.689   6.333   8.708
 2211POPC   C2B30860   4.770   6.094   8.304
 2211POPC   C3B30861   4.696   6.230   7.872
 2211POPC   C4B30862   4.894   6.542   7.604
 2212POPC   NC330863  43.038  12.520   9.554
 2212POPC   PO430864  42.588  13.035   9.516
 2212POPC   GL130865  42.811  13.020   9.151
 2212POPC   GL230866  43.127  12.876   9.177
 2212POPC   C1A30867  42.891  12.940   8.717
 2212POPC   D2A30868  43.107  13.114   8.348
 2212POPC   C3A30869  42.892  13.147   7.954
 2212POPC   C4A30870  43.044  13.050   7.563
 2212POPC   C1B30871  43.363  12.806   8.799
 2212POPC   C2B30872  43.314  12.628   8.381
 2212POPC   C3B30873  43.164  12.718   7.958
 2212POPC   C4B30874  43.229  12.588   7.523
 2213POPC   NC330875  42.287  18.040   9.494
 2213POPC   PO430876  42.165  18.651   9.420
 2213POPC   GL130877  42.355  18.362   9.105
 2213POPC   GL230878  42.165  18.074   9.016
 2213POPC   C1A30879  42.453  18.320   8.683
 2213POPC   D2A30880  42.567  18.480   8.271
 2213POPC   C3A30881  42.410  18.368   7.850
 2213POPC   C4A30882  42.505  18.032   7.515
 2213POPC   C1B30883  41.969  18.074   8.658
 2213POPC   C2B30884  42.151  18.182   8.307
 2213POPC   C3B30885  41.911  18.211   8.019
 2213POPC   C4B30886  42.014  18.110   7.635
 2214POPC   NC330887  37.231   9.421   9.697
 2214POPC   PO430888  36.854   8.832   9.620
 2214POPC   GL130889  36.764   8.975   9.186
 2214POPC   GL230890  36.924   9.316   9.197
 2214POPC   C1A30891  36.838   9.078   8.743
 2214POPC   D2A30892  36.711   9.282   8.392
 2214POPC   C3A30893  36.697   9.017   8.071
 2214POPC   C4A30894  36.871   8.926   7.729
 2214POPC   C1B30895  37.216   9.412   8.809
 2214POPC   C2B30896  37.185   9.481   8.330
 2214POPC   C3B30897  37.066   9.370   7.886
 2214POPC   C4B30898  36.972   9.375   7.420
 2215POPC   NC330899  36.762  25.489   9.509
 2215POPC   PO430900  37.078  24.918   9.553
 2215POPC   GL130901  36.956  25.106   9.138
 2215POPC   GL230902  37.086  25.464   9.124
 2215POPC   C1A30903  36.705  25.241   8.758
 2215POPC   D2A30904  36.561  25.009   8.363
 2215POPC   C3A30905  36.828  25.019   8.004
 2215POPC   C4A30906  36.759  25.311   7.684
 2215POPC   C1B30907  37.056  25.620   8.715
 2215POPC   C2B30908  36.946  25.514   8.284
 2215POPC   C3B30909  37.171  25.527   7.887
 2215POPC   C4B30910  37.093  25.584   7.373
 2216POPC   NC330911   0.417  15.535   9.447
 2216POPC   PO430912   0.289  14.882   9.391
 2216POPC   GL130913   0.427  15.169   9.048
 2216POPC   GL230914   0.268  15.518   8.962
 2216POPC   C1A30915   0.379  15.139   8.601
 2216POPC   D2A30916   0.269  15.322   8.214
 2216POPC   C3A30917   0.443  15.094   7.901
 2216POPC   C4A30918   0.345  14.901   7.532
 2216POPC   C1B30919   0.474  15.648   8.577
 2216POPC   C2B30920   0.774  15.429   8.287
 2216POPC   C3B30921   0.786  15.493   7.842
 2216POPC   C4B30922   0.410  15.556   7.658
 2217POPC   NC330923  18.258   7.747   9.617
 2217POPC   PO430924  17.876   7.167   9.577
 2217POPC   GL130925  18.084   7.276   9.183
 2217POPC   GL230926  18.408   7.396   9.261
 2217POPC   C1A30927  18.046   7.112   8.775
 2217POPC   D2A30928  17.798   7.255   8.433
 2217POPC   C3A30929  18.072   7.296   8.075
 2217POPC   C4A30930  18.158   7.403   7.633
 2217POPC   C1B30931  18.524   7.635   8.902
 2217POPC   C2B30932  18.491   7.618   8.450
 2217POPC   C3B30933  18.489   7.563   8.001
 2217POPC   C4B30934  18.512   7.103   7.874
 2218POPC   NC330935  25.152  35.094   9.375
 2218POPC   PO430936  25.425  34.551   9.695
 2218POPC   GL130937  25.391  34.614   9.243
 2218POPC   GL230938  25.172  34.330   9.121
 2218POPC   C1A30939  25.557  34.533   8.816
 2218POPC   D2A30940  25.508  34.374   8.397
 2218POPC   C3A30941  25.505  34.639   8.012
 2218POPC   C4A30942  25.598  34.536   7.601
 2218POPC   C1B30943  25.044  34.461   8.735
 2218POPC   C2B30944  24.997  34.299   8.330
 2218POPC   C3B30945  25.086  34.358   7.884
 2218POPC   C4B30946  24.744  34.479   7.621
 2219POPC   NC330947  13.619  16.036   9.533
 2219POPC   PO430948  13.101  15.593   9.591
 2219POPC   GL130949  13.441  15.686   9.210
 2219POPC   GL230950  13.743  15.873   9.085
 2219POPC   C1A30951  13.390  15.759   8.746
 2219POPC   D2A30952  13.600  15.713   8.369
 2219POPC   C3A30953  13.472  15.846   7.958
 2219POPC   C4A30954  13.385  15.997   7.551
 2219POPC   C1B30955  13.966  15.865   8.720
 2219POPC   C2B30956  14.119  15.653   8.376
 2219POPC   C3B30957  13.940  15.612   7.973
 2219POPC   C4B30958  13.893  15.915   7.664
 2220POPC   NC330959   2.113  36.649   9.548
 2220POPC   PO430960   1.751  37.301   9.456
 2220POPC   GL130961   2.014  37.222   9.119
 2220POPC   GL230962   2.165  36.905   9.114
 2220POPC   C1A30963   2.055  37.179   8.682
 2220POPC   D2A30964   2.245  37.047   8.309
 2220POPC   C3A30965   1.959  37.013   7.983
 2220POPC   C4A30966   1.880  36.891   7.534
 2220POPC   C1B30967   2.093  36.672   8.714
 2220POPC   C2B30968   2.140  36.552   8.250
 2220POPC   C3B30969   1.927  36.500   7.856
 2220POPC   C4B30970   2.117  36.459   7.434
 2221POPC   NC330971  18.552  43.168   9.425
 2221POPC   PO430972  17.918  43.323   9.518
 2221POPC   GL130973  18.009  43.084   9.123
 2221POPC   GL230974  18.353  43.015   8.986
 2221POPC   C1A30975  17.941  43.041   8.709
 2221POPC   D2A30976  18.319  43.139   8.457
 2221POPC   C3A30977  18.386  42.896   8.108
 2221POPC   C4A30978  18.064  42.845   7.838
 2221POPC   C1B30979  18.253  43.460   8.877
 2221POPC   C2B30980  18.370  43.697   8.525
 2221POPC   C3B30981  18.419  43.564   8.124
 2221POPC   C4B30982  18.296  43.316   7.797
 2222POPC   NC330983   6.935   3.194   9.446
 2222POPC   PO430984   6.676   3.871   9.522
 2222POPC   GL130985   6.549   3.735   9.117
 2222POPC   GL230986   6.594   3.386   9.122
 2222POPC   C1A30987   6.617   3.645   8.678
 2222POPC   D2A30988   6.791   3.385   8.363
 2222POPC   C3A30989   6.640   3.600   8.013
 2222POPC   C4A30990   6.700   3.756   7.604
 2222POPC   C1B30991   6.515   3.147   8.757
 2222POPC   C2B30992   6.480   2.947   8.345
 2222POPC   C3B30993   6.676   3.007   8.003
 2222POPC   C4B30994   6.771   3.245   7.671
 2223POPC   NC330995   0.631  12.053   9.554
 2223POPC   PO430996  44.974  12.071   9.599
 2223POPC   GL130997   0.243  12.086   9.181
 2223POPC   GL230998   0.580  11.998   9.063
 2223POPC   C1A30999   0.276  12.313   8.770
 2223POPC   D2A31000   0.198  12.182   8.370
 2223POPC   C3A31001   0.332  12.366   7.983
 2223POPC   C4A31002   0.377  12.143   7.574
 2223POPC   C1B31003   0.786  11.918   8.678
 2223POPC   C2B31004   0.699  12.165   8.295
 2223POPC   C3B31005   0.796  12.181   7.840
 2223POPC   C4B31006   0.857  12.053   7.370
 2224POPC   NC331007  18.287   6.957   9.520
 2224POPC   PO431008  18.439   6.367   9.369
 2224POPC   GL131009  18.562   6.505   8.991
 2224POPC   GL231010  18.422   6.844   9.045
 2224POPC   C1A31011  18.516   6.673   8.586
 2224POPC   D2A31012  18.262   6.860   8.301
 2224POPC   C3A31013  18.373   6.591   7.981
 2224POPC   C4A31014  18.504   6.625   7.582
 2224POPC   C1B31015  18.068   6.591   8.812
 2224POPC   C2B31016  17.787   6.730   8.496
 2224POPC   C3B31017  17.784   6.879   8.089
 2224POPC   C4B31018  18.068   6.905   7.729
 2225POPC   NC331019   5.657   2.895   9.599
 2225POPC   PO431020   6.355   3.015   9.409
 2225POPC   GL131021   6.128   2.945   9.059
 2225POPC   GL231022   5.799   2.852   9.047
 2225POPC   C1A31023   6.108   2.858   8.654
 2225POPC   D2A31024   5.854   2.564   8.547
 2225POPC   C3A31025   5.824   2.517   8.098
 2225POPC   C4A31026   5.931   2.829   7.791
 2225POPC   C1B31027   5.681   3.094   8.688
 2225POPC   C2B31028   5.816   3.130   8.287
 2225POPC   C3B31029   5.592   3.179   7.914
 2225POPC   C4B31030   5.423   2.803   7.775
 2226POPC   NC331031  44.887  30.983   9.321
 2226POPC   PO431032  44.387  30.541   9.465
 2226POPC   GL131033  44.542  30.667   9.108
 2226POPC   GL231034  44.899  30.515   9.113
 2226POPC   C1A31035  44.531  30.882   8.728
 2226POPC   D2A31036  44.780  30.874   8.355
 2226POPC   C3A31037  44.536  30.893   8.004
 2226POPC   C4A31038  44.527  30.959   7.584
 2226POPC   C1B31039  44.676  30.404   8.703
 2226POPC   C2B31040  44.442  30.464   8.329
 2226POPC   C3B31041  44.630  30.384   7.961
 2226POPC   C4B31042  44.722  30.458   7.536
 2227POPC   NC331043  25.297   9.300   9.566
 2227POPC   PO431044  25.517   9.862   9.729
 2227POPC   GL131045  25.363   9.751   9.309
 2227POPC   GL231046  25.011   9.692   9.313
 2227POPC   C1A31047  25.474   9.749   8.873
 2227POPC   D2A31048  25.278   9.897   8.499
 2227POPC   C3A31049  25.381   9.690   8.124
 2227POPC   C4A31050  25.335   9.733   7.681
 2227POPC   C1B31051  25.001   9.570   8.857
 2227POPC   C2B31052  24.951   9.486   8.406
 2227POPC   C3B31053  24.943   9.445   7.967
 2227POPC   C4B31054  24.838   9.789   7.708
 2228POPC   NC331055  22.194  13.290   9.713
 2228POPC   PO431056  22.540  13.814   9.441
 2228POPC   GL131057  22.302  13.488   9.193
 2228POPC   GL231058  22.258  13.771   8.983
 2228POPC   C1A31059  22.186  13.279   8.785
 2228POPC   D2A31060  22.129  13.461   8.351
 2228POPC   C3A31061  21.970  13.289   7.948
 2228POPC   C4A31062  22.081  13.267   7.505
 2228POPC   C1B31063  22.380  13.965   8.600
 2228POPC   C2B31064  22.135  13.973   8.234
 2228POPC   C3B31065  21.784  13.753   8.083
 2228POPC   C4B31066  21.918  13.756   7.668
 2229POPC   NC331067  11.369   5.326   9.360
 2229POPC   PO431068  10.796   4.929   9.547
 2229POPC   GL131069  10.896   5.083   9.112
 2229POPC   GL231070  11.100   5.338   8.927
 2229POPC   C1A31071  11.056   4.891   8.704
 2229POPC   D2A31072  11.363   4.842   8.349
 2229POPC   C3A31073  11.149   4.939   7.968
 2229POPC   C4A31074  11.118   5.178   7.575
 2229POPC   C1B31075  11.411   5.317   8.593
 2229POPC   C2B31076  11.470   5.328   8.148
 2229POPC   C3B31077  11.751   5.427   7.820
 2229POPC   C4B31078  11.681   5.365   7.386
 2230POPC   NC331079   5.380  41.824   9.552
 2230POPC   PO431080   4.997  41.312   9.662
 2230POPC   GL131081   5.157  41.446   9.282
 2230POPC   GL231082   4.848  41.609   9.230
 2230POPC   C1A31083   5.199  41.609   8.870
 2230POPC   D2A31084   5.218  41.335   8.542
 2230POPC   C3A31085   5.267  41.502   8.165
 2230POPC   C4A31086   5.160  41.818   7.926
 2230POPC   C1B31087   4.735  41.402   8.827
 2230POPC   C2B31088   4.735  41.556   8.415
 2230POPC   C3B31089   4.792  41.444   8.013
 2230POPC   C4B31090   5.081  41.283   7.738
 2231POPC   NC331091   3.097  15.358   9.596
 2231POPC   PO431092   3.696  14.904   9.547
 2231POPC   GL131093   3.741  15.113   9.183
 2231POPC   GL231094   3.380  15.212   9.197
 2231POPC   C1A31095   3.611  15.115   8.757
 2231POPC   D2A31096   3.321  14.996   8.430
 2231POPC   C3A31097   3.585  14.916   8.066
 2231POPC   C4A31098   3.713  15.186   7.750
 2231POPC   C1B31099   3.174  15.364   8.822
 2231POPC   C2B31100   3.079  15.467   8.425
 2231POPC   C3B31101   3.344  15.388   8.082
 2231POPC   C4B31102   3.257  15.588   7.689
 2232POPC   NC331103  39.847  18.671   9.517
 2232POPC   PO431104  40.352  19.137   9.472
 2232POPC   GL131105  40.056  18.978   9.163
 2232POPC   GL231106  40.071  18.630   9.065
 2232POPC   C1A31107  39.811  19.017   8.765
 2232POPC   D2A31108  39.825  19.349   8.436
 2232POPC   C3A31109  39.644  19.299   8.025
 2232POPC   C4A31110  39.827  19.362   7.621
 2232POPC   C1B31111  40.276  18.775   8.713
 2232POPC   C2B31112  40.192  18.982   8.334
 2232POPC   C3B31113  39.987  18.927   7.953
 2232POPC   C4B31114  40.123  18.928   7.558
 2233POPC   NC331115  26.651   2.820   9.656
 2233POPC   PO431116  27.282   2.703   9.660
 2233POPC   GL131117  26.967   2.705   9.271
 2233POPC   GL231118  26.862   2.381   9.230
 2233POPC   C1A31119  26.686   2.707   8.862
 2233POPC   D2A31120  26.828   2.703   8.397
 2233POPC   C3A31121  26.737   2.983   8.022
 2233POPC   C4A31122  27.058   3.060   7.679
 2233POPC   C1B31123  27.210   2.374   8.920
 2233POPC   C2B31124  27.217   2.346   8.477
 2233POPC   C3B31125  27.104   2.271   8.038
 2233POPC   C4B31126  26.854   2.557   7.747
 2234POPC   NC331127  21.846  11.550   9.739
 2234POPC   PO431128  21.919  12.199   9.506
 2234POPC   GL131129  22.044  12.027   9.150
 2234POPC   GL231130  22.390  12.098   9.180
 2234POPC   C1A31131  22.063  11.898   8.736
 2234POPC   D2A31132  22.273  12.010   8.349
 2234POPC   C3A31133  22.044  11.908   7.954
 2234POPC   C4A31134  22.200  11.935   7.512
 2234POPC   C1B31135  22.353  12.332   8.786
 2234POPC   C2B31136  22.476  12.490   8.363
 2234POPC   C3B31137  22.329  12.360   7.937
 2234POPC   C4B31138  22.318  12.430   7.485
 2235POPC   NC331139  21.331  19.286   9.483
 2235POPC   PO431140  21.646  18.718   9.608
 2235POPC   GL131141  21.586  18.895   9.162
 2235POPC   GL231142  21.715  19.264   9.125
 2235POPC   C1A31143  21.420  18.770   8.723
 2235POPC   D2A31144  21.171  18.835   8.319
 2235POPC   C3A31145  21.413  19.012   7.977
 2235POPC   C4A31146  21.545  18.920   7.555
 2235POPC   C1B31147  21.343  19.320   8.850
 2235POPC   C2B31148  21.127  19.329   8.473
 2235POPC   C3B31149  21.271  19.522   8.095
 2235POPC   C4B31150  21.331  19.448   7.672
 2236POPC   NC331151  36.525   9.201   9.580
 2236POPC   PO431152  35.896   9.564   9.490
 2236POPC   GL131153  35.877   9.715   9.096
 2236POPC   GL231154  35.884   9.374   9.023
 2236POPC   C1A31155  36.104   9.708   8.691
 2236POPC   D2A31156  35.857   9.777   8.309
 2236POPC   C3A31157  35.996   9.709   7.906
 2236POPC   C4A31158  36.370   9.875   7.721
 2236POPC   C1B31159  35.872   9.251   8.620
 2236POPC   C2B31160  35.618   9.314   8.272
 2236POPC   C3B31161  35.726   9.270   7.861
 2236POPC   C4B31162  36.055   9.364   7.524
 2237POPC   NC331163  42.847  32.724   9.698
 2237POPC   PO431164  42.166  32.982   9.588
 2237POPC   GL131165  42.224  33.125   9.211
 2237POPC   GL231166  42.025  33.413   9.214
 2237POPC   C1A31167  42.418  32.987   8.841
 2237POPC   D2A31168  42.526  33.189   8.463
 2237POPC   C3A31169  42.384  33.014   8.110
 2237POPC   C4A31170  42.307  33.110   7.710
 2237POPC   C1B31171  41.964  33.244   8.793
 2237POPC   C2B31172  41.975  33.359   8.400
 2237POPC   C3B31173  41.884  33.166   8.039
 2237POPC   C4B31174  41.897  33.356   7.639
 2238POPC   NC331175  44.329  10.122   9.670
 2238POPC   PO431176  44.908   9.755   9.505
 2238POPC   GL131177  44.662   9.701   9.174
 2238POPC   GL231178  44.479  10.048   9.186
 2238POPC   C1A31179  44.745   9.527   8.748
 2238POPC   D2A31180  44.634   9.316   8.372
 2238POPC   C3A31181  44.680   9.652   8.058
 2238POPC   C4A31182  44.866   9.752   7.642
 2238POPC   C1B31183  44.320   9.803   8.835
 2238POPC   C2B31184  44.286   9.705   8.431
 2238POPC   C3B31185  44.201   9.859   8.059
 2238POPC   C4B31186  44.349   9.748   7.672
 2239POPC   NC331187  14.269  37.992   9.305
 2239POPC   PO431188  14.261  37.233   9.358
 2239POPC   GL131189  14.544  37.333   9.039
 2239POPC   GL231190  14.629  37.701   9.037
 2239POPC   C1A31191  14.300  37.473   8.687
 2239POPC   D2A31192  14.039  37.524   8.347
 2239POPC   C3A31193  14.258  37.413   7.980
 2239POPC   C4A31194  14.038  37.458   7.608
 2239POPC   C1B31195  14.475  37.976   8.675
 2239POPC   C2B31196  14.205  38.033   8.299
 2239POPC   C3B31197  14.355  37.903   7.886
 2239POPC   C4B31198  14.798  37.722   7.811
 2240POPC   NC331199  38.403   2.304   9.560
 2240POPC   PO431200  38.791   1.727   9.426
 2240POPC   GL131201  38.672   2.091   9.179
 2240POPC   GL231202  38.341   2.037   9.111
 2240POPC   C1A31203  38.633   2.169   8.731
 2240POPC   D2A31204  38.366   1.926   8.461
 2240POPC   C3A31205  38.541   1.994   8.059
 2240POPC   C4A31206  38.653   2.114   7.623
 2240POPC   C1B31207  38.121   2.299   8.843
 2240POPC   C2B31208  38.039   2.384   8.436
 2240POPC   C3B31209  37.992   2.070   8.121
 2240POPC   C4B31210  38.164   2.127   7.751
 2241POPC   NC331211  44.865   9.295   9.503
 2241POPC   PO431212  44.237   9.014   9.497
 2241POPC   GL131213  44.610   8.908   9.238
 2241POPC   GL231214  44.589   8.610   9.044
 2241POPC   C1A31215  44.843   9.026   8.857
 2241POPC   D2A31216  44.986   8.926   8.452
 2241POPC   C3A31217  44.819   8.957   8.040
 2241POPC   C4A31218  44.793   9.266   7.761
 2241POPC   C1B31219  44.355   8.857   8.769
 2241POPC   C2B31220  44.445   8.803   8.364
 2241POPC   C3B31221  44.320   8.828   7.966
 2241POPC   C4B31222  44.471   8.916   7.582
 2242POPC   NC331223  38.218  35.433   9.613
 2242POPC   PO431224  38.719  35.006   9.567
 2242POPC   GL131225  38.648  35.356   9.256
 2242POPC   GL231226  38.333  35.547   9.151
 2242POPC   C1A31227  38.602  35.294   8.820
 2242POPC   D2A31228  38.445  34.989   8.558
 2242POPC   C3A31229  38.433  35.092   8.158
 2242POPC   C4A31230  38.409  35.229   7.738
 2242POPC   C1B31231  38.319  35.712   8.750
 2242POPC   C2B31232  38.498  35.568   8.375
 2242POPC   C3B31233  38.208  35.563   8.044
 2242POPC   C4B31234  38.054  35.890   7.796
 2243POPC   NC331235  20.998  16.341   9.733
 2243POPC   PO431236  21.347  16.914   9.604
 2243POPC   GL131237  21.409  16.945   9.184
 2243POPC   GL231238  21.080  17.078   9.132
 2243POPC   C1A31239  21.419  16.678   8.818
 2243POPC   D2A31240  21.629  16.398   8.519
 2243POPC   C3A31241  21.653  16.569   8.092
 2243POPC   C4A31242  21.488  16.545   7.685
 2243POPC   C1B31243  21.176  17.140   8.720
 2243POPC   C2B31244  21.350  16.949   8.365
 2243POPC   C3B31245  21.274  16.947   7.921
 2243POPC   C4B31246  21.006  16.899   7.527
 2244POPC   NC331247  39.170  36.781   9.531
 2244POPC   PO431248  39.211  37.367   9.307
 2244POPC   GL131249  39.244  37.019   9.036
 2244POPC   GL231250  38.965  36.877   9.063
 2244POPC   C1A31251  39.383  36.762   8.662
 2244POPC   D2A31252  39.324  36.772   8.209
 2244POPC   C3A31253  39.639  36.841   7.878
 2244POPC   C4A31254  39.515  37.087   7.486
 2244POPC   C1B31255  38.827  37.073   8.702
 2244POPC   C2B31256  38.820  36.900   8.310
 2244POPC   C3B31257  38.984  36.978   7.905
 2244POPC   C4B31258  39.196  36.697   7.679
 2245POPC   NC331259  27.214   8.507   9.245
 2245POPC   PO431260  26.955   9.090   9.537
 2245POPC   GL131261  26.812   9.216   9.153
 2245POPC   GL231262  26.961   8.897   9.050
 2245POPC   C1A31263  26.818   9.192   8.695
 2245POPC   D2A31264  26.842   8.931   8.381
 2245POPC   C3A31265  26.453   8.936   8.155
 2245POPC   C4A31266  26.402   8.980   7.719
 2245POPC   C1B31267  27.267   8.883   8.708
 2245POPC   C2B31268  27.390   8.614   8.375
 2245POPC   C3B31269  27.196   8.564   8.000
 2245POPC   C4B31270  26.872   8.839   7.869
 2246POPC   NC331271  26.647  19.444   9.484
 2246POPC   PO431272  26.851  20.101   9.423
 2246POPC   GL131273  26.689  19.809   9.129
 2246POPC   GL231274  26.996  19.592   9.127
 2246POPC   C1A31275  26.751  19.709   8.698
 2246POPC   D2A31276  26.901  19.537   8.330
 2246POPC   C3A31277  26.884  19.813   7.997
 2246POPC   C4A31278  26.496  19.844   7.852
 2246POPC   C1B31279  27.100  19.320   8.763
 2246POPC   C2B31280  27.369  19.352   8.419
 2246POPC   C3B31281  27.328  19.534   8.041
 2246POPC   C4B31282  27.074  19.464   7.658
 2247POPC   NC331283   7.194   5.721   9.492
 2247POPC   PO431284   7.871   5.953   9.561
 2247POPC   GL131285   7.557   5.909   9.215
 2247POPC   GL231286   7.685   5.643   9.078
 2247POPC   C1A31287   7.335   5.887   8.795
 2247POPC   D2A31288   7.403   6.033   8.359
 2247POPC   C3A31289   7.152   5.819   8.036
 2247POPC   C4A31290   7.183   5.749   7.600
 2247POPC   C1B31291   7.849   5.811   8.670
 2247POPC   C2B31292   7.950   5.782   8.224
 2247POPC   C3B31293   7.658   5.834   7.855
 2247POPC   C4B31294   7.683   5.731   7.401
 2248POPC   NC331295  16.319  42.272   9.523
 2248POPC   PO431296  15.711  42.293   9.383
 2248POPC   GL131297  16.048  42.177   9.116
 2248POPC   GL231298  16.170  42.549   9.131
 2248POPC   C1A31299  16.117  41.836   8.814
 2248POPC   D2A31300  15.895  41.849   8.454
 2248POPC   C3A31301  16.079  42.060   8.122
 2248POPC   C4A31302  15.937  42.168   7.724
 2248POPC   C1B31303  15.973  42.507   8.751
 2248POPC   C2B31304  16.196  42.487   8.386
 2248POPC   C3B31305  16.164  42.569   7.975
 2248POPC   C4B31306  15.834  42.669   7.716
 2249POPC   NC331307  17.145   3.087   9.410
 2249POPC   PO431308  17.648   3.372   9.723
 2249POPC   GL131309  17.586   3.475   9.260
 2249POPC   GL231310  17.510   3.207   9.090
 2249POPC   C1A31311  17.521   3.818   8.943
 2249POPC   D2A31312  17.259   3.710   8.581
 2249POPC   C3A31313  17.428   3.659   8.161
 2249POPC   C4A31314  17.522   3.435   7.738
 2249POPC   C1B31315  17.672   3.392   8.718
 2249POPC   C2B31316  17.814   3.312   8.320
 2249POPC   C3B31317  17.929   3.134   7.948
 2249POPC   C4B31318  17.773   2.970   7.583
 2250POPC   NC331319  40.205   4.783   9.533
 2250POPC   PO431320  39.925   5.356   9.583
 2250POPC   GL131321  39.827   5.160   9.154
 2250POPC   GL231322  40.004   4.885   9.088
 2250POPC   C1A31323  40.037   5.228   8.725
 2250POPC   D2A31324  40.151   5.047   8.327
 2250POPC   C3A31325  39.821   5.126   8.037
 2250POPC   C4A31326  39.802   5.391   7.693
 2250POPC   C1B31327  39.957   4.683   8.699
 2250POPC   C2B31328  40.108   4.534   8.283
 2250POPC   C3B31329  40.039   4.664   7.855
 2250POPC   C4B31330  40.177   5.059   7.671
 2251POPC   NC331331  19.430  25.661   9.579
 2251POPC   PO431332  18.859  26.015   9.533
 2251POPC   GL131333  19.156  25.980   9.187
 2251POPC   GL231334  19.459  26.110   9.302
 2251POPC   C1A31335  19.134  25.833   8.749
 2251POPC   D2A31336  19.044  25.683   8.297
 2251POPC   C3A31337  18.831  25.953   7.984
 2251POPC   C4A31338  18.990  26.097   7.582
 2251POPC   C1B31339  19.492  26.238   8.841
 2251POPC   C2B31340  19.468  26.018   8.425
 2251POPC   C3B31341  19.328  26.083   8.009
 2251POPC   C4B31342  19.543  26.194   7.649
 2252POPC   NC331343  18.530  37.181   9.458
 2252POPC   PO431344  17.963  36.758   9.477
 2252POPC   GL131345  18.190  36.905   9.116
 2252POPC   GL231346  18.541  36.809   9.024
 2252POPC   C1A31347  18.130  36.927   8.676
 2252POPC   D2A31348  18.284  37.095   8.302
 2252POPC   C3A31349  18.015  37.029   8.002
 2252POPC   C4A31350  17.962  36.758   7.684
 2252POPC   C1B31351  18.613  36.726   8.551
 2252POPC   C2B31352  18.719  36.903   8.130
 2252POPC   C3B31353  18.474  37.036   7.753
 2252POPC   C4B31354  18.514  37.352   7.405
 2253POPC   NC331355  19.682  27.163   9.423
 2253POPC   PO431356  20.126  26.653   9.585
 2253POPC   GL131357  20.025  26.759   9.182
 2253POPC   GL231358  19.676  26.746   9.121
 2253POPC   C1A31359  19.969  26.643   8.736
 2253POPC   D2A31360  19.816  26.863   8.403
 2253POPC   C3A31361  19.890  26.692   8.023
 2253POPC   C4A31362  20.164  26.867   7.741
 2253POPC   C1B31363  19.450  26.724   8.727
 2253POPC   C2B31364  19.422  26.528   8.307
 2253POPC   C3B31365  19.406  26.640   7.856
 2253POPC   C4B31366  19.729  26.656   7.513
 2254POPC   NC331367   9.763   4.850   9.508
 2254POPC   PO431368   9.960   5.434   9.335
 2254POPC   GL131369   9.672   5.197   9.075
 2254POPC   GL231370   9.531   4.861   9.057
 2254POPC   C1A31371   9.676   5.317   8.649
 2254POPC   D2A31372   9.764   5.379   8.209
 2254POPC   C3A31373   9.845   5.039   7.923
 2254POPC   C4A31374  10.106   5.265   7.682
 2254POPC   C1B31375   9.667   4.812   8.669
 2254POPC   C2B31376   9.539   4.896   8.299
 2254POPC   C3B31377   9.456   4.649   7.977
 2254POPC   C4B31378   9.748   4.545   7.723
 2255POPC   NC331379  13.719  19.713   9.554
 2255POPC   PO431380  13.124  19.860   9.508
 2255POPC   GL131381  13.326  19.799   9.086
 2255POPC   GL231382  13.668  19.715   9.049
 2255POPC   C1A31383  13.365  19.916   8.620
 2255POPC   D2A31384  13.638  19.798   8.244
 2255POPC   C3A31385  13.512  19.612   7.828
 2255POPC   C4A31386  13.467  19.754   7.393
 2255POPC   C1B31387  13.918  19.804   8.682
 2255POPC   C2B31388  14.111  19.596   8.309
 2255POPC   C3B31389  14.011  19.714   7.897
 2255POPC   C4B31390  13.785  20.044   7.676
 2256POPC   NC331391  44.598  17.591   9.651
 2256POPC   PO431392   0.124  17.267   9.407
 2256POPC   GL131393  44.809  17.617   9.180
 2256POPC   GL231394  44.413  17.527   9.165
 2256POPC   C1A31395  44.577  17.881   8.830
 2256POPC   D2A31396  44.311  17.762   8.453
 2256POPC   C3A31397  44.516  17.551   8.114
 2256POPC   C4A31398  44.837  17.657   7.830
 2256POPC   C1B31399  44.300  17.244   8.768
 2256POPC   C2B31400  44.241  17.081   8.304
 2256POPC   C3B31401  44.182  17.141   7.820
 2256POPC   C4B31402  44.431  17.022   7.411
 2257POPC   NC331403  35.918  41.868   9.539
 2257POPC   PO431404  35.244  41.639   9.610
 2257POPC   GL131405  35.316  41.546   9.204
 2257POPC   GL231406  35.656  41.477   9.263
 2257POPC   C1A31407  35.285  41.786   8.831
 2257POPC   D2A31408  35.085  41.867   8.452
 2257POPC   C3A31409  35.290  41.728   8.076
 2257POPC   C4A31410  35.228  41.387   7.769
 2257POPC   C1B31411  35.722  41.501   8.842
 2257POPC   C2B31412  35.548  41.465   8.448
 2257POPC   C3B31413  35.666  41.347   8.050
 2257POPC   C4B31414  35.705  41.648   7.739
 2258POPC   NC331415  10.572  39.532   9.485
 2258POPC   PO431416   9.993  39.313   9.503
 2258POPC   GL131417  10.317  39.225   9.158
 2258POPC   GL231418  10.652  39.075   9.249
 2258POPC   C1A31419  10.587  39.432   8.810
 2258POPC   D2A31420  10.501  39.716   8.442
 2258POPC   C3A31421  10.618  39.556   8.059
 2258POPC   C4A31422  10.549  39.420   7.664
 2258POPC   C1B31423  10.579  38.902   8.836
 2258POPC   C2B31424  10.608  39.065   8.416
 2258POPC   C3B31425  10.663  38.867   8.040
 2258POPC   C4B31426  10.816  38.987   7.663
 2259POPC   NC331427  25.047  32.353   9.429
 2259POPC   PO431428  25.554  31.914   9.600
 2259POPC   GL131429  25.427  32.036   9.203
 2259POPC   GL231430  25.137  31.920   9.037
 2259POPC   C1A31431  25.543  32.241   8.834
 2259POPC   D2A31432  25.621  32.192   8.415
 2259POPC   C3A31433  25.328  32.362   8.165
 2259POPC   C4A31434  25.447  32.555   7.812
 2259POPC   C1B31435  25.006  32.213   8.696
 2259POPC   C2B31436  24.856  32.140   8.275
 2259POPC   C3B31437  24.957  32.222   7.834
 2259POPC   C4B31438  25.051  31.923   7.479
 2260POPC   NC331439  16.054  35.927   9.818
 2260POPC   PO431440  15.492  36.233   9.611
 2260POPC   GL131441  15.750  36.159   9.243
 2260POPC   GL231442  16.059  35.928   9.293
 2260POPC   C1A31443  15.822  36.366   8.816
 2260POPC   D2A31444  16.027  36.422   8.403
 2260POPC   C3A31445  16.048  36.186   8.026
 2260POPC   C4A31446  15.748  36.049   7.721
 2260POPC   C1B31447  16.226  35.814   8.879
 2260POPC   C2B31448  16.202  35.922   8.457
 2260POPC   C3B31449  16.281  35.743   8.057
 2260POPC   C4B31450  16.229  35.793   7.626
 2261POPC   NC331451  31.508  10.162   9.408
 2261POPC   PO431452  31.675  10.799   9.471
 2261POPC   GL131453  31.754  10.728   9.063
 2261POPC   GL231454  31.877  10.407   9.176
 2261POPC   C1A31455  31.602  10.759   8.616
 2261POPC   D2A31456  31.302  10.534   8.353
 2261POPC   C3A31457  31.255  10.615   7.913
 2261POPC   C4A31458  31.622  10.659   7.686
 2261POPC   C1B31459  31.803  10.315   8.768
 2261POPC   C2B31460  31.947  10.451   8.369
 2261POPC   C3B31461  31.920  10.325   7.967
 2261POPC   C4B31462  31.685  10.152   7.651
 2262POPC   NC331463   1.905  35.387   9.944
 2262POPC   PO431464   1.779  35.346   9.479
 2262POPC   GL131465   2.028  35.526   9.115
 2262POPC   GL231466   2.307  35.355   9.022
 2262POPC   C1A31467   2.057  35.619   8.642
 2262POPC   D2A31468   1.812  35.633   8.217
 2262POPC   C3A31469   1.898  35.353   7.857
 2262POPC   C4A31470   1.760  35.353   7.417
 2262POPC   C1B31471   2.213  35.126   8.666
 2262POPC   C2B31472   2.236  35.304   8.261
 2262POPC   C3B31473   2.409  35.223   7.858
 2262POPC   C4B31474   2.241  35.015   7.478
 2263POPC   NC331475  37.078  43.997   9.627
 2263POPC   PO431476  36.725  43.429   9.674
 2263POPC   GL131477  36.940  43.653   9.257
 2263POPC   GL231478  36.896  44.042   9.137
 2263POPC   C1A31479  37.130  43.718   8.849
 2263POPC   D2A31480  36.956  43.627   8.446
 2263POPC   C3A31481  36.968  43.966   8.158
 2263POPC   C4A31482  36.987  43.868   7.724
 2263POPC   C1B31483  36.854  44.127   8.671
 2263POPC   C2B31484  36.599  44.309   8.339
 2263POPC   C3B31485  36.463  44.271   7.928
 2263POPC   C4B31486  36.537  44.054   7.538
 2264POPC   NC331487  12.574  27.384   9.450
 2264POPC   PO431488  12.912  27.865   9.755
 2264POPC   GL131489  12.796  27.832   9.272
 2264POPC   GL231490  12.868  27.561   9.096
 2264POPC   C1A31491  12.906  27.924   8.778
 2264POPC   D2A31492  12.828  27.656   8.438
 2264POPC   C3A31493  13.034  27.733   8.080
 2264POPC   C4A31494  12.779  27.755   7.736
 2264POPC   C1B31495  12.762  27.294   8.784
 2264POPC   C2B31496  12.788  27.111   8.401
 2264POPC   C3B31497  12.733  27.304   8.015
 2264POPC   C4B31498  12.867  27.166   7.616
 2265POPC   NC331499  14.145  31.707   9.487
 2265POPC   PO431500  14.787  31.592   9.626
 2265POPC   GL131501  14.566  31.473   9.223
 2265POPC   GL231502  14.461  31.113   9.299
 2265POPC   C1A31503  14.704  31.622   8.756
 2265POPC   D2A31504  14.842  31.760   8.297
 2265POPC   C3A31505  14.527  31.625   7.958
 2265POPC   C4A31506  14.079  31.620   7.769
 2265POPC   C1B31507  14.243  30.966   8.919
 2265POPC   C2B31508  14.187  31.181   8.530
 2265POPC   C3B31509  14.226  31.184   8.089
 2265POPC   C4B31510  14.203  31.110   7.679
 2266POPC   NC331511  32.055   6.505   9.730
 2266POPC   PO431512  32.413   6.888   9.244
 2266POPC   GL131513  32.354   6.609   8.988
 2266POPC   GL231514  32.061   6.511   9.170
 2266POPC   C1A31515  32.190   6.709   8.591
 2266POPC   D2A31516  31.963   6.992   8.376
 2266POPC   C3A31517  32.266   6.923   8.057
 2266POPC   C4A31518  32.263   6.743   7.671
 2266POPC   C1B31519  32.055   6.261   8.789
 2266POPC   C2B31520  32.336   6.219   8.473
 2266POPC   C3B31521  32.351   6.431   8.110
 2266POPC   C4B31522  32.128   6.266   7.771
 2267POPC   NC331523  36.026  21.802   9.386
 2267POPC   PO431524  36.627  21.751   9.684
 2267POPC   GL131525  36.514  21.660   9.219
 2267POPC   GL231526  36.356  21.312   9.216
 2267POPC   C1A31527  36.321  21.549   8.779
 2267POPC   D2A31528  36.100  21.709   8.415
 2267POPC   C3A31529  36.229  21.545   8.030
 2267POPC   C4A31530  35.900  21.475   7.755
 2267POPC   C1B31531  36.405  21.038   8.824
 2267POPC   C2B31532  36.407  21.180   8.389
 2267POPC   C3B31533  36.353  20.948   8.020
 2267POPC   C4B31534  36.236  21.113   7.661
 2268POPC   NC331535  35.056   8.830   9.785
 2268POPC   PO431536  35.482   8.683   9.251
 2268POPC   GL131537  35.269   9.003   9.053
 2268POPC   GL231538  34.959   9.187   9.125
 2268POPC   C1A31539  35.408   9.004   8.655
 2268POPC   D2A31540  35.364   8.656   8.393
 2268POPC   C3A31541  35.403   8.798   7.970
 2268POPC   C4A31542  35.277   8.720   7.568
 2268POPC   C1B31543  34.961   9.267   8.676
 2268POPC   C2B31544  35.110   9.119   8.266
 2268POPC   C3B31545  35.205   9.265   7.885
 2268POPC   C4B31546  35.349   9.234   7.491
 2269POPC   NC331547  21.213  23.289   9.546
 2269POPC   PO431548  21.912  23.079   9.483
 2269POPC   GL131549  21.639  23.036   9.124
 2269POPC   GL231550  21.255  23.079   9.101
 2269POPC   C1A31551  21.522  22.812   8.747
 2269POPC   D2A31552  21.299  22.548   8.446
 2269POPC   C3A31553  21.485  22.718   8.097
 2269POPC   C4A31554  21.544  22.975   7.774
 2269POPC   C1B31555  21.126  23.152   8.708
 2269POPC   C2B31556  21.343  23.143   8.357
 2269POPC   C3B31557  21.111  23.083   8.032
 2269POPC   C4B31558  21.027  23.092   7.604
 2270POPC   NC331559  28.432  41.195   9.293
 2270POPC   PO431560  28.166  41.864   9.343
 2270POPC   GL131561  28.362  41.631   9.060
 2270POPC   GL231562  28.512  41.879   8.906
 2270POPC   C1A31563  28.554  41.417   8.696
 2270POPC   D2A31564  28.730  41.608   8.358
 2270POPC   C3A31565  28.422  41.676   8.085
 2270POPC   C4A31566  28.421  41.414   7.749
 2270POPC   C1B31567  28.161  41.780   8.585
 2270POPC   C2B31568  27.921  41.794   8.148
 2270POPC   C3B31569  28.045  41.795   7.669
 2270POPC   C4B31570  27.982  41.838   7.192
 2271POPC   NC331571  11.611  21.571   9.348
 2271POPC   PO431572  11.527  20.919   9.450
 2271POPC   GL131573  11.283  21.090   9.122
 2271POPC   GL231574  11.135  21.426   9.138
 2271POPC   C1A31575  11.347  21.214   8.717
 2271POPC   D2A31576  11.633  21.459   8.499
 2271POPC   C3A31577  11.510  21.417   8.071
 2271POPC   C4A31578  11.383  21.174   7.713
 2271POPC   C1B31579  11.171  21.700   8.728
 2271POPC   C2B31580  11.286  21.814   8.316
 2271POPC   C3B31581  11.283  21.835   7.890
 2271POPC   C4B31582  11.078  21.581   7.652
 2272POPC   NC331583  18.432  40.033   9.550
 2272POPC   PO431584  19.000  40.222   9.395
 2272POPC   GL131585  18.740  39.988   9.130
 2272POPC   GL231586  18.524  40.242   9.094
 2272POPC   C1A31587  18.855  39.803   8.739
 2272POPC   D2A31588  19.208  39.943   8.460
 2272POPC   C3A31589  19.142  39.829   8.037
 2272POPC   C4A31590  18.861  39.630   7.752
 2272POPC   C1B31591  18.509  40.164   8.651
 2272POPC   C2B31592  18.734  40.021   8.280
 2272POPC   C3B31593  18.816  40.195   7.868
 2272POPC   C4B31594  19.103  40.486   7.616
 2273POPC   NC331595   0.999  10.401   9.456
 2273POPC   PO431596   1.583  10.849   9.540
 2273POPC   GL131597   1.488  10.658   9.168
 2273POPC   GL231598   1.138  10.745   9.117
 2273POPC   C1A31599   1.476  10.558   8.719
 2273POPC   D2A31600   1.169  10.673   8.405
 2273POPC   C3A31601   1.108  10.484   7.995
 2273POPC   C4A31602   1.211  10.702   7.632
 2273POPC   C1B31603   0.873  10.878   8.786
 2273POPC   C2B31604   0.672  11.017   8.410
 2273POPC   C3B31605   0.798  10.875   8.044
 2273POPC   C4B31606   0.724  10.694   7.683
 2274POPC   NC331607  43.682   4.635   9.559
 2274POPC   PO431608  44.040   5.237   9.484
 2274POPC   GL131609  43.949   5.056   9.123
 2274POPC   GL231610  44.288   5.219   9.024
 2274POPC   C1A31611  44.019   4.793   8.784
 2274POPC   D2A31612  44.129   4.743   8.369
 2274POPC   C3A31613  43.867   4.882   8.072
 2274POPC   C4A31614  43.893   5.012   7.639
 2274POPC   C1B31615  44.013   5.315   8.699
 2274POPC   C2B31616  43.832   5.320   8.347
 2274POPC   C3B31617  43.991   5.389   7.963
 2274POPC   C4B31618  43.712   5.525   7.652
 2275POPC   NC331619  22.504  23.186   9.514
 2275POPC   PO431620  22.315  22.543   9.381
 2275POPC   GL131621  22.324  22.878   9.113
 2275POPC   GL231622  22.225  23.228   9.101
 2275POPC   C1A31623  22.535  23.004   8.730
 2275POPC   D2A31624  22.464  23.237   8.361
 2275POPC   C3A31625  22.218  23.121   8.024
 2275POPC   C4A31626  22.220  22.986   7.625
 2275POPC   C1B31627  22.006  23.042   8.752
 2275POPC   C2B31628  21.841  23.011   8.364
 2275POPC   C3B31629  21.749  23.346   8.097
 2275POPC   C4B31630  21.883  23.360   7.688
 2276POPC   NC331631  24.069  22.275   9.388
 2276POPC   PO431632  24.764  22.291   9.447
 2276POPC   GL131633  24.639  22.091   9.114
 2276POPC   GL231634  24.411  22.292   9.029
 2276POPC   C1A31635  24.551  21.896   8.726
 2276POPC   D2A31636  24.613  22.048   8.306
 2276POPC   C3A31637  24.479  21.791   7.982
 2276POPC   C4A31638  24.148  22.001   7.818
 2276POPC   C1B31639  24.675  22.401   8.712
 2276POPC   C2B31640  24.597  22.585   8.334
 2276POPC   C3B31641  24.505  22.483   7.919
 2276POPC   C4B31642  24.856  22.578   7.660
 2277POPC   NC331643  26.205  18.228   9.435
 2277POPC   PO431644  25.687  18.648   9.524
 2277POPC   GL131645  25.824  18.406   9.109
 2277POPC   GL231646  26.168  18.305   8.950
 2277POPC   C1A31647  25.832  18.450   8.629
 2277POPC   D2A31648  25.639  18.506   8.221
 2277POPC   C3A31649  25.783  18.299   7.849
 2277POPC   C4A31650  25.685  18.489   7.460
 2277POPC   C1B31651  26.199  18.041   8.571
 2277POPC   C2B31652  26.193  18.020   8.117
 2277POPC   C3B31653  26.284  18.180   7.696
 2277POPC   C4B31654  26.431  18.241   7.249
 2278POPC   NC331655  29.671   7.023   9.281
 2278POPC   PO431656  30.055   6.652   9.682
 2278POPC   GL131657  30.010   6.465   9.234
 2278POPC   GL231658  29.744   6.535   9.060
 2278POPC   C1A31659  30.204   6.473   8.764
 2278POPC   D2A31660  30.180   6.871   8.456
 2278POPC   C3A31661  30.102   6.742   8.013
 2278POPC   C4A31662  30.154   6.294   7.872
 2278POPC   C1B31663  29.730   6.609   8.623
 2278POPC   C2B31664  29.762   6.412   8.236
 2278POPC   C3B31665  29.649   6.525   7.821
 2278POPC   C4B31666  29.655   6.606   7.382
 2279POPC   NC331667  38.846  38.069   9.609
 2279POPC   PO431668  39.501  38.293   9.664
 2279POPC   GL131669  39.318  38.470   9.250
 2279POPC   GL231670  38.981  38.348   9.205
 2279POPC   C1A31671  39.367  38.499   8.756
 2279POPC   D2A31672  39.569  38.424   8.305
 2279POPC   C3A31673  39.326  38.411   7.888
 2279POPC   C4A31674  39.469  38.370   7.418
 2279POPC   C1B31675  38.976  38.159   8.796
 2279POPC   C2B31676  38.999  38.365   8.376
 2279POPC   C3B31677  38.801  38.361   7.982
 2279POPC   C4B31678  38.790  38.727   7.768
 2280POPC   NC331679  36.666  29.339   9.440
 2280POPC   PO431680  37.253  29.025   9.523
 2280POPC   GL131681  37.107  29.244   9.173
 2280POPC   GL231682  36.822  29.060   9.029
 2280POPC   C1A31683  37.239  29.158   8.766
 2280POPC   D2A31684  37.084  28.975   8.392
 2280POPC   C3A31685  37.221  29.170   8.004
 2280POPC   C4A31686  37.062  29.081   7.598
 2280POPC   C1B31687  36.600  29.340   8.730
 2280POPC   C2B31688  36.563  29.466   8.348
 2280POPC   C3B31689  36.703  29.195   8.057
 2280POPC   C4B31690  36.604  29.344   7.683
 2281POPC   NC331691   7.889  24.608   9.361
 2281POPC   PO431692   7.254  24.221   9.527
 2281POPC   GL131693   7.399  24.169   9.139
 2281POPC   GL231694   7.483  24.502   9.052
 2281POPC   C1A31695   7.321  24.147   8.719
 2281POPC   D2A31696   7.097  24.292   8.331
 2281POPC   C3A31697   7.229  24.684   8.117
 2281POPC   C4A31698   7.505  24.796   7.767
 2281POPC   C1B31699   7.429  24.618   8.585
 2281POPC   C2B31700   7.734  24.693   8.259
 2281POPC   C3B31701   7.996  24.718   7.889
 2281POPC   C4B31702   7.919  24.766   7.438
 2282POPC   NC331703   5.339  44.613   9.771
 2282POPC   PO431704   4.981   0.137   9.470
 2282POPC   GL131705   5.132  44.904   9.160
 2282POPC   GL231706   5.294  44.597   9.252
 2282POPC   C1A31707   4.919  44.781   8.802
 2282POPC   D2A31708   4.855  44.664   8.406
 2282POPC   C3A31709   4.630  44.821   8.094
 2282POPC   C4A31710   4.688  44.796   7.659
 2282POPC   C1B31711   5.432  44.665   8.815
 2282POPC   C2B31712   5.339  44.522   8.411
 2282POPC   C3B31713   5.440  44.595   7.977
 2282POPC   C4B31714   5.337  44.371   7.589
 2283POPC   NC331715  40.206  24.258   9.433
 2283POPC   PO431716  39.648  24.660   9.509
 2283POPC   GL131717  39.828  24.579   9.147
 2283POPC   GL231718  39.740  24.257   9.137
 2283POPC   C1A31719  39.912  24.804   8.777
 2283POPC   D2A31720  39.865  24.629   8.369
 2283POPC   C3A31721  40.112  24.675   7.972
 2283POPC   C4A31722  40.212  24.769   7.530
 2283POPC   C1B31723  40.005  24.247   8.763
 2283POPC   C2B31724  39.928  24.129   8.333
 2283POPC   C3B31725  39.739  24.305   7.976
 2283POPC   C4B31726  39.850  24.373   7.592
 2284POPC   NC331727  25.633  24.469   9.362
 2284POPC   PO431728  26.242  24.106   9.256
 2284POPC   GL131729  26.030  24.391   9.075
 2284POPC   GL231730  25.761  24.141   9.015
 2284POPC   C1A31731  25.920  24.683   8.770
 2284POPC   D2A31732  25.850  24.558   8.355
 2284POPC   C3A31733  26.048  24.768   8.035
 2284POPC   C4A31734  25.808  24.767   7.686
 2284POPC   C1B31735  25.971  24.145   8.641
 2284POPC   C2B31736  26.045  24.077   8.242
 2284POPC   C3B31737  25.896  24.265   7.903
 2284POPC   C4B31738  26.212  24.406   7.660
 2285POPC   NC331739  44.118  30.901   9.318
 2285POPC   PO431740  43.514  30.490   9.439
 2285POPC   GL131741  43.786  30.591   9.090
 2285POPC   GL231742  44.082  30.360   9.103
 2285POPC   C1A31743  43.796  30.913   8.721
 2285POPC   D2A31744  44.164  30.970   8.383
 2285POPC   C3A31745  44.038  30.995   7.967
 2285POPC   C4A31746  43.746  31.032   7.661
 2285POPC   C1B31747  44.149  30.542   8.732
 2285POPC   C2B31748  43.895  30.536   8.369
 2285POPC   C3B31749  44.023  30.423   7.991
 2285POPC   C4B31750  44.187  30.603   7.660
 2286POPC   NC331751  32.834  11.788   9.427
 2286POPC   PO431752  33.355  12.175   9.640
 2286POPC   GL131753  33.277  11.972   9.220
 2286POPC   GL231754  33.341  12.272   9.086
 2286POPC   C1A31755  33.072  11.836   8.772
 2286POPC   D2A31756  32.857  12.010   8.372
 2286POPC   C3A31757  32.741  11.766   7.986
 2286POPC   C4A31758  32.866  11.908   7.582
 2286POPC   C1B31759  33.284  12.282   8.632
 2286POPC   C2B31760  33.385  11.964   8.351
 2286POPC   C3B31761  33.225  11.920   7.983
 2286POPC   C4B31762  33.328  12.155   7.688
 2287POPC   NC331763  24.182  19.855   9.664
 2287POPC   PO431764  23.608  20.004   9.621
 2287POPC   GL131765  23.586  19.920   9.144
 2287POPC   GL231766  23.930  19.890   9.112
 2287POPC   C1A31767  23.465  19.664   8.763
 2287POPC   D2A31768  23.658  19.636   8.338
 2287POPC   C3A31769  23.453  19.663   7.918
 2287POPC   C4A31770  23.390  19.726   7.470
 2287POPC   C1B31771  23.843  20.000   8.692
 2287POPC   C2B31772  24.027  20.154   8.335
 2287POPC   C3B31773  23.886  19.956   7.995
 2287POPC   C4B31774  23.874  19.796   7.596
 2288POPC   NC331775   2.901  19.717   9.235
 2288POPC   PO431776   2.631  20.273   9.431
 2288POPC   GL131777   2.737  20.182   9.031
 2288POPC   GL231778   2.435  20.095   8.881
 2288POPC   C1A31779   2.915  20.093   8.615
 2288POPC   D2A31780   2.979  19.742   8.292
 2288POPC   C3A31781   3.122  19.812   7.841
 2288POPC   C4A31782   2.971  19.964   7.403
 2288POPC   C1B31783   2.553  19.721   8.611
 2288POPC   C2B31784   2.472  19.629   8.226
 2288POPC   C3B31785   2.626  19.879   7.916
 2288POPC   C4B31786   2.469  20.266   7.752
 2289POPC   NC331787  11.580  24.862   9.271
 2289POPC   PO431788  11.317  24.268   9.528
 2289POPC   GL131789  11.279  24.246   9.089
 2289POPC   GL231790  11.554  24.408   9.021
 2289POPC   C1A31791  11.201  24.332   8.623
 2289POPC   D2A31792  10.956  24.408   8.244
 2289POPC   C3A31793  11.196  24.521   7.895
 2289POPC   C4A31794  11.504  24.220   7.896
 2289POPC   C1B31795  11.562  24.690   8.660
 2289POPC   C2B31796  11.575  24.551   8.271
 2289POPC   C3B31797  11.690  24.737   7.895
 2289POPC   C4B31798  11.653  24.731   7.440
 2290POPC   NC331799  22.313  10.682   9.570
 2290POPC   PO431800  22.470   9.944   9.589
 2290POPC   GL131801  22.395  10.225   9.204
 2290POPC   GL231802  22.035  10.212   9.034
 2290POPC   C1A31803  22.417  10.520   8.848
 2290POPC   D2A31804  22.113  10.761   8.583
 2290POPC   C3A31805  22.075  10.700   8.112
 2290POPC   C4A31806  22.202  10.632   7.679
 2290POPC   C1B31807  21.827  10.310   8.629
 2290POPC   C2B31808  21.740  10.186   8.191
 2290POPC   C3B31809  21.940  10.128   7.786
 2290POPC   C4B31810  21.891  10.365   7.376
 2291POPC   NC331811   0.140  17.978   9.452
 2291POPC   PO431812   0.488  18.626   9.436
 2291POPC   GL131813   0.412  18.583   9.050
 2291POPC   GL231814   0.266  18.270   9.073
 2291POPC   C1A31815   0.502  18.406   8.657
 2291POPC   D2A31816   0.732  18.275   8.347
 2291POPC   C3A31817   0.526  18.296   8.004
 2291POPC   C4A31818   0.717  18.395   7.657
 2291POPC   C1B31819   0.062  18.092   8.734
 2291POPC   C2B31820   0.046  18.231   8.310
 2291POPC   C3B31821   0.071  18.111   7.879
 2291POPC   C4B31822   0.315  18.100   7.494
 2292POPC   NC331823  24.369  21.835   9.444
 2292POPC   PO431824  24.515  21.233   9.678
 2292POPC   GL131825  24.539  21.360   9.254
 2292POPC   GL231826  24.811  21.613   9.234
 2292POPC   C1A31827  24.352  21.406   8.846
 2292POPC   D2A31828  24.445  21.510   8.423
 2292POPC   C3A31829  24.327  21.228   8.125
 2292POPC   C4A31830  24.327  21.375   7.720
 2292POPC   C1B31831  24.858  21.422   8.834
 2292POPC   C2B31832  24.881  21.238   8.401
 2292POPC   C3B31833  24.797  21.364   7.987
 2292POPC   C4B31834  24.813  21.535   7.585
 2293POPC   NC331835  23.351  11.942   9.528
 2293POPC   PO431836  23.974  11.784   9.207
 2293POPC   GL131837  23.865  12.160   9.050
 2293POPC   GL231838  23.522  12.138   9.051
 2293POPC   C1A31839  23.930  12.429   8.731
 2293POPC   D2A31840  23.676  12.388   8.374
 2293POPC   C3A31841  23.910  12.304   8.022
 2293POPC   C4A31842  23.796  12.030   7.702
 2293POPC   C1B31843  23.726  11.943   8.638
 2293POPC   C2B31844  23.854  11.866   8.270
 2293POPC   C3B31845  23.770  11.606   7.983
 2293POPC   C4B31846  23.435  11.704   7.797
 2294POPC   NC331847   4.011   3.952   9.545
 2294POPC   PO431848   4.371   4.434   9.760
 2294POPC   GL131849   4.388   4.255   9.274
 2294POPC   GL231850   4.124   4.038   9.078
 2294POPC   C1A31851   4.377   4.412   8.819
 2294POPC   D2A31852   4.245   4.561   8.397
 2294POPC   C3A31853   4.393   4.387   7.996
 2294POPC   C4A31854   4.573   4.241   7.608
 2294POPC   C1B31855   4.395   3.896   8.784
 2294POPC   C2B31856   4.371   4.001   8.363
 2294POPC   C3B31857   4.195   3.910   7.979
 2294POPC   C4B31858   4.131   3.947   7.553
 2295POPC   NC331859   3.479  12.638   9.462
 2295POPC   PO431860   3.410  13.261   9.261
 2295POPC   GL131861   3.604  12.910   9.070
 2295POPC   GL231862   3.299  12.719   8.983
 2295POPC   C1A31863   3.704  12.660   8.675
 2295POPC   D2A31864   3.924  12.833   8.313
 2295POPC   C3A31865   3.718  12.938   7.914
 2295POPC   C4A31866   3.538  12.783   7.533
 2295POPC   C1B31867   3.351  13.051   8.661
 2295POPC   C2B31868   3.399  13.075   8.265
 2295POPC   C3B31869   3.223  12.794   7.944
 2295POPC   C4B31870   3.112  13.042   7.597
 2296POPC   NC331871  29.834  21.607   9.567
 2296POPC   PO431872  30.306  21.076   9.547
 2296POPC   GL131873  30.024  21.248   9.248
 2296POPC   GL231874  30.080  20.965   9.085
 2296POPC   C1A31875  29.728  21.371   8.895
 2296POPC   D2A31876  29.824  21.362   8.454
 2296POPC   C3A31877  29.613  21.481   8.094
 2296POPC   C4A31878  29.722  21.367   7.724
 2296POPC   C1B31879  30.202  21.202   8.759
 2296POPC   C2B31880  30.217  21.035   8.369
 2296POPC   C3B31881  30.145  21.204   7.997
 2296POPC   C4B31882  30.304  21.056   7.630
 2297POPC   NC331883  32.698  14.173   9.590
 2297POPC   PO431884  32.216  14.569   9.507
 2297POPC   GL131885  32.437  14.467   9.102
 2297POPC   GL231886  32.607  14.140   9.097
 2297POPC   C1A31887  32.345  14.445   8.602
 2297POPC   D2A31888  32.113  14.454   8.155
 2297POPC   C3A31889  32.271  14.539   7.711
 2297POPC   C4A31890  32.544  14.869   7.575
 2297POPC   C1B31891  32.527  13.925   8.719
 2297POPC   C2B31892  32.335  13.997   8.312
 2297POPC   C3B31893  32.296  14.059   7.875
 2297POPC   C4B31894  32.221  14.096   7.435
 2298POPC   NC331895  16.691  25.738   9.591
 2298POPC   PO431896  16.454  26.402   9.667
 2298POPC   GL131897  16.507  26.155   9.275
 2298POPC   GL231898  16.461  25.815   9.153
 2298POPC   C1A31899  16.519  26.181   8.806
 2298POPC   D2A31900  16.353  26.238   8.356
 2298POPC   C3A31901  16.576  26.172   7.959
 2298POPC   C4A31902  16.506  26.209   7.500
 2298POPC   C1B31903  16.658  25.697   8.763
 2298POPC   C2B31904  16.702  25.798   8.339
 2298POPC   C3B31905  16.891  25.758   7.953
 2298POPC   C4B31906  17.001  26.049   7.642
 2299POPC   NC331907  41.617  29.237   9.266
 2299POPC   PO431908  41.768  28.651   9.666
 2299POPC   GL131909  41.761  28.779   9.161
 2299POPC   GL231910  41.356  28.834   9.129
 2299POPC   C1A31911  41.816  29.076   8.704
 2299POPC   D2A31912  42.028  29.318   8.356
 2299POPC   C3A31913  41.776  29.328   7.956
 2299POPC   C4A31914  41.622  29.153   7.562
 2299POPC   C1B31915  41.214  29.097   8.749
 2299POPC   C2B31916  41.316  29.233   8.297
 2299POPC   C3B31917  41.218  29.221   7.835
 2299POPC   C4B31918  41.168  29.244   7.332
 2300POPC   NC331919  30.570  11.160   9.542
 2300POPC   PO431920  31.034  11.418   9.205
 2300POPC   GL131921  30.573  11.307   9.070
 2300POPC   GL231922  30.378  11.531   8.842
 2300POPC   C1A31923  30.313  11.035   8.807
 2300POPC   D2A31924  30.324  10.905   8.377
 2300POPC   C3A31925  30.516  11.190   8.081
 2300POPC   C4A31926  30.458  11.330   7.663
 2300POPC   C1B31927  30.669  11.289   8.582
 2300POPC   C2B31928  30.898  11.430   8.346
 2300POPC   C3B31929  30.841  11.566   7.948
 2300POPC   C4B31930  30.932  11.147   7.730
 2301POPC   NC331931   3.565  25.720   9.635
 2301POPC   PO431932   3.430  26.398   9.762
 2301POPC   GL131933   3.404  26.171   9.303
 2301POPC   GL231934   3.313  25.796   9.221
 2301POPC   C1A31935   3.527  26.214   8.831
 2301POPC   D2A31936   3.674  26.327   8.387
 2301POPC   C3A31937   3.745  26.040   8.019
 2301POPC   C4A31938   3.643  26.258   7.634
 2301POPC   C1B31939   3.364  25.724   8.813
 2301POPC   C2B31940   3.512  25.820   8.427
 2301POPC   C3B31941   3.333  25.693   8.049
 2301POPC   C4B31942   3.306  25.837   7.643
 2302POPC   NC331943   3.099  37.731   9.765
 2302POPC   PO431944   2.649  37.368   9.596
 2302POPC   GL131945   2.895  37.481   9.190
 2302POPC   GL231946   3.025  37.811   9.243
 2302POPC   C1A31947   2.951  37.622   8.707
 2302POPC   D2A31948   2.952  37.693   8.220
 2302POPC   C3A31949   2.671  37.506   7.899
 2302POPC   C4A31950   2.235  37.391   7.811
 2302POPC   C1B31951   2.599  37.867   8.988
 2302POPC   C2B31952   2.529  37.945   8.512
 2302POPC   C3B31953   2.647  38.110   8.094
 2302POPC   C4B31954   2.721  37.986   7.690
 2303POPC   NC331955   9.769   8.419   9.508
 2303POPC   PO431956   9.577   7.703   9.411
 2303POPC   GL131957   9.716   8.073   9.136
 2303POPC   GL231958   9.525   8.408   9.071
 2303POPC   C1A31959   9.895   8.206   8.767
 2303POPC   D2A31960   9.726   8.195   8.381
 2303POPC   C3A31961   9.839   8.374   8.046
 2303POPC   C4A31962   9.848   8.266   7.645
 2303POPC   C1B31963   9.540   8.588   8.652
 2303POPC   C2B31964   9.366   8.577   8.240
 2303POPC   C3B31965   9.423   8.611   7.786
 2303POPC   C4B31966   9.567   8.571   7.340
 2304POPC   NC331967  21.857   7.404   9.350
 2304POPC   PO431968  22.471   7.433   9.572
 2304POPC   GL131969  22.379   7.511   9.181
 2304POPC   GL231970  22.612   7.264   9.058
 2304POPC   C1A31971  22.234   7.487   8.774
 2304POPC   D2A31972  21.901   7.462   8.473
 2304POPC   C3A31973  21.997   7.651   8.086
 2304POPC   C4A31974  22.153   7.429   7.755
 2304POPC   C1B31975  22.510   6.982   8.775
 2304POPC   C2B31976  22.306   7.113   8.412
 2304POPC   C3B31977  22.317   7.015   8.003
 2304POPC   C4B31978  22.332   6.978   7.578
 2305POPC   NC331979  15.690   5.715   9.574
 2305POPC   PO431980  16.224   6.045   9.665
 2305POPC   GL131981  16.129   5.822   9.260
 2305POPC   GL231982  15.807   5.911   9.129
 2305POPC   C1A31983  16.180   5.805   8.789
 2305POPC   D2A31984  16.132   6.010   8.383
 2305POPC   C3A31985  16.054   5.767   8.009
 2305POPC   C4A31986  16.150   5.834   7.584
 2305POPC   C1B31987  15.695   5.942   8.721
 2305POPC   C2B31988  15.745   5.666   8.411
 2305POPC   C3B31989  15.539   5.733   8.059
 2305POPC   C4B31990  15.645   5.982   7.694
 2306POPC   NC331991  28.251  39.363   9.587
 2306POPC   PO431992  27.646  39.478   9.503
 2306POPC   GL131993  27.687  39.199   9.122
 2306POPC   GL231994  27.415  38.918   9.058
 2306POPC   C1A31995  27.716  39.422   8.718
 2306POPC   D2A31996  27.685  39.664   8.349
 2306POPC   C3A31997  27.565  39.408   8.044
 2306POPC   C4A31998  27.683  39.434   7.640
 2306POPC   C1B31999  27.530  38.965   8.629
 2306POPC   C2B32000  27.598  38.920   8.191
 2306POPC   C3B32001  27.528  38.958   7.743
 2306POPC   C4B32002  27.864  39.053   7.389
 2307POPC   NC332003  36.640   0.659   9.233
 2307POPC   PO432004  37.229   0.632   9.503
 2307POPC   GL132005  37.171   0.659   9.101
 2307POPC   GL232006  37.042   0.312   9.125
 2307POPC   C1A32007  37.011   0.580   8.693
 2307POPC   D2A32008  36.883   0.314   8.394
 2307POPC   C3A32009  36.873   0.566   8.038
 2307POPC   C4A32010  36.612   0.440   7.758
 2307POPC   C1B32011  37.037   0.003   8.811
 2307POPC   C2B32012  37.185  44.873   8.408
 2307POPC   C3B32013  37.033  44.999   7.995
 2307POPC   C4B32014  37.070   0.201   7.601
 2308POPC   NC332015  42.312  30.642   9.541
 2308POPC   PO432016  41.991  31.141   9.259
 2308POPC   GL132017  42.287  30.837   9.071
 2308POPC   GL232018  42.207  30.480   9.071
 2308POPC   C1A32019  42.477  30.701   8.677
 2308POPC   D2A32020  42.633  31.005   8.363
 2308POPC   C3A32021  42.532  30.908   7.942
 2308POPC   C4A32022  42.535  31.183   7.605
 2308POPC   C1B32023  42.250  30.236   8.708
 2308POPC   C2B32024  42.379  30.313   8.299
 2308POPC   C3B32025  42.193  30.224   7.905
 2308POPC   C4B32026  42.267  30.468   7.541
 2309POPC   NC332027  44.362   7.330   9.434
 2309POPC   PO432028  44.923   7.688   9.344
 2309POPC   GL132029  44.659   7.606   9.000
 2309POPC   GL232030  44.306   7.548   8.988
 2309POPC   C1A32031  44.663   7.506   8.577
 2309POPC   D2A32032  44.883   7.378   8.231
 2309POPC   C3A32033  44.745   7.532   7.847
 2309POPC   C4A32034  44.653   7.316   7.483
 2309POPC   C1B32035  44.363   7.135   8.783
 2309POPC   C2B32036  44.482   6.979   8.390
 2309POPC   C3B32037  44.413   7.179   8.027
 2309POPC   C4B32038  44.242   7.462   7.750
 2310POPC   NC332039  11.361  37.449   9.631
 2310POPC   PO432040  11.987  37.716   9.687
 2310POPC   GL132041  12.068  37.684   9.245
 2310POPC   GL232042  11.831  37.965   9.237
 2310POPC   C1A32043  12.320  37.675   8.806
 2310POPC   D2A32044  12.429  37.752   8.334
 2310POPC   C3A32045  12.160  37.759   7.943
 2310POPC   C4A32046  12.181  37.584   7.510
 2310POPC   C1B32047  11.821  37.829   8.792
 2310POPC   C2B32048  11.883  37.862   8.361
 2310POPC   C3B32049  11.638  37.853   8.009
 2310POPC   C4B32050  11.694  37.636   7.647
 2311POPC   NC332051   2.868  42.760   9.531
 2311POPC   PO432052   2.586  42.234   9.487
 2311POPC   GL132053   2.684  42.196   9.108
 2311POPC   GL232054   2.944  42.425   9.142
 2311POPC   C1A32055   2.590  42.109   8.697
 2311POPC   D2A32056   2.427  42.218   8.301
 2311POPC   C3A32057   2.677  42.129   7.959
 2311POPC   C4A32058   2.690  42.354   7.578
 2311POPC   C1B32059   3.098  42.168   8.799
 2311POPC   C2B32060   2.985  42.223   8.371
 2311POPC   C3B32061   3.138  42.324   7.964
 2311POPC   C4B32062   3.135  42.590   7.589
 2312POPC   NC332063  30.373  22.989   9.541
 2312POPC   PO432064  30.882  23.420   9.561
 2312POPC   GL132065  30.742  23.100   9.206
 2312POPC   GL232066  30.710  22.736   9.088
 2312POPC   C1A32067  30.722  23.116   8.738
 2312POPC   D2A32068  30.772  23.219   8.289
 2312POPC   C3A32069  30.882  23.027   7.879
 2312POPC   C4A32070  30.757  23.171   7.471
 2312POPC   C1B32071  30.984  22.643   8.699
 2312POPC   C2B32072  31.026  22.446   8.264
 2312POPC   C3B32073  31.220  22.608   7.864
 2312POPC   C4B32074  31.182  22.840   7.452
 2313POPC   NC332075   8.416  37.918   9.420
 2313POPC   PO432076   7.761  37.679   9.446
 2313POPC   GL132077   8.065  37.676   9.130
 2313POPC   GL232078   8.133  37.959   8.980
 2313POPC   C1A32079   8.266  37.475   8.785
 2313POPC   D2A32080   8.132  37.324   8.403
 2313POPC   C3A32081   8.322  37.383   8.039
 2313POPC   C4A32082   8.183  37.619   7.729
 2313POPC   C1B32083   8.513  37.936   8.745
 2313POPC   C2B32084   8.500  37.734   8.357
 2313POPC   C3B32085   8.534  37.933   7.954
 2313POPC   C4B32086   8.320  38.088   7.586
 2314POPC   NC332087  11.886  15.778   9.459
 2314POPC   PO432088  12.369  16.195   9.468
 2314POPC   GL132089  12.147  16.076   9.106
 2314POPC   GL232090  11.831  16.206   9.090
 2314POPC   C1A32091  12.112  16.184   8.662
 2314POPC   D2A32092  12.234  15.856   8.374
 2314POPC   C3A32093  12.060  15.869   7.974
 2314POPC   C4A32094  12.244  15.719   7.615
 2314POPC   C1B32095  11.576  16.158   8.746
 2314POPC   C2B32096  11.706  16.029   8.343
 2314POPC   C3B32097  11.576  16.167   7.935
 2314POPC   C4B32098  11.882  16.240   7.630
 2315POPC   NC332099  20.889  10.024   9.387
 2315POPC   PO432100  20.284   9.908   9.510
 2315POPC   GL132101  20.532   9.684   9.203
 2315POPC   GL232102  20.291   9.783   8.980
 2315POPC   C1A32103  20.724   9.571   8.782
 2315POPC   D2A32104  20.530   9.545   8.345
 2315POPC   C3A32105  20.731   9.527   7.942
 2315POPC   C4A32106  20.731   9.650   7.516
 2315POPC   C1B32107  20.343  10.100   8.662
 2315POPC   C2B32108  20.262  10.114   8.225
 2315POPC   C3B32109  20.279   9.826   7.946
 2315POPC   C4B32110  20.283   9.869   7.516
 2316POPC   NC332111   7.585  12.179   9.377
 2316POPC   PO432112   6.954  12.236   9.314
 2316POPC   GL132113   7.276  11.988   9.028
 2316POPC   GL232114   7.555  11.719   9.128
 2316POPC   C1A32115   7.489  12.130   8.658
 2316POPC   D2A32116   7.279  12.456   8.421
 2316POPC   C3A32117   7.232  12.322   8.013
 2316POPC   C4A32118   7.202  12.522   7.629
 2316POPC   C1B32119   7.395  11.581   8.716
 2316POPC   C2B32120   7.462  11.645   8.290
 2316POPC   C3B32121   7.646  11.887   7.994
 2316POPC   C4B32122   7.424  11.994   7.656
 2317POPC   NC332123  43.553  38.300   9.439
 2317POPC   PO432124  44.045  38.724   9.470
 2317POPC   GL132125  44.044  38.576   9.093
 2317POPC   GL232126  43.933  38.238   9.090
 2317POPC   C1A32127  44.161  38.471   8.695
 2317POPC   D2A32128  43.970  38.307   8.374
 2317POPC   C3A32129  44.122  38.476   8.045
 2317POPC   C4A32130  43.889  38.380   7.732
 2317POPC   C1B32131  43.633  38.455   8.770
 2317POPC   C2B32132  43.427  38.437   8.347
 2317POPC   C3B32133  43.428  38.277   7.909
 2317POPC   C4B32134  43.476  38.400   7.450
 2318POPC   NC332135  35.063  42.036   9.467
 2318POPC   PO432136  35.619  42.517   9.562
 2318POPC   GL132137  35.404  42.360   9.227
 2318POPC   GL232138  35.537  42.023   9.225
 2318POPC   C1A32139  35.147  42.281   8.861
 2318POPC   D2A32140  35.241  42.387   8.457
 2318POPC   C3A32141  35.051  42.218   8.098
 2318POPC   C4A32142  35.035  42.429   7.757
 2318POPC   C1B32143  35.662  42.169   8.823
 2318POPC   C2B32144  35.593  41.998   8.438
 2318POPC   C3B32145  35.581  42.251   8.091
 2318POPC   C4B32146  35.426  42.094   7.725
 2319POPC   NC332147   7.833  33.996   9.452
 2319POPC   PO432148   8.387  33.578   9.680
 2319POPC   GL132149   8.240  33.579   9.209
 2319POPC   GL232150   7.916  33.504   9.142
 2319POPC   C1A32151   8.054  33.911   8.831
 2319POPC   D2A32152   8.164  34.241   8.535
 2319POPC   C3A32153   8.164  34.135   8.089
 2319POPC   C4A32154   8.184  33.841   7.753
 2319POPC   C1B32155   8.200  33.446   8.745
 2319POPC   C2B32156   8.191  33.679   8.364
 2319POPC   C3B32157   7.861  33.644   8.083
 2319POPC   C4B32158   7.815  33.410   7.712
 2320POPC   NC332159  20.789  14.924   9.530
 2320POPC   PO432160  20.650  15.621   9.738
 2320POPC   GL132161  20.690  15.365   9.316
 2320POPC   GL232162  20.435  15.160   9.209
 2320POPC   C1A32163  20.848  15.292   8.907
 2320POPC   D2A32164  20.742  15.500   8.519
 2320POPC   C3A32165  20.844  15.449   8.111
 2320POPC   C4A32166  20.720  15.191   7.770
 2320POPC   C1B32167  20.422  15.070   8.742
 2320POPC   C2B32168  20.178  14.782   8.496
 2320POPC   C3B32169  20.349  14.684   8.105
 2320POPC   C4B32170  20.284  14.941   7.739
 2321POPC   NC332171  14.021  38.960   9.329
 2321POPC   PO432172  13.434  39.332   9.505
 2321POPC   GL132173  13.569  39.249   9.102
 2321POPC   GL232174  13.849  39.464   9.060
 2321POPC   C1A32175  13.407  39.056   8.731
 2321POPC   D2A32176  13.525  38.959   8.290
 2321POPC   C3A32177  13.304  39.181   7.925
 2321POPC   C4A32178  13.444  39.509   7.645
 2321POPC   C1B32179  13.689  39.484   8.604
 2321POPC   C2B32180  13.687  39.467   8.123
 2321POPC   C3B32181  13.813  39.159   7.762
 2321POPC   C4B32182  13.713  38.822   7.474
 2322POPC   NC332183  28.309  35.635   9.535
 2322POPC   PO432184  28.168  35.035   9.598
 2322POPC   GL132185  28.252  35.282   9.194
 2322POPC   GL232186  28.575  35.443   9.135
 2322POPC   C1A32187  28.099  35.591   8.872
 2322POPC   D2A32188  28.057  35.424   8.452
 2322POPC   C3A32189  27.986  35.516   8.018
 2322POPC   C4A32190  28.174  35.232   7.727
 2322POPC   C1B32191  28.503  35.337   8.702
 2322POPC   C2B32192  28.524  35.528   8.286
 2322POPC   C3B32193  28.477  35.596   7.893
 2322POPC   C4B32194  28.643  35.359   7.541
 2323POPC   NC332195  41.298  10.004   9.393
 2323POPC   PO432196  41.722   9.503   9.659
 2323POPC   GL132197  41.567   9.581   9.236
 2323POPC   GL232198  41.276   9.589   9.087
 2323POPC   C1A32199  41.689   9.557   8.818
 2323POPC   D2A32200  41.711   9.709   8.444
 2323POPC   C3A32201  41.612   9.483   8.079
 2323POPC   C4A32202  41.415   9.729   7.749
 2323POPC   C1B32203  41.291   9.896   8.742
 2323POPC   C2B32204  41.238   9.884   8.300
 2323POPC   C3B32205  41.094  10.091   7.952
 2323POPC   C4B32206  41.038  10.005   7.512
 2324POPC   NC332207  13.618  33.442   9.457
 2324POPC   PO432208  13.482  34.070   9.345
 2324POPC   GL132209  13.734  33.825   9.127
 2324POPC   GL232210  13.520  33.582   8.997
 2324POPC   C1A32211  13.928  33.862   8.746
 2324POPC   D2A32212  14.004  34.062   8.356
 2324POPC   C3A32213  13.756  33.966   7.968
 2324POPC   C4A32214  13.378  34.084   7.755
 2324POPC   C1B32215  13.444  33.804   8.650
 2324POPC   C2B32216  13.690  33.623   8.340
 2324POPC   C3B32217  13.580  33.384   7.989
 2324POPC   C4B32218  13.292  33.597   7.738
 2325POPC   NC332219  43.601  23.454   9.465
 2325POPC   PO432220  44.036  23.885   9.821
 2325POPC   GL132221  43.921  23.861   9.357
 2325POPC   GL232222  43.575  24.003   9.388
 2325POPC   C1A32223  43.994  23.629   8.901
 2325POPC   D2A32224  44.085  23.384   8.477
 2325POPC   C3A32225  44.033  23.580   8.038
 2325POPC   C4A32226  44.132  23.487   7.602
 2325POPC   C1B32227  43.639  24.002   8.936
 2325POPC   C2B32228  43.808  23.966   8.506
 2325POPC   C3B32229  43.680  23.960   8.069
 2325POPC   C4B32230  43.778  23.867   7.626
 2326POPC   NC332231   3.037  37.098   9.523
 2326POPC   PO432232   2.562  36.716   9.487
 2326POPC   GL132233   2.679  37.002   9.187
 2326POPC   GL232234   2.990  36.798   9.085
 2326POPC   C1A32235   2.553  37.058   8.771
 2326POPC   D2A32236   2.757  37.012   8.367
 2326POPC   C3A32237   2.605  36.726   8.044
 2326POPC   C4A32238   2.357  36.868   7.708
 2326POPC   C1B32239   3.079  37.143   8.807
 2326POPC   C2B32240   3.196  37.244   8.347
 2326POPC   C3B32241   3.005  37.101   7.913
 2326POPC   C4B32242   3.051  36.757   7.583
 2327POPC   NC332243   2.278  16.894   9.511
 2327POPC   PO432244   2.967  16.847   9.450
 2327POPC   GL132245   2.778  16.681   9.100
 2327POPC   GL232246   2.627  17.003   9.083
 2327POPC   C1A32247   2.895  16.569   8.682
 2327POPC   D2A32248   2.968  16.761   8.287
 2327POPC   C3A32249   2.983  16.562   7.860
 2327POPC   C4A32250   3.036  16.760   7.440
 2327POPC   C1B32251   2.454  16.895   8.699
 2327POPC   C2B32252   2.535  17.033   8.290
 2327POPC   C3B32253   2.625  16.924   7.896
 2327POPC   C4B32254   2.260  16.930   7.705
 2328POPC   NC332255   0.719  14.636   9.488
 2328POPC   PO432256   0.098  14.405   9.610
 2328POPC   GL132257   0.381  14.406   9.173
 2328POPC   GL232258   0.549  14.664   9.015
 2328POPC   C1A32259   0.575  14.147   8.838
 2328POPC   D2A32260   0.570  14.197   8.389
 2328POPC   C3A32261   0.560  14.061   7.967
 2328POPC   C4A32262   0.298  14.266   7.668
 2328POPC   C1B32263   0.448  14.630   8.631
 2328POPC   C2B32264   0.321  14.645   8.205
 2328POPC   C3B32265   0.618  14.600   7.881
 2328POPC   C4B32266   0.648  14.521   7.410
 2329POPC   NC332267   2.348   9.598   9.402
 2329POPC   PO432268   3.027   9.551   9.464
 2329POPC   GL132269   2.786   9.738   9.127
 2329POPC   GL232270   2.590  10.055   9.158
 2329POPC   C1A32271   2.820   9.834   8.713
 2329POPC   D2A32272   2.716  10.073   8.400
 2329POPC   C3A32273   2.995   9.876   8.049
 2329POPC   C4A32274   2.887   9.756   7.619
 2329POPC   C1B32275   2.326   9.941   8.792
 2329POPC   C2B32276   2.271   9.773   8.357
 2329POPC   C3B32277   2.494   9.923   7.978
 2329POPC   C4B32278   2.553  10.285   7.769
 2330POPC   NC332279  19.879   7.934   9.335
 2330POPC   PO432280  19.474   8.375   9.494
 2330POPC   GL132281  19.722   8.449   9.145
 2330POPC   GL232282  20.039   8.324   9.036
 2330POPC   C1A32283  19.699   8.624   8.777
 2330POPC   D2A32284  19.672   8.441   8.408
 2330POPC   C3A32285  19.998   8.393   8.109
 2330POPC   C4A32286  19.763   8.487   7.755
 2330POPC   C1B32287  19.791   8.094   8.753
 2330POPC   C2B32288  19.870   7.957   8.404
 2330POPC   C3B32289  19.649   8.058   8.083
 2330POPC   C4B32290  19.692   7.972   7.680
 2331POPC   NC332291   9.871  32.040   9.461
 2331POPC   PO432292   9.413  32.451   9.609
 2331POPC   GL132293   9.576  32.470   9.207
 2331POPC   GL232294   9.224  32.518   9.114
 2331POPC   C1A32295   9.832  32.331   8.843
 2331POPC   D2A32296   9.938  32.520   8.432
 2331POPC   C3A32297   9.974  32.339   8.062
 2331POPC   C4A32298  10.091  32.508   7.642
 2331POPC   C1B32299   9.339  32.108   8.905
 2331POPC   C2B32300   9.562  32.028   8.506
 2331POPC   C3B32301   9.508  32.058   8.056
 2331POPC   C4B32302   9.582  32.402   7.766
 2332POPC   NC332303  30.500   8.040   9.606
 2332POPC   PO432304  31.158   8.257   9.559
 2332POPC   GL132305  30.852   8.348   9.203
 2332POPC   GL232306  30.498   8.274   9.165
 2332POPC   C1A32307  30.780   8.225   8.755
 2332POPC   D2A32308  30.936   8.091   8.354
 2332POPC   C3A32309  30.846   8.260   7.946
 2332POPC   C4A32310  30.817   8.681   7.732
 2332POPC   C1B32311  30.387   7.908   8.897
 2332POPC   C2B32312  30.509   7.850   8.495
 2332POPC   C3B32313  30.438   8.047   8.149
 2332POPC   C4B32314  30.419   8.033   7.716
 2333POPC   NC332315   3.673  28.395   9.601
 2333POPC   PO432316   3.970  27.772   9.429
 2333POPC   GL132317   3.641  28.044   9.199
 2333POPC   GL232318   3.659  28.396   9.113
 2333POPC   C1A32319   3.318  28.102   8.870
 2333POPC   D2A32320   3.284  28.463   8.561
 2333POPC   C3A32321   3.470  28.311   8.176
 2333POPC   C4A32322   3.440  28.313   7.719
 2333POPC   C1B32323   3.764  28.330   8.715
 2333POPC   C2B32324   3.792  28.629   8.401
 2333POPC   C3B32325   3.798  28.666   7.972
 2333POPC   C4B32326   3.928  28.420   7.657
 2334POPC   NC332327  20.137   4.414   9.816
 2334POPC   PO432328  19.861   4.091   9.292
 2334POPC   GL132329  19.653   4.277   8.994
 2334POPC   GL232330  19.613   4.582   9.141
 2334POPC   C1A32331  19.536   4.119   8.607
 2334POPC   D2A32332  19.876   3.944   8.389
 2334POPC   C3A32333  19.884   4.141   8.029
 2334POPC   C4A32334  19.994   4.031   7.640
 2334POPC   C1B32335  19.777   4.788   8.754
 2334POPC   C2B32336  19.942   4.781   8.333
 2334POPC   C3B32337  19.810   4.646   7.936
 2334POPC   C4B32338  19.895   4.535   7.506
 2335POPC   NC332339  41.852  14.046   9.183
 2335POPC   PO432340  41.786  14.658   9.465
 2335POPC   GL132341  41.596  14.514   9.107
 2335POPC   GL232342  41.309  14.327   9.134
 2335POPC   C1A32343  41.559  14.367   8.678
 2335POPC   D2A32344  41.460  14.062   8.369
 2335POPC   C3A32345  41.580  14.217   7.977
 2335POPC   C4A32346  41.749  14.393   7.638
 2335POPC   C1B32347  41.091  14.185   8.748
 2335POPC   C2B32348  40.979  14.235   8.320
 2335POPC   C3B32349  41.126  14.013   7.957
 2335POPC   C4B32350  41.242  14.229   7.549
 2336POPC   NC332351   5.649   9.933   9.527
 2336POPC   PO432352   5.448   9.376   9.280
 2336POPC   GL132353   5.644   9.718   9.041
 2336POPC   GL232354   5.559  10.071   9.051
 2336POPC   C1A32355   5.921   9.753   8.677
 2336POPC   D2A32356   5.860   9.558   8.276
 2336POPC   C3A32357   5.803   9.774   7.907
 2336POPC   C4A32358   5.831   9.853   7.464
 2336POPC   C1B32359   5.778  10.260   8.724
 2336POPC   C2B32360   5.727  10.085   8.326
 2336POPC   C3B32361   5.845  10.267   7.984
 2336POPC   C4B32362   5.910  10.336   7.605
 2337POPC   NC332363  35.657  35.715   9.346
 2337POPC   PO432364  36.295  35.545   9.455
 2337POPC   GL132365  36.192  35.455   9.054
 2337POPC   GL232366  36.291  35.145   9.026
 2337POPC   C1A32367  36.024  35.577   8.651
 2337POPC   D2A32368  36.064  35.884   8.330
 2337POPC   C3A32369  35.850  35.818   7.962
 2337POPC   C4A32370  35.977  35.423   7.755
 2337POPC   C1B32371  36.369  35.169   8.599
 2337POPC   C2B32372  36.315  35.126   8.151
 2337POPC   C3B32373  36.461  35.172   7.724
 2337POPC   C4B32374  36.446  34.905   7.348
 2338POPC   NC332375   4.957   6.188   9.495
 2338POPC   PO432376   5.207   5.603   9.656
 2338POPC   GL132377   5.007   5.718   9.257
 2338POPC   GL232378   4.879   5.998   9.048
 2338POPC   C1A32379   5.095   5.601   8.830
 2338POPC   D2A32380   4.971   5.620   8.408
 2338POPC   C3A32381   5.283   5.604   8.070
 2338POPC   C4A32382   5.328   5.735   7.613
 2338POPC   C1B32383   5.139   6.094   8.701
 2338POPC   C2B32384   5.334   6.057   8.323
 2338POPC   C3B32385   5.191   6.117   7.922
 2338POPC   C4B32386   5.333   6.267   7.529
 2339POPC   NC332387  37.053  44.993   9.547
 2339POPC   PO432388  36.813  44.364   9.519
 2339POPC   GL132389  37.015  44.578   9.235
 2339POPC   GL232390  36.730  44.794   9.187
 2339POPC   C1A32391  37.181  44.504   8.838
 2339POPC   D2A32392  37.286  44.348   8.431
 2339POPC   C3A32393  37.012  44.482   8.086
 2339POPC   C4A32394  36.908  44.381   7.664
 2339POPC   C1B32395  36.665  44.605   8.784
 2339POPC   C2B32396  36.678  44.813   8.380
 2339POPC   C3B32397  36.567  44.776   7.940
 2339POPC   C4B32398  36.596  44.983   7.542
 2340POPC   NC332399  40.907  17.396   9.546
 2340POPC   PO432400  40.286  17.569   9.473
 2340POPC   GL132401  40.552  17.411   9.189
 2340POPC   GL232402  40.799  17.660   9.111
 2340POPC   C1A32403  40.502  17.288   8.800
 2340POPC   D2A32404  40.481  17.546   8.459
 2340POPC   C3A32405  40.507  17.491   8.040
 2340POPC   C4A32406  40.757  17.679   7.725
 2340POPC   C1B32407  40.956  17.481   8.720
 2340POPC   C2B32408  41.027  17.553   8.294
 2340POPC   C3B32409  41.167  17.874   8.005
 2340POPC   C4B32410  41.222  17.758   7.542
 2341POPC   NC332411  36.783  17.565   9.480
 2341POPC   PO432412  37.502  17.425   9.474
 2341POPC   GL132413  37.198  17.613   9.169
 2341POPC   GL232414  37.046  17.310   9.095
 2341POPC   C1A32415  36.905  17.727   8.840
 2341POPC   D2A32416  36.788  17.487   8.496
 2341POPC   C3A32417  36.885  17.576   8.071
 2341POPC   C4A32418  36.868  17.817   7.670
 2341POPC   C1B32419  36.954  17.062   8.726
 2341POPC   C2B32420  37.039  16.890   8.348
 2341POPC   C3B32421  37.091  17.073   7.957
 2341POPC   C4B32422  36.810  17.260   7.678
 2342POPC   NC332423  23.891   0.585   9.592
 2342POPC   PO432424  23.430   0.110   9.597
 2342POPC   GL132425  23.407   0.419   9.248
 2342POPC   GL232426  23.737   0.347   9.114
 2342POPC   C1A32427  23.305   0.364   8.816
 2342POPC   D2A32428  23.663   0.376   8.553
 2342POPC   C3A32429  23.657   0.381   8.115
 2342POPC   C4A32430  23.506   0.314   7.682
 2342POPC   C1B32431  24.014   0.610   8.859
 2342POPC   C2B32432  23.960   0.822   8.459
 2342POPC   C3B32433  24.143   0.739   8.093
 2342POPC   C4B32434  24.012   0.473   7.768
 2343POPC   NC332435  28.030  37.141   9.914
 2343POPC   PO432436  28.411  36.786   9.477
 2343POPC   GL132437  28.425  36.889   9.068
 2343POPC   GL232438  28.172  36.679   9.001
 2343POPC   C1A32439  28.261  37.225   8.745
 2343POPC   D2A32440  28.389  37.438   8.348
 2343POPC   C3A32441  28.593  37.230   7.966
 2343POPC   C4A32442  28.587  36.943   7.615
 2343POPC   C1B32443  28.338  36.766   8.588
 2343POPC   C2B32444  28.259  36.959   8.223
 2343POPC   C3B32445  28.107  36.958   7.812
 2343POPC   C4B32446  28.097  36.727   7.382
 2344POPC   NC332447  38.047  15.421   9.813
 2344POPC   PO432448  37.725  14.866   9.557
 2344POPC   GL132449  37.557  15.015   9.131
 2344POPC   GL232450  37.525  15.349   9.129
 2344POPC   C1A32451  37.711  15.049   8.709
 2344POPC   D2A32452  37.926  15.141   8.303
 2344POPC   C3A32453  37.701  14.978   7.929
 2344POPC   C4A32454  37.448  14.783   7.632
 2344POPC   C1B32455  37.703  15.570   8.751
 2344POPC   C2B32456  37.636  15.552   8.304
 2344POPC   C3B32457  37.837  15.474   7.891
 2344POPC   C4B32458  37.995  15.631   7.495
 2345POPC   NC332459  43.414   0.422   9.488
 2345POPC   PO432460  43.022   0.845   9.877
 2345POPC   GL132461  43.060   0.754   9.385
 2345POPC   GL232462  42.976   0.456   9.247
 2345POPC   C1A32463  43.079   0.779   8.875
 2345POPC   D2A32464  42.940   0.935   8.477
 2345POPC   C3A32465  43.185   0.841   8.134
 2345POPC   C4A32466  43.253   0.650   7.763
 2345POPC   C1B32467  43.020   0.263   8.840
 2345POPC   C2B32468  43.099   0.399   8.402
 2345POPC   C3B32469  43.086   0.166   7.997
 2345POPC   C4B32470  43.182   0.226   7.523
 2346POPC   NC332471  35.940  19.977   9.788
 2346POPC   PO432472  36.372  19.732   9.369
 2346POPC   GL132473  36.022  19.615   9.159
 2346POPC   GL232474  35.805  19.902   9.189
 2346POPC   C1A32475  35.917  19.625   8.731
 2346POPC   D2A32476  35.937  19.696   8.287
 2346POPC   C3A32477  36.287  19.722   8.004
 2346POPC   C4A32478  36.038  19.742   7.631
 2346POPC   C1B32479  35.892  20.133   8.801
 2346POPC   C2B32480  36.018  20.228   8.411
 2346POPC   C3B32481  35.981  20.149   7.991
 2346POPC   C4B32482  36.312  20.154   7.686
 2347POPC   NC332483   7.341  31.923   9.696
 2347POPC   PO432484   7.040  32.310   9.221
 2347POPC   GL132485   7.434  32.267   9.041
 2347POPC   GL232486   7.546  31.900   9.126
 2347POPC   C1A32487   7.350  32.443   8.614
 2347POPC   D2A32488   7.034  32.283   8.310
 2347POPC   C3A32489   7.071  32.428   7.886
 2347POPC   C4A32490   7.301  32.292   7.523
 2347POPC   C1B32491   7.366  31.931   8.673
 2347POPC   C2B32492   7.555  32.088   8.326
 2347POPC   C3B32493   7.526  32.198   7.960
 2347POPC   C4B32494   7.574  31.871   7.728
 2348POPC   NC332495  25.945   2.885   9.361
 2348POPC   PO432496  26.433   2.448   9.498
 2348POPC   GL132497  26.239   2.548   9.117
 2348POPC   GL232498  25.882   2.435   9.144
 2348POPC   C1A32499  26.071   2.750   8.717
 2348POPC   D2A32500  26.264   2.673   8.312
 2348POPC   C3A32501  26.092   2.831   7.943
 2348POPC   C4A32502  26.344   3.086   7.677
 2348POPC   C1B32503  25.974   2.252   8.804
 2348POPC   C2B32504  25.921   2.320   8.420
 2348POPC   C3B32505  25.865   2.368   8.019
 2348POPC   C4B32506  25.820   2.514   7.629
 2349POPC   NC332507   7.082  11.044   9.436
 2349POPC   PO432508   6.584  11.473   9.273
 2349POPC   GL132509   6.848  11.303   9.042
 2349POPC   GL232510   7.077  11.529   9.130
 2349POPC   C1A32511   6.702  11.304   8.651
 2349POPC   D2A32512   6.484  11.235   8.324
 2349POPC   C3A32513   6.667  11.301   7.960
 2349POPC   C4A32514   6.430  11.405   7.637
 2349POPC   C1B32515   6.910  11.756   8.747
 2349POPC   C2B32516   6.920  11.619   8.326
 2349POPC   C3B32517   7.054  11.793   7.958
 2349POPC   C4B32518   6.862  11.626   7.554
 2350POPC   NC332519  27.283  30.052   9.549
 2350POPC   PO432520  27.876  29.735   9.527
 2350POPC   GL132521  27.544  29.735   9.204
 2350POPC   GL232522  27.451  30.057   9.072
 2350POPC   C1A32523  27.496  29.611   8.775
 2350POPC   D2A32524  27.353  29.655   8.339
 2350POPC   C3A32525  27.677  29.708   8.033
 2350POPC   C4A32526  27.666  29.944   7.650
 2350POPC   C1B32527  27.541  30.098   8.656
 2350POPC   C2B32528  27.616  30.215   8.282
 2350POPC   C3B32529  27.560  30.347   7.925
 2350POPC   C4B32530  27.281  30.393   7.636
 2351POPC   NC332531   9.532  28.150   9.462
 2351POPC   PO432532   9.273  28.592   9.867
 2351POPC   GL132533   9.433  28.688   9.340
 2351POPC   GL232534   9.473  28.428   9.056
 2351POPC   C1A32535   9.509  28.885   8.865
 2351POPC   D2A32536   9.402  28.753   8.401
 2351POPC   C3A32537   9.723  28.638   8.067
 2351POPC   C4A32538  10.072  28.778   7.804
 2351POPC   C1B32539   9.443  28.204   8.662
 2351POPC   C2B32540   9.277  28.269   8.239
 2351POPC   C3B32541   9.569  28.168   7.892
 2351POPC   C4B32542   9.953  27.930   7.794
 2352POPC   NC332543  38.197  20.865   9.402
 2352POPC   PO432544  38.372  21.454   9.687
 2352POPC   GL132545  38.481  21.350   9.282
 2352POPC   GL232546  38.796  21.183   9.308
 2352POPC   C1A32547  38.457  21.205   8.855
 2352POPC   D2A32548  38.381  21.417   8.457
 2352POPC   C3A32549  38.307  21.218   8.050
 2352POPC   C4A32550  38.278  21.538   7.750
 2352POPC   C1B32551  38.855  21.516   8.945
 2352POPC   C2B32552  38.893  21.483   8.494
 2352POPC   C3B32553  38.725  21.527   8.066
 2352POPC   C4B32554  38.734  21.269   7.702
 2353POPC   NC332555  36.358  41.031   9.502
 2353POPC   PO432556  35.718  40.773   9.451
 2353POPC   GL132557  35.911  40.737   9.086
 2353POPC   GL232558  35.995  41.093   9.108
 2353POPC   C1A32559  36.315  40.607   8.883
 2353POPC   D2A32560  36.601  40.658   8.518
 2353POPC   C3A32561  36.371  40.617   8.142
 2353POPC   C4A32562  36.400  40.500   7.740
 2353POPC   C1B32563  35.882  41.039   8.678
 2353POPC   C2B32564  36.109  41.055   8.320
 2353POPC   C3B32565  36.535  41.107   8.176
 2353POPC   C4B32566  36.488  41.002   7.755
 2354POPC   NC332567  19.280  18.149   9.524
 2354POPC   PO432568  18.826  18.537   9.459
 2354POPC   GL132569  19.141  18.519   9.165
 2354POPC   GL232570  19.091  18.176   9.068
 2354POPC   C1A32571  19.168  18.589   8.732
 2354POPC   D2A32572  19.180  18.307   8.376
 2354POPC   C3A32573  19.249  18.495   7.964
 2354POPC   C4A32574  19.315  18.185   7.634
 2354POPC   C1B32575  18.760  18.259   8.803
 2354POPC   C2B32576  18.734  18.077   8.416
 2354POPC   C3B32577  18.779  18.253   8.024
 2354POPC   C4B32578  18.776  18.084   7.656
 2355POPC   NC332579  15.445  15.084   9.478
 2355POPC   PO432580  14.779  15.341   9.538
 2355POPC   GL132581  15.045  15.182   9.206
 2355POPC   GL232582  14.915  14.844   9.186
 2355POPC   C1A32583  15.305  15.012   8.798
 2355POPC   D2A32584  15.446  15.055   8.332
 2355POPC   C3A32585  15.184  14.963   7.928
 2355POPC   C4A32586  15.287  15.109   7.482
 2355POPC   C1B32587  14.802  15.127   8.797
 2355POPC   C2B32588  14.948  15.196   8.404
 2355POPC   C3B32589  14.725  15.117   8.052
 2355POPC   C4B32590  14.809  15.204   7.651
 2356POPC   NC332591  25.404  40.863   9.660
 2356POPC   PO432592  24.701  40.815   9.757
 2356POPC   GL132593  24.953  40.851   9.298
 2356POPC   GL232594  25.282  41.005   9.200
 2356POPC   C1A32595  25.147  40.660   8.872
 2356POPC   D2A32596  25.417  40.626   8.480
 2356POPC   C3A32597  25.229  40.743   8.099
 2356POPC   C4A32598  25.089  40.845   7.732
 2356POPC   C1B32599  25.468  41.073   8.797
 2356POPC   C2B32600  25.523  41.134   8.353
 2356POPC   C3B32601  25.683  40.920   8.005
 2356POPC   C4B32602  25.621  40.650   7.671
 2357POPC   NC332603  20.853   8.661   9.384
 2357POPC   PO432604  20.283   8.173   9.462
 2357POPC   GL132605  20.539   8.347   9.134
 2357POPC   GL232606  20.580   8.041   8.988
 2357POPC   C1A32607  20.704   8.528   8.728
 2357POPC   D2A32608  20.573   8.654   8.283
 2357POPC   C3A32609  20.649   8.356   7.906
 2357POPC   C4A32610  20.963   8.011   7.821
 2357POPC   C1B32611  20.257   7.835   8.749
 2357POPC   C2B32612  20.332   7.766   8.308
 2357POPC   C3B32613  20.120   7.931   7.955
 2357POPC   C4B32614  20.215   8.216   7.639
 2358POPC   NC332615  38.283   1.582   9.390
 2358POPC   PO432616  38.381   0.931   9.658
 2358POPC   GL132617  38.340   1.111   9.201
 2358POPC   GL232618  38.647   1.305   9.152
 2358POPC   C1A32619  38.348   1.283   8.734
 2358POPC   D2A32620  38.563   1.066   8.383
 2358POPC   C3A32621  38.535   0.988   7.945
 2358POPC   C4A32622  38.259   1.131   7.623
 2358POPC   C1B32623  38.726   1.643   8.802
 2358POPC   C2B32624  38.762   1.555   8.382
 2358POPC   C3B32625  38.480   1.483   8.082
 2358POPC   C4B32626  38.486   1.603   7.712
 2359POPC   NC332627  29.708  10.953   9.344
 2359POPC   PO432628  29.585  10.297   9.461
 2359POPC   GL132629  29.874  10.408   9.154
 2359POPC   GL232630  30.024  10.726   9.051
 2359POPC   C1A32631  30.091  10.311   8.793
 2359POPC   D2A32632  30.060  10.452   8.434
 2359POPC   C3A32633  30.268  10.489   8.082
 2359POPC   C4A32634  30.047  10.464   7.740
 2359POPC   C1B32635  29.849  10.873   8.650
 2359POPC   C2B32636  29.775  10.785   8.196
 2359POPC   C3B32637  29.823  10.910   7.747
 2359POPC   C4B32638  29.771  10.642   7.354
 2360POPC   NC332639  23.222  42.862   9.505
 2360POPC   PO432640  22.607  43.087   9.605
 2360POPC   GL132641  22.726  43.263   9.215
 2360POPC   GL232642  23.044  43.383   9.315
 2360POPC   C1A32643  22.724  43.364   8.760
 2360POPC   D2A32644  22.864  43.102   8.407
 2360POPC   C3A32645  22.946  43.244   8.002
 2360POPC   C4A32646  22.825  43.131   7.574
 2360POPC   C1B32647  23.149  43.173   8.929
 2360POPC   C2B32648  23.329  43.205   8.564
 2360POPC   C3B32649  23.467  43.111   8.177
 2360POPC   C4B32650  23.394  43.209   7.767
 2361POPC   NC332651   6.619  32.436   9.399
 2361POPC   PO432652   6.760  31.755   9.547
 2361POPC   GL132653   6.580  32.034   9.104
 2361POPC   GL232654   6.331  32.284   9.032
 2361POPC   C1A32655   6.595  32.037   8.637
 2361POPC   D2A32656   6.410  32.038   8.220
 2361POPC   C3A32657   6.738  32.019   7.925
 2361POPC   C4A32658   6.796  32.183   7.527
 2361POPC   C1B32659   6.546  32.537   8.743
 2361POPC   C2B32660   6.681  32.661   8.349
 2361POPC   C3B32661   6.568  32.507   7.996
 2361POPC   C4B32662   6.325  32.297   7.735
 2362POPC   NC332663  26.407  42.863   9.335
 2362POPC   PO432664  27.005  43.051   9.434
 2362POPC   GL132665  26.752  43.179   9.077
 2362POPC   GL232666  27.013  43.426   9.011
 2362POPC   C1A32667  26.608  42.981   8.678
 2362POPC   D2A32668  26.937  42.821   8.360
 2362POPC   C3A32669  26.772  42.823   7.976
 2362POPC   C4A32670  26.626  43.182   7.711
 2362POPC   C1B32671  27.017  43.267   8.606
 2362POPC   C2B32672  26.753  43.286   8.239
 2362POPC   C3B32673  26.882  43.566   7.918
 2362POPC   C4B32674  27.067  43.520   7.536
 2363POPC   NC332675  40.848  32.749   9.584
 2363POPC   PO432676  40.395  33.194   9.527
 2363POPC   GL132677  40.540  33.022   9.145
 2363POPC   GL232678  40.869  32.894   9.090
 2363POPC   C1A32679  40.539  32.956   8.694
 2363POPC   D2A32680  40.858  33.060   8.371
 2363POPC   C3A32681  40.640  33.306   8.095
 2363POPC   C4A32682  40.499  33.073   7.759
 2363POPC   C1B32683  40.966  32.672   8.709
 2363POPC   C2B32684  41.190  32.676   8.313
 2363POPC   C3B32685  41.073  32.845   7.901
 2363POPC   C4B32686  40.864  32.790   7.477
 2364POPC   NC332687  16.884  44.916   9.481
 2364POPC   PO432688  16.646  44.325   9.556
 2364POPC   GL132689  16.513  44.567   9.169
 2364POPC   GL232690  16.525  44.932   9.104
 2364POPC   C1A32691  16.646  44.589   8.717
 2364POPC   D2A32692  16.800  44.646   8.284
 2364POPC   C3A32693  16.585  44.438   7.950
 2364POPC   C4A32694  16.834  44.256   7.600
 2364POPC   C1B32695  16.887   0.052   8.801
 2364POPC   C2B32696  16.860   0.138   8.349
 2364POPC   C3B32697  17.066   0.072   7.972
 2364POPC   C4B32698  16.886  44.776   7.696
 2365POPC   NC332699  29.907   9.949   9.432
 2365POPC   PO432700  29.608   9.297   9.444
 2365POPC   GL132701  29.934   9.504   9.166
 2365POPC   GL232702  30.202   9.264   9.154
 2365POPC   C1A32703  30.054   9.813   8.818
 2365POPC   D2A32704  29.773  10.027   8.515
 2365POPC   C3A32705  29.866  10.104   8.081
 2365POPC   C4A32706  30.248  10.003   7.884
 2365POPC   C1B32707  30.223   9.357   8.731
 2365POPC   C2B32708  29.877   9.510   8.449
 2365POPC   C3B32709  29.857   9.573   8.017
 2365POPC   C4B32710  29.963   9.274   7.714
 2366POPC   NC332711   5.326   5.159   9.621
 2366POPC   PO432712   4.868   4.724   9.409
 2366POPC   GL132713   5.016   5.176   9.204
 2366POPC   GL232714   5.390   5.397   9.196
 2366POPC   C1A32715   4.827   5.186   8.793
 2366POPC   D2A32716   5.019   5.064   8.424
 2366POPC   C3A32717   4.883   5.252   8.054
 2366POPC   C4A32718   4.587   5.226   7.733
 2366POPC   C1B32719   5.410   5.190   8.825
 2366POPC   C2B32720   5.493   5.267   8.415
 2366POPC   C3B32721   5.393   5.066   8.041
 2366POPC   C4B32722   5.219   5.243   7.668
 2367POPC   NC332723  41.765  10.145   9.840
 2367POPC   PO432724  41.615  10.689   9.489
 2367POPC   GL132725  41.538  10.746   9.088
 2367POPC   GL232726  41.500  10.369   9.068
 2367POPC   C1A32727  41.587  10.662   8.662
 2367POPC   D2A32728  41.444  10.371   8.365
 2367POPC   C3A32729  41.704  10.577   8.092
 2367POPC   C4A32730  41.648  10.746   7.690
 2367POPC   C1B32731  41.755  10.147   8.763
 2367POPC   C2B32732  41.921  10.158   8.387
 2367POPC   C3B32733  41.709  10.044   8.040
 2367POPC   C4B32734  41.506  10.257   7.728
 2368POPC   NC332735  40.350  31.153   9.439
 2368POPC   PO432736  41.054  31.096   9.499
 2368POPC   GL132737  41.040  30.861   9.119
 2368POPC   GL232738  40.689  30.753   9.206
 2368POPC   C1A32739  40.901  30.655   8.751
 2368POPC   D2A32740  41.090  30.504   8.408
 2368POPC   C3A32741  40.882  30.433   8.095
 2368POPC   C4A32742  40.899  30.627   7.767
 2368POPC   C1B32743  40.399  30.776   8.843
 2368POPC   C2B32744  40.510  30.642   8.392
 2368POPC   C3B32745  40.425  30.762   7.925
 2368POPC   C4B32746  40.610  31.017   7.572
 2369POPC   NC332747  16.895  14.848   9.534
 2369POPC   PO432748  16.773  15.427   9.647
 2369POPC   GL132749  16.667  15.446   9.212
 2369POPC   GL232750  16.626  15.080   9.121
 2369POPC   C1A32751  16.778  15.471   8.768
 2369POPC   D2A32752  16.991  15.287   8.427
 2369POPC   C3A32753  16.789  15.323   8.043
 2369POPC   C4A32754  16.937  15.500   7.687
 2369POPC   C1B32755  16.807  14.891   8.755
 2369POPC   C2B32756  16.993  14.770   8.364
 2369POPC   C3B32757  16.685  14.825   8.043
 2369POPC   C4B32758  16.527  15.056   7.678
 2370POPC   NC332759  32.283  10.342   9.516
 2370POPC   PO432760  32.504  11.005   9.449
 2370POPC   GL132761  32.273  10.740   9.169
 2370POPC   GL232762  32.357  10.402   9.040
 2370POPC   C1A32763  32.144  10.749   8.736
 2370POPC   D2A32764  32.090  10.964   8.340
 2370POPC   C3A32765  32.247  10.728   7.997
 2370POPC   C4A32766  32.107  10.628   7.581
 2370POPC   C1B32767  32.472  10.219   8.683
 2370POPC   C2B32768  32.438  10.309   8.238
 2370POPC   C3B32769  32.405  10.247   7.792
 2370POPC   C4B32770  32.141  10.135   7.400
 2371POPC   NC332771  43.780  12.288   9.598
 2371POPC   PO432772  44.186  11.808   9.338
 2371POPC   GL132773  43.964  12.088   9.055
 2371POPC   GL232774  43.700  12.262   9.086
 2371POPC   C1A32775  43.870  11.976   8.639
 2371POPC   D2A32776  44.070  11.858   8.261
 2371POPC   C3A32777  43.812  11.974   7.921
 2371POPC   C4A32778  43.404  11.792   8.044
 2371POPC   C1B32779  43.704  12.455   8.706
 2371POPC   C2B32780  43.790  12.361   8.305
 2371POPC   C3B32781  43.588  12.428   7.955
 2371POPC   C4B32782  43.711  12.516   7.578
 2372POPC   NC332783  22.253  32.944   9.700
 2372POPC   PO432784  22.502  33.421   9.248
 2372POPC   GL132785  22.172  33.120   9.094
 2372POPC   GL232786  22.097  32.788   9.228
 2372POPC   C1A32787  22.116  33.054   8.705
 2372POPC   D2A32788  22.228  32.824   8.384
 2372POPC   C3A32789  22.129  33.039   8.010
 2372POPC   C4A32790  22.344  33.057   7.613
 2372POPC   C1B32791  21.868  32.654   8.886
 2372POPC   C2B32792  21.746  32.733   8.509
 2372POPC   C3B32793  21.790  32.657   8.107
 2372POPC   C4B32794  21.971  32.669   7.716
 2373POPC   NC332795   2.722  10.436   9.503
 2373POPC   PO432796   3.246  10.881   9.430
 2373POPC   GL132797   3.060  10.624   9.143
 2373POPC   GL232798   2.740  10.733   9.080
 2373POPC   C1A32799   3.009  10.272   8.876
 2373POPC   D2A32800   3.214  10.145   8.462
 2373POPC   C3A32801   3.005  10.385   8.114
 2373POPC   C4A32802   3.059  10.309   7.693
 2373POPC   C1B32803   2.827  10.680   8.638
 2373POPC   C2B32804   2.556  10.583   8.286
 2373POPC   C3B32805   2.539  10.774   7.877
 2373POPC   C4B32806   2.494  10.688   7.417
 2374POPC   NC332807  44.435  21.176   9.662
 2374POPC   PO432808  44.219  21.778   9.642
 2374POPC   GL132809  44.508  21.699   9.245
 2374POPC   GL232810  44.565  21.352   9.179
 2374POPC   C1A32811  44.559  21.710   8.771
 2374POPC   D2A32812  44.909  21.556   8.437
 2374POPC   C3A32813  44.741  21.510   8.009
 2374POPC   C4A32814  44.580  21.813   7.714
 2374POPC   C1B32815  44.699  21.222   8.755
 2374POPC   C2B32816  44.480  21.125   8.346
 2374POPC   C3B32817  44.438  21.100   7.884
 2374POPC   C4B32818  44.484  20.865   7.474
 2375POPC   NC332819  34.792  28.737   9.564
 2375POPC   PO432820  34.599  29.370   9.523
 2375POPC   GL132821  34.567  29.183   9.174
 2375POPC   GL232822  34.715  29.443   8.970
 2375POPC   C1A32823  34.718  28.955   8.838
 2375POPC   D2A32824  34.528  28.912   8.456
 2375POPC   C3A32825  34.720  29.090   8.098
 2375POPC   C4A32826  34.838  29.137   7.665
 2375POPC   C1B32827  34.690  29.393   8.561
 2375POPC   C2B32828  34.377  29.412   8.273
 2375POPC   C3B32829  34.397  29.395   7.838
 2375POPC   C4B32830  34.358  29.287   7.387
 2376POPC   NC332831  21.086  35.737   9.523
 2376POPC   PO432832  20.997  35.104   9.731
 2376POPC   GL132833  21.085  35.266   9.255
 2376POPC   GL232834  21.362  35.527   9.139
 2376POPC   C1A32835  21.140  35.224   8.773
 2376POPC   D2A32836  21.453  35.277   8.433
 2376POPC   C3A32837  21.265  35.328   8.045
 2376POPC   C4A32838  21.086  35.407   7.659
 2376POPC   C1B32839  21.586  35.672   8.751
 2376POPC   C2B32840  21.755  35.799   8.332
 2376POPC   C3B32841  21.613  35.687   7.915
 2376POPC   C4B32842  21.463  35.813   7.508
 2377POPC   NC332843   5.068  30.101   9.614
 2377POPC   PO432844   4.660  29.643   9.257
 2377POPC   GL132845   5.079  29.769   9.019
 2377POPC   GL232846   5.195  30.081   9.116
 2377POPC   C1A32847   5.229  29.737   8.591
 2377POPC   D2A32848   4.939  30.004   8.330
 2377POPC   C3A32849   4.870  29.952   7.877
 2377POPC   C4A32850   4.765  29.867   7.413
 2377POPC   C1B32851   5.307  30.222   8.726
 2377POPC   C2B32852   5.439  30.119   8.290
 2377POPC   C3B32853   5.297  30.306   7.910
 2377POPC   C4B32854   5.186  30.123   7.511
 2378POPC   NC332855  22.847  18.572   9.492
 2378POPC   PO432856  22.438  18.115   9.707
 2378POPC   GL132857  22.574  18.168   9.268
 2378POPC   GL232858  22.944  18.225   9.150
 2378POPC   C1A32859  22.570  18.153   8.810
 2378POPC   D2A32860  22.689  17.959   8.413
 2378POPC   C3A32861  22.736  18.172   8.012
 2378POPC   C4A32862  22.548  18.080   7.625
 2378POPC   C1B32863  23.165  18.381   8.776
 2378POPC   C2B32864  23.315  18.468   8.334
 2378POPC   C3B32865  23.113  18.545   7.923
 2378POPC   C4B32866  22.994  18.283   7.568
 2379POPC   NC332867  42.239  12.693   9.587
 2379POPC   PO432868  42.641  12.151   9.681
 2379POPC   GL132869  42.531  12.425   9.214
 2379POPC   GL232870  42.362  12.769   9.108
 2379POPC   C1A32871  42.525  12.557   8.696
 2379POPC   D2A32872  42.763  12.708   8.289
 2379POPC   C3A32873  42.535  12.758   7.917
 2379POPC   C4A32874  42.169  12.514   7.829
 2379POPC   C1B32875  42.227  12.990   8.705
 2379POPC   C2B32876  42.129  12.927   8.235
 2379POPC   C3B32877  42.081  13.017   7.761
 2379POPC   C4B32878  42.091  13.093   7.310
 2380POPC   NC332879  42.953   3.933   9.386
 2380POPC   PO432880  43.395   4.272   9.667
 2380POPC   GL132881  43.155   4.387   9.283
 2380POPC   GL232882  43.177   4.697   9.238
 2380POPC   C1A32883  43.146   4.269   8.819
 2380POPC   D2A32884  43.370   4.105   8.443
 2380POPC   C3A32885  43.190   4.114   7.996
 2380POPC   C4A32886  42.929   4.375   7.736
 2380POPC   C1B32887  43.079   4.775   8.778
 2380POPC   C2B32888  43.040   4.594   8.341
 2380POPC   C3B32889  43.155   4.782   7.923
 2380POPC   C4B32890  43.121   4.751   7.447
 2381POPC   NC332891  13.289  27.491   9.684
 2381POPC   PO432892  13.835  27.853   9.549
 2381POPC   GL132893  13.658  27.759   9.161
 2381POPC   GL232894  13.317  27.767   9.238
 2381POPC   C1A32895  13.807  27.578   8.772
 2381POPC   D2A32896  13.829  27.722   8.373
 2381POPC   C3A32897  13.644  27.575   8.019
 2381POPC   C4A32898  13.905  27.558   7.704
 2381POPC   C1B32899  13.303  27.519   8.858
 2381POPC   C2B32900  13.330  27.462   8.420
 2381POPC   C3B32901  13.243  27.263   8.010
 2381POPC   C4B32902  13.225  27.526   7.643
 2382POPC   NC332903  32.834  11.110   9.769
 2382POPC   PO432904  33.158  11.472   9.299
 2382POPC   GL132905  33.323  11.259   9.000
 2382POPC   GL232906  33.423  10.934   9.080
 2382POPC   C1A32907  33.084  11.286   8.638
 2382POPC   D2A32908  33.092  11.559   8.321
 2382POPC   C3A32909  33.112  11.415   7.911
 2382POPC   C4A32910  32.894  11.076   7.792
 2382POPC   C1B32911  33.534  11.023   8.617
 2382POPC   C2B32912  33.282  11.035   8.246
 2382POPC   C3B32913  33.240  10.753   7.955
 2382POPC   C4B32914  33.228  10.779   7.522
 2383POPC   NC332915   4.733  39.291   9.312
 2383POPC   PO432916   5.281  38.867   9.448
 2383POPC   GL132917   5.146  38.915   9.075
 2383POPC   GL232918   5.205  39.260   9.072
 2383POPC   C1A32919   5.142  39.016   8.638
 2383POPC   D2A32920   4.941  39.132   8.284
 2383POPC   C3A32921   5.115  39.036   7.931
 2383POPC   C4A32922   5.185  39.090   7.481
 2383POPC   C1B32923   5.135  39.543   8.728
 2383POPC   C2B32924   4.973  39.642   8.324
 2383POPC   C3B32925   5.036  39.557   7.900
 2383POPC   C4B32926   4.934  39.773   7.518
 2384POPC   NC332927  16.993  40.811   9.447
 2384POPC   PO432928  16.402  41.089   9.558
 2384POPC   GL132929  16.633  41.032   9.167
 2384POPC   GL232930  16.600  40.697   9.057
 2384POPC   C1A32931  16.905  41.058   8.786
 2384POPC   D2A32932  16.992  40.843   8.414
 2384POPC   C3A32933  16.918  41.035   8.032
 2384POPC   C4A32934  16.607  40.892   7.781
 2384POPC   C1B32935  16.400  40.402   8.744
 2384POPC   C2B32936  16.423  40.466   8.286
 2384POPC   C3B32937  16.805  40.519   8.060
 2384POPC   C4B32938  17.099  40.627   7.734
 2385POPC   NC332939  36.359  37.835   9.646
 2385POPC   PO432940  35.943  37.328   9.499
 2385POPC   GL132941  36.001  37.522   9.098
 2385POPC   GL232942  35.953  37.877   9.143
 2385POPC   C1A32943  35.986  37.603   8.649
 2385POPC   D2A32944  35.955  37.808   8.308
 2385POPC   C3A32945  36.064  37.609   7.918
 2385POPC   C4A32946  36.124  37.452   7.472
 2385POPC   C1B32947  36.251  38.003   8.794
 2385POPC   C2B32948  36.447  37.945   8.384
 2385POPC   C3B32949  36.283  38.064   7.962
 2385POPC   C4B32950  36.351  37.904   7.542
 2386POPC   NC332951  28.145   4.368   9.586
 2386POPC   PO432952  28.790   4.241   9.303
 2386POPC   GL132953  28.668   4.451   9.005
 2386POPC   GL232954  28.318   4.483   9.137
 2386POPC   C1A32955  28.667   4.182   8.630
 2386POPC   D2A32956  28.311   4.031   8.431
 2386POPC   C3A32957  28.268   4.233   8.041
 2386POPC   C4A32958  28.003   4.091   7.743
 2386POPC   C1B32959  28.249   4.437   8.744
 2386POPC   C2B32960  28.195   4.584   8.393
 2386POPC   C3B32961  27.872   4.597   8.109
 2386POPC   C4B32962  28.018   4.589   7.712
 2387POPC   NC332963  12.490  12.648   9.434
 2387POPC   PO432964  11.980  13.093   9.524
 2387POPC   GL132965  11.935  12.880   9.157
 2387POPC   GL232966  11.934  12.505   9.161
 2387POPC   C1A32967  11.793  12.971   8.781
 2387POPC   D2A32968  11.730  12.895   8.365
 2387POPC   C3A32969  11.967  13.164   8.125
 2387POPC   C4A32970  12.221  12.922   7.883
 2387POPC   C1B32971  12.153  12.605   8.774
 2387POPC   C2B32972  12.307  12.558   8.367
 2387POPC   C3B32973  12.296  12.432   7.952
 2387POPC   C4B32974  12.535  12.596   7.602
 2388POPC   NC332975  14.001  41.415   9.473
 2388POPC   PO432976  14.656  41.626   9.323
 2388POPC   GL132977  14.423  41.466   9.024
 2388POPC   GL232978  14.398  41.144   9.019
 2388POPC   C1A32979  14.570  41.409   8.609
 2388POPC   D2A32980  14.714  41.694   8.359
 2388POPC   C3A32981  14.397  41.741   8.106
 2388POPC   C4A32982  14.489  41.594   7.729
 2388POPC   C1B32983  14.102  41.224   8.651
 2388POPC   C2B32984  14.186  41.252   8.220
 2388POPC   C3B32985  14.074  41.279   7.799
 2388POPC   C4B32986  14.174  41.038   7.444
 2389POPC   NC332987  37.915  12.680   9.085
 2389POPC   PO432988  37.473  12.343   9.442
 2389POPC   GL132989  37.705  12.216   9.036
 2389POPC   GL232990  38.021  11.980   9.071
 2389POPC   C1A32991  37.611  12.039   8.624
 2389POPC   D2A32992  37.854  12.072   8.208
 2389POPC   C3A32993  37.594  12.138   7.858
 2389POPC   C4A32994  37.264  11.918   7.698
 2389POPC   C1B32995  38.112  12.166   8.665
 2389POPC   C2B32996  38.175  12.478   8.330
 2389POPC   C3B32997  37.997  12.488   7.906
 2389POPC   C4B32998  37.967  12.230   7.543
 2390POPC   NC332999  21.360  27.310   9.599
 2390POPC   PO433000  21.159  27.869   9.319
 2390POPC   GL133001  21.467  27.589   9.089
 2390POPC   GL233002  21.616  27.244   9.154
 2390POPC   C1A33003  21.618  27.740   8.693
 2390POPC   D2A33004  21.397  27.893   8.328
 2390POPC   C3A33005  21.226  27.621   8.047
 2390POPC   C4A33006  21.226  27.686   7.636
 2390POPC   C1B33007  21.717  27.226   8.705
 2390POPC   C2B33008  21.713  27.424   8.269
 2390POPC   C3B33009  21.570  27.301   7.820
 2390POPC   C4B33010  21.674  27.027   7.438
 2391POPC   NC333011  33.121  16.356   9.820
 2391POPC   PO433012  33.296  15.778   9.529
 2391POPC   GL133013  33.131  15.774   9.116
 2391POPC   GL233014  32.836  16.005   9.064
 2391POPC   C1A33015  33.209  15.906   8.707
 2391POPC   D2A33016  33.118  15.671   8.328
 2391POPC   C3A33017  33.091  15.923   7.976
 2391POPC   C4A33018  33.286  16.260   7.784
 2391POPC   C1B33019  32.726  15.763   8.712
 2391POPC   C2B33020  32.590  15.843   8.276
 2391POPC   C3B33021  32.599  15.928   7.828
 2391POPC   C4B33022  32.898  15.760   7.520
 2392POPC   NC333023  16.671  31.305   9.424
 2392POPC   PO433024  17.211  31.473   9.624
 2392POPC   GL133025  17.080  31.473   9.151
 2392POPC   GL233026  16.798  31.693   9.091
 2392POPC   C1A33027  17.043  31.607   8.674
 2392POPC   D2A33028  16.834  31.727   8.242
 2392POPC   C3A33029  16.955  31.428   7.876
 2392POPC   C4A33030  16.828  31.080   7.558
 2392POPC   C1B33031  16.523  31.796   8.764
 2392POPC   C2B33032  16.317  31.733   8.353
 2392POPC   C3B33033  16.413  31.651   7.931
 2392POPC   C4B33034  16.736  31.851   7.711
 2393POPC   NC333035  44.669  28.789   9.447
 2393POPC   PO433036  44.799  29.498   9.251
 2393POPC   GL133037  44.624  29.159   9.087
 2393POPC   GL233038  44.950  29.037   9.044
 2393POPC   C1A33039  44.431  29.027   8.701
 2393POPC   D2A33040  44.176  28.983   8.321
 2393POPC   C3A33041  44.397  29.117   7.922
 2393POPC   C4A33042  44.397  29.035   7.484
 2393POPC   C1B33043  44.924  29.254   8.657
 2393POPC   C2B33044  44.814  29.251   8.222
 2393POPC   C3B33045  44.912  29.303   7.785
 2393POPC   C4B33046   0.282  29.303   7.518
 2394POPC   NC333047  42.649  13.490   9.432
 2394POPC   PO433048  42.150  13.934   9.520
 2394POPC   GL133049  42.228  13.657   9.167
 2394POPC   GL233050  42.268  13.275   9.172
 2394POPC   C1A33051  42.173  13.582   8.733
 2394POPC   D2A33052  42.437  13.719   8.354
 2394POPC   C3A33053  42.242  13.983   7.994
 2394POPC   C4A33054  42.275  14.022   7.528
 2394POPC   C1B33055  42.596  13.336   8.820
 2394POPC   C2B33056  42.602  13.222   8.391
 2394POPC   C3B33057  42.405  13.322   8.017
 2394POPC   C4B33058  42.150  13.533   7.714
 2395POPC   NC333059   1.638  31.045   9.349
 2395POPC   PO433060   2.226  30.566   9.456
 2395POPC   GL133061   1.981  30.717   9.138
 2395POPC   GL233062   2.301  30.733   8.976
 2395POPC   C1A33063   1.825  30.686   8.711
 2395POPC   D2A33064   2.056  30.480   8.355
 2395POPC   C3A33065   1.901  30.606   7.955
 2395POPC   C4A33066   1.534  30.729   7.726
 2395POPC   C1B33067   2.295  30.860   8.575
 2395POPC   C2B33068   1.937  30.991   8.296
 2395POPC   C3B33069   1.844  31.106   7.889
 2395POPC   C4B33070   2.135  31.016   7.666
 2396POPC   NC333071  10.427   9.703   9.984
 2396POPC   PO433072  10.498   9.688   9.362
 2396POPC   GL133073  10.470   9.792   9.011
 2396POPC   GL233074  10.756   9.963   9.006
 2396POPC   C1A33075  10.646   9.521   8.728
 2396POPC   D2A33076  10.835   9.356   8.392
 2396POPC   C3A33077  10.558   9.516   8.110
 2396POPC   C4A33078  10.380   9.621   7.743
 2396POPC   C1B33079  10.883  10.131   8.696
 2396POPC   C2B33080  10.866   9.886   8.386
 2396POPC   C3B33081  10.781   9.964   8.013
 2396POPC   C4B33082  10.789   9.936   7.601
 2397POPC   NC333083   3.004   7.329   9.687
 2397POPC   PO433084   2.409   7.276   9.356
 2397POPC   GL133085   2.705   7.551   9.175
 2397POPC   GL233086   2.844   7.246   9.062
 2397POPC   C1A33087   2.802   7.639   8.727
 2397POPC   D2A33088   2.562   7.553   8.321
 2397POPC   C3A33089   2.780   7.502   7.907
 2397POPC   C4A33090   2.802   7.688   7.473
 2397POPC   C1B33091   2.559   7.186   8.690
 2397POPC   C2B33092   2.694   7.034   8.269
 2397POPC   C3B33093   2.660   6.968   7.832
 2397POPC   C4B33094   2.723   7.183   7.451
 2398POPC   NC333095   1.582  44.635   9.623
 2398POPC   PO433096   1.019  44.890   9.351
 2398POPC   GL133097   1.294  44.989   9.027
 2398POPC   GL233098   1.566  44.837   9.149
 2398POPC   C1A33099   1.268  44.791   8.628
 2398POPC   D2A33100   1.223  44.396   8.371
 2398POPC   C3A33101   1.014  44.440   7.976
 2398POPC   C4A33102   1.009  44.881   7.868
 2398POPC   C1B33103   1.755  44.637   8.820
 2398POPC   C2B33104   1.704  44.700   8.391
 2398POPC   C3B33105   1.474  44.704   8.035
 2398POPC   C4B33106   1.494  44.316   7.812
 2399POPC   NC333107  21.167  31.441   9.535
 2399POPC   PO433108  21.692  31.214   9.185
 2399POPC   GL133109  21.324  31.488   9.055
 2399POPC   GL233110  21.280  31.870   9.085
 2399POPC   C1A33111  21.196  31.604   8.640
 2399POPC   D2A33112  21.214  31.586   8.211
 2399POPC   C3A33113  21.210  31.184   7.995
 2399POPC   C4A33114  21.217  31.395   7.619
 2399POPC   C1B33115  21.674  31.742   8.810
 2399POPC   C2B33116  21.717  31.662   8.359
 2399POPC   C3B33117  21.588  31.775   7.896
 2399POPC   C4B33118  21.743  31.908   7.465
 2400POPC   NC333119  43.020  23.177   9.484
 2400POPC   PO433120  42.939  22.503   9.520
 2400POPC   GL133121  43.094  22.746   9.207
 2400POPC   GL233122  42.776  22.872   9.134
 2400POPC   C1A33123  43.189  22.935   8.819
 2400POPC   D2A33124  43.156  23.193   8.464
 2400POPC   C3A33125  43.283  22.983   8.078
 2400POPC   C4A33126  43.122  23.232   7.779
 2400POPC   C1B33127  42.679  23.040   8.750
 2400POPC   C2B33128  42.754  22.869   8.355
 2400POPC   C3B33129  42.801  22.858   7.922
 2400POPC   C4B33130  42.998  22.707   7.576
 2401POPC   NC333131   8.336  32.373   9.470
 2401POPC   PO433132   7.666  32.211   9.522
 2401POPC   GL133133   7.899  32.451   9.165
 2401POPC   GL233134   8.006  32.160   9.124
 2401POPC   C1A33135   8.255  32.422   8.786
 2401POPC   D2A33136   8.544  32.277   8.451
 2401POPC   C3A33137   8.515  32.387   7.963
 2401POPC   C4A33138   8.442  32.625   7.536
 2401POPC   C1B33139   7.858  32.089   8.737
 2401POPC   C2B33140   8.062  32.153   8.337
 2401POPC   C3B33141   8.020  32.138   7.906
 2401POPC   C4B33142   7.827  32.263   7.507
 2402POPC   NC333143   5.160  20.925   9.500
 2402POPC   PO433144   4.950  20.323   9.462
 2402POPC   GL133145   5.025  20.593   9.065
 2402POPC   GL233146   5.313  20.798   9.040
 2402POPC   C1A33147   5.001  20.778   8.606
 2402POPC   D2A33148   4.924  20.880   8.130
 2402POPC   C3A33149   4.877  20.618   7.739
 2402POPC   C4A33150   4.931  20.741   7.295
 2402POPC   C1B33151   5.542  20.801   8.664
 2402POPC   C2B33152   5.415  20.906   8.274
 2402POPC   C3B33153   5.565  20.944   7.846
 2402POPC   C4B33154   5.455  20.773   7.428
 2403POPC   NC333155  12.101  19.499   9.370
 2403POPC   PO433156  12.178  20.176   9.444
 2403POPC   GL133157  12.115  19.975   9.054
 2403POPC   GL233158  12.365  19.782   9.059
 2403POPC   C1A33159  11.980  19.805   8.658
 2403POPC   D2A33160  11.788  19.506   8.345
 2403POPC   C3A33161  11.616  19.701   7.969
 2403POPC   C4A33162  11.788  19.982   7.677
 2403POPC   C1B33163  12.491  19.635   8.691
 2403POPC   C2B33164  12.369  19.777   8.321
 2403POPC   C3B33165  12.044  19.998   8.152
 2403POPC   C4B33166  12.324  19.988   7.829
 2404POPC   NC333167   1.487   0.956   9.414
 2404POPC   PO433168   1.152   1.509   9.525
 2404POPC   GL133169   1.135   1.312   9.178
 2404POPC   GL233170   1.467   1.404   9.124
 2404POPC   C1A33171   1.103   1.529   8.782
 2404POPC   D2A33172   1.370   1.556   8.419
 2404POPC   C3A33173   1.150   1.357   8.078
 2404POPC   C4A33174   1.003   1.490   7.676
 2404POPC   C1B33175   1.399   1.113   8.769
 2404POPC   C2B33176   1.479   1.035   8.345
 2404POPC   C3B33177   1.322   0.882   7.971
 2404POPC   C4B33178   1.373   1.150   7.626
 2405POPC   NC333179  28.026  23.015   9.521
 2405POPC   PO433180  27.731  23.712   9.416
 2405POPC   GL133181  27.636  23.773   9.054
 2405POPC   GL233182  27.861  24.079   8.970
 2405POPC   C1A33183  27.466  23.552   8.698
 2405POPC   D2A33184  27.336  23.286   8.398
 2405POPC   C3A33185  27.500  23.435   8.029
 2405POPC   C4A33186  27.669  23.501   7.635
 2405POPC   C1B33187  27.495  24.052   8.682
 2405POPC   C2B33188  27.387  23.893   8.274
 2405POPC   C3B33189  27.636  23.927   7.890
 2405POPC   C4B33190  27.786  23.971   7.447
 2406POPC   NC333191  30.499   0.597   9.489
 2406POPC   PO433192  30.740  44.915   9.477
 2406POPC   GL133193  30.780   0.267   9.159
 2406POPC   GL233194  30.457   0.377   9.047
 2406POPC   C1A33195  30.901   0.519   8.773
 2406POPC   D2A33196  31.070   0.690   8.360
 2406POPC   C3A33197  30.894   0.459   8.011
 2406POPC   C4A33198  30.517   0.391   7.767
 2406POPC   C1B33199  30.430   0.754   8.821
 2406POPC   C2B33200  30.555   0.740   8.403
 2406POPC   C3B33201  30.580   0.859   8.000
 2406POPC   C4B33202  30.263   0.845   7.717
 2407POPC   NC333203  32.991  21.942   9.472
 2407POPC   PO433204  33.290  22.649   9.365
 2407POPC   GL133205  33.059  22.276   9.088
 2407POPC   GL233206  33.129  21.893   8.997
 2407POPC   C1A33207  32.864  22.278   8.661
 2407POPC   D2A33208  32.887  22.584   8.299
 2407POPC   C3A33209  32.825  22.338   7.930
 2407POPC   C4A33210  33.003  22.109   7.577
 2407POPC   C1B33211  32.681  21.858   8.886
 2407POPC   C2B33212  32.491  21.834   8.470
 2407POPC   C3B33213  32.428  21.897   8.026
 2407POPC   C4B33214  32.584  21.826   7.606
 2408POPC   NC333215  21.727  16.658   9.537
 2408POPC   PO433216  22.332  16.406   9.561
 2408POPC   GL133217  22.357  16.553   9.133
 2408POPC   GL233218  22.276  16.921   9.067
 2408POPC   C1A33219  22.381  16.585   8.694
 2408POPC   D2A33220  22.146  16.450   8.359
 2408POPC   C3A33221  22.154  16.687   7.980
 2408POPC   C4A33222  21.978  16.438   7.649
 2408POPC   C1B33223  21.927  16.749   8.864
 2408POPC   C2B33224  21.849  16.870   8.463
 2408POPC   C3B33225  21.786  17.091   8.101
 2408POPC   C4B33226  21.760  16.965   7.709
 2409POPC   NC333227   0.511  13.042   9.473
 2409POPC   PO433228   0.543  12.473   9.398
 2409POPC   GL133229   0.380  12.684   9.110
 2409POPC   GL233230   0.055  12.570   9.165
 2409POPC   C1A33231   0.548  12.859   8.747
 2409POPC   D2A33232   0.506  12.652   8.369
 2409POPC   C3A33233   0.580  12.855   7.970
 2409POPC   C4A33234   0.686  12.596   7.589
 2409POPC   C1B33235   0.017  12.849   8.781
 2409POPC   C2B33236   0.184  13.063   8.424
 2409POPC   C3B33237   0.086  12.856   8.061
 2409POPC   C4B33238  44.884  12.932   7.717
 2410POPC   NC333239  21.621   4.427   9.344
 2410POPC   PO433240  21.292   3.849   9.418
 2410POPC   GL133241  21.183   4.242   9.143
 2410POPC   GL233242  21.065   4.574   9.314
 2410POPC   C1A33243  21.246   4.273   8.677
 2410POPC   D2A33244  21.137   3.938   8.344
 2410POPC   C3A33245  21.148   4.009   7.880
 2410POPC   C4A33246  21.526   4.128   7.656
 2410POPC   C1B33247  21.161   4.744   8.905
 2410POPC   C2B33248  21.028   4.745   8.498
 2410POPC   C3B33249  21.165   4.805   8.082
 2410POPC   C4B33250  21.232   4.533   7.747
 2411POPC   NC333251   3.378   5.635   9.589
 2411POPC   PO433252   3.790   6.135   9.290
 2411POPC   GL133253   3.469   6.107   9.040
 2411POPC   GL233254   3.451   5.767   9.114
 2411POPC   C1A33255   3.541   6.124   8.613
 2411POPC   D2A33256   3.438   6.186   8.230
 2411POPC   C3A33257   3.721   6.159   7.916
 2411POPC   C4A33258   3.617   5.937   7.556
 2411POPC   C1B33259   3.688   5.672   8.759
 2411POPC   C2B33260   3.804   5.736   8.343
 2411POPC   C3B33261   3.535   5.675   8.029
 2411POPC   C4B33262   3.584   5.446   7.659
 2412POPC   NC333263  36.922  31.777   9.762
 2412POPC   PO433264  37.190  32.414   9.529
 2412POPC   GL133265  37.052  32.229   9.185
 2412POPC   GL233266  37.344  32.005   9.149
 2412POPC   C1A33267  36.845  32.406   8.824
 2412POPC   D2A33268  36.692  32.696   8.504
 2412POPC   C3A33269  36.740  32.447   8.122
 2412POPC   C4A33270  36.858  32.312   7.730
 2412POPC   C1B33271  37.147  31.966   8.742
 2412POPC   C2B33272  36.795  32.016   8.474
 2412POPC   C3B33273  36.979  31.980   8.109
 2412POPC   C4B33274  37.161  31.906   7.747
 2413POPC   NC333275  17.382  35.338   9.691
 2413POPC   PO433276  17.751  35.804   9.325
 2413POPC   GL133277  17.467  35.543   9.207
 2413POPC   GL233278  17.683  35.255   9.263
 2413POPC   C1A33279  17.346  35.498   8.775
 2413POPC   D2A33280  17.618  35.656   8.456
 2413POPC   C3A33281  17.602  35.623   8.001
 2413POPC   C4A33282  17.297  35.631   7.666
 2413POPC   C1B33283  17.697  35.047   8.857
 2413POPC   C2B33284  17.504  34.961   8.444
 2413POPC   C3B33285  17.523  35.105   8.013
 2413POPC   C4B33286  17.901  35.242   7.793
 2414POPC   NC333287  30.976  44.482   9.483
 2414POPC   PO433288  30.353  44.219   9.566
 2414POPC   GL133289  30.533  44.360   9.178
 2414POPC   GL233290  30.745  44.630   9.063
 2414POPC   C1A33291  30.415  44.458   8.762
 2414POPC   D2A33292  30.575  44.676   8.392
 2414POPC   C3A33293  30.564  44.453   7.987
 2414POPC   C4A33294  30.456  44.406   7.562
 2414POPC   C1B33295  30.573  44.964   8.805
 2414POPC   C2B33296  30.660   0.200   8.420
 2414POPC   C3B33297  30.680  44.992   8.018
 2414POPC   C4B33298  30.360  44.902   7.740
 2415POPC   NC333299  28.800  22.904   9.466
 2415POPC   PO433300  28.236  22.571   9.542
 2415POPC   GL133301  28.424  22.643   9.199
 2415POPC   GL233302  28.377  22.966   9.124
 2415POPC   C1A33303  28.338  22.603   8.767
 2415POPC   D2A33304  28.306  22.874   8.430
 2415POPC   C3A33305  28.354  22.681   8.037
 2415POPC   C4A33306  28.364  22.765   7.614
 2415POPC   C1B33307  28.398  23.235   8.784
 2415POPC   C2B33308  28.281  23.402   8.394
 2415POPC   C3B33309  28.329  23.196   8.024
 2415POPC   C4B33310  28.585  23.205   7.700
 2416POPC   NC333311   1.285   2.610   9.625
 2416POPC   PO433312   1.248   3.142   9.337
 2416POPC   GL133313   1.101   2.986   9.001
 2416POPC   GL233314   0.889   2.702   9.106
 2416POPC   C1A33315   1.357   2.965   8.647
 2416POPC   D2A33316   1.534   2.832   8.301
 2416POPC   C3A33317   1.356   2.861   7.896
 2416POPC   C4A33318   1.200   3.170   7.623
 2416POPC   C1B33319   1.082   2.547   8.719
 2416POPC   C2B33320   1.038   2.743   8.321
 2416POPC   C3B33321   0.869   2.671   7.950
 2416POPC   C4B33322   0.947   2.686   7.550
 2417POPC   NC333323  20.884  28.186   9.519
 2417POPC   PO433324  20.318  28.104   9.654
 2417POPC   GL133325  20.517  28.334   9.211
 2417POPC   GL233326  20.764  28.097   9.037
 2417POPC   C1A33327  20.696  28.543   8.798
 2417POPC   D2A33328  20.757  28.449   8.354
 2417POPC   C3A33329  20.400  28.601   8.144
 2417POPC   C4A33330  20.247  28.697   7.727
 2417POPC   C1B33331  20.570  28.056   8.633
 2417POPC   C2B33332  20.611  27.978   8.176
 2417POPC   C3B33333  20.748  27.883   7.753
 2417POPC   C4B33334  21.017  28.121   7.487
 2418POPC   NC333335  31.244  40.218   9.359
 2418POPC   PO433336  31.846  39.782   9.453
 2418POPC   GL133337  31.533  39.872   9.146
 2418POPC   GL233338  31.650  40.145   9.055
 2418POPC   C1A33339  31.258  39.988   8.739
 2418POPC   D2A33340  30.984  39.905   8.342
 2418POPC   C3A33341  31.162  40.085   7.948
 2418POPC   C4A33342  31.546  40.028   7.742
 2418POPC   C1B33343  31.713  40.302   8.680
 2418POPC   C2B33344  31.782  40.170   8.237
 2418POPC   C3B33345  31.925  40.343   7.852
 2418POPC   C4B33346  31.760  40.449   7.437
 2419POPC   NC333347  40.670  13.049   9.414
 2419POPC   PO433348  41.076  12.559   9.532
 2419POPC   GL133349  41.011  12.796   9.140
 2419POPC   GL233350  41.067  13.197   9.124
 2419POPC   C1A33351  40.807  12.741   8.747
 2419POPC   D2A33352  41.012  12.620   8.378
 2419POPC   C3A33353  40.779  12.791   8.079
 2419POPC   C4A33354  40.553  12.711   7.718
 2419POPC   C1B33355  40.754  13.266   8.801
 2419POPC   C2B33356  40.724  13.213   8.373
 2419POPC   C3B33357  40.445  13.190   8.032
 2419POPC   C4B33358  40.460  13.248   7.600
 2420POPC   NC333359  19.159  23.939   9.535
 2420POPC   PO433360  19.174  23.341   9.724
 2420POPC   GL133361  19.138  23.464   9.247
 2420POPC   GL233362  18.966  23.758   9.108
 2420POPC   C1A33363  19.311  23.596   8.810
 2420POPC   D2A33364  19.280  23.801   8.414
 2420POPC   C3A33365  19.165  23.561   8.068
 2420POPC   C4A33366  18.892  23.539   7.758
 2420POPC   C1B33367  18.759  23.586   8.836
 2420POPC   C2B33368  18.797  23.637   8.428
 2420POPC   C3B33369  18.689  23.858   8.081
 2420POPC   C4B33370  18.497  23.829   7.673
 2421POPC   NC333371  24.512  18.655   9.357
 2421POPC   PO433372  24.185  18.094   9.380
 2421POPC   GL133373  24.419  17.933   9.035
 2421POPC   GL233374  24.576  18.226   9.036
 2421POPC   C1A33375  24.548  17.959   8.583
 2421POPC   D2A33376  24.561  18.332   8.363
 2421POPC   C3A33377  24.495  18.360   7.937
 2421POPC   C4A33378  24.155  18.442   7.607
 2421POPC   C1B33379  24.860  18.375   8.779
 2421POPC   C2B33380  25.046  18.078   8.521
 2421POPC   C3B33381  24.873  18.027   8.122
 2421POPC   C4B33382  24.879  17.982   7.722
 2422POPC   NC333383   4.658   2.673   9.704
 2422POPC   PO433384   3.899   2.657   9.575
 2422POPC   GL133385   4.174   2.767   9.247
 2422POPC   GL233386   3.961   2.692   8.968
 2422POPC   C1A33387   4.339   3.008   8.892
 2422POPC   D2A33388   4.125   2.968   8.503
 2422POPC   C3A33389   4.291   3.076   8.091
 2422POPC   C4A33390   4.438   2.742   7.845
 2422POPC   C1B33391   4.260   2.475   8.735
 2422POPC   C2B33392   4.437   2.314   8.371
 2422POPC   C3B33393   4.166   2.327   8.043
 2422POPC   C4B33394   4.031   2.519   7.646
 2423POPC   NC333395  19.241  12.448   9.342
 2423POPC   PO433396  18.913  11.898   9.386
 2423POPC   GL133397  18.938  12.164   9.048
 2423POPC   GL233398  18.667  12.353   9.077
 2423POPC   C1A33399  19.129  12.186   8.655
 2423POPC   D2A33400  18.987  12.080   8.246
 2423POPC   C3A33401  19.262  11.980   7.925
 2423POPC   C4A33402  19.076  11.879   7.508
 2423POPC   C1B33403  18.698  12.466   8.604
 2423POPC   C2B33404  18.771  12.529   8.151
 2423POPC   C3B33405  18.959  12.355   7.764
 2423POPC   C4B33406  18.810  12.399   7.288
 2424POPC   NC333407   8.499   3.983   9.366
 2424POPC   PO433408   9.096   4.048   9.657
 2424POPC   GL133409   9.179   4.282   9.250
 2424POPC   GL233410   8.840   4.335   9.226
 2424POPC   C1A33411   9.118   4.574   8.882
 2424POPC   D2A33412   9.178   4.584   8.451
 2424POPC   C3A33413   8.958   4.665   8.060
 2424POPC   C4A33414   9.074   4.400   7.709
 2424POPC   C1B33415   8.642   4.374   8.838
 2424POPC   C2B33416   8.651   4.437   8.410
 2424POPC   C3B33417   8.682   4.234   8.004
 2424POPC   C4B33418   8.573   4.431   7.610
 2425POPC   NC333419   4.093  15.271   9.571
 2425POPC   PO433420   4.713  14.978   9.628
 2425POPC   GL133421   4.386  14.982   9.240
 2425POPC   GL233422   4.249  15.328   9.099
 2425POPC   C1A33423   4.454  15.015   8.768
 2425POPC   D2A33424   4.362  15.230   8.379
 2425POPC   C3A33425   4.629  15.122   8.054
 2425POPC   C4A33426   4.546  15.216   7.651
 2425POPC   C1B33427   4.025  15.415   8.708
 2425POPC   C2B33428   3.866  15.377   8.268
 2425POPC   C3B33429   4.137  15.421   7.905
 2425POPC   C4B33430   4.115  15.332   7.434
 2426POPC   NC333431   7.458  38.065   9.661
 2426POPC   PO433432   7.622  38.613   9.339
 2426POPC   GL133433   7.299  38.463   9.123
 2426POPC   GL233434   7.166  38.120   9.154
 2426POPC   C1A33435   7.411  38.421   8.703
 2426POPC   D2A33436   7.508  38.137   8.387
 2426POPC   C3A33437   7.666  38.420   8.099
 2426POPC   C4A33438   7.500  38.716   7.806
 2426POPC   C1B33439   7.042  38.007   8.726
 2426POPC   C2B33440   6.759  38.113   8.370
 2426POPC   C3B33441   6.931  38.260   7.936
 2426POPC   C4B33442   7.345  38.206   7.750
 2427POPC   NC333443  38.673  34.551   9.503
 2427POPC   PO433444  38.078  34.915   9.439
 2427POPC   GL133445  38.313  34.659   9.129
 2427POPC   GL233446  38.600  34.856   9.090
 2427POPC   C1A33447  38.476  34.506   8.690
 2427POPC   D2A33448  38.449  34.567   8.188
 2427POPC   C3A33449  38.093  34.808   7.930
 2427POPC   C4A33450  38.058  34.822   7.472
 2427POPC   C1B33451  38.905  34.887   8.789
 2427POPC   C2B33452  38.888  34.700   8.403
 2427POPC   C3B33453  38.865  34.840   7.986
 2427POPC   C4B33454  38.541  34.741   7.686
 2428POPC   NC333455  27.952   8.243   9.707
 2428POPC   PO433456  27.666   8.614   9.224
 2428POPC   GL133457  27.654   8.145   9.198
 2428POPC   GL233458  27.329   7.950   9.203
 2428POPC   C1A33459  27.567   8.082   8.758
 2428POPC   D2A33460  27.776   8.272   8.409
 2428POPC   C3A33461  27.689   8.390   7.988
 2428POPC   C4A33462  27.786   8.127   7.625
 2428POPC   C1B33463  27.076   7.963   8.790
 2428POPC   C2B33464  27.196   8.134   8.375
 2428POPC   C3B33465  27.368   7.993   8.000
 2428POPC   C4B33466  27.301   8.203   7.640
 2429POPC   NC333467  33.408   7.393   9.376
 2429POPC   PO433468  34.021   7.335   9.567
 2429POPC   GL133469  33.864   7.210   9.212
 2429POPC   GL233470  33.841   7.569   9.124
 2429POPC   C1A33471  33.995   7.208   8.799
 2429POPC   D2A33472  33.744   7.189   8.436
 2429POPC   C3A33473  33.908   7.377   8.101
 2429POPC   C4A33474  33.833   7.359   7.692
 2429POPC   C1B33475  33.698   7.636   8.710
 2429POPC   C2B33476  33.422   7.587   8.354
 2429POPC   C3B33477  33.472   7.632   7.906
 2429POPC   C4B33478  33.480   7.614   7.419
 2430POPC   NC333479  15.219  11.679   9.620
 2430POPC   PO433480  15.441  12.270   9.634
 2430POPC   GL133481  15.109  12.111   9.301
 2430POPC   GL233482  14.796  12.311   9.311
 2430POPC   C1A33483  14.894  12.106   8.844
 2430POPC   D2A33484  14.737  12.228   8.394
 2430POPC   C3A33485  14.980  12.050   8.034
 2430POPC   C4A33486  14.992  11.910   7.591
 2430POPC   C1B33487  15.098  12.549   9.016
 2430POPC   C2B33488  15.124  12.590   8.555
 2430POPC   C3B33489  15.091  12.578   8.105
 2430POPC   C4B33490  15.328  12.454   7.725
 2431POPC   NC333491   9.497  16.580   9.557
 2431POPC   PO433492   8.880  16.745   9.663
 2431POPC   GL133493   9.098  16.765   9.229
 2431POPC   GL233494   9.318  16.525   9.080
 2431POPC   C1A33495   8.940  16.622   8.788
 2431POPC   D2A33496   8.816  16.313   8.488
 2431POPC   C3A33497   8.863  16.575   8.168
 2431POPC   C4A33498   8.844  16.901   7.863
 2431POPC   C1B33499   9.452  16.587   8.673
 2431POPC   C2B33500   9.360  16.533   8.252
 2431POPC   C3B33501   9.301  16.646   7.825
 2431POPC   C4B33502   9.380  16.401   7.466
 2432POPC   NC333503  38.733  39.068   9.525
 2432POPC   PO433504  38.055  38.975   9.407
 2432POPC   GL133505  38.420  39.021   9.090
 2432POPC   GL233506  38.729  39.263   9.064
 2432POPC   C1A33507  38.595  38.998   8.665
 2432POPC   D2A33508  38.807  38.875   8.309
 2432POPC   C3A33509  38.441  38.917   8.106
 2432POPC   C4A33510  38.268  39.234   7.830
 2432POPC   C1B33511  38.834  39.521   8.725
 2432POPC   C2B33512  38.654  39.398   8.337
 2432POPC   C3B33513  38.760  39.251   7.953
 2432POPC   C4B33514  38.660  39.581   7.689
 2433POPC   NC333515  24.616   2.474   9.525
 2433POPC   PO433516  24.315   3.025   9.490
 2433POPC   GL133517  24.552   2.879   9.149
 2433POPC   GL233518  24.476   2.561   9.049
 2433POPC   C1A33519  24.799   2.979   8.779
 2433POPC   D2A33520  24.742   2.865   8.341
 2433POPC   C3A33521  25.048   3.022   8.022
 2433POPC   C4A33522  24.929   2.979   7.583
 2433POPC   C1B33523  24.349   2.756   8.675
 2433POPC   C2B33524  24.226   2.969   8.327
 2433POPC   C3B33525  24.287   2.752   7.980
 2433POPC   C4B33526  24.499   2.518   7.703
 2434POPC   NC333527  35.923   7.427   9.497
 2434POPC   PO433528  36.441   7.343   9.127
 2434POPC   GL133529  36.180   7.710   9.068
 2434POPC   GL233530  35.848   7.846   9.197
 2434POPC   C1A33531  36.276   7.808   8.660
 2434POPC   D2A33532  36.296   7.526   8.330
 2434POPC   C3A33533  36.249   7.640   7.934
 2434POPC   C4A33534  36.233   7.335   7.629
 2434POPC   C1B33535  35.756   7.755   8.756
 2434POPC   C2B33536  35.903   7.874   8.328
 2434POPC   C3B33537  35.757   7.846   7.930
 2434POPC   C4B33538  35.816   7.636   7.566
 2435POPC   NC333539  13.879  38.115   9.757
 2435POPC   PO433540  14.362  38.439   9.442
 2435POPC   GL133541  14.556  38.587   9.126
 2435POPC   GL233542  14.679  38.243   9.072
 2435POPC   C1A33543  14.348  38.508   8.761
 2435POPC   D2A33544  14.270  38.720   8.429
 2435POPC   C3A33545  14.257  38.487   8.045
 2435POPC   C4A33546  14.157  38.677   7.657
 2435POPC   C1B33547  14.843  38.353   8.725
 2435POPC   C2B33548  14.649  38.353   8.363
 2435POPC   C3B33549  14.727  38.212   8.006
 2435POPC   C4B33550  14.574  38.403   7.644
 2436POPC   NC333551  10.513  41.874   9.508
 2436POPC   PO433552  10.720  41.167   9.442
 2436POPC   GL133553  10.531  41.452   9.175
 2436POPC   GL233554  10.230  41.304   9.113
 2436POPC   C1A33555  10.549  41.624   8.762
 2436POPC   D2A33556  10.792  41.743   8.378
 2436POPC   C3A33557  10.621  41.556   7.985
 2436POPC   C4A33558  10.699  41.706   7.546
 2436POPC   C1B33559  10.213  41.208   8.693
 2436POPC   C2B33560  10.221  41.466   8.312
 2436POPC   C3B33561  10.139  41.320   7.896
 2436POPC   C4B33562  10.402  41.286   7.583
 2437POPC   NC333563  24.970   8.774   9.442
 2437POPC   PO433564  24.343   8.657   9.409
 2437POPC   GL133565  24.328   8.891   9.003
 2437POPC   GL233566  24.648   8.963   9.059
 2437POPC   C1A33567  24.461   8.988   8.569
 2437POPC   D2A33568  24.526   9.232   8.213
 2437POPC   C3A33569  24.369   9.009   7.862
 2437POPC   C4A33570  24.178   9.015   7.418
 2437POPC   C1B33571  24.685   8.582   8.787
 2437POPC   C2B33572  24.668   8.408   8.351
 2437POPC   C3B33573  24.655   8.579   7.918
 2437POPC   C4B33574  24.602   8.759   7.465
 2438POPC   NC333575  16.806  26.730   9.552
 2438POPC   PO433576  16.195  26.878   9.503
 2438POPC   GL133577  16.397  26.649   9.144
 2438POPC   GL233578  16.784  26.537   9.081
 2438POPC   C1A33579  16.431  26.657   8.709
 2438POPC   D2A33580  16.757  26.515   8.488
 2438POPC   C3A33581  16.733  26.632   8.086
 2438POPC   C4A33582  16.412  26.654   7.788
 2438POPC   C1B33583  16.909  26.859   8.825
 2438POPC   C2B33584  16.830  27.025   8.407
 2438POPC   C3B33585  16.678  27.130   7.979
 2438POPC   C4B33586  16.899  27.084   7.564
 2439POPC   NC333587  14.528  39.797   9.533
 2439POPC   PO433588  15.185  39.731   9.515
 2439POPC   GL133589  15.349  40.018   9.218
 2439POPC   GL233590  15.009  39.965   9.046
 2439POPC   C1A33591  15.418  40.176   8.800
 2439POPC   D2A33592  15.091  40.082   8.513
 2439POPC   C3A33593  15.227  40.126   8.117
 2439POPC   C4A33594  15.280  40.177   7.707
 2439POPC   C1B33595  15.300  39.679   8.826
 2439POPC   C2B33596  15.364  39.654   8.384
 2439POPC   C3B33597  15.006  39.648   8.113
 2439POPC   C4B33598  14.932  39.800   7.692
 2440POPC   NC333599   1.654  25.276   9.493
 2440POPC   PO433600   2.350  25.059   9.463
 2440POPC   GL133601   2.222  25.341   9.121
 2440POPC   GL233602   1.914  25.228   9.054
 2440POPC   C1A33603   2.264  25.280   8.659
 2440POPC   D2A33604   1.930  25.012   8.390
 2440POPC   C3A33605   1.998  25.101   7.931
 2440POPC   C4A33606   1.940  25.150   7.472
 2440POPC   C1B33607   1.775  25.393   8.687
 2440POPC   C2B33608   1.955  25.507   8.280
 2440POPC   C3B33609   1.942  25.712   7.887
 2440POPC   C4B33610   1.908  25.645   7.446
 2441POPC   NC333611  39.497  44.202   9.721
 2441POPC   PO433612  38.888  44.422   9.414
 2441POPC   GL133613  38.983  44.666   9.053
 2441POPC   GL233614  39.345  44.758   9.040
 2441POPC   C1A33615  39.017  44.490   8.666
 2441POPC   D2A33616  39.013  44.557   8.243
 2441POPC   C3A33617  39.193  44.927   8.113
 2441POPC   C4A33618  38.964   0.053   7.750
 2441POPC   C1B33619  39.560  44.608   8.718
 2441POPC   C2B33620  39.704  44.544   8.342
 2441POPC   C3B33621  39.430  44.302   8.114
 2441POPC   C4B33622  39.257  44.553   7.757
 2442POPC   NC333623  25.113   5.041   9.463
 2442POPC   PO433624  25.710   5.417   9.307
 2442POPC   GL133625  25.453   5.184   9.081
 2442POPC   GL233626  25.474   4.858   9.161
 2442POPC   C1A33627  25.366   5.206   8.634
 2442POPC   D2A33628  25.157   4.958   8.284
 2442POPC   C3A33629  24.999   5.113   7.903
 2442POPC   C4A33630  25.124   5.088   7.455
 2442POPC   C1B33631  25.204   4.784   8.837
 2442POPC   C2B33632  25.431   4.605   8.541
 2442POPC   C3B33633  25.478   4.558   8.095
 2442POPC   C4B33634  25.210   4.663   7.788
 2443POPC   NC333635   7.113   8.486   9.453
 2443POPC   PO433636   7.411   7.815   9.503
 2443POPC   GL133637   7.386   7.986   9.125
 2443POPC   GL233638   7.050   8.047   9.136
 2443POPC   C1A33639   7.613   7.857   8.730
 2443POPC   D2A33640   7.724   7.725   8.296
 2443POPC   C3A33641   7.704   8.093   8.060
 2443POPC   C4A33642   7.400   8.312   7.823
 2443POPC   C1B33643   7.313   8.299   8.753
 2443POPC   C2B33644   7.309   8.489   8.301
 2443POPC   C3B33645   7.060   8.671   7.926
 2443POPC   C4B33646   7.132   8.599   7.471
 2444POPC   NC333647  41.188   1.987   9.461
 2444POPC   PO433648  40.504   1.754   9.527
 2444POPC   GL133649  40.752   1.690   9.133
 2444POPC   GL233650  41.037   1.884   9.002
 2444POPC   C1A33651  40.654   1.810   8.699
 2444POPC   D2A33652  40.758   2.017   8.319
 2444POPC   C3A33653  40.622   1.745   8.030
 2444POPC   C4A33654  40.592   1.627   7.593
 2444POPC   C1B33655  40.909   2.271   8.736
 2444POPC   C2B33656  40.998   2.488   8.361
 2444POPC   C3B33657  40.926   2.340   7.927
 2444POPC   C4B33658  40.986   1.933   7.756
 2445POPC   NC333659   7.950   5.479   9.484
 2445POPC   PO433660   8.255   4.823   9.580
 2445POPC   GL133661   8.191   5.041   9.191
 2445POPC   GL233662   7.859   5.155   9.120
 2445POPC   C1A33663   8.278   5.226   8.785
 2445POPC   D2A33664   8.418   5.390   8.381
 2445POPC   C3A33665   8.221   5.225   8.013
 2445POPC   C4A33666   8.299   5.177   7.574
 2445POPC   C1B33667   7.786   4.950   8.781
 2445POPC   C2B33668   7.899   5.061   8.407
 2445POPC   C3B33669   7.767   4.984   8.028
 2445POPC   C4B33670   7.795   5.178   7.669
 2446POPC   NC333671  26.795  41.322   9.465
 2446POPC   PO433672  27.420  41.417   9.512
 2446POPC   GL133673  27.096  41.560   9.139
 2446POPC   GL233674  26.814  41.812   9.145
 2446POPC   C1A33675  26.756  41.407   8.807
 2446POPC   D2A33676  26.589  41.290   8.365
 2446POPC   C3A33677  26.902  41.165   8.056
 2446POPC   C4A33678  26.926  41.507   7.787
 2446POPC   C1B33679  26.690  41.933   8.710
 2446POPC   C2B33680  26.718  41.814   8.270
 2446POPC   C3B33681  27.071  41.938   7.988
 2446POPC   C4B33682  27.099  41.927   7.532
 2447POPC   NC333683  44.485   8.371   9.466
 2447POPC   PO433684   0.050   8.439   9.411
 2447POPC   GL133685  44.824   8.153   9.123
 2447POPC   GL233686  44.451   8.081   9.045
 2447POPC   C1A33687  44.866   7.993   8.735
 2447POPC   D2A33688  44.578   7.999   8.445
 2447POPC   C3A33689  44.848   7.948   8.122
 2447POPC   C4A33690  44.874   8.114   7.735
 2447POPC   C1B33691  44.261   8.350   8.729
 2447POPC   C2B33692  44.186   8.306   8.300
 2447POPC   C3B33693  44.502   8.359   8.010
 2447POPC   C4B33694  44.479   8.398   7.610
 2448POPC   NC333695   5.140  40.193   9.451
 2448POPC   PO433696   5.076  39.501   9.515
 2448POPC   GL133697   5.117  39.767   9.167
 2448POPC   GL233698   5.461  39.718   9.157
 2448POPC   C1A33699   5.120  40.061   8.777
 2448POPC   D2A33700   5.316  40.369   8.491
 2448POPC   C3A33701   5.069  40.493   8.118
 2448POPC   C4A33702   4.983  40.279   7.719
 2448POPC   C1B33703   5.608  39.941   8.836
 2448POPC   C2B33704   5.436  39.853   8.438
 2448POPC   C3B33705   5.247  40.008   8.090
 2448POPC   C4B33706   5.429  40.002   7.706
 2449POPC   NC333707  40.468   6.661   9.535
 2449POPC   PO433708  41.010   7.021   9.580
 2449POPC   GL133709  40.816   6.846   9.189
 2449POPC   GL233710  40.840   6.479   9.165
 2449POPC   C1A33711  40.822   6.762   8.745
 2449POPC   D2A33712  40.948   6.556   8.352
 2449POPC   C3A33713  40.901   6.778   7.937
 2449POPC   C4A33714  40.602   6.976   7.621
 2449POPC   C1B33715  40.657   6.268   8.781
 2449POPC   C2B33716  40.662   6.105   8.370
 2449POPC   C3B33717  40.637   6.331   8.006
 2449POPC   C4B33718  40.382   6.489   7.712
 2450POPC   NC333719  23.288  24.967   9.241
 2450POPC   PO433720  23.824  24.717   9.505
 2450POPC   GL133721  23.898  24.433   9.110
 2450POPC   GL233722  23.564  24.280   9.037
 2450POPC   C1A33723  23.931  24.183   8.711
 2450POPC   D2A33724  23.645  24.144   8.299
 2450POPC   C3A33725  23.838  24.195   7.844
 2450POPC   C4A33726  24.155  24.122   7.468
 2450POPC   C1B33727  23.655  24.626   8.709
 2450POPC   C2B33728  23.970  24.855   8.442
 2450POPC   C3B33729  23.829  24.775   8.014
 2450POPC   C4B33730  23.514  24.578   7.768
 2451POPC   NC333731  17.004  11.002   9.328
 2451POPC   PO433732  17.557  11.300   9.408
 2451POPC   GL133733  17.630  11.428   9.017
 2451POPC   GL233734  17.971  11.500   9.030
 2451POPC   C1A33735  17.536  11.655   8.659
 2451POPC   D2A33736  17.461  11.616   8.237
 2451POPC   C3A33737  17.408  11.240   8.014
 2451POPC   C4A33738  17.330  11.136   7.605
 2451POPC   C1B33739  17.950  11.337   8.620
 2451POPC   C2B33740  17.905  11.306   8.167
 2451POPC   C3B33741  17.867  11.190   7.724
 2451POPC   C4B33742  18.002  11.098   7.266
 2452POPC   NC333743   2.786  11.917   9.516
 2452POPC   PO433744   3.009  12.571   9.397
 2452POPC   GL133745   2.792  12.236   9.073
 2452POPC   GL233746   2.666  11.886   9.041
 2452POPC   C1A33747   2.638  12.160   8.624
 2452POPC   D2A33748   2.827  12.375   8.268
 2452POPC   C3A33749   2.813  12.209   7.836
 2452POPC   C4A33750   2.637  12.083   7.417
 2452POPC   C1B33751   2.655  11.617   8.686
 2452POPC   C2B33752   2.457  11.698   8.303
 2452POPC   C3B33753   2.584  11.747   7.887
 2452POPC   C4B33754   2.876  11.657   7.584
 2453POPC   NC333755  42.049   7.573   9.475
 2453POPC   PO433756  41.403   7.450   9.557
 2453POPC   GL133757  41.565   7.540   9.204
 2453POPC   GL233758  41.572   7.193   9.058
 2453POPC   C1A33759  41.681   7.678   8.822
 2453POPC   D2A33760  41.606   7.361   8.541
 2453POPC   C3A33761  41.619   7.540   8.175
 2453POPC   C4A33762  41.560   7.679   7.791
 2453POPC   C1B33763  41.254   7.041   8.758
 2453POPC   C2B33764  41.302   6.951   8.338
 2453POPC   C3B33765  41.544   7.065   7.973
 2453POPC   C4B33766  41.455   7.227   7.561
 2454POPC   NC333767  38.904  43.375   9.471
 2454POPC   PO433768  38.363  42.892   9.568
 2454POPC   GL133769  38.282  43.034   9.128
 2454POPC   GL233770  38.513  43.287   9.094
 2454POPC   C1A33771  38.275  43.073   8.653
 2454POPC   D2A33772  38.553  43.106   8.277
 2454POPC   C3A33773  38.471  43.010   7.805
 2454POPC   C4A33774  38.608  42.862   7.381
 2454POPC   C1B33775  38.375  43.555   8.775
 2454POPC   C2B33776  38.240  43.529   8.369
 2454POPC   C3B33777  38.393  43.481   7.961
 2454POPC   C4B33778  38.251  43.492   7.545
 2455POPC   NC333779  44.403  23.606   9.732
 2455POPC   PO433780   0.008  23.846   9.590
 2455POPC   GL133781  44.935  23.764   9.159
 2455POPC   GL233782  44.704  23.462   9.074
 2455POPC   C1A33783  44.717  23.948   8.783
 2455POPC   D2A33784  44.360  23.825   8.513
 2455POPC   C3A33785  44.531  23.623   8.136
 2455POPC   C4A33786  44.547  23.774   7.709
 2455POPC   C1B33787   0.008  23.515   8.732
 2455POPC   C2B33788  44.995  23.745   8.370
 2455POPC   C3B33789   0.016  23.734   7.933
 2455POPC   C4B33790   0.014  23.636   7.466
 2456POPC   NC333791  33.054  12.503   9.490
 2456POPC   PO433792  33.367  13.001   9.784
 2456POPC   GL133793  33.158  12.994   9.361
 2456POPC   GL233794  33.405  12.764   9.225
 2456POPC   C1A33795  33.083  13.214   8.929
 2456POPC   D2A33796  33.271  13.266   8.500
 2456POPC   C3A33797  33.214  13.048   8.118
 2456POPC   C4A33798  32.932  12.915   7.814
 2456POPC   C1B33799  33.158  12.717   8.868
 2456POPC   C2B33800  33.026  12.686   8.439
 2456POPC   C3B33801  33.097  12.417   8.094
 2456POPC   C4B33802  32.885  12.411   7.692
 2457POPC   NC333803  34.578  29.831   9.598
 2457POPC   PO433804  34.364  30.313   9.169
 2457POPC   GL133805  34.603  29.941   9.112
 2457POPC   GL233806  34.316  29.657   9.187
 2457POPC   C1A33807  34.838  29.886   8.725
 2457POPC   D2A33808  34.647  29.831   8.304
 2457POPC   C3A33809  34.674  30.003   7.892
 2457POPC   C4A33810  34.976  30.257   7.714
 2457POPC   C1B33811  34.315  29.744   8.747
 2457POPC   C2B33812  34.166  30.032   8.435
 2457POPC   C3B33813  34.167  29.856   8.033
 2457POPC   C4B33814  34.273  29.814   7.598
 2458POPC   NC333815   6.598  11.907   9.431
 2458POPC   PO433816   6.209  12.416   9.379
 2458POPC   GL133817   6.439  12.238   9.038
 2458POPC   GL233818   6.466  11.862   8.963
 2458POPC   C1A33819   6.458  12.195   8.586
 2458POPC   D2A33820   6.804  12.116   8.323
 2458POPC   C3A33821   6.742  12.262   7.928
 2458POPC   C4A33822   6.942  12.113   7.583
 2458POPC   C1B33823   6.322  11.640   8.656
 2458POPC   C2B33824   6.400  11.756   8.286
 2458POPC   C3B33825   6.555  11.796   7.938
 2458POPC   C4B33826   6.463  11.941   7.555
 2459POPC   NC333827   4.872  38.649   9.488
 2459POPC   PO433828   5.414  38.204   9.576
 2459POPC   GL133829   5.318  38.423   9.156
 2459POPC   GL233830   4.974  38.348   9.090
 2459POPC   C1A33831   5.248  38.497   8.696
 2459POPC   D2A33832   5.097  38.191   8.380
 2459POPC   C3A33833   5.068  38.302   7.947
 2459POPC   C4A33834   5.164  38.609   7.659
 2459POPC   C1B33835   4.741  38.394   8.703
 2459POPC   C2B33836   4.670  38.658   8.344
 2459POPC   C3B33837   4.682  38.682   7.881
 2459POPC   C4B33838   4.493  38.411   7.573
 2460POPC   NC333839  33.205  17.254   9.652
 2460POPC   PO433840  32.598  17.262   9.369
 2460POPC   GL133841  32.835  17.617   9.134
 2460POPC   GL233842  33.206  17.704   9.223
 2460POPC   C1A33843  32.857  17.622   8.696
 2460POPC   D2A33844  33.127  17.385   8.454
 2460POPC   C3A33845  32.972  17.468   8.082
 2460POPC   C4A33846  33.001  17.273   7.724
 2460POPC   C1B33847  33.351  17.734   8.773
 2460POPC   C2B33848  33.236  17.883   8.324
 2460POPC   C3B33849  33.303  17.771   7.851
 2460POPC   C4B33850  33.380  17.941   7.392
 2461POPC   NC333851  28.968   0.954   9.532
 2461POPC   PO433852  29.219   1.618   9.474
 2461POPC   GL133853  29.198   1.269   9.171
 2461POPC   GL233854  29.541   1.153   9.142
 2461POPC   C1A33855  28.936   1.112   8.794
 2461POPC   D2A33856  28.789   0.992   8.366
 2461POPC   C3A33857  28.891   1.216   7.989
 2461POPC   C4A33858  28.946   1.087   7.561
 2461POPC   C1B33859  29.426   1.248   8.711
 2461POPC   C2B33860  29.353   1.081   8.287
 2461POPC   C3B33861  29.381   1.207   7.850
 2461POPC   C4B33862  29.573   1.520   7.638
 2462POPC   NC333863   7.577  13.999   9.532
 2462POPC   PO433864   7.231  14.645   9.423
 2462POPC   GL133865   7.478  14.361   9.135
 2462POPC   GL233866   7.333  14.026   9.044
 2462POPC   C1A33867   7.550  14.287   8.668
 2462POPC   D2A33868   7.586  14.049   8.308
 2462POPC   C3A33869   7.546  14.291   7.931
 2462POPC   C4A33870   7.610  14.461   7.516
 2462POPC   C1B33871   7.055  14.192   8.673
 2462POPC   C2B33872   7.183  14.407   8.297
 2462POPC   C3B33873   7.024  14.178   7.953
 2462POPC   C4B33874   7.206  14.157   7.542
 2463POPC   NC333875  14.212   2.991   9.427
 2463POPC   PO433876  14.581   2.308   9.373
 2463POPC   GL133877  14.324   2.538   9.134
 2463POPC   GL233878  14.587   2.813   9.134
 2463POPC   C1A33879  14.259   2.760   8.745
 2463POPC   D2A33880  14.475   2.656   8.371
 2463POPC   C3A33881  14.237   2.749   8.044
 2463POPC   C4A33882  14.287   2.598   7.632
 2463POPC   C1B33883  14.637   3.115   8.806
 2463POPC   C2B33884  14.478   3.169   8.420
 2463POPC   C3B33885  14.677   3.117   8.084
 2463POPC   C4B33886  14.722   2.772   7.904
 2464POPC   NC333887  24.110  38.706   9.635
 2464POPC   PO433888  23.602  38.388   9.411
 2464POPC   GL133889  23.748  38.244   9.018
 2464POPC   GL233890  23.611  38.553   8.884
 2464POPC   C1A33891  23.726  38.193   8.560
 2464POPC   D2A33892  23.471  38.369   8.213
 2464POPC   C3A33893  23.736  38.381   7.878
 2464POPC   C4A33894  24.144  38.513   7.725
 2464POPC   C1B33895  23.266  38.276   8.725
 2464POPC   C2B33896  22.966  38.255   8.354
 2464POPC   C3B33897  22.999  38.416   7.914
 2464POPC   C4B33898  23.223  38.570   7.536
 2465POPC   NC333899  35.873   8.468   9.385
 2465POPC   PO433900  36.265   8.039   9.479
 2465POPC   GL133901  36.247   8.238   9.116
 2465POPC   GL233902  36.423   8.551   9.123
 2465POPC   C1A33903  35.999   8.224   8.748
 2465POPC   D2A33904  35.811   8.363   8.367
 2465POPC   C3A33905  36.025   8.264   7.980
 2465POPC   C4A33906  36.209   8.051   7.642
 2465POPC   C1B33907  36.338   8.602   8.750
 2465POPC   C2B33908  36.336   8.380   8.367
 2465POPC   C3B33909  36.441   8.568   7.974
 2465POPC   C4B33910  36.581   8.570   7.536
 2466POPC   NC333911  34.262  11.938   9.487
 2466POPC   PO433912  34.804  12.158   9.695
 2466POPC   GL133913  34.831  12.306   9.256
 2466POPC   GL233914  34.526  12.135   9.097
 2466POPC   C1A33915  34.947  12.176   8.824
 2466POPC   D2A33916  34.639  12.201   8.487
 2466POPC   C3A33917  34.821  12.022   8.130
 2466POPC   C4A33918  34.940  11.947   7.689
 2466POPC   C1B33919  34.566  11.789   8.791
 2466POPC   C2B33920  34.484  11.700   8.337
 2466POPC   C3B33921  34.472  11.782   7.873
 2466POPC   C4B33922  34.600  11.635   7.464
 2467POPC   NC333923  42.891  38.781   9.488
 2467POPC   PO433924  43.112  38.172   9.503
 2467POPC   GL133925  43.115  38.438   9.145
 2467POPC   GL233926  43.336  38.742   9.194
 2467POPC   C1A33927  43.112  38.592   8.733
 2467POPC   D2A33928  42.856  38.662   8.392
 2467POPC   C3A33929  42.997  38.513   8.054
 2467POPC   C4A33930  43.022  38.499   7.642
 2467POPC   C1B33931  43.384  39.001   8.810
 2467POPC   C2B33932  43.288  38.943   8.338
 2467POPC   C3B33933  43.382  38.822   7.877
 2467POPC   C4B33934  43.320  38.872   7.394
 2468POPC   NC333935  22.935   8.630   9.768
 2468POPC   PO433936  23.086   9.190   9.361
 2468POPC   GL133937  22.990   9.014   9.057
 2468POPC   GL233938  22.826   9.295   8.934
 2468POPC   C1A33939  22.854   8.834   8.703
 2468POPC   D2A33940  23.042   8.878   8.347
 2468POPC   C3A33941  22.739   8.823   8.033
 2468POPC   C4A33942  22.859   8.852   7.613
 2468POPC   C1B33943  23.088   9.308   8.646
 2468POPC   C2B33944  22.829   9.335   8.321
 2468POPC   C3B33945  23.003   9.255   7.964
 2468POPC   C4B33946  22.996   9.455   7.610
 2469POPC   NC333947  35.105  37.137   9.558
 2469POPC   PO433948  34.457  36.932   9.421
 2469POPC   GL133949  34.739  37.099   9.142
 2469POPC   GL233950  34.926  36.800   9.204
 2469POPC   C1A33951  34.596  37.130   8.726
 2469POPC   D2A33952  34.426  36.932   8.369
 2469POPC   C3A33953  34.511  37.148   7.958
 2469POPC   C4A33954  34.229  37.150   7.569
 2469POPC   C1B33955  34.793  36.611   8.812
 2469POPC   C2B33956  34.704  36.441   8.424
 2469POPC   C3B33957  34.642  36.609   8.030
 2469POPC   C4B33958  34.535  36.739   7.639
 2470POPC   NC333959  21.611   8.292   9.524
 2470POPC   PO433960  20.993   8.219   9.359
 2470POPC   GL133961  21.309   8.428   9.130
 2470POPC   GL233962  21.550   8.137   9.047
 2470POPC   C1A33963  21.531   8.590   8.779
 2470POPC   D2A33964  21.605   8.495   8.360
 2470POPC   C3A33965  21.313   8.266   8.131
 2470POPC   C4A33966  21.354   8.313   7.723
 2470POPC   C1B33967  21.802   7.892   8.771
 2470POPC   C2B33968  21.675   7.937   8.357
 2470POPC   C3B33969  21.800   8.153   8.012
 2470POPC   C4B33970  21.811   8.123   7.599
 2471POPC   NC333971  17.331   5.845   9.523
 2471POPC   PO433972  17.835   5.636   9.195
 2471POPC   GL133973  17.450   5.714   9.026
 2471POPC   GL233974  17.657   5.713   8.711
 2471POPC   C1A33975  17.155   5.663   8.712
 2471POPC   D2A33976  17.168   5.896   8.318
 2471POPC   C3A33977  17.476   5.736   8.058
 2471POPC   C4A33978  17.389   5.751   7.602
 2471POPC   C1B33979  17.849   6.123   8.639
 2471POPC   C2B33980  18.055   6.366   8.299
 2471POPC   C3B33981  17.890   6.439   7.903
 2471POPC   C4B33982  17.630   6.141   7.823
 2472POPC   NC333983  40.336  13.925   9.416
 2472POPC   PO433984  39.766  13.720   9.559
 2472POPC   GL133985  39.882  13.849   9.143
 2472POPC   GL233986  40.127  13.609   9.069
 2472POPC   C1A33987  39.897  13.827   8.675
 2472POPC   D2A33988  39.674  13.693   8.287
 2472POPC   C3A33989  39.892  13.914   7.947
 2472POPC   C4A33990  40.245  13.689   7.759
 2472POPC   C1B33991  39.900  13.298   8.785
 2472POPC   C2B33992  39.977  13.160   8.346
 2472POPC   C3B33993  39.958  13.258   7.885
 2472POPC   C4B33994  39.678  13.146   7.559
 2473POPC   NC333995  23.282   8.764   9.405
 2473POPC   PO433996  22.851   8.235   9.543
 2473POPC   GL133997  22.723   8.181   9.150
 2473POPC   GL233998  22.882   8.509   9.107
 2473POPC   C1A33999  22.751   8.180   8.703
 2473POPC   D2A34000  22.940   7.878   8.413
 2473POPC   C3A34001  22.851   8.007   8.019
 2473POPC   C4A34002  23.073   7.851   7.654
 2473POPC   C1B34003  23.173   8.449   8.763
 2473POPC   C2B34004  23.074   8.383   8.341
 2473POPC   C3B34005  23.171   8.542   7.956
 2473POPC   C4B34006  22.972   8.348   7.643
 2474POPC   NC334007  16.619   6.192   9.504
 2474POPC   PO434008  17.018   6.664   9.528
 2474POPC   GL134009  16.906   6.459   9.135
 2474POPC   GL234010  16.549   6.477   9.096
 2474POPC   C1A34011  16.884   6.577   8.700
 2474POPC   D2A34012  17.015   6.411   8.325
 2474POPC   C3A34013  16.919   6.732   8.075
 2474POPC   C4A34014  16.849   6.765   7.653
 2474POPC   C1B34015  16.431   6.277   8.718
 2474POPC   C2B34016  16.497   6.429   8.295
 2474POPC   C3B34017  16.450   6.486   7.830
 2474POPC   C4B34018  16.338   6.342   7.393
 2475POPC   NC334019  37.636  44.343   9.455
 2475POPC   PO434020  37.422  43.679   9.519
 2475POPC   GL134021  37.707  43.811   9.178
 2475POPC   GL234022  37.916  43.498   9.100
 2475POPC   C1A34023  37.605  44.076   8.789
 2475POPC   D2A34024  37.404  43.843   8.442
 2475POPC   C3A34025  37.469  43.856   8.009
 2475POPC   C4A34026  37.402  44.160   7.712
 2475POPC   C1B34027  37.801  43.616   8.705
 2475POPC   C2B34028  37.902  43.886   8.369
 2475POPC   C3B34029  37.963  43.733   7.949
 2475POPC   C4B34030  37.777  43.696   7.571
 2476POPC   NC334031   2.226  39.259   9.845
 2476POPC   PO434032   1.676  39.081   9.448
 2476POPC   GL134033   1.838  39.361   9.159
 2476POPC   GL234034   2.186  39.356   9.240
 2476POPC   C1A34035   1.703  39.461   8.746
 2476POPC   D2A34036   1.697  39.262   8.354
 2476POPC   C3A34037   1.768  39.485   8.003
 2476POPC   C4A34038   1.759  39.255   7.625
 2476POPC   C1B34039   2.171  39.171   8.791
 2476POPC   C2B34040   2.326  39.086   8.379
 2476POPC   C3B34041   2.208  39.221   7.940
 2476POPC   C4B34042   2.239  39.196   7.496
 2477POPC   NC334043  40.360  37.694   9.187
 2477POPC   PO434044  40.860  37.561   9.621
 2477POPC   GL134045  40.849  37.570   9.193
 2477POPC   GL234046  41.044  37.836   9.135
 2477POPC   C1A34047  40.772  37.692   8.712
 2477POPC   D2A34048  40.561  38.033   8.423
 2477POPC   C3A34049  40.565  37.889   7.996
 2477POPC   C4A34050  40.492  37.465   7.798
 2477POPC   C1B34051  41.189  37.434   8.863
 2477POPC   C2B34052  41.046  37.228   8.489
 2477POPC   C3B34053  40.890  37.285   8.086
 2477POPC   C4B34054  41.154  37.255   7.744
 2478POPC   NC334055  28.790  43.010   9.544
 2478POPC   PO434056  28.139  43.203   9.549
 2478POPC   GL134057  28.398  43.131   9.218
 2478POPC   GL234058  28.435  43.466   9.120
 2478POPC   C1A34059  28.354  43.095   8.776
 2478POPC   D2A34060  28.338  42.853   8.454
 2478POPC   C3A34061  28.427  43.085   8.106
 2478POPC   C4A34062  28.234  43.133   7.695
 2478POPC   C1B34063  28.002  43.438   8.881
 2478POPC   C2B34064  27.988  43.297   8.429
 2478POPC   C3B34065  27.941  43.449   7.984
 2478POPC   C4B34066  27.829  43.612   7.555
 2479POPC   NC334067  44.232  27.137   9.496
 2479POPC   PO434068  43.645  26.935   9.174
 2479POPC   GL134069  43.972  26.979   9.036
 2479POPC   GL234070  44.148  26.703   9.207
 2479POPC   C1A34071  43.933  27.042   8.576
 2479POPC   D2A34072  44.029  26.896   8.163
 2479POPC   C3A34073  43.743  27.061   7.893
 2479POPC   C4A34074  43.354  26.860   7.752
 2479POPC   C1B34075  44.161  26.628   8.749
 2479POPC   C2B34076  44.066  26.401   8.355
 2479POPC   C3B34077  44.199  26.444   7.923
 2479POPC   C4B34078  44.175  26.408   7.443
 2480POPC   NC334079  28.505   3.047   9.474
 2480POPC   PO434080  27.990   2.643   9.840
 2480POPC   GL134081  28.315   2.596   9.312
 2480POPC   GL234082  28.109   2.602   8.990
 2480POPC   C1A34083  28.542   2.847   8.868
 2480POPC   D2A34084  28.358   3.131   8.498
 2480POPC   C3A34085  28.520   3.105   8.041
 2480POPC   C4A34086  28.743   2.697   7.894
 2480POPC   C1B34087  28.323   2.451   8.658
 2480POPC   C2B34088  28.458   2.612   8.297
 2480POPC   C3B34089  28.234   2.721   7.917
 2480POPC   C4B34090  28.377   2.631   7.549
 2481POPC   NC334091  29.784   5.947   9.642
 2481POPC   PO434092  30.405   6.074   9.545
 2481POPC   GL134093  30.163   5.990   9.164
 2481POPC   GL234094  29.784   5.999   9.142
 2481POPC   C1A34095  30.051   5.987   8.704
 2481POPC   D2A34096  29.999   5.651   8.406
 2481POPC   C3A34097  29.993   5.754   7.985
 2481POPC   C4A34098  30.235   5.537   7.721
 2481POPC   C1B34099  29.572   6.141   8.749
 2481POPC   C2B34100  29.574   5.942   8.323
 2481POPC   C3B34101  29.590   6.021   7.856
 2481POPC   C4B34102  29.849   6.160   7.491
 2482POPC   NC334103   1.575  29.393   9.527
 2482POPC   PO434104   0.885  29.327   9.584
 2482POPC   GL134105   0.987  29.209   9.192
 2482POPC   GL234106   1.291  29.037   9.240
 2482POPC   C1A34107   0.873  29.029   8.794
 2482POPC   D2A34108   0.729  29.077   8.374
 2482POPC   C3A34109   1.054  29.058   8.100
 2482POPC   C4A34110   1.104  29.239   7.716
 2482POPC   C1B34111   1.360  29.308   8.871
 2482POPC   C2B34112   1.450  29.208   8.450
 2482POPC   C3B34113   1.554  29.149   8.055
 2482POPC   C4B34114   1.590  29.369   7.710
 2483POPC   NC334115   2.675  28.059   9.578
 2483POPC   PO434116   3.242  28.458   9.449
 2483POPC   GL134117   2.911  28.393   9.144
 2483POPC   GL234118   2.560  28.402   9.228
 2483POPC   C1A34119   2.847  28.253   8.730
 2483POPC   D2A34120   3.023  28.054   8.360
 2483POPC   C3A34121   2.982  28.354   8.025
 2483POPC   C4A34122   2.711  28.612   7.785
 2483POPC   C1B34123   2.429  28.073   8.925
 2483POPC   C2B34124   2.509  27.942   8.457
 2483POPC   C3B34125   2.650  27.965   7.995
 2483POPC   C4B34126   2.481  28.144   7.588
 2484POPC   NC334127   6.791  30.354   9.472
 2484POPC   PO434128   6.314  30.871   9.489
 2484POPC   GL134129   6.587  30.715   9.177
 2484POPC   GL234130   6.359  30.436   9.114
 2484POPC   C1A34131   6.811  30.504   8.816
 2484POPC   D2A34132   6.772  30.607   8.347
 2484POPC   C3A34133   6.980  30.833   7.974
 2484POPC   C4A34134   6.708  30.929   7.600
 2484POPC   C1B34135   6.336  30.481   8.648
 2484POPC   C2B34136   6.423  30.284   8.195
 2484POPC   C3B34137   6.715  30.407   7.820
 2484POPC   C4B34138   6.966  30.228   7.462
 2485POPC   NC334139  35.303  31.802   9.576
 2485POPC   PO434140  35.311  32.382   9.389
 2485POPC   GL134141  35.463  32.229   9.020
 2485POPC   GL234142  35.239  31.959   9.069
 2485POPC   C1A34143  35.519  32.295   8.553
 2485POPC   D2A34144  35.251  32.566   8.338
 2485POPC   C3A34145  35.247  32.638   7.889
 2485POPC   C4A34146  35.448  32.505   7.499
 2485POPC   C1B34147  35.042  32.186   8.716
 2485POPC   C2B34148  35.044  32.043   8.310
 2485POPC   C3B34149  35.184  32.119   7.907
 2485POPC   C4B34150  34.971  32.318   7.571
 2486POPC   NC334151  12.031   2.422   9.437
 2486POPC   PO434152  12.452   2.021   9.394
 2486POPC   GL134153  12.222   2.147   9.006
 2486POPC   GL234154  11.875   2.203   8.986
 2486POPC   C1A34155  12.196   2.130   8.556
 2486POPC   D2A34156  12.425   1.929   8.237
 2486POPC   C3A34157  12.215   1.825   7.836
 2486POPC   C4A34158  12.068   2.016   7.454
 2486POPC   C1B34159  11.777   1.870   8.665
 2486POPC   C2B34160  11.863   1.905   8.210
 2486POPC   C3B34161  11.685   2.039   7.797
 2486POPC   C4B34162  11.309   2.121   7.503
 2487POPC   NC334163  32.141  11.790   9.531
 2487POPC   PO434164  32.698  12.233   9.372
 2487POPC   GL134165  32.436  11.959   9.107
 2487POPC   GL234166  32.081  12.058   9.068
 2487POPC   C1A34167  32.433  11.906   8.652
 2487POPC   D2A34168  32.310  11.937   8.203
 2487POPC   C3A34169  32.416  12.087   7.757
 2487POPC   C4A34170  32.378  11.811   7.361
 2487POPC   C1B34171  31.861  11.976   8.672
 2487POPC   C2B34172  31.805  11.888   8.231
 2487POPC   C3B34173  31.908  12.061   7.810
 2487POPC   C4B34174  31.990  12.342   7.439
 2488POPC   NC334175  38.362  23.230   9.352
 2488POPC   PO434176  38.468  22.539   9.496
 2488POPC   GL134177  38.292  22.728   9.144
 2488POPC   GL234178  38.640  22.834   9.076
 2488POPC   C1A34179  38.252  22.779   8.682
 2488POPC   D2A34180  38.285  23.011   8.290
 2488POPC   C3A34181  38.347  22.833   7.889
 2488POPC   C4A34182  38.333  22.707   7.471
 2488POPC   C1B34183  38.717  23.001   8.658
 2488POPC   C2B34184  38.763  22.823   8.253
 2488POPC   C3B34185  38.782  23.076   7.911
 2488POPC   C4B34186  38.678  23.055   7.496
 2489POPC   NC334187   9.205  30.705   9.346
 2489POPC   PO434188   9.902  30.778   9.621
 2489POPC   GL134189   9.811  30.804   9.153
 2489POPC   GL234190   9.510  31.034   9.060
 2489POPC   C1A34191  10.015  30.788   8.738
 2489POPC   D2A34192   9.918  30.654   8.343
 2489POPC   C3A34193  10.161  30.668   7.980
 2489POPC   C4A34194   9.917  30.737   7.643
 2489POPC   C1B34195   9.510  30.643   8.768
 2489POPC   C2B34196   9.492  30.391   8.395
 2489POPC   C3B34197   9.547  30.581   7.990
 2489POPC   C4B34198   9.342  30.707   7.631
 2490POPC   NC334199  13.798  29.045   9.567
 2490POPC   PO434200  13.133  28.989   9.419
 2490POPC   GL134201  13.468  29.102   9.115
 2490POPC   GL234202  13.819  29.213   9.097
 2490POPC   C1A34203  13.499  29.208   8.684
 2490POPC   D2A34204  13.417  29.462   8.336
 2490POPC   C3A34205  13.626  29.281   8.004
 2490POPC   C4A34206  13.371  29.190   7.668
 2490POPC   C1B34207  13.998  28.954   8.818
 2490POPC   C2B34208  13.849  28.960   8.391
 2490POPC   C3B34209  13.880  28.821   7.977
 2490POPC   C4B34210  13.890  29.051   7.588
 2491POPC   NC334211  39.982  41.843   9.572
 2491POPC   PO434212  40.168  41.296   9.325
 2491POPC   GL134213  39.883  41.565   9.120
 2491POPC   GL234214  39.676  41.885   9.173
 2491POPC   C1A34215  39.901  41.443   8.710
 2491POPC   D2A34216  39.810  41.617   8.331
 2491POPC   C3A34217  40.070  41.510   8.012
 2491POPC   C4A34218  40.007  41.249   7.674
 2491POPC   C1B34219  39.868  41.949   8.771
 2491POPC   C2B34220  39.824  42.117   8.388
 2491POPC   C3B34221  39.908  41.999   7.979
 2491POPC   C4B34222  39.730  41.700   7.683
 2492POPC   NC334223   7.722  29.614   9.552
 2492POPC   PO434224   7.068  29.787   9.449
 2492POPC   GL134225   7.261  29.902   9.050
 2492POPC   GL234226   7.589  29.773   9.065
 2492POPC   C1A34227   7.509  30.229   8.780
 2492POPC   D2A34228   7.725  30.207   8.374
 2492POPC   C3A34229   7.471  29.961   8.086
 2492POPC   C4A34230   7.149  29.878   7.774
 2492POPC   C1B34231   7.562  29.739   8.619
 2492POPC   C2B34232   7.880  29.726   8.308
 2492POPC   C3B34233   7.884  29.648   7.895
 2492POPC   C4B34234   7.641  29.861   7.603
 2493POPC   NC334235  23.479  44.663   9.713
 2493POPC   PO434236  23.925  44.210   9.471
 2493POPC   GL134237  23.879  44.396   9.040
 2493POPC   GL234238  23.592  44.580   9.140
 2493POPC   C1A34239  24.016  44.616   8.640
 2493POPC   D2A34240  23.853  44.928   8.336
 2493POPC   C3A34241  23.963  44.938   7.894
 2493POPC   C4A34242  23.977  44.510   7.774
 2493POPC   C1B34243  23.568  44.896   8.808
 2493POPC   C2B34244  23.344  44.988   8.423
 2493POPC   C3B34245  23.467  44.890   7.999
 2493POPC   C4B34246  23.619  44.800   7.552
 2494POPC   NC334247  16.902  33.032   9.564
 2494POPC   PO434248  16.241  32.915   9.635
 2494POPC   GL134249  16.512  33.078   9.251
 2494POPC   GL234250  16.305  33.277   9.079
 2494POPC   C1A34251  16.891  33.016   8.907
 2494POPC   D2A34252  17.124  33.029   8.478
 2494POPC   C3A34253  16.990  32.823   8.088
 2494POPC   C4A34254  16.675  32.794   7.769
 2494POPC   C1B34255  16.522  33.302   8.722
 2494POPC   C2B34256  16.586  33.036   8.367
 2494POPC   C3B34257  16.558  33.232   7.975
 2494POPC   C4B34258  16.219  33.197   7.727
 2495POPC   NC334259   7.528  41.163   9.551
 2495POPC   PO434260   7.335  41.809   9.664
 2495POPC   GL134261   7.495  41.815   9.224
 2495POPC   GL234262   7.774  41.578   9.193
 2495POPC   C1A34263   7.367  41.548   8.829
 2495POPC   D2A34264   7.095  41.432   8.426
 2495POPC   C3A34265   7.332  41.490   8.026
 2495POPC   C4A34266   7.286  41.868   7.841
 2495POPC   C1B34267   7.896  41.414   8.765
 2495POPC   C2B34268   8.027  41.457   8.327
 2495POPC   C3B34269   7.826  41.250   7.949
 2495POPC   C4B34270   7.524  41.100   7.640
 2496POPC   NC334271  40.971   4.833   9.615
 2496POPC   PO434272  40.808   5.510   9.518
 2496POPC   GL134273  40.890   5.167   9.227
 2496POPC   GL234274  40.602   4.932   9.211
 2496POPC   C1A34275  40.832   5.170   8.798
 2496POPC   D2A34276  40.620   5.229   8.442
 2496POPC   C3A34277  40.877   5.171   8.099
 2496POPC   C4A34278  40.668   5.250   7.707
 2496POPC   C1B34279  40.421   4.874   8.794
 2496POPC   C2B34280  40.569   4.717   8.414
 2496POPC   C3B34281  40.521   4.839   7.991
 2496POPC   C4B34282  40.799   4.767   7.588
 2497POPC   NC334283  12.568   3.260   9.530
 2497POPC   PO434284  13.003   2.718   9.443
 2497POPC   GL134285  12.812   2.950   9.113
 2497POPC   GL234286  13.104   3.169   9.145
 2497POPC   C1A34287  12.841   2.841   8.642
 2497POPC   D2A34288  13.162   2.978   8.296
 2497POPC   C3A34289  13.087   2.723   7.928
 2497POPC   C4A34290  12.653   2.620   7.813
 2497POPC   C1B34291  12.906   3.323   8.756
 2497POPC   C2B34292  12.727   3.245   8.323
 2497POPC   C3B34293  12.791   3.126   7.853
 2497POPC   C4B34294  13.034   2.996   7.443
 2498POPC   NC334295   8.862  35.204   9.512
 2498POPC   PO434296   8.992  35.875   9.610
 2498POPC   GL134297   8.961  35.664   9.164
 2498POPC   GL234298   8.733  35.384   9.046
 2498POPC   C1A34299   8.844  35.686   8.696
 2498POPC   D2A34300   8.793  35.321   8.423
 2498POPC   C3A34301   8.988  35.389   8.034
 2498POPC   C4A34302   8.872  35.464   7.605
 2498POPC   C1B34303   9.118  35.245   8.825
 2498POPC   C2B34304   9.264  35.020   8.472
 2498POPC   C3B34305   9.131  34.897   8.078
 2498POPC   C4B34306   9.203  35.078   7.668
 2499POPC   NC334307  39.483   3.806   9.477
 2499POPC   PO434308  39.084   3.279   9.475
 2499POPC   GL134309  39.199   3.346   9.058
 2499POPC   GL234310  39.185   3.693   9.077
 2499POPC   C1A34311  39.317   3.239   8.620
 2499POPC   D2A34312  39.464   3.060   8.228
 2499POPC   C3A34313  39.335   3.255   7.875
 2499POPC   C4A34314  39.203   3.570   7.636
 2499POPC   C1B34315  39.483   3.710   8.718
 2499POPC   C2B34316  39.367   3.640   8.264
 2499POPC   C3B34317  39.617   3.739   7.896
 2499POPC   C4B34318  39.662   3.927   7.482
 2500POPC   NC334319  10.803  22.016   9.429
 2500POPC   PO434320  10.287  22.471   9.639
 2500POPC   GL134321  10.315  22.327   9.237
 2500POPC   GL234322  10.462  22.043   9.043
 2500POPC   C1A34323  10.165  22.387   8.870
 2500POPC   D2A34324  10.489  22.486   8.550
 2500POPC   C3A34325  10.547  22.214   8.213
 2500POPC   C4A34326  10.475  22.233   7.784
 2500POPC   C1B34327  10.396  21.954   8.644
 2500POPC   C2B34328  10.692  21.724   8.429
 2500POPC   C3B34329  10.813  21.799   8.041
 2500POPC   C4B34330  10.598  21.771   7.652
 2501POPC   NC334331   4.493  42.284   9.503
 2501POPC   PO434332   3.928  42.484   9.349
 2501POPC   GL134333   4.020  42.404   9.002
 2501POPC   GL234334   3.986  42.041   8.976
 2501POPC   C1A34335   4.243  42.679   8.714
 2501POPC   D2A34336   4.464  42.678   8.334
 2501POPC   C3A34337   4.270  42.392   8.037
 2501POPC   C4A34338   4.232  42.509   7.622
 2501POPC   C1B34339   4.133  42.213   8.560
 2501POPC   C2B34340   4.566  42.161   8.399
 2501POPC   C3B34341   4.636  41.924   8.051
 2501POPC   C4B34342   4.346  41.959   7.700
 2502POPC   NC334343  20.661  18.939   9.381
 2502POPC   PO434344  20.132  19.371   9.437
 2502POPC   GL134345  20.384  19.188   9.038
 2502POPC   GL234346  20.806  19.151   8.961
 2502POPC   C1A34347  20.287  18.784   8.826
 2502POPC   D2A34348  20.338  18.576   8.422
 2502POPC   C3A34349  20.301  18.890   8.115
 2502POPC   C4A34350  20.484  19.042   7.749
 2502POPC   C1B34351  20.663  19.013   8.558
 2502POPC   C2B34352  20.644  19.276   8.208
 2502POPC   C3B34353  20.933  19.170   7.935
 2502POPC   C4B34354  20.905  18.722   7.854
 2503POPC   NC334355  34.734  38.204   9.479
 2503POPC   PO434356  34.501  38.866   9.407
 2503POPC   GL134357  34.458  38.485   9.140
 2503POPC   GL234358  34.818  38.395   9.012
 2503POPC   C1A34359  34.431  38.541   8.704
 2503POPC   D2A34360  34.673  38.747   8.405
 2503POPC   C3A34361  34.577  38.600   7.984
 2503POPC   C4A34362  34.267  38.545   7.657
 2503POPC   C1B34363  34.682  38.073   8.721
 2503POPC   C2B34364  34.565  38.149   8.286
 2503POPC   C3B34365  34.661  38.099   7.822
 2503POPC   C4B34366  34.572  38.223   7.358
 2504POPC   NC334367  14.394  28.654   9.587
 2504POPC   PO434368  14.683  29.241   9.531
 2504POPC   GL134369  14.374  29.176   9.208
 2504POPC   GL234370  14.564  28.846   9.148
 2504POPC   C1A34371  14.211  29.426   8.840
 2504POPC   D2A34372  14.293  29.190   8.462
 2504POPC   C3A34373  14.161  29.265   8.045
 2504POPC   C4A34374  14.428  29.396   7.727
 2504POPC   C1B34375  14.521  28.813   8.736
 2504POPC   C2B34376  14.737  28.926   8.393
 2504POPC   C3B34377  14.641  29.010   8.002
 2504POPC   C4B34378  14.338  28.833   7.772
 2505POPC   NC334379  11.715  38.094   9.757
 2505POPC   PO434380  11.160  38.525   9.641
 2505POPC   GL134381  11.433  38.304   9.356
 2505POPC   GL234382  11.488  38.600   9.164
 2505POPC   C1A34383  11.445  38.154   8.917
 2505POPC   D2A34384  11.628  38.270   8.517
 2505POPC   C3A34385  11.365  38.289   8.145
 2505POPC   C4A34386  11.402  38.406   7.707
 2505POPC   C1B34387  11.407  38.705   8.726
 2505POPC   C2B34388  11.060  38.674   8.394
 2505POPC   C3B34389  11.165  38.765   7.977
 2505POPC   C4B34390  11.513  39.046   7.907
 2506POPC   NC334391  40.697  12.468   9.776
 2506POPC   PO434392  40.894  11.856   9.648
 2506POPC   GL134393  40.944  12.129   9.270
 2506POPC   GL234394  40.669  12.394   9.238
 2506POPC   C1A34395  40.929  12.227   8.811
 2506POPC   D2A34396  41.017  12.115   8.357
 2506POPC   C3A34397  40.776  11.878   8.056
 2506POPC   C4A34398  41.000  11.542   7.848
 2506POPC   C1B34399  40.404  12.438   8.855
 2506POPC   C2B34400  40.552  12.330   8.476
 2506POPC   C3B34401  40.520  12.344   8.069
 2506POPC   C4B34402  40.912  12.343   7.882
 2507POPC   NC334403  40.272  33.600   9.713
 2507POPC   PO434404  39.850  34.033   9.518
 2507POPC   GL134405  39.990  33.890   9.127
 2507POPC   GL234406  39.704  33.725   9.087
 2507POPC   C1A34407  40.115  34.086   8.689
 2507POPC   D2A34408  40.144  34.152   8.201
 2507POPC   C3A34409  40.175  33.805   7.867
 2507POPC   C4A34410  40.212  33.898   7.388
 2507POPC   C1B34411  39.832  33.658   8.694
 2507POPC   C2B34412  39.744  33.818   8.293
 2507POPC   C3B34413  39.676  33.583   7.932
 2507POPC   C4B34414  39.801  33.643   7.536
 2508POPC   NC334415  23.694  31.789   9.749
 2508POPC   PO434416  23.308  31.269   9.527
 2508POPC   GL134417  23.518  31.247   9.150
 2508POPC   GL234418  23.784  31.482   9.176
 2508POPC   C1A34419  23.440  31.390   8.734
 2508POPC   D2A34420  23.646  31.746   8.474
 2508POPC   C3A34421  23.572  31.724   8.004
 2508POPC   C4A34422  23.733  31.597   7.583
 2508POPC   C1B34423  23.940  31.415   8.768
 2508POPC   C2B34424  23.805  31.260   8.363
 2508POPC   C3B34425  23.878  31.222   7.927
 2508POPC   C4B34426  24.125  31.258   7.555
 2509POPC   NC334427  33.645  11.789   9.753
 2509POPC   PO434428  33.488  11.149   9.553
 2509POPC   GL134429  33.882  11.108   9.195
 2509POPC   GL234430  33.850  11.358   8.926
 2509POPC   C1A34431  34.033  10.954   8.738
 2509POPC   D2A34432  34.096  11.233   8.343
 2509POPC   C3A34433  33.915  11.229   7.925
 2509POPC   C4A34434  33.523  11.130   7.739
 2509POPC   C1B34435  33.550  11.547   8.631
 2509POPC   C2B34436  33.560  11.474   8.191
 2509POPC   C3B34437  33.573  11.633   7.766
 2509POPC   C4B34438  33.680  11.461   7.346
 2510POPC   NC334439  27.082  22.025   9.459
 2510POPC   PO434440  26.662  22.485   9.554
 2510POPC   GL134441  26.780  22.374   9.153
 2510POPC   GL234442  26.732  22.002   9.084
 2510POPC   C1A34443  26.580  22.396   8.746
 2510POPC   D2A34444  26.578  22.662   8.389
 2510POPC   C3A34445  26.610  22.453   8.008
 2510POPC   C4A34446  26.963  22.418   7.705
 2510POPC   C1B34447  27.042  22.157   8.776
 2510POPC   C2B34448  26.958  22.240   8.345
 2510POPC   C3B34449  27.224  21.989   8.077
 2510POPC   C4B34450  27.192  21.929   7.647
 2511POPC   NC334451  14.418  15.524   9.771
 2511POPC   PO434452  14.094  16.058   9.666
 2511POPC   GL134453  14.221  16.002   9.220
 2511POPC   GL234454  14.335  15.702   9.137
 2511POPC   C1A34455  14.384  16.112   8.795
 2511POPC   D2A34456  14.115  16.316   8.497
 2511POPC   C3A34457  14.133  16.096   8.106
 2511POPC   C4A34458  14.470  16.055   7.818
 2511POPC   C1B34459  14.633  15.658   8.763
 2511POPC   C2B34460  14.632  15.800   8.338
 2511POPC   C3B34461  14.749  15.644   7.932
 2511POPC   C4B34462  14.608  15.690   7.478
 2512POPC   NC334463  12.440  38.754   9.359
 2512POPC   PO434464  12.107  38.382   9.791
 2512POPC   GL134465  11.943  38.453   9.388
 2512POPC   GL234466  11.933  38.788   9.306
 2512POPC   C1A34467  11.938  38.356   8.932
 2512POPC   D2A34468  12.223  38.166   8.622
 2512POPC   C3A34469  12.192  38.253   8.175
 2512POPC   C4A34470  11.875  38.294   7.864
 2512POPC   C1B34471  11.977  38.856   8.850
 2512POPC   C2B34472  11.951  38.648   8.442
 2512POPC   C3B34473  11.988  38.765   8.010
 2512POPC   C4B34474  12.303  38.630   7.680
 2513POPC   NC334475  32.455   4.728   9.451
 2513POPC   PO434476  31.994   5.270   9.474
 2513POPC   GL134477  32.304   5.130   9.189
 2513POPC   GL234478  32.544   5.365   9.117
 2513POPC   C1A34479  32.537   4.917   8.812
 2513POPC   D2A34480  32.329   4.631   8.482
 2513POPC   C3A34481  32.262   4.816   8.046
 2513POPC   C4A34482  32.549   4.987   7.721
 2513POPC   C1B34483  32.270   5.353   8.741
 2513POPC   C2B34484  32.425   5.226   8.322
 2513POPC   C3B34485  32.358   5.413   7.912
 2513POPC   C4B34486  32.109   5.191   7.580
 2514POPC   NC334487   8.894   7.936   9.469
 2514POPC   PO434488   9.196   8.544   9.485
 2514POPC   GL134489   9.026   8.307   9.148
 2514POPC   GL234490   9.223   7.980   9.098
 2514POPC   C1A34491   8.840   8.176   8.785
 2514POPC   D2A34492   8.985   8.220   8.376
 2514POPC   C3A34493   8.771   8.180   8.013
 2514POPC   C4A34494   8.770   8.531   7.724
 2514POPC   C1B34495   9.352   8.090   8.714
 2514POPC   C2B34496   9.357   7.880   8.309
 2514POPC   C3B34497   9.323   8.137   7.953
 2514POPC   C4B34498   9.215   8.243   7.510
 2515POPC   NC334499  30.254  44.729   9.446
 2515POPC   PO434500  29.550  44.687   9.197
 2515POPC   GL134501  29.942  44.626   9.043
 2515POPC   GL234502  30.115  44.976   9.031
 2515POPC   C1A34503  29.925  44.361   8.684
 2515POPC   D2A34504  30.177  44.364   8.335
 2515POPC   C3A34505  30.073  44.627   8.045
 2515POPC   C4A34506  29.805  44.534   7.704
 2515POPC   C1B34507  30.104  44.841   8.609
 2515POPC   C2B34508  29.721  44.780   8.410
 2515POPC   C3B34509  29.653  44.906   8.014
 2515POPC   C4B34510  29.871   0.025   7.653
 2516POPC   NC334511  17.189  25.249   9.529
 2516POPC   PO434512  16.479  25.324   9.571
 2516POPC   GL134513  16.617  25.327   9.163
 2516POPC   GL234514  16.928  25.513   9.151
 2516POPC   C1A34515  16.763  25.180   8.780
 2516POPC   D2A34516  16.628  25.031   8.391
 2516POPC   C3A34517  16.521  25.343   8.139
 2516POPC   C4A34518  16.620  25.381   7.728
 2516POPC   C1B34519  17.154  25.531   8.767
 2516POPC   C2B34520  17.046  25.362   8.353
 2516POPC   C3B34521  17.281  25.423   7.964
 2516POPC   C4B34522  17.105  25.454   7.573
 2517POPC   NC334523  22.351  28.841   9.637
 2517POPC   PO434524  21.945  28.348   9.465
 2517POPC   GL134525  22.175  28.312   9.105
 2517POPC   GL234526  22.293  28.644   9.160
 2517POPC   C1A34527  22.063  28.112   8.713
 2517POPC   D2A34528  21.894  27.975   8.322
 2517POPC   C3A34529  22.060  28.149   7.933
 2517POPC   C4A34530  22.117  27.945   7.502
 2517POPC   C1B34531  22.123  28.667   8.744
 2517POPC   C2B34532  22.008  28.512   8.349
 2517POPC   C3B34533  21.950  28.684   7.955
 2517POPC   C4B34534  22.255  28.688   7.690
 2518POPC   NC334535  11.636  23.896   9.336
 2518POPC   PO434536  11.237  23.418   9.635
 2518POPC   GL134537  11.153  23.726   9.237
 2518POPC   GL234538  10.897  23.983   9.317
 2518POPC   C1A34539  11.352  23.847   8.775
 2518POPC   D2A34540  11.582  24.032   8.432
 2518POPC   C3A34541  11.520  23.746   8.123
 2518POPC   C4A34542  11.376  23.592   7.771
 2518POPC   C1B34543  10.882  24.003   8.860
 2518POPC   C2B34544  10.965  23.903   8.405
 2518POPC   C3B34545  11.037  23.937   7.960
 2518POPC   C4B34546  11.213  24.013   7.537
 2519POPC   NC334547  16.017  13.511   9.847
 2519POPC   PO434548  16.247  14.035   9.601
 2519POPC   GL134549  15.922  13.814   9.345
 2519POPC   GL234550  16.149  13.581   9.232
 2519POPC   C1A34551  15.723  13.923   8.917
 2519POPC   D2A34552  15.721  13.862   8.465
 2519POPC   C3A34553  15.655  13.824   8.031
 2519POPC   C4A34554  15.926  13.762   7.648
 2519POPC   C1B34555  16.101  13.591   8.775
 2519POPC   C2B34556  16.243  13.644   8.341
 2519POPC   C3B34557  16.203  13.444   7.937
 2519POPC   C4B34558  16.381  13.517   7.532
 2520POPC   NC334559  31.566   4.592   9.596
 2520POPC   PO434560  31.657   3.949   9.674
 2520POPC   GL134561  31.392   4.169   9.321
 2520POPC   GL234562  31.638   4.369   9.156
 2520POPC   C1A34563  31.261   4.269   8.863
 2520POPC   D2A34564  31.456   4.197   8.443
 2520POPC   C3A34565  31.290   4.293   8.033
 2520POPC   C4A34566  31.441   4.387   7.625
 2520POPC   C1B34567  31.623   4.602   8.771
 2520POPC   C2B34568  31.811   4.567   8.375
 2520POPC   C3B34569  31.642   4.727   8.006
 2520POPC   C4B34570  31.827   4.740   7.629
 2521POPC   NC334571  43.048  34.970   9.562
 2521POPC   PO434572  43.370  34.415   9.456
 2521POPC   GL134573  43.081  34.460   9.066
 2521POPC   GL234574  42.802  34.212   9.049
 2521POPC   C1A34575  43.168  34.589   8.609
 2521POPC   D2A34576  43.224  34.328   8.212
 2521POPC   C3A34577  43.299  34.482   7.784
 2521POPC   C4A34578  43.554  34.651   7.440
 2521POPC   C1B34579  42.705  34.441   8.690
 2521POPC   C2B34580  42.747  34.487   8.235
 2521POPC   C3B34581  42.810  34.343   7.852
 2521POPC   C4B34582  42.903  34.654   7.507
 2522POPC   NC334583  43.452   3.058   9.341
 2522POPC   PO434584  42.959   2.684   9.610
 2522POPC   GL134585  43.013   2.749   9.160
 2522POPC   GL234586  42.984   3.075   9.133
 2522POPC   C1A34587  43.209   2.774   8.752
 2522POPC   D2A34588  43.435   2.447   8.540
 2522POPC   C3A34589  43.371   2.504   8.101
 2522POPC   C4A34590  43.338   2.849   7.818
 2522POPC   C1B34591  42.845   3.204   8.726
 2522POPC   C2B34592  42.730   3.364   8.351
 2522POPC   C3B34593  42.936   3.276   7.988
 2522POPC   C4B34594  42.882   3.058   7.657
 2523POPC   NC334595  12.848  28.617   9.443
 2523POPC   PO434596  12.130  28.380   9.520
 2523POPC   GL134597  12.072  28.553   9.145
 2523POPC   GL234598  12.389  28.650   9.152
 2523POPC   C1A34599  11.969  28.382   8.735
 2523POPC   D2A34600  12.147  28.325   8.312
 2523POPC   C3A34601  11.922  28.317   7.904
 2523POPC   C4A34602  12.052  28.263   7.475
 2523POPC   C1B34603  12.370  28.703   8.726
 2523POPC   C2B34604  12.545  28.674   8.328
 2523POPC   C3B34605  12.342  28.633   7.957
 2523POPC   C4B34606  12.414  28.598   7.545
 2524POPC   NC334607  29.457   0.081   9.428
 2524POPC   PO434608  30.076   0.410   9.417
 2524POPC   GL134609  29.956   0.464   9.003
 2524POPC   GL234610  29.592   0.397   9.025
 2524POPC   C1A34611  30.184   0.360   8.606
 2524POPC   D2A34612  30.059   0.163   8.214
 2524POPC   C3A34613  30.021   0.434   7.884
 2524POPC   C4A34614  30.101   0.430   7.424
 2524POPC   C1B34615  29.679   0.343   8.585
 2524POPC   C2B34616  29.597   0.567   8.227
 2524POPC   C3B34617  29.508   0.375   7.845
 2524POPC   C4B34618  29.321  44.981   7.653
 2525POPC   NC334619  37.281  14.775   9.482
 2525POPC   PO434620  36.753  15.098   9.579
 2525POPC   GL134621  36.974  15.174   9.159
 2525POPC   GL234622  37.034  15.543   9.073
 2525POPC   C1A34623  36.781  15.245   8.729
 2525POPC   D2A34624  36.808  15.018   8.323
 2525POPC   C3A34625  36.719  15.201   7.913
 2525POPC   C4A34626  36.656  15.368   7.483
 2525POPC   C1B34627  37.265  15.318   8.708
 2525POPC   C2B34628  37.355  15.104   8.324
 2525POPC   C3B34629  37.238  15.213   7.905
 2525POPC   C4B34630  37.045  15.063   7.521
 2526POPC   NC334631  28.894  20.447   9.546
 2526POPC   PO434632  29.538  20.438   9.488
 2526POPC   GL134633  29.230  20.485   9.145
 2526POPC   GL234634  28.892  20.614   9.080
 2526POPC   C1A34635  29.301  20.509   8.722
 2526POPC   D2A34636  29.504  20.400   8.339
 2526POPC   C3A34637  29.268  20.545   8.024
 2526POPC   C4A34638  29.371  20.647   7.650
 2526POPC   C1B34639  28.859  20.916   8.761
 2526POPC   C2B34640  28.666  20.904   8.375
 2526POPC   C3B34641  28.842  20.951   7.985
 2526POPC   C4B34642  28.876  20.691   7.648
 2527POPC   NC334643  15.346  32.019   9.608
 2527POPC   PO434644  14.957  32.403   9.273
 2527POPC   GL134645  15.311  32.255   9.106
 2527POPC   GL234646  15.279  31.898   9.122
 2527POPC   C1A34647  15.271  32.330   8.682
 2527POPC   D2A34648  15.014  32.267   8.315
 2527POPC   C3A34649  15.269  32.372   7.978
 2527POPC   C4A34650  15.161  32.350   7.559
 2527POPC   C1B34651  15.539  31.890   8.784
 2527POPC   C2B34652  15.525  32.029   8.361
 2527POPC   C3B34653  15.328  31.868   8.019
 2527POPC   C4B34654  15.569  31.965   7.672
 2528POPC   NC334655  37.275  10.818   9.460
 2528POPC   PO434656  36.709  10.346   9.477
 2528POPC   GL134657  36.868  10.460   9.132
 2528POPC   GL234658  36.635  10.698   9.037
 2528POPC   C1A34659  36.747  10.319   8.712
 2528POPC   D2A34660  36.601  10.280   8.287
 2528POPC   C3A34661  36.855  10.310   7.917
 2528POPC   C4A34662  37.175  10.560   7.694
 2528POPC   C1B34663  37.031  10.842   8.811
 2528POPC   C2B34664  37.138  11.035   8.395
 2528POPC   C3B34665  36.929  10.859   8.010
 2528POPC   C4B34666  36.786  10.992   7.577
 2529POPC   NC334667  26.334  30.372   9.601
 2529POPC   PO434668  25.882  29.758   9.589
 2529POPC   GL134669  25.830  29.611   9.176
 2529POPC   GL234670  26.147  29.630   8.961
 2529POPC   C1A34671  25.656  29.721   8.769
 2529POPC   D2A34672  25.922  29.586   8.469
 2529POPC   C3A34673  25.915  29.775   8.093
 2529POPC   C4A34674  26.061  29.564   7.709
 2529POPC   C1B34675  26.039  30.063   8.854
 2529POPC   C2B34676  25.945  30.206   8.439
 2529POPC   C3B34677  26.185  30.280   8.067
 2529POPC   C4B34678  26.032  30.063   7.694
 2530POPC   NC334679   6.686  12.617   9.371
 2530POPC   PO434680   6.375  13.171   9.469
 2530POPC   GL134681   6.545  13.033   9.099
 2530POPC   GL234682   6.818  13.198   9.125
 2530POPC   C1A34683   6.464  12.742   8.753
 2530POPC   D2A34684   6.680  12.620   8.384
 2530POPC   C3A34685   6.429  12.649   8.037
 2530POPC   C4A34686   6.395  12.492   7.646
 2530POPC   C1B34687   6.943  12.925   8.770
 2530POPC   C2B34688   7.015  13.004   8.332
 2530POPC   C3B34689   6.925  12.785   7.951
 2530POPC   C4B34690   6.751  12.915   7.547
 2531POPC   NC334691  28.838  44.865   9.673
 2531POPC   PO434692  29.459  44.681   9.713
 2531POPC   GL134693  29.085  44.581   9.347
 2531POPC   GL234694  29.020  44.911   9.194
 2531POPC   C1A34695  29.015  44.492   8.870
 2531POPC   D2A34696  29.208  44.659   8.447
 2531POPC   C3A34697  29.364  44.472   8.010
 2531POPC   C4A34698  29.281  44.495   7.533
 2531POPC   C1B34699  28.772  44.963   8.830
 2531POPC   C2B34700  28.810   0.052   8.377
 2531POPC   C3B34701  28.952  44.796   8.016
 2531POPC   C4B34702  28.667  44.596   7.756
 2532POPC   NC334703   0.197   5.595   9.470
 2532POPC   PO434704   0.637   6.024   9.572
 2532POPC   GL134705   0.459   6.078   9.150
 2532POPC   GL234706   0.159   5.909   9.048
 2532POPC   C1A34707   0.575   5.851   8.761
 2532POPC   D2A34708   0.798   5.608   8.461
 2532POPC   C3A34709   0.745   5.685   8.006
 2532POPC   C4A34710   0.576   5.477   7.616
 2532POPC   C1B34711   0.056   5.833   8.633
 2532POPC   C2B34712   0.303   5.691   8.304
 2532POPC   C3B34713   0.185   5.667   7.893
 2532POPC   C4B34714   0.149   5.940   7.581
 2533POPC   NC334715  31.781  31.393   9.495
 2533POPC   PO434716  31.160  31.401   9.334
 2533POPC   GL134717  31.351  31.505   9.004
 2533POPC   GL234718  31.682  31.357   9.004
 2533POPC   C1A34719  31.302  31.324   8.616
 2533POPC   D2A34720  31.566  31.219   8.283
 2533POPC   C3A34721  31.237  31.203   7.978
 2533POPC   C4A34722  31.097  31.552   7.771
 2533POPC   C1B34723  32.004  31.270   8.692
 2533POPC   C2B34724  32.122  31.400   8.306
 2533POPC   C3B34725  31.851  31.643   8.094
 2533POPC   C4B34726  31.596  31.493   7.760
 2534POPC   NC334727   5.005   9.336   9.410
 2534POPC   PO434728   4.842  10.048   9.534
 2534POPC   GL134729   5.095   9.841   9.238
 2534POPC   GL234730   4.765   9.713   9.158
 2534POPC   C1A34731   5.170   9.767   8.795
 2534POPC   D2A34732   5.111   9.555   8.388
 2534POPC   C3A34733   5.301   9.765   8.044
 2534POPC   C4A34734   5.390   9.683   7.625
 2534POPC   C1B34735   4.705   9.522   8.806
 2534POPC   C2B34736   4.619   9.711   8.451
 2534POPC   C3B34737   4.769   9.792   8.061
 2534POPC   C4B34738   4.918   9.532   7.744
 2535POPC   NC334739   1.442  14.585   9.421
 2535POPC   PO434740   0.910  14.155   9.473
 2535POPC   GL134741   0.964  14.358   9.089
 2535POPC   GL234742   1.060  14.675   9.084
 2535POPC   C1A34743   0.965  14.433   8.632
 2535POPC   D2A34744   1.083  14.081   8.336
 2535POPC   C3A34745   1.336  14.159   7.969
 2535POPC   C4A34746   0.994  14.302   7.691
 2535POPC   C1B34747   1.389  14.754   8.801
 2535POPC   C2B34748   1.376  14.657   8.409
 2535POPC   C3B34749   1.140  14.601   8.074
 2535POPC   C4B34750   1.402  14.636   7.695
 2536POPC   NC334751   6.229   3.711   9.516
 2536POPC   PO434752   5.671   3.351   9.646
 2536POPC   GL134753   5.795   3.581   9.268
 2536POPC   GL234754   6.074   3.439   9.122
 2536POPC   C1A34755   5.611   3.571   8.856
 2536POPC   D2A34756   5.490   3.655   8.461
 2536POPC   C3A34757   5.817   3.632   8.177
 2536POPC   C4A34758   5.801   3.606   7.745
 2536POPC   C1B34759   6.080   3.395   8.706
 2536POPC   C2B34760   6.268   3.419   8.346
 2536POPC   C3B34761   6.199   3.259   7.966
 2536POPC   C4B34762   6.292   3.451   7.621
 2537POPC   NC334763  26.200  33.039   9.566
 2537POPC   PO434764  25.548  32.902   9.442
 2537POPC   GL134765  25.822  33.200   9.233
 2537POPC   GL234766  26.003  32.895   9.108
 2537POPC   C1A34767  26.114  33.317   8.862
 2537POPC   D2A34768  26.304  33.328   8.409
 2537POPC   C3A34769  26.636  33.045   8.218
 2537POPC   C4A34770  26.580  32.885   7.791
 2537POPC   C1B34771  26.328  32.883   8.767
 2537POPC   C2B34772  26.263  32.750   8.383
 2537POPC   C3B34773  26.308  32.535   8.012
 2537POPC   C4B34774  26.159  32.654   7.590
 2538POPC   NC334775  38.022  43.240   9.523
 2538POPC   PO434776  37.376  42.802   9.497
 2538POPC   GL134777  37.588  43.093   9.228
 2538POPC   GL234778  37.402  43.368   9.077
 2538POPC   C1A34779  37.781  43.106   8.816
 2538POPC   D2A34780  37.842  43.234   8.383
 2538POPC   C3A34781  37.608  43.332   8.026
 2538POPC   C4A34782  37.797  43.184   7.641
 2538POPC   C1B34783  37.358  43.308   8.616
 2538POPC   C2B34784  37.393  42.957   8.324
 2538POPC   C3B34785  37.209  42.954   7.921
 2538POPC   C4B34786  37.321  43.011   7.479
 2539POPC   NC334787   6.416  10.259   9.443
 2539POPC   PO434788   6.699  10.829   9.556
 2539POPC   GL134789   6.561  10.669   9.171
 2539POPC   GL234790   6.437  10.990   9.080
 2539POPC   C1A34791   6.644  10.325   8.820
 2539POPC   D2A34792   6.625  10.083   8.439
 2539POPC   C3A34793   6.618  10.231   8.021
 2539POPC   C4A34794   6.941  10.081   7.760
 2539POPC   C1B34795   6.728  10.820   8.737
 2539POPC   C2B34796   6.627  10.640   8.358
 2539POPC   C3B34797   6.690  10.786   7.947
 2539POPC   C4B34798   6.538  10.919   7.544
 2540POPC   NC334799  42.416  20.249   9.659
 2540POPC   PO434800  42.264  20.863   9.602
 2540POPC   GL134801  42.406  20.587   9.234
 2540POPC   GL234802  42.527  20.231   9.167
 2540POPC   C1A34803  42.287  20.548   8.809
 2540POPC   D2A34804  42.444  20.735   8.449
 2540POPC   C3A34805  42.341  20.612   8.043
 2540POPC   C4A34806  42.147  20.789   7.692
 2540POPC   C1B34807  42.740  20.314   8.788
 2540POPC   C2B34808  42.879  20.450   8.391
 2540POPC   C3B34809  42.735  20.305   7.992
 2540POPC   C4B34810  42.558  20.219   7.599
 2541POPC   NC334811  25.672   4.102   9.347
 2541POPC   PO434812  25.264   4.594   9.523
 2541POPC   GL134813  25.105   4.416   9.172
 2541POPC   GL234814  25.414   4.372   9.011
 2541POPC   C1A34815  24.938   4.317   8.765
 2541POPC   D2A34816  25.061   4.379   8.327
 2541POPC   C3A34817  24.891   4.293   7.978
 2541POPC   C4A34818  24.951   3.938   7.777
 2541POPC   C1B34819  25.391   4.103   8.689
 2541POPC   C2B34820  25.539   4.114   8.343
 2541POPC   C3B34821  25.409   4.035   7.965
 2541POPC   C4B34822  25.531   4.264   7.629
 2542POPC   NC334823  39.770  10.302   9.498
 2542POPC   PO434824  40.179  10.834   9.551
 2542POPC   GL134825  40.118  10.564   9.210
 2542POPC   GL234826  39.834  10.731   9.138
 2542POPC   C1A34827  40.197  10.346   8.826
 2542POPC   D2A34828  40.394  10.541   8.483
 2542POPC   C3A34829  40.365  10.401   8.078
 2542POPC   C4A34830  40.042  10.410   7.773
 2542POPC   C1B34831  39.701  10.383   8.866
 2542POPC   C2B34832  39.698  10.353   8.467
 2542POPC   C3B34833  39.641  10.300   8.050
 2542POPC   C4B34834  39.560  10.423   7.618
 2543POPC   NC334835  37.713   3.515   9.734
 2543POPC   PO434836  37.422   3.156   9.246
 2543POPC   GL134837  37.733   3.288   8.979
 2543POPC   GL234838  37.751   3.601   9.192
 2543POPC   C1A34839  37.623   3.279   8.543
 2543POPC   D2A34840  37.491   3.566   8.197
 2543POPC   C3A34841  37.509   3.387   7.767
 2543POPC   C4A34842  37.573   3.189   7.338
 2543POPC   C1B34843  37.910   3.716   8.769
 2543POPC   C2B34844  38.051   3.502   8.411
 2543POPC   C3B34845  37.962   3.489   8.005
 2543POPC   C4B34846  37.790   3.848   7.827
 2544POPC   NC334847   1.109  17.766   9.576
 2544POPC   PO434848   1.095  17.103   9.584
 2544POPC   GL134849   1.222  17.413   9.211
 2544POPC   GL234850   1.504  17.676   9.233
 2544POPC   C1A34851   1.170  17.538   8.761
 2544POPC   D2A34852   1.064  17.304   8.365
 2544POPC   C3A34853   1.194  17.531   8.002
 2544POPC   C4A34854   1.076  17.539   7.584
 2544POPC   C1B34855   1.540  17.896   8.837
 2544POPC   C2B34856   1.677  17.906   8.414
 2544POPC   C3B34857   1.733  17.705   8.004
 2544POPC   C4B34858   1.473  17.883   7.691
 2545POPC   NC334859   6.691  24.070   9.464
 2545POPC   PO434860   6.572  24.726   9.545
 2545POPC   GL134861   6.622  24.484   9.152
 2545POPC   GL234862   6.964  24.435   9.145
 2545POPC   C1A34863   6.413  24.507   8.732
 2545POPC   D2A34864   6.161  24.559   8.365
 2545POPC   C3A34865   6.304  24.356   8.014
 2545POPC   C4A34866   6.367  24.498   7.623
 2545POPC   C1B34867   6.925  24.634   8.725
 2545POPC   C2B34868   6.709  24.632   8.313
 2545POPC   C3B34869   6.795  24.584   7.875
 2545POPC   C4B34870   6.988  24.293   7.587
 2546POPC   NC334871  34.331  21.151   9.330
 2546POPC   PO434872  34.859  21.612   9.379
 2546POPC   GL134873  34.733  21.369   9.067
 2546POPC   GL234874  34.796  21.016   9.132
 2546POPC   C1A34875  34.465  21.471   8.700
 2546POPC   D2A34876  34.209  21.764   8.427
 2546POPC   C3A34877  34.354  21.609   8.046
 2546POPC   C4A34878  34.342  21.222   7.891
 2546POPC   C1B34879  34.966  21.087   8.728
 2546POPC   C2B34880  35.072  21.268   8.340
 2546POPC   C3B34881  34.874  21.379   7.956
 2546POPC   C4B34882  34.859  21.147   7.601
 2547POPC   NC334883  33.537  42.866   9.537
 2547POPC   PO434884  33.817  42.199   9.478
 2547POPC   GL134885  33.888  42.519   9.160
 2547POPC   GL234886  33.574  42.727   9.051
 2547POPC   C1A34887  33.988  42.266   8.767
 2547POPC   D2A34888  34.000  42.007   8.395
 2547POPC   C3A34889  33.857  42.078   7.966
 2547POPC   C4A34890  33.583  41.755   7.872
 2547POPC   C1B34891  33.861  42.744   8.708
 2547POPC   C2B34892  33.927  42.537   8.313
 2547POPC   C3B34893  34.091  42.542   7.897
 2547POPC   C4B34894  33.921  42.377   7.515
 2548POPC   NC334895  38.739  36.315   9.501
 2548POPC   PO434896  38.286  35.889   9.528
 2548POPC   GL134897  38.371  36.068   9.136
 2548POPC   GL234898  38.690  35.913   9.033
 2548POPC   C1A34899  38.270  36.230   8.721
 2548POPC   D2A34900  38.199  35.990   8.329
 2548POPC   C3A34901  38.532  35.983   8.024
 2548POPC   C4A34902  38.344  36.358   7.900
 2548POPC   C1B34903  38.705  36.027   8.573
 2548POPC   C2B34904  38.599  36.395   8.334
 2548POPC   C3B34905  38.823  36.488   7.967
 2548POPC   C4B34906  38.845  36.241   7.587
 2549POPC   NC334907  41.179  39.722   9.468
 2549POPC   PO434908  40.467  39.836   9.475
 2549POPC   GL134909  40.645  40.127   9.176
 2549POPC   GL234910  41.005  40.153   9.184
 2549POPC   C1A34911  40.769  39.966   8.775
 2549POPC   D2A34912  41.007  39.689   8.569
 2549POPC   C3A34913  40.854  39.700   8.130
 2549POPC   C4A34914  40.979  39.785   7.699
 2549POPC   C1B34915  41.228  40.173   8.774
 2549POPC   C2B34916  41.056  40.148   8.357
 2549POPC   C3B34917  40.957  40.230   7.938
 2549POPC   C4B34918  41.106  40.228   7.495
 2550POPC   NC334919   7.517   7.356   9.468
 2550POPC   PO434920   7.512   6.768   9.252
 2550POPC   GL134921   7.247   7.124   9.051
 2550POPC   GL234922   7.181   7.516   9.112
 2550POPC   C1A34923   7.404   7.361   8.685
 2550POPC   D2A34924   7.275   7.458   8.279
 2550POPC   C3A34925   7.535   7.303   7.976
 2550POPC   C4A34926   7.810   7.502   7.716
 2550POPC   C1B34927   7.102   7.781   8.724
 2550POPC   C2B34928   7.262   7.974   8.339
 2550POPC   C3B34929   7.273   7.827   7.908
 2550POPC   C4B34930   7.083   7.469   7.762
 2551POPC   NC334931  33.617  11.535   9.315
 2551POPC   PO434932  33.879  12.161   9.607
 2551POPC   GL134933  33.798  12.002   9.204
 2551POPC   GL234934  34.065  11.818   9.036
 2551POPC   C1A34935  33.714  12.045   8.748
 2551POPC   D2A34936  33.729  12.336   8.355
 2551POPC   C3A34937  33.795  12.182   7.904
 2551POPC   C4A34938  34.033  12.367   7.531
 2551POPC   C1B34939  34.053  11.684   8.594
 2551POPC   C2B34940  34.002  11.715   8.112
 2551POPC   C3B34941  34.059  11.661   7.636
 2551POPC   C4B34942  34.208  11.920   7.276
 2552POPC   NC334943   7.270   9.864   9.566
 2552POPC   PO434944   6.620   9.826   9.518
 2552POPC   GL134945   6.897   9.733   9.197
 2552POPC   GL234946   7.099   9.443   9.286
 2552POPC   C1A34947   6.694   9.730   8.800
 2552POPC   D2A34948   6.394   9.555   8.458
 2552POPC   C3A34949   6.241   9.876   8.169
 2552POPC   C4A34950   6.234   9.998   7.746
 2552POPC   C1B34951   7.141   9.466   8.843
 2552POPC   C2B34952   6.895   9.402   8.482
 2552POPC   C3B34953   6.815   9.668   8.137
 2552POPC   C4B34954   6.575   9.654   7.818
 2553POPC   NC334955  30.606  12.158   9.480
 2553POPC   PO434956  30.910  11.691   9.709
 2553POPC   GL134957  30.991  11.911   9.252
 2553POPC   GL234958  30.672  11.818   9.120
 2553POPC   C1A34959  30.989  11.875   8.752
 2553POPC   D2A34960  30.810  11.904   8.382
 2553POPC   C3A34961  30.970  12.097   8.074
 2553POPC   C4A34962  31.003  12.055   7.644
 2553POPC   C1B34963  30.463  12.032   8.731
 2553POPC   C2B34964  30.432  12.185   8.270
 2553POPC   C3B34965  30.517  11.959   7.873
 2553POPC   C4B34966  30.235  11.802   7.550
 2554POPC   NC334967  19.513   0.576   9.696
 2554POPC   PO434968  20.056   0.221   9.429
 2554POPC   GL134969  19.775   0.456   9.188
 2554POPC   GL234970  19.955   0.747   9.239
 2554POPC   C1A34971  19.674   0.371   8.749
 2554POPC   D2A34972  19.897   0.138   8.395
 2554POPC   C3A34973  19.756   0.303   8.030
 2554POPC   C4A34974  19.837   0.393   7.638
 2554POPC   C1B34975  19.896   0.834   8.796
 2554POPC   C2B34976  19.755   0.743   8.353
 2554POPC   C3B34977  19.967   0.792   7.922
 2554POPC   C4B34978  19.862   0.877   7.475
 2555POPC   NC334979   3.250   7.044   9.309
 2555POPC   PO434980   3.616   7.581   9.510
 2555POPC   GL134981   3.572   7.412   9.143
 2555POPC   GL234982   3.238   7.551   9.160
 2555POPC   C1A34983   3.751   7.513   8.738
 2555POPC   D2A34984   3.642   7.471   8.343
 2555POPC   C3A34985   3.970   7.419   8.051
 2555POPC   C4A34986   3.606   7.537   7.809
 2555POPC   C1B34987   3.256   7.370   8.739
 2555POPC   C2B34988   3.097   7.328   8.350
 2555POPC   C3B34989   3.154   7.133   7.961
 2555POPC   C4B34990   3.170   7.355   7.578
 2556POPC   NC334991  40.916  22.635   9.485
 2556POPC   PO434992  40.711  23.213   9.359
 2556POPC   GL134993  40.792  22.910   9.069
 2556POPC   GL234994  40.551  22.638   9.146
 2556POPC   C1A34995  40.906  22.946   8.657
 2556POPC   D2A34996  40.719  22.975   8.268
 2556POPC   C3A34997  41.041  22.978   7.972
 2556POPC   C4A34998  41.136  23.294   7.651
 2556POPC   C1B34999  40.436  22.757   8.726
 2556POPC   C2B35000  40.299  22.688   8.304
 2556POPC   C3B35001  40.499  22.685   7.881
 2556POPC   C4B35002  40.477  22.768   7.382
 2557POPC   NC335003  43.602   5.440   9.509
 2557POPC   PO435004  44.130   5.902   9.540
 2557POPC   GL135005  43.794   5.870   9.244
 2557POPC   GL235006  43.864   5.566   9.097
 2557POPC   C1A35007  43.625   5.929   8.823
 2557POPC   D2A35008  43.899   5.820   8.485
 2557POPC   C3A35009  43.732   5.808   8.087
 2557POPC   C4A35010  43.757   6.045   7.731
 2557POPC   C1B35011  44.257   5.726   8.885
 2557POPC   C2B35012  44.436   5.759   8.476
 2557POPC   C3B35013  44.257   5.939   8.108
 2557POPC   C4B35014  44.194   5.793   7.711
 2558POPC   NC335015   2.359  44.524   9.597
 2558POPC   PO435016   1.864   0.009   9.554
 2558POPC   GL135017   2.048  44.701   9.250
 2558POPC   GL235018   2.328  44.868   9.176
 2558POPC   C1A35019   2.248  44.508   8.846
 2558POPC   D2A35020   2.033  44.307   8.492
 2558POPC   C3A35021   2.190  44.326   8.064
 2558POPC   C4A35022   1.987  44.358   7.678
 2558POPC   C1B35023   2.278   0.024   8.751
 2558POPC   C2B35024   2.195  44.813   8.377
 2558POPC   C3B35025   1.987  44.797   7.971
 2558POPC   C4B35026   1.988  44.861   7.533
 2559POPC   NC335027  40.637  38.962   9.489
 2559POPC   PO435028  41.098  38.474   9.542
 2559POPC   GL135029  40.786  38.277   9.258
 2559POPC   GL235030  40.587  38.538   9.236
 2559POPC   C1A35031  40.826  38.226   8.809
 2559POPC   D2A35032  41.082  38.394   8.449
 2559POPC   C3A35033  40.972  38.252   8.017
 2559POPC   C4A35034  40.669  38.320   7.709
 2559POPC   C1B35035  40.731  38.730   8.850
 2559POPC   C2B35036  40.588  38.598   8.444
 2559POPC   C3B35037  40.691  38.689   8.036
 2559POPC   C4B35038  40.585  38.871   7.621
 2560POPC   NC335039   0.803  18.976   9.442
 2560POPC   PO435040   1.554  19.123   9.455
 2560POPC   GL135041   1.235  19.095   9.181
 2560POPC   GL235042   1.192  18.723   9.167
 2560POPC   C1A35043   1.028  19.218   8.805
 2560POPC   D2A35044   0.925  19.345   8.390
 2560POPC   C3A35045   1.113  19.227   7.970
 2560POPC   C4A35046   1.570  19.260   7.842
 2560POPC   C1B35047   0.910  18.711   8.803
 2560POPC   C2B35048   0.800  18.843   8.398
 2560POPC   C3B35049   0.877  18.745   8.006
 2560POPC   C4B35050   0.861  18.905   7.613
 2561POPC   NC335051  14.621  14.021  10.019
 2561POPC   PO435052  14.268  13.660   9.557
 2561POPC   GL135053  14.521  13.721   9.194
 2561POPC   GL235054  14.333  13.953   9.092
 2561POPC   C1A35055  14.630  13.711   8.744
 2561POPC   D2A35056  14.633  13.401   8.411
 2561POPC   C3A35057  14.662  13.575   8.002
 2561POPC   C4A35058  14.539  13.364   7.642
 2561POPC   C1B35059  14.147  13.925   8.711
 2561POPC   C2B35060  14.267  13.821   8.296
 2561POPC   C3B35061  14.100  13.964   7.898
 2561POPC   C4B35062  14.415  13.851   7.630
 2562POPC   NC335063  42.791  11.046   9.407
 2562POPC   PO435064  43.311  11.456   9.421
 2562POPC   GL135065  43.038  11.377   9.110
 2562POPC   GL235066  43.175  11.044   9.074
 2562POPC   C1A35067  42.982  11.283   8.676
 2562POPC   D2A35068  43.210  11.330   8.307
 2562POPC   C3A35069  43.118  11.393   7.874
 2562POPC   C4A35070  43.457  11.507   7.625
 2562POPC   C1B35071  43.473  11.066   8.750
 2562POPC   C2B35072  43.524  10.914   8.347
 2562POPC   C3B35073  43.557  11.085   7.949
 2562POPC   C4B35074  43.346  11.017   7.585
 2563POPC   NC335075  20.160  11.706   9.457
 2563POPC   PO435076  19.621  12.147   9.507
 2563POPC   GL135077  19.713  12.157   9.098
 2563POPC   GL235078  19.772  11.777   9.090
 2563POPC   C1A35079  19.665  12.275   8.641
 2563POPC   D2A35080  19.857  12.449   8.269
 2563POPC   C3A35081  19.815  12.145   7.973
 2563POPC   C4A35082  20.000  12.169   7.582
 2563POPC   C1B35083  20.068  11.949   8.796
 2563POPC   C2B35084  20.164  12.058   8.382
 2563POPC   C3B35085  20.210  11.822   8.003
 2563POPC   C4B35086  19.898  11.621   7.775
 2564POPC   NC335087  26.700  27.965   9.683
 2564POPC   PO435088  26.425  27.410   9.481
 2564POPC   GL135089  26.583  27.692   9.169
 2564POPC   GL235090  26.874  27.927   9.205
 2564POPC   C1A35091  26.493  27.809   8.728
 2564POPC   D2A35092  26.526  27.937   8.298
 2564POPC   C3A35093  26.691  27.703   7.951
 2564POPC   C4A35094  26.950  27.848   7.586
 2564POPC   C1B35095  26.977  27.714   8.831
 2564POPC   C2B35096  27.041  27.871   8.426
 2564POPC   C3B35097  27.200  27.751   8.038
 2564POPC   C4B35098  27.109  27.396   7.800
 2565POPC   NC335099  41.437   6.909   9.499
 2565POPC   PO435100  41.533   6.197   9.584
 2565POPC   GL135101  41.377   6.421   9.235
 2565POPC   GL235102  41.656   6.630   9.121
 2565POPC   C1A35103  41.247   6.498   8.815
 2565POPC   D2A35104  41.432   6.412   8.430
 2565POPC   C3A35105  41.395   6.563   8.024
 2565POPC   C4A35106  41.534   6.695   7.616
 2565POPC   C1B35107  41.686   6.761   8.705
 2565POPC   C2B35108  41.884   6.628   8.333
 2565POPC   C3B35109  41.925   6.708   7.934
 2565POPC   C4B35110  41.925   7.003   7.590
 2566POPC   NC335111   1.402  26.173   9.626
 2566POPC   PO435112   0.895  25.899   9.365
 2566POPC   GL135113   1.185  25.946   9.097
 2566POPC   GL235114   1.507  26.152   9.138
 2566POPC   C1A35115   1.002  25.854   8.678
 2566POPC   D2A35116   0.935  25.715   8.259
 2566POPC   C3A35117   0.967  25.995   7.933
 2566POPC   C4A35118   0.972  25.788   7.537
 2566POPC   C1B35119   1.267  26.309   8.750
 2566POPC   C2B35120   1.288  26.117   8.343
 2566POPC   C3B35121   1.436  26.217   7.937
 2566POPC   C4B35122   1.184  26.276   7.561
 2567POPC   NC335123  33.609  34.495   9.639
 2567POPC   PO435124  33.978  35.057   9.727
 2567POPC   GL135125  33.781  34.780   9.268
 2567POPC   GL235126  33.701  34.417   9.147
 2567POPC   C1A35127  33.657  34.757   8.786
 2567POPC   D2A35128  33.843  34.587   8.389
 2567POPC   C3A35129  33.848  34.769   7.963
 2567POPC   C4A35130  33.964  34.653   7.566
 2567POPC   C1B35131  33.364  34.319   8.860
 2567POPC   C2B35132  33.342  34.472   8.424
 2567POPC   C3B35133  33.517  34.391   8.038
 2567POPC   C4B35134  33.412  34.356   7.605
 2568POPC   NC335135  19.086   7.602   9.500
 2568POPC   PO435136  18.739   7.035   9.434
 2568POPC   GL135137  18.904   7.326   9.127
 2568POPC   GL235138  19.281   7.246   9.169
 2568POPC   C1A35139  18.858   7.312   8.688
 2568POPC   D2A35140  19.115   7.379   8.343
 2568POPC   C3A35141  18.955   7.386   7.915
 2568POPC   C4A35142  18.910   7.805   7.712
 2568POPC   C1B35143  19.302   7.557   8.839
 2568POPC   C2B35144  19.393   7.807   8.475
 2568POPC   C3B35145  19.301   7.730   8.033
 2568POPC   C4B35146  19.449   7.470   7.706
 2569POPC   NC335147  20.155  33.572   9.488
 2569POPC   PO435148  19.793  34.093   9.532
 2569POPC   GL135149  19.723  33.952   9.138
 2569POPC   GL235150  20.085  33.885   9.086
 2569POPC   C1A35151  19.737  33.881   8.695
 2569POPC   D2A35152  19.510  33.710   8.312
 2569POPC   C3A35153  19.624  33.902   7.919
 2569POPC   C4A35154  19.775  33.756   7.505
 2569POPC   C1B35155  20.047  34.306   8.930
 2569POPC   C2B35156  20.019  34.404   8.487
 2569POPC   C3B35157  20.165  34.409   8.060
 2569POPC   C4B35158  20.053  34.164   7.711
 2570POPC   NC335159  35.222  27.475   9.464
 2570POPC   PO435160  35.888  27.143   9.538
 2570POPC   GL135161  35.615  27.365   9.164
 2570POPC   GL235162  35.515  27.762   9.180
 2570POPC   C1A35163  35.381  27.559   8.752
 2570POPC   D2A35164  35.234  27.733   8.321
 2570POPC   C3A35165  35.180  27.481   7.955
 2570POPC   C4A35166  34.994  27.548   7.540
 2570POPC   C1B35167  35.710  27.964   8.815
 2570POPC   C2B35168  35.603  28.118   8.420
 2570POPC   C3B35169  35.606  27.978   8.006
 2570POPC   C4B35170  35.650  28.204   7.619
 2571POPC   NC335171   2.666   8.356   9.459
 2571POPC   PO435172   3.015   7.775   9.592
 2571POPC   GL135173   3.019   8.022   9.160
 2571POPC   GL235174   2.647   8.097   9.036
 2571POPC   C1A35175   2.980   8.105   8.674
 2571POPC   D2A35176   2.516   8.072   8.519
 2571POPC   C3A35177   2.392   8.004   8.085
 2571POPC   C4A35178   2.526   8.058   7.654
 2571POPC   C1B35179   2.723   8.514   8.767
 2571POPC   C2B35180   2.823   8.441   8.300
 2571POPC   C3B35181   2.905   8.364   7.846
 2571POPC   C4B35182   3.304   8.443   7.646
 2572POPC   NC335183  40.113  44.300   9.462
 2572POPC   PO435184  39.497  44.637   9.505
 2572POPC   GL135185  39.846  44.649   9.171
 2572POPC   GL235186  39.887  44.347   8.987
 2572POPC   C1A35187  39.999  44.887   8.778
 2572POPC   D2A35188  40.078   0.019   8.317
 2572POPC   C3A35189  39.877  44.840   7.946
 2572POPC   C4A35190  39.834  44.407   7.841
 2572POPC   C1B35191  40.126  44.414   8.620
 2572POPC   C2B35192  40.229  44.498   8.203
 2572POPC   C3B35193  40.393  44.789   7.952
 2572POPC   C4B35194  40.276  44.994   7.591
 2573POPC   NC335195  32.107   7.504   9.735
 2573POPC   PO435196  32.467   6.913   9.729
 2573POPC   GL135197  32.364   7.362   9.327
 2573POPC   GL235198  32.066   7.581   9.178
 2573POPC   C1A35199  32.318   7.329   8.824
 2573POPC   D2A35200  32.422   7.271   8.419
 2573POPC   C3A35201  32.136   7.396   8.106
 2573POPC   C4A35202  32.255   7.266   7.697
 2573POPC   C1B35203  32.328   7.823   8.802
 2573POPC   C2B35204  32.398   7.789   8.313
 2573POPC   C3B35205  32.282   7.785   7.827
 2573POPC   C4B35206  32.250   7.929   7.389
 2574POPC   NC335207  34.091   8.743   9.553
 2574POPC   PO435208  33.611   9.229   9.439
 2574POPC   GL135209  33.898   9.043   9.175
 2574POPC   GL235210  33.723   8.721   9.173
 2574POPC   C1A35211  33.940   8.961   8.740
 2574POPC   D2A35212  33.613   8.991   8.429
 2574POPC   C3A35213  33.829   9.024   8.047
 2574POPC   C4A35214  33.734   9.333   7.768
 2574POPC   C1B35215  33.564   8.597   8.777
 2574POPC   C2B35216  33.776   8.512   8.379
 2574POPC   C3B35217  33.651   8.552   7.952
 2574POPC   C4B35218  33.999   8.694   7.657
 2575POPC   NC335219  36.934  28.643   9.501
 2575POPC   PO435220  36.680  28.012   9.527
 2575POPC   GL135221  36.857  28.235   9.180
 2575POPC   GL235222  36.590  28.482   9.133
 2575POPC   C1A35223  37.179  28.177   8.853
 2575POPC   D2A35224  37.239  27.951   8.455
 2575POPC   C3A35225  36.968  28.135   8.114
 2575POPC   C4A35226  37.091  28.164   7.665
 2575POPC   C1B35227  36.867  28.586   8.778
 2575POPC   C2B35228  36.760  28.562   8.332
 2575POPC   C3B35229  36.990  28.656   7.931
 2575POPC   C4B35230  36.939  28.626   7.446
 2576POPC   NC335231  29.745   0.733   9.385
 2576POPC   PO435232  29.991   1.339   9.484
 2576POPC   GL135233  30.026   1.366   9.102
 2576POPC   GL235234  30.039   1.006   9.049
 2576POPC   C1A35235  29.869   1.519   8.746
 2576POPC   D2A35236  29.829   1.262   8.405
 2576POPC   C3A35237  29.824   1.408   8.039
 2576POPC   C4A35238  30.001   1.267   7.624
 2576POPC   C1B35239  29.900   0.823   8.655
 2576POPC   C2B35240  30.042   0.830   8.216
 2576POPC   C3B35241  29.759   0.869   7.842
 2576POPC   C4B35242  29.799   0.850   7.387
 2577POPC   NC335243  21.913   6.677   9.523
 2577POPC   PO435244  22.508   6.443   9.438
 2577POPC   GL135245  22.245   6.651   9.116
 2577POPC   GL235246  22.183   7.006   9.214
 2577POPC   C1A35247  22.182   6.583   8.671
 2577POPC   D2A35248  22.492   6.644   8.330
 2577POPC   C3A35249  22.297   6.495   7.970
 2577POPC   C4A35250  22.409   6.430   7.542
 2577POPC   C1B35251  21.985   7.044   8.809
 2577POPC   C2B35252  21.835   6.923   8.408
 2577POPC   C3B35253  21.825   6.872   7.971
 2577POPC   C4B35254  21.951   6.649   7.650
 2578POPC   NC335255  10.005  13.070   9.461
 2578POPC   PO435256   9.533  12.618   9.383
 2578POPC   GL135257   9.803  12.832   9.035
 2578POPC   GL235258   9.920  13.182   8.985
 2578POPC   C1A35259   9.886  12.857   8.582
 2578POPC   D2A35260   9.859  12.463   8.360
 2578POPC   C3A35261   9.528  12.474   8.064
 2578POPC   C4A35262   9.537  12.776   7.715
 2578POPC   C1B35263  10.234  13.353   8.693
 2578POPC   C2B35264  10.130  13.275   8.281
 2578POPC   C3B35265   9.918  13.129   7.923
 2578POPC   C4B35266  10.043  13.230   7.500
 2579POPC   NC335267   6.759  34.073   9.696
 2579POPC   PO435268   6.783  34.721   9.404
 2579POPC   GL135269   6.617  34.708   9.004
 2579POPC   GL235270   6.298  34.547   9.085
 2579POPC   C1A35271   6.784  34.535   8.624
 2579POPC   D2A35272   6.629  34.422   8.244
 2579POPC   C3A35273   6.444  34.738   7.945
 2579POPC   C4A35274   6.519  34.816   7.500
 2579POPC   C1B35275   6.337  34.287   8.718
 2579POPC   C2B35276   6.216  34.130   8.309
 2579POPC   C3B35277   6.261  34.205   7.847
 2579POPC   C4B35278   6.441  34.179   7.380
 2580POPC   NC335279  43.840  17.181   9.502
 2580POPC   PO435280  43.667  17.883   9.488
 2580POPC   GL135281  43.867  17.613   9.235
 2580POPC   GL235282  43.592  17.434   9.087
 2580POPC   C1A35283  44.011  17.673   8.850
 2580POPC   D2A35284  43.811  17.639   8.449
 2580POPC   C3A35285  44.007  17.524   8.099
 2580POPC   C4A35286  43.816  17.650   7.735
 2580POPC   C1B35287  43.792  17.227   8.746
 2580POPC   C2B35288  43.729  17.090   8.364
 2580POPC   C3B35289  43.575  17.272   8.048
 2580POPC   C4B35290  43.616  17.175   7.668
 2581POPC   NC335291  37.124  33.589   9.627
 2581POPC   PO435292  36.546  33.794   9.533
 2581POPC   GL135293  36.769  33.573   9.184
 2581POPC   GL235294  37.102  33.694   9.139
 2581POPC   C1A35295  36.782  33.682   8.745
 2581POPC   D2A35296  36.787  34.028   8.469
 2581POPC   C3A35297  36.681  33.866   8.093
 2581POPC   C4A35298  36.730  33.670   7.711
 2581POPC   C1B35299  37.269  33.902   8.757
 2581POPC   C2B35300  37.267  33.945   8.304
 2581POPC   C3B35301  37.167  33.729   7.975
 2581POPC   C4B35302  37.214  33.765   7.570
 2582POPC   NC335303   2.168  43.057   9.376
 2582POPC   PO435304   2.801  43.210   9.457
 2582POPC   GL135305   2.657  43.004   9.096
 2582POPC   GL235306   2.486  42.688   9.187
 2582POPC   C1A35307   2.881  43.138   8.719
 2582POPC   D2A35308   3.067  43.124   8.299
 2582POPC   C3A35309   2.696  43.168   8.050
 2582POPC   C4A35310   2.693  43.348   7.657
 2582POPC   C1B35311   2.609  42.603   8.774
 2582POPC   C2B35312   2.778  42.707   8.392
 2582POPC   C3B35313   2.764  42.663   7.980
 2582POPC   C4B35314   2.659  42.855   7.611
 2583POPC   NC335315  25.966  10.027   9.735
 2583POPC   PO435316  26.450   9.557   9.637
 2583POPC   GL135317  26.416   9.596   9.209
 2583POPC   GL235318  26.387   9.980   9.219
 2583POPC   C1A35319  26.192   9.615   8.803
 2583POPC   D2A35320  25.852   9.719   8.506
 2583POPC   C3A35321  25.833   9.452   8.148
 2583POPC   C4A35322  25.807   9.618   7.746
 2583POPC   C1B35323  26.239  10.132   8.807
 2583POPC   C2B35324  26.306   9.970   8.410
 2583POPC   C3B35325  26.128   9.948   8.005
 2583POPC   C4B35326  26.233   9.925   7.553
 2584POPC   NC335327  42.473  29.565   9.462
 2584POPC   PO435328  42.235  30.193   9.471
 2584POPC   GL135329  42.160  29.894   9.115
 2584POPC   GL235330  42.256  29.525   9.018
 2584POPC   C1A35331  42.000  29.775   8.677
 2584POPC   D2A35332  42.169  29.834   8.258
 2584POPC   C3A35333  42.196  29.636   7.834
 2584POPC   C4A35334  42.180  29.940   7.466
 2584POPC   C1B35335  42.549  29.825   8.787
 2584POPC   C2B35336  42.735  29.955   8.392
 2584POPC   C3B35337  42.608  29.908   7.971
 2584POPC   C4B35338  42.687  29.672   7.604
 2585POPC   NC335339  28.669  17.063   9.638
 2585POPC   PO435340  27.985  17.027   9.472
 2585POPC   GL135341  28.163  16.889   9.109
 2585POPC   GL235342  28.516  16.926   9.058
 2585POPC   C1A35343  28.109  16.974   8.693
 2585POPC   D2A35344  28.435  17.125   8.406
 2585POPC   C3A35345  28.425  17.034   7.994
 2585POPC   C4A35346  27.983  16.960   7.929
 2585POPC   C1B35347  28.485  16.658   8.631
 2585POPC   C2B35348  28.480  16.558   8.169
 2585POPC   C3B35349  28.788  16.517   7.846
 2585POPC   C4B35350  28.824  16.469   7.390
 2586POPC   NC335351  25.650  25.927   9.422
 2586POPC   PO435352  25.148  26.341   9.437
 2586POPC   GL135353  25.194  26.095   9.093
 2586POPC   GL235354  24.861  25.944   9.152
 2586POPC   C1A35355  25.424  26.031   8.686
 2586POPC   D2A35356  25.486  26.271   8.303
 2586POPC   C3A35357  25.416  26.036   7.945
 2586POPC   C4A35358  25.556  26.020   7.509
 2586POPC   C1B35359  24.948  25.830   8.732
 2586POPC   C2B35360  25.119  25.747   8.329
 2586POPC   C3B35361  24.969  25.828   7.894
 2586POPC   C4B35362  25.075  26.122   7.554
 2587POPC   NC335363  23.863   1.877   9.514
 2587POPC   PO435364  23.548   2.419   9.702
 2587POPC   GL135365  23.740   2.339   9.250
 2587POPC   GL235366  23.530   2.489   8.993
 2587POPC   C1A35367  23.754   2.005   8.890
 2587POPC   D2A35368  24.076   1.901   8.565
 2587POPC   C3A35369  23.975   1.877   8.110
 2587POPC   C4A35370  23.716   1.906   7.718
 2587POPC   C1B35371  23.462   2.316   8.600
 2587POPC   C2B35372  23.601   2.258   8.191
 2587POPC   C3B35373  23.331   2.262   7.861
 2587POPC   C4B35374  23.158   2.593   7.573
 2588POPC   NC335375  21.538   5.414   9.480
 2588POPC   PO435376  21.426   4.798   9.608
 2588POPC   GL135377  21.508   4.940   9.209
 2588POPC   GL235378  21.234   5.190   9.129
 2588POPC   C1A35379  21.649   4.848   8.765
 2588POPC   D2A35380  21.535   5.067   8.358
 2588POPC   C3A35381  21.634   4.981   7.924
 2588POPC   C4A35382  21.315   5.032   7.640
 2588POPC   C1B35383  21.524   5.337   8.783
 2588POPC   C2B35384  21.585   5.586   8.399
 2588POPC   C3B35385  21.397   5.492   7.991
 2588POPC   C4B35386  21.510   5.476   7.544
 2589POPC   NC335387  39.659  35.934   9.775
 2589POPC   PO435388  39.202  36.318   9.518
 2589POPC   GL135389  39.089  36.377   9.119
 2589POPC   GL235390  38.722  36.425   9.014
 2589POPC   C1A35391  39.142  36.075   8.828
 2589POPC   D2A35392  39.353  35.899   8.492
 2589POPC   C3A35393  39.038  35.820   8.189
 2589POPC   C4A35394  39.242  35.816   7.814
 2589POPC   C1B35395  38.928  36.546   8.675
 2589POPC   C2B35396  39.123  36.337   8.376
 2589POPC   C3B35397  39.296  36.293   7.993
 2589POPC   C4B35398  39.371  36.236   7.573
 2590POPC   NC335399  34.216  29.126   9.598
 2590POPC   PO435400  33.570  29.320   9.596
 2590POPC   GL135401  33.670  29.096   9.227
 2590POPC   GL235402  34.032  29.143   9.144
 2590POPC   C1A35403  33.643  29.042   8.781
 2590POPC   D2A35404  33.539  29.270   8.373
 2590POPC   C3A35405  33.523  29.056   7.968
 2590POPC   C4A35406  33.860  28.933   7.719
 2590POPC   C1B35407  34.239  29.235   8.774
 2590POPC   C2B35408  34.029  29.078   8.443
 2590POPC   C3B35409  34.192  28.954   8.084
 2590POPC   C4B35410  34.387  28.896   7.723
 2591POPC   NC335411  28.865  23.558   9.517
 2591POPC   PO435412  29.414  23.908   9.510
 2591POPC   GL135413  29.245  23.697   9.187
 2591POPC   GL235414  28.935  23.877   9.087
 2591POPC   C1A35415  29.299  23.690   8.758
 2591POPC   D2A35416  29.027  23.797   8.432
 2591POPC   C3A35417  29.331  23.617   8.176
 2591POPC   C4A35418  29.515  23.551   7.782
 2591POPC   C1B35419  28.872  23.445   8.881
 2591POPC   C2B35420  28.764  23.374   8.472
 2591POPC   C3B35421  28.833  23.466   8.064
 2591POPC   C4B35422  29.049  23.763   7.790
 2592POPC   NC335423  24.221  23.637   9.428
 2592POPC   PO435424  24.874  23.803   9.357
 2592POPC   GL135425  24.546  23.803   9.063
 2592POPC   GL235426  24.484  23.436   9.060
 2592POPC   C1A35427  24.462  23.992   8.664
 2592POPC   D2A35428  24.555  24.193   8.275
 2592POPC   C3A35429  24.777  23.946   7.987
 2592POPC   C4A35430  24.599  23.844   7.617
 2592POPC   C1B35431  24.602  23.477   8.664
 2592POPC   C2B35432  24.526  23.637   8.290
 2592POPC   C3B35433  24.431  23.442   7.923
 2592POPC   C4B35434  24.453  23.352   7.517
 2593POPC   NC335435  20.267  26.204   9.513
 2593POPC   PO435436  20.915  26.104   9.488
 2593POPC   GL135437  20.709  25.896   9.161
 2593POPC   GL235438  20.408  25.746   9.301
 2593POPC   C1A35439  20.689  26.082   8.771
 2593POPC   D2A35440  20.902  26.209   8.416
 2593POPC   C3A35441  20.648  26.156   8.070
 2593POPC   C4A35442  20.700  25.997   7.680
 2593POPC   C1B35443  20.287  25.760   8.858
 2593POPC   C2B35444  20.342  25.920   8.399
 2593POPC   C3B35445  20.287  25.789   7.927
 2593POPC   C4B35446  20.330  25.755   7.454
 2594POPC   NC335447  35.572  16.368   9.491
 2594POPC   PO435448  35.111  16.869   9.561
 2594POPC   GL135449  35.275  16.824   9.171
 2594POPC   GL235450  35.631  16.863   9.265
 2594POPC   C1A35451  35.172  16.636   8.764
 2594POPC   D2A35452  35.301  16.593   8.354
 2594POPC   C3A35453  34.998  16.679   8.063
 2594POPC   C4A35454  35.238  16.950   7.826
 2594POPC   C1B35455  35.650  16.783   8.823
 2594POPC   C2B35456  35.619  17.013   8.437
 2594POPC   C3B35457  35.817  17.021   8.048
 2594POPC   C4B35458  35.732  16.682   7.815
 2595POPC   NC335459  42.909  26.160   9.642
 2595POPC   PO435460  43.052  25.466   9.675
 2595POPC   GL135461  42.815  25.819   9.289
 2595POPC   GL235462  43.067  26.099   9.152
 2595POPC   C1A35463  42.822  25.890   8.787
 2595POPC   D2A35464  42.939  26.146   8.428
 2595POPC   C3A35465  43.105  25.865   8.139
 2595POPC   C4A35466  42.945  25.653   7.768
 2595POPC   C1B35467  43.343  25.995   8.763
 2595POPC   C2B35468  43.462  26.180   8.353
 2595POPC   C3B35469  43.435  26.158   7.886
 2595POPC   C4B35470  43.249  26.400   7.509
 2596POPC   NC335471  39.568   7.953   9.468
 2596POPC   PO435472  39.034   8.391   9.554
 2596POPC   GL135473  39.201   8.316   9.149
 2596POPC   GL235474  39.230   8.573   8.900
 2596POPC   C1A35475  39.239   8.070   8.762
 2596POPC   D2A35476  39.548   8.129   8.428
 2596POPC   C3A35477  39.452   8.386   8.076
 2596POPC   C4A35478  39.474   8.376   7.628
 2596POPC   C1B35479  39.114   8.508   8.472
 2596POPC   C2B35480  39.047   8.108   8.270
 2596POPC   C3B35481  39.108   8.061   7.834
 2596POPC   C4B35482  39.008   8.375   7.475
 2597POPC   NC335483  25.390  31.481   9.530
 2597POPC   PO435484  24.759  31.770   9.392
 2597POPC   GL135485  25.031  31.426   9.127
 2597POPC   GL235486  25.353  31.259   9.090
 2597POPC   C1A35487  25.213  31.425   8.654
 2597POPC   D2A35488  25.249  31.828   8.429
 2597POPC   C3A35489  25.123  31.762   8.005
 2597POPC   C4A35490  24.945  31.353   7.928
 2597POPC   C1B35491  25.597  31.637   8.902
 2597POPC   C2B35492  25.745  31.690   8.479
 2597POPC   C3B35493  25.540  31.482   8.135
 2597POPC   C4B35494  25.407  31.216   7.792
 2598POPC   NC335495   1.382  21.178   9.401
 2598POPC   PO435496   0.868  21.030   9.835
 2598POPC   GL135497   0.867  21.282   9.342
 2598POPC   GL235498   1.096  21.535   9.210
 2598POPC   C1A35499   0.869  21.349   8.806
 2598POPC   D2A35500   0.966  21.163   8.358
 2598POPC   C3A35501   1.135  21.282   7.942
 2598POPC   C4A35502   1.299  21.214   7.520
 2598POPC   C1B35503   1.358  21.587   8.810
 2598POPC   C2B35504   1.330  21.527   8.344
 2598POPC   C3B35505   1.490  21.663   7.923
 2598POPC   C4B35506   1.353  21.725   7.480
 2599POPC   NC335507  37.970   9.345   9.674
 2599POPC   PO435508  37.463   9.805   9.563
 2599POPC   GL135509  37.802   9.685   9.282
 2599POPC   GL235510  38.062   9.440   9.179
 2599POPC   C1A35511  37.851   9.813   8.857
 2599POPC   D2A35512  37.574  10.040   8.579
 2599POPC   C3A35513  37.564   9.865   8.187
 2599POPC   C4A35514  37.813  10.005   7.830
 2599POPC   C1B35515  37.780   9.309   8.834
 2599POPC   C2B35516  37.672   9.355   8.402
 2599POPC   C3B35517  37.846   9.465   8.002
 2599POPC   C4B35518  37.505   9.599   7.746
 2600POPC   NC335519  25.131  11.879   9.430
 2600POPC   PO435520  25.693  12.240   9.544
 2600POPC   GL135521  25.576  12.044   9.160
 2600POPC   GL235522  25.321  12.299   9.169
 2600POPC   C1A35523  25.543  11.863   8.718
 2600POPC   D2A35524  25.570  11.704   8.258
 2600POPC   C3A35525  25.393  11.978   7.936
 2600POPC   C4A35526  25.026  12.226   7.920
 2600POPC   C1B35527  25.532  12.415   8.790
 2600POPC   C2B35528  25.377  12.339   8.376
 2600POPC   C3B35529  25.479  12.509   7.995
 2600POPC   C4B35530  25.691  12.330   7.683
 2601POPC   NC335531  24.931   5.682   9.578
 2601POPC   PO435532  24.260   5.933   9.536
 2601POPC   GL135533  24.443   5.867   9.138
 2601POPC   GL235534  24.788   5.927   9.107
 2601POPC   C1A35535  24.391   6.089   8.734
 2601POPC   D2A35536  24.389   6.380   8.366
 2601POPC   C3A35537  24.433   6.034   8.039
 2601POPC   C4A35538  24.712   6.038   7.687
 2601POPC   C1B35539  24.686   5.672   8.698
 2601POPC   C2B35540  24.773   5.669   8.232
 2601POPC   C3B35541  24.928   5.594   7.816
 2601POPC   C4B35542  24.907   5.572   7.367
 2602POPC   NC335543  39.807  20.184   9.460
 2602POPC   PO435544  40.017  20.870   9.362
 2602POPC   GL135545  40.151  20.479   9.191
 2602POPC   GL235546  39.815  20.497   9.046
 2602POPC   C1A35547  40.226  20.260   8.809
 2602POPC   D2A35548  39.901  20.233   8.501
 2602POPC   C3A35549  40.034  20.310   8.089
 2602POPC   C4A35550  39.851  20.320   7.690
 2602POPC   C1B35551  39.968  20.761   8.699
 2602POPC   C2B35552  39.973  20.811   8.248
 2602POPC   C3B35553  39.953  20.812   7.822
 2602POPC   C4B35554  40.172  21.046   7.481
 2603POPC   NC335555   9.223  23.504   9.587
 2603POPC   PO435556   8.807  23.938   9.413
 2603POPC   GL135557   8.949  23.652   9.143
 2603POPC   GL235558   8.659  23.669   8.933
 2603POPC   C1A35559   9.166  23.760   8.760
 2603POPC   D2A35560   9.104  24.023   8.417
 2603POPC   C3A35561   9.178  23.848   8.014
 2603POPC   C4A35562   8.923  23.677   7.679
 2603POPC   C1B35563   8.884  23.339   8.749
 2603POPC   C2B35564   9.078  23.431   8.347
 2603POPC   C3B35565   8.807  23.308   8.035
 2603POPC   C4B35566   8.586  23.275   7.673
 2604POPC   NC335567  39.649  34.426   9.683
 2604POPC   PO435568  40.239  34.870   9.481
 2604POPC   GL135569  39.930  34.671   9.231
 2604POPC   GL235570  40.095  34.385   9.140
 2604POPC   C1A35571  39.835  34.668   8.773
 2604POPC   D2A35572  39.699  34.334   8.476
 2604POPC   C3A35573  39.713  34.376   8.030
 2604POPC   C4A35574  39.862  34.149   7.691
 2604POPC   C1B35575  40.333  34.568   8.780
 2604POPC   C2B35576  40.197  34.796   8.417
 2604POPC   C3B35577  40.066  34.781   8.006
 2604POPC   C4B35578  40.278  34.469   7.754
 2605POPC   NC335579  41.571  41.346   9.525
 2605POPC   PO435580  41.344  41.902   9.506
 2605POPC   GL135581  41.549  41.694   9.119
 2605POPC   GL235582  41.768  41.361   9.061
 2605POPC   C1A35583  41.573  41.647   8.659
 2605POPC   D2A35584  41.421  41.711   8.233
 2605POPC   C3A35585  41.756  41.672   7.934
 2605POPC   C4A35586  41.771  41.382   7.583
 2605POPC   C1B35587  41.396  41.204   8.844
 2605POPC   C2B35588  41.319  41.235   8.409
 2605POPC   C3B35589  41.488  41.249   7.989
 2605POPC   C4B35590  41.258  41.144   7.588
 2606POPC   NC335591  30.814  38.749   9.490
 2606POPC   PO435592  30.843  38.118   9.533
 2606POPC   GL135593  30.953  38.382   9.177
 2606POPC   GL235594  31.218  38.599   9.210
 2606POPC   C1A35595  30.642  38.539   8.879
 2606POPC   D2A35596  30.487  38.534   8.453
 2606POPC   C3A35597  30.509  38.845   8.191
 2606POPC   C4A35598  30.620  38.863   7.801
 2606POPC   C1B35599  31.126  38.769   8.812
 2606POPC   C2B35600  30.979  38.723   8.399
 2606POPC   C3B35601  30.984  38.584   7.965
 2606POPC   C4B35602  31.117  38.755   7.590
 2607POPC   NC335603   9.610  41.903   9.439
 2607POPC   PO435604   9.897  42.493   9.536
 2607POPC   GL135605   9.782  42.331   9.137
 2607POPC   GL235606   9.938  42.012   9.038
 2607POPC   C1A35607   9.753  42.300   8.686
 2607POPC   D2A35608   9.574  42.515   8.358
 2607POPC   C3A35609   9.778  42.528   7.987
 2607POPC   C4A35610   9.712  42.437   7.616
 2607POPC   C1B35611   9.508  41.880   8.804
 2607POPC   C2B35612   9.357  42.065   8.424
 2607POPC   C3B35613   9.523  42.078   8.011
 2607POPC   C4B35614   9.385  42.059   7.597
 2608POPC   NC335615  27.661  11.685   9.308
 2608POPC   PO435616  27.094  12.128   9.413
 2608POPC   GL135617  27.350  12.013   9.087
 2608POPC   GL235618  27.544  12.308   9.019
 2608POPC   C1A35619  27.633  11.910   8.700
 2608POPC   D2A35620  27.862  11.945   8.308
 2608POPC   C3A35621  27.599  11.932   7.963
 2608POPC   C4A35622  27.417  11.730   7.631
 2608POPC   C1B35623  27.276  12.262   8.669
 2608POPC   C2B35624  27.455  12.308   8.305
 2608POPC   C3B35625  27.341  12.422   7.935
 2608POPC   C4B35626  27.334  12.254   7.585
 2609POPC   NC335627  14.374  11.290   9.561
 2609POPC   PO435628  13.739  11.274   9.452
 2609POPC   GL135629  14.057  11.463   9.162
 2609POPC   GL235630  14.430  11.370   9.067
 2609POPC   C1A35631  14.077  11.484   8.731
 2609POPC   D2A35632  13.932  11.336   8.364
 2609POPC   C3A35633  14.094  11.254   7.936
 2609POPC   C4A35634  14.237  11.601   7.719
 2609POPC   C1B35635  14.533  11.291   8.614
 2609POPC   C2B35636  14.514  11.403   8.171
 2609POPC   C3B35637  14.748  11.514   7.804
 2609POPC   C4B35638  14.982  11.405   7.404
 2610POPC   NC335639  23.265   3.187   9.400
 2610POPC   PO435640  22.749   3.690   9.355
 2610POPC   GL135641  22.993   3.475   9.063
 2610POPC   GL235642  22.792   3.191   9.119
 2610POPC   C1A35643  22.992   3.599   8.641
 2610POPC   D2A35644  22.744   3.571   8.281
 2610POPC   C3A35645  23.008   3.479   7.908
 2610POPC   C4A35646  23.065   3.556   7.467
 2610POPC   C1B35647  22.851   3.102   8.684
 2610POPC   C2B35648  23.019   3.144   8.291
 2610POPC   C3B35649  22.749   3.039   7.934
 2610POPC   C4B35650  22.853   3.091   7.527
 2611POPC   NC335651  23.498  16.379   9.477
 2611POPC   PO435652  23.559  17.041   9.250
 2611POPC   GL135653  23.794  16.872   8.974
 2611POPC   GL235654  23.877  16.550   9.046
 2611POPC   C1A35655  23.584  16.733   8.607
 2611POPC   D2A35656  23.497  16.466   8.274
 2611POPC   C3A35657  23.613  16.731   7.988
 2611POPC   C4A35658  23.577  16.754   7.580
 2611POPC   C1B35659  24.077  16.690   8.611
 2611POPC   C2B35660  24.284  16.860   8.248
 2611POPC   C3B35661  24.103  16.713   7.850
 2611POPC   C4B35662  24.045  16.673   7.407
 2612POPC   NC335663  27.314   7.650   9.720
 2612POPC   PO435664  26.898   8.099   9.408
 2612POPC   GL135665  26.773   8.302   9.052
 2612POPC   GL235666  26.568   8.009   9.026
 2612POPC   C1A35667  26.931   8.475   8.656
 2612POPC   D2A35668  26.767   8.446   8.250
 2612POPC   C3A35669  26.894   8.157   7.939
 2612POPC   C4A35670  26.804   8.179   7.508
 2612POPC   C1B35671  26.354   7.794   8.744
 2612POPC   C2B35672  26.500   8.000   8.384
 2612POPC   C3B35673  26.436   7.999   7.967
 2612POPC   C4B35674  26.599   7.746   7.658
 2613POPC   NC335675  25.798  44.518   9.673
 2613POPC   PO435676  26.349  44.819   9.612
 2613POPC   GL135677  26.156  44.776   9.202
 2613POPC   GL235678  25.814  44.680   9.188
 2613POPC   C1A35679  26.253  44.587   8.791
 2613POPC   D2A35680  26.432  44.582   8.357
 2613POPC   C3A35681  26.240  44.805   8.010
 2613POPC   C4A35682  26.400  44.878   7.613
 2613POPC   C1B35683  25.734  44.730   8.787
 2613POPC   C2B35684  25.919  44.701   8.400
 2613POPC   C3B35685  25.716  44.675   8.018
 2613POPC   C4B35686  25.598  44.363   7.739
 2614POPC   NC335687  27.411  23.370   9.320
 2614POPC   PO435688  27.612  22.784   9.463
 2614POPC   GL135689  27.693  22.975   9.106
 2614POPC   GL235690  27.409  23.097   8.903
 2614POPC   C1A35691  27.948  23.011   8.787
 2614POPC   D2A35692  27.832  23.177   8.419
 2614POPC   C3A35693  27.620  22.949   8.128
 2614POPC   C4A35694  27.883  23.068   7.780
 2614POPC   C1B35695  27.495  22.818   8.619
 2614POPC   C2B35696  27.420  22.421   8.463
 2614POPC   C3B35697  27.353  22.482   8.035
 2614POPC   C4B35698  27.412  22.768   7.695
 2615POPC   NC335699  27.305  28.540   9.452
 2615POPC   PO435700  27.776  28.029   9.357
 2615POPC   GL135701  27.404  28.159   9.103
 2615POPC   GL235702  27.549  28.524   9.016
 2615POPC   C1A35703  27.322  28.251   8.665
 2615POPC   D2A35704  27.645  28.555   8.477
 2615POPC   C3A35705  27.688  28.491   8.043
 2615POPC   C4A35706  27.456  28.169   7.844
 2615POPC   C1B35707  27.249  28.740   8.740
 2615POPC   C2B35708  27.175  28.597   8.270
 2615POPC   C3B35709  27.268  28.769   7.860
 2615POPC   C4B35710  27.696  28.863   7.678
 2616POPC   NC335711  17.965  37.519   9.810
 2616POPC   PO435712  18.432  37.627   9.322
 2616POPC   GL135713  18.305  37.408   9.042
 2616POPC   GL235714  18.271  37.708   8.833
 2616POPC   C1A35715  18.502  37.267   8.720
 2616POPC   D2A35716  18.736  37.440   8.416
 2616POPC   C3A35717  18.543  37.463   8.020
 2616POPC   C4A35718  18.168  37.467   7.810
 2616POPC   C1B35719  17.938  37.408   8.697
 2616POPC   C2B35720  17.943  37.474   8.282
 2616POPC   C3B35721  18.196  37.820   8.165
 2616POPC   C4B35722  18.389  37.921   7.771
 2617POPC   NC335723  34.662  16.835   9.455
 2617POPC   PO435724  34.571  16.128   9.597
 2617POPC   GL135725  34.484  16.383   9.213
 2617POPC   GL235726  34.816  16.516   9.106
 2617POPC   C1A35727  34.486  16.450   8.736
 2617POPC   D2A35728  34.541  16.731   8.343
 2617POPC   C3A35729  34.514  16.548   7.895
 2617POPC   C4A35730  34.372  16.764   7.502
 2617POPC   C1B35731  34.748  16.900   8.825
 2617POPC   C2B35732  35.028  17.033   8.491
 2617POPC   C3B35733  34.898  17.194   8.122
 2617POPC   C4B35734  34.677  17.038   7.804
 2618POPC   NC335735  26.898  16.979   9.673
 2618POPC   PO435736  26.522  16.512   9.455
 2618POPC   GL135737  26.790  16.760   9.207
 2618POPC   GL235738  26.654  17.093   9.215
 2618POPC   C1A35739  26.949  16.772   8.784
 2618POPC   D2A35740  27.049  16.905   8.379
 2618POPC   C3A35741  27.077  16.556   8.147
 2618POPC   C4A35742  27.150  16.563   7.735
 2618POPC   C1B35743  26.480  16.955   8.804
 2618POPC   C2B35744  26.534  16.697   8.418
 2618POPC   C3B35745  26.662  16.809   7.994
 2618POPC   C4B35746  26.715  16.745   7.533
 2619POPC   NC335747  40.375   5.716   9.484
 2619POPC   PO435748  39.643   5.866   9.638
 2619POPC   GL135749  39.727   5.943   9.187
 2619POPC   GL235750  39.950   5.662   9.127
 2619POPC   C1A35751  39.778   6.025   8.704
 2619POPC   D2A35752  40.151   6.168   8.460
 2619POPC   C3A35753  40.171   6.063   8.009
 2619POPC   C4A35754  39.838   5.916   7.729
 2619POPC   C1B35755  40.192   5.723   8.742
 2619POPC   C2B35756  40.344   5.654   8.316
 2619POPC   C3B35757  40.247   5.545   7.891
 2619POPC   C4B35758  40.308   5.828   7.542
 2620POPC   NC335759  28.569  22.193   9.497
 2620POPC   PO435760  27.977  21.909   9.363
 2620POPC   GL135761  28.164  22.201   9.108
 2620POPC   GL235762  28.523  22.180   8.998
 2620POPC   C1A35763  28.122  22.114   8.682
 2620POPC   D2A35764  28.315  22.276   8.358
 2620POPC   C3A35765  28.224  22.122   7.967
 2620POPC   C4A35766  28.171  22.306   7.584
 2620POPC   C1B35767  28.780  22.302   8.634
 2620POPC   C2B35768  28.766  22.421   8.195
 2620POPC   C3B35769  28.649  22.350   7.760
 2620POPC   C4B35770  28.636  22.470   7.290
 2621POPC   NC335771  40.388   2.209   9.528
 2621POPC   PO435772  39.785   1.844   9.434
 2621POPC   GL135773  39.974   1.961   9.087
 2621POPC   GL235774  40.308   1.939   9.095
 2621POPC   C1A35775  39.813   1.905   8.717
 2621POPC   D2A35776  39.648   2.010   8.366
 2621POPC   C3A35777  39.836   1.764   8.069
 2621POPC   C4A35778  40.170   1.830   7.801
 2621POPC   C1B35779  40.285   2.133   8.708
 2621POPC   C2B35780  40.235   1.973   8.322
 2621POPC   C3B35781  40.393   2.248   8.023
 2621POPC   C4B35782  40.539   2.154   7.642
 2622POPC   NC335783   4.228  38.058   9.593
 2622POPC   PO435784   4.406  38.759   9.482
 2622POPC   GL135785   4.466  38.549   9.121
 2622POPC   GL235786   4.483  38.196   9.155
 2622POPC   C1A35787   4.279  38.585   8.724
 2622POPC   D2A35788   3.954  38.652   8.436
 2622POPC   C3A35789   4.160  38.679   8.074
 2622POPC   C4A35790   4.020  38.598   7.662
 2622POPC   C1B35791   4.300  38.066   8.778
 2622POPC   C2B35792   4.271  38.237   8.365
 2622POPC   C3B35793   4.134  38.193   7.982
 2622POPC   C4B35794   4.232  37.984   7.684
 2623POPC   NC335795  44.622  15.874   9.526
 2623POPC   PO435796  44.504  16.552   9.434
 2623POPC   GL135797  44.540  16.230   9.128
 2623POPC   GL235798  44.851  16.077   9.123
 2623POPC   C1A35799  44.585  16.003   8.720
 2623POPC   D2A35800  44.403  16.021   8.334
 2623POPC   C3A35801  44.623  16.035   7.953
 2623POPC   C4A35802  44.594  15.632   7.757
 2623POPC   C1B35803   0.098  15.982   8.768
 2623POPC   C2B35804  44.996  15.996   8.358
 2623POPC   C3B35805   0.047  15.738   8.017
 2623POPC   C4B35806   0.032  15.875   7.621
 2624POPC   NC335807  10.125   5.848   9.453
 2624POPC   PO435808  10.684   5.869   9.869
 2624POPC   GL135809  10.621   5.965   9.372
 2624POPC   GL235810  10.892   6.059   9.148
 2624POPC   C1A35811  10.461   5.934   8.890
 2624POPC   D2A35812  10.550   5.778   8.437
 2624POPC   C3A35813  10.449   5.950   8.043
 2624POPC   C4A35814  10.100   5.803   7.770
 2624POPC   C1B35815  10.920   5.770   8.764
 2624POPC   C2B35816  11.053   5.632   8.346
 2624POPC   C3B35817  10.919   5.761   7.934
 2624POPC   C4B35818  10.809   5.584   7.546
 2625POPC   NC335819  42.208  28.637   9.486
 2625POPC   PO435820  42.619  28.129   9.615
 2625POPC   GL135821  42.361  28.227   9.232
 2625POPC   GL235822  42.264  27.936   9.155
 2625POPC   C1A35823  42.366  28.521   8.845
 2625POPC   D2A35824  42.644  28.487   8.457
 2625POPC   C3A35825  42.443  28.446   8.022
 2625POPC   C4A35826  42.565  28.500   7.593
 2625POPC   C1B35827  42.168  28.013   8.755
 2625POPC   C2B35828  42.189  28.277   8.429
 2625POPC   C3B35829  41.946  28.305   8.099
 2625POPC   C4B35830  42.067  28.155   7.751
 2626POPC   NC335831  13.533  30.009   9.579
 2626POPC   PO435832  14.010  29.462   9.503
 2626POPC   GL135833  13.699  29.703   9.197
 2626POPC   GL235834  13.654  30.088   9.108
 2626POPC   C1A35835  13.665  29.682   8.759
 2626POPC   D2A35836  13.912  29.546   8.415
 2626POPC   C3A35837  13.750  29.782   8.069
 2626POPC   C4A35838  13.662  29.664   7.651
 2626POPC   C1B35839  13.440  30.148   8.733
 2626POPC   C2B35840  13.455  30.118   8.323
 2626POPC   C3B35841  13.701  30.381   8.072
 2626POPC   C4B35842  13.799  30.201   7.710
 2627POPC   NC335843  26.502   6.098   9.716
 2627POPC   PO435844  26.681   5.469   9.544
 2627POPC   GL135845  26.798   5.675   9.193
 2627POPC   GL235846  26.774   6.028   9.268
 2627POPC   C1A35847  26.912   5.575   8.798
 2627POPC   D2A35848  26.838   5.868   8.501
 2627POPC   C3A35849  26.759   5.911   8.097
 2627POPC   C4A35850  26.804   5.714   7.731
 2627POPC   C1B35851  26.618   6.145   8.873
 2627POPC   C2B35852  26.784   6.377   8.521
 2627POPC   C3B35853  26.703   6.418   8.075
 2627POPC   C4B35854  26.603   6.200   7.670
 2628POPC   NC335855  44.528  22.101   9.561
 2628POPC   PO435856  44.903  22.661   9.466
 2628POPC   GL135857  44.700  22.419   9.174
 2628POPC   GL235858  44.853  22.108   9.132
 2628POPC   C1A35859  44.564  22.284   8.749
 2628POPC   D2A35860  44.567  22.476   8.332
 2628POPC   C3A35861  44.652  22.294   7.911
 2628POPC   C4A35862  44.581  22.222   7.411
 2628POPC   C1B35863  44.993  21.960   8.769
 2628POPC   C2B35864  44.897  22.075   8.360
 2628POPC   C3B35865   0.007  21.950   7.938
 2628POPC   C4B35866   0.029  22.016   7.485
 2629POPC   NC335867  13.544  28.210   9.402
 2629POPC   PO435868  13.937  28.617   9.751
 2629POPC   GL135869  13.730  28.656   9.225
 2629POPC   GL235870  13.785  28.305   8.971
 2629POPC   C1A35871  13.556  28.693   8.765
 2629POPC   D2A35872  13.652  28.488   8.351
 2629POPC   C3A35873  13.413  28.624   7.968
 2629POPC   C4A35874  13.673  28.481   7.643
 2629POPC   C1B35875  13.488  28.023   8.742
 2629POPC   C2B35876  13.428  27.998   8.310
 2629POPC   C3B35877  13.753  28.093   8.002
 2629POPC   C4B35878  13.504  27.967   7.691
 2630POPC   NC335879   8.535  18.027   9.519
 2630POPC   PO435880   7.935  17.942   9.429
 2630POPC   GL135881   8.247  18.062   9.075
 2630POPC   GL235882   8.525  18.314   9.087
 2630POPC   C1A35883   8.199  18.169   8.625
 2630POPC   D2A35884   8.105  18.422   8.243
 2630POPC   C3A35885   8.023  18.269   7.817
 2630POPC   C4A35886   7.766  18.370   7.445
 2630POPC   C1B35887   8.708  18.135   8.692
 2630POPC   C2B35888   8.598  18.244   8.297
 2630POPC   C3B35889   8.520  18.364   7.919
 2630POPC   C4B35890   8.506  18.092   7.613
 2631POPC   NC335891  27.215  10.644   9.621
 2631POPC   PO435892  27.866  10.605   9.616
 2631POPC   GL135893  27.702  10.447   9.194
 2631POPC   GL235894  27.828  10.126   9.077
 2631POPC   C1A35895  27.586  10.544   8.733
 2631POPC   D2A35896  27.404  10.753   8.365
 2631POPC   C3A35897  27.520  10.649   7.952
 2631POPC   C4A35898  27.504  10.556   7.521
 2631POPC   C1B35899  27.593  10.060   8.690
 2631POPC   C2B35900  27.553  10.210   8.238
 2631POPC   C3B35901  27.628  10.117   7.779
 2631POPC   C4B35902  27.833  10.174   7.340
 2632POPC   NC335903  19.604  31.606   9.506
 2632POPC   PO435904  20.259  31.492   9.478
 2632POPC   GL135905  20.002  31.743   9.187
 2632POPC   GL235906  19.879  31.440   9.110
 2632POPC   C1A35907  19.830  31.771   8.745
 2632POPC   D2A35908  19.826  31.493   8.410
 2632POPC   C3A35909  19.766  31.692   8.036
 2632POPC   C4A35910  19.729  31.510   7.662
 2632POPC   C1B35911  19.902  31.137   8.798
 2632POPC   C2B35912  20.027  31.017   8.378
 2632POPC   C3B35913  19.986  31.175   7.990
 2632POPC   C4B35914  19.819  31.003   7.637
 2633POPC   NC335915   9.301  29.022   9.695
 2633POPC   PO435916   8.805  29.424   9.568
 2633POPC   GL135917   8.897  29.085   9.237
 2633POPC   GL235918   9.235  29.186   9.192
 2633POPC   C1A35919   9.015  29.000   8.763
 2633POPC   D2A35920   9.209  29.225   8.410
 2633POPC   C3A35921   9.107  29.015   8.033
 2633POPC   C4A35922   8.884  28.889   7.659
 2633POPC   C1B35923   8.952  29.476   8.895
 2633POPC   C2B35924   8.730  29.388   8.464
 2633POPC   C3B35925   8.809  29.430   8.029
 2633POPC   C4B35926   8.939  29.391   7.599
 2634POPC   NC335927  33.709   9.698   9.472
 2634POPC   PO435928  34.390   9.766   9.507
 2634POPC   GL135929  34.121   9.739   9.164
 2634POPC   GL235930  34.030  10.087   9.254
 2634POPC   C1A35931  33.907   9.554   8.778
 2634POPC   D2A35932  33.643   9.611   8.388
 2634POPC   C3A35933  33.914   9.749   8.045
 2634POPC   C4A35934  34.230   9.452   7.882
 2634POPC   C1B35935  33.860  10.069   8.846
 2634POPC   C2B35936  33.745  10.126   8.430
 2634POPC   C3B35937  33.723  10.264   8.024
 2634POPC   C4B35938  33.716  10.026   7.652
 2635POPC   NC335939  13.746  32.457   9.574
 2635POPC   PO435940  13.868  31.904   9.177
 2635POPC   GL135941  13.581  32.230   9.058
 2635POPC   GL235942  13.548  32.586   9.128
 2635POPC   C1A35943  13.309  32.200   8.686
 2635POPC   D2A35944  13.314  31.936   8.310
 2635POPC   C3A35945  13.440  32.107   7.933
 2635POPC   C4A35946  13.709  31.987   7.630
 2635POPC   C1B35947  13.705  32.614   8.709
 2635POPC   C2B35948  13.788  32.256   8.446
 2635POPC   C3B35949  13.942  32.207   8.043
 2635POPC   C4B35950  13.777  32.521   7.772
 2636POPC   NC335951  30.883   3.183   9.228
 2636POPC   PO435952  30.460   3.655   9.445
 2636POPC   GL135953  30.732   3.659   9.066
 2636POPC   GL235954  31.081   3.815   9.085
 2636POPC   C1A35955  30.647   3.375   8.672
 2636POPC   D2A35956  30.685   3.045   8.362
 2636POPC   C3A35957  30.572   3.352   8.093
 2636POPC   C4A35958  30.668   3.593   7.740
 2636POPC   C1B35959  31.143   3.507   8.747
 2636POPC   C2B35960  31.128   3.331   8.321
 2636POPC   C3B35961  31.162   3.401   7.876
 2636POPC   C4B35962  31.241   3.610   7.486
 2637POPC   NC335963  36.689  32.520   9.508
 2637POPC   PO435964  36.964  33.147   9.582
 2637POPC   GL135965  37.043  33.108   9.191
 2637POPC   GL235966  37.021  32.759   9.158
 2637POPC   C1A35967  36.820  33.175   8.830
 2637POPC   D2A35968  36.659  33.257   8.441
 2637POPC   C3A35969  36.842  33.312   8.064
 2637POPC   C4A35970  37.034  33.249   7.688
 2637POPC   C1B35971  37.185  32.841   8.748
 2637POPC   C2B35972  37.111  32.956   8.364
 2637POPC   C3B35973  37.030  32.830   7.984
 2637POPC   C4B35974  37.277  32.792   7.651
 2638POPC   NC335975   6.662   1.619   9.416
 2638POPC   PO435976   6.366   1.025   9.446
 2638POPC   GL135977   6.530   1.164   9.082
 2638POPC   GL235978   6.341   1.448   9.081
 2638POPC   C1A35979   6.792   1.376   8.772
 2638POPC   D2A35980   6.948   1.214   8.368
 2638POPC   C3A35981   6.842   1.337   7.962
 2638POPC   C4A35982   6.774   1.000   7.704
 2638POPC   C1B35983   6.251   1.336   8.669
 2638POPC   C2B35984   6.115   1.373   8.253
 2638POPC   C3B35985   6.330   1.204   7.920
 2638POPC   C4B35986   6.373   1.226   7.485
 2639POPC   NC335987  29.237  21.823   9.504
 2639POPC   PO435988  28.993  22.438   9.510
 2639POPC   GL135989  29.219  22.237   9.174
 2639POPC   GL235990  28.977  21.958   9.093
 2639POPC   C1A35991  29.308  22.343   8.724
 2639POPC   D2A35992  29.195  22.642   8.345
 2639POPC   C3A35993  29.201  22.434   7.940
 2639POPC   C4A35994  29.086  22.401   7.484
 2639POPC   C1B35995  29.326  21.823   8.848
 2639POPC   C2B35996  29.159  21.903   8.467
 2639POPC   C3B35997  29.293  21.947   8.083
 2639POPC   C4B35998  28.996  21.983   7.825
 2640POPC   NC335999  11.206  27.285   9.719
 2640POPC   PO436000  11.611  26.746   9.611
 2640POPC   GL136001  11.447  26.759   9.233
 2640POPC   GL236002  11.428  27.133   9.264
 2640POPC   C1A36003  11.456  26.618   8.809
 2640POPC   D2A36004  11.252  26.702   8.421
 2640POPC   C3A36005  11.416  26.535   8.073
 2640POPC   C4A36006  11.375  26.351   7.698
 2640POPC   C1B36007  11.211  27.066   8.858
 2640POPC   C2B36008  11.179  27.214   8.428
 2640POPC   C3B36009  11.379  27.055   8.053
 2640POPC   C4B36010  11.333  27.140   7.610
 2641POPC   NC336011   9.740  39.074   9.799
 2641POPC   PO436012   9.210  39.315   9.573
 2641POPC   GL136013   9.429  39.056   9.233
 2641POPC   GL236014   9.789  38.940   9.237
 2641POPC   C1A36015   9.621  39.197   8.830
 2641POPC   D2A36016   9.465  39.243   8.435
 2641POPC   C3A36017   9.681  39.351   8.038
 2641POPC   C4A36018   9.547  39.411   7.618
 2641POPC   C1B36019  10.048  38.929   8.841
 2641POPC   C2B36020   9.955  39.020   8.394
 2641POPC   C3B36021  10.211  39.191   8.051
 2641POPC   C4B36022  10.305  38.979   7.665
 2642POPC   NC336023   2.281   0.970   9.362
 2642POPC   PO436024   2.868   1.353   9.432
 2642POPC   GL136025   2.724   1.143   9.117
 2642POPC   GL236026   2.547   1.434   8.993
 2642POPC   C1A36027   2.915   1.207   8.720
 2642POPC   D2A36028   2.779   1.017   8.377
 2642POPC   C3A36029   2.871   1.198   7.999
 2642POPC   C4A36030   3.023   0.967   7.712
 2642POPC   C1B36031   2.401   1.108   8.697
 2642POPC   C2B36032   2.299   1.160   8.242
 2642POPC   C3B36033   2.384   1.182   7.802
 2642POPC   C4B36034   2.704   1.364   7.525
 2643POPC   NC336035   4.486  40.433   9.479
 2643POPC   PO436036   4.116  41.013   9.546
 2643POPC   GL136037   4.124  40.659   9.200
 2643POPC   GL236038   4.346  40.875   9.107
 2643POPC   C1A36039   4.327  40.529   8.754
 2643POPC   D2A36040   4.555  40.630   8.347
 2643POPC   C3A36041   4.502  40.551   7.891
 2643POPC   C4A36042   4.135  40.409   7.699
 2643POPC   C1B36043   4.291  41.078   8.731
 2643POPC   C2B36044   4.475  41.137   8.357
 2643POPC   C3B36045   4.306  41.018   7.998
 2643POPC   C4B36046   4.193  40.904   7.607
 2644POPC   NC336047  27.765   5.363   9.822
 2644POPC   PO436048  27.902   4.774   9.467
 2644POPC   GL136049  27.895   4.776   9.019
 2644POPC   GL236050  27.544   4.762   8.970
 2644POPC   C1A36051  27.919   4.951   8.590
 2644POPC   D2A36052  27.980   5.374   8.416
 2644POPC   C3A36053  27.921   5.384   7.965
 2644POPC   C4A36054  27.753   5.001   7.798
 2644POPC   C1B36055  27.477   5.160   8.712
 2644POPC   C2B36056  27.501   5.218   8.241
 2644POPC   C3B36057  27.318   5.244   7.811
 2644POPC   C4B36058  27.327   5.316   7.354
 2645POPC   NC336059   7.322  44.391   9.756
 2645POPC   PO436060   7.295  43.775   9.400
 2645POPC   GL136061   7.225  43.906   9.022
 2645POPC   GL236062   7.062  43.605   8.951
 2645POPC   C1A36063   7.282  44.224   8.681
 2645POPC   D2A36064   7.080  44.314   8.290
 2645POPC   C3A36065   7.299  44.068   7.986
 2645POPC   C4A36066   7.665  44.114   7.688
 2645POPC   C1B36067   7.228  43.685   8.553
 2645POPC   C2B36068   7.559  43.487   8.323
 2645POPC   C3B36069   7.555  43.620   7.913
 2645POPC   C4B36070   7.158  43.703   7.678
 2646POPC   NC336071  35.496   4.205   9.570
 2646POPC   PO436072  35.271   4.708   9.204
 2646POPC   GL136073  35.427   4.558   8.920
 2646POPC   GL236074  35.529   4.232   9.034
 2646POPC   C1A36075  35.478   4.656   8.521
 2646POPC   D2A36076  35.580   4.295   8.332
 2646POPC   C3A36077  35.347   4.369   8.009
 2646POPC   C4A36078  35.373   4.584   7.647
 2646POPC   C1B36079  35.325   3.996   8.726
 2646POPC   C2B36080  35.178   3.930   8.308
 2646POPC   C3B36081  35.316   3.879   7.899
 2646POPC   C4B36082  35.582   4.074   7.593
 2647POPC   NC336083  44.112  19.099   9.643
 2647POPC   PO436084  43.543  19.465   9.678
 2647POPC   GL136085  43.769  19.297   9.267
 2647POPC   GL236086  44.081  19.071   9.144
 2647POPC   C1A36087  43.642  19.100   8.850
 2647POPC   D2A36088  43.738  18.961   8.412
 2647POPC   C3A36089  43.832  19.210   8.047
 2647POPC   C4A36090  43.582  19.221   7.652
 2647POPC   C1B36091  44.086  18.775   8.791
 2647POPC   C2B36092  44.202  18.720   8.369
 2647POPC   C3B36093  43.979  18.691   7.935
 2647POPC   C4B36094  44.037  18.663   7.457
 2648POPC   NC336095  44.825   6.444   9.458
 2648POPC   PO436096  44.401   6.891   9.603
 2648POPC   GL136097  44.562   6.827   9.186
 2648POPC   GL236098  44.736   7.120   9.130
 2648POPC   C1A36099  44.577   6.634   8.760
 2648POPC   D2A36100  44.427   6.360   8.391
 2648POPC   C3A36101  44.569   6.564   8.017
 2648POPC   C4A36102  44.465   6.837   7.651
 2648POPC   C1B36103  44.914   7.067   8.716
 2648POPC   C2B36104  44.968   6.850   8.325
 2648POPC   C3B36105  44.905   6.961   7.899
 2648POPC   C4B36106  44.938   6.871   7.437
 2649POPC   NC336107  15.003  31.196   9.540
 2649POPC   PO436108  15.506  31.584   9.483
 2649POPC   GL136109  15.308  31.388   9.107
 2649POPC   GL236110  14.986  31.265   9.049
 2649POPC   C1A36111  15.214  31.505   8.660
 2649POPC   D2A36112  15.345  31.353   8.267
 2649POPC   C3A36113  15.062  31.421   7.950
 2649POPC   C4A36114  15.065  31.267   7.528
 2649POPC   C1B36115  14.733  31.116   8.717
 2649POPC   C2B36116  14.691  31.257   8.284
 2649POPC   C3B36117  14.680  31.123   7.827
 2649POPC   C4B36118  14.599  31.179   7.353
 2650POPC   NC336119  19.975  22.200   9.652
 2650POPC   PO436120  20.628  22.020   9.546
 2650POPC   GL136121  20.701  22.074   9.144
 2650POPC   GL236122  20.829  21.738   9.119
 2650POPC   C1A36123  20.630  22.357   8.808
 2650POPC   D2A36124  20.590  22.183   8.398
 2650POPC   C3A36125  20.555  22.373   7.999
 2650POPC   C4A36126  20.756  22.213   7.649
 2650POPC   C1B36127  20.529  21.721   8.785
 2650POPC   C2B36128  20.593  21.648   8.362
 2650POPC   C3B36129  20.579  21.838   7.987
 2650POPC   C4B36130  20.971  21.767   7.817
 2651POPC   NC336131  23.597  36.058   9.481
 2651POPC   PO436132  24.147  36.268   9.449
 2651POPC   GL136133  23.891  36.172   9.080
 2651POPC   GL236134  23.716  35.885   9.036
 2651POPC   C1A36135  23.710  36.252   8.671
 2651POPC   D2A36136  23.781  36.538   8.345
 2651POPC   C3A36137  23.778  36.338   7.940
 2651POPC   C4A36138  23.604  36.485   7.542
 2651POPC   C1B36139  23.854  35.683   8.674
 2651POPC   C2B36140  23.666  35.826   8.297
 2651POPC   C3B36141  23.777  35.800   7.871
 2651POPC   C4B36142  23.905  36.049   7.528
 2652POPC   NC336143  22.635  29.526   9.538
 2652POPC   PO436144  21.978  29.182   9.550
 2652POPC   GL136145  22.068  29.130   9.152
 2652POPC   GL236146  22.210  29.461   9.153
 2652POPC   C1A36147  22.046  29.182   8.722
 2652POPC   D2A36148  22.020  29.041   8.335
 2652POPC   C3A36149  22.048  29.356   8.032
 2652POPC   C4A36150  22.159  29.193   7.633
 2652POPC   C1B36151  22.528  29.513   8.839
 2652POPC   C2B36152  22.423  29.404   8.417
 2652POPC   C3B36153  22.606  29.464   8.027
 2652POPC   C4B36154  22.469  29.596   7.631
 2653POPC   NC336155  38.048  10.168   9.498
 2653POPC   PO436156  38.480  10.789   9.502
 2653POPC   GL136157  38.489  10.531   9.146
 2653POPC   GL236158  38.146  10.502   9.116
 2653POPC   C1A36159  38.661  10.330   8.758
 2653POPC   D2A36160  38.509  10.443   8.348
 2653POPC   C3A36161  38.683  10.524   7.931
 2653POPC   C4A36162  38.547  10.466   7.495
 2653POPC   C1B36163  38.233  10.698   8.721
 2653POPC   C2B36164  38.097  10.725   8.282
 2653POPC   C3B36165  38.217  10.750   7.845
 2653POPC   C4B36166  38.108  10.886   7.445
 2654POPC   NC336167  25.022  39.592   9.506
 2654POPC   PO436168  25.369  39.009   9.544
 2654POPC   GL136169  25.343  39.161   9.126
 2654POPC   GL236170  25.072  39.362   9.048
 2654POPC   C1A36171  25.496  39.321   8.737
 2654POPC   D2A36172  25.491  39.104   8.364
 2654POPC   C3A36173  25.508  39.319   7.962
 2654POPC   C4A36174  25.304  38.938   7.828
 2654POPC   C1B36175  25.062  39.037   8.711
 2654POPC   C2B36176  24.927  38.950   8.280
 2654POPC   C3B36177  24.792  39.145   7.888
 2654POPC   C4B36178  24.941  39.011   7.466
 2655POPC   NC336179  44.438  18.683   9.368
 2655POPC   PO436180  44.656  18.030   9.491
 2655POPC   GL136181  44.750  18.322   9.139
 2655POPC   GL236182  44.924  18.664   9.184
 2655POPC   C1A36183  44.537  18.447   8.763
 2655POPC   D2A36184  44.490  18.231   8.394
 2655POPC   C3A36185  44.407  18.414   8.028
 2655POPC   C4A36186  44.577  18.186   7.769
 2655POPC   C1B36187   0.008  18.622   8.731
 2655POPC   C2B36188  44.762  18.660   8.334
 2655POPC   C3B36189  44.892  18.592   7.931
 2655POPC   C4B36190  44.951  18.454   7.519
 2656POPC   NC336191  24.260  24.741   9.311
 2656POPC   PO436192  24.191  24.111   9.399
 2656POPC   GL136193  24.421  24.313   9.062
 2656POPC   GL236194  24.736  24.450   9.183
 2656POPC   C1A36195  24.333  24.496   8.654
 2656POPC   D2A36196  24.094  24.403   8.279
 2656POPC   C3A36197  24.325  24.621   8.010
 2656POPC   C4A36198  24.527  24.344   7.746
 2656POPC   C1B36199  24.834  24.653   8.772
 2656POPC   C2B36200  24.746  24.690   8.339
 2656POPC   C3B36201  24.770  24.871   7.895
 2656POPC   C4B36202  24.801  24.667   7.468
 2657POPC   NC336203  25.251  33.332   9.451
 2657POPC   PO436204  24.977  32.728   9.677
 2657POPC   GL136205  25.128  32.837   9.151
 2657POPC   GL236206  25.465  32.762   8.972
 2657POPC   C1A36207  25.160  33.074   8.698
 2657POPC   D2A36208  25.174  33.313   8.290
 2657POPC   C3A36209  24.898  33.096   8.023
 2657POPC   C4A36210  25.039  32.814   7.748
 2657POPC   C1B36211  25.649  33.151   8.771
 2657POPC   C2B36212  25.783  33.234   8.366
 2657POPC   C3B36213  25.610  33.064   8.002
 2657POPC   C4B36214  25.712  32.916   7.595
 2658POPC   NC336215  23.099   2.518   9.754
 2658POPC   PO436216  22.628   2.843   9.472
 2658POPC   GL136217  22.889   2.685   9.111
 2658POPC   GL236218  23.192   2.907   8.960
 2658POPC   C1A36219  22.901   2.527   8.704
 2658POPC   D2A36220  22.760   2.721   8.342
 2658POPC   C3A36221  22.841   2.522   7.967
 2658POPC   C4A36222  22.658   2.619   7.542
 2658POPC   C1B36223  23.311   2.813   8.574
 2658POPC   C2B36224  23.302   2.730   8.136
 2658POPC   C3B36225  23.304   3.056   7.823
 2658POPC   C4B36226  23.332   3.120   7.382
 2659POPC   NC336227  23.594   7.049   9.446
 2659POPC   PO436228  24.173   6.612   9.453
 2659POPC   GL136229  23.782   6.621   9.183
 2659POPC   GL236230  23.541   6.345   9.243
 2659POPC   C1A36231  23.627   6.711   8.750
 2659POPC   D2A36232  23.859   6.632   8.354
 2659POPC   C3A36233  23.677   6.741   7.978
 2659POPC   C4A36234  23.668   7.023   7.631
 2659POPC   C1B36235  23.472   6.135   8.837
 2659POPC   C2B36236  23.456   6.257   8.405
 2659POPC   C3B36237  23.250   6.450   8.059
 2659POPC   C4B36238  23.365   6.525   7.646
 2660POPC   NC336239  22.531   7.915   9.585
 2660POPC   PO436240  22.045   8.430   9.652
 2660POPC   GL136241  22.183   8.187   9.316
 2660POPC   GL236242  22.319   8.479   9.179
 2660POPC   C1A36243  22.300   7.990   8.911
 2660POPC   D2A36244  22.393   7.862   8.471
 2660POPC   C3A36245  22.312   8.054   8.064
 2660POPC   C4A36246  22.484   8.277   7.728
 2660POPC   C1B36247  21.986   8.399   8.894
 2660POPC   C2B36248  22.052   8.274   8.484
 2660POPC   C3B36249  22.089   8.570   8.157
 2660POPC   C4B36250  22.057   8.529   7.759
 2661POPC   NC336251   3.246   9.832   9.773
 2661POPC   PO436252   3.893   9.765   9.396
 2661POPC   GL136253   3.723   9.777   8.923
 2661POPC   GL236254   3.311   9.869   8.875
 2661POPC   C1A36255   3.618   9.780   8.515
 2661POPC   D2A36256   3.711   9.985   8.237
 2661POPC   C3A36257   3.711   9.729   7.937
 2661POPC   C4A36258   3.408   9.956   7.724
 2661POPC   C1B36259   3.196   9.497   8.614
 2661POPC   C2B36260   3.302   9.434   8.170
 2661POPC   C3B36261   3.319   9.474   7.714
 2661POPC   C4B36262   3.406   9.547   7.246
 2662POPC   NC336263  44.399  40.469   9.436
 2662POPC   PO436264  44.699  41.071   9.426
 2662POPC   GL136265  44.766  40.706   9.157
 2662POPC   GL236266   0.041  40.484   9.206
 2662POPC   C1A36267  44.547  40.653   8.764
 2662POPC   D2A36268  44.486  40.353   8.433
 2662POPC   C3A36269  44.259  40.538   8.077
 2662POPC   C4A36270  44.536  40.780   7.791
 2662POPC   C1B36271  44.974  40.370   8.795
 2662POPC   C2B36272  44.970  40.570   8.425
 2662POPC   C3B36273  44.873  40.404   8.020
 2662POPC   C4B36274  44.935  40.532   7.596
 2663POPC   NC336275  38.473   0.503   9.839
 2663POPC   PO436276  38.737   0.170   9.300
 2663POPC   GL136277  38.434   0.317   9.029
 2663POPC   GL236278  38.401   0.606   9.234
 2663POPC   C1A36279  38.439   0.321   8.595
 2663POPC   D2A36280  38.740   0.573   8.339
 2663POPC   C3A36281  38.614   0.443   7.930
 2663POPC   C4A36282  38.237   0.190   7.964
 2663POPC   C1B36283  38.379   0.778   8.775
 2663POPC   C2B36284  38.240   0.693   8.275
 2663POPC   C3B36285  38.153   0.669   7.802
 2663POPC   C4B36286  38.101   0.719   7.326
 2664POPC   NC336287  34.341   7.031   9.408
 2664POPC   PO436288  34.907   6.634   9.418
 2664POPC   GL136289  34.759   6.613   9.037
 2664POPC   GL236290  34.406   6.636   9.088
 2664POPC   C1A36291  34.565   6.382   8.683
 2664POPC   D2A36292  34.281   6.521   8.354
 2664POPC   C3A36293  34.495   6.438   7.977
 2664POPC   C4A36294  34.810   6.566   7.619
 2664POPC   C1B36295  34.424   6.914   8.747
 2664POPC   C2B36296  34.251   7.062   8.368
 2664POPC   C3B36297  34.383   6.944   7.965
 2664POPC   C4B36298  34.313   6.697   7.591
 2665POPC   NC336299  43.755  11.311   9.385
 2665POPC   PO436300  44.328  11.362   9.697
 2665POPC   GL136301  44.191  11.332   9.148
 2665POPC   GL236302  43.903  11.580   8.987
 2665POPC   C1A36303  44.044  11.185   8.688
 2665POPC   D2A36304  44.178  11.212   8.229
 2665POPC   C3A36305  44.044  10.975   7.824
 2665POPC   C4A36306  43.813  11.155   7.471
 2665POPC   C1B36307  43.550  11.573   8.688
 2665POPC   C2B36308  43.711  11.442   8.294
 2665POPC   C3B36309  43.890  11.479   7.887
 2665POPC   C4B36310  43.904  11.687   7.470
 2666POPC   NC336311   2.538  18.179   9.530
 2666POPC   PO436312   2.986  18.616   9.489
 2666POPC   GL136313   2.675  18.489   9.147
 2666POPC   GL236314   2.641  18.088   9.050
 2666POPC   C1A36315   2.428  18.427   8.765
 2666POPC   D2A36316   2.538  18.059   8.521
 2666POPC   C3A36317   2.592  18.107   8.086
 2666POPC   C4A36318   2.771  18.139   7.656
 2666POPC   C1B36319   3.003  18.230   8.870
 2666POPC   C2B36320   3.023  18.289   8.458
 2666POPC   C3B36321   3.064  18.287   8.041
 2666POPC   C4B36322   3.151  18.468   7.646
 2667POPC   NC336323   2.002  14.110   9.783
 2667POPC   PO436324   1.904  14.732   9.472
 2667POPC   GL136325   1.863  14.287   9.302
 2667POPC   GL236326   2.129  14.075   9.173
 2667POPC   C1A36327   1.750  14.261   8.866
 2667POPC   D2A36328   1.874  14.579   8.542
 2667POPC   C3A36329   1.748  14.419   8.140
 2667POPC   C4A36330   1.796  14.307   7.728
 2667POPC   C1B36331   2.265  14.327   8.804
 2667POPC   C2B36332   2.403  14.279   8.350
 2667POPC   C3B36333   2.256  14.456   7.920
 2667POPC   C4B36334   2.239  14.297   7.474
 2668POPC   NC336335  16.975  31.869   9.539
 2668POPC   PO436336  16.845  32.557   9.496
 2668POPC   GL136337  16.716  32.191   9.219
 2668POPC   GL236338  16.340  32.085   9.202
 2668POPC   C1A36339  16.907  32.143   8.799
 2668POPC   D2A36340  17.016  32.453   8.473
 2668POPC   C3A36341  16.950  32.274   8.063
 2668POPC   C4A36342  17.081  32.464   7.716
 2668POPC   C1B36343  16.401  32.293   8.817
 2668POPC   C2B36344  16.573  32.172   8.421
 2668POPC   C3B36345  16.444  32.142   8.041
 2668POPC   C4B36346  16.568  32.323   7.678
 2669POPC   NC336347  29.483   5.295   9.428
 2669POPC   PO436348  28.850   5.211   9.544
 2669POPC   GL136349  29.073   5.069   9.175
 2669POPC   GL236350  29.327   5.255   8.959
 2669POPC   C1A36351  28.886   4.903   8.831
 2669POPC   D2A36352  28.706   4.674   8.498
 2669POPC   C3A36353  28.786   4.905   8.140
 2669POPC   C4A36354  28.932   4.899   7.742
 2669POPC   C1B36355  29.357   4.978   8.621
 2669POPC   C2B36356  29.314   5.037   8.189
 2669POPC   C3B36357  29.377   5.089   7.768
 2669POPC   C4B36358  29.347   4.783   7.428
 2670POPC   NC336359  17.753  34.316   9.482
 2670POPC   PO436360  17.508  34.904   9.606
 2670POPC   GL136361  17.514  34.687   9.214
 2670POPC   GL236362  17.802  34.563   9.044
 2670POPC   C1A36363  17.334  34.641   8.821
 2670POPC   D2A36364  17.375  34.401   8.450
 2670POPC   C3A36365  17.406  34.588   8.074
 2670POPC   C4A36366  17.326  34.414   7.679
 2670POPC   C1B36367  17.722  34.199   8.788
 2670POPC   C2B36368  17.735  34.043   8.336
 2670POPC   C3B36369  17.769  34.265   7.907
 2670POPC   C4B36370  17.709  34.194   7.425
 2671POPC   NC336371   3.292  40.225   9.428
 2671POPC   PO436372   3.976  40.204   9.511
 2671POPC   GL136373   3.796  40.194   9.126
 2671POPC   GL236374   3.617  40.480   9.136
 2671POPC   C1A36375   3.670  39.886   8.806
 2671POPC   D2A36376   3.404  39.774   8.429
 2671POPC   C3A36377   3.605  39.780   8.002
 2671POPC   C4A36378   3.355  39.811   7.604
 2671POPC   C1B36379   3.371  40.300   8.801
 2671POPC   C2B36380   3.132  40.237   8.452
 2671POPC   C3B36381   3.219  40.099   8.045
 2671POPC   C4B36382   3.078  40.230   7.659
 2672POPC   NC336383  34.959  22.863   9.600
 2672POPC   PO436384  35.496  23.163   9.484
 2672POPC   GL136385  35.269  22.947   9.185
 2672POPC   GL236386  35.120  23.257   9.143
 2672POPC   C1A36387  35.314  22.768   8.774
 2672POPC   D2A36388  35.149  22.616   8.385
 2672POPC   C3A36389  35.082  22.863   8.038
 2672POPC   C4A36390  35.159  22.666   7.628
 2672POPC   C1B36391  35.385  23.282   8.805
 2672POPC   C2B36392  35.378  23.103   8.385
 2672POPC   C3B36393  35.628  23.181   8.049
 2672POPC   C4B36394  35.402  23.114   7.689
 2673POPC   NC336395  10.053  26.696   9.488
 2673POPC   PO436396   9.305  26.858   9.503
 2673POPC   GL136397   9.460  27.092   9.174
 2673POPC   GL236398   9.769  26.974   9.173
 2673POPC   C1A36399   9.488  26.845   8.773
 2673POPC   D2A36400   9.532  26.597   8.396
 2673POPC   C3A36401   9.577  26.928   8.129
 2673POPC   C4A36402   9.810  27.035   7.799
 2673POPC   C1B36403  10.010  26.837   8.836
 2673POPC   C2B36404  10.027  26.798   8.410
 2673POPC   C3B36405  10.010  26.614   8.022
 2673POPC   C4B36406  10.097  26.658   7.597
 2674POPC   NC336407   2.840  22.318   9.809
 2674POPC   PO436408   2.440  22.279   9.260
 2674POPC   GL136409   2.857  22.375   9.279
 2674POPC   GL236410   3.045  22.097   9.222
 2674POPC   C1A36411   3.038  22.522   8.889
 2674POPC   D2A36412   2.717  22.468   8.545
 2674POPC   C3A36413   2.851  22.380   8.105
 2674POPC   C4A36414   2.672  22.414   7.691
 2674POPC   C1B36415   2.843  22.046   8.820
 2674POPC   C2B36416   3.006  22.001   8.425
 2674POPC   C3B36417   2.911  21.851   7.989
 2674POPC   C4B36418   3.063  22.100   7.642
 2675POPC   NC336419  10.860  41.022   9.853
 2675POPC   PO436420  10.259  40.698   9.621
 2675POPC   GL136421  10.376  40.824   9.200
 2675POPC   GL236422  10.137  40.794   9.021
 2675POPC   C1A36423  10.641  40.960   8.808
 2675POPC   D2A36424  10.673  41.241   8.427
 2675POPC   C3A36425  10.533  41.027   8.056
 2675POPC   C4A36426  10.733  40.640   7.962
 2675POPC   C1B36427  10.319  40.574   8.641
 2675POPC   C2B36428  10.274  40.503   8.166
 2675POPC   C3B36429  10.364  40.398   7.684
 2675POPC   C4B36430  10.571  40.225   7.291
 2676POPC   NC336431  36.880  24.496   9.506
 2676POPC   PO436432  37.436  24.414   9.179
 2676POPC   GL136433  36.993  24.362   9.016
 2676POPC   GL236434  36.698  24.598   9.046
 2676POPC   C1A36435  36.693  24.272   8.644
 2676POPC   D2A36436  36.686  24.515   8.240
 2676POPC   C3A36437  36.587  24.394   7.780
 2676POPC   C4A36438  36.584  24.221   7.321
 2676POPC   C1B36439  36.876  24.759   8.688
 2676POPC   C2B36440  37.135  24.742   8.325
 2676POPC   C3B36441  37.089  24.547   7.930
 2676POPC   C4B36442  36.978  24.702   7.531
 2677POPC   NC336443  37.266   8.531   9.631
 2677POPC   PO436444  37.587   9.135   9.806
 2677POPC   GL136445  37.607   9.108   9.345
 2677POPC   GL236446  37.278   8.953   9.313
 2677POPC   C1A36447  37.790   8.832   8.994
 2677POPC   D2A36448  37.690   8.849   8.537
 2677POPC   C3A36449  37.919   8.955   8.171
 2677POPC   C4A36450  37.955   8.832   7.759
 2677POPC   C1B36451  37.285   8.863   8.873
 2677POPC   C2B36452  37.249   8.602   8.493
 2677POPC   C3B36453  37.251   8.951   8.174
 2677POPC   C4B36454  37.511   9.095   7.815
 2678POPC   NC336455  36.501  43.303  10.082
 2678POPC   PO436456  35.906  43.137   9.686
 2678POPC   GL136457  36.031  43.115   9.235
 2678POPC   GL236458  36.286  43.360   9.099
 2678POPC   C1A36459  35.843  43.240   8.835
 2678POPC   D2A36460  35.954  43.135   8.410
 2678POPC   C3A36461  35.721  43.239   8.070
 2678POPC   C4A36462  35.975  43.099   7.765
 2678POPC   C1B36463  36.375  43.262   8.682
 2678POPC   C2B36464  36.430  43.320   8.252
 2678POPC   C3B36465  36.467  43.027   7.913
 2678POPC   C4B36466  36.459  42.765   7.541
 2679POPC   NC336467  34.434  34.014   9.440
 2679POPC   PO436468  34.134  33.426   9.457
 2679POPC   GL136469  34.409  33.586   9.122
 2679POPC   GL236470  34.760  33.648   9.201
 2679POPC   C1A36471  34.590  33.496   8.709
 2679POPC   D2A36472  34.681  33.409   8.274
 2679POPC   C3A36473  34.507  33.733   8.020
 2679POPC   C4A36474  34.131  33.748   7.798
 2679POPC   C1B36475  34.738  33.974   8.842
 2679POPC   C2B36476  34.818  33.906   8.419
 2679POPC   C3B36477  34.802  34.142   8.056
 2679POPC   C4B36478  34.689  34.151   7.649
 2680POPC   NC336479  33.757  22.582   9.423
 2680POPC   PO436480  33.292  22.213   9.681
 2680POPC   GL136481  33.541  22.150   9.222
 2680POPC   GL236482  33.549  22.412   9.004
 2680POPC   C1A36483  33.872  22.086   8.819
 2680POPC   D2A36484  33.732  21.985   8.360
 2680POPC   C3A36485  33.963  21.968   7.979
 2680POPC   C4A36486  34.161  21.790   7.618
 2680POPC   C1B36487  33.382  22.180   8.682
 2680POPC   C2B36488  33.257  22.229   8.284
 2680POPC   C3B36489  33.390  22.123   7.906
 2680POPC   C4B36490  33.472  22.305   7.505
 2681POPC   NC336491  31.961  43.169   9.557
 2681POPC   PO436492  32.633  43.494   9.638
 2681POPC   GL136493  32.406  43.192   9.284
 2681POPC   GL236494  32.541  42.827   9.182
 2681POPC   C1A36495  32.163  43.131   8.896
 2681POPC   D2A36496  31.986  43.282   8.488
 2681POPC   C3A36497  32.300  43.326   8.145
 2681POPC   C4A36498  32.138  43.183   7.754
 2681POPC   C1B36499  32.393  42.686   8.766
 2681POPC   C2B36500  32.430  42.879   8.354
 2681POPC   C3B36501  32.447  42.824   7.895
 2681POPC   C4B36502  32.368  42.848   7.420
 2682POPC   NC336503  12.296  34.086   9.372
 2682POPC   PO436504  11.766  33.618   9.560
 2682POPC   GL136505  11.891  33.807   9.183
 2682POPC   GL236506  12.208  33.639   9.120
 2682POPC   C1A36507  11.870  33.646   8.755
 2682POPC   D2A36508  12.106  33.596   8.367
 2682POPC   C3A36509  11.913  33.669   7.971
 2682POPC   C4A36510  11.850  34.050   7.734
 2682POPC   C1B36511  12.361  33.895   8.748
 2682POPC   C2B36512  12.558  33.839   8.345
 2682POPC   C3B36513  12.357  33.943   7.951
 2682POPC   C4B36514  12.244  33.774   7.583
 2683POPC   NC336515  24.247   3.589   9.516
 2683POPC   PO436516  24.944   3.635   9.411
 2683POPC   GL136517  24.626   3.743   9.180
 2683POPC   GL236518  24.527   3.392   9.145
 2683POPC   C1A36519  24.386   3.783   8.818
 2683POPC   D2A36520  24.534   3.867   8.429
 2683POPC   C3A36521  24.398   3.684   8.076
 2683POPC   C4A36522  24.547   3.629   7.688
 2683POPC   C1B36523  24.355   3.262   8.767
 2683POPC   C2B36524  24.584   3.344   8.407
 2683POPC   C3B36525  24.570   3.201   7.984
 2683POPC   C4B36526  24.338   3.135   7.648
 2684POPC   NC336527  33.590  14.581   9.396
 2684POPC   PO436528  33.128  14.247   9.762
 2684POPC   GL136529  33.011  14.416   9.266
 2684POPC   GL236530  33.227  14.586   9.076
 2684POPC   C1A36531  32.831  14.500   8.799
 2684POPC   D2A36532  32.777  14.251   8.433
 2684POPC   C3A36533  32.638  14.420   8.058
 2684POPC   C4A36534  32.737  14.251   7.656
 2684POPC   C1B36535  33.340  14.413   8.744
 2684POPC   C2B36536  33.311  14.195   8.402
 2684POPC   C3B36537  33.101  14.198   8.047
 2684POPC   C4B36538  33.119  13.918   7.729
 2685POPC   NC336539  16.958  13.377   9.633
 2685POPC   PO436540  16.619  12.807   9.412
 2685POPC   GL136541  16.490  12.860   9.008
 2685POPC   GL236542  16.460  13.216   8.973
 2685POPC   C1A36543  16.618  12.722   8.597
 2685POPC   D2A36544  16.916  12.915   8.319
 2685POPC   C3A36545  16.857  12.875   7.854
 2685POPC   C4A36546  16.798  12.801   7.387
 2685POPC   C1B36547  16.405  13.194   8.550
 2685POPC   C2B36548  16.456  13.047   8.130
 2685POPC   C3B36549  16.389  13.016   7.663
 2685POPC   C4B36550  16.405  13.113   7.210
 2686POPC   NC336551  22.844  41.940   9.578
 2686POPC   PO436552  22.893  42.619   9.751
 2686POPC   GL136553  22.920  42.475   9.296
 2686POPC   GL236554  22.675  42.726   9.251
 2686POPC   C1A36555  23.007  42.245   8.848
 2686POPC   D2A36556  23.159  42.226   8.371
 2686POPC   C3A36557  22.831  42.170   8.022
 2686POPC   C4A36558  22.826  42.020   7.559
 2686POPC   C1B36559  22.755  42.827   8.834
 2686POPC   C2B36560  22.759  42.603   8.423
 2686POPC   C3B36561  22.858  42.716   7.982
 2686POPC   C4B36562  22.776  42.538   7.566
 2687POPC   NC336563  26.135  27.770   9.459
 2687POPC   PO436564  25.658  27.201   9.440
 2687POPC   GL136565  25.870  27.455   9.142
 2687POPC   GL236566  25.701  27.803   9.187
 2687POPC   C1A36567  26.222  27.388   8.840
 2687POPC   D2A36568  26.358  27.440   8.396
 2687POPC   C3A36569  26.000  27.368   8.132
 2687POPC   C4A36570  26.139  27.300   7.748
 2687POPC   C1B36571  25.943  27.856   8.802
 2687POPC   C2B36572  26.011  27.847   8.359
 2687POPC   C3B36573  26.164  27.825   7.942
 2687POPC   C4B36574  26.037  27.969   7.555
 2688POPC   NC336575  37.444  36.171   9.254
 2688POPC   PO436576  36.880  36.123   9.606
 2688POPC   GL136577  37.004  35.922   9.116
 2688POPC   GL236578  37.316  35.898   8.856
 2688POPC   C1A36579  36.820  35.924   8.648
 2688POPC   D2A36580  36.775  36.303   8.378
 2688POPC   C3A36581  36.789  36.258   7.939
 2688POPC   C4A36582  36.896  36.492   7.598
 2688POPC   C1B36583  37.281  35.920   8.412
 2688POPC   C2B36584  36.983  35.821   8.109
 2688POPC   C3B36585  36.996  35.854   7.645
 2688POPC   C4B36586  37.060  35.680   7.181
 2689POPC   NC336587  20.361  44.559   9.564
 2689POPC   PO436588  20.989  44.709   9.488
 2689POPC   GL136589  20.678  44.688   9.189
 2689POPC   GL236590  20.467  44.974   9.238
 2689POPC   C1A36591  20.702  44.550   8.798
 2689POPC   D2A36592  20.820  44.689   8.419
 2689POPC   C3A36593  20.839  44.398   8.071
 2689POPC   C4A36594  20.569  44.411   7.733
 2689POPC   C1B36595  20.485   0.019   8.788
 2689POPC   C2B36596  20.361  44.880   8.385
 2689POPC   C3B36597  20.600  44.893   7.979
 2689POPC   C4B36598  20.580  44.852   7.515
 2690POPC   NC336599   8.671  10.410   9.539
 2690POPC   PO436600   8.096  10.617   9.449
 2690POPC   GL136601   8.399  10.550   9.141
 2690POPC   GL236602   8.481  10.843   9.011
 2690POPC   C1A36603   8.529  10.370   8.741
 2690POPC   D2A36604   8.303  10.423   8.336
 2690POPC   C3A36605   8.431  10.528   7.949
 2690POPC   C4A36606   8.458  10.394   7.528
 2690POPC   C1B36607   8.105  10.678   8.732
 2690POPC   C2B36608   7.937  10.778   8.278
 2690POPC   C3B36609   7.973  10.714   7.811
 2690POPC   C4B36610   8.240  10.864   7.451
 2691POPC   NC336611  21.785  13.617   9.214
 2691POPC   PO436612  21.529  13.643   9.786
 2691POPC   GL136613  21.351  13.832   9.359
 2691POPC   GL236614  21.293  13.496   9.185
 2691POPC   C1A36615  21.211  13.887   8.880
 2691POPC   D2A36616  21.433  13.882   8.489
 2691POPC   C3A36617  21.278  13.963   8.067
 2691POPC   C4A36618  21.423  13.857   7.651
 2691POPC   C1B36619  21.281  13.359   8.754
 2691POPC   C2B36620  21.516  13.396   8.362
 2691POPC   C3B36621  21.358  13.452   7.958
 2691POPC   C4B36622  21.053  13.154   7.866
 2692POPC   NC336623  19.617  10.957   9.410
 2692POPC   PO436624  19.980  10.555   9.864
 2692POPC   GL136625  19.993  10.596   9.347
 2692POPC   GL236626  19.724  10.576   9.091
 2692POPC   C1A36627  20.191  10.605   8.900
 2692POPC   D2A36628  20.018  10.495   8.495
 2692POPC   C3A36629  20.152  10.598   8.059
 2692POPC   C4A36630  20.275  10.338   7.707
 2692POPC   C1B36631  19.515  10.482   8.711
 2692POPC   C2B36632  19.278  10.607   8.361
 2692POPC   C3B36633  19.447  10.447   8.018
 2692POPC   C4B36634  19.747  10.581   7.750
 2693POPC   NC336635  33.761   2.912   9.666
 2693POPC   PO436636  34.245   2.484   9.509
 2693POPC   GL136637  34.024   2.692   9.152
 2693POPC   GL236638  33.624   2.732   9.180
 2693POPC   C1A36639  33.959   2.736   8.725
 2693POPC   D2A36640  33.903   2.518   8.341
 2693POPC   C3A36641  33.793   2.628   7.939
 2693POPC   C4A36642  34.081   2.555   7.625
 2693POPC   C1B36643  33.468   2.909   8.785
 2693POPC   C2B36644  33.689   3.079   8.430
 2693POPC   C3B36645  33.614   3.133   8.001
 2693POPC   C4B36646  33.580   2.969   7.607
 2694POPC   NC336647  28.750   3.797   9.378
 2694POPC   PO436648  28.163   3.579   9.535
 2694POPC   GL136649  28.377   3.456   9.169
 2694POPC   GL236650  28.208   3.165   9.055
 2694POPC   C1A36651  28.504   3.634   8.778
 2694POPC   D2A36652  28.568   3.578   8.365
 2694POPC   C3A36653  28.713   3.932   8.144
 2694POPC   C4A36654  28.395   3.773   7.848
 2694POPC   C1B36655  28.020   3.452   8.756
 2694POPC   C2B36656  28.040   3.591   8.339
 2694POPC   C3B36657  28.029   3.373   7.945
 2694POPC   C4B36658  28.014   3.575   7.530
 2695POPC   NC336659   2.750  26.396   9.864
 2695POPC   PO436660   2.860  25.905   9.455
 2695POPC   GL136661   2.787  25.865   9.061
 2695POPC   GL236662   3.018  26.080   8.927
 2695POPC   C1A36663   2.616  25.681   8.697
 2695POPC   D2A36664   2.932  25.784   8.356
 2695POPC   C3A36665   2.889  25.990   7.937
 2695POPC   C4A36666   2.757  25.878   7.490
 2695POPC   C1B36667   2.720  26.170   8.644
 2695POPC   C2B36668   2.702  26.435   8.338
 2695POPC   C3B36669   2.849  26.507   7.979
 2695POPC   C4B36670   2.618  26.355   7.621
 2696POPC   NC336671  43.296  39.603   9.556
 2696POPC   PO436672  43.035  40.160   9.545
 2696POPC   GL136673  42.908  39.907   9.193
 2696POPC   GL236674  43.234  39.853   9.113
 2696POPC   C1A36675  42.895  39.951   8.727
 2696POPC   D2A36676  43.152  40.074   8.355
 2696POPC   C3A36677  42.969  39.995   7.963
 2696POPC   C4A36678  43.005  39.701   7.649
 2696POPC   C1B36679  43.432  39.971   8.759
 2696POPC   C2B36680  43.593  39.794   8.372
 2696POPC   C3B36681  43.460  39.767   7.914
 2696POPC   C4B36682  43.495  39.740   7.443
 2697POPC   NC336683  25.342  13.382   9.349
 2697POPC   PO436684  24.806  13.783   9.502
 2697POPC   GL136685  24.973  13.789   9.101
 2697POPC   GL236686  25.307  13.928   9.139
 2697POPC   C1A36687  25.027  13.599   8.672
 2697POPC   D2A36688  25.405  13.416   8.430
 2697POPC   C3A36689  25.358  13.454   7.980
 2697POPC   C4A36690  24.917  13.456   7.816
 2697POPC   C1B36691  25.477  13.847   8.719
 2697POPC   C2B36692  25.291  13.918   8.284
 2697POPC   C3B36693  25.374  13.966   7.829
 2697POPC   C4B36694  25.460  13.910   7.352
 2698POPC   NC336695   8.355   2.312   9.487
 2698POPC   PO436696   7.932   2.767   9.768
 2698POPC   GL136697   8.099   2.672   9.238
 2698POPC   GL236698   8.293   2.964   9.060
 2698POPC   C1A36699   8.141   2.607   8.746
 2698POPC   D2A36700   8.212   2.811   8.337
 2698POPC   C3A36701   8.101   2.573   7.958
 2698POPC   C4A36702   8.378   2.251   7.817
 2698POPC   C1B36703   7.982   3.085   8.775
 2698POPC   C2B36704   7.750   3.052   8.395
 2698POPC   C3B36705   7.907   3.058   7.990
 2698POPC   C4B36706   8.290   3.001   7.736
 2699POPC   NC336707  38.228  17.708   9.299
 2699POPC   PO436708  38.430  17.284   9.822
 2699POPC   GL136709  38.573  17.234   9.355
 2699POPC   GL236710  38.685  17.545   9.183
 2699POPC   C1A36711  38.634  17.162   8.882
 2699POPC   D2A36712  38.335  17.336   8.583
 2699POPC   C3A36713  38.365  17.219   8.175
 2699POPC   C4A36714  38.447  17.484   7.836
 2699POPC   C1B36715  38.659  17.694   8.751
 2699POPC   C2B36716  38.763  17.534   8.303
 2699POPC   C3B36717  38.839  17.805   7.926
 2699POPC   C4B36718  38.634  17.819   7.496
 2700POPC   NC336719  19.745  16.544   9.722
 2700POPC   PO436720  19.101  16.772   9.636
 2700POPC   GL136721  18.988  16.715   9.226
 2700POPC   GL236722  18.661  16.577   9.198
 2700POPC   C1A36723  19.209  16.667   8.855
 2700POPC   D2A36724  19.152  16.533   8.453
 2700POPC   C3A36725  19.289  16.803   8.159
 2700POPC   C4A36726  19.265  16.796   7.733
 2700POPC   C1B36727  18.698  16.836   8.802
 2700POPC   C2B36728  18.859  17.038   8.408
 2700POPC   C3B36729  18.814  16.920   7.965
 2700POPC   C4B36730  18.906  17.073   7.502
 2701POPC   NC336731  10.685  35.092   9.581
 2701POPC   PO436732  10.207  35.500   9.628
 2701POPC   GL136733  10.448  35.416   9.267
 2701POPC   GL236734  10.246  35.116   9.257
 2701POPC   C1A36735  10.649  35.507   8.872
 2701POPC   D2A36736  10.780  35.636   8.450
 2701POPC   C3A36737  10.743  35.320   8.124
 2701POPC   C4A36738  10.505  35.273   7.722
 2701POPC   C1B36739  10.185  35.140   8.869
 2701POPC   C2B36740  10.381  35.234   8.491
 2701POPC   C3B36741  10.277  35.062   8.111
 2701POPC   C4B36742  10.007  35.072   7.734
 2702POPC   NC336743  30.074  42.838   9.586
 2702POPC   PO436744  30.082  43.493   9.745
 2702POPC   GL136745  30.034  43.290   9.291
 2702POPC   GL236746  29.720  43.093   9.225
 2702POPC   C1A36747  30.103  43.026   8.872
 2702POPC   D2A36748  29.866  43.018   8.435
 2702POPC   C3A36749  30.091  43.104   8.044
 2702POPC   C4A36750  30.287  42.942   7.685
 2702POPC   C1B36751  29.732  43.357   8.823
 2702POPC   C2B36752  29.621  43.528   8.407
 2702POPC   C3B36753  29.599  43.268   8.047
 2702POPC   C4B36754  29.720  43.149   7.645
 2703POPC   NC336755  32.015   2.559   9.456
 2703POPC   PO436756  32.689   2.787   9.478
 2703POPC   GL136757  32.343   2.869   9.200
 2703POPC   GL236758  32.062   3.084   9.328
 2703POPC   C1A36759  32.228   2.625   8.823
 2703POPC   D2A36760  32.367   2.299   8.538
 2703POPC   C3A36761  32.160   2.252   8.163
 2703POPC   C4A36762  32.241   2.418   7.782
 2703POPC   C1B36763  32.066   3.143   8.876
 2703POPC   C2B36764  32.111   2.980   8.480
 2703POPC   C3B36765  32.225   2.862   8.092
 2703POPC   C4B36766  32.016   3.060   7.763
 2704POPC   NC336767  29.895  29.605   9.412
 2704POPC   PO436768  30.390  30.095   9.492
 2704POPC   GL136769  30.160  30.016   9.161
 2704POPC   GL236770  30.364  29.712   9.099
 2704POPC   C1A36771  29.946  30.194   8.816
 2704POPC   D2A36772  29.911  30.091   8.407
 2704POPC   C3A36773  30.248  30.184   8.150
 2704POPC   C4A36774  30.218  30.143   7.729
 2704POPC   C1B36775  30.052  29.687   8.772
 2704POPC   C2B36776  29.844  29.588   8.386
 2704POPC   C3B36777  30.068  29.693   8.045
 2704POPC   C4B36778  30.231  29.546   7.665
 2705POPC   NC336779   7.144   4.053   9.455
 2705POPC   PO436780   7.635   4.444   9.733
 2705POPC   GL136781   7.628   4.284   9.246
 2705POPC   GL236782   7.359   4.319   9.062
 2705POPC   C1A36783   7.780   4.441   8.803
 2705POPC   D2A36784   7.644   4.605   8.405
 2705POPC   C3A36785   7.700   4.479   7.970
 2705POPC   C4A36786   7.334   4.395   7.769
 2705POPC   C1B36787   7.349   4.208   8.649
 2705POPC   C2B36788   7.211   4.280   8.249
 2705POPC   C3B36789   7.033   4.013   7.909
 2705POPC   C4B36790   7.172   4.015   7.457
 2706POPC   NC336791  18.167  24.056   9.485
 2706POPC   PO436792  18.759  23.717   9.540
 2706POPC   GL136793  18.436  23.627   9.271
 2706POPC   GL236794  18.466  23.918   9.106
 2706POPC   C1A36795  18.198  23.566   8.882
 2706POPC   D2A36796  18.301  23.742   8.491
 2706POPC   C3A36797  18.369  23.464   8.118
 2706POPC   C4A36798  18.120  23.510   7.748
 2706POPC   C1B36799  18.628  24.090   8.760
 2706POPC   C2B36800  18.482  24.216   8.358
 2706POPC   C3B36801  18.190  23.992   8.056
 2706POPC   C4B36802  18.014  23.983   7.630
 2707POPC   NC336803   9.486   5.450   9.505
 2707POPC   PO436804   9.747   6.088   9.596
 2707POPC   GL136805   9.755   6.033   9.142
 2707POPC   GL236806   9.590   5.721   9.074
 2707POPC   C1A36807   9.954   5.856   8.750
 2707POPC   D2A36808  10.018   5.845   8.299
 2707POPC   C3A36809   9.787   6.123   8.048
 2707POPC   C4A36810   9.599   6.029   7.670
 2707POPC   C1B36811   9.336   5.712   8.673
 2707POPC   C2B36812   9.385   5.798   8.215
 2707POPC   C3B36813   9.451   5.571   7.820
 2707POPC   C4B36814   9.366   5.686   7.376
 2708POPC   NC336815   0.665  19.804   9.647
 2708POPC   PO436816   0.053  19.933   9.716
 2708POPC   GL136817   0.227  20.060   9.290
 2708POPC   GL236818  44.960  20.080   9.059
 2708POPC   C1A36819   0.539  20.141   8.934
 2708POPC   D2A36820   0.735  20.299   8.517
 2708POPC   C3A36821   0.619  20.167   8.104
 2708POPC   C4A36822   0.615  20.028   7.683
 2708POPC   C1B36823   0.172  19.842   8.748
 2708POPC   C2B36824   0.200  19.962   8.357
 2708POPC   C3B36825   0.304  19.740   8.024
 2708POPC   C4B36826   0.173  19.800   7.632
 2709POPC   NC336827   3.938  17.730   9.686
 2709POPC   PO436828   3.457  17.338   9.558
 2709POPC   GL136829   3.466  17.566   9.178
 2709POPC   GL236830   3.757  17.717   9.169
 2709POPC   C1A36831   3.366  17.470   8.732
 2709POPC   D2A36832   3.600  17.563   8.303
 2709POPC   C3A36833   3.521  17.335   7.924
 2709POPC   C4A36834   3.382  17.505   7.512
 2709POPC   C1B36835   3.846  17.392   8.836
 2709POPC   C2B36836   3.991  17.278   8.402
 2709POPC   C3B36837   4.051  17.378   7.965
 2709POPC   C4B36838   3.882  17.355   7.536
 2710POPC   NC336839  21.877  31.347   9.581
 2710POPC   PO436840  22.257  31.747   9.814
 2710POPC   GL136841  22.221  31.556   9.289
 2710POPC   GL236842  22.245  31.197   9.171
 2710POPC   C1A36843  22.492  31.574   8.870
 2710POPC   D2A36844  22.673  31.534   8.450
 2710POPC   C3A36845  22.463  31.501   8.054
 2710POPC   C4A36846  22.293  31.269   7.678
 2710POPC   C1B36847  22.120  31.280   8.708
 2710POPC   C2B36848  22.050  31.273   8.269
 2710POPC   C3B36849  21.707  31.284   8.015
 2710POPC   C4B36850  21.741  31.384   7.622
 2711POPC   NC336851   4.419  27.993   9.424
 2711POPC   PO436852   4.116  28.565   9.540
 2711POPC   GL136853   4.180  28.454   9.095
 2711POPC   GL236854   4.527  28.355   9.053
 2711POPC   C1A36855   4.240  28.467   8.628
 2711POPC   D2A36856   4.187  28.317   8.173
 2711POPC   C3A36857   4.385  28.562   7.847
 2711POPC   C4A36858   4.267  28.704   7.415
 2711POPC   C1B36859   4.293  28.000   8.797
 2711POPC   C2B36860   4.371  27.738   8.448
 2711POPC   C3B36861   4.451  27.824   8.018
 2711POPC   C4B36862   4.255  28.039   7.704
 2712POPC   NC336863  11.071  28.826   9.446
 2712POPC   PO436864  11.576  29.210   9.585
 2712POPC   GL136865  11.360  29.168   9.197
 2712POPC   GL236866  10.966  29.275   9.189
 2712POPC   C1A36867  11.540  28.920   8.847
 2712POPC   D2A36868  11.394  28.859   8.434
 2712POPC   C3A36869  11.481  29.114   8.074
 2712POPC   C4A36870  11.559  29.063   7.633
 2712POPC   C1B36871  11.042  29.041   8.795
 2712POPC   C2B36872  10.953  29.130   8.360
 2712POPC   C3B36873  10.981  29.152   7.940
 2712POPC   C4B36874  10.991  29.150   7.525
 2713POPC   NC336875  25.289  34.084   9.545
 2713POPC   PO436876  24.940  33.664   9.663
 2713POPC   GL136877  25.137  33.774   9.185
 2713POPC   GL236878  25.309  33.498   8.988
 2713POPC   C1A36879  25.083  33.935   8.774
 2713POPC   D2A36880  24.870  33.708   8.457
 2713POPC   C3A36881  24.886  33.899   8.028
 2713POPC   C4A36882  24.865  33.981   7.574
 2713POPC   C1B36883  25.438  33.615   8.612
 2713POPC   C2B36884  25.325  33.885   8.290
 2713POPC   C3B36885  25.336  33.670   7.891
 2713POPC   C4B36886  25.271  33.263   7.697
 2714POPC   NC336887  20.560  35.043   9.924
 2714POPC   PO436888  20.620  35.488   9.401
 2714POPC   GL136889  20.471  35.525   9.010
 2714POPC   GL236890  20.637  35.233   8.950
 2714POPC   C1A36891  20.572  35.609   8.605
 2714POPC   D2A36892  20.873  35.459   8.363
 2714POPC   C3A36893  20.707  35.328   8.016
 2714POPC   C4A36894  20.588  35.552   7.665
 2714POPC   C1B36895  20.642  35.073   8.588
 2714POPC   C2B36896  20.929  34.942   8.301
 2714POPC   C3B36897  21.001  34.920   7.884
 2714POPC   C4B36898  20.695  35.059   7.582
 2715POPC   NC336899   9.197  21.673   9.635
 2715POPC   PO436900   9.773  21.274   9.581
 2715POPC   GL136901   9.821  21.407   9.164
 2715POPC   GL236902   9.522  21.588   9.135
 2715POPC   C1A36903   9.821  21.308   8.719
 2715POPC   D2A36904  10.047  21.258   8.305
 2715POPC   C3A36905   9.786  21.238   7.917
 2715POPC   C4A36906   9.466  21.126   7.636
 2715POPC   C1B36907   9.438  21.677   8.712
 2715POPC   C2B36908   9.577  21.503   8.307
 2715POPC   C3B36909   9.952  21.699   8.081
 2715POPC   C4B36910  10.067  21.900   7.704
 2716POPC   NC336911  30.246  41.847   9.818
 2716POPC   PO436912  29.945  42.393   9.551
 2716POPC   GL136913  29.864  42.578   9.177
 2716POPC   GL236914  29.644  42.287   9.095
 2716POPC   C1A36915  29.720  42.676   8.781
 2716POPC   D2A36916  29.584  42.364   8.493
 2716POPC   C3A36917  29.686  42.377   8.058
 2716POPC   C4A36918  29.847  42.690   7.738
 2716POPC   C1B36919  29.949  42.151   8.789
 2716POPC   C2B36920  30.195  42.006   8.441
 2716POPC   C3B36921  30.075  42.030   8.039
 2716POPC   C4B36922  29.978  42.214   7.677
 2717POPC   NC336923   5.053  29.414   9.367
 2717POPC   PO436924   4.616  28.999   9.595
 2717POPC   GL136925   5.004  28.919   9.269
 2717POPC   GL236926   5.389  29.079   9.213
 2717POPC   C1A36927   5.123  28.891   8.825
 2717POPC   D2A36928   4.997  29.110   8.473
 2717POPC   C3A36929   5.170  28.928   8.119
 2717POPC   C4A36930   5.177  29.107   7.717
 2717POPC   C1B36931   5.449  29.318   8.839
 2717POPC   C2B36932   5.493  29.239   8.423
 2717POPC   C3B36933   5.256  29.458   8.118
 2717POPC   C4B36934   5.238  29.646   7.708
 2718POPC   NC336935  28.960  29.639   9.438
 2718POPC   PO436936  29.027  28.934   9.264
 2718POPC   GL136937  29.051  29.156   8.936
 2718POPC   GL236938  29.249  29.461   9.053
 2718POPC   C1A36939  29.095  29.041   8.504
 2718POPC   D2A36940  29.460  28.955   8.243
 2718POPC   C3A36941  29.289  28.792   7.864
 2718POPC   C4A36942  28.825  28.845   7.920
 2718POPC   C1B36943  29.477  29.358   8.686
 2718POPC   C2B36944  29.343  29.447   8.283
 2718POPC   C3B36945  29.180  29.310   7.922
 2718POPC   C4B36946  29.349  29.600   7.652
 2719POPC   NC336947  21.613  34.131   9.385
 2719POPC   PO436948  21.583  33.448   9.366
 2719POPC   GL136949  21.365  33.723   9.152
 2719POPC   GL236950  21.059  33.836   9.259
 2719POPC   C1A36951  21.339  33.668   8.764
 2719POPC   D2A36952  21.183  33.420   8.457
 2719POPC   C3A36953  21.320  33.578   8.055
 2719POPC   C4A36954  21.468  33.964   7.879
 2719POPC   C1B36955  21.022  34.059   8.837
 2719POPC   C2B36956  21.213  33.989   8.402
 2719POPC   C3B36957  20.992  33.986   8.038
 2719POPC   C4B36958  21.044  34.114   7.614
 2720POPC   NC336959   0.240   2.270   9.562
 2720POPC   PO436960   0.499   1.649   9.430
 2720POPC   GL136961   0.305   1.904   9.140
 2720POPC   GL236962   0.544   2.190   9.135
 2720POPC   C1A36963   0.390   1.924   8.693
 2720POPC   D2A36964   0.370   2.120   8.291
 2720POPC   C3A36965   0.415   1.857   7.939
 2720POPC   C4A36966   0.275   1.994   7.532
 2720POPC   C1B36967   0.595   2.395   8.731
 2720POPC   C2B36968   0.847   2.280   8.351
 2720POPC   C3B36969   0.798   2.180   7.928
 2720POPC   C4B36970   0.432   2.390   7.832
 2721POPC   NC336971  26.143   5.448   9.458
 2721POPC   PO436972  26.067   6.107   9.557
 2721POPC   GL136973  25.971   5.901   9.192
 2721POPC   GL236974  26.308   5.846   9.176
 2721POPC   C1A36975  26.080   6.085   8.770
 2721POPC   D2A36976  26.364   6.113   8.386
 2721POPC   C3A36977  26.161   6.224   7.967
 2721POPC   C4A36978  25.726   6.140   7.784
 2721POPC   C1B36979  26.418   5.658   8.801
 2721POPC   C2B36980  26.488   5.480   8.393
 2721POPC   C3B36981  26.306   5.696   8.032
 2721POPC   C4B36982  26.304   5.676   7.617
 2722POPC   NC336983  31.735   3.503   9.626
 2722POPC   PO436984  31.050   3.506   9.498
 2722POPC   GL136985  31.417   3.446   9.215
 2722POPC   GL236986  31.672   3.739   9.190
 2722POPC   C1A36987  31.608   3.336   8.830
 2722POPC   D2A36988  31.632   3.135   8.441
 2722POPC   C3A36989  31.628   3.274   8.059
 2722POPC   C4A36990  31.657   3.406   7.671
 2722POPC   C1B36991  31.531   3.851   8.814
 2722POPC   C2B36992  31.527   3.657   8.420
 2722POPC   C3B36993  31.502   3.796   8.018
 2722POPC   C4B36994  31.627   3.914   7.622
 2723POPC   NC336995   9.473  33.550   9.528
 2723POPC   PO436996  10.060  33.859   9.668
 2723POPC   GL136997   9.839  33.837   9.264
 2723POPC   GL236998   9.913  33.481   9.211
 2723POPC   C1A36999   9.574  33.905   8.870
 2723POPC   D2A37000   9.642  34.154   8.482
 2723POPC   C3A37001   9.626  33.962   8.086
 2723POPC   C4A37002   9.378  34.082   7.747
 2723POPC   C1B37003   9.717  33.394   8.825
 2723POPC   C2B37004   9.582  33.569   8.438
 2723POPC   C3B37005   9.566  33.424   8.012
 2723POPC   C4B37006   9.655  33.664   7.660
 2724POPC   NC337007  12.117   5.472   9.621
 2724POPC   PO437008  11.802   5.958   9.739
 2724POPC   GL137009  11.859   5.945   9.283
 2724POPC   GL237010  12.154   5.766   9.186
 2724POPC   C1A37011  11.857   5.962   8.832
 2724POPC   D2A37012  11.842   5.694   8.430
 2724POPC   C3A37013  11.916   5.909   8.026
 2724POPC   C4A37014  11.817   6.362   7.900
 2724POPC   C1B37015  12.290   5.647   8.742
 2724POPC   C2B37016  12.346   5.737   8.288
 2724POPC   C3B37017  12.253   5.519   7.900
 2724POPC   C4B37018  12.195   5.499   7.442
 2725POPC   NC337019  33.144  38.465   9.689
 2725POPC   PO437020  33.303  37.817   9.643
 2725POPC   GL137021  33.175  38.139   9.275
 2725POPC   GL237022  32.860  38.295   9.270
 2725POPC   C1A37023  33.220  38.484   8.944
 2725POPC   D2A37024  33.424  38.532   8.535
 2725POPC   C3A37025  33.283  38.711   8.158
 2725POPC   C4A37026  33.235  38.537   7.763
 2725POPC   C1B37027  32.740  38.341   8.832
 2725POPC   C2B37028  32.884  38.559   8.464
 2725POPC   C3B37029  32.774  38.745   8.058
 2725POPC   C4B37030  32.735  38.677   7.610
 2726POPC   NC337031  23.107  34.656   9.657
 2726POPC   PO437032  22.701  34.286   9.277
 2726POPC   GL137033  23.128  34.460   9.168
 2726POPC   GL237034  23.177  34.827   9.181
 2726POPC   C1A37035  23.211  34.489   8.743
 2726POPC   D2A37036  22.858  34.424   8.514
 2726POPC   C3A37037  22.918  34.286   8.120
 2726POPC   C4A37038  22.802  34.590   7.825
 2726POPC   C1B37039  23.383  34.943   8.809
 2726POPC   C2B37040  23.522  34.806   8.374
 2726POPC   C3B37041  23.435  35.022   7.984
 2726POPC   C4B37042  23.211  34.858   7.648
 2727POPC   NC337043  42.909  28.984   9.496
 2727POPC   PO437044  43.491  29.075   9.780
 2727POPC   GL137045  43.301  29.215   9.271
 2727POPC   GL237046  43.114  28.959   9.027
 2727POPC   C1A37047  43.337  29.298   8.775
 2727POPC   D2A37048  43.152  29.037   8.442
 2727POPC   C3A37049  43.191  29.165   8.012
 2727POPC   C4A37050  43.455  29.016   7.705
 2727POPC   C1B37051  42.773  28.866   8.784
 2727POPC   C2B37052  42.651  28.994   8.387
 2727POPC   C3B37053  42.792  28.819   8.042
 2727POPC   C4B37054  43.001  28.765   7.695
 2728POPC   NC337055  20.123   9.384   9.437
 2728POPC   PO437056  20.763   9.121   9.414
 2728POPC   GL137057  20.650   8.980   9.039
 2728POPC   GL237058  20.397   9.194   9.056
 2728POPC   C1A37059  20.679   9.060   8.610
 2728POPC   D2A37060  20.884   9.119   8.240
 2728POPC   C3A37061  20.623   9.019   7.936
 2728POPC   C4A37062  20.645   8.781   7.571
 2728POPC   C1B37063  20.262   9.333   8.720
 2728POPC   C2B37064  20.100   9.254   8.333
 2728POPC   C3B37065  20.225   9.331   7.966
 2728POPC   C4B37066  20.324   9.219   7.572
 2729POPC   NC337067   5.401  28.174   9.475
 2729POPC   PO437068   6.115  28.425   9.564
 2729POPC   GL137069   6.037  28.241   9.164
 2729POPC   GL237070   5.704  28.355   9.066
 2729POPC   C1A37071   6.082  28.375   8.711
 2729POPC   D2A37072   6.197  28.331   8.270
 2729POPC   C3A37073   6.104  28.670   8.011
 2729POPC   C4A37074   5.983  28.665   7.590
 2729POPC   C1B37075   5.495  28.513   8.706
 2729POPC   C2B37076   5.611  28.731   8.340
 2729POPC   C3B37077   5.600  28.767   7.910
 2729POPC   C4B37078   5.474  28.565   7.542
 2730POPC   NC337079  39.662  39.384   9.408
 2730POPC   PO437080  40.175  38.965   9.547
 2730POPC   GL137081  40.107  39.175   9.162
 2730POPC   GL237082  39.782  39.152   8.987
 2730POPC   C1A37083  40.282  39.001   8.818
 2730POPC   D2A37084  40.420  39.124   8.452
 2730POPC   C3A37085  40.240  38.901   8.126
 2730POPC   C4A37086  40.076  39.042   7.749
 2730POPC   C1B37087  39.974  39.445   8.711
 2730POPC   C2B37088  39.841  39.577   8.305
 2730POPC   C3B37089  39.545  39.430   8.006
 2730POPC   C4B37090  39.575  39.156   7.640
 2731POPC   NC337091  20.118   3.644   9.623
 2731POPC   PO437092  19.490   3.734   9.743
 2731POPC   GL137093  19.791   3.601   9.260
 2731POPC   GL237094  19.878   3.327   9.238
 2731POPC   C1A37095  19.720   3.636   8.778
 2731POPC   D2A37096  19.543   3.537   8.363
 2731POPC   C3A37097  19.808   3.621   7.995
 2731POPC   C4A37098  19.785   3.312   7.714
 2731POPC   C1B37099  20.088   3.289   8.834
 2731POPC   C2B37100  20.093   3.456   8.422
 2731POPC   C3B37101  20.217   3.284   8.039
 2731POPC   C4B37102  20.120   2.948   7.753
 2732POPC   NC337103   2.151  21.050   9.525
 2732POPC   PO437104   1.642  21.570   9.504
 2732POPC   GL137105   1.895  21.390   9.203
 2732POPC   GL237106   2.259  21.402   9.168
 2732POPC   C1A37107   1.890  21.416   8.770
 2732POPC   D2A37108   1.782  21.320   8.349
 2732POPC   C3A37109   1.949  21.437   7.979
 2732POPC   C4A37110   1.778  21.378   7.547
 2732POPC   C1B37111   2.403  21.289   8.750
 2732POPC   C2B37112   2.292  21.194   8.313
 2732POPC   C3B37113   2.350  21.168   7.838
 2732POPC   C4B37114   2.408  21.382   7.450
 2733POPC   NC337115  44.178  40.045   9.717
 2733POPC   PO437116  43.745  39.574   9.629
 2733POPC   GL137117  43.738  39.930   9.280
 2733POPC   GL237118  44.039  40.168   9.232
 2733POPC   C1A37119  43.908  39.890   8.842
 2733POPC   D2A37120  44.081  39.565   8.568
 2733POPC   C3A37121  44.011  39.625   8.107
 2733POPC   C4A37122  43.962  39.837   7.684
 2733POPC   C1B37123  44.088  40.369   8.809
 2733POPC   C2B37124  44.019  40.137   8.414
 2733POPC   C3B37125  43.800  40.141   8.040
 2733POPC   C4B37126  43.927  40.354   7.670
 2734POPC   NC337127  34.419  43.203   9.452
 2734POPC   PO437128  35.014  43.282   9.638
 2734POPC   GL137129  34.822  43.338   9.169
 2734POPC   GL237130  34.449  43.372   8.991
 2734POPC   C1A37131  34.894  43.426   8.748
 2734POPC   D2A37132  34.615  43.277   8.424
 2734POPC   C3A37133  34.747  43.272   8.005
 2734POPC   C4A37134  34.696  43.122   7.547
 2734POPC   C1B37135  34.349  42.965   8.753
 2734POPC   C2B37136  34.318  42.863   8.288
 2734POPC   C3B37137  34.260  43.034   7.836
 2734POPC   C4B37138  34.097  42.837   7.428
 2735POPC   NC337139  26.550   0.151   9.862
 2735POPC   PO437140  26.628   0.761   9.578
 2735POPC   GL137141  26.575   0.644   9.129
 2735POPC   GL237142  26.860   0.428   9.151
 2735POPC   C1A37143  26.521   0.395   8.725
 2735POPC   D2A37144  26.632   0.078   8.391
 2735POPC   C3A37145  26.564   0.240   7.952
 2735POPC   C4A37146  26.576   0.339   7.466
 2735POPC   C1B37147  26.995   0.195   8.797
 2735POPC   C2B37148  27.244   0.253   8.443
 2735POPC   C3B37149  27.087   0.241   8.058
 2735POPC   C4B37150  26.992   0.488   7.723
 2736POPC   NC337151   8.304  34.701   9.525
 2736POPC   PO437152   8.285  34.022   9.402
 2736POPC   GL137153   8.271  34.380   9.083
 2736POPC   GL237154   8.548  34.642   9.056
 2736POPC   C1A37155   8.061  34.713   8.778
 2736POPC   D2A37156   7.894  34.988   8.396
 2736POPC   C3A37157   8.091  34.911   7.985
 2736POPC   C4A37158   8.051  34.525   7.760
 2736POPC   C1B37159   8.779  34.837   8.696
 2736POPC   C2B37160   8.641  34.849   8.254
 2736POPC   C3B37161   8.525  34.530   7.952
 2736POPC   C4B37162   8.499  34.439   7.510
 2737POPC   NC337163  26.984  14.230   9.471
 2737POPC   PO437164  26.859  14.879   9.493
 2737POPC   GL137165  26.797  14.594   9.133
 2737POPC   GL237166  26.538  14.806   9.010
 2737POPC   C1A37167  26.945  14.278   8.788
 2737POPC   D2A37168  26.937  14.052   8.373
 2737POPC   C3A37169  27.008  14.280   7.986
 2737POPC   C4A37170  26.697  14.357   7.664
 2737POPC   C1B37171  26.775  14.736   8.633
 2737POPC   C2B37172  26.765  14.677   8.198
 2737POPC   C3B37173  26.805  14.839   7.783
 2737POPC   C4B37174  26.724  14.749   7.320
 2738POPC   NC337175  14.029   5.392   9.784
 2738POPC   PO437176  13.579   4.986   9.495
 2738POPC   GL137177  13.579   4.976   9.093
 2738POPC   GL237178  13.897   4.808   9.114
 2738POPC   C1A37179  13.439   5.133   8.689
 2738POPC   D2A37180  13.526   4.960   8.318
 2738POPC   C3A37181  13.381   5.116   7.955
 2738POPC   C4A37182  13.536   5.028   7.556
 2738POPC   C1B37183  13.938   5.015   8.716
 2738POPC   C2B37184  14.027   4.931   8.336
 2738POPC   C3B37185  13.928   5.064   7.936
 2738POPC   C4B37186  13.735   5.447   7.791
 2739POPC   NC337187  40.104   8.768   9.440
 2739POPC   PO437188  40.066   9.436   9.632
 2739POPC   GL137189  39.961   9.224   9.235
 2739POPC   GL237190  40.280   9.098   9.083
 2739POPC   C1A37191  39.879   9.318   8.789
 2739POPC   D2A37192  39.661   9.367   8.379
 2739POPC   C3A37193  39.610   8.951   8.139
 2739POPC   C4A37194  39.814   8.690   7.851
 2739POPC   C1B37195  40.130   8.837   8.770
 2739POPC   C2B37196  40.023   8.979   8.399
 2739POPC   C3B37197  40.180   9.041   7.982
 2739POPC   C4B37198  40.434   9.181   7.629
 2740POPC   NC337199   1.459  20.377   9.445
 2740POPC   PO437200   1.091  20.882   9.172
 2740POPC   GL137201   1.456  20.717   8.985
 2740POPC   GL237202   1.600  21.033   8.976
 2740POPC   C1A37203   1.562  20.581   8.565
 2740POPC   D2A37204   1.214  20.475   8.282
 2740POPC   C3A37205   1.174  20.647   7.869
 2740POPC   C4A37206   0.836  20.472   7.573
 2740POPC   C1B37207   1.405  21.099   8.627
 2740POPC   C2B37208   1.422  20.957   8.238
 2740POPC   C3B37209   1.615  21.047   7.903
 2740POPC   C4B37210   1.611  20.793   7.595
 2741POPC   NC337211   1.391  16.110   9.701
 2741POPC   PO437212   0.795  15.819   9.467
 2741POPC   GL137213   1.019  16.064   9.213
 2741POPC   GL237214   1.335  15.935   9.242
 2741POPC   C1A37215   1.203  16.150   8.800
 2741POPC   D2A37216   1.510  16.207   8.475
 2741POPC   C3A37217   1.298  16.062   8.110
 2741POPC   C4A37218   1.030  15.936   7.812
 2741POPC   C1B37219   1.476  15.727   8.900
 2741POPC   C2B37220   1.384  15.662   8.468
 2741POPC   C3B37221   1.257  15.530   8.072
 2741POPC   C4B37222   1.459  15.670   7.737
 2742POPC   NC337223  20.035  25.499   9.614
 2742POPC   PO437224  19.424  25.193   9.594
 2742POPC   GL137225  19.688  25.374   9.233
 2742POPC   GL237226  19.937  25.116   9.249
 2742POPC   C1A37227  19.958  25.374   8.828
 2742POPC   D2A37228  19.999  25.145   8.438
 2742POPC   C3A37229  20.000  25.386   8.073
 2742POPC   C4A37230  19.857  25.346   7.666
 2742POPC   C1B37231  19.676  24.957   8.860
 2742POPC   C2B37232  19.526  24.903   8.448
 2742POPC   C3B37233  19.673  24.995   8.028
 2742POPC   C4B37234  19.442  25.052   7.657
 2743POPC   NC337235  32.749  33.218   9.388
 2743POPC   PO437236  33.267  33.063   9.800
 2743POPC   GL137237  33.181  32.832   9.345
 2743POPC   GL237238  32.818  32.772   9.152
 2743POPC   C1A37239  33.252  32.841   8.892
 2743POPC   D2A37240  33.226  33.004   8.478
 2743POPC   C3A37241  32.963  32.819   8.156
 2743POPC   C4A37242  32.903  33.031   7.772
 2743POPC   C1B37243  32.780  33.064   8.740
 2743POPC   C2B37244  32.823  33.315   8.283
 2743POPC   C3B37245  32.739  33.511   7.851
 2743POPC   C4B37246  32.477  33.379   7.474
 2744POPC   NC337247  37.502  23.713   9.518
 2744POPC   PO437248  38.093  23.615   9.409
 2744POPC   GL137249  37.828  23.758   9.101
 2744POPC   GL237250  37.503  23.915   9.063
 2744POPC   C1A37251  37.769  23.581   8.737
 2744POPC   D2A37252  38.007  23.406   8.423
 2744POPC   C3A37253  37.874  23.556   8.046
 2744POPC   C4A37254  37.834  23.366   7.653
 2744POPC   C1B37255  37.617  24.059   8.674
 2744POPC   C2B37256  37.549  23.930   8.301
 2744POPC   C3B37257  37.419  24.070   7.958
 2744POPC   C4B37258  37.563  23.795   7.714
 2745POPC   NC337259  39.609   9.412   9.764
 2745POPC   PO437260  39.995   9.914   9.442
 2745POPC   GL137261  40.068   9.705   9.121
 2745POPC   GL237262  40.356   9.893   9.049
 2745POPC   C1A37263  39.980   9.842   8.711
 2745POPC   D2A37264  40.316   9.976   8.465
 2745POPC   C3A37265  40.057   9.989   8.132
 2745POPC   C4A37266  39.842   9.914   7.763
 2745POPC   C1B37267  40.376   9.512   8.756
 2745POPC   C2B37268  40.187   9.463   8.354
 2745POPC   C3B37269  40.263   9.557   7.923
 2745POPC   C4B37270  40.206   9.620   7.457
 2746POPC   NC337271  43.697  36.520   9.518
 2746POPC   PO437272  43.918  35.901   9.670
 2746POPC   GL137273  43.964  36.079   9.192
 2746POPC   GL237274  43.926  36.431   9.072
 2746POPC   C1A37275  43.960  36.071   8.698
 2746POPC   D2A37276  43.837  35.964   8.240
 2746POPC   C3A37277  44.117  35.916   7.860
 2746POPC   C4A37278  44.000  35.961   7.417
 2746POPC   C1B37279  43.701  36.514   8.673
 2746POPC   C2B37280  43.863  36.491   8.247
 2746POPC   C3B37281  43.789  36.299   7.817
 2746POPC   C4B37282  43.906  36.498   7.409
 2747POPC   NC337283  41.997  10.483   9.312
 2747POPC   PO437284  42.226  10.089   9.895
 2747POPC   GL137285  42.314  10.053   9.391
 2747POPC   GL237286  42.551  10.292   9.281
 2747POPC   C1A37287  42.283  10.132   8.882
 2747POPC   D2A37288  42.212  10.514   8.599
 2747POPC   C3A37289  42.249  10.442   8.130
 2747POPC   C4A37290  42.016  10.392   7.749
 2747POPC   C1B37291  42.776  10.252   8.871
 2747POPC   C2B37292  42.662  10.321   8.431
 2747POPC   C3B37293  42.763  10.450   8.007
 2747POPC   C4B37294  42.491  10.625   7.683
 2748POPC   NC337295   3.805   4.885   9.397
 2748POPC   PO437296   3.159   5.135   9.472
 2748POPC   GL137297   3.387   4.973   9.123
 2748POPC   GL237298   3.637   5.270   9.090
 2748POPC   C1A37299   3.583   4.926   8.716
 2748POPC   D2A37300   3.506   5.206   8.350
 2748POPC   C3A37301   3.537   4.957   7.981
 2748POPC   C4A37302   3.451   4.978   7.568
 2748POPC   C1B37303   3.283   5.352   8.797
 2748POPC   C2B37304   3.032   5.400   8.401
 2748POPC   C3B37305   3.150   5.336   7.945
 2748POPC   C4B37306   3.100   5.327   7.445
 2749POPC   NC337307  27.016  15.303   9.538
 2749POPC   PO437308  26.418  15.523   9.358
 2749POPC   GL137309  26.718  15.330   9.080
 2749POPC   GL237310  26.992  15.074   9.045
 2749POPC   C1A37311  26.662  15.233   8.671
 2749POPC   D2A37312  26.483  15.099   8.310
 2749POPC   C3A37313  26.549  15.245   7.958
 2749POPC   C4A37314  26.467  15.128   7.540
 2749POPC   C1B37315  27.153  15.088   8.604
 2749POPC   C2B37316  27.000  15.126   8.194
 2749POPC   C3B37317  27.152  15.249   7.787
 2749POPC   C4B37318  26.960  15.198   7.386
 2750POPC   NC337319  22.552   5.229   9.398
 2750POPC   PO437320  23.240   5.203   9.469
 2750POPC   GL137321  22.982   5.152   9.096
 2750POPC   GL237322  23.115   5.370   8.849
 2750POPC   C1A37323  22.687   5.041   8.733
 2750POPC   D2A37324  22.512   5.249   8.345
 2750POPC   C3A37325  22.634   5.136   7.936
 2750POPC   C4A37326  22.640   4.789   7.710
 2750POPC   C1B37327  23.212   4.969   8.665
 2750POPC   C2B37328  23.051   5.028   8.260
 2750POPC   C3B37329  23.140   5.308   7.923
 2750POPC   C4B37330  23.161   5.553   7.545
 2751POPC   NC337331  20.529  42.618   9.704
 2751POPC   PO437332  20.970  42.177   9.673
 2751POPC   GL137333  20.671  42.315   9.306
 2751POPC   GL237334  20.942  42.434   9.107
 2751POPC   C1A37335  20.540  42.367   8.809
 2751POPC   D2A37336  20.223  42.338   8.439
 2751POPC   C3A37337  20.357  42.395   8.022
 2751POPC   C4A37338  20.245  42.376   7.633
 2751POPC   C1B37339  21.034  42.390   8.657
 2751POPC   C2B37340  21.098  42.588   8.270
 2751POPC   C3B37341  20.999  42.431   7.890
 2751POPC   C4B37342  20.692  42.569   7.612
 2752POPC   NC337343  21.505  34.841   9.668
 2752POPC   PO437344  21.172  34.285   9.483
 2752POPC   GL137345  21.225  34.463   9.111
 2752POPC   GL237346  21.491  34.687   9.169
 2752POPC   C1A37347  21.392  34.383   8.701
 2752POPC   D2A37348  21.609  34.303   8.306
 2752POPC   C3A37349  21.312  34.431   7.967
 2752POPC   C4A37350  21.409  34.541   7.542
 2752POPC   C1B37351  21.545  34.880   8.765
 2752POPC   C2B37352  21.399  34.774   8.342
 2752POPC   C3B37353  21.515  34.900   7.934
 2752POPC   C4B37354  21.805  35.214   7.906
 2753POPC   NC337355   0.163  10.387   9.657
 2753POPC   PO437356   0.745  10.811   9.559
 2753POPC   GL137357   0.534  10.562   9.254
 2753POPC   GL237358   0.189  10.665   9.220
 2753POPC   C1A37359   0.501  10.488   8.824
 2753POPC   D2A37360   0.701  10.515   8.441
 2753POPC   C3A37361   0.573  10.373   8.072
 2753POPC   C4A37362   0.732  10.195   7.698
 2753POPC   C1B37363  44.999  10.598   8.806
 2753POPC   C2B37364   0.193  10.653   8.408
 2753POPC   C3B37365   0.287  10.814   8.020
 2753POPC   C4B37366   0.261  10.548   7.699
 2754POPC   NC337367   0.369  11.100   9.543
 2754POPC   PO437368   0.859  11.538   9.560
 2754POPC   GL137369   0.535  11.477   9.204
 2754POPC   GL237370   0.548  11.089   9.098
 2754POPC   C1A37371   0.315  11.647   8.795
 2754POPC   D2A37372   0.127  11.678   8.349
 2754POPC   C3A37373   0.391  11.846   8.019
 2754POPC   C4A37374   0.644  11.698   7.711
 2754POPC   C1B37375   0.302  11.017   8.771
 2754POPC   C2B37376   0.186  11.176   8.377
 2754POPC   C3B37377   0.337  11.332   7.992
 2754POPC   C4B37378   0.566  11.170   7.673
 2755POPC   NC337379  38.447  12.738   9.463
 2755POPC   PO437380  38.756  13.285   9.609
 2755POPC   GL137381  38.654  13.183   9.165
 2755POPC   GL237382  38.516  12.830   8.973
 2755POPC   C1A37383  38.471  13.284   8.785
 2755POPC   D2A37384  38.379  12.960   8.491
 2755POPC   C3A37385  38.485  13.022   8.084
 2755POPC   C4A37386  38.351  12.838   7.722
 2755POPC   C1B37387  38.882  12.853   8.688
 2755POPC   C2B37388  39.006  12.840   8.241
 2755POPC   C3B37389  38.830  12.718   7.854
 2755POPC   C4B37390  38.780  13.074   7.576
 2756POPC   NC337391  26.649  31.871   9.523
 2756POPC   PO437392  26.776  31.230   9.561
 2756POPC   GL137393  26.768  31.414   9.144
 2756POPC   GL237394  26.496  31.614   9.110
 2756POPC   C1A37395  26.667  31.327   8.694
 2756POPC   D2A37396  26.797  31.419   8.258
 2756POPC   C3A37397  27.080  31.334   7.915
 2756POPC   C4A37398  26.779  31.266   7.563
 2756POPC   C1B37399  26.517  31.861   8.747
 2756POPC   C2B37400  26.824  31.894   8.435
 2756POPC   C3B37401  27.040  31.830   8.061
 2756POPC   C4B37402  26.693  31.705   7.810
 2757POPC   NC337403  37.759  44.937  10.252
 2757POPC   PO437404  37.394  44.667   9.671
 2757POPC   GL137405  37.498  44.808   9.231
 2757POPC   GL237406  37.875  44.878   9.222
 2757POPC   C1A37407  37.640  44.723   8.785
 2757POPC   D2A37408  37.688  44.883   8.363
 2757POPC   C3A37409  37.525  44.604   8.057
 2757POPC   C4A37410  37.321  44.664   7.701
 2757POPC   C1B37411  38.079  44.998   8.820
 2757POPC   C2B37412  38.202  44.855   8.389
 2757POPC   C3B37413  38.015  44.743   7.966
 2757POPC   C4B37414  37.979  44.861   7.509
 2758POPC   NC337415  30.830  39.399   9.513
 2758POPC   PO437416  30.401  38.967   9.486
 2758POPC   GL137417  30.558  39.017   9.104
 2758POPC   GL237418  30.878  39.093   9.120
 2758POPC   C1A37419  30.647  39.000   8.673
 2758POPC   D2A37420  30.820  39.246   8.356
 2758POPC   C3A37421  30.582  39.330   8.054
 2758POPC   C4A37422  30.468  39.349   7.674
 2758POPC   C1B37423  31.080  39.292   8.783
 2758POPC   C2B37424  31.328  39.220   8.410
 2758POPC   C3B37425  31.192  39.047   8.044
 2758POPC   C4B37426  30.971  39.235   7.719
 2759POPC   NC337427  12.499  31.335   9.376
 2759POPC   PO437428  13.039  31.582   9.449
 2759POPC   GL137429  12.882  31.468   9.069
 2759POPC   GL237430  12.943  31.120   9.115
 2759POPC   C1A37431  12.765  31.292   8.663
 2759POPC   D2A37432  12.910  31.001   8.324
 2759POPC   C3A37433  12.634  31.057   8.013
 2759POPC   C4A37434  12.571  31.460   7.813
 2759POPC   C1B37435  13.228  31.070   8.736
 2759POPC   C2B37436  13.371  31.242   8.339
 2759POPC   C3B37437  13.199  31.238   7.923
 2759POPC   C4B37438  13.122  31.347   7.488
 2760POPC   NC337439  37.636  25.972   9.452
 2760POPC   PO437440  37.723  26.559   9.587
 2760POPC   GL137441  37.559  26.384   9.171
 2760POPC   GL237442  37.859  26.150   9.040
 2760POPC   C1A37443  37.430  26.178   8.763
 2760POPC   D2A37444  37.266  25.941   8.386
 2760POPC   C3A37445  37.364  26.034   7.942
 2760POPC   C4A37446  37.527  25.765   7.593
 2760POPC   C1B37447  37.904  26.066   8.609
 2760POPC   C2B37448  37.710  26.277   8.255
 2760POPC   C3B37449  37.855  26.145   7.828
 2760POPC   C4B37450  37.995  25.706   7.830
 2761POPC   NC337451   9.614  36.776   9.457
 2761POPC   PO437452  10.240  37.138   9.360
 2761POPC   GL137453   9.788  37.111   9.084
 2761POPC   GL237454   9.519  36.817   8.978
 2761POPC   C1A37455   9.680  37.083   8.602
 2761POPC   D2A37456   9.811  37.264   8.223
 2761POPC   C3A37457  10.018  36.994   7.897
 2761POPC   C4A37458   9.986  36.989   7.453
 2761POPC   C1B37459   9.195  36.554   8.773
 2761POPC   C2B37460   9.293  36.523   8.369
 2761POPC   C3B37461   9.572  36.799   8.132
 2761POPC   C4B37462   9.504  36.943   7.704
 2762POPC   NC337463   7.148  21.117   9.507
 2762POPC   PO437464   7.026  21.752   9.486
 2762POPC   GL137465   7.389  21.618   9.197
 2762POPC   GL237466   7.764  21.596   9.076
 2762POPC   C1A37467   7.359  21.427   8.776
 2762POPC   D2A37468   7.484  21.313   8.361
 2762POPC   C3A37469   7.243  21.473   8.019
 2762POPC   C4A37470   6.892  21.275   7.776
 2762POPC   C1B37471   7.850  21.272   8.743
 2762POPC   C2B37472   7.913  21.018   8.382
 2762POPC   C3B37473   7.837  21.238   8.009
 2762POPC   C4B37474   7.801  21.626   7.861
 2763POPC   NC337475  17.710  40.227   9.607
 2763POPC   PO437476  17.456  40.834   9.584
 2763POPC   GL137477  17.441  40.861   9.178
 2763POPC   GL237478  17.364  40.520   9.128
 2763POPC   C1A37479  17.398  40.894   8.736
 2763POPC   D2A37480  17.347  41.220   8.402
 2763POPC   C3A37481  17.430  41.040   7.994
 2763POPC   C4A37482  17.254  41.095   7.588
 2763POPC   C1B37483  17.680  40.410   8.799
 2763POPC   C2B37484  17.901  40.503   8.421
 2763POPC   C3B37485  17.866  40.446   7.969
 2763POPC   C4B37486  17.599  40.659   7.665
 2764POPC   NC337487  16.791  34.084   9.341
 2764POPC   PO437488  16.819  33.482   9.454
 2764POPC   GL137489  16.668  33.647   9.096
 2764POPC   GL237490  16.330  33.779   9.195
 2764POPC   C1A37491  16.849  33.724   8.698
 2764POPC   D2A37492  16.839  33.467   8.343
 2764POPC   C3A37493  16.907  33.619   7.948
 2764POPC   C4A37494  16.890  33.978   7.720
 2764POPC   C1B37495  16.336  33.806   8.723
 2764POPC   C2B37496  16.532  33.894   8.291
 2764POPC   C3B37497  16.400  33.751   7.871
 2764POPC   C4B37498  16.590  33.514   7.520
 2765POPC   NC337499  16.374  17.172   9.555
 2765POPC   PO437500  16.159  17.791   9.648
 2765POPC   GL137501  16.025  17.754   9.192
 2765POPC   GL237502  16.044  17.387   9.165
 2765POPC   C1A37503  16.026  17.701   8.751
 2765POPC   D2A37504  16.101  17.487   8.401
 2765POPC   C3A37505  16.072  17.788   8.069
 2765POPC   C4A37506  15.762  17.805   7.772
 2765POPC   C1B37507  15.939  17.170   8.782
 2765POPC   C2B37508  15.812  17.055   8.373
 2765POPC   C3B37509  15.842  17.325   8.002
 2765POPC   C4B37510  15.771  17.227   7.596
 2766POPC   NC337511   3.850  24.597   9.590
 2766POPC   PO437512   3.191  24.534   9.333
 2766POPC   GL137513   3.423  24.428   8.992
 2766POPC   GL237514   3.805  24.467   9.047
 2766POPC   C1A37515   3.175  24.395   8.610
 2766POPC   D2A37516   3.162  24.131   8.269
 2766POPC   C3A37517   3.360  24.354   7.988
 2766POPC   C4A37518   3.289  24.467   7.572
 2766POPC   C1B37519   3.766  24.540   8.617
 2766POPC   C2B37520   3.934  24.776   8.259
 2766POPC   C3B37521   3.751  24.684   7.865
 2766POPC   C4B37522   3.723  24.257   7.653
 2767POPC   NC337523   4.576  37.413   9.459
 2767POPC   PO437524   3.926  37.689   9.535
 2767POPC   GL137525   4.172  37.705   9.186
 2767POPC   GL237526   4.496  37.663   9.042
 2767POPC   C1A37527   4.039  37.587   8.791
 2767POPC   D2A37528   4.115  37.450   8.395
 2767POPC   C3A37529   4.273  37.688   8.100
 2767POPC   C4A37530   4.146  37.473   7.732
 2767POPC   C1B37531   4.795  37.905   8.833
 2767POPC   C2B37532   4.672  37.925   8.418
 2767POPC   C3B37533   4.634  38.054   8.001
 2767POPC   C4B37534   4.655  37.698   7.723
 2768POPC   NC337535  14.302   6.180   9.439
 2768POPC   PO437536  14.442   5.452   9.502
 2768POPC   GL137537  14.385   5.722   9.178
 2768POPC   GL237538  14.637   5.928   9.095
 2768POPC   C1A37539  14.213   5.870   8.797
 2768POPC   D2A37540  13.953   5.898   8.463
 2768POPC   C3A37541  14.041   6.120   8.124
 2768POPC   C4A37542  14.250   6.039   7.778
 2768POPC   C1B37543  14.665   6.065   8.683
 2768POPC   C2B37544  14.495   5.885   8.301
 2768POPC   C3B37545  14.687   5.793   7.894
 2768POPC   C4B37546  14.830   6.096   7.564
 2769POPC   NC337547   8.408  41.038   9.280
 2769POPC   PO437548   7.835  40.832   9.455
 2769POPC   GL137549   7.986  40.719   9.076
 2769POPC   GL237550   8.110  40.421   9.152
 2769POPC   C1A37551   8.138  40.918   8.707
 2769POPC   D2A37552   7.961  40.949   8.347
 2769POPC   C3A37553   8.155  40.790   8.033
 2769POPC   C4A37554   7.992  40.824   7.659
 2769POPC   C1B37555   8.411  40.484   8.816
 2769POPC   C2B37556   8.477  40.550   8.352
 2769POPC   C3B37557   8.514  40.456   7.913
 2769POPC   C4B37558   8.493  40.783   7.597
 2770POPC   NC337559  24.298  44.443   9.301
 2770POPC   PO437560  24.658  44.816   9.778
 2770POPC   GL137561  24.734  44.693   9.289
 2770POPC   GL237562  24.806  44.403   9.081
 2770POPC   C1A37563  24.744  44.869   8.856
 2770POPC   D2A37564  24.449  44.924   8.505
 2770POPC   C3A37565  24.313  44.659   8.164
 2770POPC   C4A37566  24.425  44.707   7.718
 2770POPC   C1B37567  24.562  44.405   8.716
 2770POPC   C2B37568  24.766  44.506   8.368
 2770POPC   C3B37569  24.708  44.362   7.992
 2770POPC   C4B37570  24.368  44.170   7.801
 2771POPC   NC337571  42.494  17.064   9.419
 2771POPC   PO437572  42.282  17.614   9.661
 2771POPC   GL137573  42.217  17.612   9.199
 2771POPC   GL237574  42.139  17.306   9.094
 2771POPC   C1A37575  42.367  17.646   8.764
 2771POPC   D2A37576  42.341  17.298   8.456
 2771POPC   C3A37577  42.353  17.427   8.018
 2771POPC   C4A37578  42.359  17.869   7.957
 2771POPC   C1B37579  41.926  17.097   8.772
 2771POPC   C2B37580  41.837  17.223   8.314
 2771POPC   C3B37581  41.889  17.229   7.841
 2771POPC   C4B37582  41.945  17.210   7.395
 2772POPC   NC337583  38.185  19.374   9.498
 2772POPC   PO437584  38.634  18.878   9.526
 2772POPC   GL137585  38.366  18.972   9.189
 2772POPC   GL237586  38.683  18.996   9.022
 2772POPC   C1A37587  38.224  19.183   8.807
 2772POPC   D2A37588  38.077  19.306   8.381
 2772POPC   C3A37589  38.289  19.054   8.077
 2772POPC   C4A37590  38.622  19.041   7.755
 2772POPC   C1B37591  38.671  18.745   8.652
 2772POPC   C2B37592  38.689  18.782   8.216
 2772POPC   C3B37593  38.994  18.726   7.909
 2772POPC   C4B37594  38.907  18.711   7.481
 2773POPC   NC337595  35.658  26.671   9.868
 2773POPC   PO437596  35.276  26.998   9.413
 2773POPC   GL137597  35.256  26.548   9.208
 2773POPC   GL237598  35.370  26.753   8.952
 2773POPC   C1A37599  35.070  26.417   8.769
 2773POPC   D2A37600  35.278  26.609   8.395
 2773POPC   C3A37601  35.144  26.497   7.990
 2773POPC   C4A37602  35.104  26.711   7.616
 2773POPC   C1B37603  35.515  27.080   8.726
 2773POPC   C2B37604  35.376  27.208   8.348
 2773POPC   C3B37605  35.408  26.991   7.964
 2773POPC   C4B37606  35.766  26.986   7.699
 2774POPC   NC337607   3.465  29.750   9.514
 2774POPC   PO437608   3.875  30.243   9.405
 2774POPC   GL137609   3.716  29.941   9.083
 2774POPC   GL237610   3.364  29.740   9.030
 2774POPC   C1A37611   3.837  29.831   8.665
 2774POPC   D2A37612   3.672  29.963   8.278
 2774POPC   C3A37613   3.684  29.656   7.962
 2774POPC   C4A37614   3.627  29.907   7.662
 2774POPC   C1B37615   3.364  30.021   8.709
 2774POPC   C2B37616   3.147  29.980   8.365
 2774POPC   C3B37617   3.213  29.846   7.994
 2774POPC   C4B37618   3.126  30.027   7.625
 2775POPC   NC337619   5.060  34.285   9.462
 2775POPC   PO437620   4.912  34.927   9.464
 2775POPC   GL137621   4.963  34.797   9.053
 2775POPC   GL237622   5.135  34.476   9.012
 2775POPC   C1A37623   4.974  34.704   8.602
 2775POPC   D2A37624   5.131  34.971   8.305
 2775POPC   C3A37625   5.032  34.808   7.896
 2775POPC   C4A37626   4.853  34.422   7.771
 2775POPC   C1B37627   5.536  34.442   8.818
 2775POPC   C2B37628   5.687  34.391   8.390
 2775POPC   C3B37629   5.390  34.468   8.063
 2775POPC   C4B37630   5.253  34.085   7.853
 2776POPC   NC337631  31.944   7.048   9.332
 2776POPC   PO437632  31.646   6.725   9.827
 2776POPC   GL137633  31.576   6.699   9.311
 2776POPC   GL237634  31.332   6.916   9.088
 2776POPC   C1A37635  31.720   6.670   8.829
 2776POPC   D2A37636  31.585   6.570   8.388
 2776POPC   C3A37637  31.859   6.618   8.032
 2776POPC   C4A37638  31.825   7.006   7.751
 2776POPC   C1B37639  31.231   6.542   8.790
 2776POPC   C2B37640  31.128   6.318   8.402
 2776POPC   C3B37641  31.192   6.361   7.983
 2776POPC   C4B37642  31.414   6.700   7.819
 2777POPC   NC337643  43.372   1.272   9.585
 2777POPC   PO437644  42.735   1.126   9.385
 2777POPC   GL137645  43.061   1.229   9.138
 2777POPC   GL237646  43.398   1.045   9.136
 2777POPC   C1A37647  42.906   1.356   8.752
 2777POPC   D2A37648  42.907   1.487   8.347
 2777POPC   C3A37649  42.826   1.180   8.030
 2777POPC   C4A37650  43.088   1.141   7.726
 2777POPC   C1B37651  43.432   1.272   8.772
 2777POPC   C2B37652  43.434   1.341   8.358
 2777POPC   C3B37653  43.556   1.203   7.956
 2777POPC   C4B37654  43.557   1.002   7.537
 2778POPC   NC337655  10.125   3.190   9.603
 2778POPC   PO437656   9.561   2.762   9.515
 2778POPC   GL137657   9.627   2.925   9.108
 2778POPC   GL237658   9.928   3.119   9.135
 2778POPC   C1A37659   9.782   2.729   8.726
 2778POPC   D2A37660   9.581   2.723   8.323
 2778POPC   C3A37661   9.633   2.475   7.923
 2778POPC   C4A37662   9.710   2.354   7.500
 2778POPC   C1B37663  10.098   3.132   8.726
 2778POPC   C2B37664  10.073   2.891   8.347
 2778POPC   C3B37665   9.872   2.939   7.941
 2778POPC   C4B37666  10.064   3.028   7.564
 2779POPC   NC337667  10.232  21.199   9.512
 2779POPC   PO437668  10.360  21.882   9.494
 2779POPC   GL137669  10.325  21.561   9.149
 2779POPC   GL237670  10.597  21.303   9.149
 2779POPC   C1A37671  10.329  21.440   8.709
 2779POPC   D2A37672  10.543  21.215   8.353
 2779POPC   C3A37673  10.439  21.460   8.021
 2779POPC   C4A37674  10.201  21.405   7.666
 2779POPC   C1B37675  10.837  21.310   8.751
 2779POPC   C2B37676  11.038  21.354   8.322
 2779POPC   C3B37677  10.891  21.188   7.925
 2779POPC   C4B37678  10.681  21.285   7.521
 2780POPC   NC337679  38.406  32.791   9.495
 2780POPC   PO437680  38.447  33.446   9.463
 2780POPC   GL137681  38.380  33.180   9.121
 2780POPC   GL237682  38.695  33.007   9.101
 2780POPC   C1A37683  38.374  33.279   8.686
 2780POPC   D2A37684  38.261  33.067   8.305
 2780POPC   C3A37685  38.182  33.257   7.873
 2780POPC   C4A37686  38.469  33.216   7.511
 2780POPC   C1B37687  38.604  32.812   8.695
 2780POPC   C2B37688  38.616  32.713   8.257
 2780POPC   C3B37689  38.345  32.762   7.880
 2780POPC   C4B37690  38.320  32.445   7.549
 2781POPC   NC337691  26.997   3.883   9.524
 2781POPC   PO437692  26.926   4.642   9.641
 2781POPC   GL137693  26.861   4.491   9.192
 2781POPC   GL237694  26.545   4.614   9.098
 2781POPC   C1A37695  26.769   4.378   8.727
 2781POPC   D2A37696  26.763   3.995   8.448
 2781POPC   C3A37697  26.936   3.997   8.010
 2781POPC   C4A37698  26.725   4.117   7.623
 2781POPC   C1B37699  26.267   4.650   8.785
 2781POPC   C2B37700  26.369   4.435   8.411
 2781POPC   C3B37701  26.511   4.327   8.038
 2781POPC   C4B37702  26.551   4.594   7.693
 2782POPC   NC337703   0.805   3.269   9.333
 2782POPC   PO437704   0.152   3.489   9.440
 2782POPC   GL137705   0.441   3.544   9.096
 2782POPC   GL237706   0.577   3.870   8.965
 2782POPC   C1A37707   0.586   3.430   8.698
 2782POPC   D2A37708   0.789   3.663   8.344
 2782POPC   C3A37709   0.629   3.619   7.915
 2782POPC   C4A37710   0.314   3.387   7.772
 2782POPC   C1B37711   0.206   3.757   8.677
 2782POPC   C2B37712   0.181   3.680   8.224
 2782POPC   C3B37713  44.974   3.752   7.827
 2782POPC   C4B37714   0.065   3.700   7.397
 2783POPC   NC337715   4.556  24.910   9.453
 2783POPC   PO437716   4.262  24.459   9.739
 2783POPC   GL137717   4.338  24.511   9.174
 2783POPC   GL237718   4.638  24.625   9.053
 2783POPC   C1A37719   4.275  24.619   8.713
 2783POPC   D2A37720   4.593  24.560   8.393
 2783POPC   C3A37721   4.383  24.620   8.032
 2783POPC   C4A37722   4.178  24.462   7.753
 2783POPC   C1B37723   4.614  24.236   8.797
 2783POPC   C2B37724   4.604  24.026   8.426
 2783POPC   C3B37725   4.525  24.136   8.022
 2783POPC   C4B37726   4.629  24.290   7.615
 2784POPC   NC337727  11.881  42.657   9.539
 2784POPC   PO437728  12.194  43.211   9.814
 2784POPC   GL137729  12.163  43.066   9.360
 2784POPC   GL237730  12.463  42.988   9.191
 2784POPC   C1A37731  12.058  43.104   8.893
 2784POPC   D2A37732  11.884  43.269   8.499
 2784POPC   C3A37733  12.095  43.289   8.109
 2784POPC   C4A37734  11.915  43.103   7.721
 2784POPC   C1B37735  12.476  42.843   8.774
 2784POPC   C2B37736  12.320  42.933   8.400
 2784POPC   C3B37737  12.298  42.822   7.984
 2784POPC   C4B37738  12.412  43.164   7.731
 2785POPC   NC337739  21.258   0.102   9.453
 2785POPC   PO437740  21.856   0.480   9.379
 2785POPC   GL137741  21.439   0.499   9.160
 2785POPC   GL237742  21.351   0.834   9.066
 2785POPC   C1A37743  21.242   0.293   8.794
 2785POPC   D2A37744  21.436   0.029   8.463
 2785POPC   C3A37745  21.527   0.169   8.050
 2785POPC   C4A37746  21.249   0.217   7.684
 2785POPC   C1B37747  21.161   0.796   8.678
 2785POPC   C2B37748  21.340   0.560   8.340
 2785POPC   C3B37749  21.497   0.645   7.920
 2785POPC   C4B37750  21.145   0.716   7.640
 2786POPC   NC337751  15.643  41.429   9.572
 2786POPC   PO437752  16.141  41.817   9.487
 2786POPC   GL137753  15.750  41.761   9.183
 2786POPC   GL237754  15.801  41.406   9.105
 2786POPC   C1A37755  15.532  41.624   8.756
 2786POPC   D2A37756  15.645  41.436   8.310
 2786POPC   C3A37757  15.659  41.777   7.984
 2786POPC   C4A37758  15.790  41.715   7.564
 2786POPC   C1B37759  15.959  41.312   8.712
 2786POPC   C2B37760  16.198  41.454   8.359
 2786POPC   C3B37761  16.118  41.579   7.956
 2786POPC   C4B37762  16.310  41.735   7.603
 2787POPC   NC337763  31.197  37.863   9.755
 2787POPC   PO437764  30.671  37.566   9.371
 2787POPC   GL137765  30.569  37.704   9.013
 2787POPC   GL237766  30.610  38.035   9.057
 2787POPC   C1A37767  30.757  37.651   8.633
 2787POPC   D2A37768  31.080  37.755   8.377
 2787POPC   C3A37769  30.919  37.703   7.980
 2787POPC   C4A37770  30.605  37.653   7.737
 2787POPC   C1B37771  30.486  38.072   8.636
 2787POPC   C2B37772  30.454  37.930   8.197
 2787POPC   C3B37773  30.658  38.152   7.840
 2787POPC   C4B37774  30.988  38.064   7.525
 2788POPC   NC337775  14.389   4.561   9.748
 2788POPC   PO437776  14.027   4.092   9.484
 2788POPC   GL137777  14.236   4.437   9.239
 2788POPC   GL237778  14.576   4.497   9.140
 2788POPC   C1A37779  14.154   4.508   8.784
 2788POPC   D2A37780  14.029   4.398   8.378
 2788POPC   C3A37781  14.198   4.578   8.022
 2788POPC   C4A37782  14.469   4.445   7.738
 2788POPC   C1B37783  14.645   4.329   8.705
 2788POPC   C2B37784  14.620   4.302   8.221
 2788POPC   C3B37785  14.701   4.032   7.857
 2788POPC   C4B37786  14.659   4.135   7.390
 2789POPC   NC337787   7.068  24.731   9.596
 2789POPC   PO437788   6.794  25.426   9.575
 2789POPC   GL137789   6.937  25.283   9.189
 2789POPC   GL237790   6.840  24.945   9.155
 2789POPC   C1A37791   6.883  25.384   8.755
 2789POPC   D2A37792   6.926  25.088   8.427
 2789POPC   C3A37793   6.740  25.215   8.055
 2789POPC   C4A37794   6.708  25.467   7.688
 2789POPC   C1B37795   6.553  24.990   8.798
 2789POPC   C2B37796   6.383  25.011   8.410
 2789POPC   C3B37797   6.363  24.875   7.992
 2789POPC   C4B37798   6.574  24.975   7.618
 2790POPC   NC337799   0.759   0.271   9.422
 2790POPC   PO437800   0.095   0.287   9.510
 2790POPC   GL137801   0.294   0.551   9.187
 2790POPC   GL237802   0.514   0.852   9.200
 2790POPC   C1A37803   0.486   0.466   8.795
 2790POPC   D2A37804   0.282   0.367   8.412
 2790POPC   C3A37805   0.513   0.119   8.153
 2790POPC   C4A37806   0.641   0.192   7.727
 2790POPC   C1B37807   0.348   0.959   8.776
 2790POPC   C2B37808   0.445   0.867   8.365
 2790POPC   C3B37809   0.315   0.956   7.926
 2790POPC   C4B37810   0.426   0.648   7.635
 2791POPC   NC337811  17.424  24.662   9.200
 2791POPC   PO437812  17.915  24.456   9.510
 2791POPC   GL137813  17.826  24.326   9.125
 2791POPC   GL237814  17.493  24.162   9.142
 2791POPC   C1A37815  17.852  24.618   8.743
 2791POPC   D2A37816  17.548  24.586   8.417
 2791POPC   C3A37817  17.566  24.634   7.972
 2791POPC   C4A37818  17.238  24.557   7.672
 2791POPC   C1B37819  17.605  24.146   8.687
 2791POPC   C2B37820  17.700  24.118   8.224
 2791POPC   C3B37821  17.523  24.129   7.805
 2791POPC   C4B37822  17.206  24.036   7.478
 2792POPC   NC337823   1.294  37.153   9.541
 2792POPC   PO437824   1.827  36.860   9.844
 2792POPC   GL137825   1.659  36.827   9.325
 2792POPC   GL237826   1.259  36.871   9.138
 2792POPC   C1A37827   1.647  36.925   8.852
 2792POPC   D2A37828   1.254  36.822   8.598
 2792POPC   C3A37829   1.245  36.813   8.162
 2792POPC   C4A37830   1.481  36.941   7.880
 2792POPC   C1B37831   1.183  37.254   8.831
 2792POPC   C2B37832   1.072  37.313   8.342
 2792POPC   C3B37833   0.967  37.114   7.872
 2792POPC   C4B37834   0.953  37.158   7.361
 2793POPC   NC337835  15.425   0.235   9.509
 2793POPC   PO437836  14.916   0.704   9.570
 2793POPC   GL137837  15.021   0.786   9.168
 2793POPC   GL237838  15.342   0.610   9.169
 2793POPC   C1A37839  14.977   0.584   8.775
 2793POPC   D2A37840  15.032   0.261   8.438
 2793POPC   C3A37841  14.989   0.450   8.043
 2793POPC   C4A37842  14.834   0.752   7.715
 2793POPC   C1B37843  15.366   0.258   8.859
 2793POPC   C2B37844  15.532   0.169   8.465
 2793POPC   C3B37845  15.557   0.430   8.123
 2793POPC   C4B37846  15.395   0.456   7.746
 2794POPC   NC337847  40.632  25.159   9.511
 2794POPC   PO437848  41.265  25.397   9.632
 2794POPC   GL137849  40.959  25.549   9.232
 2794POPC   GL237850  40.642  25.374   9.059
 2794POPC   C1A37851  40.762  25.806   8.864
 2794POPC   D2A37852  40.508  25.659   8.513
 2794POPC   C3A37853  40.761  25.617   8.152
 2794POPC   C4A37854  40.829  25.358   7.784
 2794POPC   C1B37855  40.860  25.306   8.653
 2794POPC   C2B37856  40.738  25.099   8.256
 2794POPC   C3B37857  40.559  24.935   7.867
 2794POPC   C4B37858  40.552  25.121   7.409
 2795POPC   NC337859  20.485   6.872   9.424
 2795POPC   PO437860  20.911   6.292   9.427
 2795POPC   GL137861  20.823   6.582   9.062
 2795POPC   GL237862  20.886   6.964   9.107
 2795POPC   C1A37863  20.594   6.509   8.641
 2795POPC   D2A37864  20.377   6.437   8.228
 2795POPC   C3A37865  20.458   6.578   7.801
 2795POPC   C4A37866  20.395   6.304   7.408
 2795POPC   C1B37867  20.576   7.009   8.746
 2795POPC   C2B37868  20.488   6.919   8.286
 2795POPC   C3B37869  20.695   7.060   7.888
 2795POPC   C4B37870  20.937   7.077   7.483
 2796POPC   NC337871  10.021   7.695   9.263
 2796POPC   PO437872  10.491   7.288   9.466
 2796POPC   GL137873  10.449   7.400   9.074
 2796POPC   GL237874  10.501   7.745   9.033
 2796POPC   C1A37875  10.670   7.424   8.684
 2796POPC   D2A37876  10.618   7.698   8.338
 2796POPC   C3A37877  10.686   7.382   8.056
 2796POPC   C4A37878  10.556   7.254   7.643
 2796POPC   C1B37879  10.205   7.613   8.671
 2796POPC   C2B37880  10.225   7.363   8.320
 2796POPC   C3B37881  10.204   7.536   7.901
 2796POPC   C4B37882  10.047   7.753   7.526
 2797POPC   NC337883  14.317  18.289   9.649
 2797POPC   PO437884  14.846  18.571   9.492
 2797POPC   GL137885  14.566  18.282   9.193
 2797POPC   GL237886  14.230  18.424   9.151
 2797POPC   C1A37887  14.342  18.037   8.836
 2797POPC   D2A37888  14.180  18.025   8.401
 2797POPC   C3A37889  14.427  18.085   8.018
 2797POPC   C4A37890  14.462  18.244   7.596
 2797POPC   C1B37891  14.053  18.461   8.706
 2797POPC   C2B37892  14.139  18.533   8.256
 2797POPC   C3B37893  14.150  18.585   7.804
 2797POPC   C4B37894  14.477  18.754   7.507
 2798POPC   NC337895   9.072  13.432   9.445
 2798POPC   PO437896   8.629  13.910   9.680
 2798POPC   GL137897   8.758  13.862   9.240
 2798POPC   GL237898   9.137  13.901   9.161
 2798POPC   C1A37899   8.754  13.753   8.803
 2798POPC   D2A37900   8.970  13.912   8.417
 2798POPC   C3A37901   8.814  13.860   7.975
 2798POPC   C4A37902   8.947  13.801   7.516
 2798POPC   C1B37903   9.253  13.649   8.794
 2798POPC   C2B37904   9.259  13.473   8.385
 2798POPC   C3B37905   9.176  13.506   7.946
 2798POPC   C4B37906   9.165  13.340   7.538
 2799POPC   NC337907   0.102  18.972   9.574
 2799POPC   PO437908   0.587  19.369   9.517
 2799POPC   GL137909   0.398  19.148   9.164
 2799POPC   GL237910   0.301  19.537   9.136
 2799POPC   C1A37911   0.428  18.945   8.718
 2799POPC   D2A37912   0.312  18.691   8.286
 2799POPC   C3A37913   0.378  18.762   7.819
 2799POPC   C4A37914   0.412  18.650   7.363
 2799POPC   C1B37915   0.533  19.440   8.781
 2799POPC   C2B37916   0.419  19.350   8.377
 2799POPC   C3B37917   0.571  19.184   8.030
 2799POPC   C4B37918   0.290  19.313   7.737
 2800POPC   NC337919  37.899  16.997   9.606
 2800POPC   PO437920  37.361  16.587   9.425
 2800POPC   GL137921  37.735  16.612   9.109
 2800POPC   GL237922  37.831  16.950   8.966
 2800POPC   C1A37923  37.798  16.571   8.642
 2800POPC   D2A37924  37.503  16.445   8.309
 2800POPC   C3A37925  37.743  16.506   7.925
 2800POPC   C4A37926  37.763  16.791   7.541
 2800POPC   C1B37927  37.496  16.985   8.619
 2800POPC   C2B37928  37.554  16.922   8.191
 2800POPC   C3B37929  37.955  16.967   7.992
 2800POPC   C4B37930  38.040  17.224   7.659
 2801POPC   NC337931  43.083  15.018   9.613
 2801POPC   PO437932  42.851  15.649   9.577
 2801POPC   GL137933  43.098  15.408   9.284
 2801POPC   GL237934  42.820  15.226   9.227
 2801POPC   C1A37935  43.239  15.226   8.879
 2801POPC   D2A37936  43.345  15.377   8.444
 2801POPC   C3A37937  43.253  15.211   8.011
 2801POPC   C4A37938  43.298  15.529   7.701
 2801POPC   C1B37939  42.740  15.052   8.812
 2801POPC   C2B37940  42.893  15.069   8.368
 2801POPC   C3B37941  42.739  15.256   7.968
 2801POPC   C4B37942  42.943  15.197   7.568
 2802POPC   NC337943  23.240  17.338   9.358
 2802POPC   PO437944  22.620  17.318   9.498
 2802POPC   GL137945  22.761  17.383   9.121
 2802POPC   GL237946  22.872  17.711   9.165
 2802POPC   C1A37947  22.988  17.376   8.745
 2802POPC   D2A37948  22.812  17.418   8.367
 2802POPC   C3A37949  22.931  17.215   8.009
 2802POPC   C4A37950  22.792  17.264   7.612
 2802POPC   C1B37951  23.195  17.860   8.871
 2802POPC   C2B37952  23.197  17.966   8.425
 2802POPC   C3B37953  23.042  17.751   8.054
 2802POPC   C4B37954  22.942  17.760   7.637
 2803POPC   NC337955  17.098  42.476   9.456
 2803POPC   PO437956  16.670  42.008   9.685
 2803POPC   GL137957  16.573  41.990   9.207
 2803POPC   GL237958  16.931  42.015   9.211
 2803POPC   C1A37959  16.446  42.234   8.797
 2803POPC   D2A37960  16.678  42.537   8.539
 2803POPC   C3A37961  16.670  42.425   8.106
 2803POPC   C4A37962  16.453  42.180   7.787
 2803POPC   C1B37963  16.959  42.165   8.815
 2803POPC   C2B37964  17.058  42.208   8.406
 2803POPC   C3B37965  17.171  42.313   8.018
 2803POPC   C4B37966  16.932  42.271   7.684
 2804POPC   NC337967  44.689  14.267   9.444
 2804POPC   PO437968  44.292  14.814   9.417
 2804POPC   GL137969  44.553  14.602   9.095
 2804POPC   GL237970  44.924  14.599   9.065
 2804POPC   C1A37971  44.588  14.366   8.706
 2804POPC   D2A37972  44.506  14.110   8.331
 2804POPC   C3A37973  44.353  14.330   7.934
 2804POPC   C4A37974  44.391  14.180   7.508
 2804POPC   C1B37975   0.091  14.299   8.755
 2804POPC   C2B37976   0.041  14.205   8.332
 2804POPC   C3B37977  44.855  14.217   7.923
 2804POPC   C4B37978  44.926  14.609   7.678
 2805POPC   NC337979  33.239  28.916   9.565
 2805POPC   PO437980  32.845  29.448   9.440
 2805POPC   GL137981  33.043  29.150   9.139
 2805POPC   GL237982  32.936  28.796   9.160
 2805POPC   C1A37983  33.204  29.301   8.750
 2805POPC   D2A37984  32.985  29.508   8.423
 2805POPC   C3A37985  33.172  29.440   8.033
 2805POPC   C4A37986  33.147  29.424   7.594
 2805POPC   C1B37987  33.197  28.771   8.788
 2805POPC   C2B37988  33.126  28.971   8.376
 2805POPC   C3B37989  33.051  28.838   7.978
 2805POPC   C4B37990  33.239  28.636   7.641
 2806POPC   NC337991   4.413   4.784   9.464
 2806POPC   PO437992   4.025   5.301   9.440
 2806POPC   GL137993   4.235   5.210   9.101
 2806POPC   GL237994   4.110   5.525   8.976
 2806POPC   C1A37995   4.361   4.953   8.745
 2806POPC   D2A37996   4.463   5.105   8.329
 2806POPC   C3A37997   4.290   4.888   7.968
 2806POPC   C4A37998   4.477   4.739   7.582
 2806POPC   C1B37999   3.958   5.253   8.669
 2806POPC   C2B38000   3.952   4.980   8.346
 2806POPC   C3B38001   3.938   5.269   8.032
 2806POPC   C4B38002   4.079   5.258   7.633
 2807POPC   NC338003  32.893  19.414   9.451
 2807POPC   PO438004  33.396  18.847   9.535
 2807POPC   GL138005  33.264  19.002   9.112
 2807POPC   GL238006  32.960  19.120   9.049
 2807POPC   C1A38007  33.301  19.111   8.687
 2807POPC   D2A38008  33.021  19.144   8.372
 2807POPC   C3A38009  33.260  19.134   8.012
 2807POPC   C4A38010  33.198  19.369   7.639
 2807POPC   C1B38011  32.707  18.942   8.748
 2807POPC   C2B38012  32.582  18.853   8.394
 2807POPC   C3B38013  32.609  19.085   8.056
 2807POPC   C4B38014  32.837  19.036   7.714
 2808POPC   NC338015  24.800  12.592   9.504
 2808POPC   PO438016  24.265  12.960   9.675
 2808POPC   GL138017  24.261  13.005   9.236
 2808POPC   GL238018  24.601  12.956   9.175
 2808POPC   C1A38019  24.229  12.855   8.818
 2808POPC   D2A38020  24.438  12.881   8.422
 2808POPC   C3A38021  24.228  12.754   7.998
 2808POPC   C4A38022  24.233  12.788   7.515
 2808POPC   C1B38023  24.833  13.125   8.822
 2808POPC   C2B38024  24.905  13.162   8.374
 2808POPC   C3B38025  24.692  13.026   8.001
 2808POPC   C4B38026  24.728  13.020   7.585
 2809POPC   NC338027  36.296  15.016   9.628
 2809POPC   PO438028  36.203  15.672   9.500
 2809POPC   GL138029  36.187  15.374   9.169
 2809POPC   GL238030  36.458  15.135   9.108
 2809POPC   C1A38031  36.116  15.262   8.738
 2809POPC   D2A38032  35.867  15.221   8.374
 2809POPC   C3A38033  36.069  15.361   8.047
 2809POPC   C4A38034  36.228  15.242   7.708
 2809POPC   C1B38035  36.461  14.861   8.711
 2809POPC   C2B38036  36.276  14.910   8.320
 2809POPC   C3B38037  36.396  14.809   7.931
 2809POPC   C4B38038  36.588  14.809   7.555
 2810POPC   NC338039  42.388   3.344   9.395
 2810POPC   PO438040  41.894   3.835   9.539
 2810POPC   GL138041  41.826   3.707   9.138
 2810POPC   GL238042  41.972   3.404   9.091
 2810POPC   C1A38043  42.005   3.797   8.754
 2810POPC   D2A38044  42.336   3.697   8.460
 2810POPC   C3A38045  42.230   3.785   8.042
 2810POPC   C4A38046  42.428   3.816   7.647
 2810POPC   C1B38047  42.123   3.247   8.694
 2810POPC   C2B38048  42.264   3.131   8.283
 2810POPC   C3B38049  42.438   3.301   7.881
 2810POPC   C4B38050  42.510   3.341   7.433
 2811POPC   NC338051   5.868  33.734   9.542
 2811POPC   PO438052   6.322  34.186   9.457
 2811POPC   GL138053   6.011  34.042   9.132
 2811POPC   GL238054   5.865  33.679   9.043
 2811POPC   C1A38055   5.877  34.069   8.725
 2811POPC   D2A38056   5.873  33.757   8.422
 2811POPC   C3A38057   5.678  33.819   8.038
 2811POPC   C4A38058   5.885  33.809   7.654
 2811POPC   C1B38059   5.594  33.447   8.729
 2811POPC   C2B38060   5.473  33.314   8.268
 2811POPC   C3B38061   5.557  33.383   7.776
 2811POPC   C4B38062   5.608  33.511   7.319
 2812POPC   NC338063  43.735  20.774   9.702
 2812POPC   PO438064  43.670  20.349   9.218
 2812POPC   GL138065  43.789  20.721   9.083
 2812POPC   GL238066  44.096  20.719   9.024
 2812POPC   C1A38067  43.763  20.852   8.631
 2812POPC   D2A38068  43.789  20.574   8.269
 2812POPC   C3A38069  43.675  20.673   7.861
 2812POPC   C4A38070  43.774  20.442   7.506
 2812POPC   C1B38071  44.114  20.455   8.671
 2812POPC   C2B38072  44.304  20.598   8.289
 2812POPC   C3B38073  44.201  20.656   7.861
 2812POPC   C4B38074  44.288  20.391   7.519
 2813POPC   NC338075  37.638  11.903   9.420
 2813POPC   PO438076  37.573  11.199   9.594
 2813POPC   GL138077  37.575  11.234   9.195
 2813POPC   GL238078  37.876  11.464   9.247
 2813POPC   C1A38079  37.579  10.978   8.805
 2813POPC   D2A38080  37.812  11.131   8.461
 2813POPC   C3A38081  37.685  11.021   8.068
 2813POPC   C4A38082  37.811  11.196   7.713
 2813POPC   C1B38083  37.739  11.573   8.851
 2813POPC   C2B38084  37.908  11.645   8.493
 2813POPC   C3B38085  37.822  11.562   8.085
 2813POPC   C4B38086  37.896  11.741   7.707
 2814POPC   NC338087  13.455  10.917   9.436
 2814POPC   PO438088  13.060  11.508   9.508
 2814POPC   GL138089  13.297  11.326   9.138
 2814POPC   GL238090  13.205  10.974   9.019
 2814POPC   C1A38091  13.491  11.499   8.745
 2814POPC   D2A38092  13.525  11.692   8.320
 2814POPC   C3A38093  13.635  11.458   7.967
 2814POPC   C4A38094  13.773  11.447   7.536
 2814POPC   C1B38095  13.256  11.031   8.589
 2814POPC   C2B38096  13.530  11.056   8.255
 2814POPC   C3B38097  13.707  10.913   7.842
 2814POPC   C4B38098  13.698  10.964   7.360
 2815POPC   NC338099  15.858  28.977   9.484
 2815POPC   PO438100  15.589  29.471   9.470
 2815POPC   GL138101  15.636  29.251   9.069
 2815POPC   GL238102  15.630  28.893   9.038
 2815POPC   C1A38103  15.916  29.213   8.687
 2815POPC   D2A38104  16.033  29.398   8.277
 2815POPC   C3A38105  16.275  29.230   7.934
 2815POPC   C4A38106  16.307  29.448   7.502
 2815POPC   C1B38107  15.497  28.935   8.622
 2815POPC   C2B38108  15.687  28.957   8.226
 2815POPC   C3B38109  15.785  29.191   7.840
 2815POPC   C4B38110  15.750  29.003   7.447
 2816POPC   NC338111  40.472   9.441   9.401
 2816POPC   PO438112  40.596   8.761   9.384
 2816POPC   GL138113  40.807   9.094   9.158
 2816POPC   GL238114  40.711   8.870   8.894
 2816POPC   C1A38115  40.971   9.292   8.772
 2816POPC   D2A38116  41.041   9.120   8.387
 2816POPC   C3A38117  40.739   9.088   8.043
 2816POPC   C4A38118  40.933   9.136   7.618
 2816POPC   C1B38119  40.537   9.054   8.540
 2816POPC   C2B38120  40.424   8.694   8.308
 2816POPC   C3B38121  40.330   8.529   7.939
 2816POPC   C4B38122  40.658   8.700   7.728
 2817POPC   NC338123  43.898  44.527   9.639
 2817POPC   PO438124  43.617   0.042   9.295
 2817POPC   GL138125  44.039  44.786   9.230
 2817POPC   GL238126  44.014  44.399   9.162
 2817POPC   C1A38127  44.182  44.764   8.849
 2817POPC   D2A38128  43.975  44.968   8.549
 2817POPC   C3A38129  43.955  44.721   8.190
 2817POPC   C4A38130  43.900  44.836   7.781
 2817POPC   C1B38131  43.800  44.407   8.737
 2817POPC   C2B38132  43.724  44.227   8.295
 2817POPC   C3B38133  43.794  44.331   7.867
 2817POPC   C4B38134  43.979  44.210   7.472
 2818POPC   NC338135   3.573  26.796   9.960
 2818POPC   PO438136   3.151  26.808   9.388
 2818POPC   GL138137   3.477  26.963   9.036
 2818POPC   GL238138   3.914  26.915   9.106
 2818POPC   C1A38139   3.393  26.981   8.598
 2818POPC   D2A38140   3.293  26.717   8.282
 2818POPC   C3A38141   3.112  26.960   7.992
 2818POPC   C4A38142   3.171  26.828   7.604
 2818POPC   C1B38143   3.848  26.724   8.707
 2818POPC   C2B38144   3.806  26.847   8.278
 2818POPC   C3B38145   3.632  26.736   7.866
 2818POPC   C4B38146   3.916  26.681   7.498
 2819POPC   NC338147  28.319  25.804   9.512
 2819POPC   PO438148  28.021  26.333   9.176
 2819POPC   GL138149  28.329  26.045   9.054
 2819POPC   GL238150  28.549  25.721   9.075
 2819POPC   C1A38151  28.265  25.863   8.657
 2819POPC   D2A38152  28.358  26.003   8.254
 2819POPC   C3A38153  28.146  26.361   8.093
 2819POPC   C4A38154  27.970  26.268   7.723
 2819POPC   C1B38155  28.753  25.998   8.774
 2819POPC   C2B38156  28.882  25.971   8.367
 2819POPC   C3B38157  28.771  26.027   7.946
 2819POPC   C4B38158  28.462  26.187   7.697
 2820POPC   NC338159  28.153   8.671   9.296
 2820POPC   PO438160  28.401   8.127   9.681
 2820POPC   GL138161  28.389   8.215   9.217
 2820POPC   GL238162  28.599   7.914   9.219
 2820POPC   C1A38163  28.204   8.321   8.757
 2820POPC   D2A38164  28.250   8.083   8.366
 2820POPC   C3A38165  28.202   8.270   7.946
 2820POPC   C4A38166  28.279   8.181   7.490
 2820POPC   C1B38167  28.591   7.969   8.770
 2820POPC   C2B38168  28.731   7.903   8.334
 2820POPC   C3B38169  28.487   7.815   7.973
 2820POPC   C4B38170  28.682   7.875   7.576
 2821POPC   NC338171  40.418   8.070   9.416
 2821POPC   PO438172  39.831   8.411   9.516
 2821POPC   GL138173  40.024   8.302   9.146
 2821POPC   GL238174  40.315   8.478   9.074
 2821POPC   C1A38175  39.959   8.343   8.709
 2821POPC   D2A38176  39.950   8.467   8.292
 2821POPC   C3A38177  39.886   8.108   8.025
 2821POPC   C4A38178  39.580   7.908   7.757
 2821POPC   C1B38179  40.484   8.345   8.681
 2821POPC   C2B38180  40.399   8.139   8.266
 2821POPC   C3B38181  40.338   8.037   7.808
 2821POPC   C4B38182  40.207   7.874   7.389
 2822POPC   NC338183  17.245  38.864   9.456
 2822POPC   PO438184  17.829  39.135   9.518
 2822POPC   GL138185  17.543  39.236   9.193
 2822POPC   GL238186  17.580  38.913   9.058
 2822POPC   C1A38187  17.542  39.357   8.759
 2822POPC   D2A38188  17.313  39.286   8.372
 2822POPC   C3A38189  17.470  39.490   8.026
 2822POPC   C4A38190  17.655  39.389   7.671
 2822POPC   C1B38191  17.367  38.875   8.683
 2822POPC   C2B38192  17.634  38.900   8.319
 2822POPC   C3B38193  17.569  38.793   7.905
 2822POPC   C4B38194  17.265  39.059   7.815
 2823POPC   NC338195  12.513  28.107   9.608
 2823POPC   PO438196  13.099  28.247   9.312
 2823POPC   GL138197  12.739  28.298   9.071
 2823POPC   GL238198  12.394  28.134   9.114
 2823POPC   C1A38199  12.851  28.483   8.688
 2823POPC   D2A38200  13.156  28.418   8.383
 2823POPC   C3A38201  13.091  28.225   7.982
 2823POPC   C4A38202  12.809  28.491   7.876
 2823POPC   C1B38203  12.457  28.177   8.681
 2823POPC   C2B38204  12.638  28.146   8.268
 2823POPC   C3B38205  12.445  28.135   7.847
 2823POPC   C4B38206  12.730  28.185   7.488
 2824POPC   NC338207   2.893  24.878   9.413
 2824POPC   PO438208   2.740  24.366   9.716
 2824POPC   GL138209   2.677  24.427   9.214
 2824POPC   GL238210   2.507  24.726   9.112
 2824POPC   C1A38211   2.654  24.414   8.737
 2824POPC   D2A38212   2.697  24.311   8.301
 2824POPC   C3A38213   2.871  24.465   7.892
 2824POPC   C4A38214   2.828  24.382   7.420
 2824POPC   C1B38215   2.268  24.785   8.744
 2824POPC   C2B38216   2.407  24.910   8.304
 2824POPC   C3B38217   2.414  24.687   7.930
 2824POPC   C4B38218   2.374  24.257   7.885
 2825POPC   NC338219  22.795  35.731   9.501
 2825POPC   PO438220  22.901  35.080   9.572
 2825POPC   GL138221  22.978  35.317   9.179
 2825POPC   GL238222  22.994  35.653   9.063
 2825POPC   C1A38223  23.004  35.289   8.718
 2825POPC   D2A38224  23.060  35.029   8.352
 2825POPC   C3A38225  22.923  35.146   7.929
 2825POPC   C4A38226  23.041  35.344   7.529
 2825POPC   C1B38227  22.587  35.586   8.890
 2825POPC   C2B38228  22.463  35.371   8.558
 2825POPC   C3B38229  22.635  35.455   8.184
 2825POPC   C4B38230  22.611  35.538   7.768
 2826POPC   NC338231  30.719  33.417   9.503
 2826POPC   PO438232  30.778  32.858   9.451
 2826POPC   GL138233  30.681  33.122   9.085
 2826POPC   GL238234  30.446  32.944   8.871
 2826POPC   C1A38235  30.814  33.299   8.700
 2826POPC   D2A38236  30.908  33.126   8.285
 2826POPC   C3A38237  31.149  33.369   8.038
 2826POPC   C4A38238  31.136  33.353   7.603
 2826POPC   C1B38239  30.825  32.761   8.661
 2826POPC   C2B38240  31.003  32.609   8.239
 2826POPC   C3B38241  30.860  32.505   7.796
 2826POPC   C4B38242  30.812  32.553   7.330
 2827POPC   NC338243  39.359  16.354   9.537
 2827POPC   PO438244  39.382  15.660   9.576
 2827POPC   GL138245  39.290  15.922   9.214
 2827POPC   GL238246  38.952  15.885   9.257
 2827POPC   C1A38247  39.238  16.038   8.765
 2827POPC   D2A38248  39.411  15.908   8.372
 2827POPC   C3A38249  39.180  15.970   7.994
 2827POPC   C4A38250  39.191  15.585   7.747
 2827POPC   C1B38251  38.890  15.693   8.859
 2827POPC   C2B38252  38.890  15.807   8.423
 2827POPC   C3B38253  38.754  15.672   7.999
 2827POPC   C4B38254  38.750  15.869   7.605
 2828POPC   NC338255  13.748  25.838   9.423
 2828POPC   PO438256  13.222  26.266   9.392
 2828POPC   GL138257  13.483  26.168   9.087
 2828POPC   GL238258  13.372  25.825   9.077
 2828POPC   C1A38259  13.725  26.037   8.747
 2828POPC   D2A38260  13.700  25.724   8.438
 2828POPC   C3A38261  13.752  25.903   8.065
 2828POPC   C4A38262  13.851  26.139   7.712
 2828POPC   C1B38263  13.246  25.844   8.702
 2828POPC   C2B38264  13.298  26.062   8.342
 2828POPC   C3B38265  13.265  25.850   7.971
 2828POPC   C4B38266  13.509  25.729   7.631
 2829POPC   NC338267   0.782  39.797   9.527
 2829POPC   PO438268   1.391  40.103   9.476
 2829POPC   GL138269   1.153  39.885   9.159
 2829POPC   GL238270   0.880  40.089   9.107
 2829POPC   C1A38271   1.000  39.765   8.725
 2829POPC   D2A38272   1.015  39.617   8.276
 2829POPC   C3A38273   1.144  39.901   7.928
 2829POPC   C4A38274   1.585  39.940   7.783
 2829POPC   C1B38275   1.137  40.270   8.745
 2829POPC   C2B38276   1.511  40.350   8.459
 2829POPC   C3B38277   1.574  40.427   7.989
 2829POPC   C4B38278   1.263  40.355   7.690
 2830POPC   NC338279  19.027  17.186   9.439
 2830POPC   PO438280  19.439  17.713   9.636
 2830POPC   GL138281  19.227  17.604   9.207
 2830POPC   GL238282  18.877  17.707   9.249
 2830POPC   C1A38283  19.158  17.297   8.803
 2830POPC   D2A38284  19.335  17.276   8.372
 2830POPC   C3A38285  19.148  17.289   7.969
 2830POPC   C4A38286  19.335  17.302   7.563
 2830POPC   C1B38287  18.956  17.764   8.793
 2830POPC   C2B38288  18.933  17.587   8.395
 2830POPC   C3B38289  18.895  17.729   7.989
 2830POPC   C4B38290  18.943  17.613   7.539
 2831POPC   NC338291  38.838   0.892   9.502
 2831POPC   PO438292  39.520   1.042   9.410
 2831POPC   GL138293  39.278   1.088   9.064
 2831POPC   GL238294  39.135   1.440   9.064
 2831POPC   C1A38295  39.382   1.245   8.651
 2831POPC   D2A38296  39.665   1.477   8.460
 2831POPC   C3A38297  39.565   1.285   8.091
 2831POPC   C4A38298  39.404   1.121   7.712
 2831POPC   C1B38299  38.901   1.166   8.733
 2831POPC   C2B38300  39.058   1.079   8.278
 2831POPC   C3B38301  38.958   1.318   7.894
 2831POPC   C4B38302  38.748   1.228   7.497
 2832POPC   NC338303  27.926  20.640   9.709
 2832POPC   PO438304  27.322  20.940   9.558
 2832POPC   GL138305  27.591  20.733   9.258
 2832POPC   GL238306  27.466  20.467   9.053
 2832POPC   C1A38307  27.626  20.878   8.805
 2832POPC   D2A38308  27.615  20.736   8.391
 2832POPC   C3A38309  27.317  20.593   8.116
 2832POPC   C4A38310  27.581  20.628   7.762
 2832POPC   C1B38311  27.528  20.284   8.620
 2832POPC   C2B38312  27.801  20.275   8.215
 2832POPC   C3B38313  27.839  20.167   7.748
 2832POPC   C4B38314  28.119  20.155   7.328
 2833POPC   NC338315  34.248  26.268   9.438
 2833POPC   PO438316  33.884  25.685   9.480
 2833POPC   GL138317  33.969  25.917   9.081
 2833POPC   GL238318  33.907  26.288   9.037
 2833POPC   C1A38319  33.751  25.946   8.673
 2833POPC   D2A38320  33.533  26.165   8.337
 2833POPC   C3A38321  33.794  26.292   8.016
 2833POPC   C4A38322  33.837  26.116   7.608
 2833POPC   C1B38323  33.930  26.438   8.588
 2833POPC   C2B38324  34.232  26.510   8.217
 2833POPC   C3B38325  34.212  26.455   7.758
 2833POPC   C4B38326  34.375  26.157   7.452
 2834POPC   NC338327  22.578   4.139   9.395
 2834POPC   PO438328  23.197   4.329   9.557
 2834POPC   GL138329  23.108   4.283   9.159
 2834POPC   GL238330  23.218   3.965   8.999
 2834POPC   C1A38331  22.933   4.615   8.939
 2834POPC   D2A38332  22.847   4.613   8.518
 2834POPC   C3A38333  22.903   4.576   8.106
 2834POPC   C4A38334  22.897   4.360   7.757
 2834POPC   C1B38335  22.860   4.126   8.725
 2834POPC   C2B38336  22.642   4.162   8.307
 2834POPC   C3B38337  22.733   3.930   7.932
 2834POPC   C4B38338  23.191   3.940   7.807
 2835POPC   NC338339   6.397  32.906   9.732
 2835POPC   PO438340   5.901  33.279   9.452
 2835POPC   GL138341   5.886  32.994   9.125
 2835POPC   GL238342   6.050  33.206   8.926
 2835POPC   C1A38343   5.674  32.955   8.708
 2835POPC   D2A38344   5.791  32.847   8.328
 2835POPC   C3A38345   5.793  32.938   7.906
 2835POPC   C4A38346   6.225  32.839   7.777
 2835POPC   C1B38347   6.044  33.283   8.529
 2835POPC   C2B38348   5.960  33.349   8.126
 2835POPC   C3B38349   6.072  33.337   7.706
 2835POPC   C4B38350   6.114  33.517   7.305
 2836POPC   NC338351   3.450  18.590   9.535
 2836POPC   PO438352   3.854  18.175   9.712
 2836POPC   GL138353   3.695  18.235   9.261
 2836POPC   GL238354   3.362  18.101   9.231
 2836POPC   C1A38355   3.911  18.251   8.850
 2836POPC   D2A38356   3.876  18.307   8.380
 2836POPC   C3A38357   3.898  18.644   8.064
 2836POPC   C4A38358   3.694  18.610   7.673
 2836POPC   C1B38359   3.471  17.959   8.805
 2836POPC   C2B38360   3.446  18.036   8.354
 2836POPC   C3B38361   3.549  18.218   7.945
 2836POPC   C4B38362   3.436  18.083   7.496
 2837POPC   NC338363   4.946  15.404   9.672
 2837POPC   PO438364   5.571  15.280   9.350
 2837POPC   GL138365   5.102  15.111   9.266
 2837POPC   GL238366   4.763  15.302   9.214
 2837POPC   C1A38367   5.022  15.108   8.804
 2837POPC   D2A38368   5.331  15.096   8.450
 2837POPC   C3A38369   5.172  15.237   8.049
 2837POPC   C4A38370   5.037  15.151   7.639
 2837POPC   C1B38371   4.681  15.500   8.815
 2837POPC   C2B38372   4.840  15.427   8.402
 2837POPC   C3B38373   4.796  15.585   7.933
 2837POPC   C4B38374   4.846  15.590   7.471
 2838POPC   NC338375  33.247  20.237   9.805
 2838POPC   PO438376  32.733  19.877   9.455
 2838POPC   GL138377  32.737  20.042   9.069
 2838POPC   GL238378  32.840  19.710   8.981
 2838POPC   C1A38379  33.036  20.138   8.719
 2838POPC   D2A38380  33.248  20.010   8.335
 2838POPC   C3A38381  32.934  19.846   8.047
 2838POPC   C4A38382  32.916  19.802   7.610
 2838POPC   C1B38383  33.067  19.612   8.615
 2838POPC   C2B38384  33.478  19.550   8.476
 2838POPC   C3B38385  33.543  19.572   8.042
 2838POPC   C4B38386  33.469  19.792   7.661
 2839POPC   NC338387   7.755  26.240   9.449
 2839POPC   PO438388   8.430  25.907   9.511
 2839POPC   GL138389   8.359  25.927   9.117
 2839POPC   GL238390   8.023  25.968   9.108
 2839POPC   C1A38391   8.285  25.993   8.692
 2839POPC   D2A38392   8.488  26.177   8.393
 2839POPC   C3A38393   8.436  25.964   8.046
 2839POPC   C4A38394   8.381  25.912   7.629
 2839POPC   C1B38395   7.768  26.024   8.761
 2839POPC   C2B38396   7.778  25.862   8.371
 2839POPC   C3B38397   7.912  26.053   8.013
 2839POPC   C4B38398   7.778  26.444   7.815
 2840POPC   NC338399   5.114   2.491   9.333
 2840POPC   PO438400   5.029   3.017   9.772
 2840POPC   GL138401   5.307   2.972   9.267
 2840POPC   GL238402   5.475   3.211   9.170
 2840POPC   C1A38403   5.370   2.724   8.812
 2840POPC   D2A38404   5.438   2.749   8.355
 2840POPC   C3A38405   5.104   2.620   8.137
 2840POPC   C4A38406   4.928   2.684   7.744
 2840POPC   C1B38407   5.209   3.214   8.757
 2840POPC   C2B38408   5.266   3.217   8.305
 2840POPC   C3B38409   5.056   3.176   7.887
 2840POPC   C4B38410   4.630   3.191   7.681
 2841POPC   NC338411  30.399  31.510   9.504
 2841POPC   PO438412  30.948  31.821   9.673
 2841POPC   GL138413  30.807  31.737   9.216
 2841POPC   GL238414  30.678  31.397   9.105
 2841POPC   C1A38415  30.898  31.672   8.743
 2841POPC   D2A38416  30.598  31.613   8.386
 2841POPC   C3A38417  30.630  31.691   7.915
 2841POPC   C4A38418  30.412  31.642   7.504
 2841POPC   C1B38419  30.726  31.155   8.734
 2841POPC   C2B38420  30.864  31.184   8.322
 2841POPC   C3B38421  30.714  31.128   7.903
 2841POPC   C4B38422  30.935  31.148   7.520
 2842POPC   NC338423  10.575  28.498   9.447
 2842POPC   PO438424  10.058  28.119   9.458
 2842POPC   GL138425  10.375  28.125   9.095
 2842POPC   GL238426  10.745  28.183   9.084
 2842POPC   C1A38427  10.530  28.053   8.664
 2842POPC   D2A38428  10.560  28.321   8.307
 2842POPC   C3A38429  10.314  28.331   7.915
 2842POPC   C4A38430  10.389  28.520   7.514
 2842POPC   C1B38431  10.866  28.509   8.742
 2842POPC   C2B38432  11.001  28.575   8.273
 2842POPC   C3B38433  10.855  28.349   7.890
 2842POPC   C4B38434  10.787  28.207   7.474
 2843POPC   NC338435  36.512  22.204   9.656
 2843POPC   PO438436  35.880  22.263   9.419
 2843POPC   GL138437  36.226  22.188   9.101
 2843POPC   GL238438  36.419  22.488   9.072
 2843POPC   C1A38439  36.170  22.177   8.639
 2843POPC   D2A38440  36.058  22.409   8.274
 2843POPC   C3A38441  35.863  22.286   7.919
 2843POPC   C4A38442  36.091  21.956   7.726
 2843POPC   C1B38443  36.631  22.454   8.660
 2843POPC   C2B38444  36.551  22.318   8.228
 2843POPC   C3B38445  36.314  22.436   7.808
 2843POPC   C4B38446  36.434  22.231   7.414
 2844POPC   NC338447  33.245  39.448   9.539
 2844POPC   PO438448  33.889  39.201   9.361
 2844POPC   GL138449  33.745  39.025   8.975
 2844POPC   GL238450  33.391  38.962   8.992
 2844POPC   C1A38451  33.839  38.999   8.521
 2844POPC   D2A38452  34.212  38.911   8.263
 2844POPC   C3A38453  34.102  38.998   7.848
 2844POPC   C4A38454  33.982  39.320   7.457
 2844POPC   C1B38455  33.399  39.313   8.691
 2844POPC   C2B38456  33.688  39.513   8.387
 2844POPC   C3B38457  33.773  39.396   7.920
 2844POPC   C4B38458  33.616  39.008   7.741
 2845POPC   NC338459   9.890  10.274   9.472
 2845POPC   PO438460   9.608  10.949   9.650
 2845POPC   GL138461   9.729  10.747   9.256
 2845POPC   GL238462   9.514  10.514   9.133
 2845POPC   C1A38463   9.925  10.633   8.845
 2845POPC   D2A38464   9.960  10.427   8.453
 2845POPC   C3A38465   9.892  10.647   8.087
 2845POPC   C4A38466  10.111  10.614   7.721
 2845POPC   C1B38467   9.607  10.229   8.793
 2845POPC   C2B38468   9.631  10.034   8.369
 2845POPC   C3B38469   9.688  10.207   7.938
 2845POPC   C4B38470   9.590  10.535   7.637
 2846POPC   NC338471   6.993  39.647   9.431
 2846POPC   PO438472   6.500  40.111   9.469
 2846POPC   GL138473   6.799  40.077   9.122
 2846POPC   GL238474   6.703  39.779   9.033
 2846POPC   C1A38475   6.637  40.153   8.703
 2846POPC   D2A38476   6.364  40.124   8.374
 2846POPC   C3A38477   6.618  40.198   8.061
 2846POPC   C4A38478   6.856  40.296   7.697
 2846POPC   C1B38479   6.435  39.572   8.763
 2846POPC   C2B38480   6.290  39.490   8.353
 2846POPC   C3B38481   6.221  39.777   8.032
 2846POPC   C4B38482   6.467  39.910   7.688
 2847POPC   NC338483  17.457  38.395   9.920
 2847POPC   PO438484  17.746  38.148   9.379
 2847POPC   GL138485  17.593  38.365   9.027
 2847POPC   GL238486  17.282  38.502   9.101
 2847POPC   C1A38487  17.612  38.460   8.610
 2847POPC   D2A38488  17.381  38.448   8.251
 2847POPC   C3A38489  17.545  38.284   7.861
 2847POPC   C4A38490  17.709  38.441   7.508
 2847POPC   C1B38491  17.143  38.303   8.740
 2847POPC   C2B38492  16.954  38.097   8.398
 2847POPC   C3B38493  17.080  38.136   7.985
 2847POPC   C4B38494  17.092  38.552   7.828
 2848POPC   NC338495  35.103   0.826   9.394
 2848POPC   PO438496  35.471   1.495   9.438
 2848POPC   GL138497  35.468   1.113   9.169
 2848POPC   GL238498  35.516   1.327   8.913
 2848POPC   C1A38499  35.216   0.985   8.754
 2848POPC   D2A38500  35.296   1.230   8.371
 2848POPC   C3A38501  35.347   1.014   7.973
 2848POPC   C4A38502  35.576   0.948   7.548
 2848POPC   C1B38503  35.196   1.585   8.753
 2848POPC   C2B38504  34.974   1.643   8.360
 2848POPC   C3B38505  35.016   1.420   7.981
 2848POPC   C4B38506  35.307   1.374   7.622
 2849POPC   NC338507  15.540  24.556   9.465
 2849POPC   PO438508  16.147  24.384   9.498
 2849POPC   GL138509  15.982  24.706   9.175
 2849POPC   GL238510  16.165  25.040   9.197
 2849POPC   C1A38511  15.789  24.643   8.740
 2849POPC   D2A38512  15.688  24.510   8.305
 2849POPC   C3A38513  16.022  24.447   7.992
 2849POPC   C4A38514  15.997  24.528   7.523
 2849POPC   C1B38515  16.306  24.902   8.785
 2849POPC   C2B38516  16.308  24.619   8.431
 2849POPC   C3B38517  16.537  24.657   8.050
 2849POPC   C4B38518  16.346  24.949   7.816
 2850POPC   NC338519  29.264  26.222   9.650
 2850POPC   PO438520  28.778  25.824   9.559
 2850POPC   GL138521  29.046  25.855   9.178
 2850POPC   GL238522  29.312  26.106   9.142
 2850POPC   C1A38523  29.222  25.764   8.748
 2850POPC   D2A38524  29.383  25.864   8.319
 2850POPC   C3A38525  29.101  25.630   8.020
 2850POPC   C4A38526  28.812  25.611   7.652
 2850POPC   C1B38527  29.227  26.269   8.698
 2850POPC   C2B38528  29.179  26.370   8.245
 2850POPC   C3B38529  29.163  26.316   7.804
 2850POPC   C4B38530  29.242  26.533   7.418
 2851POPC   NC338531  39.107   8.836   9.491
 2851POPC   PO438532  39.440   9.283   9.355
 2851POPC   GL138533  39.455   8.993   9.095
 2851POPC   GL238534  39.095   9.053   9.025
 2851POPC   C1A38535  39.484   8.962   8.662
 2851POPC   D2A38536  39.176   9.197   8.457
 2851POPC   C3A38537  39.221   9.234   8.027
 2851POPC   C4A38538  39.244   8.787   7.821
 2851POPC   C1B38539  38.822   9.339   8.831
 2851POPC   C2B38540  38.678   9.296   8.417
 2851POPC   C3B38541  38.795   8.968   8.123
 2851POPC   C4B38542  38.860   9.084   7.701
 2852POPC   NC338543   8.024  38.825   9.267
 2852POPC   PO438544   8.352  39.183   9.715
 2852POPC   GL138545   8.391  39.119   9.155
 2852POPC   GL238546   8.116  39.333   9.009
 2852POPC   C1A38547   8.314  39.008   8.698
 2852POPC   D2A38548   8.098  39.242   8.393
 2852POPC   C3A38549   8.304  39.173   8.015
 2852POPC   C4A38550   8.295  39.056   7.585
 2852POPC   C1B38551   8.175  39.644   8.722
 2852POPC   C2B38552   7.993  39.799   8.342
 2852POPC   C3B38553   7.961  39.560   8.000
 2852POPC   C4B38554   8.151  39.527   7.625
 2853POPC   NC338555   4.747  14.519   9.658
 2853POPC   PO438556   4.248  14.085   9.576
 2853POPC   GL138557   4.142  14.285   9.199
 2853POPC   GL238558   4.409  14.497   9.077
 2853POPC   C1A38559   4.096  14.252   8.760
 2853POPC   D2A38560   4.297  14.529   8.432
 2853POPC   C3A38561   4.284  14.282   8.016
 2853POPC   C4A38562   4.178  13.817   7.926
 2853POPC   C1B38563   4.026  14.748   8.892
 2853POPC   C2B38564   3.940  14.890   8.449
 2853POPC   C3B38565   4.158  14.881   8.029
 2853POPC   C4B38566   4.556  14.688   7.813
 2854POPC   NC338567  31.765  44.362   9.307
 2854POPC   PO438568  31.519  44.908   9.538
 2854POPC   GL138569  31.374  44.693   9.205
 2854POPC   GL238570  31.154  44.907   9.095
 2854POPC   C1A38571  31.465  44.644   8.769
 2854POPC   D2A38572  31.625  44.763   8.378
 2854POPC   C3A38573  31.545  44.413   8.087
 2854POPC   C4A38574  31.672  44.461   7.669
 2854POPC   C1B38575  31.069   0.010   8.696
 2854POPC   C2B38576  31.114  44.868   8.264
 2854POPC   C3B38577  31.348  44.855   7.858
 2854POPC   C4B38578  31.323  44.740   7.389
 2855POPC   NC338579   8.355  39.526   9.408
 2855POPC   PO438580   8.016  40.111   9.555
 2855POPC   GL138581   8.043  39.900   9.164
 2855POPC   GL238582   8.400  39.964   9.132
 2855POPC   C1A38583   8.064  40.129   8.750
 2855POPC   D2A38584   7.999  40.458   8.477
 2855POPC   C3A38585   8.057  40.278   8.074
 2855POPC   C4A38586   8.034  39.998   7.746
 2855POPC   C1B38587   8.605  39.947   8.741
 2855POPC   C2B38588   8.443  40.037   8.343
 2855POPC   C3B38589   8.465  39.815   7.946
 2855POPC   C4B38590   8.534  39.861   7.482
 2856POPC   NC338591  41.945  39.867   9.482
 2856POPC   PO438592  41.402  40.190   9.493
 2856POPC   GL138593  41.555  40.013   9.153
 2856POPC   GL238594  41.890  40.141   9.061
 2856POPC   C1A38595  41.515  39.752   8.812
 2856POPC   D2A38596  41.651  39.749   8.396
 2856POPC   C3A38597  41.365  39.839   8.066
 2856POPC   C4A38598  41.494  39.872   7.648
 2856POPC   C1B38599  41.705  40.357   8.742
 2856POPC   C2B38600  41.558  40.262   8.345
 2856POPC   C3B38601  41.446  40.363   7.939
 2856POPC   C4B38602  41.609  40.339   7.531
 2857POPC   NC338603  30.635  20.669   9.642
 2857POPC   PO438604  31.200  21.067   9.506
 2857POPC   GL138605  30.863  20.797   9.198
 2857POPC   GL238606  30.504  20.667   9.162
 2857POPC   C1A38607  30.828  20.581   8.767
 2857POPC   D2A38608  30.869  20.268   8.442
 2857POPC   C3A38609  30.923  20.526   8.077
 2857POPC   C4A38610  30.690  20.617   7.703
 2857POPC   C1B38611  30.344  20.706   8.748
 2857POPC   C2B38612  30.489  20.603   8.349
 2857POPC   C3B38613  30.264  20.684   7.977
 2857POPC   C4B38614  30.191  20.506   7.588
 2858POPC   NC338615  13.362  12.656   9.633
 2858POPC   PO438616  12.753  13.075   9.499
 2858POPC   GL138617  12.717  13.021   9.113
 2858POPC   GL238618  12.388  13.106   9.052
 2858POPC   C1A38619  12.656  12.771   8.747
 2858POPC   D2A38620  12.824  12.592   8.392
 2858POPC   C3A38621  12.724  12.782   8.045
 2858POPC   C4A38622  13.021  12.714   7.707
 2858POPC   C1B38623  12.683  13.324   8.723
 2858POPC   C2B38624  12.925  13.131   8.371
 2858POPC   C3B38625  13.104  13.194   7.908
 2858POPC   C4B38626  13.042  13.226   7.413
 2859POPC   NC338627  38.225  20.203   9.493
 2859POPC   PO438628  38.635  19.695   9.486
 2859POPC   GL138629  38.487  19.908   9.154
 2859POPC   GL238630  38.147  19.773   9.157
 2859POPC   C1A38631  38.616  19.958   8.736
 2859POPC   D2A38632  38.787  19.979   8.322
 2859POPC   C3A38633  38.628  19.671   8.024
 2859POPC   C4A38634  38.316  19.464   7.783
 2859POPC   C1B38635  38.113  20.052   8.807
 2859POPC   C2B38636  38.341  20.347   8.532
 2859POPC   C3B38637  38.426  20.322   8.084
 2859POPC   C4B38638  38.281  20.010   7.787
 2860POPC   NC338639  40.335  33.509   9.186
 2860POPC   PO438640  40.719  34.001   9.392
 2860POPC   GL138641  40.963  33.749   9.102
 2860POPC   GL238642  40.932  33.387   9.234
 2860POPC   C1A38643  40.928  33.982   8.697
 2860POPC   D2A38644  40.612  34.169   8.418
 2860POPC   C3A38645  40.655  33.928   8.022
 2860POPC   C4A38646  40.618  33.639   7.665
 2860POPC   C1B38647  40.902  33.336   8.805
 2860POPC   C2B38648  41.060  33.541   8.445
 2860POPC   C3B38649  41.063  33.599   8.012
 2860POPC   C4B38650  40.980  33.295   7.719
 2861POPC   NC338651  22.435  16.873   9.536
 2861POPC   PO438652  23.004  16.490   9.541
 2861POPC   GL138653  23.000  16.701   9.125
 2861POPC   GL238654  23.341  16.592   9.045
 2861POPC   C1A38655  22.789  16.876   8.700
 2861POPC   D2A38656  22.639  16.677   8.232
 2861POPC   C3A38657  22.641  16.799   7.744
 2861POPC   C4A38658  22.648  16.819   7.236
 2861POPC   C1B38659  23.138  16.503   8.655
 2861POPC   C2B38660  23.127  16.817   8.323
 2861POPC   C3B38661  23.110  16.727   7.923
 2861POPC   C4B38662  23.274  16.372   7.750
 2862POPC   NC338663   2.481   6.350   9.877
 2862POPC   PO438664   2.890   6.894   9.555
 2862POPC   GL138665   2.804   6.740   9.159
 2862POPC   GL238666   2.854   6.396   9.276
 2862POPC   C1A38667   2.947   6.851   8.728
 2862POPC   D2A38668   2.868   6.546   8.395
 2862POPC   C3A38669   2.964   6.616   7.994
 2862POPC   C4A38670   3.072   6.805   7.568
 2862POPC   C1B38671   2.809   6.284   8.840
 2862POPC   C2B38672   2.484   6.211   8.489
 2862POPC   C3B38673   2.546   6.293   8.031
 2862POPC   C4B38674   2.779   6.349   7.610
 2863POPC   NC338675   3.093  43.624   9.436
 2863POPC   PO438676   2.606  44.118   9.558
 2863POPC   GL138677   2.713  43.922   9.202
 2863POPC   GL238678   3.044  44.063   9.117
 2863POPC   C1A38679   2.787  43.716   8.820
 2863POPC   D2A38680   2.684  43.861   8.439
 2863POPC   C3A38681   2.882  43.640   8.133
 2863POPC   C4A38682   2.773  43.818   7.765
 2863POPC   C1B38683   3.212  44.003   8.709
 2863POPC   C2B38684   3.149  44.053   8.273
 2863POPC   C3B38685   3.193  44.057   7.821
 2863POPC   C4B38686   2.976  44.122   7.403
 2864POPC   NC338687   2.350  24.564   9.582
 2864POPC   PO438688   1.882  24.177   9.416
 2864POPC   GL138689   2.090  24.410   9.117
 2864POPC   GL238690   2.001  24.746   9.216
 2864POPC   C1A38691   2.022  24.334   8.690
 2864POPC   D2A38692   2.213  24.445   8.350
 2864POPC   C3A38693   1.938  24.592   8.057
 2864POPC   C4A38694   1.926  24.676   7.633
 2864POPC   C1B38695   1.742  24.772   8.840
 2864POPC   C2B38696   1.589  24.628   8.436
 2864POPC   C3B38697   1.489  24.902   8.069
 2864POPC   C4B38698   1.482  24.928   7.611
 2865POPC   NC338699  16.435  35.571   9.467
 2865POPC   PO438700  16.963  35.223   9.529
 2865POPC   GL138701  16.997  35.356   9.136
 2865POPC   GL238702  17.233  35.089   9.091
 2865POPC   C1A38703  16.729  35.480   8.792
 2865POPC   D2A38704  16.404  35.437   8.477
 2865POPC   C3A38705  16.538  35.319   8.065
 2865POPC   C4A38706  16.481  35.307   7.621
 2865POPC   C1B38707  17.065  35.076   8.691
 2865POPC   C2B38708  16.995  35.366   8.354
 2865POPC   C3B38709  17.022  35.268   7.913
 2865POPC   C4B38710  17.107  34.868   7.753
 2866POPC   NC338711  23.007   0.332   9.547
 2866POPC   PO438712  23.297   0.967   9.486
 2866POPC   GL138713  23.066   0.840   9.142
 2866POPC   GL238714  22.875   0.534   9.120
 2866POPC   C1A38715  23.038   0.796   8.716
 2866POPC   D2A38716  22.832   0.975   8.395
 2866POPC   C3A38717  22.934   0.787   8.032
 2866POPC   C4A38718  23.243   0.734   7.797
 2866POPC   C1B38719  22.738   0.350   8.757
 2866POPC   C2B38720  22.981   0.397   8.402
 2866POPC   C3B38721  23.150   0.299   8.056
 2866POPC   C4B38722  22.894   0.314   7.741
 2867POPC   NC338723   5.990  30.477   9.512
 2867POPC   PO438724   5.672  31.048   9.369
 2867POPC   GL138725   5.937  30.798   9.108
 2867POPC   GL238726   6.198  30.939   8.953
 2867POPC   C1A38727   5.851  30.654   8.695
 2867POPC   D2A38728   5.566  30.605   8.354
 2867POPC   C3A38729   5.765  30.581   7.977
 2867POPC   C4A38730   5.626  30.525   7.563
 2867POPC   C1B38731   6.252  31.043   8.532
 2867POPC   C2B38732   6.195  30.736   8.239
 2867POPC   C3B38733   6.271  30.679   7.818
 2867POPC   C4B38734   6.218  30.840   7.425
 2868POPC   NC338735  27.177  36.988   9.834
 2868POPC   PO438736  26.901  37.562   9.485
 2868POPC   GL138737  26.909  37.801   9.096
 2868POPC   GL238738  26.554  37.760   9.088
 2868POPC   C1A38739  26.809  37.901   8.659
 2868POPC   D2A38740  26.561  37.768   8.282
 2868POPC   C3A38741  26.787  37.802   7.887
 2868POPC   C4A38742  26.988  37.771   7.464
 2868POPC   C1B38743  26.634  37.421   8.831
 2868POPC   C2B38744  26.461  37.282   8.452
 2868POPC   C3B38745  26.642  37.301   8.035
 2868POPC   C4B38746  26.785  37.333   7.635
 2869POPC   NC338747   8.339   7.116   9.335
 2869POPC   PO438748   8.360   6.523   9.722
 2869POPC   GL138749   8.196   6.549   9.284
 2869POPC   GL238750   8.414   6.335   9.126
 2869POPC   C1A38751   8.109   6.688   8.827
 2869POPC   D2A38752   8.244   6.803   8.373
 2869POPC   C3A38753   8.089   6.653   7.955
 2869POPC   C4A38754   7.734   6.852   7.768
 2869POPC   C1B38755   8.647   6.382   8.777
 2869POPC   C2B38756   8.626   6.472   8.353
 2869POPC   C3B38757   8.547   6.343   7.947
 2869POPC   C4B38758   8.382   6.481   7.549
 2870POPC   NC338759  11.060  18.151   9.609
 2870POPC   PO438760  11.584  18.518   9.666
 2870POPC   GL138761  11.411  18.319   9.258
 2870POPC   GL238762  11.125  18.055   9.116
 2870POPC   C1A38763  11.292  18.429   8.836
 2870POPC   D2A38764  11.295  18.169   8.483
 2870POPC   C3A38765  11.267  18.347   8.111
 2870POPC   C4A38766  11.515  18.367   7.765
 2870POPC   C1B38767  11.013  17.822   8.715
 2870POPC   C2B38768  10.909  17.904   8.263
 2870POPC   C3B38769  11.024  17.935   7.825
 2870POPC   C4B38770  11.016  18.345   7.666
 2871POPC   NC338771   1.802  40.345   9.556
 2871POPC   PO438772   1.778  41.001   9.687
 2871POPC   GL138773   1.949  40.749   9.251
 2871POPC   GL238774   1.753  40.470   9.066
 2871POPC   C1A38775   2.214  40.719   8.856
 2871POPC   D2A38776   2.210  40.860   8.445
 2871POPC   C3A38777   2.267  40.586   8.109
 2871POPC   C4A38778   2.257  40.748   7.724
 2871POPC   C1B38779   1.739  40.752   8.706
 2871POPC   C2B38780   1.667  40.818   8.301
 2871POPC   C3B38781   1.829  40.943   7.916
 2871POPC   C4B38782   1.786  41.177   7.526
 2872POPC   NC338783  12.560  44.288   9.875
 2872POPC   PO438784  13.002  43.989   9.806
 2872POPC   GL138785  13.079  43.899   9.309
 2872POPC   GL238786  12.811  43.744   9.113
 2872POPC   C1A38787  13.194  43.888   8.840
 2872POPC   D2A38788  12.889  43.701   8.510
 2872POPC   C3A38789  12.959  43.910   8.130
 2872POPC   C4A38790  12.980  43.830   7.712
 2872POPC   C1B38791  12.680  44.055   8.799
 2872POPC   C2B38792  12.548  44.093   8.361
 2872POPC   C3B38793  12.401  43.993   7.972
 2872POPC   C4B38794  12.239  43.653   7.760
 2873POPC   NC338795  10.958   9.691   9.411
 2873POPC   PO438796  11.637   9.512   9.547
 2873POPC   GL138797  11.418   9.625   9.157
 2873POPC   GL238798  11.460   9.974   9.111
 2873POPC   C1A38799  11.147   9.637   8.776
 2873POPC   D2A38800  11.285   9.616   8.354
 2873POPC   C3A38801  11.056   9.529   7.968
 2873POPC   C4A38802  11.125   9.578   7.523
 2873POPC   C1B38803  11.396  10.069   8.651
 2873POPC   C2B38804  11.301  10.129   8.223
 2873POPC   C3B38805  11.279   9.956   7.817
 2873POPC   C4B38806  11.200  10.078   7.363
 2874POPC   NC338807  39.099  25.026   9.438
 2874POPC   PO438808  39.296  25.582   9.499
 2874POPC   GL138809  39.313  25.360   9.126
 2874POPC   GL238810  39.551  25.052   9.181
 2874POPC   C1A38811  39.177  25.469   8.730
 2874POPC   D2A38812  38.990  25.332   8.325
 2874POPC   C3A38813  39.255  25.242   8.000
 2874POPC   C4A38814  39.228  24.983   7.645
 2874POPC   C1B38815  39.345  24.967   8.793
 2874POPC   C2B38816  39.281  24.867   8.377
 2874POPC   C3B38817  39.545  24.797   8.025
 2874POPC   C4B38818  39.726  24.865   7.646
 2875POPC   NC338819   0.722  39.178   9.516
 2875POPC   PO438820   0.123  39.420   9.263
 2875POPC   GL138821   0.477  39.225   9.075
 2875POPC   GL238822   0.802  39.412   9.056
 2875POPC   C1A38823   0.424  38.928   8.754
 2875POPC   D2A38824   0.036  38.882   8.487
 2875POPC   C3A38825   0.046  39.221   8.190
 2875POPC   C4A38826   0.282  39.329   7.797
 2875POPC   C1B38827   0.678  39.367   8.611
 2875POPC   C2B38828   0.512  39.567   8.209
 2875POPC   C3B38829   0.768  39.522   7.811
 2875POPC   C4B38830   0.911  39.133   7.596
 2876POPC   NC338831  25.173  23.462   9.441
 2876POPC   PO438832  25.466  24.083   9.553
 2876POPC   GL138833  25.448  23.771   9.153
 2876POPC   GL238834  25.493  23.393   9.062
 2876POPC   C1A38835  25.396  23.938   8.716
 2876POPC   D2A38836  25.547  24.129   8.337
 2876POPC   C3A38837  25.315  24.019   8.008
 2876POPC   C4A38838  25.312  23.771   7.673
 2876POPC   C1B38839  25.128  23.501   8.797
 2876POPC   C2B38840  25.006  23.733   8.432
 2876POPC   C3B38841  24.959  23.473   8.067
 2876POPC   C4B38842  24.920  23.454   7.643
 2877POPC   NC338843   1.517  41.294   9.426
 2877POPC   PO438844   1.069  41.776   9.293
 2877POPC   GL138845   1.302  41.554   9.028
 2877POPC   GL238846   1.154  41.214   9.050
 2877POPC   C1A38847   1.126  41.558   8.623
 2877POPC   D2A38848   1.148  41.821   8.289
 2877POPC   C3A38849   1.061  41.639   7.914
 2877POPC   C4A38850   1.038  41.208   7.733
 2877POPC   C1B38851   1.442  41.173   8.706
 2877POPC   C2B38852   1.357  41.227   8.295
 2877POPC   C3B38853   1.481  41.325   7.918
 2877POPC   C4B38854   1.428  41.602   7.566
 2878POPC   NC338855  26.367  17.462   9.490
 2878POPC   PO438856  27.044  17.366   9.477
 2878POPC   GL138857  26.887  17.545   9.117
 2878POPC   GL238858  26.690  17.773   9.226
 2878POPC   C1A38859  26.813  17.366   8.720
 2878POPC   D2A38860  26.633  17.204   8.353
 2878POPC   C3A38861  26.797  17.351   8.007
 2878POPC   C4A38862  27.035  17.081   7.797
 2878POPC   C1B38863  26.642  17.873   8.781
 2878POPC   C2B38864  26.602  17.734   8.328
 2878POPC   C3B38865  26.627  17.830   7.855
 2878POPC   C4B38866  26.430  17.738   7.426
 2879POPC   NC338867  30.447  34.371   9.378
 2879POPC   PO438868  30.828  33.855   9.389
 2879POPC   GL138869  30.590  33.689   9.059
 2879POPC   GL238870  30.411  34.000   9.019
 2879POPC   C1A38871  30.497  33.711   8.606
 2879POPC   D2A38872  30.808  33.651   8.296
 2879POPC   C3A38873  30.689  33.501   7.864
 2879POPC   C4A38874  30.402  33.637   7.542
 2879POPC   C1B38875  30.793  34.095   8.767
 2879POPC   C2B38876  30.782  34.210   8.321
 2879POPC   C3B38877  30.792  34.417   7.902
 2879POPC   C4B38878  30.667  34.187   7.538
 2880POPC   NC338879  43.335  27.086   9.473
 2880POPC   PO438880  42.934  27.611   9.458
 2880POPC   GL138881  43.067  27.700   9.104
 2880POPC   GL238882  43.357  27.447   9.094
 2880POPC   C1A38883  43.046  27.573   8.709
 2880POPC   D2A38884  43.216  27.638   8.333
 2880POPC   C3A38885  42.911  27.707   7.997
 2880POPC   C4A38886  42.603  27.438   7.769
 2880POPC   C1B38887  43.486  27.320   8.677
 2880POPC   C2B38888  43.438  27.117   8.308
 2880POPC   C3B38889  43.340  27.351   7.946
 2880POPC   C4B38890  43.089  27.288   7.645
 2881POPC   NC338891   1.837   2.470   9.346
 2881POPC   PO438892   2.148   1.923   9.559
 2881POPC   GL138893   1.839   1.963   9.200
 2881POPC   GL238894   1.967   2.178   8.950
 2881POPC   C1A38895   1.668   1.761   8.821
 2881POPC   D2A38896   1.904   1.908   8.462
 2881POPC   C3A38897   1.689   1.990   8.073
 2881POPC   C4A38898   1.602   1.894   7.646
 2881POPC   C1B38899   2.209   2.367   8.620
 2881POPC   C2B38900   2.176   2.265   8.184
 2881POPC   C3B38901   2.046   2.209   7.741
 2881POPC   C4B38902   2.193   2.528   7.385
 2882POPC   NC338903  26.394  20.215   9.459
 2882POPC   PO438904  26.148  19.531   9.612
 2882POPC   GL138905  26.096  19.735   9.227
 2882POPC   GL238906  25.842  19.472   9.186
 2882POPC   C1A38907  26.214  19.965   8.828
 2882POPC   D2A38908  26.392  19.916   8.389
 2882POPC   C3A38909  26.268  20.239   8.081
 2882POPC   C4A38910  26.049  20.048   7.738
 2882POPC   C1B38911  25.819  19.632   8.795
 2882POPC   C2B38912  25.969  19.608   8.404
 2882POPC   C3B38913  25.801  19.640   8.011
 2882POPC   C4B38914  25.674  19.765   7.587
 2883POPC   NC338915  33.518  44.587   9.674
 2883POPC   PO438916  33.375   0.180   9.424
 2883POPC   GL138917  33.565  44.824   9.158
 2883POPC   GL238918  33.936  44.757   9.151
 2883POPC   C1A38919  33.613  44.663   8.714
 2883POPC   D2A38920  33.512  44.662   8.264
 2883POPC   C3A38921  33.692  44.484   7.913
 2883POPC   C4A38922  33.688  44.734   7.563
 2883POPC   C1B38923  34.144  44.740   8.731
 2883POPC   C2B38924  34.029  44.768   8.272
 2883POPC   C3B38925  34.144  44.745   7.809
 2883POPC   C4B38926  34.174  44.904   7.354
 2884POPC   NC338927  20.084  18.126   9.456
 2884POPC   PO438928  19.555  18.556   9.523
 2884POPC   GL138929  19.641  18.358   9.180
 2884POPC   GL238930  19.956  18.499   9.120
 2884POPC   C1A38931  19.511  18.208   8.786
 2884POPC   D2A38932  19.669  18.394   8.425
 2884POPC   C3A38933  19.641  18.188   8.054
 2884POPC   C4A38934  19.755  18.468   7.747
 2884POPC   C1B38935  20.014  18.203   8.808
 2884POPC   C2B38936  19.913  17.957   8.454
 2884POPC   C3B38937  20.001  17.833   8.016
 2884POPC   C4B38938  20.241  18.040   7.704
 2885POPC   NC338939   8.775  42.466   9.568
 2885POPC   PO438940   9.288  42.242   9.333
 2885POPC   GL138941   8.858  42.153   9.152
 2885POPC   GL238942   8.685  42.464   9.068
 2885POPC   C1A38943   8.649  42.098   8.738
 2885POPC   D2A38944   8.857  42.120   8.354
 2885POPC   C3A38945   8.800  42.355   7.965
 2885POPC   C4A38946   8.882  42.090   7.624
 2885POPC   C1B38947   9.066  42.412   8.747
 2885POPC   C2B38948   9.080  42.577   8.332
 2885POPC   C3B38949   9.278  42.506   7.927
 2885POPC   C4B38950   9.123  42.521   7.525
 2886POPC   NC338951  22.466   1.744   9.729
 2886POPC   PO438952  21.937   2.120   9.497
 2886POPC   GL138953  22.055   2.033   9.127
 2886POPC   GL238954  22.377   1.877   9.162
 2886POPC   C1A38955  21.851   2.137   8.738
 2886POPC   D2A38956  22.004   2.286   8.348
 2886POPC   C3A38957  21.910   2.170   7.938
 2886POPC   C4A38958  22.094   1.932   7.639
 2886POPC   C1B38959  22.375   2.230   8.794
 2886POPC   C2B38960  22.531   2.280   8.344
 2886POPC   C3B38961  22.454   2.179   7.880
 2886POPC   C4B38962  22.457   2.173   7.376
 2887POPC   NC338963  43.683   8.663   9.464
 2887POPC   PO438964  43.402   9.331   9.467
 2887POPC   GL138965  43.578   9.142   9.037
 2887POPC   GL238966  43.913   8.901   9.079
 2887POPC   C1A38967  43.641   8.874   8.660
 2887POPC   D2A38968  43.927   8.745   8.346
 2887POPC   C3A38969  43.843   8.992   7.965
 2887POPC   C4A38970  43.621   8.906   7.588
 2887POPC   C1B38971  44.021   9.248   8.785
 2887POPC   C2B38972  44.122   9.220   8.362
 2887POPC   C3B38973  44.279   9.337   7.981
 2887POPC   C4B38974  44.117   9.282   7.592
 2888POPC   NC338975   3.472  27.685   9.514
 2888POPC   PO438976   3.758  27.087   9.649
 2888POPC   GL138977   3.734  27.370   9.216
 2888POPC   GL238978   3.443  27.572   9.023
 2888POPC   C1A38979   3.770  27.284   8.767
 2888POPC   D2A38980   3.577  27.466   8.388
 2888POPC   C3A38981   3.556  27.264   7.959
 2888POPC   C4A38982   3.213  27.335   7.633
 2888POPC   C1B38983   3.786  27.796   8.777
 2888POPC   C2B38984   3.883  27.957   8.368
 2888POPC   C3B38985   3.774  27.974   7.924
 2888POPC   C4B38986   3.799  27.976   7.459
 2889POPC   NC338987  39.599  43.515   9.332
 2889POPC   PO438988  40.054  43.059   9.560
 2889POPC   GL138989  39.895  42.901   9.179
 2889POPC   GL238990  39.638  43.107   9.030
 2889POPC   C1A38991  40.040  42.934   8.748
 2889POPC   D2A38992  39.912  43.146   8.398
 2889POPC   C3A38993  39.962  42.973   8.014
 2889POPC   C4A38994  40.043  43.148   7.622
 2889POPC   C1B38995  39.614  43.437   8.699
 2889POPC   C2B38996  39.737  43.605   8.307
 2889POPC   C3B38997  39.727  43.422   7.920
 2889POPC   C4B38998  39.727  43.556   7.503
 2890POPC   NC338999  19.529  37.210   9.493
 2890POPC   PO439000  18.955  36.752   9.522
 2890POPC   GL139001  19.045  36.891   9.155
 2890POPC   GL239002  19.016  36.538   9.065
 2890POPC   C1A39003  18.942  37.048   8.771
 2890POPC   D2A39004  19.113  37.076   8.389
 2890POPC   C3A39005  19.034  37.339   8.034
 2890POPC   C4A39006  18.985  37.191   7.640
 2890POPC   C1B39007  19.124  36.591   8.673
 2890POPC   C2B39008  19.134  36.583   8.266
 2890POPC   C3B39009  19.195  36.527   7.884
 2890POPC   C4B39010  18.863  36.711   7.686
 2891POPC   NC339011  11.714  31.745   9.619
 2891POPC   PO439012  12.240  31.328   9.771
 2891POPC   GL139013  12.029  31.498   9.308
 2891POPC   GL239014  11.731  31.276   9.159
 2891POPC   C1A39015  12.225  31.724   8.936
 2891POPC   D2A39016  12.350  31.858   8.524
 2891POPC   C3A39017  12.236  31.579   8.184
 2891POPC   C4A39018  11.992  31.707   7.849
 2891POPC   C1B39019  11.776  31.504   8.784
 2891POPC   C2B39020  11.823  31.319   8.390
 2891POPC   C3B39021  11.772  31.254   7.983
 2891POPC   C4B39022  12.108  31.235   7.725
 2892POPC   NC339023  44.033  41.980   9.532
 2892POPC   PO439024  43.724  41.284   9.499
 2892POPC   GL139025  43.889  41.425   9.134
 2892POPC   GL239026  43.879  41.756   9.109
 2892POPC   C1A39027  43.719  41.451   8.723
 2892POPC   D2A39028  43.677  41.665   8.327
 2892POPC   C3A39029  43.957  41.569   8.020
 2892POPC   C4A39030  43.765  41.531   7.663
 2892POPC   C1B39031  43.914  41.924   8.700
 2892POPC   C2B39032  44.090  42.004   8.286
 2892POPC   C3B39033  43.862  42.023   7.876
 2892POPC   C4B39034  43.908  41.984   7.446
 2893POPC   NC339035  22.394  14.378   9.438
 2893POPC   PO439036  21.693  14.345   9.471
 2893POPC   GL139037  21.903  14.546   9.096
 2893POPC   GL239038  22.160  14.301   8.996
 2893POPC   C1A39039  21.930  14.636   8.619
 2893POPC   D2A39040  22.141  14.486   8.203
 2893POPC   C3A39041  21.962  14.631   7.800
 2893POPC   C4A39042  21.921  14.693   7.349
 2893POPC   C1B39043  22.424  14.467   8.666
 2893POPC   C2B39044  22.658  14.331   8.316
 2893POPC   C3B39045  22.593  14.079   7.962
 2893POPC   C4B39046  22.207  14.166   7.741
 2894POPC   NC339047  32.476  39.166   9.439
 2894POPC   PO439048  32.997  38.897   9.696
 2894POPC   GL139049  32.954  39.077   9.263
 2894POPC   GL239050  33.014  39.397   9.078
 2894POPC   C1A39051  32.881  38.951   8.832
 2894POPC   D2A39052  32.990  39.074   8.425
 2894POPC   C3A39053  32.827  39.305   8.068
 2894POPC   C4A39054  32.585  39.125   7.768
 2894POPC   C1B39055  32.921  39.559   8.668
 2894POPC   C2B39056  33.164  39.588   8.314
 2894POPC   C3B39057  33.345  39.224   8.118
 2894POPC   C4B39058  33.116  39.035   7.755
 2895POPC   NC339059  11.413  38.995   9.552
 2895POPC   PO439060  10.998  39.471   9.366
 2895POPC   GL139061  11.174  39.124   9.122
 2895POPC   GL239062  11.571  39.106   9.077
 2895POPC   C1A39063  11.059  39.100   8.716
 2895POPC   D2A39064  11.286  39.148   8.368
 2895POPC   C3A39065  11.024  39.253   8.057
 2895POPC   C4A39066  11.068  39.475   7.688
 2895POPC   C1B39067  11.446  39.453   8.824
 2895POPC   C2B39068  11.586  39.583   8.441
 2895POPC   C3B39069  11.438  39.555   8.051
 2895POPC   C4B39070  11.581  39.483   7.644
 2896POPC   NC339071   4.542   0.033   9.338
 2896POPC   PO439072   4.225  44.489   9.568
 2896POPC   GL139073   4.331  44.580   9.161
 2896POPC   GL239074   4.698  44.525   9.192
 2896POPC   C1A39075   4.244  44.786   8.743
 2896POPC   D2A39076   4.103  44.727   8.302
 2896POPC   C3A39077   4.170  44.990   7.939
 2896POPC   C4A39078   4.160  44.851   7.521
 2896POPC   C1B39079   4.572  44.388   8.753
 2896POPC   C2B39080   4.453  44.365   8.304
 2896POPC   C3B39081   4.313  44.483   7.860
 2896POPC   C4B39082   4.423  44.423   7.391
 2897POPC   NC339083  44.116   3.063   9.667
 2897POPC   PO439084  43.929   2.472   9.483
 2897POPC   GL139085  43.913   2.873   9.212
 2897POPC   GL239086  43.661   2.690   9.006
 2897POPC   C1A39087  43.843   3.094   8.778
 2897POPC   D2A39088  43.679   2.885   8.367
 2897POPC   C3A39089  43.829   2.989   7.922
 2897POPC   C4A39090  44.095   2.941   7.570
 2897POPC   C1B39091  44.105   2.603   8.815
 2897POPC   C2B39092  44.321   2.593   8.410
 2897POPC   C3B39093  44.144   2.583   7.973
 2897POPC   C4B39094  43.774   2.420   7.801
 2898POPC   NC339095  41.521  19.960   9.405
 2898POPC   PO439096  42.014  19.496   9.371
 2898POPC   GL139097  41.758  19.619   9.002
 2898POPC   GL239098  41.389  19.693   9.007
 2898POPC   C1A39099  41.685  19.974   8.711
 2898POPC   D2A39100  41.554  20.133   8.302
 2898POPC   C3A39101  41.774  19.917   7.992
 2898POPC   C4A39102  41.629  19.739   7.621
 2898POPC   C1B39103  41.143  19.933   8.713
 2898POPC   C2B39104  40.977  19.948   8.302
 2898POPC   C3B39105  41.247  19.879   7.946
 2898POPC   C4B39106  41.456  20.211   7.726
 2899POPC   NC339107   1.974   4.971   9.560
 2899POPC   PO439108   2.078   5.501   9.178
 2899POPC   GL139109   1.931   5.064   9.066
 2899POPC   GL239110   2.236   4.845   9.082
 2899POPC   C1A39111   1.720   4.914   8.672
 2899POPC   D2A39112   1.652   5.174   8.299
 2899POPC   C3A39113   1.810   5.050   7.893
 2899POPC   C4A39114   1.812   5.365   7.618
 2899POPC   C1B39115   2.221   5.049   8.663
 2899POPC   C2B39116   2.200   4.936   8.219
 2899POPC   C3B39117   2.327   4.916   7.773
 2899POPC   C4B39118   2.235   5.212   7.432
 2900POPC   NC339119  26.250  36.591   9.577
 2900POPC   PO439120  26.210  35.892   9.506
 2900POPC   GL139121  26.138  36.198   9.202
 2900POPC   GL239122  26.448  36.405   9.111
 2900POPC   C1A39123  25.852  36.084   8.868
 2900POPC   D2A39124  25.727  36.161   8.475
 2900POPC   C3A39125  25.688  36.027   8.072
 2900POPC   C4A39126  25.737  36.331   7.761
 2900POPC   C1B39127  26.321  36.257   8.706
 2900POPC   C2B39128  26.203  35.949   8.385
 2900POPC   C3B39129  26.168  35.989   7.943
 2900POPC   C4B39130  26.358  36.156   7.542
 2901POPC   NC339131  24.370  33.805   9.441
 2901POPC   PO439132  24.854  33.365   9.175
 2901POPC   GL139133  24.642  33.706   8.987
 2901POPC   GL239134  24.714  34.037   9.115
 2901POPC   C1A39135  24.263  33.726   8.735
 2901POPC   D2A39136  24.170  33.489   8.338
 2901POPC   C3A39137  24.556  33.479   8.115
 2901POPC   C4A39138  24.801  33.494   7.745
 2901POPC   C1B39139  24.618  34.129   8.676
 2901POPC   C2B39140  24.452  33.960   8.301
 2901POPC   C3B39141  24.401  33.943   7.841
 2901POPC   C4B39142  24.423  34.139   7.413
 2902POPC   NC339143  28.974   4.631   9.485
 2902POPC   PO439144  29.430   4.102   9.668
 2902POPC   GL139145  29.284   4.191   9.220
 2902POPC   GL239146  29.528   4.346   9.091
 2902POPC   C1A39147  29.125   4.437   8.793
 2902POPC   D2A39148  29.114   4.261   8.363
 2902POPC   C3A39149  28.895   4.396   7.980
 2902POPC   C4A39150  28.621   4.209   7.657
 2902POPC   C1B39151  29.529   4.171   8.674
 2902POPC   C2B39152  29.457   3.812   8.395
 2902POPC   C3B39153  29.255   3.920   8.011
 2902POPC   C4B39154  29.424   4.345   7.890
 2903POPC   NC339155  21.974  36.112   9.452
 2903POPC   PO439156  22.595  36.515   9.476
 2903POPC   GL139157  22.327  36.350   9.124
 2903POPC   GL239158  22.365  36.022   9.063
 2903POPC   C1A39159  21.930  36.260   8.812
 2903POPC   D2A39160  21.764  36.328   8.355
 2903POPC   C3A39161  21.949  36.416   7.927
 2903POPC   C4A39162  21.968  36.017   7.731
 2903POPC   C1B39163  22.388  36.185   8.624
 2903POPC   C2B39164  22.360  36.284   8.191
 2903POPC   C3B39165  22.472  36.099   7.788
 2903POPC   C4B39166  22.372  35.856   7.422
 2904POPC   NC339167  36.625  23.558   9.411
 2904POPC   PO439168  37.192  24.043   9.555
 2904POPC   GL139169  37.035  23.769   9.201
 2904POPC   GL239170  36.724  23.917   9.037
 2904POPC   C1A39171  36.920  23.494   8.821
 2904POPC   D2A39172  36.941  23.339   8.424
 2904POPC   C3A39173  37.068  23.605   8.097
 2904POPC   C4A39174  36.714  23.553   7.845
 2904POPC   C1B39175  37.105  23.963   8.733
 2904POPC   C2B39176  37.136  24.225   8.381
 2904POPC   C3B39177  36.918  24.088   8.026
 2904POPC   C4B39178  36.915  23.969   7.607
 2905POPC   NC339179  40.737  28.906   9.607
 2905POPC   PO439180  41.264  29.267   9.554
 2905POPC   GL139181  40.972  29.224   9.217
 2905POPC   GL239182  40.847  28.906   9.113
 2905POPC   C1A39183  40.734  29.330   8.848
 2905POPC   D2A39184  40.779  29.144   8.441
 2905POPC   C3A39185  40.780  29.379   8.060
 2905POPC   C4A39186  40.745  29.195   7.663
 2905POPC   C1B39187  40.517  28.846   8.821
 2905POPC   C2B39188  40.336  28.893   8.424
 2905POPC   C3B39189  40.581  28.872   8.023
 2905POPC   C4B39190  40.468  28.759   7.588
 2906POPC   NC339191  11.765  16.578   9.440
 2906POPC   PO439192  12.049  17.119   9.489
 2906POPC   GL139193  12.061  16.893   9.111
 2906POPC   GL239194  12.232  16.590   9.148
 2906POPC   C1A39195  11.841  16.628   8.772
 2906POPC   D2A39196  11.647  16.528   8.352
 2906POPC   C3A39197  11.928  16.570   8.001
 2906POPC   C4A39198  12.124  16.680   7.593
 2906POPC   C1B39199  12.356  16.718   8.719
 2906POPC   C2B39200  12.343  16.690   8.263
 2906POPC   C3B39201  12.470  16.912   7.878
 2906POPC   C4B39202  12.547  16.901   7.412
 2907POPC   NC339203  21.376  24.273   9.615
 2907POPC   PO439204  21.811  24.765   9.572
 2907POPC   GL139205  21.519  24.667   9.244
 2907POPC   GL239206  21.558  24.333   9.133
 2907POPC   C1A39207  21.331  24.700   8.822
 2907POPC   D2A39208  21.292  24.537   8.399
 2907POPC   C3A39209  21.132  24.731   8.034
 2907POPC   C4A39210  21.343  24.574   7.665
 2907POPC   C1B39211  21.361  24.168   8.763
 2907POPC   C2B39212  21.104  24.067   8.430
 2907POPC   C3B39213  21.121  24.208   8.011
 2907POPC   C4B39214  20.939  23.991   7.693
 2908POPC   NC339215  28.578  28.893   9.253
 2908POPC   PO439216  28.467  29.535   9.482
 2908POPC   GL139217  28.491  29.351   9.071
 2908POPC   GL239218  28.730  29.548   8.996
 2908POPC   C1A39219  28.574  29.164   8.643
 2908POPC   D2A39220  28.311  29.223   8.259
 2908POPC   C3A39221  28.277  28.960   7.865
 2908POPC   C4A39222  28.123  28.994   7.419
 2908POPC   C1B39223  28.953  29.543   8.637
 2908POPC   C2B39224  28.817  29.427   8.260
 2908POPC   C3B39225  28.650  29.320   7.903
 2908POPC   C4B39226  28.303  29.427   7.664
 2909POPC   NC339227   3.582  20.341   9.552
 2909POPC   PO439228   3.420  19.694   9.326
 2909POPC   GL139229   3.514  19.999   9.040
 2909POPC   GL239230   3.846  20.047   9.176
 2909POPC   C1A39231   3.418  19.925   8.576
 2909POPC   D2A39232   3.261  20.159   8.222
 2909POPC   C3A39233   3.477  20.168   7.848
 2909POPC   C4A39234   3.652  20.100   7.447
 2909POPC   C1B39235   3.908  20.006   8.700
 2909POPC   C2B39236   3.808  19.985   8.220
 2909POPC   C3B39237   3.787  19.755   7.799
 2909POPC   C4B39238   4.105  19.458   7.662
 2910POPC   NC339239  24.560  40.868  10.195
 2910POPC   PO439240  24.177  40.928   9.608
 2910POPC   GL139241  24.452  40.735   9.211
 2910POPC   GL239242  24.693  40.409   9.192
 2910POPC   C1A39243  24.658  40.775   8.808
 2910POPC   D2A39244  24.557  40.988   8.439
 2910POPC   C3A39245  24.662  40.787   8.052
 2910POPC   C4A39246  24.284  40.767   7.763
 2910POPC   C1B39247  24.816  40.271   8.771
 2910POPC   C2B39248  24.918  40.469   8.397
 2910POPC   C3B39249  24.932  40.357   7.946
 2910POPC   C4B39250  24.712  40.488   7.574
 2911POPC   NC339251   2.247   2.352   9.716
 2911POPC   PO439252   1.750   2.840   9.597
 2911POPC   GL139253   1.910   2.913   9.144
 2911POPC   GL239254   1.642   3.017   9.045
 2911POPC   C1A39255   2.107   3.007   8.740
 2911POPC   D2A39256   2.042   2.778   8.344
 2911POPC   C3A39257   2.236   2.722   7.944
 2911POPC   C4A39258   2.195   3.023   7.626
 2911POPC   C1B39259   1.739   2.648   8.748
 2911POPC   C2B39260   1.726   2.382   8.414
 2911POPC   C3B39261   1.750   2.501   8.006
 2911POPC   C4B39262   1.803   2.682   7.657
 2912POPC   NC339263   4.386   9.968   9.456
 2912POPC   PO439264   4.497   9.266   9.516
 2912POPC   GL139265   4.298   9.493   9.148
 2912POPC   GL239266   4.229   9.853   9.005
 2912POPC   C1A39267   4.183   9.451   8.729
 2912POPC   D2A39268   4.121   9.751   8.454
 2912POPC   C3A39269   4.274   9.508   8.124
 2912POPC   C4A39270   4.138   9.505   7.744
 2912POPC   C1B39271   4.512  10.119   8.793
 2912POPC   C2B39272   4.485  10.200   8.361
 2912POPC   C3B39273   4.293   9.986   8.025
 2912POPC   C4B39274   4.477   9.881   7.642
 2913POPC   NC339275  28.628   0.586   9.186
 2913POPC   PO439276  29.294   0.623   9.438
 2913POPC   GL139277  29.184   0.742   9.082
 2913POPC   GL239278  29.064   0.403   9.001
 2913POPC   C1A39279  29.338   0.733   8.683
 2913POPC   D2A39280  29.090   0.582   8.357
 2913POPC   C3A39281  29.151   0.765   7.944
 2913POPC   C4A39282  29.315   0.723   7.528
 2913POPC   C1B39283  29.245   0.119   8.712
 2913POPC   C2B39284  29.299   0.136   8.265
 2913POPC   C3B39285  29.012   0.288   7.934
 2913POPC   C4B39286  28.715   0.119   7.692
 2914POPC   NC339287  22.912  36.309   9.737
 2914POPC   PO439288  23.252  35.761   9.487
 2914POPC   GL139289  23.166  36.115   9.218
 2914POPC   GL239290  22.842  36.173   9.208
 2914POPC   C1A39291  23.236  36.311   8.835
 2914POPC   D2A39292  23.241  36.101   8.445
 2914POPC   C3A39293  23.280  36.254   8.058
 2914POPC   C4A39294  23.157  36.230   7.648
 2914POPC   C1B39295  22.831  36.029   8.786
 2914POPC   C2B39296  22.748  35.907   8.375
 2914POPC   C3B39297  22.919  35.892   7.955
 2914POPC   C4B39298  22.869  35.848   7.465
 2915POPC   NC339299  39.949   7.197   9.552
 2915POPC   PO439300  40.022   7.857   9.424
 2915POPC   GL139301  39.875   7.537   9.109
 2915POPC   GL239302  40.019   7.206   9.069
 2915POPC   C1A39303  40.023   7.450   8.654
 2915POPC   D2A39304  40.340   7.338   8.395
 2915POPC   C3A39305  40.256   7.645   8.119
 2915POPC   C4A39306  39.992   7.636   7.776
 2915POPC   C1B39307  39.852   6.946   8.803
 2915POPC   C2B39308  39.945   6.994   8.373
 2915POPC   C3B39309  39.695   7.181   8.066
 2915POPC   C4B39310  39.446   6.957   7.783
 2916POPC   NC339311  41.751  29.143   9.755
 2916POPC   PO439312  42.412  29.069   9.524
 2916POPC   GL139313  42.479  29.045   9.148
 2916POPC   GL239314  42.720  29.274   9.117
 2916POPC   C1A39315  42.316  29.088   8.752
 2916POPC   D2A39316  42.171  28.796   8.421
 2916POPC   C3A39317  42.282  28.960   8.022
 2916POPC   C4A39318  42.151  29.132   7.661
 2916POPC   C1B39319  42.777  29.373   8.732
 2916POPC   C2B39320  42.524  29.485   8.393
 2916POPC   C3B39321  42.653  29.364   8.006
 2916POPC   C4B39322  42.681  29.146   7.633
 2917POPC   NC339323  18.727  36.366   9.679
 2917POPC   PO439324  18.418  35.868   9.504
 2917POPC   GL139325  18.207  36.029   9.132
 2917POPC   GL239326  18.287  36.383   9.258
 2917POPC   C1A39327  17.966  36.012   8.690
 2917POPC   D2A39328  17.996  35.923   8.231
 2917POPC   C3A39329  18.316  36.077   7.925
 2917POPC   C4A39330  18.448  36.059   7.451
 2917POPC   C1B39331  18.158  36.454   8.837
 2917POPC   C2B39332  18.300  36.324   8.424
 2917POPC   C3B39333  18.305  36.605   8.089
 2917POPC   C4B39334  18.413  36.511   7.686
 2918POPC   NC339335   0.156  22.260   9.511
 2918POPC   PO439336   0.659  21.757   9.391
 2918POPC   GL139337   0.405  22.010   9.101
 2918POPC   GL239338   0.349  22.364   9.063
 2918POPC   C1A39339   0.461  22.082   8.647
 2918POPC   D2A39340   0.354  21.812   8.305
 2918POPC   C3A39341   0.517  22.008   7.933
 2918POPC   C4A39342   0.570  22.437   7.790
 2918POPC   C1B39343   0.035  22.469   8.786
 2918POPC   C2B39344   0.065  22.597   8.394
 2918POPC   C3B39345   0.142  22.415   8.054
 2918POPC   C4B39346   0.089  22.501   7.646
 2919POPC   NC339347  18.393  10.174   9.445
 2919POPC   PO439348  18.407  10.795   9.555
 2919POPC   GL139349  18.356  10.633   9.177
 2919POPC   GL239350  18.009  10.664   9.163
 2919POPC   C1A39351  18.484  10.520   8.753
 2919POPC   D2A39352  18.298  10.555   8.350
 2919POPC   C3A39353  18.436  10.387   7.944
 2919POPC   C4A39354  18.566  10.072   7.616
 2919POPC   C1B39355  17.775  10.903   8.853
 2919POPC   C2B39356  17.874  10.856   8.422
 2919POPC   C3B39357  17.696  10.809   8.014
 2919POPC   C4B39358  17.779  10.695   7.575
 2920POPC   NC339359   2.820   4.809   9.554
 2920POPC   PO439360   2.315   5.277   9.649
 2920POPC   GL139361   2.596   5.209   9.248
 2920POPC   GL239362   2.852   4.941   9.084
 2920POPC   C1A39363   2.698   5.298   8.797
 2920POPC   D2A39364   2.664   5.008   8.450
 2920POPC   C3A39365   2.670   5.163   8.085
 2920POPC   C4A39366   2.676   5.343   7.714
 2920POPC   C1B39367   3.082   4.906   8.688
 2920POPC   C2B39368   3.097   4.883   8.214
 2920POPC   C3B39369   2.977   4.909   7.749
 2920POPC   C4B39370   3.103   4.810   7.275
 2921POPC   NC339371  29.704  16.789   9.716
 2921POPC   PO439372  29.091  16.931   9.729
 2921POPC   GL139373  29.010  16.872   9.268
 2921POPC   GL239374  28.977  17.177   9.080
 2921POPC   C1A39375  29.261  16.766   8.888
 2921POPC   D2A39376  29.359  16.932   8.447
 2921POPC   C3A39377  29.276  16.630   8.089
 2921POPC   C4A39378  29.252  16.681   7.634
 2921POPC   C1B39379  28.858  16.996   8.694
 2921POPC   C2B39380  28.867  16.876   8.287
 2921POPC   C3B39381  28.985  17.022   7.909
 2921POPC   C4B39382  28.745  16.940   7.567
 2922POPC   NC339383  32.600  40.881   9.300
 2922POPC   PO439384  33.210  40.915   9.619
 2922POPC   GL139385  33.084  40.978   9.211
 2922POPC   GL239386  33.012  40.614   9.191
 2922POPC   C1A39387  33.108  41.186   8.803
 2922POPC   D2A39388  33.031  40.927   8.432
 2922POPC   C3A39389  32.920  41.066   8.022
 2922POPC   C4A39390  33.086  40.937   7.652
 2922POPC   C1B39391  32.898  40.569   8.785
 2922POPC   C2B39392  33.117  40.395   8.453
 2922POPC   C3B39393  33.065  40.539   8.073
 2922POPC   C4B39394  33.045  40.437   7.699
 2923POPC   NC339395   8.901  27.206   9.498
 2923POPC   PO439396   9.360  27.653   9.781
 2923POPC   GL139397   9.117  27.781   9.345
 2923POPC   GL239398   8.887  27.520   9.110
 2923POPC   C1A39399   9.048  27.933   8.869
 2923POPC   D2A39400   8.860  27.628   8.568
 2923POPC   C3A39401   8.819  27.617   8.116
 2923POPC   C4A39402   8.802  27.655   7.674
 2923POPC   C1B39403   8.606  27.253   8.808
 2923POPC   C2B39404   8.636  27.193   8.340
 2923POPC   C3B39405   8.741  27.183   7.864
 2923POPC   C4B39406   8.693  27.224   7.402
 2924POPC   NC339407   7.376  25.450   9.526
 2924POPC   PO439408   7.557  24.806   9.631
 2924POPC   GL139409   7.454  25.056   9.208
 2924POPC   GL239410   7.283  24.943   8.932
 2924POPC   C1A39411   7.428  25.377   8.772
 2924POPC   D2A39412   7.434  25.117   8.361
 2924POPC   C3A39413   7.242  25.222   7.939
 2924POPC   C4A39414   7.208  25.570   7.591
 2924POPC   C1B39415   7.748  24.970   8.766
 2924POPC   C2B39416   7.953  25.156   8.381
 2924POPC   C3B39417   7.774  25.202   7.973
 2924POPC   C4B39418   7.637  25.282   7.550
 2925POPC   NC339419   2.017   8.658   9.457
 2925POPC   PO439420   1.947   9.376   9.367
 2925POPC   GL139421   2.063   9.174   9.000
 2925POPC   GL239422   2.226   8.881   9.079
 2925POPC   C1A39423   1.915   8.828   8.680
 2925POPC   D2A39424   1.889   8.765   8.234
 2925POPC   C3A39425   1.875   9.155   8.026
 2925POPC   C4A39426   1.975   9.206   7.611
 2925POPC   C1B39427   2.426   8.944   8.743
 2925POPC   C2B39428   2.274   9.140   8.365
 2925POPC   C3B39429   2.390   9.039   7.938
 2925POPC   C4B39430   2.293   8.850   7.519
 2926POPC   NC339431  19.121  25.290   9.964
 2926POPC   PO439432  18.576  25.063   9.651
 2926POPC   GL139433  18.951  25.126   9.318
 2926POPC   GL239434  19.157  25.432   9.184
 2926POPC   C1A39435  19.145  24.976   8.913
 2926POPC   D2A39436  19.025  25.191   8.507
 2926POPC   C3A39437  19.158  25.064   8.103
 2926POPC   C4A39438  18.994  25.229   7.740
 2926POPC   C1B39439  19.413  25.387   8.773
 2926POPC   C2B39440  19.501  25.415   8.314
 2926POPC   C3B39441  19.400  25.535   7.874
 2926POPC   C4B39442  19.430  25.506   7.400
 2927POPC   NC339443  19.382   9.234   9.558
 2927POPC   PO439444  18.788   8.873   9.543
 2927POPC   GL139445  18.989   8.904   9.164
 2927POPC   GL239446  19.367   8.831   9.221
 2927POPC   C1A39447  18.985   8.664   8.762
 2927POPC   D2A39448  18.853   8.652   8.317
 2927POPC   C3A39449  18.958   8.942   7.979
 2927POPC   C4A39450  18.913   9.243   7.620
 2927POPC   C1B39451  19.335   9.033   8.828
 2927POPC   C2B39452  19.349   8.840   8.440
 2927POPC   C3B39453  19.370   8.650   8.064
 2927POPC   C4B39454  19.378   8.834   7.715
 2928POPC   NC339455  43.641  26.601   9.487
 2928POPC   PO439456  42.917  26.624   9.618
 2928POPC   GL139457  43.147  26.700   9.196
 2928POPC   GL239458  43.424  26.463   9.066
 2928POPC   C1A39459  43.097  27.009   8.799
 2928POPC   D2A39460  42.916  27.209   8.396
 2928POPC   C3A39461  42.932  26.996   8.025
 2928POPC   C4A39462  42.854  26.751   7.671
 2928POPC   C1B39463  43.156  26.477   8.747
 2928POPC   C2B39464  43.134  26.687   8.385
 2928POPC   C3B39465  43.096  26.492   8.028
 2928POPC   C4B39466  42.896  26.173   7.802
 2929POPC   NC339467  23.908  14.600   9.472
 2929POPC   PO439468  23.493  15.131   9.511
 2929POPC   GL139469  23.620  14.940   9.163
 2929POPC   GL239470  23.612  15.297   9.033
 2929POPC   C1A39471  23.699  14.917   8.733
 2929POPC   D2A39472  23.757  15.202   8.405
 2929POPC   C3A39473  23.624  15.005   8.044
 2929POPC   C4A39474  23.557  15.014   7.643
 2929POPC   C1B39475  23.362  15.437   8.715
 2929POPC   C2B39476  23.373  15.530   8.311
 2929POPC   C3B39477  23.537  15.499   7.926
 2929POPC   C4B39478  23.295  15.472   7.605
 2930POPC   NC339479  37.163  11.450   9.620
 2930POPC   PO439480  36.816  10.888   9.490
 2930POPC   GL139481  36.722  11.178   9.188
 2930POPC   GL239482  37.066  11.232   9.165
 2930POPC   C1A39483  36.764  11.261   8.756
 2930POPC   D2A39484  36.887  11.502   8.446
 2930POPC   C3A39485  36.796  11.346   8.033
 2930POPC   C4A39486  36.967  11.493   7.645
 2930POPC   C1B39487  37.264  11.379   8.797
 2930POPC   C2B39488  37.404  11.558   8.412
 2930POPC   C3B39489  37.330  11.417   7.998
 2930POPC   C4B39490  37.295  11.063   7.707
 2931POPC   NC339491   2.213  28.723   9.460
 2931POPC   PO439492   2.062  28.109   9.573
 2931POPC   GL139493   1.829  28.137   9.159
 2931POPC   GL239494   2.054  28.418   9.093
 2931POPC   C1A39495   1.736  28.343   8.736
 2931POPC   D2A39496   2.035  28.503   8.436
 2931POPC   C3A39497   1.889  28.253   8.115
 2931POPC   C4A39498   1.880  28.101   7.689
 2931POPC   C1B39499   2.403  28.597   8.793
 2931POPC   C2B39500   2.585  28.527   8.380
 2931POPC   C3B39501   2.368  28.363   8.052
 2931POPC   C4B39502   2.149  28.528   7.707
 2932POPC   NC339503   9.912  23.137   9.673
 2932POPC   PO439504   9.355  22.810   9.551
 2932POPC   GL139505   9.651  23.005   9.261
 2932POPC   GL239506  10.007  22.820   9.245
 2932POPC   C1A39507   9.884  23.201   8.918
 2932POPC   D2A39508   9.997  23.314   8.463
 2932POPC   C3A39509   9.772  23.119   8.100
 2932POPC   C4A39510   9.952  22.944   7.711
 2932POPC   C1B39511   9.715  22.696   8.877
 2932POPC   C2B39512   9.469  22.687   8.472
 2932POPC   C3B39513   9.598  22.574   8.053
 2932POPC   C4B39514   9.479  22.767   7.675
 2933POPC   NC339515  26.449  24.531   9.352
 2933POPC   PO439516  27.169  24.391   9.500
 2933POPC   GL139517  26.908  24.354   9.154
 2933POPC   GL239518  26.889  24.685   9.022
 2933POPC   C1A39519  26.745  24.277   8.734
 2933POPC   D2A39520  26.463  24.376   8.363
 2933POPC   C3A39521  26.588  24.225   7.947
 2933POPC   C4A39522  26.797  24.313   7.555
 2933POPC   C1B39523  26.591  24.802   8.698
 2933POPC   C2B39524  26.612  24.895   8.264
 2933POPC   C3B39525  26.556  24.725   7.864
 2933POPC   C4B39526  26.309  24.899   7.546
 2934POPC   NC339527  42.568  41.270   9.507
 2934POPC   PO439528  41.948  41.632   9.477
 2934POPC   GL139529  42.319  41.813   9.262
 2934POPC   GL239530  42.489  41.519   9.082
 2934POPC   C1A39531  42.346  41.912   8.822
 2934POPC   D2A39532  42.394  41.550   8.557
 2934POPC   C3A39533  42.331  41.642   8.125
 2934POPC   C4A39534  42.203  41.350   7.843
 2934POPC   C1B39535  42.754  41.243   8.835
 2934POPC   C2B39536  42.902  41.155   8.410
 2934POPC   C3B39537  42.781  41.257   7.973
 2934POPC   C4B39538  42.594  41.188   7.560
 2935POPC   NC339539  15.345   0.951   9.555
 2935POPC   PO439540  14.933   1.424   9.510
 2935POPC   GL139541  15.208   1.265   9.158
 2935POPC   GL239542  15.548   1.214   9.166
 2935POPC   C1A39543  15.387   1.428   8.745
 2935POPC   D2A39544  15.164   1.309   8.379
 2935POPC   C3A39545  15.384   1.366   7.995
 2935POPC   C4A39546  15.114   1.273   7.677
 2935POPC   C1B39547  15.387   0.929   8.805
 2935POPC   C2B39548  15.289   0.733   8.415
 2935POPC   C3B39549  15.226   0.886   8.001
 2935POPC   C4B39550  15.440   0.915   7.562
 2936POPC   NC339551  42.733  42.134   9.439
 2936POPC   PO439552  42.179  42.445   9.602
 2936POPC   GL139553  42.173  42.312   9.179
 2936POPC   GL239554  42.493  42.348   9.072
 2936POPC   C1A39555  42.113  42.354   8.723
 2936POPC   D2A39556  42.184  42.117   8.353
 2936POPC   C3A39557  42.000  42.334   7.984
 2936POPC   C4A39558  41.834  42.289   7.570
 2936POPC   C1B39559  42.702  42.283   8.710
 2936POPC   C2B39560  42.647  42.376   8.298
 2936POPC   C3B39561  42.489  42.123   7.951
 2936POPC   C4B39562  42.566  42.186   7.515
 2937POPC   NC339563   5.563  32.738   9.448
 2937POPC   PO439564   4.986  33.153   9.500
 2937POPC   GL139565   4.998  33.107   9.074
 2937POPC   GL239566   5.353  33.053   9.090
 2937POPC   C1A39567   5.103  33.202   8.647
 2937POPC   D2A39568   4.936  33.206   8.238
 2937POPC   C3A39569   5.172  33.064   7.897
 2937POPC   C4A39570   4.932  32.732   7.714
 2937POPC   C1B39571   5.248  32.705   8.785
 2937POPC   C2B39572   5.262  32.795   8.335
 2937POPC   C3B39573   5.401  32.618   7.927
 2937POPC   C4B39574   5.423  32.757   7.493
 2938POPC   NC339575  26.584  39.012   9.553
 2938POPC   PO439576  26.831  39.708   9.689
 2938POPC   GL139577  26.878  39.363   9.340
 2938POPC   GL239578  27.203  39.321   9.291
 2938POPC   C1A39579  26.720  39.188   8.910
 2938POPC   D2A39580  26.614  38.922   8.505
 2938POPC   C3A39581  26.513  39.146   8.100
 2938POPC   C4A39582  26.552  39.414   7.707
 2938POPC   C1B39583  27.202  39.332   8.841
 2938POPC   C2B39584  26.945  39.350   8.464
 2938POPC   C3B39585  26.938  39.451   8.046
 2938POPC   C4B39586  27.172  39.350   7.706
 2939POPC   NC339587  25.955  15.524   9.381
 2939POPC   PO439588  25.669  16.123   9.492
 2939POPC   GL139589  26.074  16.092   9.192
 2939POPC   GL239590  26.160  15.779   8.991
 2939POPC   C1A39591  26.354  16.220   8.813
 2939POPC   D2A39592  26.449  16.048   8.393
 2939POPC   C3A39593  26.135  16.059   8.083
 2939POPC   C4A39594  25.747  16.102   7.883
 2939POPC   C1B39595  26.217  15.515   8.634
 2939POPC   C2B39596  26.232  15.558   8.232
 2939POPC   C3B39597  26.031  15.614   7.849
 2939POPC   C4B39598  26.173  15.563   7.442
 2940POPC   NC339599  41.828  26.743   9.573
 2940POPC   PO439600  41.309  27.124   9.390
 2940POPC   GL139601  41.537  26.919   9.075
 2940POPC   GL239602  41.734  26.609   9.099
 2940POPC   C1A39603  41.523  26.780   8.665
 2940POPC   D2A39604  41.235  26.581   8.403
 2940POPC   C3A39605  41.422  26.641   8.033
 2940POPC   C4A39606  41.590  26.867   7.699
 2940POPC   C1B39607  41.951  26.458   8.743
 2940POPC   C2B39608  41.830  26.518   8.344
 2940POPC   C3B39609  41.971  26.781   8.061
 2940POPC   C4B39610  42.037  26.636   7.690
 2941POPC   NC339611  30.906  36.403   9.497
 2941POPC   PO439612  30.700  35.795   9.405
 2941POPC   GL139613  30.981  36.009   9.165
 2941POPC   GL239614  30.700  36.194   9.062
 2941POPC   C1A39615  31.126  35.964   8.753
 2941POPC   D2A39616  30.919  36.038   8.351
 2941POPC   C3A39617  30.903  35.838   7.949
 2941POPC   C4A39618  30.677  35.840   7.549
 2941POPC   C1B39619  30.864  36.391   8.725
 2941POPC   C2B39620  30.760  36.527   8.315
 2941POPC   C3B39621  30.604  36.292   7.993
 2941POPC   C4B39622  30.679  36.345   7.600
 2942POPC   NC339623  14.756  17.407   9.475
 2942POPC   PO439624  14.335  17.866   9.473
 2942POPC   GL139625  14.369  17.575   9.120
 2942POPC   GL239626  14.656  17.418   8.953
 2942POPC   C1A39627  14.188  17.550   8.699
 2942POPC   D2A39628  14.352  17.545   8.283
 2942POPC   C3A39629  14.120  17.676   7.935
 2942POPC   C4A39630  14.176  17.834   7.493
 2942POPC   C1B39631  14.760  17.022   8.747
 2942POPC   C2B39632  14.805  16.867   8.327
 2942POPC   C3B39633  14.532  17.100   8.072
 2942POPC   C4B39634  14.524  17.405   7.797
 2943POPC   NC339635  43.485  41.693   9.443
 2943POPC   PO439636  42.804  41.675   9.477
 2943POPC   GL139637  43.054  41.558   9.180
 2943POPC   GL239638  43.140  41.918   9.100
 2943POPC   C1A39639  43.224  41.438   8.793
 2943POPC   D2A39640  43.157  41.604   8.393
 2943POPC   C3A39641  43.312  41.467   8.012
 2943POPC   C4A39642  43.390  41.830   7.799
 2943POPC   C1B39643  42.835  41.781   8.780
 2943POPC   C2B39644  42.719  41.879   8.371
 2943POPC   C3B39645  42.881  41.783   7.975
 2943POPC   C4B39646  42.599  41.681   7.680
 2944POPC   NC339647  25.546   6.078   9.512
 2944POPC   PO439648  25.319   5.432   9.659
 2944POPC   GL139649  25.309   5.718   9.244
 2944POPC   GL239650  25.155   5.585   8.984
 2944POPC   C1A39651  25.533   5.958   8.873
 2944POPC   D2A39652  25.648   6.020   8.416
 2944POPC   C3A39653  25.303   5.969   8.107
 2944POPC   C4A39654  25.212   5.998   7.673
 2944POPC   C1B39655  25.185   5.681   8.553
 2944POPC   C2B39656  25.316   5.460   8.188
 2944POPC   C3B39657  25.618   5.608   7.895
 2944POPC   C4B39658  25.402   5.543   7.541
 2945POPC   NC339659  20.247   1.365   9.726
 2945POPC   PO439660  19.714   0.993   9.681
 2945POPC   GL139661  19.869   1.240   9.293
 2945POPC   GL239662  20.211   1.225   9.220
 2945POPC   C1A39663  19.688   1.304   8.862
 2945POPC   D2A39664  19.901   1.254   8.460
 2945POPC   C3A39665  19.691   1.187   8.071
 2945POPC   C4A39666  19.738   1.316   7.685
 2945POPC   C1B39667  20.349   1.438   8.845
 2945POPC   C2B39668  20.421   1.325   8.427
 2945POPC   C3B39669  20.204   1.258   8.024
 2945POPC   C4B39670  20.238   1.216   7.595
 2946POPC   NC339671   6.334  33.357   9.303
 2946POPC   PO439672   6.812  32.872   9.520
 2946POPC   GL139673   6.778  32.823   9.103
 2946POPC   GL239674   6.399  32.850   9.118
 2946POPC   C1A39675   6.997  32.827   8.707
 2946POPC   D2A39676   6.960  33.111   8.315
 2946POPC   C3A39677   6.892  32.915   7.905
 2946POPC   C4A39678   6.697  32.692   7.539
 2946POPC   C1B39679   6.490  33.046   8.680
 2946POPC   C2B39680   6.398  33.065   8.213
 2946POPC   C3B39681   6.554  33.293   7.853
 2946POPC   C4B39682   6.913  33.552   7.778
 2947POPC   NC339683  44.454  31.846   9.440
 2947POPC   PO439684  44.468  31.200   9.335
 2947POPC   GL139685  44.586  31.320   8.972
 2947POPC   GL239686  44.458  31.629   8.981
 2947POPC   C1A39687  44.604  31.338   8.521
 2947POPC   D2A39688  44.898  31.437   8.230
 2947POPC   C3A39689  44.852  31.288   7.833
 2947POPC   C4A39690  44.649  31.457   7.519
 2947POPC   C1B39691  44.562  31.845   8.614
 2947POPC   C2B39692  44.572  31.833   8.173
 2947POPC   C3B39693  44.841  31.820   7.816
 2947POPC   C4B39694  44.754  31.924   7.357
 2948POPC   NC339695  11.117  15.555   9.389
 2948POPC   PO439696  11.518  16.171   9.474
 2948POPC   GL139697  11.307  15.987   9.167
 2948POPC   GL239698  11.562  15.749   9.068
 2948POPC   C1A39699  11.165  15.787   8.783
 2948POPC   D2A39700  11.308  15.731   8.416
 2948POPC   C3A39701  11.103  15.932   8.061
 2948POPC   C4A39702  11.218  15.792   7.681
 2948POPC   C1B39703  11.875  15.718   8.750
 2948POPC   C2B39704  11.844  15.508   8.345
 2948POPC   C3B39705  11.588  15.654   8.009
 2948POPC   C4B39706  11.707  15.780   7.593
 2949POPC   NC339707   2.458  38.287   9.683
 2949POPC   PO439708   3.062  38.187   9.612
 2949POPC   GL139709   2.762  38.278   9.271
 2949POPC   GL239710   2.659  38.615   9.254
 2949POPC   C1A39711   2.802  38.306   8.827
 2949POPC   D2A39712   3.000  38.154   8.468
 2949POPC   C3A39713   3.080  38.430   8.176
 2949POPC   C4A39714   2.859  38.523   7.825
 2949POPC   C1B39715   2.450  38.675   8.841
 2949POPC   C2B39716   2.523  38.505   8.418
 2949POPC   C3B39717   2.426  38.738   8.030
 2949POPC   C4B39718   2.654  39.019   7.777
 2950POPC   NC339719  15.571  35.083   9.585
 2950POPC   PO439720  16.011  35.514   9.626
 2950POPC   GL139721  15.963  35.307   9.278
 2950POPC   GL239722  15.750  35.544   9.145
 2950POPC   C1A39723  16.098  35.291   8.865
 2950POPC   D2A39724  15.879  35.483   8.536
 2950POPC   C3A39725  16.001  35.315   8.155
 2950POPC   C4A39726  16.074  35.090   7.802
 2950POPC   C1B39727  15.700  35.860   8.838
 2950POPC   C2B39728  15.699  36.025   8.439
 2950POPC   C3B39729  15.766  35.767   8.119
 2950POPC   C4B39730  15.780  35.537   7.728
 2951POPC   NC339731  33.472  27.948   9.480
 2951POPC   PO439732  32.937  27.706   9.765
 2951POPC   GL139733  33.035  27.751   9.299
 2951POPC   GL239734  33.129  27.426   9.195
 2951POPC   C1A39735  33.008  27.802   8.813
 2951POPC   D2A39736  32.801  27.672   8.386
 2951POPC   C3A39737  32.922  27.800   7.943
 2951POPC   C4A39738  33.218  27.719   7.569
 2951POPC   C1B39739  33.058  27.219   8.786
 2951POPC   C2B39740  33.113  27.213   8.325
 2951POPC   C3B39741  33.080  27.306   7.856
 2951POPC   C4B39742  33.006  27.276   7.388
 2952POPC   NC339743  33.282   8.924   9.340
 2952POPC   PO439744  32.690   8.572   9.341
 2952POPC   GL139745  32.862   8.855   9.056
 2952POPC   GL239746  32.828   9.156   9.192
 2952POPC   C1A39747  33.153   8.975   8.722
 2952POPC   D2A39748  32.980   8.894   8.361
 2952POPC   C3A39749  33.267   8.933   8.036
 2952POPC   C4A39750  32.998   8.871   7.686
 2952POPC   C1B39751  32.830   9.355   8.804
 2952POPC   C2B39752  33.027   9.464   8.420
 2952POPC   C3B39753  32.885   9.280   8.043
 2952POPC   C4B39754  32.826   9.343   7.651
 2953POPC   NC339755  42.764  40.401   9.272
 2953POPC   PO439756  42.209  40.668   9.501
 2953POPC   GL139757  42.249  40.984   9.152
 2953POPC   GL239758  42.551  40.806   9.042
 2953POPC   C1A39759  42.287  41.054   8.677
 2953POPC   D2A39760  42.499  40.810   8.335
 2953POPC   C3A39761  42.383  40.851   7.880
 2953POPC   C4A39762  42.550  40.700   7.453
 2953POPC   C1B39763  42.179  40.580   8.821
 2953POPC   C2B39764  41.993  40.623   8.408
 2953POPC   C3B39765  41.951  40.459   7.980
 2953POPC   C4B39766  42.060  40.528   7.543
 2954POPC   NC339767  10.931   4.465   9.458
 2954POPC   PO439768  11.505   4.242   9.408
 2954POPC   GL139769  11.231   4.304   9.082
 2954POPC   GL239770  10.975   4.044   9.147
 2954POPC   C1A39771  11.259   4.422   8.658
 2954POPC   D2A39772  11.184   4.355   8.226
 2954POPC   C3A39773  11.453   4.518   7.927
 2954POPC   C4A39774  11.328   4.551   7.481
 2954POPC   C1B39775  11.084   3.953   8.759
 2954POPC   C2B39776  11.076   3.851   8.386
 2954POPC   C3B39777  10.933   3.945   8.031
 2954POPC   C4B39778  11.110   4.172   7.733
 2955POPC   NC339779  21.995  21.823   9.634
 2955POPC   PO439780  22.537  21.259   9.444
 2955POPC   GL139781  22.492  21.596   9.143
 2955POPC   GL239782  22.155  21.498   9.124
 2955POPC   C1A39783  22.347  21.657   8.674
 2955POPC   D2A39784  21.966  21.613   8.385
 2955POPC   C3A39785  22.135  21.473   7.999
 2955POPC   C4A39786  22.504  21.501   7.774
 2955POPC   C1B39787  21.907  21.297   8.785
 2955POPC   C2B39788  21.897  21.109   8.354
 2955POPC   C3B39789  21.685  21.236   8.005
 2955POPC   C4B39790  21.748  21.580   7.686
 2956POPC   NC339791  38.297  41.618   9.709
 2956POPC   PO439792  38.561  41.148   9.278
 2956POPC   GL139793  38.675  41.351   8.989
 2956POPC   GL239794  38.545  41.656   9.115
 2956POPC   C1A39795  38.647  41.178   8.616
 2956POPC   D2A39796  38.353  41.274   8.335
 2956POPC   C3A39797  38.444  41.155   7.956
 2956POPC   C4A39798  38.395  41.296   7.608
 2956POPC   C1B39799  38.403  41.657   8.678
 2956POPC   C2B39800  38.570  41.731   8.267
 2956POPC   C3B39801  38.479  41.762   7.812
 2956POPC   C4B39802  38.589  42.034   7.442
 2957POPC   NC339803  38.000   5.729   9.600
 2957POPC   PO439804  37.371   5.680   9.244
 2957POPC   GL139805  37.769   5.907   9.172
 2957POPC   GL239806  38.058   5.714   9.099
 2957POPC   C1A39807  37.884   6.070   8.789
 2957POPC   D2A39808  37.698   5.910   8.411
 2957POPC   C3A39809  37.806   6.103   8.006
 2957POPC   C4A39810  37.719   5.914   7.608
 2957POPC   C1B39811  38.203   5.597   8.723
 2957POPC   C2B39812  38.021   5.507   8.368
 2957POPC   C3B39813  38.016   5.630   7.964
 2957POPC   C4B39814  38.053   5.484   7.552
 2958POPC   NC339815  34.919  26.572   9.577
 2958POPC   PO439816  34.260  26.784   9.509
 2958POPC   GL139817  34.530  26.635   9.172
 2958POPC   GL239818  34.841  26.790   9.085
 2958POPC   C1A39819  34.544  26.528   8.732
 2958POPC   D2A39820  34.773  26.515   8.343
 2958POPC   C3A39821  34.651  26.661   7.907
 2958POPC   C4A39822  34.562  26.655   7.428
 2958POPC   C1B39823  34.986  26.931   8.646
 2958POPC   C2B39824  34.945  26.975   8.196
 2958POPC   C3B39825  34.879  27.117   7.787
 2958POPC   C4B39826  34.898  27.075   7.316
 2959POPC   NC339827  28.531  27.495   9.382
 2959POPC   PO439828  28.099  27.766   9.754
 2959POPC   GL139829  28.083  27.656   9.262
 2959POPC   GL239830  28.103  27.314   9.157
 2959POPC   C1A39831  27.976  27.698   8.822
 2959POPC   D2A39832  28.024  27.728   8.371
 2959POPC   C3A39833  28.220  27.605   7.975
 2959POPC   C4A39834  28.092  27.739   7.538
 2959POPC   C1B39835  28.357  27.376   8.766
 2959POPC   C2B39836  28.565  27.224   8.410
 2959POPC   C3B39837  28.655  27.275   7.983
 2959POPC   C4B39838  28.587  27.535   7.627
 2960POPC   NC339839  28.065   1.575   9.500
 2960POPC   PO439840  28.478   0.947   9.431
 2960POPC   GL139841  28.202   0.942   9.094
 2960POPC   GL239842  28.124   1.275   9.098
 2960POPC   C1A39843  28.358   1.071   8.699
 2960POPC   D2A39844  28.526   1.406   8.504
 2960POPC   C3A39845  28.394   1.283   8.109
 2960POPC   C4A39846  28.507   1.352   7.684
 2960POPC   C1B39847  28.057   1.539   8.736
 2960POPC   C2B39848  28.154   1.703   8.316
 2960POPC   C3B39849  28.046   1.845   7.926
 2960POPC   C4B39850  28.205   1.748   7.576
 2961POPC   NC339851  31.538   5.299   9.469
 2961POPC   PO439852  31.145   4.694   9.447
 2961POPC   GL139853  31.414   4.882   9.155
 2961POPC   GL239854  31.759   4.902   9.191
 2961POPC   C1A39855  31.496   5.134   8.783
 2961POPC   D2A39856  31.469   5.270   8.336
 2961POPC   C3A39857  31.165   5.169   8.027
 2961POPC   C4A39858  31.149   4.772   7.795
 2961POPC   C1B39859  32.030   4.876   8.846
 2961POPC   C2B39860  31.958   5.051   8.447
 2961POPC   C3B39861  31.889   5.191   8.038
 2961POPC   C4B39862  31.608   5.203   7.692
 2962POPC   NC339863  13.165  37.375   9.655
 2962POPC   PO439864  12.600  37.611   9.409
 2962POPC   GL139865  12.869  37.540   9.065
 2962POPC   GL239866  13.098  37.769   9.185
 2962POPC   C1A39867  12.822  37.538   8.611
 2962POPC   D2A39868  12.908  37.432   8.177
 2962POPC   C3A39869  12.655  37.606   7.849
 2962POPC   C4A39870  12.578  38.038   7.888
 2962POPC   C1B39871  13.243  37.838   8.751
 2962POPC   C2B39872  13.124  37.893   8.310
 2962POPC   C3B39873  13.155  37.798   7.859
 2962POPC   C4B39874  13.056  37.510   7.527
 2963POPC   NC339875  40.432  18.055   9.386
 2963POPC   PO439876  39.730  18.090   9.507
 2963POPC   GL139877  39.729  17.937   9.101
 2963POPC   GL239878  40.029  18.118   9.084
 2963POPC   C1A39879  39.682  18.147   8.691
 2963POPC   D2A39880  39.824  18.555   8.462
 2963POPC   C3A39881  39.782  18.463   8.019
 2963POPC   C4A39882  39.734  18.118   7.754
 2963POPC   C1B39883  40.176  18.269   8.709
 2963POPC   C2B39884  40.499  18.400   8.436
 2963POPC   C3B39885  40.348  18.555   8.071
 2963POPC   C4B39886  40.199  18.428   7.697
 2964POPC   NC339887   2.065  17.717   9.349
 2964POPC   PO439888   1.870  17.152   9.578
 2964POPC   GL139889   1.836  17.270   9.164
 2964POPC   GL239890   2.205  17.289   9.063
 2964POPC   C1A39891   1.841  17.474   8.755
 2964POPC   D2A39892   2.119  17.244   8.490
 2964POPC   C3A39893   2.045  17.240   8.081
 2964POPC   C4A39894   1.826  17.240   7.715
 2964POPC   C1B39895   2.333  17.628   8.742
 2964POPC   C2B39896   2.145  17.736   8.329
 2964POPC   C3B39897   2.271  17.635   7.877
 2964POPC   C4B39898   2.437  17.805   7.484
 2965POPC   NC339899  20.844  29.184   9.564
 2965POPC   PO439900  20.398  29.015   9.249
 2965POPC   GL139901  20.735  29.286   9.067
 2965POPC   GL239902  20.855  29.587   9.239
 2965POPC   C1A39903  20.753  29.296   8.631
 2965POPC   D2A39904  20.711  28.972   8.344
 2965POPC   C3A39905  20.478  29.083   7.979
 2965POPC   C4A39906  20.729  28.907   7.715
 2965POPC   C1B39907  20.843  29.790   8.825
 2965POPC   C2B39908  20.682  29.746   8.388
 2965POPC   C3B39909  20.799  29.458   8.053
 2965POPC   C4B39910  20.775  29.410   7.593
 2966POPC   NC339911   0.147  40.019   9.473
 2966POPC   PO439912   0.444  39.525   9.672
 2966POPC   GL139913   0.457  39.768   9.156
 2966POPC   GL239914   0.346  40.105   9.026
 2966POPC   C1A39915   0.359  39.742   8.688
 2966POPC   D2A39916   0.214  40.099   8.404
 2966POPC   C3A39917   0.338  40.051   7.973
 2966POPC   C4A39918   0.411  39.840   7.592
 2966POPC   C1B39919   0.637  40.156   8.692
 2966POPC   C2B39920   0.826  40.109   8.314
 2966POPC   C3B39921   0.799  40.303   7.928
 2966POPC   C4B39922   0.757  40.247   7.498
 2967POPC   NC339923  20.471  32.952   9.536
 2967POPC   PO439924  21.085  32.760   9.363
 2967POPC   GL139925  20.782  33.062   9.122
 2967POPC   GL239926  20.409  33.201   9.102
 2967POPC   C1A39927  20.766  33.093   8.676
 2967POPC   D2A39928  20.985  32.963   8.303
 2967POPC   C3A39929  20.735  32.895   7.954
 2967POPC   C4A39930  20.538  33.207   7.728
 2967POPC   C1B39931  20.273  32.840   8.866
 2967POPC   C2B39932  20.342  32.796   8.409
 2967POPC   C3B39933  20.196  32.908   7.984
 2967POPC   C4B39934  20.090  32.622   7.665
 2968POPC   NC339935  11.699  12.712   9.577
 2968POPC   PO439936  11.221  13.114   9.417
 2968POPC   GL139937  11.403  12.996   9.094
 2968POPC   GL239938  11.449  12.674   9.109
 2968POPC   C1A39939  11.296  12.947   8.672
 2968POPC   D2A39940  11.108  13.085   8.331
 2968POPC   C3A39941  11.275  12.949   7.968
 2968POPC   C4A39942  11.165  12.612   7.825
 2968POPC   C1B39943  11.568  12.501   8.725
 2968POPC   C2B39944  11.399  12.513   8.301
 2968POPC   C3B39945  11.671  12.570   7.930
 2968POPC   C4B39946  11.555  12.561   7.479
 2969POPC   NC339947  29.261  19.058   9.522
 2969POPC   PO439948  28.651  19.334   9.659
 2969POPC   GL139949  29.039  19.363   9.192
 2969POPC   GL239950  29.428  19.263   9.098
 2969POPC   C1A39951  29.068  19.229   8.733
 2969POPC   D2A39952  28.978  18.918   8.411
 2969POPC   C3A39953  28.959  19.129   8.007
 2969POPC   C4A39954  28.865  18.968   7.632
 2969POPC   C1B39955  29.436  18.902   8.819
 2969POPC   C2B39956  29.475  18.863   8.374
 2969POPC   C3B39957  29.469  19.038   7.978
 2969POPC   C4B39958  29.634  18.972   7.561
 2970POPC   NC339959  24.099  19.442   9.281
 2970POPC   PO439960  23.485  19.490   9.401
 2970POPC   GL139961  23.592  19.238   9.064
 2970POPC   GL239962  23.854  18.996   9.119
 2970POPC   C1A39963  23.788  19.253   8.666
 2970POPC   D2A39964  24.018  19.181   8.305
 2970POPC   C3A39965  23.913  19.401   7.955
 2970POPC   C4A39966  23.691  19.319   7.592
 2970POPC   C1B39967  24.116  18.861   8.746
 2970POPC   C2B39968  24.312  18.776   8.330
 2970POPC   C3B39969  24.063  18.826   7.938
 2970POPC   C4B39970  24.074  18.970   7.494
 2971POPC   NC339971  34.134  16.013   9.498
 2971POPC   PO439972  33.564  16.377   9.589
 2971POPC   GL139973  33.679  16.127   9.250
 2971POPC   GL239974  33.721  15.791   9.234
 2971POPC   C1A39975  33.736  16.097   8.825
 2971POPC   D2A39976  34.125  16.111   8.591
 2971POPC   C3A39977  34.086  16.151   8.140
 2971POPC   C4A39978  33.758  16.075   7.843
 2971POPC   C1B39979  33.540  15.564   8.889
 2971POPC   C2B39980  33.632  15.726   8.494
 2971POPC   C3B39981  33.607  15.664   8.095
 2971POPC   C4B39982  33.765  15.438   7.774
 2972POPC   NC339983   6.226  39.418   9.489
 2972POPC   PO439984   6.871  39.187   9.491
 2972POPC   GL139985   6.546  39.146   9.204
 2972POPC   GL239986   6.814  39.283   8.992
 2972POPC   C1A39987   6.527  38.917   8.837
 2972POPC   D2A39988   6.641  39.140   8.476
 2972POPC   C3A39989   6.458  39.067   8.083
 2972POPC   C4A39990   6.659  39.084   7.691
 2972POPC   C1B39991   6.983  39.513   8.666
 2972POPC   C2B39992   6.754  39.747   8.368
 2972POPC   C3B39993   6.669  39.540   7.989
 2972POPC   C4B39994   6.906  39.522   7.618
 2973POPC   NC339995   0.757  30.575   9.408
 2973POPC   PO439996   1.420  30.642   9.346
 2973POPC   GL139997   1.141  30.771   9.046
 2973POPC   GL239998   1.030  30.461   8.987
 2973POPC   C1A39999   1.192  30.810   8.594
 2973POPC   D2A40000   1.471  30.819   8.230
 2973POPC   C3A40001   1.345  31.160   7.937
 2973POPC   C4A40002   1.225  31.121   7.474
 2973POPC   C1B40003   1.276  30.309   8.633
 2973POPC   C2B40004   1.186  30.400   8.201
 2973POPC   C3B40005   1.037  30.705   7.879
 2973POPC   C4B40006   0.799  30.754   7.478
 2974POPC   NC340007  26.505   8.312   9.540
 2974POPC   PO440008  25.908   8.019   9.523
 2974POPC   GL140009  26.087   8.145   9.112
 2974POPC   GL240010  26.274   8.426   9.088
 2974POPC   C1A40011  26.069   8.204   8.664
 2974POPC   D2A40012  26.003   7.987   8.255
 2974POPC   C3A40013  26.012   8.218   7.841
 2974POPC   C4A40014  26.301   8.167   7.461
 2974POPC   C1B40015  26.425   8.567   8.668
 2974POPC   C2B40016  26.263   8.455   8.249
 2974POPC   C3B40017  26.470   8.489   7.830
 2974POPC   C4B40018  26.578   8.616   7.395
 2975POPC   NC340019  37.132   3.507   9.318
 2975POPC   PO440020  36.525   3.335   9.569
 2975POPC   GL140021  36.566   3.346   9.144
 2975POPC   GL240022  36.685   3.671   9.102
 2975POPC   C1A40023  36.781   3.323   8.740
 2975POPC   D2A40024  37.104   3.275   8.404
 2975POPC   C3A40025  37.003   3.416   7.979
 2975POPC   C4A40026  36.637   3.349   7.683
 2975POPC   C1B40027  36.914   3.818   8.736
 2975POPC   C2B40028  36.725   3.918   8.345
 2975POPC   C3B40029  36.886   3.909   7.958
 2975POPC   C4B40030  37.287   3.878   7.833
 2976POPC   NC340031  28.024  44.790   9.466
 2976POPC   PO440032  28.612  44.459   9.600
 2976POPC   GL140033  28.547  44.656   9.201
 2976POPC   GL240034  28.273  44.452   9.181
 2976POPC   C1A40035  28.286  44.759   8.787
 2976POPC   D2A40036  28.083  44.857   8.364
 2976POPC   C3A40037  28.300  44.958   7.944
 2976POPC   C4A40038  28.319  44.861   7.468
 2976POPC   C1B40039  28.134  44.282   8.786
 2976POPC   C2B40040  28.007  44.339   8.390
 2976POPC   C3B40041  28.283  44.472   8.088
 2976POPC   C4B40042  28.190  44.414   7.674
 2977POPC   NC340043  31.274   6.994   9.892
 2977POPC   PO440044  31.669   7.479   9.557
 2977POPC   GL140045  31.578   7.389   9.164
 2977POPC   GL240046  31.246   7.531   9.178
 2977POPC   C1A40047  31.804   7.381   8.761
 2977POPC   D2A40048  31.902   7.699   8.473
 2977POPC   C3A40049  31.675   7.622   8.085
 2977POPC   C4A40050  31.834   7.552   7.692
 2977POPC   C1B40051  31.294   7.349   8.756
 2977POPC   C2B40052  31.469   7.219   8.356
 2977POPC   C3B40053  31.363   7.197   7.907
 2977POPC   C4B40054  31.184   7.125   7.455
 2978POPC   NC340055  35.773  20.438   9.347
 2978POPC   PO440056  35.206  20.808   9.458
 2978POPC   GL140057  35.283  20.518   9.161
 2978POPC   GL240058  35.515  20.741   9.035
 2978POPC   C1A40059  35.139  20.517   8.743
 2978POPC   D2A40060  35.046  20.721   8.393
 2978POPC   C3A40061  35.052  20.470   8.054
 2978POPC   C4A40062  34.933  20.613   7.663
 2978POPC   C1B40063  35.659  20.597   8.638
 2978POPC   C2B40064  35.507  20.394   8.276
 2978POPC   C3B40065  35.505  20.521   7.823
 2978POPC   C4B40066  35.595  20.539   7.368
 2979POPC   NC340067  19.371  11.720   9.463
 2979POPC   PO440068  19.284  11.077   9.722
 2979POPC   GL140069  19.144  11.052   9.267
 2979POPC   GL240070  18.945  11.345   9.220
 2979POPC   C1A40071  19.257  10.909   8.838
 2979POPC   D2A40072  19.359  11.108   8.468
 2979POPC   C3A40073  19.096  11.236   8.139
 2979POPC   C4A40074  19.351  11.480   7.797
 2979POPC   C1B40075  18.957  11.341   8.756
 2979POPC   C2B40076  18.829  11.601   8.391
 2979POPC   C3B40077  18.881  11.652   7.934
 2979POPC   C4B40078  18.710  11.549   7.529
 2980POPC   NC340079  26.007  37.444   9.463
 2980POPC   PO440080  26.208  38.068   9.525
 2980POPC   GL140081  26.055  37.848   9.141
 2980POPC   GL240082  25.721  37.674   9.077
 2980POPC   C1A40083  26.126  37.535   8.803
 2980POPC   D2A40084  25.892  37.548   8.432
 2980POPC   C3A40085  26.143  37.477   8.095
 2980POPC   C4A40086  26.357  37.604   7.726
 2980POPC   C1B40087  25.768  37.979   8.724
 2980POPC   C2B40088  25.599  37.990   8.303
 2980POPC   C3B40089  25.788  37.845   7.942
 2980POPC   C4B40090  25.783  37.457   7.717
 2981POPC   NC340091  44.781   3.353   9.699
 2981POPC   PO440092  44.240   3.739   9.714
 2981POPC   GL140093  44.544   3.689   9.343
 2981POPC   GL240094  44.717   3.355   9.173
 2981POPC   C1A40095  44.537   3.724   8.887
 2981POPC   D2A40096  44.745   3.574   8.486
 2981POPC   C3A40097  44.539   3.604   8.068
 2981POPC   C4A40098  44.285   3.338   7.823
 2981POPC   C1B40099   0.059   3.274   8.790
 2981POPC   C2B40100   0.224   3.194   8.372
 2981POPC   C3B40101  44.912   3.276   8.054
 2981POPC   C4B40102  44.753   3.328   7.596
 2982POPC   NC340103  22.326  17.685   9.568
 2982POPC   PO440104  21.959  17.077   9.502
 2982POPC   GL140105  22.137  17.413   9.160
 2982POPC   GL240106  22.351  17.737   9.075
 2982POPC   C1A40107  22.389  17.341   8.771
 2982POPC   D2A40108  22.344  17.036   8.471
 2982POPC   C3A40109  22.429  17.135   8.080
 2982POPC   C4A40110  22.177  17.247   7.778
 2982POPC   C1B40111  22.198  17.833   8.647
 2982POPC   C2B40112  22.358  17.601   8.303
 2982POPC   C3B40113  22.519  17.623   7.899
 2982POPC   C4B40114  22.206  17.697   7.567
 2983POPC   NC340115  20.819  16.692   9.331
 2983POPC   PO440116  20.165  16.664   9.548
 2983POPC   GL140117  20.297  16.651   9.043
 2983POPC   GL240118  20.603  16.429   8.959
 2983POPC   C1A40119  20.427  16.755   8.598
 2983POPC   D2A40120  20.701  16.745   8.208
 2983POPC   C3A40121  20.482  16.607   7.840
 2983POPC   C4A40122  20.133  16.900   7.787
 2983POPC   C1B40123  20.924  16.678   8.679
 2983POPC   C2B40124  21.145  16.501   8.293
 2983POPC   C3B40125  20.997  16.498   7.855
 2983POPC   C4B40126  20.823  16.435   7.437
 2984POPC   NC340127  18.475  20.150   9.503
 2984POPC   PO440128  17.906  20.137   9.476
 2984POPC   GL140129  18.203  20.168   9.069
 2984POPC   GL240130  18.480  20.436   9.068
 2984POPC   C1A40131  18.412  20.179   8.629
 2984POPC   D2A40132  18.439  20.528   8.321
 2984POPC   C3A40133  18.439  20.524   7.882
 2984POPC   C4A40134  18.340  20.841   7.572
 2984POPC   C1B40135  18.769  20.552   8.714
 2984POPC   C2B40136  18.877  20.806   8.326
 2984POPC   C3B40137  18.693  20.966   7.959
 2984POPC   C4B40138  18.804  21.070   7.558
 2985POPC   NC340139  43.726  28.733   9.571
 2985POPC   PO440140  43.706  28.097   9.747
 2985POPC   GL140141  43.553  28.247   9.333
 2985POPC   GL240142  43.528  27.915   9.225
 2985POPC   C1A40143  43.634  28.357   8.870
 2985POPC   D2A40144  43.925  28.446   8.490
 2985POPC   C3A40145  43.911  28.413   8.007
 2985POPC   C4A40146  44.221  28.590   7.696
 2985POPC   C1B40147  43.410  27.913   8.789
 2985POPC   C2B40148  43.609  27.942   8.396
 2985POPC   C3B40149  43.377  28.004   8.007
 2985POPC   C4B40150  43.599  28.143   7.672
 2986POPC   NC340151  22.405  15.205   9.372
 2986POPC   PO440152  21.726  15.295   9.490
 2986POPC   GL140153  21.940  15.227   9.126
 2986POPC   GL240154  22.066  15.562   9.117
 2986POPC   C1A40155  22.172  15.100   8.759
 2986POPC   D2A40156  22.337  14.907   8.411
 2986POPC   C3A40157  22.148  15.039   8.049
 2986POPC   C4A40158  22.194  15.063   7.616
 2986POPC   C1B40159  22.214  15.602   8.702
 2986POPC   C2B40160  22.114  15.500   8.264
 2986POPC   C3B40161  22.168  15.544   7.805
 2986POPC   C4B40162  22.325  15.507   7.363
 2987POPC   NC340163  18.237  38.913   9.571
 2987POPC   PO440164  18.260  39.604   9.659
 2987POPC   GL140165  18.321  39.325   9.236
 2987POPC   GL240166  18.049  39.137   9.072
 2987POPC   C1A40167  18.441  39.211   8.774
 2987POPC   D2A40168  18.285  39.182   8.328
 2987POPC   C3A40169  18.454  39.361   7.930
 2987POPC   C4A40170  18.421  39.569   7.494
 2987POPC   C1B40171  18.009  38.864   8.698
 2987POPC   C2B40172  18.096  38.721   8.253
 2987POPC   C3B40173  18.011  39.027   7.874
 2987POPC   C4B40174  17.780  38.945   7.445
 2988POPC   NC340175  41.968   1.760   9.830
 2988POPC   PO440176  41.545   2.238   9.628
 2988POPC   GL140177  41.524   2.286   9.180
 2988POPC   GL240178  41.744   2.014   9.105
 2988POPC   C1A40179  41.405   2.138   8.766
 2988POPC   D2A40180  41.220   1.844   8.527
 2988POPC   C3A40181  41.268   2.045   8.167
 2988POPC   C4A40182  41.502   2.171   7.824
 2988POPC   C1B40183  41.742   1.762   8.722
 2988POPC   C2B40184  41.664   1.702   8.270
 2988POPC   C3B40185  41.906   1.832   7.891
 2988POPC   C4B40186  42.020   1.570   7.541
 2989POPC   NC340187   0.365  14.031   9.481
 2989POPC   PO440188   0.748  13.433   9.589
 2989POPC   GL140189   0.717  13.717   9.203
 2989POPC   GL240190   0.365  13.727   9.062
 2989POPC   C1A40191   0.751  13.656   8.748
 2989POPC   D2A40192   0.683  13.688   8.313
 2989POPC   C3A40193   0.426  13.411   8.071
 2989POPC   C4A40194   0.592  13.568   7.704
 2989POPC   C1B40195   0.236  13.802   8.619
 2989POPC   C2B40196   0.015  13.710   8.219
 2989POPC   C3B40197   0.125  13.794   7.792
 2989POPC   C4B40198   0.192  13.744   7.364
 2990POPC   NC340199   0.980   4.943   9.453
 2990POPC   PO440200   1.425   5.438   9.604
 2990POPC   GL140201   1.471   5.317   9.151
 2990POPC   GL240202   1.417   4.957   9.081
 2990POPC   C1A40203   1.324   5.300   8.695
 2990POPC   D2A40204   1.093   5.218   8.299
 2990POPC   C3A40205   1.298   4.956   7.991
 2990POPC   C4A40206   1.387   5.071   7.568
 2990POPC   C1B40207   1.096   4.836   8.780
 2990POPC   C2B40208   0.950   4.722   8.372
 2990POPC   C3B40209   0.794   4.917   7.973
 2990POPC   C4B40210   0.906   4.911   7.537
 2991POPC   NC340211   9.580  39.513   9.410
 2991POPC   PO440212   9.688  40.196   9.562
 2991POPC   GL140213   9.652  40.178   9.104
 2991POPC   GL240214   9.887  40.354   8.880
 2991POPC   C1A40215   9.671  39.889   8.765
 2991POPC   D2A40216   9.664  39.722   8.371
 2991POPC   C3A40217   9.555  39.885   7.959
 2991POPC   C4A40218   9.747  39.882   7.562
 2991POPC   C1B40219   9.574  40.389   8.640
 2991POPC   C2B40220   9.692  40.386   8.237
 2991POPC   C3B40221   9.918  40.242   7.902
 2991POPC   C4B40222   9.867  40.383   7.501
 2992POPC   NC340223  36.382  31.021   9.393
 2992POPC   PO440224  35.902  30.514   9.375
 2992POPC   GL140225  36.058  30.711   9.028
 2992POPC   GL240226  36.409  30.695   9.001
 2992POPC   C1A40227  36.081  30.562   8.605
 2992POPC   D2A40228  36.272  30.657   8.234
 2992POPC   C3A40229  36.015  30.754   7.917
 2992POPC   C4A40230  35.764  30.569   7.678
 2992POPC   C1B40231  36.349  31.000   8.654
 2992POPC   C2B40232  36.608  31.068   8.289
 2992POPC   C3B40233  36.375  31.104   7.913
 2992POPC   C4B40234  36.283  30.928   7.501
 2993POPC   NC340235  22.074  33.420   9.473
 2993POPC   PO440236  22.070  34.112   9.513
 2993POPC   GL140237  22.178  34.025   9.078
 2993POPC   GL240238  22.547  33.932   8.925
 2993POPC   C1A40239  21.820  33.935   8.781
 2993POPC   D2A40240  21.679  33.745   8.403
 2993POPC   C3A40241  21.918  33.904   8.097
 2993POPC   C4A40242  21.880  33.820   7.632
 2993POPC   C1B40243  22.256  33.663   8.693
 2993POPC   C2B40244  22.096  33.431   8.349
 2993POPC   C3B40245  22.209  33.533   7.935
 2993POPC   C4B40246  22.369  33.572   7.541
 2994POPC   NC340247  11.418  11.793   9.431
 2994POPC   PO440248  11.331  12.429   9.542
 2994POPC   GL140249  11.108  12.304   9.184
 2994POPC   GL240250  11.352  12.132   9.027
 2994POPC   C1A40251  11.053  12.492   8.773
 2994POPC   D2A40252  10.873  12.514   8.338
 2994POPC   C3A40253  11.015  12.174   8.059
 2994POPC   C4A40254  11.380  12.165   7.790
 2994POPC   C1B40255  11.212  12.038   8.603
 2994POPC   C2B40256  11.474  12.007   8.265
 2994POPC   C3B40257  11.554  11.724   7.956
 2994POPC   C4B40258  11.460  11.719   7.526
 2995POPC   NC340259   2.741  15.601   9.264
 2995POPC   PO440260   2.909  14.940   9.456
 2995POPC   GL140261   2.869  15.097   9.110
 2995POPC   GL240262   2.543  15.139   9.111
 2995POPC   C1A40263   2.834  15.024   8.678
 2995POPC   D2A40264   2.663  15.144   8.325
 2995POPC   C3A40265   2.838  15.326   7.983
 2995POPC   C4A40266   3.116  15.120   7.711
 2995POPC   C1B40267   2.398  15.341   8.737
 2995POPC   C2B40268   2.182  15.257   8.382
 2995POPC   C3B40269   2.309  15.188   7.959
 2995POPC   C4B40270   2.321  15.505   7.732
 2996POPC   NC340271  19.665  21.448   9.551
 2996POPC   PO440272  20.320  21.070   9.481
 2996POPC   GL140273  20.069  21.361   9.208
 2996POPC   GL240274  19.737  21.310   9.078
 2996POPC   C1A40275  20.003  21.651   8.830
 2996POPC   D2A40276  19.732  21.509   8.494
 2996POPC   C3A40277  19.839  21.616   8.074
 2996POPC   C4A40278  19.729  21.500   7.688
 2996POPC   C1B40279  19.654  21.033   8.749
 2996POPC   C2B40280  19.458  21.069   8.330
 2996POPC   C3B40281  19.518  21.072   7.884
 2996POPC   C4B40282  19.265  21.305   7.585
 2997POPC   NC340283  25.404  18.248   9.553
 2997POPC   PO440284  24.808  18.328   9.462
 2997POPC   GL140285  25.106  18.147   9.148
 2997POPC   GL240286  25.297  18.469   9.088
 2997POPC   C1A40287  25.498  18.058   8.873
 2997POPC   D2A40288  25.635  18.017   8.419
 2997POPC   C3A40289  25.374  18.016   8.049
 2997POPC   C4A40290  25.393  18.033   7.597
 2997POPC   C1B40291  25.330  18.482   8.625
 2997POPC   C2B40292  25.139  18.455   8.208
 2997POPC   C3B40293  25.116  18.420   7.786
 2997POPC   C4B40294  25.207  18.495   7.346
 2998POPC   NC340295  35.692   1.927   9.499
 2998POPC   PO440296  35.119   2.218   9.454
 2998POPC   GL140297  35.318   2.042   9.103
 2998POPC   GL240298  35.642   2.203   9.067
 2998POPC   C1A40299  35.100   2.084   8.710
 2998POPC   D2A40300  34.847   2.163   8.362
 2998POPC   C3A40301  35.091   2.245   8.016
 2998POPC   C4A40302  34.962   2.498   7.707
 2998POPC   C1B40303  35.602   2.182   8.642
 2998POPC   C2B40304  35.403   1.899   8.344
 2998POPC   C3B40305  35.496   1.640   8.004
 2998POPC   C4B40306  35.594   1.794   7.547
 2999POPC   NC340307   7.647  12.737   9.623
 2999POPC   PO440308   7.053  12.939   9.502
 2999POPC   GL140309   7.314  13.017   9.123
 2999POPC   GL240310   7.649  12.949   9.157
 2999POPC   C1A40311   7.401  13.145   8.708
 2999POPC   D2A40312   7.509  12.902   8.313
 2999POPC   C3A40313   7.559  13.137   7.927
 2999POPC   C4A40314   7.333  12.999   7.595
 2999POPC   C1B40315   7.599  12.688   8.799
 2999POPC   C2B40316   7.837  12.514   8.503
 2999POPC   C3B40317   7.730  12.385   8.123
 2999POPC   C4B40318   7.651  12.647   7.818
 3000POPC   NC340319  42.896   8.665   9.406
 3000POPC   PO440320  43.392   8.351   9.665
 3000POPC   GL140321  43.265   8.249   9.198
 3000POPC   GL240322  42.898   8.196   9.187
 3000POPC   C1A40323  43.183   8.171   8.724
 3000POPC   D2A40324  43.059   7.988   8.290
 3000POPC   C3A40325  43.220   8.153   7.866
 3000POPC   C4A40326  43.503   8.313   7.519
 3000POPC   C1B40327  42.749   8.407   8.841
 3000POPC   C2B40328  42.804   8.449   8.410
 3000POPC   C3B40329  42.782   8.433   7.971
 3000POPC   C4B40330  42.585   8.562   7.568
 3001POPC   NC340331  12.883  11.096   9.665
 3001POPC   PO440332  12.235  11.213   9.762
 3001POPC   GL140333  12.413  11.253   9.295
 3001POPC   GL240334  12.733  11.072   9.185
 3001POPC   C1A40335  12.413  11.170   8.810
 3001POPC   D2A40336  12.698  10.998   8.479
 3001POPC   C3A40337  12.620  11.153   8.082
 3001POPC   C4A40338  12.483  11.419   7.756
 3001POPC   C1B40339  12.899  11.312   8.827
 3001POPC   C2B40340  13.065  11.469   8.437
 3001POPC   C3B40341  13.114  11.344   8.007
 3001POPC   C4B40342  13.344  11.185   7.651
 3002POPC   NC340343   6.512  42.779   9.704
 3002POPC   PO440344   6.743  43.391   9.752
 3002POPC   GL140345   6.742  43.168   9.348
 3002POPC   GL240346   6.376  43.121   9.214
 3002POPC   C1A40347   6.817  43.157   8.891
 3002POPC   D2A40348   6.746  42.869   8.553
 3002POPC   C3A40349   6.806  42.933   8.103
 3002POPC   C4A40350   6.804  42.728   7.711
 3002POPC   C1B40351   6.278  43.063   8.757
 3002POPC   C2B40352   6.370  43.117   8.311
 3002POPC   C3B40353   6.347  42.967   7.869
 3002POPC   C4B40354   6.395  42.883   7.397
 3003POPC   NC340355  26.461  15.082   9.447
 3003POPC   PO440356  25.788  15.081   9.510
 3003POPC   GL140357  25.887  15.110   9.084
 3003POPC   GL240358  26.200  15.219   9.033
 3003POPC   C1A40359  25.735  15.294   8.704
 3003POPC   D2A40360  25.762  15.391   8.265
 3003POPC   C3A40361  26.051  15.121   7.993
 3003POPC   C4A40362  25.978  15.086   7.510
 3003POPC   C1B40363  26.190  14.992   8.696
 3003POPC   C2B40364  26.290  14.664   8.472
 3003POPC   C3B40365  25.961  14.598   8.228
 3003POPC   C4B40366  25.835  14.705   7.816
 3004POPC   NC340367  36.905  42.689   9.557
 3004POPC   PO440368  37.136  42.038   9.450
 3004POPC   GL140369  37.054  42.384   9.183
 3004POPC   GL240370  37.322  42.424   8.984
 3004POPC   C1A40371  36.811  42.403   8.823
 3004POPC   D2A40372  36.663  42.100   8.518
 3004POPC   C3A40373  36.907  42.139   8.146
 3004POPC   C4A40374  36.894  41.990   7.742
 3004POPC   C1B40375  37.255  42.251   8.561
 3004POPC   C2B40376  37.350  42.388   8.119
 3004POPC   C3B40377  37.360  42.179   7.709
 3004POPC   C4B40378  37.140  42.056   7.296
 3005POPC   NC340379  32.879  37.682   9.513
 3005POPC   PO440380  33.574  37.388   9.299
 3005POPC   GL140381  33.150  37.472   9.117
 3005POPC   GL240382  32.910  37.802   9.024
 3005POPC   C1A40383  33.181  37.556   8.688
 3005POPC   D2A40384  33.410  37.715   8.361
 3005POPC   C3A40385  33.134  37.636   8.045
 3005POPC   C4A40386  32.977  37.529   7.658
 3005POPC   C1B40387  33.137  38.061   8.664
 3005POPC   C2B40388  33.135  38.172   8.198
 3005POPC   C3B40389  33.078  38.053   7.743
 3005POPC   C4B40390  33.023  37.912   7.312
 3006POPC   NC340391  28.832  30.775   9.414
 3006POPC   PO440392  29.573  30.719   9.527
 3006POPC   GL140393  29.335  30.616   9.104
 3006POPC   GL240394  28.994  30.424   9.081
 3006POPC   C1A40395  29.180  30.717   8.685
 3006POPC   D2A40396  29.180  30.608   8.234
 3006POPC   C3A40397  29.212  30.936   7.906
 3006POPC   C4A40398  29.235  30.750   7.511
 3006POPC   C1B40399  28.728  30.446   8.685
 3006POPC   C2B40400  28.672  30.673   8.280
 3006POPC   C3B40401  28.794  30.647   7.817
 3006POPC   C4B40402  28.690  30.668   7.362
 3007POPC   NC340403  32.634  30.090   9.545
 3007POPC   PO440404  32.099  29.728   9.747
 3007POPC   GL140405  32.112  29.758   9.229
 3007POPC   GL240406  32.456  29.780   9.157
 3007POPC   C1A40407  32.171  30.021   8.791
 3007POPC   D2A40408  32.334  29.882   8.355
 3007POPC   C3A40409  32.139  30.012   7.979
 3007POPC   C4A40410  32.333  30.359   7.811
 3007POPC   C1B40411  32.336  29.548   8.757
 3007POPC   C2B40412  32.178  29.395   8.363
 3007POPC   C3B40413  32.243  29.505   7.949
 3007POPC   C4B40414  31.913  29.569   7.667
 3008POPC   NC340415  33.095  43.753   9.402
 3008POPC   PO440416  33.698  44.147   9.525
 3008POPC   GL140417  33.814  43.984   9.154
 3008POPC   GL240418  33.850  44.281   8.978
 3008POPC   C1A40419  33.940  43.756   8.806
 3008POPC   D2A40420  33.672  43.678   8.442
 3008POPC   C3A40421  33.868  43.840   8.063
 3008POPC   C4A40422  34.022  43.565   7.756
 3008POPC   C1B40423  33.551  44.123   8.703
 3008POPC   C2B40424  33.493  44.148   8.258
 3008POPC   C3B40425  33.380  43.952   7.893
 3008POPC   C4B40426  33.683  43.929   7.575
 3009POPC   NC340427  21.646  18.345   9.355
 3009POPC   PO440428  21.088  18.747   9.324
 3009POPC   GL140429  21.216  18.354   9.029
 3009POPC   GL240430  21.405  18.001   9.073
 3009POPC   C1A40431  21.300  18.242   8.595
 3009POPC   D2A40432  21.531  18.432   8.256
 3009POPC   C3A40433  21.358  18.499   7.851
 3009POPC   C4A40434  21.171  18.578   7.420
 3009POPC   C1B40435  21.697  17.766   8.771
 3009POPC   C2B40436  21.607  17.910   8.331
 3009POPC   C3B40437  21.655  18.014   7.874
 3009POPC   C4B40438  21.779  17.920   7.404
 3010POPC   NC340439  16.676  36.494   9.522
 3010POPC   PO440440  16.637  37.136   9.725
 3010POPC   GL140441  16.697  37.027   9.216
 3010POPC   GL240442  16.701  36.680   9.046
 3010POPC   C1A40443  16.535  37.058   8.751
 3010POPC   D2A40444  16.661  36.823   8.378
 3010POPC   C3A40445  16.599  37.019   7.988
 3010POPC   C4A40446  16.715  37.389   7.804
 3010POPC   C1B40447  16.914  36.480   8.677
 3010POPC   C2B40448  17.251  36.564   8.396
 3010POPC   C3B40449  17.155  36.561   7.950
 3010POPC   C4B40450  16.778  36.567   7.712
 3011POPC   NC340451   0.838   4.183   9.524
 3011POPC   PO440452   1.364   4.600   9.427
 3011POPC   GL140453   1.071   4.462   9.136
 3011POPC   GL240454   1.202   4.139   9.113
 3011POPC   C1A40455   0.873   4.224   8.749
 3011POPC   D2A40456   0.926   4.157   8.294
 3011POPC   C3A40457   0.987   4.438   7.932
 3011POPC   C4A40458   0.945   4.386   7.476
 3011POPC   C1B40459   1.357   4.386   8.715
 3011POPC   C2B40460   1.469   4.258   8.284
 3011POPC   C3B40461   1.325   4.044   7.904
 3011POPC   C4B40462   1.380   4.099   7.457
 3012POPC   NC340463  25.749   8.443   9.319
 3012POPC   PO440464  25.119   8.273   9.489
 3012POPC   GL140465  25.233   8.179   9.104
 3012POPC   GL240466  25.553   7.983   9.124
 3012POPC   C1A40467  25.019   8.199   8.722
 3012POPC   D2A40468  25.193   8.381   8.374
 3012POPC   C3A40469  25.068   8.270   7.978
 3012POPC   C4A40470  25.026   8.462   7.584
 3012POPC   C1B40471  25.559   8.250   8.732
 3012POPC   C2B40472  25.715   8.417   8.369
 3012POPC   C3B40473  25.562   8.189   8.057
 3012POPC   C4B40474  25.555   8.476   7.762
 3013POPC   NC340475   9.312  17.975   9.449
 3013POPC   PO440476   8.812  18.406   9.555
 3013POPC   GL140477   9.043  18.330   9.181
 3013POPC   GL240478   8.948  18.021   9.099
 3013POPC   C1A40479   9.079  18.505   8.775
 3013POPC   D2A40480   9.089  18.349   8.361
 3013POPC   C3A40481   9.038  18.577   7.969
 3013POPC   C4A40482   8.855  18.480   7.556
 3013POPC   C1B40483   9.239  18.011   8.755
 3013POPC   C2B40484   9.424  17.970   8.339
 3013POPC   C3B40485   9.191  18.080   7.913
 3013POPC   C4B40486   9.319  18.135   7.458
 3014POPC   NC340487  33.771  19.169   9.545
 3014POPC   PO440488  33.277  19.513   9.215
 3014POPC   GL140489  33.683  19.275   9.065
 3014POPC   GL240490  33.752  18.873   9.140
 3014POPC   C1A40491  33.922  19.128   8.724
 3014POPC   D2A40492  33.703  19.109   8.349
 3014POPC   C3A40493  33.907  19.204   8.010
 3014POPC   C4A40494  33.677  19.171   7.669
 3014POPC   C1B40495  33.604  18.714   8.765
 3014POPC   C2B40496  33.836  18.627   8.404
 3014POPC   C3B40497  33.755  18.709   7.972
 3014POPC   C4B40498  33.889  18.731   7.534
 3015POPC   NC340499   0.719   1.239   9.482
 3015POPC   PO440500   0.073   1.101   9.393
 3015POPC   GL140501   0.298   1.336   9.089
 3015POPC   GL240502   0.637   1.381   8.996
 3015POPC   C1A40503   0.145   1.468   8.719
 3015POPC   D2A40504   0.117   1.260   8.353
 3015POPC   C3A40505   0.497   1.379   8.146
 3015POPC   C4A40506   0.509   1.403   7.709
 3015POPC   C1B40507   0.878   1.007   8.840
 3015POPC   C2B40508   1.004   0.842   8.437
 3015POPC   C3B40509   0.823   0.958   8.041
 3015POPC   C4B40510   0.827   1.003   7.641
 3016POPC   NC340511   8.390  26.977   9.680
 3016POPC   PO440512   7.799  26.674   9.634
 3016POPC   GL140513   7.990  26.811   9.249
 3016POPC   GL240514   8.332  26.669   9.250
 3016POPC   C1A40515   8.123  27.007   8.844
 3016POPC   D2A40516   8.125  27.195   8.417
 3016POPC   C3A40517   8.052  26.942   8.049
 3016POPC   C4A40518   8.306  26.961   7.671
 3016POPC   C1B40519   8.119  26.457   8.877
 3016POPC   C2B40520   8.005  26.360   8.439
 3016POPC   C3B40521   8.220  26.446   8.056
 3016POPC   C4B40522   8.347  26.433   7.654
 3017POPC   NC340523  42.011   4.267   9.402
 3017POPC   PO440524  42.666   4.469   9.500
 3017POPC   GL140525  42.477   4.512   9.116
 3017POPC   GL240526  42.405   4.158   9.054
 3017POPC   C1A40527  42.634   4.471   8.687
 3017POPC   D2A40528  42.467   4.213   8.315
 3017POPC   C3A40529  42.454   4.415   7.900
 3017POPC   C4A40530  42.487   4.290   7.447
 3017POPC   C1B40531  42.125   4.312   8.724
 3017POPC   C2B40532  41.927   4.153   8.366
 3017POPC   C3B40533  41.969   4.280   7.961
 3017POPC   C4B40534  41.941   3.977   7.647
 3018POPC   NC340535   3.681  10.661   9.421
 3018POPC   PO440536   3.147  10.264   9.606
 3018POPC   GL140537   3.421  10.240   9.217
 3018POPC   GL240538   3.803  10.224   9.151
 3018POPC   C1A40539   3.492  10.450   8.805
 3018POPC   D2A40540   3.328  10.647   8.433
 3018POPC   C3A40541   3.511  10.455   8.066
 3018POPC   C4A40542   3.455  10.667   7.687
 3018POPC   C1B40543   3.956  10.203   8.687
 3018POPC   C2B40544   4.027  10.372   8.228
 3018POPC   C3B40545   3.883  10.197   7.805
 3018POPC   C4B40546   3.659  10.260   7.419
 3019POPC   NC340547  11.530   8.314   9.445
 3019POPC   PO440548  10.825   8.135   9.489
 3019POPC   GL140549  11.113   8.227   9.143
 3019POPC   GL240550  11.434   7.999   9.043
 3019POPC   C1A40551  11.083   8.163   8.721
 3019POPC   D2A40552  11.315   8.027   8.427
 3019POPC   C3A40553  11.187   8.208   8.071
 3019POPC   C4A40554  11.366   8.060   7.741
 3019POPC   C1B40555  11.602   8.324   8.766
 3019POPC   C2B40556  11.539   8.466   8.349
 3019POPC   C3B40557  11.678   8.420   7.938
 3019POPC   C4B40558  11.822   8.475   7.514
 3020POPC   NC340559  37.391   6.897   9.480
 3020POPC   PO440560  37.803   6.311   9.534
 3020POPC   GL140561  37.659   6.475   9.169
 3020POPC   GL240562  37.726   6.820   9.105
 3020POPC   C1A40563  37.585   6.485   8.749
 3020POPC   D2A40564  37.803   6.431   8.412
 3020POPC   C3A40565  37.589   6.608   8.070
 3020POPC   C4A40566  37.720   6.499   7.686
 3020POPC   C1B40567  37.456   6.996   8.781
 3020POPC   C2B40568  37.623   7.136   8.401
 3020POPC   C3B40569  37.800   7.071   8.005
 3020POPC   C4B40570  37.467   6.985   7.707
 3021POPC   NC340571  21.506  14.098   9.804
 3021POPC   PO440572  21.083  14.529   9.503
 3021POPC   GL140573  21.297  14.314   9.136
 3021POPC   GL240574  21.638  14.104   9.038
 3021POPC   C1A40575  21.376  14.390   8.687
 3021POPC   D2A40576  21.460  14.749   8.382
 3021POPC   C3A40577  21.440  14.629   7.941
 3021POPC   C4A40578  21.232  14.330   7.679
 3021POPC   C1B40579  21.850  14.126   8.648
 3021POPC   C2B40580  21.681  14.280   8.278
 3021POPC   C3B40581  21.716  14.202   7.887
 3021POPC   C4B40582  21.703  14.258   7.483
 3022POPC   NC340583  29.815  20.832   9.494
 3022POPC   PO440584  30.277  20.378   9.549
 3022POPC   GL140585  30.028  20.421   9.158
 3022POPC   GL240586  29.716  20.611   9.038
 3022POPC   C1A40587  29.990  20.336   8.726
 3022POPC   D2A40588  30.005  20.512   8.379
 3022POPC   C3A40589  29.994  20.262   8.081
 3022POPC   C4A40590  29.741  20.362   7.807
 3022POPC   C1B40591  29.799  20.870   8.663
 3022POPC   C2B40592  29.739  20.912   8.200
 3022POPC   C3B40593  29.825  20.866   7.752
 3022POPC   C4B40594  29.645  21.014   7.354
 3023POPC   NC340595  25.700   0.676   9.905
 3023POPC   PO440596  25.082   0.466   9.709
 3023POPC   GL140597  25.174   0.526   9.242
 3023POPC   GL240598  24.990   0.293   9.050
 3023POPC   C1A40599  25.335   0.633   8.797
 3023POPC   D2A40600  25.405   0.448   8.392
 3023POPC   C3A40601  25.256   0.591   8.033
 3023POPC   C4A40602  25.530   0.665   7.697
 3023POPC   C1B40603  24.958   0.315   8.613
 3023POPC   C2B40604  24.959  44.967   8.371
 3023POPC   C3B40605  24.817  44.887   7.983
 3023POPC   C4B40606  24.854   0.294   7.808
 3024POPC   NC340607  36.918  16.552   9.567
 3024POPC   PO440608  36.678  17.111   9.410
 3024POPC   GL140609  36.964  16.799   9.138
 3024POPC   GL240610  36.810  16.459   9.085
 3024POPC   C1A40611  37.187  16.579   8.767
 3024POPC   D2A40612  37.008  16.328   8.426
 3024POPC   C3A40613  37.030  16.491   8.028
 3024POPC   C4A40614  37.309  16.671   7.751
 3024POPC   C1B40615  36.652  16.615   8.682
 3024POPC   C2B40616  36.508  16.579   8.273
 3024POPC   C3B40617  36.653  16.813   7.948
 3024POPC   C4B40618  36.838  16.756   7.604
 3025POPC   NC340619  29.684   1.726   9.483
 3025POPC   PO440620  30.413   1.898   9.544
 3025POPC   GL140621  30.193   1.853   9.152
 3025POPC   GL240622  29.890   2.057   9.142
 3025POPC   C1A40623  30.105   1.973   8.707
 3025POPC   D2A40624  29.909   2.163   8.325
 3025POPC   C3A40625  30.116   2.079   7.955
 3025POPC   C4A40626  30.164   1.714   7.764
 3025POPC   C1B40627  29.624   2.104   8.751
 3025POPC   C2B40628  29.543   1.793   8.419
 3025POPC   C3B40629  29.627   1.897   7.980
 3025POPC   C4B40630  29.367   1.975   7.627
 3026POPC   NC340631  33.480   4.971   9.406
 3026POPC   PO440632  32.941   5.001   9.605
 3026POPC   GL140633  33.006   5.036   9.161
 3026POPC   GL240634  33.229   5.299   9.106
 3026POPC   C1A40635  33.061   4.907   8.722
 3026POPC   D2A40636  32.791   4.838   8.354
 3026POPC   C3A40637  32.879   5.146   8.057
 3026POPC   C4A40638  33.092   5.039   7.680
 3026POPC   C1B40639  33.403   5.363   8.724
 3026POPC   C2B40640  33.234   5.486   8.363
 3026POPC   C3B40641  33.382   5.186   8.100
 3026POPC   C4B40642  33.648   5.333   7.765
 3027POPC   NC340643  37.377  19.294   9.472
 3027POPC   PO440644  37.963  18.955   9.535
 3027POPC   GL140645  37.846  19.140   9.159
 3027POPC   GL240646  37.822  18.801   9.057
 3027POPC   C1A40647  37.703  19.143   8.702
 3027POPC   D2A40648  37.655  18.984   8.268
 3027POPC   C3A40649  37.846  19.248   7.903
 3027POPC   C4A40650  37.753  19.270   7.437
 3027POPC   C1B40651  37.565  18.631   8.732
 3027POPC   C2B40652  37.261  18.576   8.384
 3027POPC   C3B40653  37.398  18.602   7.982
 3027POPC   C4B40654  37.790  18.744   7.830
 3028POPC   NC340655  34.804  13.177   9.482
 3028POPC   PO440656  34.405  13.702   9.387
 3028POPC   GL140657  34.534  13.432   9.143
 3028POPC   GL240658  34.300  13.414   8.909
 3028POPC   C1A40659  34.813  13.286   8.830
 3028POPC   D2A40660  34.661  13.374   8.410
 3028POPC   C3A40661  34.947  13.563   8.113
 3028POPC   C4A40662  34.913  13.481   7.691
 3028POPC   C1B40663  34.619  13.753   8.756
 3028POPC   C2B40664  34.591  13.897   8.331
 3028POPC   C3B40665  34.496  13.717   7.901
 3028POPC   C4B40666  34.389  13.614   7.457
 3029POPC   NC340667  31.806  39.343   9.305
 3029POPC   PO440668  32.419  39.409   9.061
 3029POPC   GL140669  32.054  39.418   8.863
 3029POPC   GL240670  31.995  39.737   8.984
 3029POPC   C1A40671  32.098  39.127   8.560
 3029POPC   D2A40672  32.415  39.097   8.280
 3029POPC   C3A40673  32.186  39.292   7.986
 3029POPC   C4A40674  32.066  39.127   7.591
 3029POPC   C1B40675  31.912  39.855   8.630
 3029POPC   C2B40676  31.997  39.628   8.324
 3029POPC   C3B40677  31.956  39.750   7.934
 3029POPC   C4B40678  31.774  39.562   7.602
 3030POPC   NC340679  29.716  31.248   9.678
 3030POPC   PO440680  29.190  31.048   9.312
 3030POPC   GL140681  29.092  31.259   8.961
 3030POPC   GL240682  29.356  31.201   8.788
 3030POPC   C1A40683  28.923  31.500   8.614
 3030POPC   D2A40684  29.072  31.669   8.216
 3030POPC   C3A40685  29.121  31.464   7.812
 3030POPC   C4A40686  28.832  31.577   7.422
 3030POPC   C1B40687  29.400  31.667   8.659
 3030POPC   C2B40688  29.506  31.915   8.293
 3030POPC   C3B40689  29.499  31.815   7.855
 3030POPC   C4B40690  29.324  31.761   7.432
 3031POPC   NC340691  12.892  26.590   9.508
 3031POPC   PO440692  13.025  27.222   9.420
 3031POPC   GL140693  12.745  26.972   9.169
 3031POPC   GL240694  12.499  26.706   9.215
 3031POPC   C1A40695  12.916  26.780   8.807
 3031POPC   D2A40696  13.154  26.583   8.444
 3031POPC   C3A40697  13.027  26.794   8.065
 3031POPC   C4A40698  13.225  26.808   7.660
 3031POPC   C1B40699  12.498  26.484   8.817
 3031POPC   C2B40700  12.632  26.615   8.423
 3031POPC   C3B40701  12.533  26.481   8.032
 3031POPC   C4B40702  12.716  26.667   7.680
 3032POPC   NC340703  31.148   0.170   9.514
 3032POPC   PO440704  31.717   0.568   9.567
 3032POPC   GL140705  31.443   0.488   9.222
 3032POPC   GL240706  31.585   0.180   9.083
 3032POPC   C1A40707  31.427   0.556   8.764
 3032POPC   D2A40708  31.387   0.280   8.408
 3032POPC   C3A40709  31.403   0.419   8.007
 3032POPC   C4A40710  31.248   0.684   7.708
 3032POPC   C1B40711  31.820   0.190   8.660
 3032POPC   C2B40712  31.853   0.213   8.166
 3032POPC   C3B40713  31.830   0.467   7.735
 3032POPC   C4B40714  31.861   0.397   7.248
 3033POPC   NC340715  34.323  39.321   9.456
 3033POPC   PO440716  34.962  39.421   9.523
 3033POPC   GL140717  34.748  39.340   9.162
 3033POPC   GL240718  34.532  39.634   9.060
 3033POPC   C1A40719  34.665  39.136   8.784
 3033POPC   D2A40720  34.612  39.345   8.410
 3033POPC   C3A40721  34.662  39.115   8.034
 3033POPC   C4A40722  34.824  39.185   7.634
 3033POPC   C1B40723  34.227  39.501   8.709
 3033POPC   C2B40724  34.162  39.425   8.232
 3033POPC   C3B40725  34.334  39.441   7.800
 3033POPC   C4B40726  34.502  39.498   7.358
 3034POPC   NC340727  11.281  33.380   9.513
 3034POPC   PO440728  11.727  32.816   9.508
 3034POPC   GL140729  11.471  32.914   9.142
 3034POPC   GL240730  11.165  33.095   9.107
 3034POPC   C1A40731  11.430  32.920   8.688
 3034POPC   D2A40732  11.315  32.697   8.323
 3034POPC   C3A40733  11.413  32.917   7.951
 3034POPC   C4A40734  11.675  33.266   7.734
 3034POPC   C1B40735  10.885  33.077   8.767
 3034POPC   C2B40736  10.938  33.285   8.405
 3034POPC   C3B40737  11.249  33.369   8.119
 3034POPC   C4B40738  11.169  33.281   7.707
 3035POPC   NC340739  35.120   7.859   9.556
 3035POPC   PO440740  35.326   8.447   9.712
 3035POPC   GL140741  35.432   8.175   9.282
 3035POPC   GL240742  35.134   8.058   9.098
 3035POPC   C1A40743  35.492   8.205   8.786
 3035POPC   D2A40744  35.405   8.001   8.380
 3035POPC   C3A40745  35.473   8.290   8.011
 3035POPC   C4A40746  35.660   8.401   7.638
 3035POPC   C1B40747  34.966   8.231   8.722
 3035POPC   C2B40748  34.991   8.318   8.308
 3035POPC   C3B40749  35.058   8.026   7.992
 3035POPC   C4B40750  34.978   8.274   7.656
 3036POPC   NC340751   9.119  22.545   9.848
 3036POPC   PO440752   8.629  22.176   9.620
 3036POPC   GL140753   8.888  22.057   9.310
 3036POPC   GL240754   8.702  22.269   9.092
 3036POPC   C1A40755   9.101  21.994   8.922
 3036POPC   D2A40756   9.047  21.925   8.477
 3036POPC   C3A40757   9.207  22.268   8.235
 3036POPC   C4A40758   9.171  22.369   7.798
 3036POPC   C1B40759   8.591  22.042   8.749
 3036POPC   C2B40760   8.589  22.095   8.308
 3036POPC   C3B40761   8.705  22.141   7.861
 3036POPC   C4B40762   8.798  22.317   7.425
 3037POPC   NC340763  19.962  18.874   9.475
 3037POPC   PO440764  19.457  19.292   9.616
 3037POPC   GL140765  19.663  19.244   9.232
 3037POPC   GL240766  19.543  18.910   9.176
 3037POPC   C1A40767  19.915  19.178   8.855
 3037POPC   D2A40768  20.199  19.287   8.488
 3037POPC   C3A40769  20.053  19.349   8.034
 3037POPC   C4A40770  20.161  19.382   7.565
 3037POPC   C1B40771  19.653  18.733   8.811
 3037POPC   C2B40772  19.905  18.837   8.483
 3037POPC   C3B40773  19.778  18.846   8.101
 3037POPC   C4B40774  19.935  18.953   7.722
 3038POPC   NC340775  22.692  21.790   9.615
 3038POPC   PO440776  23.149  21.351   9.795
 3038POPC   GL140777  22.994  21.478   9.328
 3038POPC   GL240778  22.910  21.185   9.088
 3038POPC   C1A40779  22.933  21.630   8.873
 3038POPC   D2A40780  23.010  21.481   8.450
 3038POPC   C3A40781  22.825  21.742   8.116
 3038POPC   C4A40782  22.990  21.669   7.711
 3038POPC   C1B40783  22.604  21.237   8.759
 3038POPC   C2B40784  22.544  21.328   8.303
 3038POPC   C3B40785  22.882  21.225   7.971
 3038POPC   C4B40786  22.829  21.222   7.484
 3039POPC   NC340787   9.332  40.446   9.392
 3039POPC   PO440788   8.746  40.790   9.484
 3039POPC   GL140789   8.777  40.746   9.064
 3039POPC   GL240790   8.892  40.418   9.066
 3039POPC   C1A40791   8.670  40.914   8.681
 3039POPC   D2A40792   8.476  41.066   8.332
 3039POPC   C3A40793   8.729  40.902   8.031
 3039POPC   C4A40794   8.995  40.691   7.705
 3039POPC   C1B40795   8.863  40.369   8.607
 3039POPC   C2B40796   9.012  40.517   8.229
 3039POPC   C3B40797   9.286  40.327   7.941
 3039POPC   C4B40798   9.301  40.230   7.521
 3040POPC   NC340799  31.490   7.917   9.527
 3040POPC   PO440800  31.697   8.546   9.457
 3040POPC   GL140801  31.561   8.276   9.148
 3040POPC   GL240802  31.259   8.060   9.101
 3040POPC   C1A40803  31.465   8.371   8.742
 3040POPC   D2A40804  31.249   8.502   8.417
 3040POPC   C3A40805  31.435   8.351   8.079
 3040POPC   C4A40806  31.247   8.403   7.692
 3040POPC   C1B40807  31.505   7.829   8.829
 3040POPC   C2B40808  31.414   7.921   8.418
 3040POPC   C3B40809  31.237   7.888   7.996
 3040POPC   C4B40810  31.564   8.000   7.730
 3041POPC   NC340811  22.962   1.292   9.572
 3041POPC   PO440812  23.395   1.732   9.438
 3041POPC   GL140813  23.202   1.375   9.138
 3041POPC   GL240814  22.802   1.298   9.105
 3041POPC   C1A40815  23.123   1.300   8.713
 3041POPC   D2A40816  22.996   1.488   8.337
 3041POPC   C3A40817  23.238   1.221   8.088
 3041POPC   C4A40818  23.347   1.232   7.677
 3041POPC   C1B40819  22.650   1.521   8.758
 3041POPC   C2B40820  22.481   1.358   8.371
 3041POPC   C3B40821  22.569   1.148   7.987
 3041POPC   C4B40822  22.863   1.374   7.783
 3042POPC   NC340823  32.037  37.551   9.546
 3042POPC   PO440824  32.474  38.042   9.478
 3042POPC   GL140825  32.349  37.714   9.143
 3042POPC   GL240826  32.420  37.323   9.108
 3042POPC   C1A40827  32.080  37.553   8.783
 3042POPC   D2A40828  31.864  37.557   8.382
 3042POPC   C3A40829  32.187  37.683   8.088
 3042POPC   C4A40830  32.110  37.928   7.752
 3042POPC   C1B40831  32.620  37.513   8.737
 3042POPC   C2B40832  32.663  37.675   8.318
 3042POPC   C3B40833  32.619  37.395   7.974
 3042POPC   C4B40834  32.465  37.356   7.544
 3043POPC   NC340835  22.709  16.121   9.544
 3043POPC   PO440836  23.385  15.931   9.497
 3043POPC   GL140837  23.115  16.129   9.189
 3043POPC   GL240838  22.912  15.818   9.176
 3043POPC   C1A40839  22.763  16.282   8.928
 3043POPC   D2A40840  22.708  16.244   8.510
 3043POPC   C3A40841  23.004  16.279   8.196
 3043POPC   C4A40842  22.786  16.309   7.838
 3043POPC   C1B40843  22.695  15.784   8.783
 3043POPC   C2B40844  22.864  15.761   8.366
 3043POPC   C3B40845  23.042  15.738   7.966
 3043POPC   C4B40846  23.071  15.938   7.567
 3044POPC   NC340847  33.321  37.046   9.479
 3044POPC   PO440848  32.669  37.222   9.543
 3044POPC   GL140849  32.870  36.989   9.164
 3044POPC   GL240850  33.130  36.704   9.119
 3044POPC   C1A40851  33.088  37.063   8.762
 3044POPC   D2A40852  32.926  37.248   8.374
 3044POPC   C3A40853  33.056  37.115   7.959
 3044POPC   C4A40854  32.858  37.037   7.567
 3044POPC   C1B40855  32.886  36.608   8.693
 3044POPC   C2B40856  33.093  36.713   8.287
 3044POPC   C3B40857  32.978  36.624   7.835
 3044POPC   C4B40858  32.905  36.562   7.371
 3045POPC   NC340859   4.346  35.799   9.332
 3045POPC   PO440860   4.185  36.437   9.485
 3045POPC   GL140861   4.143  36.263   9.127
 3045POPC   GL240862   4.483  36.216   9.079
 3045POPC   C1A40863   4.129  36.088   8.721
 3045POPC   D2A40864   4.261  35.887   8.367
 3045POPC   C3A40865   4.167  36.145   8.041
 3045POPC   C4A40866   4.060  36.045   7.638
 3045POPC   C1B40867   4.627  35.928   8.745
 3045POPC   C2B40868   4.791  35.929   8.332
 3045POPC   C3B40869   4.577  35.797   7.959
 3045POPC   C4B40870   4.546  36.143   7.698
 3046POPC   NC340871  41.207  16.716   9.433
 3046POPC   PO440872  41.977  16.971   9.444
 3046POPC   GL140873  41.664  16.763   9.198
 3046POPC   GL240874  41.505  17.042   9.061
 3046POPC   C1A40875  41.466  16.582   8.829
 3046POPC   D2A40876  41.656  16.767   8.494
 3046POPC   C3A40877  41.693  16.800   8.071
 3046POPC   C4A40878  41.891  16.722   7.684
 3046POPC   C1B40879  41.441  17.267   8.677
 3046POPC   C2B40880  41.310  17.109   8.276
 3046POPC   C3B40881  41.179  16.723   8.052
 3046POPC   C4B40882  41.409  16.537   7.696
 3047POPC   NC340883  17.608  31.655   9.457
 3047POPC   PO440884  18.191  31.420   9.432
 3047POPC   GL140885  17.801  31.321   9.101
 3047POPC   GL240886  17.570  31.592   8.954
 3047POPC   C1A40887  17.569  31.192   8.679
 3047POPC   D2A40888  17.453  31.530   8.374
 3047POPC   C3A40889  17.508  31.435   7.934
 3047POPC   C4A40890  17.596  31.609   7.545
 3047POPC   C1B40891  17.910  31.595   8.650
 3047POPC   C2B40892  17.929  31.371   8.245
 3047POPC   C3B40893  18.038  31.524   7.814
 3047POPC   C4B40894  18.082  31.674   7.363
 3048POPC   NC340895  25.629  31.150   5.439
 3048POPC   PO440896  25.628  30.473   5.282
 3048POPC   GL140897  25.366  30.431   5.695
 3048POPC   GL240898  25.425  30.797   5.753
 3048POPC   C1A40899  25.213  30.587   6.151
 3048POPC   D2A40900  25.447  30.706   6.528
 3048POPC   C3A40901  25.200  30.746   6.913
 3048POPC   C4A40902  25.262  30.489   7.225
 3048POPC   C1B40903  25.592  31.034   6.114
 3048POPC   C2B40904  25.697  31.166   6.526
 3048POPC   C3B40905  25.668  30.976   6.924
 3048POPC   C4B40906  25.433  31.063   7.287
 3049POPC   NC340907  23.146   5.886   5.413
 3049POPC   PO440908  22.602   6.339   5.497
 3049POPC   GL140909  22.912   6.118   5.798
 3049POPC   GL240910  23.288   6.135   5.834
 3049POPC   C1A40911  22.875   5.800   6.133
 3049POPC   D2A40912  22.635   5.684   6.489
 3049POPC   C3A40913  22.881   5.561   6.856
 3049POPC   C4A40914  22.703   5.542   7.279
 3049POPC   C1B40915  23.371   5.804   6.108
 3049POPC   C2B40916  23.460   5.706   6.541
 3049POPC   C3B40917  23.366   5.901   6.962
 3049POPC   C4B40918  23.015   5.937   7.205
 3050POPC   NC340919  17.376  17.773   5.420
 3050POPC   PO440920  17.949  17.539   5.546
 3050POPC   GL140921  17.668  17.321   5.813
 3050POPC   GL240922  17.324  17.359   5.751
 3050POPC   C1A40923  17.647  17.225   6.229
 3050POPC   D2A40924  17.675  17.044   6.595
 3050POPC   C3A40925  17.703  17.257   6.967
 3050POPC   C4A40926  17.354  17.352   7.227
 3050POPC   C1B40927  17.187  17.408   6.204
 3050POPC   C2B40928  17.277  17.431   6.668
 3050POPC   C3B40929  17.105  17.728   7.016
 3050POPC   C4B40930  17.285  17.816   7.440
 3051POPC   NC340931  38.364  10.181   5.501
 3051POPC   PO440932  38.427  10.939   5.440
 3051POPC   GL140933  38.524  10.630   5.756
 3051POPC   GL240934  38.229  10.467   5.916
 3051POPC   C1A40935  38.715  10.657   6.159
 3051POPC   D2A40936  38.896  10.576   6.537
 3051POPC   C3A40937  38.561  10.527   6.779
 3051POPC   C4A40938  38.270  10.575   7.072
 3051POPC   C1B40939  38.153  10.378   6.365
 3051POPC   C2B40940  38.269  10.115   6.715
 3051POPC   C3B40941  38.142  10.070   7.139
 3051POPC   C4B40942  38.031  10.361   7.499
 3052POPC   NC340943   3.019  36.303   5.437
 3052POPC   PO440944   2.499  36.030   5.429
 3052POPC   GL140945   2.555  36.318   5.722
 3052POPC   GL240946   2.277  36.540   5.645
 3052POPC   C1A40947   2.804  36.282   6.110
 3052POPC   D2A40948   2.899  35.999   6.472
 3052POPC   C3A40949   2.890  36.179   6.908
 3052POPC   C4A40950   2.884  36.099   7.363
 3052POPC   C1B40951   2.348  36.561   6.123
 3052POPC   C2B40952   2.504  36.365   6.539
 3052POPC   C3B40953   2.390  36.318   7.004
 3052POPC   C4B40954   2.366  36.026   7.377
 3053POPC   NC340955  39.320  29.444   5.663
 3053POPC   PO440956  39.089  28.946   5.306
 3053POPC   GL140957  39.089  28.948   5.749
 3053POPC   GL240958  39.387  28.991   5.963
 3053POPC   C1A40959  38.918  29.033   6.159
 3053POPC   D2A40960  39.081  28.903   6.538
 3053POPC   C3A40961  39.049  29.117   6.909
 3053POPC   C4A40962  38.917  28.960   7.297
 3053POPC   C1B40963  39.325  29.356   6.297
 3053POPC   C2B40964  39.423  29.650   6.651
 3053POPC   C3B40965  39.438  29.445   7.049
 3053POPC   C4B40966  39.454  29.015   7.194
 3054POPC   NC340967   6.167  24.749   5.407
 3054POPC   PO440968   6.805  24.302   5.414
 3054POPC   GL140969   6.516  24.341   5.801
 3054POPC   GL240970   6.679  24.462   6.135
 3054POPC   C1A40971   6.195  24.373   6.167
 3054POPC   D2A40972   6.300  24.605   6.565
 3054POPC   C3A40973   6.640  24.497   6.853
 3054POPC   C4A40974   6.614  24.295   7.245
 3054POPC   C1B40975   6.730  24.905   6.271
 3054POPC   C2B40976   6.924  25.143   6.613
 3054POPC   C3B40977   7.096  24.904   6.963
 3054POPC   C4B40978   6.885  24.707   7.311
 3055POPC   NC340979  40.228  38.057   5.342
 3055POPC   PO440980  40.097  37.355   5.366
 3055POPC   GL140981  40.090  37.635   5.778
 3055POPC   GL240982  39.856  37.909   5.690
 3055POPC   C1A40983  40.105  37.637   6.293
 3055POPC   D2A40984  39.937  37.775   6.749
 3055POPC   C3A40985  40.220  37.925   7.121
 3055POPC   C4A40986  40.250  38.071   7.582
 3055POPC   C1B40987  39.682  37.853   6.120
 3055POPC   C2B40988  39.661  38.113   6.478
 3055POPC   C3B40989  39.614  38.149   6.925
 3055POPC   C4B40990  39.693  37.920   7.283
 3056POPC   NC340991  23.473  28.344   5.214
 3056POPC   PO440992  24.139  28.141   5.468
 3056POPC   GL140993  23.921  28.221   5.829
 3056POPC   GL240994  23.807  28.505   5.813
 3056POPC   C1A40995  23.813  28.213   6.244
 3056POPC   D2A40996  23.815  28.445   6.610
 3056POPC   C3A40997  23.694  28.182   6.931
 3056POPC   C4A40998  23.815  28.172   7.326
 3056POPC   C1B40999  23.685  28.736   6.186
 3056POPC   C2B41000  23.418  28.735   6.562
 3056POPC   C3B41001  23.599  28.721   7.003
 3056POPC   C4B41002  23.507  28.860   7.418
 3057POPC   NC341003  23.093   9.145   5.505
 3057POPC   PO441004  22.463   8.918   5.359
 3057POPC   GL141005  22.635   8.748   5.740
 3057POPC   GL241006  22.967   8.634   5.682
 3057POPC   C1A41007  22.797   8.834   6.164
 3057POPC   D2A41008  22.932   9.112   6.473
 3057POPC   C3A41009  22.876   8.999   6.892
 3057POPC   C4A41010  22.681   8.705   7.149
 3057POPC   C1B41011  23.255   8.596   6.052
 3057POPC   C2B41012  23.216   8.644   6.491
 3057POPC   C3B41013  23.130   8.519   6.915
 3057POPC   C4B41014  23.246   8.621   7.336
 3058POPC   NC341015  34.316  39.010   5.502
 3058POPC   PO441016  34.631  39.568   5.477
 3058POPC   GL141017  34.689  39.229   5.794
 3058POPC   GL241018  34.998  39.077   5.737
 3058POPC   C1A41019  34.640  39.061   6.256
 3058POPC   D2A41020  34.553  39.279   6.689
 3058POPC   C3A41021  34.640  39.064   7.086
 3058POPC   C4A41022  34.391  39.019   7.453
 3058POPC   C1B41023  35.054  39.373   6.130
 3058POPC   C2B41024  35.038  39.226   6.566
 3058POPC   C3B41025  34.968  39.449   6.984
 3058POPC   C4B41026  35.006  39.610   7.396
 3059POPC   NC341027  17.939   0.335   5.278
 3059POPC   PO441028  17.278   0.296   5.193
 3059POPC   GL141029  17.524   0.350   5.623
 3059POPC   GL241030  17.702   0.690   5.654
 3059POPC   C1A41031  17.421   0.445   6.086
 3059POPC   D2A41032  17.235   0.536   6.500
 3059POPC   C3A41033  17.448   0.324   6.834
 3059POPC   C4A41034  17.464   0.020   7.151
 3059POPC   C1B41035  17.874   0.689   6.077
 3059POPC   C2B41036  17.762   0.579   6.492
 3059POPC   C3B41037  17.754   0.745   6.910
 3059POPC   C4B41038  17.558   0.570   7.269
 3060POPC   NC341039   9.568   4.843   5.509
 3060POPC   PO441040  10.008   5.326   5.620
 3060POPC   GL141041   9.626   5.266   5.827
 3060POPC   GL241042   9.773   4.985   5.944
 3060POPC   C1A41043   9.472   5.374   6.242
 3060POPC   D2A41044   9.680   5.450   6.647
 3060POPC   C3A41045   9.481   5.333   7.048
 3060POPC   C4A41046   9.610   5.200   7.498
 3060POPC   C1B41047   9.910   5.083   6.328
 3060POPC   C2B41048   9.800   4.904   6.707
 3060POPC   C3B41049   9.860   5.000   7.107
 3060POPC   C4B41050  10.047   4.828   7.445
 3061POPC   NC341051  19.359  13.726   5.359
 3061POPC   PO441052  20.003  13.406   5.190
 3061POPC   GL141053  19.678  13.382   5.599
 3061POPC   GL241054  19.658  13.705   5.776
 3061POPC   C1A41055  19.609  13.308   6.088
 3061POPC   D2A41056  19.779  13.511   6.479
 3061POPC   C3A41057  19.854  13.420   6.933
 3061POPC   C4A41058  20.043  13.801   7.162
 3061POPC   C1B41059  19.526  13.890   6.178
 3061POPC   C2B41060  19.342  13.837   6.584
 3061POPC   C3B41061  19.475  13.749   7.025
 3061POPC   C4B41062  19.357  13.498   7.405
 3062POPC   NC341063  39.589  27.088   5.586
 3062POPC   PO441064  40.211  26.777   5.338
 3062POPC   GL141065  40.096  26.904   5.798
 3062POPC   GL241066  39.786  26.749   5.904
 3062POPC   C1A41067  40.107  26.879   6.292
 3062POPC   D2A41068  39.998  27.064   6.718
 3062POPC   C3A41069  40.117  26.849   7.066
 3062POPC   C4A41070  40.370  26.510   7.219
 3062POPC   C1B41071  39.565  26.948   6.252
 3062POPC   C2B41072  39.571  26.804   6.681
 3062POPC   C3B41073  39.559  27.077   7.003
 3062POPC   C4B41074  39.770  27.129   7.370
 3063POPC   NC341075  34.582  11.003   5.307
 3063POPC   PO441076  34.259  11.604   5.472
 3063POPC   GL141077  34.565  11.458   5.836
 3063POPC   GL241078  34.713  11.107   5.817
 3063POPC   C1A41079  34.712  11.350   6.280
 3063POPC   D2A41080  34.901  11.525   6.667
 3063POPC   C3A41081  34.599  11.478   6.974
 3063POPC   C4A41082  34.192  11.436   7.179
 3063POPC   C1B41083  35.041  10.974   6.136
 3063POPC   C2B41084  35.030  11.015   6.574
 3063POPC   C3B41085  35.018  11.132   6.996
 3063POPC   C4B41086  34.673  11.112   7.301
 3064POPC   NC341087  34.035   8.194   5.359
 3064POPC   PO441088  33.526   8.165   5.671
 3064POPC   GL141089  33.921   8.217   5.874
 3064POPC   GL241090  34.135   8.542   5.744
 3064POPC   C1A41091  33.822   8.119   6.313
 3064POPC   D2A41092  33.394   8.074   6.481
 3064POPC   C3A41093  33.413   7.931   6.878
 3064POPC   C4A41094  33.726   7.986   7.163
 3064POPC   C1B41095  34.034   8.574   6.203
 3064POPC   C2B41096  34.194   8.396   6.582
 3064POPC   C3B41097  34.029   8.345   6.967
 3064POPC   C4B41098  34.124   8.265   7.385
 3065POPC   NC341099   3.514  39.544   5.119
 3065POPC   PO441100   3.475  39.908   5.686
 3065POPC   GL141101   3.557  39.907   6.057
 3065POPC   GL241102   3.924  39.827   6.068
 3065POPC   C1A41103   3.370  39.872   6.411
 3065POPC   D2A41104   3.634  39.788   6.722
 3065POPC   C3A41105   3.377  39.759   7.065
 3065POPC   C4A41106   3.239  40.140   7.198
 3065POPC   C1B41107   4.060  40.190   6.354
 3065POPC   C2B41108   3.889  40.415   6.718
 3065POPC   C3B41109   3.731  40.177   7.091
 3065POPC   C4B41110   3.695  40.187   7.573
 3066POPC   NC341111  35.676  31.788   5.333
 3066POPC   PO441112  35.052  31.704   5.561
 3066POPC   GL141113  35.320  31.521   5.855
 3066POPC   GL241114  35.666  31.563   5.795
 3066POPC   C1A41115  35.364  31.766   6.222
 3066POPC   D2A41116  35.056  31.958   6.492
 3066POPC   C3A41117  35.203  31.779   6.860
 3066POPC   C4A41118  35.092  31.602   7.213
 3066POPC   C1B41119  35.723  31.373   6.183
 3066POPC   C2B41120  35.879  31.285   6.574
 3066POPC   C3B41121  35.664  31.149   6.905
 3066POPC   C4B41122  35.510  31.332   7.255
 3067POPC   NC341123  21.887  17.474   5.493
 3067POPC   PO441124  22.583  17.361   5.461
 3067POPC   GL141125  22.275  17.415   5.808
 3067POPC   GL241126  21.923  17.408   5.984
 3067POPC   C1A41127  22.371  17.403   6.219
 3067POPC   D2A41128  22.160  17.271   6.579
 3067POPC   C3A41129  22.436  17.356   6.892
 3067POPC   C4A41130  22.412  17.279   7.306
 3067POPC   C1B41131  21.672  17.099   6.180
 3067POPC   C2B41132  21.590  17.147   6.582
 3067POPC   C3B41133  21.771  17.263   6.939
 3067POPC   C4B41134  21.918  17.275   7.326
 3068POPC   NC341135  26.053  12.497   5.146
 3068POPC   PO441136  25.863  11.944   5.481
 3068POPC   GL141137  26.158  11.857   5.826
 3068POPC   GL241138  25.901  11.975   6.034
 3068POPC   C1A41139  26.390  11.951   6.176
 3068POPC   D2A41140  26.170  12.166   6.474
 3068POPC   C3A41141  26.241  12.106   6.899
 3068POPC   C4A41142  26.149  11.815   7.214
 3068POPC   C1B41143  25.754  11.847   6.431
 3068POPC   C2B41144  25.698  12.072   6.813
 3068POPC   C3B41145  25.673  12.028   7.248
 3068POPC   C4B41146  25.797  11.840   7.651
 3069POPC   NC341147  37.994  31.158   5.390
 3069POPC   PO441148  38.559  31.576   5.303
 3069POPC   GL141149  38.514  31.371   5.689
 3069POPC   GL241150  38.264  31.640   5.743
 3069POPC   C1A41151  38.633  31.468   6.127
 3069POPC   D2A41152  38.603  31.657   6.538
 3069POPC   C3A41153  38.745  31.480   6.897
 3069POPC   C4A41154  38.905  31.256   7.261
 3069POPC   C1B41155  38.139  31.355   6.070
 3069POPC   C2B41156  38.235  31.295   6.499
 3069POPC   C3B41157  38.138  31.361   6.923
 3069POPC   C4B41158  38.397  31.384   7.246
 3070POPC   NC341159   3.203  23.443   5.304
 3070POPC   PO441160   3.517  22.744   5.299
 3070POPC   GL141161   3.577  22.969   5.719
 3070POPC   GL241162   3.382  23.290   5.776
 3070POPC   C1A41163   3.718  22.827   6.140
 3070POPC   D2A41164   3.482  22.825   6.540
 3070POPC   C3A41165   3.556  22.722   6.955
 3070POPC   C4A41166   3.398  22.891   7.338
 3070POPC   C1B41167   3.450  23.250   6.236
 3070POPC   C2B41168   3.609  23.314   6.672
 3070POPC   C3B41169   3.302  23.219   6.972
 3070POPC   C4B41170   2.888  23.302   7.151
 3071POPC   NC341171   6.784  25.625   5.519
 3071POPC   PO441172   6.488  25.086   5.294
 3071POPC   GL141173   6.378  25.196   5.697
 3071POPC   GL241174   6.490  24.857   5.803
 3071POPC   C1A41175   6.492  25.427   6.100
 3071POPC   D2A41176   6.564  25.696   6.491
 3071POPC   C3A41177   6.492  25.500   6.904
 3071POPC   C4A41178   6.759  25.225   7.216
 3071POPC   C1B41179   6.214  24.978   6.129
 3071POPC   C2B41180   6.348  25.155   6.515
 3071POPC   C3B41181   6.514  24.984   6.861
 3071POPC   C4B41182   6.389  24.764   7.198
 3072POPC   NC341183  11.950   2.398   5.464
 3072POPC   PO441184  11.703   1.842   5.616
 3072POPC   GL141185  11.936   2.142   5.939
 3072POPC   GL241186  12.237   2.368   5.883
 3072POPC   C1A41187  11.968   2.193   6.419
 3072POPC   D2A41188  12.021   1.947   6.799
 3072POPC   C3A41189  11.682   1.969   7.127
 3072POPC   C4A41190  11.527   1.668   7.451
 3072POPC   C1B41191  12.386   2.469   6.294
 3072POPC   C2B41192  12.435   2.259   6.697
 3072POPC   C3B41193  12.446   2.110   7.129
 3072POPC   C4B41194  12.600   2.155   7.567
 3073POPC   NC341195  37.487  43.656   5.507
 3073POPC   PO441196  38.025  44.252   5.485
 3073POPC   GL141197  37.822  43.904   5.766
 3073POPC   GL241198  37.485  43.906   5.942
 3073POPC   C1A41199  37.887  43.683   6.157
 3073POPC   D2A41200  37.668  43.882   6.510
 3073POPC   C3A41201  37.751  43.816   6.953
 3073POPC   C4A41202  37.427  43.880   7.273
 3073POPC   C1B41203  37.203  43.806   6.292
 3073POPC   C2B41204  37.206  43.793   6.747
 3073POPC   C3B41205  37.324  44.191   6.881
 3073POPC   C4B41206  37.359  44.419   7.259
 3074POPC   NC341207  12.575  44.173   5.323
 3074POPC   PO441208  13.229  44.091   5.349
 3074POPC   GL141209  12.969  43.916   5.653
 3074POPC   GL241210  13.199  43.636   5.677
 3074POPC   C1A41211  12.752  43.944   6.093
 3074POPC   D2A41212  12.638  44.088   6.555
 3074POPC   C3A41213  12.472  43.966   6.984
 3074POPC   C4A41214  12.516  43.992   7.469
 3074POPC   C1B41215  13.263  43.821   6.067
 3074POPC   C2B41216  13.065  43.804   6.476
 3074POPC   C3B41217  12.846  43.636   6.831
 3074POPC   C4B41218  12.865  43.729   7.231
 3075POPC   NC341219   7.077  24.701   5.348
 3075POPC   PO441220   7.671  24.308   5.545
 3075POPC   GL141221   7.401  24.561   5.792
 3075POPC   GL241222   7.061  24.481   5.812
 3075POPC   C1A41223   7.296  24.734   6.188
 3075POPC   D2A41224   7.451  24.505   6.518
 3075POPC   C3A41225   7.614  24.746   6.822
 3075POPC   C4A41226   7.598  25.021   7.126
 3075POPC   C1B41227   7.146  24.231   6.183
 3075POPC   C2B41228   7.018  24.274   6.608
 3075POPC   C3B41229   7.109  24.325   7.040
 3075POPC   C4B41230   7.405  24.576   7.310
 3076POPC   NC341231  29.212   6.118   5.336
 3076POPC   PO441232  29.178   5.418   5.368
 3076POPC   GL141233  29.293   5.650   5.776
 3076POPC   GL241234  29.387   6.000   5.858
 3076POPC   C1A41235  29.040   5.754   6.182
 3076POPC   D2A41236  29.159   5.626   6.583
 3076POPC   C3A41237  29.082   5.876   6.934
 3076POPC   C4A41238  28.938   5.704   7.305
 3076POPC   C1B41239  29.399   6.059   6.326
 3076POPC   C2B41240  29.639   6.163   6.662
 3076POPC   C3B41241  29.537   6.197   7.068
 3076POPC   C4B41242  29.371   5.991   7.386
 3077POPC   NC341243  15.732   4.526   5.563
 3077POPC   PO441244  16.296   4.326   5.116
 3077POPC   GL141245  16.086   4.134   5.563
 3077POPC   GL241246  16.215   4.369   5.755
 3077POPC   C1A41247  16.017   4.065   6.084
 3077POPC   D2A41248  15.832   4.241   6.469
 3077POPC   C3A41249  15.745   4.010   6.832
 3077POPC   C4A41250  15.844   4.141   7.232
 3077POPC   C1B41251  16.315   4.478   6.192
 3077POPC   C2B41252  16.240   4.487   6.620
 3077POPC   C3B41253  16.269   4.256   6.973
 3077POPC   C4B41254  16.260   4.447   7.350
 3078POPC   NC341255  20.890  24.616   5.383
 3078POPC   PO441256  20.284  24.991   5.434
 3078POPC   GL141257  20.379  24.601   5.802
 3078POPC   GL241258  20.779  24.485   5.864
 3078POPC   C1A41259  20.518  24.428   6.278
 3078POPC   D2A41260  20.598  24.194   6.694
 3078POPC   C3A41261  20.584  24.420   7.111
 3078POPC   C4A41262  20.237  24.542   7.383
 3078POPC   C1B41263  20.992  24.605   6.276
 3078POPC   C2B41264  20.952  24.588   6.753
 3078POPC   C3B41265  21.042  24.684   7.206
 3078POPC   C4B41266  20.850  24.495   7.623
 3079POPC   NC341267   8.498  39.390   5.406
 3079POPC   PO441268   7.982  39.696   5.615
 3079POPC   GL141269   8.161  39.290   5.811
 3079POPC   GL241270   7.948  39.025   5.796
 3079POPC   C1A41271   8.252  39.053   6.229
 3079POPC   D2A41272   8.074  39.209   6.657
 3079POPC   C3A41273   8.261  39.056   7.032
 3079POPC   C4A41274   8.431  39.424   7.212
 3079POPC   C1B41275   7.782  39.218   6.197
 3079POPC   C2B41276   7.606  39.085   6.582
 3079POPC   C3B41277   7.543  39.251   6.950
 3079POPC   C4B41278   7.883  39.367   7.210
 3080POPC   NC341279   1.793  14.331   5.301
 3080POPC   PO441280   1.164  14.229   5.212
 3080POPC   GL141281   1.270  14.352   5.661
 3080POPC   GL241282   1.483  14.120   5.868
 3080POPC   C1A41283   1.097  14.413   6.097
 3080POPC   D2A41284   1.138  14.217   6.512
 3080POPC   C3A41285   1.092  14.528   6.847
 3080POPC   C4A41286   1.145  14.541   7.263
 3080POPC   C1B41287   1.593  14.355   6.238
 3080POPC   C2B41288   1.566  14.466   6.669
 3080POPC   C3B41289   1.415  14.172   7.012
 3080POPC   C4B41290   1.406  14.153   7.461
 3081POPC   NC341291  24.544  27.906   5.590
 3081POPC   PO441292  24.840  28.356   5.266
 3081POPC   GL141293  24.749  28.378   5.737
 3081POPC   GL241294  24.404  28.468   5.790
 3081POPC   C1A41295  24.591  28.253   6.191
 3081POPC   D2A41296  24.696  27.994   6.529
 3081POPC   C3A41297  24.612  28.202   6.905
 3081POPC   C4A41298  24.655  28.366   7.318
 3081POPC   C1B41299  24.176  28.568   6.162
 3081POPC   C2B41300  24.303  28.553   6.589
 3081POPC   C3B41301  24.171  28.447   6.998
 3081POPC   C4B41302  24.012  28.628   7.335
 3082POPC   NC341303  18.594  42.263   5.605
 3082POPC   PO441304  19.235  42.336   5.353
 3082POPC   GL141305  19.087  42.441   5.808
 3082POPC   GL241306  18.797  42.645   5.858
 3082POPC   C1A41307  19.163  42.664   6.227
 3082POPC   D2A41308  19.358  42.514   6.601
 3082POPC   C3A41309  19.567  42.634   6.952
 3082POPC   C4A41310  19.490  42.534   7.366
 3082POPC   C1B41311  18.716  42.399   6.255
 3082POPC   C2B41312  18.858  42.315   6.664
 3082POPC   C3B41313  19.031  42.466   7.036
 3082POPC   C4B41314  19.105  42.178   7.370
 3083POPC   NC341315  42.071   1.479   5.386
 3083POPC   PO441316  42.500   0.972   5.248
 3083POPC   GL141317  42.434   1.161   5.697
 3083POPC   GL241318  42.230   1.441   5.845
 3083POPC   C1A41319  42.377   1.101   6.172
 3083POPC   D2A41320  42.551   0.874   6.534
 3083POPC   C3A41321  42.299   1.091   6.842
 3083POPC   C4A41322  42.238   1.207   7.261
 3083POPC   C1B41323  42.014   1.574   6.202
 3083POPC   C2B41324  42.145   1.518   6.605
 3083POPC   C3B41325  42.026   1.611   7.020
 3083POPC   C4B41326  42.439   1.686   7.226
 3084POPC   NC341327   4.569   9.034   5.570
 3084POPC   PO441328   3.862   9.271   5.402
 3084POPC   GL141329   4.122   9.177   5.810
 3084POPC   GL241330   4.152   8.817   5.951
 3084POPC   C1A41331   4.298   9.174   6.258
 3084POPC   D2A41332   4.166   8.937   6.638
 3084POPC   C3A41333   4.375   9.038   7.022
 3084POPC   C4A41334   4.198   9.101   7.443
 3084POPC   C1B41335   4.433   8.657   6.254
 3084POPC   C2B41336   4.406   8.468   6.653
 3084POPC   C3B41337   4.460   8.528   7.081
 3084POPC   C4B41338   4.636   8.799   7.384
 3085POPC   NC341339  32.056   0.676   5.454
 3085POPC   PO441340  32.545   0.136   5.512
 3085POPC   GL141341  32.537   0.524   5.767
 3085POPC   GL241342  32.208   0.465   5.898
 3085POPC   C1A41343  32.510   0.758   6.184
 3085POPC   D2A41344  32.538   0.571   6.587
 3085POPC   C3A41345  32.268   0.573   6.951
 3085POPC   C4A41346  32.508   0.499   7.336
 3085POPC   C1B41347  32.313   0.078   6.157
 3085POPC   C2B41348  32.161  44.917   6.559
 3085POPC   C3B41349  32.240   0.065   6.949
 3085POPC   C4B41350  32.244   0.053   7.355
 3086POPC   NC341351  10.912  27.157   5.747
 3086POPC   PO441352  11.454  27.530   5.501
 3086POPC   GL141353  11.282  27.499   5.878
 3086POPC   GL241354  10.958  27.669   5.812
 3086POPC   C1A41355  11.189  27.406   6.315
 3086POPC   D2A41356  10.830  27.371   6.598
 3086POPC   C3A41357  10.983  27.503   6.986
 3086POPC   C4A41358  11.387  27.449   7.195
 3086POPC   C1B41359  11.117  27.894   6.133
 3086POPC   C2B41360  11.404  27.900   6.454
 3086POPC   C3B41361  11.402  27.870   6.889
 3086POPC   C4B41362  11.144  27.900   7.268
 3087POPC   NC341363   9.311  41.421   5.468
 3087POPC   PO441364   8.634  41.299   5.454
 3087POPC   GL141365   8.938  41.377   5.837
 3087POPC   GL241366   9.026  41.750   5.975
 3087POPC   C1A41367   9.037  41.341   6.279
 3087POPC   D2A41368   9.211  41.653   6.504
 3087POPC   C3A41369   9.197  41.539   6.860
 3087POPC   C4A41370   8.999  41.364   7.188
 3087POPC   C1B41371   8.716  41.733   6.324
 3087POPC   C2B41372   8.696  41.544   6.725
 3087POPC   C3B41373   8.629  41.692   7.172
 3087POPC   C4B41374   8.627  41.644   7.611
 3088POPC   NC341375  12.993   3.659   5.340
 3088POPC   PO441376  12.691   3.154   5.393
 3088POPC   GL141377  12.612   3.504   5.678
 3088POPC   GL241378  12.476   3.238   5.858
 3088POPC   C1A41379  12.729   3.764   6.073
 3088POPC   D2A41380  13.012   3.669   6.458
 3088POPC   C3A41381  12.850   3.825   6.861
 3088POPC   C4A41382  12.843   3.816   7.274
 3088POPC   C1B41383  12.762   3.270   6.215
 3088POPC   C2B41384  12.764   3.278   6.665
 3088POPC   C3B41385  12.898   3.333   7.056
 3088POPC   C4B41386  12.636   3.329   7.398
 3089POPC   NC341387   0.412   7.753   5.317
 3089POPC   PO441388   0.406   8.409   5.319
 3089POPC   GL141389   0.517   8.242   5.746
 3089POPC   GL241390   0.787   7.991   5.692
 3089POPC   C1A41391   0.308   8.206   6.178
 3089POPC   D2A41392   0.296   8.063   6.606
 3089POPC   C3A41393   0.247   8.249   6.997
 3089POPC   C4A41394   0.272   8.185   7.437
 3089POPC   C1B41395   0.722   7.843   6.139
 3089POPC   C2B41396   0.631   7.695   6.560
 3089POPC   C3B41397   0.627   7.874   6.993
 3089POPC   C4B41398   0.524   7.755   7.449
 3090POPC   NC341399  33.993  13.137   5.696
 3090POPC   PO441400  33.555  12.719   5.540
 3090POPC   GL141401  33.788  12.691   5.916
 3090POPC   GL241402  34.160  12.652   5.897
 3090POPC   C1A41403  33.843  12.912   6.302
 3090POPC   D2A41404  33.979  13.115   6.686
 3090POPC   C3A41405  33.708  12.947   6.966
 3090POPC   C4A41406  33.623  12.915   7.375
 3090POPC   C1B41407  34.308  12.736   6.337
 3090POPC   C2B41408  34.111  12.622   6.738
 3090POPC   C3B41409  34.092  12.734   7.182
 3090POPC   C4B41410  34.198  13.124   7.307
 3091POPC   NC341411   5.646  31.050   5.468
 3091POPC   PO441412   5.571  31.786   5.544
 3091POPC   GL141413   5.849  31.509   5.817
 3091POPC   GL241414   6.194  31.396   5.780
 3091POPC   C1A41415   5.963  31.399   6.246
 3091POPC   D2A41416   5.828  31.548   6.623
 3091POPC   C3A41417   5.797  31.244   6.880
 3091POPC   C4A41418   5.920  31.200   7.246
 3091POPC   C1B41419   6.292  31.741   6.103
 3091POPC   C2B41420   6.371  31.889   6.506
 3091POPC   C3B41421   6.155  31.832   6.878
 3091POPC   C4B41422   6.187  31.628   7.225
 3092POPC   NC341423  25.671  18.471   5.425
 3092POPC   PO441424  25.001  18.548   5.650
 3092POPC   GL141425  25.421  18.485   5.843
 3092POPC   GL241426  25.480  18.126   5.782
 3092POPC   C1A41427  25.636  18.439   6.213
 3092POPC   D2A41428  25.311  18.556   6.504
 3092POPC   C3A41429  25.260  18.296   6.846
 3092POPC   C4A41430  25.531  18.142   7.122
 3092POPC   C1B41431  25.224  18.145   6.163
 3092POPC   C2B41432  24.893  18.167   6.457
 3092POPC   C3B41433  24.855  17.990   6.844
 3092POPC   C4B41434  24.994  18.059   7.244
 3093POPC   NC341435  12.042  24.708   5.077
 3093POPC   PO441436  12.340  24.434   5.593
 3093POPC   GL141437  12.128  24.480   5.910
 3093POPC   GL241438  11.789  24.449   5.767
 3093POPC   C1A41439  12.233  24.307   6.292
 3093POPC   D2A41440  12.240  24.493   6.661
 3093POPC   C3A41441  12.356  24.289   6.968
 3093POPC   C4A41442  12.207  24.436   7.352
 3093POPC   C1B41443  11.731  24.540   6.216
 3093POPC   C2B41444  11.750  24.354   6.616
 3093POPC   C3B41445  11.796  24.446   7.035
 3093POPC   C4B41446  11.654  24.240   7.404
 3094POPC   NC341447  22.222   8.546   5.215
 3094POPC   PO441448  21.843   9.068   5.538
 3094POPC   GL141449  22.126   8.942   5.857
 3094POPC   GL241450  21.915   8.723   6.077
 3094POPC   C1A41451  22.316   9.049   6.243
 3094POPC   D2A41452  22.452   8.858   6.634
 3094POPC   C3A41453  22.262   8.999   7.035
 3094POPC   C4A41454  22.301   8.867   7.481
 3094POPC   C1B41455  21.726   8.759   6.453
 3094POPC   C2B41456  21.823   9.058   6.746
 3094POPC   C3B41457  21.761   9.096   7.159
 3094POPC   C4B41458  21.798   8.775   7.415
 3095POPC   NC341459  20.044  25.399   5.484
 3095POPC   PO441460  19.509  24.963   5.441
 3095POPC   GL141461  19.742  25.144   5.786
 3095POPC   GL241462  20.081  25.053   5.892
 3095POPC   C1A41463  19.660  25.191   6.197
 3095POPC   D2A41464  19.457  25.409   6.511
 3095POPC   C3A41465  19.593  25.415   6.913
 3095POPC   C4A41466  19.683  25.101   7.214
 3095POPC   C1B41467  20.148  25.280   6.286
 3095POPC   C2B41468  19.926  25.092   6.649
 3095POPC   C3B41469  20.127  24.906   6.999
 3095POPC   C4B41470  20.142  25.030   7.405
 3096POPC   NC341471  36.716  35.715   5.379
 3096POPC   PO441472  37.132  36.259   5.363
 3096POPC   GL141473  37.005  36.052   5.703
 3096POPC   GL241474  36.720  36.236   5.814
 3096POPC   C1A41475  37.136  36.113   6.116
 3096POPC   D2A41476  36.992  36.333   6.463
 3096POPC   C3A41477  36.978  36.105   6.822
 3096POPC   C4A41478  37.021  36.186   7.240
 3096POPC   C1B41479  36.628  36.042   6.232
 3096POPC   C2B41480  36.460  35.953   6.648
 3096POPC   C3B41481  36.540  36.075   7.085
 3096POPC   C4B41482  36.557  36.104   7.517
 3097POPC   NC341483  35.832  33.346   5.352
 3097POPC   PO441484  36.094  32.795   5.229
 3097POPC   GL141485  36.101  32.844   5.706
 3097POPC   GL241486  36.472  32.742   5.783
 3097POPC   C1A41487  35.947  33.076   6.112
 3097POPC   D2A41488  36.173  33.232   6.511
 3097POPC   C3A41489  36.054  33.071   6.927
 3097POPC   C4A41490  36.083  33.295   7.299
 3097POPC   C1B41491  36.388  32.857   6.217
 3097POPC   C2B41492  36.267  32.702   6.602
 3097POPC   C3B41493  36.399  32.681   7.007
 3097POPC   C4B41494  36.280  32.814   7.389
 3098POPC   NC341495   1.393  16.222   5.422
 3098POPC   PO441496   0.847  15.790   5.303
 3098POPC   GL141497   1.017  15.858   5.732
 3098POPC   GL241498   0.989  16.192   5.797
 3098POPC   C1A41499   1.322  15.823   6.123
 3098POPC   D2A41500   1.583  16.040   6.468
 3098POPC   C3A41501   1.485  15.870   6.900
 3098POPC   C4A41502   1.428  15.976   7.325
 3098POPC   C1B41503   1.225  16.312   6.170
 3098POPC   C2B41504   1.332  16.472   6.598
 3098POPC   C3B41505   1.260  16.338   7.009
 3098POPC   C4B41506   1.002  16.236   7.406
 3099POPC   NC341507   0.475  13.413   5.467
 3099POPC   PO441508   0.775  13.987   5.613
 3099POPC   GL141509   0.542  13.696   5.904
 3099POPC   GL241510   0.217  13.477   5.894
 3099POPC   C1A41511   0.382  13.709   6.319
 3099POPC   D2A41512   0.127  13.594   6.657
 3099POPC   C3A41513   0.456  13.708   6.941
 3099POPC   C4A41514   0.713  13.499   7.218
 3099POPC   C1B41515   0.311  13.205   6.283
 3099POPC   C2B41516   0.468  13.201   6.719
 3099POPC   C3B41517   0.280  13.262   7.140
 3099POPC   C4B41518   0.215  13.283   7.594
 3100POPC   NC341519  44.288  18.273   5.275
 3100POPC   PO441520  44.888  17.928   5.317
 3100POPC   GL141521  44.702  18.222   5.623
 3100POPC   GL241522  44.933  18.104   5.845
 3100POPC   C1A41523  44.528  18.333   6.086
 3100POPC   D2A41524  44.231  18.248   6.461
 3100POPC   C3A41525  44.466  18.239   6.862
 3100POPC   C4A41526  44.449  18.312   7.298
 3100POPC   C1B41527  44.979  17.843   6.206
 3100POPC   C2B41528  44.875  17.970   6.617
 3100POPC   C3B41529  44.845  17.766   7.005
 3100POPC   C4B41530  44.823  17.954   7.409
 3101POPC   NC341531  40.449  20.697   5.547
 3101POPC   PO441532  41.094  20.474   5.553
 3101POPC   GL141533  40.853  20.466   5.905
 3101POPC   GL241534  40.688  20.163   5.787
 3101POPC   C1A41535  40.864  20.718   6.287
 3101POPC   D2A41536  40.834  21.006   6.655
 3101POPC   C3A41537  40.889  20.731   7.001
 3101POPC   C4A41538  40.621  20.891   7.306
 3101POPC   C1B41539  40.585  20.124   6.206
 3101POPC   C2B41540  40.537  20.412   6.556
 3101POPC   C3B41541  40.513  20.327   6.996
 3101POPC   C4B41542  40.748  20.386   7.383
 3102POPC   NC341543  40.447  15.874   5.263
 3102POPC   PO441544  40.932  16.222   5.504
 3102POPC   GL141545  40.684  15.985   5.809
 3102POPC   GL241546  40.979  15.808   5.906
 3102POPC   C1A41547  40.637  15.740   6.252
 3102POPC   D2A41548  40.766  15.576   6.659
 3102POPC   C3A41549  40.716  15.881   6.985
 3102POPC   C4A41550  40.784  16.261   7.175
 3102POPC   C1B41551  40.972  16.143   6.203
 3102POPC   C2B41552  41.014  16.095   6.628
 3102POPC   C3B41553  41.227  16.090   7.007
 3102POPC   C4B41554  41.289  16.083   7.422
 3103POPC   NC341555  27.362   0.063   5.697
 3103POPC   PO441556  27.610  44.508   5.419
 3103POPC   GL141557  27.654  44.546   5.844
 3103POPC   GL241558  27.293  44.562   5.825
 3103POPC   C1A41559  27.955  44.486   6.225
 3103POPC   D2A41560  28.145  44.374   6.671
 3103POPC   C3A41561  27.887  44.581   7.028
 3103POPC   C4A41562  27.617  44.978   7.100
 3103POPC   C1B41563  27.365  44.617   6.270
 3103POPC   C2B41564  27.212  44.905   6.593
 3103POPC   C3B41565  27.128  44.753   6.995
 3103POPC   C4B41566  27.270  44.764   7.392
 3104POPC   NC341567  32.740  31.062   5.439
 3104POPC   PO441568  33.195  30.520   5.278
 3104POPC   GL141569  33.181  30.642   5.731
 3104POPC   GL241570  32.853  30.771   5.835
 3104POPC   C1A41571  33.189  30.569   6.191
 3104POPC   D2A41572  33.057  30.617   6.621
 3104POPC   C3A41573  33.342  30.534   6.930
 3104POPC   C4A41574  33.254  30.242   7.257
 3104POPC   C1B41575  32.715  30.766   6.252
 3104POPC   C2B41576  32.745  31.029   6.617
 3104POPC   C3B41577  32.635  30.882   6.997
 3104POPC   C4B41578  32.875  30.547   7.143
 3105POPC   NC341579  12.740  15.126   5.201
 3105POPC   PO441580  12.449  15.441   5.727
 3105POPC   GL141581  12.841  15.481   6.025
 3105POPC   GL241582  12.924  15.124   6.199
 3105POPC   C1A41583  12.889  15.561   6.450
 3105POPC   D2A41584  12.726  15.204   6.687
 3105POPC   C3A41585  13.036  15.086   6.976
 3105POPC   C4A41586  13.107  15.340   7.331
 3105POPC   C1B41587  12.488  14.923   6.297
 3105POPC   C2B41588  12.379  14.654   6.652
 3105POPC   C3B41589  12.581  14.793   7.009
 3105POPC   C4B41590  12.721  14.996   7.363
 3106POPC   NC341591  35.156  22.116   5.382
 3106POPC   PO441592  35.765  22.166   5.180
 3106POPC   GL141593  35.634  22.236   5.669
 3106POPC   GL241594  35.278  22.294   5.846
 3106POPC   C1A41595  35.679  22.205   6.160
 3106POPC   D2A41596  35.506  22.322   6.602
 3106POPC   C3A41597  35.641  22.090   6.978
 3106POPC   C4A41598  35.260  21.946   7.185
 3106POPC   C1B41599  35.116  22.476   6.264
 3106POPC   C2B41600  35.068  22.558   6.739
 3106POPC   C3B41601  34.887  22.374   7.110
 3106POPC   C4B41602  34.971  22.199   7.508
 3107POPC   NC341603  43.705  27.066   5.472
 3107POPC   PO441604  44.004  26.597   5.063
 3107POPC   GL141605  43.889  26.474   5.643
 3107POPC   GL241606  43.841  26.789   5.915
 3107POPC   C1A41607  44.055  26.421   6.143
 3107POPC   D2A41608  43.836  26.598   6.535
 3107POPC   C3A41609  43.949  26.548   6.986
 3107POPC   C4A41610  43.630  26.694   7.282
 3107POPC   C1B41611  44.148  26.933   6.296
 3107POPC   C2B41612  44.246  26.889   6.766
 3107POPC   C3B41613  44.033  27.004   7.197
 3107POPC   C4B41614  44.123  26.878   7.631
 3108POPC   NC341615   1.394  10.541   5.297
 3108POPC   PO441616   0.763  10.379   5.409
 3108POPC   GL141617   1.088  10.499   5.745
 3108POPC   GL241618   1.400  10.301   5.754
 3108POPC   C1A41619   1.204  10.450   6.208
 3108POPC   D2A41620   1.172  10.622   6.607
 3108POPC   C3A41621   1.181  10.343   6.954
 3108POPC   C4A41622   0.909  10.461   7.270
 3108POPC   C1B41623   1.568  10.715   5.936
 3108POPC   C2B41624   1.599  10.835   6.378
 3108POPC   C3B41625   1.614  10.721   6.827
 3108POPC   C4B41626   1.355  10.767   7.165
 3109POPC   NC341627  17.869  42.921   5.397
 3109POPC   PO441628  18.397  43.341   5.256
 3109POPC   GL141629  18.290  43.216   5.715
 3109POPC   GL241630  18.358  42.898   5.853
 3109POPC   C1A41631  18.201  43.198   6.209
 3109POPC   D2A41632  18.259  43.313   6.668
 3109POPC   C3A41633  18.209  42.998   6.980
 3109POPC   C4A41634  18.093  43.083   7.385
 3109POPC   C1B41635  18.621  42.913   6.263
 3109POPC   C2B41636  18.555  42.739   6.698
 3109POPC   C3B41637  18.653  42.806   7.162
 3109POPC   C4B41638  18.547  42.878   7.615
 3110POPC   NC341639   8.878   1.790   5.382
 3110POPC   PO441640   8.855   2.426   5.495
 3110POPC   GL141641   8.838   2.281   5.905
 3110POPC   GL241642   8.855   1.935   5.880
 3110POPC   C1A41643   9.018   2.181   6.333
 3110POPC   D2A41644   9.084   2.043   6.766
 3110POPC   C3A41645   9.397   2.164   7.118
 3110POPC   C4A41646   9.546   1.891   7.493
 3110POPC   C1B41647   8.651   1.819   6.267
 3110POPC   C2B41648   8.681   1.698   6.709
 3110POPC   C3B41649   8.722   1.893   7.106
 3110POPC   C4B41650   9.043   1.973   7.437
 3111POPC   NC341651  34.130   6.058   5.382
 3111POPC   PO441652  33.483   5.744   5.418
 3111POPC   GL141653  33.728   5.736   5.794
 3111POPC   GL241654  33.998   6.002   5.866
 3111POPC   C1A41655  33.829   5.654   6.216
 3111POPC   D2A41656  33.882   5.937   6.553
 3111POPC   C3A41657  33.694   5.815   6.909
 3111POPC   C4A41658  33.681   5.661   7.304
 3111POPC   C1B41659  34.097   6.300   6.252
 3111POPC   C2B41660  34.103   6.357   6.757
 3111POPC   C3B41661  34.082   6.085   7.164
 3111POPC   C4B41662  34.243   6.081   7.622
 3112POPC   NC341663   7.250  13.590   5.559
 3112POPC   PO441664   7.690  13.990   5.217
 3112POPC   GL141665   7.771  13.791   5.636
 3112POPC   GL241666   8.073  13.926   5.770
 3112POPC   C1A41667   7.723  13.727   6.100
 3112POPC   D2A41668   7.444  13.870   6.405
 3112POPC   C3A41669   7.465  13.706   6.834
 3112POPC   C4A41670   7.220  13.776   7.207
 3112POPC   C1B41671   8.045  14.089   6.211
 3112POPC   C2B41672   7.927  13.949   6.670
 3112POPC   C3B41673   7.704  14.059   7.108
 3112POPC   C4B41674   7.658  13.930   7.553
 3113POPC   NC341675  27.111  20.336   5.373
 3113POPC   PO441676  27.007  19.670   5.481
 3113POPC   GL141677  26.803  19.797   5.875
 3113POPC   GL241678  26.838  20.160   5.888
 3113POPC   C1A41679  26.873  19.648   6.276
 3113POPC   D2A41680  27.021  19.834   6.647
 3113POPC   C3A41681  26.750  19.965   7.017
 3113POPC   C4A41682  26.937  19.941   7.465
 3113POPC   C1B41683  26.589  20.091   6.301
 3113POPC   C2B41684  26.514  20.328   6.713
 3113POPC   C3B41685  26.408  20.366   7.135
 3113POPC   C4B41686  26.430  20.088   7.407
 3114POPC   NC341687  18.133  41.934   5.240
 3114POPC   PO441688  18.276  42.605   5.446
 3114POPC   GL141689  18.016  42.508   5.800
 3114POPC   GL241690  18.285  42.394   5.984
 3114POPC   C1A41691  17.968  42.652   6.268
 3114POPC   D2A41692  17.957  42.406   6.658
 3114POPC   C3A41693  18.250  42.456   7.017
 3114POPC   C4A41694  18.169  42.580   7.428
 3114POPC   C1B41695  18.234  42.101   6.330
 3114POPC   C2B41696  18.328  42.010   6.766
 3114POPC   C3B41697  18.624  42.073   7.090
 3114POPC   C4B41698  18.622  42.358   7.401
 3115POPC   NC341699  12.571  10.256   5.572
 3115POPC   PO441700  12.784  10.799   5.207
 3115POPC   GL141701  12.976  10.745   5.643
 3115POPC   GL241702  12.662  10.747   5.784
 3115POPC   C1A41703  13.037  10.656   6.145
 3115POPC   D2A41704  13.146  10.423   6.544
 3115POPC   C3A41705  13.016  10.508   6.971
 3115POPC   C4A41706  13.095  10.244   7.316
 3115POPC   C1B41707  12.531  10.582   6.187
 3115POPC   C2B41708  12.664  10.608   6.596
 3115POPC   C3B41709  12.504  10.522   7.012
 3115POPC   C4B41710  12.728  10.586   7.392
 3116POPC   NC341711   1.230  13.870   5.486
 3116POPC   PO441712   0.958  13.210   5.448
 3116POPC   GL141713   1.028  13.510   5.793
 3116POPC   GL241714   1.370  13.588   5.868
 3116POPC   C1A41715   0.979  13.681   6.211
 3116POPC   D2A41716   0.818  13.564   6.601
 3116POPC   C3A41717   1.025  13.760   6.899
 3116POPC   C4A41718   1.096  13.802   7.317
 3116POPC   C1B41719   1.550  13.749   6.220
 3116POPC   C2B41720   1.457  13.816   6.654
 3116POPC   C3B41721   1.519  13.672   7.092
 3116POPC   C4B41722   1.515  13.680   7.591
 3117POPC   NC341723   7.174  28.778   5.627
 3117POPC   PO441724   6.761  29.171   5.179
 3117POPC   GL141725   6.540  29.205   5.573
 3117POPC   GL241726   6.836  29.146   5.768
 3117POPC   C1A41727   6.410  29.308   6.025
 3117POPC   D2A41728   6.579  29.457   6.425
 3117POPC   C3A41729   6.535  29.196   6.815
 3117POPC   C4A41730   6.615  29.146   7.267
 3117POPC   C1B41731   6.780  28.980   6.190
 3117POPC   C2B41732   6.880  28.809   6.584
 3117POPC   C3B41733   7.009  28.945   6.970
 3117POPC   C4B41734   6.931  28.780   7.356
 3118POPC   NC341735   4.833   1.945   5.384
 3118POPC   PO441736   5.335   1.561   5.385
 3118POPC   GL141737   5.358   1.678   5.791
 3118POPC   GL241738   5.166   1.993   5.818
 3118POPC   C1A41739   5.254   1.703   6.234
 3118POPC   D2A41740   4.888   1.789   6.513
 3118POPC   C3A41741   5.040   2.004   6.893
 3118POPC   C4A41742   5.275   2.077   7.271
 3118POPC   C1B41743   4.808   2.139   6.118
 3118POPC   C2B41744   4.802   2.320   6.555
 3118POPC   C3B41745   4.645   2.378   6.985
 3118POPC   C4B41746   4.874   2.331   7.373
 3119POPC   NC341747  16.955  11.460   5.191
 3119POPC   PO441748  16.464  11.595   5.662
 3119POPC   GL141749  16.772  11.685   5.951
 3119POPC   GL241750  17.072  11.494   5.900
 3119POPC   C1A41751  16.839  11.681   6.390
 3119POPC   D2A41752  17.008  11.504   6.747
 3119POPC   C3A41753  16.667  11.357   6.982
 3119POPC   C4A41754  16.489  11.146   7.341
 3119POPC   C1B41755  17.093  11.226   6.297
 3119POPC   C2B41756  17.083  10.993   6.714
 3119POPC   C3B41757  16.988  10.967   7.178
 3119POPC   C4B41758  16.859  10.929   7.630
 3120POPC   NC341759  29.450  12.360   4.964
 3120POPC   PO441760  29.242  11.846   5.241
 3120POPC   GL141761  29.288  11.869   5.750
 3120POPC   GL241762  28.968  11.851   5.944
 3120POPC   C1A41763  29.414  11.976   6.232
 3120POPC   D2A41764  29.161  12.051   6.621
 3120POPC   C3A41765  29.288  12.156   7.061
 3120POPC   C4A41766  29.271  12.511   7.363
 3120POPC   C1B41767  29.041  11.640   6.306
 3120POPC   C2B41768  28.875  11.576   6.660
 3120POPC   C3B41769  28.953  11.774   7.012
 3120POPC   C4B41770  28.865  11.713   7.387
 3121POPC   NC341771  28.559  43.478   5.460
 3121POPC   PO441772  28.223  42.918   5.406
 3121POPC   GL141773  28.170  43.045   5.802
 3121POPC   GL241774  28.164  43.409   5.802
 3121POPC   C1A41775  28.292  42.970   6.210
 3121POPC   D2A41776  28.694  42.939   6.400
 3121POPC   C3A41777  28.675  43.025   6.830
 3121POPC   C4A41778  28.522  43.034   7.255
 3121POPC   C1B41779  28.193  43.491   6.206
 3121POPC   C2B41780  28.534  43.490   6.501
 3121POPC   C3B41781  28.607  43.522   6.937
 3121POPC   C4B41782  28.316  43.478   7.304
 3122POPC   NC341783  24.182  43.875   5.565
 3122POPC   PO441784  24.570  43.443   5.347
 3122POPC   GL141785  24.570  43.584   5.801
 3122POPC   GL241786  24.440  43.891   6.009
 3122POPC   C1A41787  24.732  43.557   6.225
 3122POPC   D2A41788  24.591  43.889   6.563
 3122POPC   C3A41789  24.440  43.752   6.996
 3122POPC   C4A41790  24.484  43.491   7.393
 3122POPC   C1B41791  24.258  44.292   6.114
 3122POPC   C2B41792  24.151  44.327   6.533
 3122POPC   C3B41793  24.400  44.269   6.893
 3122POPC   C4B41794  24.341  44.343   7.316
 3123POPC   NC341795   6.337  35.235   5.462
 3123POPC   PO441796   5.673  35.119   5.508
 3123POPC   GL141797   5.856  35.376   5.823
 3123POPC   GL241798   6.138  35.222   5.926
 3123POPC   C1A41799   5.889  35.485   6.279
 3123POPC   D2A41800   5.851  35.272   6.674
 3123POPC   C3A41801   5.935  35.453   7.067
 3123POPC   C4A41802   5.737  35.718   7.321
 3123POPC   C1B41803   5.789  34.938   6.133
 3123POPC   C2B41804   5.603  34.838   6.553
 3123POPC   C3B41805   5.693  34.908   7.015
 3123POPC   C4B41806   6.061  34.994   7.278
 3124POPC   NC341807  10.912  13.554   5.513
 3124POPC   PO441808  11.556  13.723   5.512
 3124POPC   GL141809  11.276  13.631   5.859
 3124POPC   GL241810  11.153  13.275   5.887
 3124POPC   C1A41811  11.124  13.763   6.262
 3124POPC   D2A41812  10.999  13.594   6.639
 3124POPC   C3A41813  11.166  13.757   7.010
 3124POPC   C4A41814  11.394  13.787   7.396
 3124POPC   C1B41815  11.453  13.346   6.241
 3124POPC   C2B41816  11.511  13.486   6.661
 3124POPC   C3B41817  11.464  13.359   7.077
 3124POPC   C4B41818  11.765  13.420   7.376
 3125POPC   NC341819  44.875  24.138   5.391
 3125POPC   PO441820  44.560  23.450   5.523
 3125POPC   GL141821  44.563  23.785   5.770
 3125POPC   GL241822  44.919  23.814   5.773
 3125POPC   C1A41823  44.609  23.672   6.197
 3125POPC   D2A41824  44.355  23.639   6.561
 3125POPC   C3A41825  44.547  23.789   6.922
 3125POPC   C4A41826  44.522  24.203   7.034
 3125POPC   C1B41827   0.081  23.893   6.163
 3125POPC   C2B41828  44.960  23.771   6.580
 3125POPC   C3B41829   0.044  23.888   6.998
 3125POPC   C4B41830  44.904  24.104   7.352
 3126POPC   NC341831  26.204  44.857   5.248
 3126POPC   PO441832  25.670  44.457   5.378
 3126POPC   GL141833  26.026  44.493   5.734
 3126POPC   GL241834  26.295  44.770   5.758
 3126POPC   C1A41835  26.049  44.644   6.201
 3126POPC   D2A41836  25.979  44.939   6.553
 3126POPC   C3A41837  25.770  44.736   6.893
 3126POPC   C4A41838  25.812  44.560   7.306
 3126POPC   C1B41839  26.475  44.424   6.021
 3126POPC   C2B41840  26.437  44.363   6.478
 3126POPC   C3B41841  26.286  44.605   6.834
 3126POPC   C4B41842  26.331  44.540   7.259
 3127POPC   NC341843  34.447  39.804   5.122
 3127POPC   PO441844  33.864  40.201   5.380
 3127POPC   GL141845  33.725  40.127   5.794
 3127POPC   GL241846  34.022  40.188   5.972
 3127POPC   C1A41847  33.660  39.909   6.218
 3127POPC   D2A41848  33.848  39.673   6.608
 3127POPC   C3A41849  33.951  39.716   7.077
 3127POPC   C4A41850  33.698  39.726   7.499
 3127POPC   C1B41851  34.012  40.260   6.435
 3127POPC   C2B41852  33.783  40.168   6.826
 3127POPC   C3B41853  33.803  40.193   7.269
 3127POPC   C4B41854  33.907  40.309   7.668
 3128POPC   NC341855  34.853   3.000   5.444
 3128POPC   PO441856  34.316   2.570   5.457
 3128POPC   GL141857  34.504   2.784   5.805
 3128POPC   GL241858  34.314   3.065   5.897
 3128POPC   C1A41859  34.608   2.728   6.260
 3128POPC   D2A41860  34.457   2.852   6.673
 3128POPC   C3A41861  34.612   2.624   7.023
 3128POPC   C4A41862  34.558   2.611   7.449
 3128POPC   C1B41863  34.633   3.247   6.152
 3128POPC   C2B41864  34.829   3.237   6.541
 3128POPC   C3B41865  34.886   3.102   6.961
 3128POPC   C4B41866  34.644   3.076   7.313
 3129POPC   NC341867  21.476  36.296   5.389
 3129POPC   PO441868  21.622  35.669   5.576
 3129POPC   GL141869  21.512  35.938   5.896
 3129POPC   GL241870  21.405  36.296   5.888
 3129POPC   C1A41871  21.402  35.926   6.298
 3129POPC   D2A41872  21.345  35.712   6.675
 3129POPC   C3A41873  21.419  35.985   7.016
 3129POPC   C4A41874  21.220  36.242   7.326
 3129POPC   C1B41875  21.278  36.423   6.326
 3129POPC   C2B41876  21.059  36.355   6.747
 3129POPC   C3B41877  21.096  36.662   7.086
 3129POPC   C4B41878  21.279  36.835   7.465
 3130POPC   NC341879  30.487  36.124   5.277
 3130POPC   PO441880  31.056  35.899   5.531
 3130POPC   GL141881  30.807  36.203   5.748
 3130POPC   GL241882  30.430  36.186   5.806
 3130POPC   C1A41883  30.768  36.116   6.178
 3130POPC   D2A41884  30.494  36.119   6.509
 3130POPC   C3A41885  30.769  36.069   6.840
 3130POPC   C4A41886  30.931  36.154   7.220
 3130POPC   C1B41887  30.338  36.483   6.153
 3130POPC   C2B41888  30.341  36.637   6.572
 3130POPC   C3B41889  30.502  36.498   6.956
 3130POPC   C4B41890  30.386  36.153   7.220
 3131POPC   NC341891  34.432   2.169   5.259
 3131POPC   PO441892  35.032   1.872   5.435
 3131POPC   GL141893  34.645   1.938   5.756
 3131POPC   GL241894  34.313   2.135   5.762
 3131POPC   C1A41895  34.615   2.142   6.204
 3131POPC   D2A41896  34.444   2.219   6.644
 3131POPC   C3A41897  34.715   2.089   6.989
 3131POPC   C4A41898  34.839   2.122   7.402
 3131POPC   C1B41899  34.163   1.905   6.136
 3131POPC   C2B41900  34.171   1.676   6.521
 3131POPC   C3B41901  34.276   1.799   6.938
 3131POPC   C4B41902  34.462   1.797   7.396
 3132POPC   NC341903  28.220  41.760   5.406
 3132POPC   PO441904  28.421  41.118   5.385
 3132POPC   GL141905  28.495  41.431   5.744
 3132POPC   GL241906  28.204  41.637   5.894
 3132POPC   C1A41907  28.682  41.553   6.161
 3132POPC   D2A41908  28.760  41.403   6.587
 3132POPC   C3A41909  28.694  41.692   6.936
 3132POPC   C4A41910  28.457  41.748   7.343
 3132POPC   C1B41911  28.197  41.287   6.166
 3132POPC   C2B41912  28.310  41.149   6.583
 3132POPC   C3B41913  28.443  41.254   6.990
 3132POPC   C4B41914  28.195  41.205   7.359
 3133POPC   NC341915  43.587  28.817   5.528
 3133POPC   PO441916  43.196  29.352   5.452
 3133POPC   GL141917  43.115  29.109   5.828
 3133POPC   GL241918  43.212  28.725   5.858
 3133POPC   C1A41919  43.042  29.320   6.232
 3133POPC   D2A41920  42.899  29.234   6.648
 3133POPC   C3A41921  43.167  29.393   7.019
 3133POPC   C4A41922  43.134  29.395   7.515
 3133POPC   C1B41923  43.374  28.921   6.244
 3133POPC   C2B41924  43.338  28.958   6.680
 3133POPC   C3B41925  43.543  28.843   7.037
 3133POPC   C4B41926  43.196  28.964   7.271
 3134POPC   NC341927  28.754   6.674   5.531
 3134POPC   PO441928  29.379   6.567   5.330
 3134POPC   GL141929  29.214   6.472   5.728
 3134POPC   GL241930  29.179   6.792   5.802
 3134POPC   C1A41931  29.040   6.411   6.155
 3134POPC   D2A41932  28.920   6.150   6.511
 3134POPC   C3A41933  28.956   6.385   6.887
 3134POPC   C4A41934  29.231   6.621   7.109
 3134POPC   C1B41935  28.903   6.933   6.137
 3134POPC   C2B41936  28.909   6.813   6.569
 3134POPC   C3B41937  28.822   6.909   6.987
 3134POPC   C4B41938  28.746   6.653   7.361
 3135POPC   NC341939  23.753  11.522   5.316
 3135POPC   PO441940  23.455  10.936   5.375
 3135POPC   GL141941  23.694  11.129   5.736
 3135POPC   GL241942  23.877  11.444   5.802
 3135POPC   C1A41943  23.652  11.218   6.190
 3135POPC   D2A41944  23.842  11.306   6.564
 3135POPC   C3A41945  23.591  11.134   6.841
 3135POPC   C4A41946  23.763  11.168   7.212
 3135POPC   C1B41947  24.072  11.564   6.192
 3135POPC   C2B41948  24.289  11.581   6.625
 3135POPC   C3B41949  24.159  11.508   7.070
 3135POPC   C4B41950  23.920  11.581   7.472
 3136POPC   NC341951  17.794   1.959   5.431
 3136POPC   PO441952  18.447   2.273   5.252
 3136POPC   GL141953  18.294   2.052   5.664
 3136POPC   GL241954  18.154   2.305   5.848
 3136POPC   C1A41955  18.396   1.965   6.178
 3136POPC   D2A41956  18.555   2.019   6.656
 3136POPC   C3A41957  18.301   1.816   7.005
 3136POPC   C4A41958  17.821   1.717   7.056
 3136POPC   C1B41959  17.920   2.181   6.221
 3136POPC   C2B41960  18.054   2.146   6.654
 3136POPC   C3B41961  18.264   2.337   7.030
 3136POPC   C4B41962  18.706   2.248   7.152
 3137POPC   NC341963   9.317  33.765   5.357
 3137POPC   PO441964   9.851  34.128   5.111
 3137POPC   GL141965   9.826  33.822   5.455
 3137POPC   GL241966   9.715  34.083   5.623
 3137POPC   C1A41967   9.723  33.673   5.917
 3137POPC   D2A41968   9.655  33.804   6.369
 3137POPC   C3A41969   9.653  33.633   6.798
 3137POPC   C4A41970   9.454  33.609   7.189
 3137POPC   C1B41971   9.875  34.153   6.043
 3137POPC   C2B41972   9.960  34.190   6.489
 3137POPC   C3B41973   9.743  34.156   6.878
 3137POPC   C4B41974   9.836  34.007   7.283
 3138POPC   NC341975  37.502  23.859   5.498
 3138POPC   PO441976  36.838  23.823   5.297
 3138POPC   GL141977  36.938  23.747   5.750
 3138POPC   GL241978  37.172  23.474   5.811
 3138POPC   C1A41979  36.880  23.744   6.228
 3138POPC   D2A41980  36.865  24.022   6.618
 3138POPC   C3A41981  36.861  23.846   7.047
 3138POPC   C4A41982  36.635  23.623   7.352
 3138POPC   C1B41983  37.322  23.497   6.261
 3138POPC   C2B41984  37.161  23.534   6.698
 3138POPC   C3B41985  37.193  23.386   7.145
 3138POPC   C4B41986  37.159  23.522   7.599
 3139POPC   NC341987  26.261  35.385   5.708
 3139POPC   PO441988  25.699  35.163   5.345
 3139POPC   GL141989  25.779  35.271   5.765
 3139POPC   GL241990  25.813  35.667   5.769
 3139POPC   C1A41991  25.940  35.192   6.225
 3139POPC   D2A41992  25.877  35.349   6.629
 3139POPC   C3A41993  26.177  35.405   6.976
 3139POPC   C4A41994  26.404  35.781   7.152
 3139POPC   C1B41995  25.970  35.746   6.210
 3139POPC   C2B41996  26.089  35.853   6.651
 3139POPC   C3B41997  25.902  35.824   7.073
 3139POPC   C4B41998  25.907  35.908   7.520
 3140POPC   NC341999  42.860  39.381   5.589
 3140POPC   PO442000  42.351  39.692   5.207
 3140POPC   GL142001  42.323  39.404   5.646
 3140POPC   GL242002  42.540  39.127   5.893
 3140POPC   C1A42003  42.230  39.408   6.122
 3140POPC   D2A42004  42.436  39.196   6.466
 3140POPC   C3A42005  42.315  39.359   6.843
 3140POPC   C4A42006  42.141  39.273   7.264
 3140POPC   C1B42007  42.797  38.909   6.243
 3140POPC   C2B42008  42.775  38.863   6.711
 3140POPC   C3B42009  42.601  39.048   7.117
 3140POPC   C4B42010  42.374  38.884   7.474
 3141POPC   NC342011  38.675   2.379   5.560
 3141POPC   PO442012  38.447   2.982   5.347
 3141POPC   GL142013  38.570   2.870   5.766
 3141POPC   GL242014  38.314   2.657   5.814
 3141POPC   C1A42015  38.474   2.959   6.219
 3141POPC   D2A42016  38.245   2.807   6.591
 3141POPC   C3A42017  38.495   2.830   6.992
 3141POPC   C4A42018  38.376   2.923   7.417
 3141POPC   C1B42019  38.383   2.447   6.201
 3141POPC   C2B42020  38.281   2.276   6.582
 3141POPC   C3B42021  38.165   2.438   6.952
 3141POPC   C4B42022  38.391   2.409   7.310
 3142POPC   NC342023   9.005  15.437   5.157
 3142POPC   PO442024   8.686  15.737   5.669
 3142POPC   GL142025   8.972  15.888   5.941
 3142POPC   GL242026   9.171  16.077   5.723
 3142POPC   C1A42027   8.850  15.938   6.323
 3142POPC   D2A42028   8.754  15.711   6.687
 3142POPC   C3A42029   8.833  16.056   6.923
 3142POPC   C4A42030   8.951  16.178   7.283
 3142POPC   C1B42031   9.264  16.239   6.146
 3142POPC   C2B42032   9.191  16.190   6.601
 3142POPC   C3B42033   9.384  16.093   7.013
 3142POPC   C4B42034   9.330  15.898   7.450
 3143POPC   NC342035  27.785   8.947   5.417
 3143POPC   PO442036  27.188   8.645   5.346
 3143POPC   GL142037  27.276   8.961   5.700
 3143POPC   GL242038  27.614   8.915   5.885
 3143POPC   C1A42039  27.231   9.121   6.127
 3143POPC   D2A42040  27.384   8.864   6.495
 3143POPC   C3A42041  27.367   9.052   6.878
 3143POPC   C4A42042  27.299   9.078   7.291
 3143POPC   C1B42043  27.745   9.153   6.247
 3143POPC   C2B42044  27.861   9.042   6.655
 3143POPC   C3B42045  27.749   8.695   6.878
 3143POPC   C4B42046  27.759   8.896   7.244
 3144POPC   NC342047  28.256  36.441   5.649
 3144POPC   PO442048  28.108  35.841   5.372
 3144POPC   GL142049  27.993  36.014   5.760
 3144POPC   GL242050  28.012  35.741   5.938
 3144POPC   C1A42051  27.894  36.240   6.168
 3144POPC   D2A42052  27.906  36.125   6.626
 3144POPC   C3A42053  28.220  36.283   6.920
 3144POPC   C4A42054  28.536  36.037   7.130
 3144POPC   C1B42055  28.277  35.917   6.268
 3144POPC   C2B42056  28.343  35.821   6.687
 3144POPC   C3B42057  28.112  35.781   7.060
 3144POPC   C4B42058  28.256  35.701   7.463
 3145POPC   NC342059   7.867  24.785   5.599
 3145POPC   PO442060   8.147  24.277   5.208
 3145POPC   GL142061   8.179  24.375   5.699
 3145POPC   GL242062   8.349  24.684   5.833
 3145POPC   C1A42063   7.981  24.433   6.176
 3145POPC   D2A42064   7.879  24.276   6.637
 3145POPC   C3A42065   8.019  24.502   7.010
 3145POPC   C4A42066   8.276  24.339   7.329
 3145POPC   C1B42067   8.479  24.414   6.222
 3145POPC   C2B42068   8.401  24.446   6.676
 3145POPC   C3B42069   8.515  24.683   7.059
 3145POPC   C4B42070   8.460  24.765   7.547
 3146POPC   NC342071  21.286   8.199   5.273
 3146POPC   PO442072  21.934   8.097   5.579
 3146POPC   GL142073  21.539   8.215   5.766
 3146POPC   GL242074  21.206   8.041   5.770
 3146POPC   C1A42075  21.478   8.413   6.156
 3146POPC   D2A42076  21.523   8.295   6.579
 3146POPC   C3A42077  21.257   8.256   6.939
 3146POPC   C4A42078  21.532   8.356   7.251
 3146POPC   C1B42079  21.385   7.908   6.181
 3146POPC   C2B42080  21.297   7.823   6.612
 3146POPC   C3B42081  21.437   7.777   7.041
 3146POPC   C4B42082  21.317   7.914   7.423
 3147POPC   NC342083   2.711   6.887   5.197
 3147POPC   PO442084   3.074   6.445   5.487
 3147POPC   GL142085   2.772   6.550   5.790
 3147POPC   GL242086   2.581   6.846   5.699
 3147POPC   C1A42087   2.781   6.612   6.218
 3147POPC   D2A42088   2.801   6.916   6.514
 3147POPC   C3A42089   2.972   6.765   6.891
 3147POPC   C4A42090   3.039   6.433   7.179
 3147POPC   C1B42091   2.393   6.949   6.122
 3147POPC   C2B42092   2.272   6.704   6.474
 3147POPC   C3B42093   2.477   6.644   6.858
 3147POPC   C4B42094   2.620   6.720   7.286
 3148POPC   NC342095   9.775  34.542   5.318
 3148POPC   PO442096   9.167  34.411   5.359
 3148POPC   GL142097   9.500  34.506   5.775
 3148POPC   GL242098   9.855  34.580   5.810
 3148POPC   C1A42099   9.554  34.500   6.245
 3148POPC   D2A42100   9.458  34.687   6.631
 3148POPC   C3A42101   9.315  34.430   6.945
 3148POPC   C4A42102   9.513  34.386   7.360
 3148POPC   C1B42103  10.052  34.642   6.221
 3148POPC   C2B42104  10.020  34.678   6.665
 3148POPC   C3B42105   9.798  34.662   7.028
 3148POPC   C4B42106   9.977  34.663   7.402
 3149POPC   NC342107  43.742   1.651   4.941
 3149POPC   PO442108  43.841   2.256   5.365
 3149POPC   GL142109  43.972   2.034   5.726
 3149POPC   GL242110  43.978   1.692   5.689
 3149POPC   C1A42111  43.866   2.056   6.137
 3149POPC   D2A42112  43.776   2.280   6.521
 3149POPC   C3A42113  43.976   2.198   6.929
 3149POPC   C4A42114  43.723   2.210   7.309
 3149POPC   C1B42115  44.095   1.591   6.111
 3149POPC   C2B42116  43.937   1.748   6.537
 3149POPC   C3B42117  43.636   1.825   6.866
 3149POPC   C4B42118  43.883   1.741   7.239
 3150POPC   NC342119  14.072  44.409   5.252
 3150POPC   PO442120  13.606  44.862   5.401
 3150POPC   GL142121  13.640  44.612   5.784
 3150POPC   GL242122  13.690  44.277   5.604
 3150POPC   C1A42123  13.597  44.674   6.282
 3150POPC   D2A42124  13.691  44.674   6.781
 3150POPC   C3A42125  13.584  44.938   7.167
 3150POPC   C4A42126  13.257   0.089   7.476
 3150POPC   C1B42127  13.705  44.190   6.058
 3150POPC   C2B42128  13.837  44.276   6.485
 3150POPC   C3B42129  14.003  44.290   6.888
 3150POPC   C4B42130  13.803  44.452   7.249
 3151POPC   NC342131   7.626  36.321   5.458
 3151POPC   PO442132   6.983  36.091   5.624
 3151POPC   GL142133   7.293  36.191   5.893
 3151POPC   GL242134   7.531  35.956   5.817
 3151POPC   C1A42135   7.446  36.273   6.330
 3151POPC   D2A42136   7.519  36.100   6.730
 3151POPC   C3A42137   7.374  36.287   7.113
 3151POPC   C4A42138   7.579  36.099   7.494
 3151POPC   C1B42139   7.368  35.777   6.224
 3151POPC   C2B42140   7.261  35.648   6.670
 3151POPC   C3B42141   7.380  35.772   7.122
 3151POPC   C4B42142   7.574  35.557   7.513
 3152POPC   NC342143  37.701  21.218   5.344
 3152POPC   PO442144  37.565  21.830   5.389
 3152POPC   GL142145  37.528  21.600   5.756
 3152POPC   GL242146  37.867  21.508   5.843
 3152POPC   C1A42147  37.416  21.390   6.139
 3152POPC   D2A42148  37.666  21.382   6.513
 3152POPC   C3A42149  37.438  21.262   6.857
 3152POPC   C4A42150  37.576  21.220   7.257
 3152POPC   C1B42151  37.797  21.787   6.211
 3152POPC   C2B42152  37.938  21.803   6.647
 3152POPC   C3B42153  37.926  21.515   7.015
 3152POPC   C4B42154  37.813  21.631   7.446
 3153POPC   NC342155  21.797  12.754   5.463
 3153POPC   PO442156  22.402  13.046   5.280
 3153POPC   GL142157  22.218  12.903   5.713
 3153POPC   GL242158  21.987  13.140   5.910
 3153POPC   C1A42159  22.326  12.867   6.148
 3153POPC   D2A42160  22.492  12.730   6.510
 3153POPC   C3A42161  22.279  12.982   6.800
 3153POPC   C4A42162  22.350  12.943   7.206
 3153POPC   C1B42163  21.817  12.795   6.132
 3153POPC   C2B42164  21.983  12.624   6.506
 3153POPC   C3B42165  21.871  12.708   6.912
 3153POPC   C4B42166  21.532  12.670   7.149
 3154POPC   NC342167  13.684   9.149   4.998
 3154POPC   PO442168  13.327   8.875   5.344
 3154POPC   GL142169  13.577   8.863   5.751
 3154POPC   GL242170  13.930   8.776   5.781
 3154POPC   C1A42171  13.651   9.028   6.190
 3154POPC   D2A42172  13.401   9.097   6.577
 3154POPC   C3A42173  13.600   8.989   6.982
 3154POPC   C4A42174  13.596   9.255   7.345
 3154POPC   C1B42175  13.846   8.551   6.184
 3154POPC   C2B42176  13.619   8.643   6.570
 3154POPC   C3B42177  13.661   8.479   6.988
 3154POPC   C4B42178  14.038   8.339   7.177
 3155POPC   NC342179  12.711  27.563   5.336
 3155POPC   PO442180  13.301  27.547   5.626
 3155POPC   GL142181  12.946  27.366   5.754
 3155POPC   GL242182  12.737  27.670   5.826
 3155POPC   C1A42183  12.866  27.258   6.159
 3155POPC   D2A42184  12.887  27.458   6.558
 3155POPC   C3A42185  12.810  27.271   6.939
 3155POPC   C4A42186  12.798  27.547   7.279
 3155POPC   C1B42187  12.924  27.810   6.187
 3155POPC   C2B42188  12.749  27.992   6.561
 3155POPC   C3B42189  12.879  28.056   6.993
 3155POPC   C4B42190  13.139  27.929   7.339
 3156POPC   NC342191  36.073  39.531   5.141
 3156POPC   PO442192  36.149  40.139   5.187
 3156POPC   GL142193  36.109  40.146   5.689
 3156POPC   GL242194  36.251  39.854   5.885
 3156POPC   C1A42195  36.053  40.265   6.146
 3156POPC   D2A42196  36.189  40.448   6.553
 3156POPC   C3A42197  36.143  40.210   6.943
 3156POPC   C4A42198  36.088  40.426   7.325
 3156POPC   C1B42199  36.468  39.622   6.216
 3156POPC   C2B42200  36.360  39.638   6.632
 3156POPC   C3B42201  36.402  39.591   7.027
 3156POPC   C4B42202  36.293  39.897   7.349
 3157POPC   NC342203  41.181   4.820   5.502
 3157POPC   PO442204  41.339   5.465   5.447
 3157POPC   GL142205  41.615   5.359   5.815
 3157POPC   GL242206  41.538   5.017   5.837
 3157POPC   C1A42207  41.597   5.325   6.276
 3157POPC   D2A42208  41.572   5.444   6.697
 3157POPC   C3A42209  41.484   5.170   7.050
 3157POPC   C4A42210  41.447   5.341   7.457
 3157POPC   C1B42211  41.180   5.073   6.132
 3157POPC   C2B42212  41.188   5.061   6.592
 3157POPC   C3B42213  41.162   4.748   6.928
 3157POPC   C4B42214  41.324   4.760   7.342
 3158POPC   NC342215  13.485  42.138   5.314
 3158POPC   PO442216  14.049  42.444   5.264
 3158POPC   GL142217  13.887  42.184   5.663
 3158POPC   GL242218  13.590  41.946   5.758
 3158POPC   C1A42219  13.733  42.281   6.118
 3158POPC   D2A42220  13.889  42.459   6.497
 3158POPC   C3A42221  13.679  42.387   6.866
 3158POPC   C4A42222  13.498  42.633   7.118
 3158POPC   C1B42223  13.313  41.974   6.111
 3158POPC   C2B42224  13.317  42.207   6.533
 3158POPC   C3B42225  13.185  42.222   6.994
 3158POPC   C4B42226  13.268  41.980   7.379
 3159POPC   NC342227  36.891  14.644   5.395
 3159POPC   PO442228  37.030  13.979   5.264
 3159POPC   GL142229  36.817  14.123   5.640
 3159POPC   GL242230  37.136  14.170   5.766
 3159POPC   C1A42231  36.545  14.242   6.030
 3159POPC   D2A42232  36.588  14.579   6.371
 3159POPC   C3A42233  36.497  14.480   6.807
 3159POPC   C4A42234  36.597  14.344   7.220
 3159POPC   C1B42235  37.034  14.386   6.127
 3159POPC   C2B42236  37.169  14.426   6.546
 3159POPC   C3B42237  37.019  14.381   6.938
 3159POPC   C4B42238  37.097  14.100   7.266
 3160POPC   NC342239  38.045   2.753   5.195
 3160POPC   PO442240  37.470   2.989   5.191
 3160POPC   GL142241  37.485   2.841   5.654
 3160POPC   GL242242  37.831   2.818   5.693
 3160POPC   C1A42243  37.464   3.002   6.101
 3160POPC   D2A42244  37.726   3.008   6.457
 3160POPC   C3A42245  37.621   2.998   6.870
 3160POPC   C4A42246  38.018   3.092   7.092
 3160POPC   C1B42247  37.931   2.688   6.131
 3160POPC   C2B42248  37.816   2.503   6.541
 3160POPC   C3B42249  37.647   2.444   6.926
 3160POPC   C4B42250  37.746   2.699   7.287
 3161POPC   NC342251  41.086  31.196   5.231
 3161POPC   PO442252  40.573  31.612   5.482
 3161POPC   GL142253  40.910  31.552   5.758
 3161POPC   GL242254  41.045  31.236   5.790
 3161POPC   C1A42255  40.849  31.498   6.198
 3161POPC   D2A42256  40.674  31.289   6.549
 3161POPC   C3A42257  40.697  31.577   6.905
 3161POPC   C4A42258  40.976  31.774   7.212
 3161POPC   C1B42259  41.248  31.161   6.200
 3161POPC   C2B42260  41.268  31.036   6.644
 3161POPC   C3B42261  40.954  31.139   6.944
 3161POPC   C4B42262  40.510  31.132   7.061
 3162POPC   NC342263  25.422  34.696   5.515
 3162POPC   PO442264  24.972  34.087   5.545
 3162POPC   GL142265  25.184  34.374   5.840
 3162POPC   GL242266  25.548  34.256   5.780
 3162POPC   C1A42267  25.270  34.699   6.172
 3162POPC   D2A42268  25.468  35.029   6.425
 3162POPC   C3A42269  25.286  35.038   6.827
 3162POPC   C4A42270  25.483  34.872   7.216
 3162POPC   C1B42271  25.552  34.261   6.228
 3162POPC   C2B42272  25.542  34.530   6.599
 3162POPC   C3B42273  25.249  34.529   6.919
 3162POPC   C4B42274  25.153  34.444   7.336
 3163POPC   NC342275   1.653  23.962   5.600
 3163POPC   PO442276   2.241  23.982   5.610
 3163POPC   GL142277   2.040  23.870   5.944
 3163POPC   GL242278   1.975  23.549   5.830
 3163POPC   C1A42279   2.119  23.779   6.359
 3163POPC   D2A42280   2.108  23.525   6.722
 3163POPC   C3A42281   1.982  23.750   7.085
 3163POPC   C4A42282   2.125  23.707   7.504
 3163POPC   C1B42283   1.662  23.501   6.163
 3163POPC   C2B42284   1.633  23.302   6.576
 3163POPC   C3B42285   1.724  23.314   7.012
 3163POPC   C4B42286   1.668  23.483   7.381
 3164POPC   NC342287  23.789   7.698   5.380
 3164POPC   PO442288  24.074   7.060   5.421
 3164POPC   GL142289  23.946   7.358   5.753
 3164POPC   GL242290  24.055   7.718   5.817
 3164POPC   C1A42291  23.652   7.413   6.093
 3164POPC   D2A42292  23.404   7.617   6.417
 3164POPC   C3A42293  23.521   7.461   6.809
 3164POPC   C4A42294  23.565   7.278   7.201
 3164POPC   C1B42295  24.149   7.534   6.191
 3164POPC   C2B42296  23.949   7.310   6.494
 3164POPC   C3B42297  24.058   7.376   6.876
 3164POPC   C4B42298  24.306   7.478   7.206
 3165POPC   NC342299   1.258  36.706   5.448
 3165POPC   PO442300   0.973  37.321   5.408
 3165POPC   GL142301   1.131  37.152   5.835
 3165POPC   GL242302   1.003  36.818   5.921
 3165POPC   C1A42303   1.164  37.121   6.319
 3165POPC   D2A42304   1.022  36.992   6.736
 3165POPC   C3A42305   1.406  36.954   6.986
 3165POPC   C4A42306   1.403  36.948   7.401
 3165POPC   C1B42307   1.145  36.591   6.311
 3165POPC   C2B42308   1.250  36.535   6.745
 3165POPC   C3B42309   1.114  36.560   7.200
 3165POPC   C4B42310   1.237  36.521   7.676
 3166POPC   NC342311  16.596  32.672   5.243
 3166POPC   PO442312  16.713  33.324   5.451
 3166POPC   GL142313  16.744  33.072   5.759
 3166POPC   GL242314  16.963  32.827   5.595
 3166POPC   C1A42315  16.703  33.171   6.198
 3166POPC   D2A42316  16.796  33.360   6.595
 3166POPC   C3A42317  16.801  33.103   6.977
 3166POPC   C4A42318  16.531  33.041   7.344
 3166POPC   C1B42319  16.988  32.749   6.051
 3166POPC   C2B42320  16.908  32.804   6.510
 3166POPC   C3B42321  16.965  32.587   6.908
 3166POPC   C4B42322  16.941  32.740   7.325
 3167POPC   NC342323  30.609  20.243   5.429
 3167POPC   PO442324  31.206  20.405   5.553
 3167POPC   GL142325  30.838  20.578   5.747
 3167POPC   GL242326  30.540  20.760   5.554
 3167POPC   C1A42327  30.799  20.507   6.186
 3167POPC   D2A42328  30.646  20.270   6.511
 3167POPC   C3A42329  30.815  20.473   6.868
 3167POPC   C4A42330  30.557  20.509   7.227
 3167POPC   C1B42331  30.402  20.745   5.981
 3167POPC   C2B42332  30.537  20.887   6.392
 3167POPC   C3B42333  30.499  20.879   6.822
 3167POPC   C4B42334  30.587  21.066   7.200
 3168POPC   NC342335  41.658  12.047   5.388
 3168POPC   PO442336  40.965  11.981   5.267
 3168POPC   GL142337  41.193  12.040   5.700
 3168POPC   GL242338  41.420  12.315   5.808
 3168POPC   C1A42339  41.359  11.882   6.109
 3168POPC   D2A42340  41.315  12.006   6.559
 3168POPC   C3A42341  41.510  11.839   6.929
 3168POPC   C4A42342  41.464  11.893   7.370
 3168POPC   C1B42343  41.646  12.310   6.231
 3168POPC   C2B42344  41.704  12.436   6.700
 3168POPC   C3B42345  41.555  12.323   7.132
 3168POPC   C4B42346  41.752  12.292   7.590
 3169POPC   NC342347  41.206  39.158   5.497
 3169POPC   PO442348  40.535  39.451   5.413
 3169POPC   GL142349  40.766  39.391   5.736
 3169POPC   GL242350  40.809  39.059   5.852
 3169POPC   C1A42351  40.784  39.459   6.166
 3169POPC   D2A42352  40.990  39.414   6.520
 3169POPC   C3A42353  40.828  39.547   6.868
 3169POPC   C4A42354  40.706  39.627   7.281
 3169POPC   C1B42355  40.846  38.938   6.321
 3169POPC   C2B42356  40.903  38.986   6.800
 3169POPC   C3B42357  40.914  38.746   7.236
 3169POPC   C4B42358  41.060  38.658   7.673
 3170POPC   NC342359  11.307   8.270   5.035
 3170POPC   PO442360  11.346   7.936   5.577
 3170POPC   GL142361  11.538   8.288   5.803
 3170POPC   GL242362  11.211   8.355   5.909
 3170POPC   C1A42363  11.518   8.578   6.210
 3170POPC   D2A42364  11.346   8.532   6.629
 3170POPC   C3A42365  11.511   8.497   7.053
 3170POPC   C4A42366  11.321   8.478   7.469
 3170POPC   C1B42367  11.313   8.096   6.253
 3170POPC   C2B42368  11.200   8.023   6.675
 3170POPC   C3B42369  11.108   8.165   7.085
 3170POPC   C4B42370  11.112   7.817   7.395
 3171POPC   NC342371   7.417  10.023   5.197
 3171POPC   PO442372   7.321  10.608   5.482
 3171POPC   GL142373   7.288  10.456   5.876
 3171POPC   GL242374   7.517  10.190   5.837
 3171POPC   C1A42375   7.322  10.490   6.329
 3171POPC   D2A42376   7.693  10.656   6.561
 3171POPC   C3A42377   7.578  10.736   6.984
 3171POPC   C4A42378   7.227  10.869   7.222
 3171POPC   C1B42379   7.754  10.229   6.223
 3171POPC   C2B42380   7.619  10.146   6.646
 3171POPC   C3B42381   7.310  10.268   6.941
 3171POPC   C4B42382   7.252  10.224   7.383
 3172POPC   NC342383   3.971   1.232   5.487
 3172POPC   PO442384   4.610   1.168   5.537
 3172POPC   GL142385   4.460   1.039   5.930
 3172POPC   GL242386   4.214   1.295   5.932
 3172POPC   C1A42387   4.419   1.083   6.401
 3172POPC   D2A42388   4.452   1.460   6.655
 3172POPC   C3A42389   4.394   1.436   7.094
 3172POPC   C4A42390   4.383   1.040   7.283
 3172POPC   C1B42391   3.967   1.012   6.127
 3172POPC   C2B42392   3.908   0.957   6.536
 3172POPC   C3B42393   3.978   1.204   6.892
 3172POPC   C4B42394   3.904   1.136   7.303
 3173POPC   NC342395  35.574   8.989   5.453
 3173POPC   PO442396  35.560   8.380   5.647
 3173POPC   GL142397  35.314   8.741   5.829
 3173POPC   GL242398  35.262   9.143   5.834
 3173POPC   C1A42399  35.185   8.780   6.248
 3173POPC   D2A42400  35.096   8.953   6.660
 3173POPC   C3A42401  35.301   8.836   7.068
 3173POPC   C4A42402  35.698   8.630   7.127
 3173POPC   C1B42403  35.018   9.286   6.203
 3173POPC   C2B42404  35.060   9.470   6.598
 3173POPC   C3B42405  35.165   9.324   7.011
 3173POPC   C4B42406  35.651   9.342   7.107
 3174POPC   NC342407  11.949  38.957   5.561
 3174POPC   PO442408  12.350  39.370   5.342
 3174POPC   GL142409  12.200  39.405   5.760
 3174POPC   GL242410  11.876  39.448   5.736
 3174POPC   C1A42411  12.340  39.251   6.190
 3174POPC   D2A42412  12.216  38.972   6.520
 3174POPC   C3A42413  12.415  39.087   6.934
 3174POPC   C4A42414  12.180  38.942   7.289
 3174POPC   C1B42415  11.830  39.245   6.148
 3174POPC   C2B42416  11.929  39.390   6.539
 3174POPC   C3B42417  11.911  39.167   6.898
 3174POPC   C4B42418  11.690  39.185   7.248
 3175POPC   NC342419  36.137  21.927   5.337
 3175POPC   PO442420  36.087  22.563   5.627
 3175POPC   GL142421  36.165  22.192   5.835
 3175POPC   GL242422  36.416  21.946   5.778
 3175POPC   C1A42423  36.285  22.247   6.254
 3175POPC   D2A42424  36.011  22.281   6.603
 3175POPC   C3A42425  36.166  22.352   6.997
 3175POPC   C4A42426  35.907  22.283   7.388
 3175POPC   C1B42427  36.429  21.752   6.180
 3175POPC   C2B42428  36.340  21.866   6.613
 3175POPC   C3B42429  36.440  21.656   6.992
 3175POPC   C4B42430  36.132  21.874   7.202
 3176POPC   NC342431  37.492   3.586   5.196
 3176POPC   PO442432  36.863   3.614   5.370
 3176POPC   GL142433  36.973   3.582   5.797
 3176POPC   GL242434  36.650   3.573   5.928
 3176POPC   C1A42435  37.000   3.235   6.125
 3176POPC   D2A42436  37.176   3.223   6.535
 3176POPC   C3A42437  36.828   3.477   6.731
 3176POPC   C4A42438  36.714   3.428   7.145
 3176POPC   C1B42439  36.901   3.817   6.259
 3176POPC   C2B42440  36.886   4.076   6.652
 3176POPC   C3B42441  36.979   3.899   7.058
 3176POPC   C4B42442  36.909   3.750   7.485
 3177POPC   NC342443  10.885  31.799   5.464
 3177POPC   PO442444  10.356  31.316   5.385
 3177POPC   GL142445  10.525  31.542   5.730
 3177POPC   GL242446  10.782  31.313   5.798
 3177POPC   C1A42447  10.694  31.827   6.065
 3177POPC   D2A42448  10.794  31.762   6.472
 3177POPC   C3A42449  10.605  31.539   6.787
 3177POPC   C4A42450  10.554  31.712   7.177
 3177POPC   C1B42451  10.602  31.332   6.229
 3177POPC   C2B42452  10.634  31.051   6.589
 3177POPC   C3B42453  10.430  31.068   6.967
 3177POPC   C4B42454  10.528  31.261   7.373
 3178POPC   NC342455  32.295   3.948   5.197
 3178POPC   PO442456  32.026   4.425   5.569
 3178POPC   GL142457  32.271   4.401   5.862
 3178POPC   GL242458  32.222   4.720   5.949
 3178POPC   C1A42459  32.427   4.323   6.245
 3178POPC   D2A42460  32.329   4.085   6.588
 3178POPC   C3A42461  32.592   4.181   6.921
 3178POPC   C4A42462  32.429   4.291   7.311
 3178POPC   C1B42463  31.969   4.583   6.281
 3178POPC   C2B42464  32.019   4.494   6.726
 3178POPC   C3B42465  31.936   4.687   7.106
 3178POPC   C4B42466  32.261   4.753   7.391
 3179POPC   NC342467   6.792  36.563   5.461
 3179POPC   PO442468   6.589  37.189   5.620
 3179POPC   GL142469   6.530  36.784   5.891
 3179POPC   GL242470   6.761  36.484   5.947
 3179POPC   C1A42471   6.628  36.817   6.356
 3179POPC   D2A42472   6.460  37.105   6.703
 3179POPC   C3A42473   6.660  37.126   7.110
 3179POPC   C4A42474   6.539  37.146   7.546
 3179POPC   C1B42475   7.094  36.597   6.160
 3179POPC   C2B42476   7.108  36.575   6.576
 3179POPC   C3B42477   6.814  36.686   6.867
 3179POPC   C4B42478   6.894  36.476   7.206
 3180POPC   NC342479   8.311  24.698   5.257
 3180POPC   PO442480   8.046  25.234   5.505
 3180POPC   GL142481   8.123  25.407   5.854
 3180POPC   GL242482   8.426  25.212   5.875
 3180POPC   C1A42483   8.324  25.609   6.194
 3180POPC   D2A42484   8.159  25.694   6.582
 3180POPC   C3A42485   8.276  25.487   6.902
 3180POPC   C4A42486   8.207  25.562   7.318
 3180POPC   C1B42487   8.198  25.039   6.230
 3180POPC   C2B42488   8.097  24.867   6.641
 3180POPC   C3B42489   8.126  25.031   7.061
 3180POPC   C4B42490   8.516  25.172   7.252
 3181POPC   NC342491  43.761  11.725   5.247
 3181POPC   PO442492  44.192  11.235   5.227
 3181POPC   GL142493  43.769  11.338   5.554
 3181POPC   GL242494  43.671  11.079   5.775
 3181POPC   C1A42495  43.687  11.548   6.020
 3181POPC   D2A42496  43.970  11.482   6.426
 3181POPC   C3A42497  43.856  11.559   6.895
 3181POPC   C4A42498  43.508  11.425   7.122
 3181POPC   C1B42499  43.733  11.059   6.229
 3181POPC   C2B42500  43.652  11.145   6.670
 3181POPC   C3B42501  43.943  11.050   6.992
 3181POPC   C4B42502  44.131  10.760   7.282
 3182POPC   NC342503  26.077  23.250   5.499
 3182POPC   PO442504  25.747  23.822   5.517
 3182POPC   GL142505  25.895  23.600   5.874
 3182POPC   GL242506  26.262  23.636   5.845
 3182POPC   C1A42507  25.915  23.703   6.325
 3182POPC   D2A42508  26.195  23.812   6.690
 3182POPC   C3A42509  25.961  23.828   7.057
 3182POPC   C4A42510  25.908  24.019   7.442
 3182POPC   C1B42511  26.409  23.562   6.279
 3182POPC   C2B42512  26.444  23.311   6.648
 3182POPC   C3B42513  26.176  23.346   7.006
 3182POPC   C4B42514  26.258  23.574   7.398
 3183POPC   NC342515  24.794  22.215   5.441
 3183POPC   PO442516  24.281  21.827   5.207
 3183POPC   GL142517  24.385  21.924   5.671
 3183POPC   GL242518  24.676  21.817   5.869
 3183POPC   C1A42519  24.346  22.251   6.048
 3183POPC   D2A42520  24.275  22.371   6.542
 3183POPC   C3A42521  24.409  22.197   6.983
 3183POPC   C4A42522  24.384  22.324   7.430
 3183POPC   C1B42523  24.911  21.840   6.283
 3183POPC   C2B42524  24.866  21.809   6.761
 3183POPC   C3B42525  24.839  21.952   7.210
 3183POPC   C4B42526  24.766  22.082   7.665
 3184POPC   NC342527   6.256  32.950   5.347
 3184POPC   PO442528   5.611  32.700   5.407
 3184POPC   GL142529   5.778  32.697   5.848
 3184POPC   GL242530   6.121  32.797   5.823
 3184POPC   C1A42531   5.720  32.922   6.238
 3184POPC   D2A42532   5.665  33.200   6.589
 3184POPC   C3A42533   5.852  33.198   6.988
 3184POPC   C4A42534   5.878  32.986   7.394
 3184POPC   C1B42535   6.222  32.906   6.226
 3184POPC   C2B42536   6.045  32.818   6.616
 3184POPC   C3B42537   6.175  32.815   6.997
 3184POPC   C4B42538   6.253  32.583   7.338
 3185POPC   NC342539  23.762  35.125   5.261
 3185POPC   PO442540  24.161  35.688   5.312
 3185POPC   GL142541  23.773  35.522   5.588
 3185POPC   GL242542  23.531  35.203   5.697
 3185POPC   C1A42543  23.764  35.451   6.058
 3185POPC   D2A42544  24.032  35.163   6.261
 3185POPC   C3A42545  24.030  35.112   6.713
 3185POPC   C4A42546  23.955  35.262   7.132
 3185POPC   C1B42547  23.348  34.928   6.051
 3185POPC   C2B42548  23.280  34.942   6.535
 3185POPC   C3B42549  23.485  35.196   6.898
 3185POPC   C4B42550  23.508  35.160   7.369
 3186POPC   NC342551  27.491  27.224   5.132
 3186POPC   PO442552  27.657  27.463   5.689
 3186POPC   GL142553  27.362  27.493   5.962
 3186POPC   GL242554  27.298  27.201   6.131
 3186POPC   C1A42555  27.459  27.627   6.354
 3186POPC   D2A42556  27.645  27.536   6.726
 3186POPC   C3A42557  27.529  27.790   7.073
 3186POPC   C4A42558  27.697  28.067   7.411
 3186POPC   C1B42559  27.728  27.201   6.251
 3186POPC   C2B42560  28.010  27.216   6.519
 3186POPC   C3B42561  27.922  27.127   6.898
 3186POPC   C4B42562  27.813  27.424   7.225
 3187POPC   NC342563  24.799  12.817   5.493
 3187POPC   PO442564  24.189  13.090   5.560
 3187POPC   GL142565  24.397  12.829   5.835
 3187POPC   GL242566  24.379  12.489   5.706
 3187POPC   C1A42567  24.420  12.901   6.260
 3187POPC   D2A42568  24.063  12.889   6.501
 3187POPC   C3A42569  24.149  12.980   6.902
 3187POPC   C4A42570  24.531  12.984   7.129
 3187POPC   C1B42571  24.619  12.438   6.092
 3187POPC   C2B42572  24.430  12.418   6.464
 3187POPC   C3B42573  24.456  12.546   6.859
 3187POPC   C4B42574  24.390  12.395   7.237
 3188POPC   NC342575  35.557  19.696   4.875
 3188POPC   PO442576  35.468  19.731   5.511
 3188POPC   GL142577  35.228  19.989   5.805
 3188POPC   GL242578  35.514  20.135   5.994
 3188POPC   C1A42579  35.078  19.972   6.252
 3188POPC   D2A42580  35.322  19.819   6.633
 3188POPC   C3A42581  35.145  19.777   7.042
 3188POPC   C4A42582  35.210  19.772   7.509
 3188POPC   C1B42583  35.572  19.694   6.183
 3188POPC   C2B42584  35.838  19.416   6.480
 3188POPC   C3B42585  35.896  19.539   6.926
 3188POPC   C4B42586  35.672  19.839   7.172
 3189POPC   NC342587  10.075  15.798   5.681
 3189POPC   PO442588   9.462  15.745   5.413
 3189POPC   GL142589   9.575  15.784   5.852
 3189POPC   GL242590   9.769  16.126   5.928
 3189POPC   C1A42591   9.535  15.841   6.287
 3189POPC   D2A42592   9.676  16.246   6.478
 3189POPC   C3A42593   9.912  16.200   6.831
 3189POPC   C4A42594   9.823  16.097   7.275
 3189POPC   C1B42595  10.028  15.944   6.309
 3189POPC   C2B42596   9.861  15.690   6.661
 3189POPC   C3B42597   9.683  15.655   7.075
 3189POPC   C4B42598   9.971  15.623   7.436
 3190POPC   NC342599  26.090  36.980   5.273
 3190POPC   PO442600  26.163  36.332   5.274
 3190POPC   GL142601  26.158  36.633   5.677
 3190POPC   GL242602  25.938  36.928   5.759
 3190POPC   C1A42603  26.275  36.778   6.115
 3190POPC   D2A42604  26.126  36.986   6.503
 3190POPC   C3A42605  26.176  36.775   6.906
 3190POPC   C4A42606  26.045  36.893   7.308
 3190POPC   C1B42607  25.826  37.184   6.132
 3190POPC   C2B42608  25.787  37.407   6.534
 3190POPC   C3B42609  25.861  37.218   6.916
 3190POPC   C4B42610  25.634  37.178   7.282
 3191POPC   NC342611  34.939  27.102   5.288
 3191POPC   PO442612  35.419  26.562   5.451
 3191POPC   GL142613  35.375  26.638   5.871
 3191POPC   GL242614  35.292  26.976   5.796
 3191POPC   C1A42615  35.208  26.727   6.298
 3191POPC   D2A42616  35.158  26.847   6.731
 3191POPC   C3A42617  35.426  26.586   6.924
 3191POPC   C4A42618  35.504  26.693   7.328
 3191POPC   C1B42619  35.565  27.054   6.154
 3191POPC   C2B42620  35.641  26.975   6.603
 3191POPC   C3B42621  35.517  27.129   7.037
 3191POPC   C4B42622  35.360  27.196   7.486
 3192POPC   NC342623   8.593  41.702   5.687
 3192POPC   PO442624   8.025  41.590   5.343
 3192POPC   GL142625   8.103  41.603   5.785
 3192POPC   GL242626   8.272  41.294   5.802
 3192POPC   C1A42627   8.223  41.581   6.237
 3192POPC   D2A42628   8.195  41.836   6.593
 3192POPC   C3A42629   8.179  41.598   6.953
 3192POPC   C4A42630   8.155  41.679   7.369
 3192POPC   C1B42631   8.524  41.174   6.157
 3192POPC   C2B42632   8.350  41.175   6.566
 3192POPC   C3B42633   8.471  41.171   6.973
 3192POPC   C4B42634   8.442  41.241   7.358
 3193POPC   NC342635  33.971   9.473   5.435
 3193POPC   PO442636  33.401   9.446   5.688
 3193POPC   GL142637  33.703   9.584   5.956
 3193POPC   GL242638  34.016   9.439   5.933
 3193POPC   C1A42639  33.694   9.574   6.402
 3193POPC   D2A42640  33.310   9.458   6.635
 3193POPC   C3A42641  33.375   9.526   7.077
 3193POPC   C4A42642  33.712   9.606   7.349
 3193POPC   C1B42643  34.143   9.796   6.155
 3193POPC   C2B42644  34.136   9.827   6.572
 3193POPC   C3B42645  34.016   9.734   6.949
 3193POPC   C4B42646  34.052   9.988   7.292
 3194POPC   NC342647  17.736   6.779   5.385
 3194POPC   PO442648  17.273   6.344   5.492
 3194POPC   GL142649  17.560   6.405   5.801
 3194POPC   GL242650  17.444   6.714   5.843
 3194POPC   C1A42651  17.725   6.398   6.259
 3194POPC   D2A42652  17.813   6.628   6.663
 3194POPC   C3A42653  17.600   6.582   7.083
 3194POPC   C4A42654  17.373   6.348   7.431
 3194POPC   C1B42655  17.603   6.890   6.227
 3194POPC   C2B42656  17.650   7.129   6.587
 3194POPC   C3B42657  17.465   7.060   6.970
 3194POPC   C4B42658  17.187   6.863   7.277
 3195POPC   NC342659  34.690  11.791   5.460
 3195POPC   PO442660  34.388  12.445   5.476
 3195POPC   GL142661  34.372  12.087   5.734
 3195POPC   GL242662  34.694  12.186   5.821
 3195POPC   C1A42663  34.260  11.813   6.091
 3195POPC   D2A42664  34.095  11.908   6.505
 3195POPC   C3A42665  34.409  11.917   6.801
 3195POPC   C4A42666  34.749  11.967   7.101
 3195POPC   C1B42667  34.464  12.266   6.224
 3195POPC   C2B42668  34.557  12.402   6.658
 3195POPC   C3B42669  34.408  12.347   7.092
 3195POPC   C4B42670  34.521  12.206   7.542
 3196POPC   NC342671  28.583  44.100   5.158
 3196POPC   PO442672  28.121  43.651   5.354
 3196POPC   GL142673  28.279  43.915   5.723
 3196POPC   GL242674  28.650  43.968   5.661
 3196POPC   C1A42675  28.155  44.011   6.197
 3196POPC   D2A42676  28.067  43.781   6.611
 3196POPC   C3A42677  28.239  43.902   7.010
 3196POPC   C4A42678  28.215  43.940   7.467
 3196POPC   C1B42679  28.641  43.887   6.130
 3196POPC   C2B42680  28.529  44.004   6.579
 3196POPC   C3B42681  28.738  44.018   6.969
 3196POPC   C4B42682  28.714  43.800   7.361
 3197POPC   NC342683   3.468  36.786   5.345
 3197POPC   PO442684   3.276  37.462   5.414
 3197POPC   GL142685   3.517  37.238   5.672
 3197POPC   GL242686   3.226  37.064   5.808
 3197POPC   C1A42687   3.735  37.095   6.034
 3197POPC   D2A42688   3.487  37.022   6.415
 3197POPC   C3A42689   3.578  37.094   6.855
 3197POPC   C4A42690   3.576  36.784   7.150
 3197POPC   C1B42691   3.068  37.255   6.216
 3197POPC   C2B42692   3.029  37.106   6.663
 3197POPC   C3B42693   3.091  36.985   7.101
 3197POPC   C4B42694   3.258  37.211   7.451
 3198POPC   NC342695  36.070  14.473   5.268
 3198POPC   PO442696  36.575  14.854   5.097
 3198POPC   GL142697  36.441  14.481   5.580
 3198POPC   GL242698  36.118  14.269   5.713
 3198POPC   C1A42699  36.195  14.639   6.015
 3198POPC   D2A42700  36.074  14.658   6.434
 3198POPC   C3A42701  35.925  14.430   6.776
 3198POPC   C4A42702  36.118  14.509   7.168
 3198POPC   C1B42703  36.034  14.161   6.147
 3198POPC   C2B42704  36.265  14.139   6.527
 3198POPC   C3B42705  36.227  14.036   6.984
 3198POPC   C4B42706  35.945  14.064   7.367
 3199POPC   NC342707  34.136  35.586   5.194
 3199POPC   PO442708  34.746  35.499   5.392
 3199POPC   GL142709  34.490  35.377   5.773
 3199POPC   GL242710  34.315  35.029   5.707
 3199POPC   C1A42711  34.754  35.414   6.166
 3199POPC   D2A42712  34.863  35.632   6.561
 3199POPC   C3A42713  34.851  35.416   6.976
 3199POPC   C4A42714  34.579  35.430   7.345
 3199POPC   C1B42715  34.421  35.021   6.160
 3199POPC   C2B42716  34.439  35.258   6.557
 3199POPC   C3B42717  34.388  35.160   6.970
 3199POPC   C4B42718  34.261  35.013   7.359
 3200POPC   NC342719  39.050   7.554   5.398
 3200POPC   PO442720  39.581   7.319   5.619
 3200POPC   GL142721  39.229   7.396   5.894
 3200POPC   GL242722  38.892   7.299   5.833
 3200POPC   C1A42723  39.142   7.083   6.241
 3200POPC   D2A42724  39.348   7.133   6.625
 3200POPC   C3A42725  39.147   7.041   6.989
 3200POPC   C4A42726  39.406   7.151   7.299
 3200POPC   C1B42727  38.875   7.515   6.257
 3200POPC   C2B42728  38.938   7.438   6.701
 3200POPC   C3B42729  39.209   7.564   7.048
 3200POPC   C4B42730  39.193   7.866   7.386
 3201POPC   NC342731  32.612  32.559   5.621
 3201POPC   PO442732  32.054  32.773   5.226
 3201POPC   GL142733  32.232  32.910   5.633
 3201POPC   GL242734  32.160  32.626   5.844
 3201POPC   C1A42735  32.322  33.139   6.030
 3201POPC   D2A42736  32.385  33.276   6.475
 3201POPC   C3A42737  32.073  33.377   6.777
 3201POPC   C4A42738  32.158  33.129   7.132
 3201POPC   C1B42739  31.891  32.891   6.078
 3201POPC   C2B42740  31.948  32.945   6.524
 3201POPC   C3B42741  31.974  32.665   6.886
 3201POPC   C4B42742  32.059  32.624   7.328
 3202POPC   NC342743  15.124  14.915   5.636
 3202POPC   PO442744  14.941  15.576   5.512
 3202POPC   GL142745  15.025  15.364   5.848
 3202POPC   GL242746  15.393  15.464   5.845
 3202POPC   C1A42747  14.894  15.186   6.232
 3202POPC   D2A42748  14.840  15.347   6.634
 3202POPC   C3A42749  15.094  15.076   6.877
 3202POPC   C4A42750  14.914  14.909   7.231
 3202POPC   C1B42751  15.335  15.456   6.315
 3202POPC   C2B42752  15.296  15.551   6.765
 3202POPC   C3B42753  15.422  15.505   7.175
 3202POPC   C4B42754  15.609  15.500   7.591
 3203POPC   NC342755  32.564  16.606   5.504
 3203POPC   PO442756  32.058  17.015   5.282
 3203POPC   GL142757  32.211  16.862   5.760
 3203POPC   GL242758  32.387  16.497   5.934
 3203POPC   C1A42759  32.334  16.909   6.210
 3203POPC   D2A42760  32.076  16.846   6.549
 3203POPC   C3A42761  32.154  17.032   6.925
 3203POPC   C4A42762  32.425  16.946   7.251
 3203POPC   C1B42763  32.421  16.409   6.351
 3203POPC   C2B42764  32.499  16.617   6.727
 3203POPC   C3B42765  32.250  16.510   7.084
 3203POPC   C4B42766  32.332  16.530   7.530
 3204POPC   NC342767   9.383  13.759   5.406
 3204POPC   PO442768  10.035  13.838   5.304
 3204POPC   GL142769   9.868  13.629   5.727
 3204POPC   GL242770   9.514  13.666   5.886
 3204POPC   C1A42771   9.822  13.350   6.130
 3204POPC   D2A42772   9.614  13.217   6.528
 3204POPC   C3A42773   9.771  13.422   6.934
 3204POPC   C4A42774  10.150  13.587   7.122
 3204POPC   C1B42775   9.822  13.892   6.176
 3204POPC   C2B42776   9.834  14.013   6.624
 3204POPC   C3B42777   9.762  13.948   7.066
 3204POPC   C4B42778   9.432  13.694   7.263
 3205POPC   NC342779  43.367  43.532   5.510
 3205POPC   PO442780  43.092  42.892   5.386
 3205POPC   GL142781  43.001  43.205   5.692
 3205POPC   GL242782  43.303  43.085   5.831
 3205POPC   C1A42783  42.908  43.364   6.137
 3205POPC   D2A42784  42.659  43.199   6.498
 3205POPC   C3A42785  42.884  43.247   6.879
 3205POPC   C4A42786  43.075  43.431   7.248
 3205POPC   C1B42787  42.939  42.872   6.081
 3205POPC   C2B42788  43.117  42.955   6.485
 3205POPC   C3B42789  43.272  42.912   6.880
 3205POPC   C4B42790  43.054  42.918   7.259
 3206POPC   NC342791  17.448  24.933   5.493
 3206POPC   PO442792  17.607  24.279   5.298
 3206POPC   GL142793  17.461  24.471   5.672
 3206POPC   GL242794  17.756  24.674   5.787
 3206POPC   C1A42795  17.368  24.571   6.109
 3206POPC   D2A42796  17.484  24.267   6.421
 3206POPC   C3A42797  17.278  24.147   6.792
 3206POPC   C4A42798  17.226  24.399   7.144
 3206POPC   C1B42799  17.796  24.858   6.178
 3206POPC   C2B42800  17.597  24.759   6.552
 3206POPC   C3B42801  17.661  24.512   6.904
 3206POPC   C4B42802  17.614  24.676   7.349
 3207POPC   NC342803  42.295  42.947   5.337
 3207POPC   PO442804  42.359  43.561   5.256
 3207POPC   GL142805  42.266  43.308   5.692
 3207POPC   GL242806  42.510  43.043   5.803
 3207POPC   C1A42807  42.332  43.381   6.146
 3207POPC   D2A42808  42.315  43.607   6.531
 3207POPC   C3A42809  42.381  43.376   6.913
 3207POPC   C4A42810  42.193  43.435   7.323
 3207POPC   C1B42811  42.404  42.839   6.209
 3207POPC   C2B42812  42.675  42.682   6.550
 3207POPC   C3B42813  42.587  42.818   6.970
 3207POPC   C4B42814  42.203  42.947   7.136
 3208POPC   NC342815   4.937   9.443   5.193
 3208POPC   PO442816   5.419   9.880   5.426
 3208POPC   GL142817   5.128   9.571   5.669
 3208POPC   GL242818   4.774   9.714   5.768
 3208POPC   C1A42819   5.057   9.438   6.117
 3208POPC   D2A42820   5.110   9.271   6.554
 3208POPC   C3A42821   5.112   9.604   6.855
 3208POPC   C4A42822   5.262   9.880   7.178
 3208POPC   C1B42823   4.506   9.902   6.140
 3208POPC   C2B42824   4.643  10.118   6.542
 3208POPC   C3B42825   4.850  10.058   6.929
 3208POPC   C4B42826   4.772   9.767   7.249
 3209POPC   NC342827  39.726  31.015   5.560
 3209POPC   PO442828  39.130  30.687   5.446
 3209POPC   GL142829  39.266  30.849   5.818
 3209POPC   GL242830  39.026  31.136   5.914
 3209POPC   C1A42831  39.305  30.627   6.214
 3209POPC   D2A42832  39.040  30.574   6.556
 3209POPC   C3A42833  39.260  30.568   6.908
 3209POPC   C4A42834  39.641  30.647   7.129
 3209POPC   C1B42835  39.395  31.141   6.214
 3209POPC   C2B42836  39.484  30.943   6.614
 3209POPC   C3B42837  39.325  31.061   7.018
 3209POPC   C4B42838  39.289  30.942   7.445
 3210POPC   NC342839  24.645  31.244   5.590
 3210POPC   PO442840  24.347  30.614   5.470
 3210POPC   GL142841  24.574  30.742   5.827
 3210POPC   GL242842  24.334  30.989   5.910
 3210POPC   C1A42843  24.729  30.827   6.264
 3210POPC   D2A42844  24.712  30.914   6.723
 3210POPC   C3A42845  24.678  30.588   7.045
 3210POPC   C4A42846  24.280  30.377   7.180
 3210POPC   C1B42847  24.274  31.164   6.321
 3210POPC   C2B42848  24.050  31.077   6.688
 3210POPC   C3B42849  24.088  30.929   7.115
 3210POPC   C4B42850  24.423  30.873   7.373
 3211POPC   NC342851  23.427   9.911   5.440
 3211POPC   PO442852  24.060   9.646   5.570
 3211POPC   GL142853  23.690   9.688   5.847
 3211POPC   GL242854  23.630  10.025   5.940
 3211POPC   C1A42855  23.683   9.453   6.257
 3211POPC   D2A42856  23.929   9.217   6.588
 3211POPC   C3A42857  23.714   9.379   6.952
 3211POPC   C4A42858  23.369   9.606   7.198
 3211POPC   C1B42859  24.017   9.858   6.203
 3211POPC   C2B42860  23.996   9.719   6.631
 3211POPC   C3B42861  23.691   9.903   6.899
 3211POPC   C4B42862  23.880  10.229   7.160
 3212POPC   NC342863  20.524   1.533   5.382
 3212POPC   PO442864  20.788   2.123   5.205
 3212POPC   GL142865  20.743   1.946   5.633
 3212POPC   GL242866  21.051   1.834   5.865
 3212POPC   C1A42867  20.597   1.974   6.057
 3212POPC   D2A42868  20.560   1.833   6.488
 3212POPC   C3A42869  20.479   2.182   6.775
 3212POPC   C4A42870  20.722   2.507   7.029
 3212POPC   C1B42871  20.992   1.538   6.251
 3212POPC   C2B42872  20.859   1.477   6.703
 3212POPC   C3B42873  20.809   1.848   6.976
 3212POPC   C4B42874  20.874   2.069   7.370
 3213POPC   NC342875  26.463  25.875   5.624
 3213POPC   PO442876  27.106  25.857   5.515
 3213POPC   GL142877  27.022  26.179   5.841
 3213POPC   GL242878  26.703  26.335   5.830
 3213POPC   C1A42879  27.184  26.253   6.242
 3213POPC   D2A42880  26.993  26.375   6.622
 3213POPC   C3A42881  27.141  26.181   7.008
 3213POPC   C4A42882  27.036  26.113   7.451
 3213POPC   C1B42883  26.690  26.092   6.242
 3213POPC   C2B42884  26.728  25.936   6.665
 3213POPC   C3B42885  26.720  25.868   7.083
 3213POPC   C4B42886  26.352  26.097   7.070
 3214POPC   NC342887  34.736  36.896   5.316
 3214POPC   PO442888  34.068  36.773   5.456
 3214POPC   GL142889  34.405  36.900   5.774
 3214POPC   GL242890  34.800  36.986   5.799
 3214POPC   C1A42891  34.537  36.820   6.201
 3214POPC   D2A42892  34.585  36.562   6.538
 3214POPC   C3A42893  34.290  36.679   6.842
 3214POPC   C4A42894  34.458  36.908   7.180
 3214POPC   C1B42895  34.841  37.222   6.170
 3214POPC   C2B42896  34.716  37.163   6.590
 3214POPC   C3B42897  34.847  37.189   7.008
 3214POPC   C4B42898  34.761  37.237   7.473
 3215POPC   NC342899  32.722  39.342   5.419
 3215POPC   PO442900  32.134  39.068   5.353
 3215POPC   GL142901  32.179  39.274   5.766
 3215POPC   GL242902  32.500  39.164   5.902
 3215POPC   C1A42903  32.169  39.418   6.227
 3215POPC   D2A42904  32.409  39.252   6.597
 3215POPC   C3A42905  32.373  39.494   6.979
 3215POPC   C4A42906  32.025  39.641   7.140
 3215POPC   C1B42907  32.194  38.901   6.177
 3215POPC   C2B42908  32.060  38.863   6.632
 3215POPC   C3B42909  32.128  39.007   7.052
 3215POPC   C4B42910  32.497  39.121   7.283
 3216POPC   NC342911  40.802  13.411   5.499
 3216POPC   PO442912  40.455  13.980   5.463
 3216POPC   GL142913  40.741  13.894   5.841
 3216POPC   GL242914  40.963  13.566   5.940
 3216POPC   C1A42915  40.717  13.814   6.296
 3216POPC   D2A42916  40.543  13.444   6.487
 3216POPC   C3A42917  40.506  13.482   6.930
 3216POPC   C4A42918  40.437  13.724   7.294
 3216POPC   C1B42919  41.034  13.388   6.327
 3216POPC   C2B42920  41.077  13.678   6.688
 3216POPC   C3B42921  40.922  13.772   7.089
 3216POPC   C4B42922  40.858  13.432   7.350
 3217POPC   NC342923  21.947  25.521   4.958
 3217POPC   PO442924  22.275  25.167   5.259
 3217POPC   GL142925  22.224  25.348   5.694
 3217POPC   GL242926  22.537  25.539   5.789
 3217POPC   C1A42927  22.060  25.239   6.131
 3217POPC   D2A42928  22.119  25.359   6.585
 3217POPC   C3A42929  22.065  25.085   6.947
 3217POPC   C4A42930  22.145  25.151   7.401
 3217POPC   C1B42931  22.461  25.566   6.254
 3217POPC   C2B42932  22.613  25.409   6.682
 3217POPC   C3B42933  22.519  25.386   7.123
 3217POPC   C4B42934  22.613  25.372   7.581
 3218POPC   NC342935  24.433   6.714   5.424
 3218POPC   PO442936  24.563   6.076   5.537
 3218POPC   GL142937  24.430   6.414   5.831
 3218POPC   GL242938  24.671   6.729   5.870
 3218POPC   C1A42939  24.128   6.520   6.170
 3218POPC   D2A42940  24.036   6.399   6.612
 3218POPC   C3A42941  24.176   6.555   7.039
 3218POPC   C4A42942  24.534   6.503   7.315
 3218POPC   C1B42943  24.761   7.000   6.237
 3218POPC   C2B42944  24.788   6.960   6.694
 3218POPC   C3B42945  24.971   6.746   7.073
 3218POPC   C4B42946  24.920   6.969   7.461
 3219POPC   NC342947  30.600   8.539   5.608
 3219POPC   PO442948  30.893   9.148   5.441
 3219POPC   GL142949  30.609   9.051   5.762
 3219POPC   GL242950  30.859   8.828   5.922
 3219POPC   C1A42951  30.472   9.025   6.199
 3219POPC   D2A42952  30.788   9.157   6.462
 3219POPC   C3A42953  30.804   9.142   6.908
 3219POPC   C4A42954  30.802   9.402   7.299
 3219POPC   C1B42955  30.698   8.571   6.257
 3219POPC   C2B42956  30.549   8.703   6.648
 3219POPC   C3B42957  30.684   8.653   7.054
 3219POPC   C4B42958  30.589   8.937   7.329
 3220POPC   NC342959  38.392  11.739   5.361
 3220POPC   PO442960  38.397  12.363   5.527
 3220POPC   GL142961  38.308  12.074   5.816
 3220POPC   GL242962  38.635  11.924   5.774
 3220POPC   C1A42963  38.115  12.121   6.253
 3220POPC   D2A42964  38.217  12.391   6.626
 3220POPC   C3A42965  38.183  12.248   7.060
 3220POPC   C4A42966  38.260  11.877   7.334
 3220POPC   C1B42967  38.481  11.767   6.171
 3220POPC   C2B42968  38.529  11.981   6.545
 3220POPC   C3B42969  38.619  11.884   6.944
 3220POPC   C4B42970  38.780  12.086   7.273
 3221POPC   NC342971  16.535  11.894   5.333
 3221POPC   PO442972  16.953  12.411   5.353
 3221POPC   GL142973  16.794  12.129   5.702
 3221POPC   GL242974  16.409  12.099   5.793
 3221POPC   C1A42975  16.731  12.189   6.161
 3221POPC   D2A42976  16.853  12.168   6.569
 3221POPC   C3A42977  16.699  11.892   6.872
 3221POPC   C4A42978  16.503  11.925   7.255
 3221POPC   C1B42979  16.229  12.200   6.241
 3221POPC   C2B42980  16.289  12.168   6.705
 3221POPC   C3B42981  16.065  12.161   7.079
 3221POPC   C4B42982  16.089  12.075   7.537
 3222POPC   NC342983  42.481  23.835   5.311
 3222POPC   PO442984  41.937  24.026   5.605
 3222POPC   GL142985  42.296  23.789   5.779
 3222POPC   GL242986  42.642  23.967   5.771
 3222POPC   C1A42987  42.407  23.636   6.170
 3222POPC   D2A42988  42.171  23.697   6.541
 3222POPC   C3A42989  42.322  23.474   6.848
 3222POPC   C4A42990  42.571  23.524   7.159
 3222POPC   C1B42991  42.622  24.129   6.174
 3222POPC   C2B42992  42.647  23.921   6.569
 3222POPC   C3B42993  42.408  23.984   6.922
 3222POPC   C4B42994  42.440  24.232   7.280
 3223POPC   NC342995  19.794   2.838   5.284
 3223POPC   PO442996  20.111   2.440   5.668
 3223POPC   GL142997  20.086   2.864   5.742
 3223POPC   GL242998  19.768   2.938   5.782
 3223POPC   C1A42999  20.097   3.003   6.161
 3223POPC   D2A43000  19.932   2.845   6.553
 3223POPC   C3A43001  19.901   3.080   6.895
 3223POPC   C4A43002  19.915   2.892   7.300
 3223POPC   C1B43003  19.633   2.740   6.157
 3223POPC   C2B43004  19.401   2.851   6.548
 3223POPC   C3B43005  19.489   2.781   6.977
 3223POPC   C4B43006  19.661   2.439   7.177
 3224POPC   NC343007   1.435  23.517   5.122
 3224POPC   PO443008   1.244  24.082   5.452
 3224POPC   GL143009   1.216  23.689   5.716
 3224POPC   GL243010   1.315  23.889   5.981
 3224POPC   C1A43011   1.032  23.519   6.147
 3224POPC   D2A43012   0.870  23.782   6.506
 3224POPC   C3A43013   0.941  23.673   6.944
 3224POPC   C4A43014   1.042  24.008   7.201
 3224POPC   C1B43015   1.642  24.005   6.263
 3224POPC   C2B43016   1.693  23.838   6.656
 3224POPC   C3B43017   1.463  23.781   7.020
 3224POPC   C4B43018   1.527  23.963   7.427
 3225POPC   NC343019  41.034  18.278   5.398
 3225POPC   PO443020  40.532  17.855   5.553
 3225POPC   GL143021  40.745  18.039   5.909
 3225POPC   GL243022  40.826  18.356   5.901
 3225POPC   C1A43023  40.719  18.090   6.349
 3225POPC   D2A43024  40.905  18.122   6.749
 3225POPC   C3A43025  40.602  18.344   6.977
 3225POPC   C4A43026  40.597  18.408   7.386
 3225POPC   C1B43027  41.048  18.484   6.250
 3225POPC   C2B43028  41.270  18.463   6.613
 3225POPC   C3B43029  41.089  18.579   7.007
 3225POPC   C4B43030  41.093  18.607   7.487
 3226POPC   NC343031  23.344  21.419   5.314
 3226POPC   PO443032  22.777  21.730   5.307
 3226POPC   GL143033  22.915  21.559   5.720
 3226POPC   GL243034  23.165  21.276   5.763
 3226POPC   C1A43035  22.776  21.593   6.184
 3226POPC   D2A43036  22.854  21.699   6.643
 3226POPC   C3A43037  22.768  21.420   6.966
 3226POPC   C4A43038  22.693  21.690   7.315
 3226POPC   C1B43039  23.273  21.497   6.139
 3226POPC   C2B43040  23.189  21.353   6.519
 3226POPC   C3B43041  23.361  21.409   6.885
 3226POPC   C4B43042  23.186  21.514   7.256
 3227POPC   NC343043   1.651   9.048   5.517
 3227POPC   PO443044   1.027   8.869   5.512
 3227POPC   GL143045   1.222   9.018   5.888
 3227POPC   GL243046   0.886   9.048   6.003
 3227POPC   C1A43047   1.250   9.185   6.337
 3227POPC   D2A43048   0.926   9.174   6.670
 3227POPC   C3A43049   1.076   9.017   7.076
 3227POPC   C4A43050   1.386   8.896   7.414
 3227POPC   C1B43051   0.961   8.755   6.358
 3227POPC   C2B43052   1.173   8.538   6.691
 3227POPC   C3B43053   1.203   8.506   7.137
 3227POPC   C4B43054   0.910   8.691   7.440
 3228POPC   NC343055  20.084  32.637   5.427
 3228POPC   PO443056  20.090  31.932   5.436
 3228POPC   GL143057  19.934  32.238   5.732
 3228POPC   GL243058  19.582  32.188   5.659
 3228POPC   C1A43059  19.950  32.346   6.186
 3228POPC   D2A43060  20.052  32.119   6.572
 3228POPC   C3A43061  19.892  32.326   6.939
 3228POPC   C4A43062  19.711  32.346   7.353
 3228POPC   C1B43063  19.480  32.180   6.105
 3228POPC   C2B43064  19.556  32.335   6.538
 3228POPC   C3B43065  19.372  32.328   6.945
 3228POPC   C4B43066  19.196  32.167   7.328
 3229POPC   NC343067  33.703   0.706   5.486
 3229POPC   PO443068  34.086   0.295   5.779
 3229POPC   GL143069  33.794   0.403   6.007
 3229POPC   GL243070  33.508   0.376   5.817
 3229POPC   C1A43071  33.780   0.212   6.391
 3229POPC   D2A43072  33.620   0.336   6.739
 3229POPC   C3A43073  33.949   0.501   6.956
 3229POPC   C4A43074  34.162   0.462   7.330
 3229POPC   C1B43075  33.314   0.337   6.215
 3229POPC   C2B43076  33.148   0.188   6.589
 3229POPC   C3B43077  33.232   0.227   7.035
 3229POPC   C4B43078  33.524   0.498   7.230
 3230POPC   NC343079  26.648  40.012   5.380
 3230POPC   PO443080  27.258  39.811   5.591
 3230POPC   GL143081  26.942  40.088   5.797
 3230POPC   GL243082  26.597  39.927   5.867
 3230POPC   C1A43083  26.742  40.281   6.172
 3230POPC   D2A43084  26.636  40.082   6.543
 3230POPC   C3A43085  26.919  40.200   6.834
 3230POPC   C4A43086  26.988  40.021   7.197
 3230POPC   C1B43087  26.870  39.759   6.181
 3230POPC   C2B43088  26.865  39.521   6.545
 3230POPC   C3B43089  26.719  39.712   6.896
 3230POPC   C4B43090  26.571  39.781   7.338
 3231POPC   NC343091  32.669  40.971   5.515
 3231POPC   PO443092  33.321  41.042   5.329
 3231POPC   GL143093  33.155  40.811   5.725
 3231POPC   GL243094  32.879  40.545   5.755
 3231POPC   C1A43095  33.015  40.882   6.155
 3231POPC   D2A43096  32.913  41.181   6.507
 3231POPC   C3A43097  32.977  40.952   6.888
 3231POPC   C4A43098  33.174  40.701   7.221
 3231POPC   C1B43099  32.655  40.479   6.136
 3231POPC   C2B43100  32.656  40.674   6.540
 3231POPC   C3B43101  32.742  40.500   6.934
 3231POPC   C4B43102  32.817  40.312   7.294
 3232POPC   NC343103  10.967  12.585   5.292
 3232POPC   PO443104  11.474  13.010   5.464
 3232POPC   GL143105  11.424  12.823   5.881
 3232POPC   GL243106  11.171  12.610   5.796
 3232POPC   C1A43107  11.202  12.897   6.251
 3232POPC   D2A43108  11.150  13.100   6.623
 3232POPC   C3A43109  11.249  12.889   6.996
 3232POPC   C4A43110  11.278  12.993   7.421
 3232POPC   C1B43111  11.042  12.421   6.189
 3232POPC   C2B43112  10.997  12.579   6.604
 3232POPC   C3B43113  11.121  12.410   6.957
 3232POPC   C4B43114  11.065  12.537   7.343
 3233POPC   NC343115  18.166   2.608   5.417
 3233POPC   PO443116  18.716   2.338   5.756
 3233POPC   GL143117  18.474   2.744   5.860
 3233POPC   GL243118  18.111   2.808   5.907
 3233POPC   C1A43119  18.457   2.944   6.270
 3233POPC   D2A43120  18.370   2.996   6.715
 3233POPC   C3A43121  18.601   2.747   7.031
 3233POPC   C4A43122  18.585   2.642   7.473
 3233POPC   C1B43123  17.963   2.735   6.332
 3233POPC   C2B43124  17.865   2.892   6.763
 3233POPC   C3B43125  18.092   2.863   7.159
 3233POPC   C4B43126  18.046   2.560   7.501
 3234POPC   NC343127   5.015  31.728   5.576
 3234POPC   PO443128   5.186  31.105   5.416
 3234POPC   GL143129   5.051  31.284   5.811
 3234POPC   GL243130   5.368  31.366   5.907
 3234POPC   C1A43131   4.994  31.583   6.212
 3234POPC   D2A43132   4.863  31.813   6.581
 3234POPC   C3A43133   4.849  31.604   6.987
 3234POPC   C4A43134   4.925  31.364   7.364
 3234POPC   C1B43135   5.480  31.642   6.274
 3234POPC   C2B43136   5.339  31.659   6.723
 3234POPC   C3B43137   5.327  31.366   7.062
 3234POPC   C4B43138   5.412  31.373   7.548
 3235POPC   NC343139  30.862   4.530   5.085
 3235POPC   PO443140  30.553   4.228   5.566
 3235POPC   GL143141  30.724   4.385   5.947
 3235POPC   GL243142  31.061   4.514   5.870
 3235POPC   C1A43143  30.502   4.589   6.297
 3235POPC   D2A43144  30.693   4.339   6.595
 3235POPC   C3A43145  30.579   4.012   6.868
 3235POPC   C4A43146  30.566   4.215   7.262
 3235POPC   C1B43147  31.014   4.672   6.285
 3235POPC   C2B43148  31.042   4.687   6.713
 3235POPC   C3B43149  30.770   4.628   7.026
 3235POPC   C4B43150  30.982   4.520   7.382
 3236POPC   NC343151  43.454  38.682   5.386
 3236POPC   PO443152  42.829  38.894   5.575
 3236POPC   GL143153  43.071  38.618   5.872
 3236POPC   GL243154  42.969  38.265   5.945
 3236POPC   C1A43155  43.132  38.512   6.335
 3236POPC   D2A43156  43.395  38.669   6.607
 3236POPC   C3A43157  43.296  38.598   6.988
 3236POPC   C4A43158  42.904  38.657   7.173
 3236POPC   C1B43159  43.435  38.133   6.113
 3236POPC   C2B43160  43.475  38.074   6.529
 3236POPC   C3B43161  43.145  38.163   6.779
 3236POPC   C4B43162  43.079  38.197   7.221
 3237POPC   NC343163  33.138  37.305   5.458
 3237POPC   PO443164  33.098  37.946   5.300
 3237POPC   GL143165  33.179  37.760   5.715
 3237POPC   GL243166  33.318  37.987   5.960
 3237POPC   C1A43167  32.863  37.724   6.056
 3237POPC   D2A43168  32.780  37.825   6.507
 3237POPC   C3A43169  32.719  37.484   6.806
 3237POPC   C4A43170  32.931  37.404   7.181
 3237POPC   C1B43171  33.324  37.574   6.248
 3237POPC   C2B43172  33.260  37.439   6.714
 3237POPC   C3B43173  33.406  37.611   7.125
 3237POPC   C4B43174  33.440  37.685   7.575
 3238POPC   NC343175  38.603  41.186   5.386
 3238POPC   PO443176  38.486  40.486   5.494
 3238POPC   GL143177  38.496  40.671   5.884
 3238POPC   GL243178  38.364  40.980   5.796
 3238POPC   C1A43179  38.406  40.660   6.328
 3238POPC   D2A43180  38.077  40.778   6.616
 3238POPC   C3A43181  38.103  40.641   7.029
 3238POPC   C4A43182  38.492  40.476   7.166
 3238POPC   C1B43183  38.587  41.119   6.159
 3238POPC   C2B43184  38.813  41.064   6.526
 3238POPC   C3B43185  38.604  40.888   6.864
 3238POPC   C4B43186  38.636  41.091   7.234
 3239POPC   NC343187  42.991  36.497   5.555
 3239POPC   PO443188  43.031  35.845   5.269
 3239POPC   GL143189  43.138  35.986   5.654
 3239POPC   GL243190  42.858  35.809   5.765
 3239POPC   C1A43191  43.230  36.148   6.066
 3239POPC   D2A43192  43.141  36.447   6.393
 3239POPC   C3A43193  43.290  36.315   6.776
 3239POPC   C4A43194  43.126  36.314   7.189
 3239POPC   C1B43195  43.033  35.695   6.177
 3239POPC   C2B43196  43.225  35.888   6.527
 3239POPC   C3B43197  43.242  35.860   6.981
 3239POPC   C4B43198  42.888  35.685   7.171
 3240POPC   NC343199  26.549  36.325   5.529
 3240POPC   PO443200  27.173  36.053   5.351
 3240POPC   GL143201  27.027  36.236   5.742
 3240POPC   GL243202  26.777  36.005   5.869
 3240POPC   C1A43203  26.870  36.435   6.146
 3240POPC   D2A43204  26.928  36.333   6.597
 3240POPC   C3A43205  26.736  36.332   7.033
 3240POPC   C4A43206  26.472  36.591   7.298
 3240POPC   C1B43207  26.542  36.044   6.264
 3240POPC   C2B43208  26.610  35.931   6.701
 3240POPC   C3B43209  26.970  35.845   6.969
 3240POPC   C4B43210  27.234  35.686   7.325
 3241POPC   NC343211  16.954  25.617   5.494
 3241POPC   PO443212  16.447  25.240   5.230
 3241POPC   GL143213  16.596  25.251   5.675
 3241POPC   GL243214  16.449  24.984   5.867
 3241POPC   C1A43215  16.728  25.323   6.131
 3241POPC   D2A43216  16.639  25.306   6.546
 3241POPC   C3A43217  16.910  25.122   6.832
 3241POPC   C4A43218  16.791  25.237   7.237
 3241POPC   C1B43219  16.720  24.814   6.177
 3241POPC   C2B43220  16.585  24.792   6.578
 3241POPC   C3B43221  16.428  25.001   6.945
 3241POPC   C4B43222  16.431  24.812   7.349
 3242POPC   NC343223  33.260  13.457   5.373
 3242POPC   PO443224  33.962  13.563   5.481
 3242POPC   GL143225  33.896  13.654   5.881
 3242POPC   GL243226  33.683  13.944   5.823
 3242POPC   C1A43227  33.936  13.432   6.280
 3242POPC   D2A43228  33.930  13.651   6.656
 3242POPC   C3A43229  34.074  13.521   7.020
 3242POPC   C4A43230  33.751  13.377   7.250
 3242POPC   C1B43231  33.588  13.831   6.277
 3242POPC   C2B43232  33.581  13.993   6.714
 3242POPC   C3B43233  33.497  13.788   7.119
 3242POPC   C4B43234  33.558  13.706   7.587
 3243POPC   NC343235  16.464  24.791   5.387
 3243POPC   PO443236  16.934  24.373   5.168
 3243POPC   GL143237  16.825  24.429   5.740
 3243POPC   GL243238  16.443  24.470   5.903
 3243POPC   C1A43239  16.935  24.357   6.261
 3243POPC   D2A43240  17.079  24.620   6.648
 3243POPC   C3A43241  16.776  24.605   7.013
 3243POPC   C4A43242  16.810  24.452   7.442
 3243POPC   C1B43243  16.427  24.316   6.367
 3243POPC   C2B43244  16.395  24.119   6.796
 3243POPC   C3B43245  16.367  24.303   7.226
 3243POPC   C4B43246  16.414  24.301   7.705
 3244POPC   NC343247  25.214  12.074   5.446
 3244POPC   PO443248  25.726  12.621   5.467
 3244POPC   GL143249  25.554  12.261   5.764
 3244POPC   GL243250  25.651  12.474   5.975
 3244POPC   C1A43251  25.377  11.958   6.109
 3244POPC   D2A43252  25.228  12.071   6.574
 3244POPC   C3A43253  25.226  11.866   7.010
 3244POPC   C4A43254  24.995  11.700   7.378
 3244POPC   C1B43255  25.629  12.335   6.354
 3244POPC   C2B43256  25.428  12.560   6.655
 3244POPC   C3B43257  25.250  12.389   7.020
 3244POPC   C4B43258  25.244  12.214   7.446
 3245POPC   NC343259  23.992  26.368   5.288
 3245POPC   PO443260  23.333  26.257   5.405
 3245POPC   GL143261  23.612  26.016   5.682
 3245POPC   GL243262  23.510  25.706   5.809
 3245POPC   C1A43263  23.761  26.094   6.124
 3245POPC   D2A43264  23.668  26.378   6.481
 3245POPC   C3A43265  23.793  26.351   6.933
 3245POPC   C4A43266  23.539  26.306   7.321
 3245POPC   C1B43267  23.418  25.723   6.239
 3245POPC   C2B43268  23.673  25.842   6.629
 3245POPC   C3B43269  23.753  25.847   7.105
 3245POPC   C4B43270  23.427  25.784   7.412
 3246POPC   NC343271   5.334   6.739   5.258
 3246POPC   PO443272   6.014   6.626   5.263
 3246POPC   GL143273   5.921   6.704   5.713
 3246POPC   GL243274   5.646   6.974   5.704
 3246POPC   C1A43275   6.044   6.617   6.149
 3246POPC   D2A43276   6.241   6.745   6.555
 3246POPC   C3A43277   6.062   6.678   6.939
 3246POPC   C4A43278   6.179   6.417   7.236
 3246POPC   C1B43279   5.631   6.928   6.156
 3246POPC   C2B43280   5.708   6.747   6.563
 3246POPC   C3B43281   5.563   6.752   6.999
 3246POPC   C4B43282   5.357   6.824   7.380
 3247POPC   NC343283  32.985  15.805   5.392
 3247POPC   PO443284  32.887  16.461   5.195
 3247POPC   GL143285  32.975  16.272   5.644
 3247POPC   GL243286  33.259  16.080   5.758
 3247POPC   C1A43287  32.868  16.190   6.103
 3247POPC   D2A43288  32.872  16.282   6.564
 3247POPC   C3A43289  32.898  16.028   6.957
 3247POPC   C4A43290  33.124  16.151   7.312
 3247POPC   C1B43291  33.285  15.858   6.182
 3247POPC   C2B43292  33.248  15.877   6.640
 3247POPC   C3B43293  33.407  15.804   7.076
 3247POPC   C4B43294  33.437  15.797   7.547
 3248POPC   NC343295   6.977  29.695   5.275
 3248POPC   PO443296   6.397  30.064   5.447
 3248POPC   GL143297   6.709  30.057   5.765
 3248POPC   GL243298   6.756  29.687   5.805
 3248POPC   C1A43299   6.767  30.123   6.228
 3248POPC   D2A43300   6.872  29.848   6.591
 3248POPC   C3A43301   6.834  29.968   7.044
 3248POPC   C4A43302   6.792  29.698   7.439
 3248POPC   C1B43303   6.378  29.812   6.081
 3248POPC   C2B43304   6.343  29.930   6.509
 3248POPC   C3B43305   6.432  29.701   6.880
 3248POPC   C4B43306   6.321  29.544   7.250
 3249POPC   NC343307  12.414   7.821   5.498
 3249POPC   PO443308  12.966   7.590   5.257
 3249POPC   GL143309  13.007   7.479   5.727
 3249POPC   GL243310  12.678   7.474   5.793
 3249POPC   C1A43311  12.994   7.441   6.231
 3249POPC   D2A43312  12.989   7.190   6.624
 3249POPC   C3A43313  12.857   7.350   7.049
 3249POPC   C4A43314  13.247   7.385   7.292
 3249POPC   C1B43315  12.518   7.611   6.164
 3249POPC   C2B43316  12.560   7.496   6.601
 3249POPC   C3B43317  12.550   7.775   6.960
 3249POPC   C4B43318  12.528   7.698   7.389
 3250POPC   NC343319  32.784  42.374   5.490
 3250POPC   PO443320  33.274  41.992   5.638
 3250POPC   GL143321  32.898  42.065   5.907
 3250POPC   GL243322  32.695  42.406   5.976
 3250POPC   C1A43323  32.962  42.170   6.335
 3250POPC   D2A43324  33.188  42.502   6.569
 3250POPC   C3A43325  33.088  42.483   6.996
 3250POPC   C4A43326  33.133  42.302   7.410
 3250POPC   C1B43327  32.723  42.627   6.369
 3250POPC   C2B43328  32.672  42.322   6.725
 3250POPC   C3B43329  32.738  42.095   7.126
 3250POPC   C4B43330  32.664  42.033   7.591
 3251POPC   NC343331  11.683  42.047   5.624
 3251POPC   PO443332  12.400  42.181   5.439
 3251POPC   GL143333  12.346  42.291   5.862
 3251POPC   GL243334  12.012  42.333   5.903
 3251POPC   C1A43335  12.314  42.458   6.284
 3251POPC   D2A43336  12.053  42.469   6.662
 3251POPC   C3A43337  12.314  42.314   6.989
 3251POPC   C4A43338  12.374  42.378   7.434
 3251POPC   C1B43339  11.804  42.239   6.266
 3251POPC   C2B43340  11.646  42.074   6.637
 3251POPC   C3B43341  11.838  42.140   7.016
 3251POPC   C4B43342  11.888  42.485   7.232
 3252POPC   NC343343  35.208  34.735   5.178
 3252POPC   PO443344  35.479  34.147   5.225
 3252POPC   GL143345  35.325  34.304   5.584
 3252POPC   GL243346  35.440  34.636   5.651
 3252POPC   C1A43347  35.216  34.340   6.027
 3252POPC   D2A43348  35.405  34.288   6.436
 3252POPC   C3A43349  35.238  34.236   6.852
 3252POPC   C4A43350  35.355  34.338   7.277
 3252POPC   C1B43351  35.522  34.763   6.094
 3252POPC   C2B43352  35.337  34.788   6.502
 3252POPC   C3B43353  35.482  34.739   6.926
 3252POPC   C4B43354  35.275  34.854   7.294
 3253POPC   NC343355  16.953  16.294   5.459
 3253POPC   PO443356  16.569  15.735   5.470
 3253POPC   GL143357  16.780  15.939   5.797
 3253POPC   GL243358  16.609  16.265   5.841
 3253POPC   C1A43359  16.894  16.048   6.211
 3253POPC   D2A43360  16.637  15.967   6.563
 3253POPC   C3A43361  16.787  16.046   6.941
 3253POPC   C4A43362  16.767  15.797   7.296
 3253POPC   C1B43363  16.407  16.299   6.244
 3253POPC   C2B43364  16.449  16.441   6.686
 3253POPC   C3B43365  16.448  16.380   7.133
 3253POPC   C4B43366  16.603  16.213   7.559
 3254POPC   NC343367  24.513  16.140   5.640
 3254POPC   PO443368  25.033  16.247   5.226
 3254POPC   GL143369  25.286  16.079   5.608
 3254POPC   GL243370  25.074  15.791   5.725
 3254POPC   C1A43371  25.476  15.884   6.027
 3254POPC   D2A43372  25.282  15.673   6.405
 3254POPC   C3A43373  25.234  15.819   6.825
 3254POPC   C4A43374  25.221  15.844   7.273
 3254POPC   C1B43375  24.973  16.023   6.145
 3254POPC   C2B43376  24.857  16.099   6.606
 3254POPC   C3B43377  24.808  16.077   7.074
 3254POPC   C4B43378  24.748  16.228   7.516
 3255POPC   NC343379  41.809  40.685   5.353
 3255POPC   PO443380  41.163  40.515   5.478
 3255POPC   GL143381  41.428  40.778   5.750
 3255POPC   GL243382  41.672  41.059   5.669
 3255POPC   C1A43383  41.594  40.672   6.175
 3255POPC   D2A43384  41.527  40.413   6.565
 3255POPC   C3A43385  41.630  40.632   6.943
 3255POPC   C4A43386  41.323  40.651   7.282
 3255POPC   C1B43387  41.568  41.188   6.060
 3255POPC   C2B43388  41.729  41.102   6.462
 3255POPC   C3B43389  41.597  41.174   6.855
 3255POPC   C4B43390  41.641  41.037   7.254
 3256POPC   NC343391   5.258  21.561   5.472
 3256POPC   PO443392   5.017  20.913   5.464
 3256POPC   GL143393   5.113  21.224   5.829
 3256POPC   GL243394   4.882  21.498   5.854
 3256POPC   C1A43395   5.229  21.463   6.227
 3256POPC   D2A43396   5.155  21.503   6.674
 3256POPC   C3A43397   5.018  21.130   6.875
 3256POPC   C4A43398   5.254  21.204   7.225
 3256POPC   C1B43399   4.649  21.733   6.183
 3256POPC   C2B43400   4.638  21.619   6.639
 3256POPC   C3B43401   4.793  21.518   7.099
 3256POPC   C4B43402   4.980  21.520   7.535
 3257POPC   NC343403  26.036  30.268   5.280
 3257POPC   PO443404  26.045  30.926   5.478
 3257POPC   GL143405  26.182  30.579   5.680
 3257POPC   GL243406  25.866  30.504   5.755
 3257POPC   C1A43407  26.218  30.527   6.135
 3257POPC   D2A43408  26.021  30.773   6.454
 3257POPC   C3A43409  26.224  30.690   6.833
 3257POPC   C4A43410  26.063  30.814   7.224
 3257POPC   C1B43411  25.692  30.399   6.154
 3257POPC   C2B43412  25.855  30.290   6.557
 3257POPC   C3B43413  25.787  30.443   6.971
 3257POPC   C4B43414  26.114  30.295   7.241
 3258POPC   NC343415  14.164  33.155   5.465
 3258POPC   PO443416  14.815  32.886   5.422
 3258POPC   GL143417  14.622  32.808   5.836
 3258POPC   GL243418  14.380  33.117   5.933
 3258POPC   C1A43419  14.460  32.755   6.264
 3258POPC   D2A43420  14.286  33.117   6.487
 3258POPC   C3A43421  14.445  33.240   6.885
 3258POPC   C4A43422  14.479  32.997   7.243
 3258POPC   C1B43423  13.991  32.886   6.115
 3258POPC   C2B43424  13.876  32.762   6.534
 3258POPC   C3B43425  14.080  32.861   6.934
 3258POPC   C4B43426  14.013  33.217   7.192
 3259POPC   NC343427  32.010   9.586   5.356
 3259POPC   PO443428  32.654   9.805   5.123
 3259POPC   GL143429  32.391   9.911   5.563
 3259POPC   GL243430  32.450   9.645   5.755
 3259POPC   C1A43431  32.182   9.958   6.056
 3259POPC   D2A43432  31.911   9.980   6.481
 3259POPC   C3A43433  32.110   9.943   6.897
 3259POPC   C4A43434  32.530   9.895   7.055
 3259POPC   C1B43435  32.378   9.475   6.138
 3259POPC   C2B43436  32.282   9.586   6.537
 3259POPC   C3B43437  32.418   9.350   6.871
 3259POPC   C4B43438  32.495   9.393   7.274
 3260POPC   NC343439  31.678  19.045   5.317
 3260POPC   PO443440  31.079  19.257   5.349
 3260POPC   GL143441  31.373  19.132   5.731
 3260POPC   GL243442  31.751  19.100   5.830
 3260POPC   C1A43443  31.295  19.019   6.158
 3260POPC   D2A43444  31.307  18.809   6.567
 3260POPC   C3A43445  31.653  18.848   6.851
 3260POPC   C4A43446  31.429  19.058   7.149
 3260POPC   C1B43447  31.744  19.227   6.289
 3260POPC   C2B43448  31.661  19.349   6.730
 3260POPC   C3B43449  31.724  19.460   7.165
 3260POPC   C4B43450  31.798  19.162   7.499
 3261POPC   NC343451  37.133  27.330   5.004
 3261POPC   PO443452  36.834  27.808   5.331
 3261POPC   GL143453  37.034  27.567   5.648
 3261POPC   GL243454  37.191  27.853   5.802
 3261POPC   C1A43455  36.871  27.541   6.104
 3261POPC   D2A43456  36.584  27.771   6.436
 3261POPC   C3A43457  36.487  27.568   6.852
 3261POPC   C4A43458  36.713  27.410   7.199
 3261POPC   C1B43459  37.018  28.060   6.194
 3261POPC   C2B43460  37.114  28.227   6.607
 3261POPC   C3B43461  37.204  27.924   6.940
 3261POPC   C4B43462  37.079  27.768   7.340
 3262POPC   NC343463  44.884   8.594   5.435
 3262POPC   PO443464  44.568   7.927   5.573
 3262POPC   GL143465  44.581   8.146   5.946
 3262POPC   GL243466  44.562   8.482   5.834
 3262POPC   C1A43467  44.781   8.120   6.346
 3262POPC   D2A43468  44.812   8.000   6.776
 3262POPC   C3A43469  44.745   8.140   7.201
 3262POPC   C4A43470  44.506   7.862   7.484
 3262POPC   C1B43471  44.863   8.595   6.177
 3262POPC   C2B43472  44.993   8.494   6.606
 3262POPC   C3B43473  44.997   8.680   7.000
 3262POPC   C4B43474  44.947   8.577   7.478
 3263POPC   NC343475   5.659  42.493   5.390
 3263POPC   PO443476   6.220  42.295   5.157
 3263POPC   GL143477   6.093  42.287   5.664
 3263POPC   GL243478   5.759  42.331   5.852
 3263POPC   C1A43479   6.151  42.459   6.134
 3263POPC   D2A43480   5.931  42.521   6.537
 3263POPC   C3A43481   6.204  42.541   6.913
 3263POPC   C4A43482   6.158  42.430   7.368
 3263POPC   C1B43483   5.693  42.171   6.255
 3263POPC   C2B43484   5.702  42.078   6.683
 3263POPC   C3B43485   5.763  42.314   7.062
 3263POPC   C4B43486   5.655  42.371   7.494
 3264POPC   NC343487   2.893   4.505   5.510
 3264POPC   PO443488   2.986   3.886   5.587
 3264POPC   GL143489   2.804   4.176   5.921
 3264POPC   GL243490   2.981   4.514   6.003
 3264POPC   C1A43491   2.457   4.158   6.231
 3264POPC   D2A43492   2.461   3.981   6.642
 3264POPC   C3A43493   2.835   4.063   6.906
 3264POPC   C4A43494   2.834   4.099   7.349
 3264POPC   C1B43495   2.700   4.599   6.292
 3264POPC   C2B43496   2.638   4.463   6.682
 3264POPC   C3B43497   2.714   4.532   7.116
 3264POPC   C4B43498   2.674   4.549   7.577
 3265POPC   NC343499  29.083  27.295   5.515
 3265POPC   PO443500  28.738  27.825   5.239
 3265POPC   GL143501  28.703  27.764   5.721
 3265POPC   GL243502  28.975  27.986   5.913
 3265POPC   C1A43503  28.563  27.709   6.187
 3265POPC   D2A43504  28.603  27.772   6.680
 3265POPC   C3A43505  28.841  27.492   7.009
 3265POPC   C4A43506  29.040  27.613   7.394
 3265POPC   C1B43507  29.282  28.007   6.295
 3265POPC   C2B43508  29.476  27.815   6.671
 3265POPC   C3B43509  29.476  27.696   7.126
 3265POPC   C4B43510  29.522  27.449   7.533
 3266POPC   NC343511  12.735  41.933   5.187
 3266POPC   PO443512  12.801  41.269   5.358
 3266POPC   GL143513  12.892  41.410   5.792
 3266POPC   GL243514  13.216  41.574   5.747
 3266POPC   C1A43515  12.809  41.428   6.280
 3266POPC   D2A43516  13.078  41.211   6.596
 3266POPC   C3A43517  12.881  41.241   7.006
 3266POPC   C4A43518  12.545  41.514   7.082
 3266POPC   C1B43519  13.288  41.461   6.158
 3266POPC   C2B43520  13.228  41.699   6.540
 3266POPC   C3B43521  13.116  41.700   6.957
 3266POPC   C4B43522  13.310  41.437   7.222
 3267POPC   NC343523  30.632  37.914   5.490
 3267POPC   PO443524  30.974  37.376   5.328
 3267POPC   GL143525  30.828  37.445   5.774
 3267POPC   GL243526  30.885  37.792   5.891
 3267POPC   C1A43527  30.825  37.462   6.258
 3267POPC   D2A43528  30.566  37.480   6.639
 3267POPC   C3A43529  30.815  37.494   6.989
 3267POPC   C4A43530  30.990  37.576   7.371
 3267POPC   C1B43531  30.572  37.948   6.141
 3267POPC   C2B43532  30.453  38.005   6.550
 3267POPC   C3B43533  30.429  37.866   6.959
 3267POPC   C4B43534  30.529  37.988   7.363
 3268POPC   NC343535  29.642   5.469   5.310
 3268POPC   PO443536  30.261   5.304   5.379
 3268POPC   GL143537  30.176   5.029   5.750
 3268POPC   GL243538  29.861   5.127   5.780
 3268POPC   C1A43539  30.046   4.885   6.190
 3268POPC   D2A43540  30.176   4.913   6.637
 3268POPC   C3A43541  29.903   4.841   7.012
 3268POPC   C4A43542  29.860   4.804   7.494
 3268POPC   C1B43543  30.014   5.379   6.172
 3268POPC   C2B43544  30.170   5.430   6.578
 3268POPC   C3B43545  29.980   5.368   6.962
 3268POPC   C4B43546  30.113   5.241   7.339
 3269POPC   NC343547  13.299  18.525   5.133
 3269POPC   PO443548  12.733  18.277   5.266
 3269POPC   GL143549  12.957  18.377   5.695
 3269POPC   GL243550  12.717  18.240   5.934
 3269POPC   C1A43551  13.020  18.564   6.150
 3269POPC   D2A43552  13.054  18.371   6.573
 3269POPC   C3A43553  12.821  18.531   6.938
 3269POPC   C4A43554  12.782  18.434   7.394
 3269POPC   C1B43555  12.968  17.985   6.237
 3269POPC   C2B43556  13.053  17.878   6.680
 3269POPC   C3B43557  12.924  18.033   7.098
 3269POPC   C4B43558  12.782  17.951   7.560
 3270POPC   NC343559  10.917  41.302   5.582
 3270POPC   PO443560  11.330  41.379   5.051
 3270POPC   GL143561  11.395  41.278   5.625
 3270POPC   GL243562  11.373  41.574   5.793
 3270POPC   C1A43563  11.238  41.264   6.140
 3270POPC   D2A43564  11.346  41.477   6.533
 3270POPC   C3A43565  11.204  41.405   6.968
 3270POPC   C4A43566  11.149  41.587   7.376
 3270POPC   C1B43567  11.613  41.723   6.174
 3270POPC   C2B43568  11.832  41.612   6.565
 3270POPC   C3B43569  11.650  41.669   6.978
 3270POPC   C4B43570  11.418  41.985   7.235
 3271POPC   NC343571   2.850  17.180   5.124
 3271POPC   PO443572   2.923  17.825   5.326
 3271POPC   GL143573   2.684  17.720   5.701
 3271POPC   GL243574   2.535  17.385   5.724
 3271POPC   C1A43575   2.531  17.763   6.120
 3271POPC   D2A43576   2.401  17.842   6.553
 3271POPC   C3A43577   2.510  17.500   6.745
 3271POPC   C4A43578   2.608  17.446   7.138
 3271POPC   C1B43579   2.838  17.198   6.005
 3271POPC   C2B43580   2.835  17.182   6.463
 3271POPC   C3B43581   2.763  17.028   6.891
 3271POPC   C4B43582   2.564  16.946   7.299
 3272POPC   NC343583  39.124  16.259   5.331
 3272POPC   PO443584  39.363  15.698   5.482
 3272POPC   GL143585  39.318  15.979   5.857
 3272POPC   GL243586  39.350  16.340   5.813
 3272POPC   C1A43587  39.066  16.079   6.256
 3272POPC   D2A43588  38.743  15.978   6.606
 3272POPC   C3A43589  38.841  16.060   7.067
 3272POPC   C4A43590  39.019  15.648   7.242
 3272POPC   C1B43591  39.558  16.293   6.238
 3272POPC   C2B43592  39.533  16.016   6.596
 3272POPC   C3B43593  39.338  15.995   7.008
 3272POPC   C4B43594  39.185  16.086   7.472
 3273POPC   NC343595  34.715   5.688   5.096
 3273POPC   PO443596  34.206   5.591   5.451
 3273POPC   GL143597  34.493   5.304   5.722
 3273POPC   GL243598  34.339   4.936   5.819
 3273POPC   C1A43599  34.768   5.365   6.106
 3273POPC   D2A43600  35.004   5.148   6.455
 3273POPC   C3A43601  34.851   5.235   6.861
 3273POPC   C4A43602  34.849   5.268   7.295
 3273POPC   C1B43603  34.230   4.820   6.266
 3273POPC   C2B43604  34.294   4.990   6.706
 3273POPC   C3B43605  34.549   4.865   7.066
 3273POPC   C4B43606  34.471   4.753   7.509
 3274POPC   NC343607  32.763  34.412   5.172
 3274POPC   PO443608  33.282  34.648   5.535
 3274POPC   GL143609  33.079  34.433   5.886
 3274POPC   GL243610  32.771  34.354   5.702
 3274POPC   C1A43611  33.124  34.480   6.349
 3274POPC   D2A43612  33.109  34.840   6.661
 3274POPC   C3A43613  32.914  34.676   7.048
 3274POPC   C4A43614  32.949  34.237   7.213
 3274POPC   C1B43615  32.649  34.397   6.145
 3274POPC   C2B43616  32.529  34.128   6.480
 3274POPC   C3B43617  32.593  34.098   6.882
 3274POPC   C4B43618  32.448  34.426   7.128
 3275POPC   NC343619  12.398  19.372   5.419
 3275POPC   PO443620  12.281  20.088   5.441
 3275POPC   GL143621  12.161  19.729   5.731
 3275POPC   GL243622  11.812  19.674   5.735
 3275POPC   C1A43623  12.186  19.627   6.192
 3275POPC   D2A43624  12.121  19.951   6.514
 3275POPC   C3A43625  11.973  19.916   6.928
 3275POPC   C4A43626  12.148  20.011   7.339
 3275POPC   C1B43627  11.727  19.844   6.168
 3275POPC   C2B43628  11.749  19.593   6.573
 3275POPC   C3B43629  11.637  19.548   7.027
 3275POPC   C4B43630  11.460  19.664   7.455
 3276POPC   NC343631   1.699  17.868   5.069
 3276POPC   PO443632   1.765  17.382   5.521
 3276POPC   GL143633   2.034  17.545   5.817
 3276POPC   GL243634   2.008  17.232   5.997
 3276POPC   C1A43635   2.024  17.674   6.252
 3276POPC   D2A43636   1.938  17.551   6.683
 3276POPC   C3A43637   2.140  17.719   7.059
 3276POPC   C4A43638   1.937  17.748   7.499
 3276POPC   C1B43639   2.366  17.240   6.227
 3276POPC   C2B43640   2.353  17.026   6.599
 3276POPC   C3B43641   2.194  17.177   6.976
 3276POPC   C4B43642   2.199  17.332   7.399
 3277POPC   NC343643  34.868  24.479   5.365
 3277POPC   PO443644  34.184  24.643   5.536
 3277POPC   GL143645  34.582  24.615   5.792
 3277POPC   GL243646  34.696  24.249   5.790
 3277POPC   C1A43647  34.708  24.545   6.240
 3277POPC   D2A43648  34.770  24.186   6.555
 3277POPC   C3A43649  34.766  24.274   7.040
 3277POPC   C4A43650  34.762  24.564   7.440
 3277POPC   C1B43651  34.378  24.149   6.100
 3277POPC   C2B43652  34.254  24.017   6.521
 3277POPC   C3B43653  34.266  24.096   6.956
 3277POPC   C4B43654  34.355  24.303   7.345
 3278POPC   NC343655  23.297  19.533   5.563
 3278POPC   PO443656  23.286  20.148   5.205
 3278POPC   GL143657  22.946  19.924   5.604
 3278POPC   GL243658  22.802  20.212   5.795
 3278POPC   C1A43659  22.847  19.761   6.063
 3278POPC   D2A43660  23.001  19.765   6.528
 3278POPC   C3A43661  22.929  19.531   6.955
 3278POPC   C4A43662  22.874  19.711   7.395
 3278POPC   C1B43663  22.646  20.214   6.216
 3278POPC   C2B43664  22.576  20.085   6.649
 3278POPC   C3B43665  22.687  20.132   7.110
 3278POPC   C4B43666  22.714  20.285   7.570
 3279POPC   NC343667  40.563  17.397   5.429
 3279POPC   PO443668  41.154  17.798   5.404
 3279POPC   GL143669  40.926  17.592   5.783
 3279POPC   GL243670  40.839  17.237   5.854
 3279POPC   C1A43671  40.823  17.602   6.210
 3279POPC   D2A43672  40.672  17.646   6.625
 3279POPC   C3A43673  40.915  17.652   6.979
 3279POPC   C4A43674  40.814  17.948   7.251
 3279POPC   C1B43675  40.608  17.103   6.221
 3279POPC   C2B43676  40.450  17.193   6.620
 3279POPC   C3B43677  40.655  17.199   6.994
 3279POPC   C4B43678  40.537  17.063   7.429
 3280POPC   NC343679   3.447   3.084   5.078
 3280POPC   PO443680   3.761   2.465   5.328
 3280POPC   GL143681   3.656   2.807   5.677
 3280POPC   GL243682   3.388   3.059   5.717
 3280POPC   C1A43683   3.709   2.945   6.133
 3280POPC   D2A43684   3.846   2.649   6.449
 3280POPC   C3A43685   3.791   2.760   6.841
 3280POPC   C4A43686   3.796   2.761   7.283
 3280POPC   C1B43687   3.195   2.924   6.159
 3280POPC   C2B43688   3.336   2.871   6.612
 3280POPC   C3B43689   3.389   2.966   7.072
 3280POPC   C4B43690   3.399   2.982   7.547
 3281POPC   NC343691  35.248  41.927   5.282
 3281POPC   PO443692  35.119  41.284   5.370
 3281POPC   GL143693  35.332  41.549   5.688
 3281POPC   GL243694  35.050  41.761   5.738
 3281POPC   C1A43695  35.433  41.690   6.135
 3281POPC   D2A43696  35.528  41.927   6.527
 3281POPC   C3A43697  35.430  41.728   6.930
 3281POPC   C4A43698  35.352  41.705   7.378
 3281POPC   C1B43699  35.009  41.406   6.077
 3281POPC   C2B43700  35.182  41.380   6.499
 3281POPC   C3B43701  35.028  41.431   6.908
 3281POPC   C4B43702  34.903  41.402   7.361
 3282POPC   NC343703  30.929  17.307   5.519
 3282POPC   PO443704  30.472  17.814   5.298
 3282POPC   GL143705  30.473  17.540   5.693
 3282POPC   GL243706  30.788  17.656   5.868
 3282POPC   C1A43707  30.377  17.593   6.174
 3282POPC   D2A43708  30.607  17.749   6.573
 3282POPC   C3A43709  30.525  17.557   6.973
 3282POPC   C4A43710  30.256  17.255   7.114
 3282POPC   C1B43711  30.833  17.388   6.255
 3282POPC   C2B43712  30.918  17.337   6.717
 3282POPC   C3B43713  30.730  17.067   7.072
 3282POPC   C4B43714  30.513  17.028   7.507
 3283POPC   NC343715  38.035  25.486   5.021
 3283POPC   PO443716  37.508  25.033   5.061
 3283POPC   GL143717  37.530  25.152   5.521
 3283POPC   GL243718  37.773  25.452   5.650
 3283POPC   C1A43719  37.459  25.164   5.965
 3283POPC   D2A43720  37.428  25.397   6.350
 3283POPC   C3A43721  37.331  25.177   6.723
 3283POPC   C4A43722  37.457  25.380   7.104
 3283POPC   C1B43723  37.931  25.354   6.108
 3283POPC   C2B43724  37.951  25.178   6.547
 3283POPC   C3B43725  37.958  25.364   6.953
 3283POPC   C4B43726  37.930  25.605   7.329
 3284POPC   NC343727   0.804  21.166   5.544
 3284POPC   PO443728   1.305  21.589   5.522
 3284POPC   GL143729   1.040  21.471   5.892
 3284POPC   GL243730   1.105  21.078   5.948
 3284POPC   C1A43731   1.120  21.629   6.313
 3284POPC   D2A43732   0.957  21.724   6.715
 3284POPC   C3A43733   1.093  21.503   7.096
 3284POPC   C4A43734   0.884  21.498   7.532
 3284POPC   C1B43735   0.831  21.174   6.294
 3284POPC   C2B43736   0.703  21.253   6.738
 3284POPC   C3B43737   0.811  21.094   7.183
 3284POPC   C4B43738   0.843  20.976   7.649
 3285POPC   NC343739  27.050   1.368   5.405
 3285POPC   PO443740  26.575   0.972   5.411
 3285POPC   GL143741  26.528   1.355   5.676
 3285POPC   GL243742  26.819   1.544   5.852
 3285POPC   C1A43743  26.420   1.355   6.120
 3285POPC   D2A43744  26.633   1.255   6.491
 3285POPC   C3A43745  26.446   1.269   6.875
 3285POPC   C4A43746  26.632   1.321   7.268
 3285POPC   C1B43747  27.011   1.192   6.154
 3285POPC   C2B43748  27.137   1.066   6.620
 3285POPC   C3B43749  27.175   1.207   7.086
 3285POPC   C4B43750  27.064   1.431   7.503
 3286POPC   NC343751  28.962   8.284   5.422
 3286POPC   PO443752  29.612   8.344   5.402
 3286POPC   GL143753  29.345   8.409   5.753
 3286POPC   GL243754  29.279   8.088   5.779
 3286POPC   C1A43755  28.996   8.435   6.095
 3286POPC   D2A43756  28.890   8.230   6.516
 3286POPC   C3A43757  29.069   8.436   6.876
 3286POPC   C4A43758  29.354   8.395   7.211
 3286POPC   C1B43759  29.100   7.929   6.135
 3286POPC   C2B43760  29.207   7.789   6.530
 3286POPC   C3B43761  29.280   7.969   6.894
 3286POPC   C4B43762  28.968   8.027   7.175
 3287POPC   NC343763  44.646  37.972   5.376
 3287POPC   PO443764  44.190  37.392   5.466
 3287POPC   GL143765  44.496  37.607   5.737
 3287POPC   GL243766  44.359  37.931   5.802
 3287POPC   C1A43767  44.749  37.513   6.115
 3287POPC   D2A43768  44.662  37.399   6.543
 3287POPC   C3A43769  44.841  37.626   6.879
 3287POPC   C4A43770  44.815  37.603   7.287
 3287POPC   C1B43771  44.544  37.994   6.218
 3287POPC   C2B43772  44.522  37.972   6.668
 3287POPC   C3B43773  44.670  38.086   7.093
 3287POPC   C4B43774  44.844  38.070   7.514
 3288POPC   NC343775  19.444   1.236   5.527
 3288POPC   PO443776  18.852   1.456   5.305
 3288POPC   GL143777  18.941   1.306   5.733
 3288POPC   GL243778  19.053   0.956   5.729
 3288POPC   C1A43779  18.864   1.418   6.180
 3288POPC   D2A43780  19.068   1.520   6.589
 3288POPC   C3A43781  18.855   1.294   6.945
 3288POPC   C4A43782  18.643   1.441   7.328
 3288POPC   C1B43783  19.227   1.057   6.145
 3288POPC   C2B43784  19.157   1.022   6.593
 3288POPC   C3B43785  19.357   1.244   6.950
 3288POPC   C4B43786  19.423   1.084   7.368
 3289POPC   NC343787  39.406  27.903   5.464
 3289POPC   PO443788  39.236  27.311   5.384
 3289POPC   GL143789  39.336  27.505   5.810
 3289POPC   GL243790  39.336  27.907   5.955
 3289POPC   C1A43791  39.458  27.507   6.227
 3289POPC   D2A43792  39.331  27.774   6.542
 3289POPC   C3A43793  39.426  27.576   6.905
 3289POPC   C4A43794  39.238  27.392   7.249
 3289POPC   C1B43795  38.963  27.704   6.145
 3289POPC   C2B43796  38.836  27.559   6.546
 3289POPC   C3B43797  38.953  27.737   6.927
 3289POPC   C4B43798  39.235  27.894   7.269
 3290POPC   NC343799   6.225  39.519   5.279
 3290POPC   PO443800   5.573  39.369   5.484
 3290POPC   GL143801   5.745  39.388   5.901
 3290POPC   GL243802   5.797  39.713   5.968
 3290POPC   C1A43803   5.719  39.340   6.365
 3290POPC   D2A43804   5.655  39.473   6.777
 3290POPC   C3A43805   5.581  39.232   7.145
 3290POPC   C4A43806   5.793  39.239   7.512
 3290POPC   C1B43807   6.154  39.579   6.260
 3290POPC   C2B43808   6.146  39.352   6.656
 3290POPC   C3B43809   6.080  39.377   7.088
 3290POPC   C4B43810   6.216  39.742   7.283
 3291POPC   NC343811  36.047  38.212   5.527
 3291POPC   PO443812  35.822  37.623   5.313
 3291POPC   GL143813  35.991  37.523   5.705
 3291POPC   GL243814  35.674  37.391   5.835
 3291POPC   C1A43815  36.094  37.516   6.129
 3291POPC   D2A43816  35.901  37.640   6.503
 3291POPC   C3A43817  36.276  37.760   6.718
 3291POPC   C4A43818  36.537  37.764   7.071
 3291POPC   C1B43819  35.755  37.146   6.233
 3291POPC   C2B43820  35.720  37.127   6.677
 3291POPC   C3B43821  35.887  37.452   6.976
 3291POPC   C4B43822  36.019  37.848   7.153
 3292POPC   NC343823  35.415   2.173   5.433
 3292POPC   PO443824  35.439   1.499   5.665
 3292POPC   GL143825  35.396   1.908   5.891
 3292POPC   GL243826  35.108   2.135   5.874
 3292POPC   C1A43827  35.305   1.958   6.333
 3292POPC   D2A43828  35.613   1.885   6.656
 3292POPC   C3A43829  35.461   1.931   7.060
 3292POPC   C4A43830  35.147   1.713   7.253
 3292POPC   C1B43831  35.057   2.406   6.232
 3292POPC   C2B43832  34.929   2.429   6.666
 3292POPC   C3B43833  35.104   2.451   7.109
 3292POPC   C4B43834  35.338   2.237   7.470
 3293POPC   NC343835  21.460   2.880   5.019
 3293POPC   PO443836  21.179   2.482   5.482
 3293POPC   GL143837  21.341   2.662   5.812
 3293POPC   GL243838  21.388   2.981   5.792
 3293POPC   C1A43839  21.170   2.716   6.210
 3293POPC   D2A43840  20.973   2.543   6.567
 3293POPC   C3A43841  21.160   2.743   6.921
 3293POPC   C4A43842  21.159   2.524   7.314
 3293POPC   C1B43843  21.573   3.058   6.159
 3293POPC   C2B43844  21.404   3.054   6.554
 3293POPC   C3B43845  21.645   3.024   6.915
 3293POPC   C4B43846  21.462   2.918   7.296
 3294POPC   NC343847   3.923   3.240   5.502
 3294POPC   PO443848   3.393   3.521   5.224
 3294POPC   GL143849   3.437   3.574   5.715
 3294POPC   GL243850   3.691   3.440   5.894
 3294POPC   C1A43851   3.343   3.700   6.159
 3294POPC   D2A43852   3.366   3.353   6.446
 3294POPC   C3A43853   3.478   3.442   6.900
 3294POPC   C4A43854   3.289   3.420   7.324
 3294POPC   C1B43855   3.843   3.557   6.276
 3294POPC   C2B43856   3.856   3.257   6.583
 3294POPC   C3B43857   3.974   3.225   6.989
 3294POPC   C4B43858   3.778   3.270   7.347
 3295POPC   NC343859  19.490  37.003   5.054
 3295POPC   PO443860  19.111  36.737   5.547
 3295POPC   GL143861  18.943  36.976   5.874
 3295POPC   GL243862  19.216  37.003   6.110
 3295POPC   C1A43863  18.735  37.087   6.256
 3295POPC   D2A43864  18.808  36.744   6.532
 3295POPC   C3A43865  19.047  36.787   6.905
 3295POPC   C4A43866  18.827  36.968   7.229
 3295POPC   C1B43867  19.219  36.561   6.262
 3295POPC   C2B43868  19.109  36.327   6.644
 3295POPC   C3B43869  19.211  36.323   7.074
 3295POPC   C4B43870  19.232  36.606   7.383
 3296POPC   NC343871  15.175  23.721   5.248
 3296POPC   PO443872  15.443  23.176   5.424
 3296POPC   GL143873  15.369  23.563   5.714
 3296POPC   GL243874  15.050  23.738   5.799
 3296POPC   C1A43875  15.384  23.721   6.164
 3296POPC   D2A43876  15.180  23.715   6.565
 3296POPC   C3A43877  15.468  23.743   6.891
 3296POPC   C4A43878  15.383  24.056   7.118
 3296POPC   C1B43879  14.816  23.657   6.204
 3296POPC   C2B43880  14.668  23.800   6.628
 3296POPC   C3B43881  14.911  23.818   7.040
 3296POPC   C4B43882  15.197  23.506   7.267
 3297POPC   NC343883  30.655  29.953   5.153
 3297POPC   PO443884  31.055  29.595   5.577
 3297POPC   GL143885  30.641  29.724   5.733
 3297POPC   GL243886  30.465  30.061   5.733
 3297POPC   C1A43887  30.651  29.798   6.179
 3297POPC   D2A43888  30.970  29.694   6.483
 3297POPC   C3A43889  30.901  29.576   6.920
 3297POPC   C4A43890  30.936  29.811   7.311
 3297POPC   C1B43891  30.198  29.991   6.095
 3297POPC   C2B43892  30.226  29.866   6.549
 3297POPC   C3B43893  30.463  29.911   6.941
 3297POPC   C4B43894  30.450  29.876   7.379
 3298POPC   NC343895  11.818  27.223   5.499
 3298POPC   PO443896  12.265  27.693   5.403
 3298POPC   GL143897  12.203  27.511   5.803
 3298POPC   GL243898  12.447  27.252   5.863
 3298POPC   C1A43899  11.926  27.605   6.150
 3298POPC   D2A43900  11.913  27.769   6.558
 3298POPC   C3A43901  11.811  27.528   6.922
 3298POPC   C4A43902  11.876  27.527   7.365
 3298POPC   C1B43903  12.444  27.517   6.274
 3298POPC   C2B43904  12.422  27.629   6.745
 3298POPC   C3B43905  12.321  27.401   7.136
 3298POPC   C4B43906  12.413  27.411   7.615
 3299POPC   NC343907  29.433  38.244   5.220
 3299POPC   PO443908  28.738  38.242   5.253
 3299POPC   GL143909  28.888  38.353   5.693
 3299POPC   GL243910  29.201  38.556   5.704
 3299POPC   C1A43911  28.913  38.496   6.146
 3299POPC   D2A43912  28.865  38.644   6.574
 3299POPC   C3A43913  29.062  38.594   6.972
 3299POPC   C4A43914  29.028  38.705   7.428
 3299POPC   C1B43915  29.415  38.440   6.109
 3299POPC   C2B43916  29.249  38.279   6.508
 3299POPC   C3B43917  29.440  38.220   6.907
 3299POPC   C4B43918  29.449  38.439   7.280
 3300POPC   NC343919  42.721  41.017   5.596
 3300POPC   PO443920  43.264  40.623   5.307
 3300POPC   GL143921  43.182  40.782   5.710
 3300POPC   GL243922  42.905  40.545   5.771
 3300POPC   C1A43923  43.062  40.849   6.153
 3300POPC   D2A43924  42.884  40.714   6.514
 3300POPC   C3A43925  43.062  40.890   6.859
 3300POPC   C4A43926  42.922  41.011   7.232
 3300POPC   C1B43927  43.278  40.386   6.024
 3300POPC   C2B43928  43.346  40.465   6.453
 3300POPC   C3B43929  43.415  40.520   6.902
 3300POPC   C4B43930  43.267  40.622   7.310
 3301POPC   NC343931  42.006  14.433   5.259
 3301POPC   PO443932  41.295  14.459   5.299
 3301POPC   GL143933  41.648  14.377   5.616
 3301POPC   GL243934  41.708  14.099   5.847
 3301POPC   C1A43935  41.734  14.603   6.012
 3301POPC   D2A43936  41.509  14.620   6.405
 3301POPC   C3A43937  41.637  14.484   6.823
 3301POPC   C4A43938  41.493  14.585   7.245
 3301POPC   C1B43939  41.339  14.222   6.100
 3301POPC   C2B43940  41.269  14.169   6.563
 3301POPC   C3B43941  41.274  14.130   7.003
 3301POPC   C4B43942  41.619  14.097   7.210
 3302POPC   NC343943  25.705   2.588   5.316
 3302POPC   PO443944  26.289   2.733   5.229
 3302POPC   GL143945  26.303   2.634   5.705
 3302POPC   GL243946  25.943   2.591   5.771
 3302POPC   C1A43947  26.197   2.671   6.189
 3302POPC   D2A43948  25.978   2.668   6.584
 3302POPC   C3A43949  26.244   2.569   6.940
 3302POPC   C4A43950  26.249   2.678   7.402
 3302POPC   C1B43951  25.681   2.488   6.160
 3302POPC   C2B43952  25.474   2.478   6.539
 3302POPC   C3B43953  25.524   2.716   6.884
 3302POPC   C4B43954  25.799   2.717   7.175
 3303POPC   NC343955  27.200   3.579   5.040
 3303POPC   PO443956  27.862   3.595   5.364
 3303POPC   GL143957  27.734   3.639   5.749
 3303POPC   GL243958  27.972   3.446   5.860
 3303POPC   C1A43959  27.521   3.477   6.116
 3303POPC   D2A43960  27.590   3.577   6.540
 3303POPC   C3A43961  27.419   3.389   6.894
 3303POPC   C4A43962  27.322   3.750   7.133
 3303POPC   C1B43963  27.981   3.702   6.205
 3303POPC   C2B43964  28.101   3.544   6.576
 3303POPC   C3B43965  27.916   3.533   6.959
 3303POPC   C4B43966  27.826   3.866   7.146
 3304POPC   NC343967  34.126  38.377   5.239
 3304POPC   PO443968  34.688  38.709   5.431
 3304POPC   GL143969  34.482  38.377   5.644
 3304POPC   GL243970  34.758  38.209   5.832
 3304POPC   C1A43971  34.333  38.404   6.078
 3304POPC   D2A43972  34.543  38.546   6.464
 3304POPC   C3A43973  34.485  38.336   6.850
 3304POPC   C4A43974  34.344  38.620   7.139
 3304POPC   C1B43975  34.932  38.546   6.130
 3304POPC   C2B43976  35.036  38.664   6.595
 3304POPC   C3B43977  34.878  38.611   7.043
 3304POPC   C4B43978  34.747  38.680   7.486
 3305POPC   NC343979  44.173  27.229   5.283
 3305POPC   PO443980  44.773  27.535   5.269
 3305POPC   GL143981  44.774  27.528   5.701
 3305POPC   GL243982  44.485  27.321   5.679
 3305POPC   C1A43983  44.802  27.778   6.065
 3305POPC   D2A43984  44.561  27.817   6.448
 3305POPC   C3A43985  44.709  27.646   6.838
 3305POPC   C4A43986  44.581  27.734   7.269
 3305POPC   C1B43987  44.438  27.398   6.114
 3305POPC   C2B43988  44.448  27.302   6.541
 3305POPC   C3B43989  44.358  27.334   7.012
 3305POPC   C4B43990  44.414  27.262   7.477
 3306POPC   NC343991   9.095  34.421   4.894
 3306POPC   PO443992   8.895  33.837   5.177
 3306POPC   GL143993   8.864  33.886   5.662
 3306POPC   GL243994   8.661  33.624   5.838
 3306POPC   C1A43995   9.057  33.872   6.112
 3306POPC   D2A43996   9.184  33.637   6.519
 3306POPC   C3A43997   9.199  33.917   6.860
 3306POPC   C4A43998   9.156  34.045   7.278
 3306POPC   C1B43999   8.859  33.402   6.203
 3306POPC   C2B44000   8.766  33.198   6.582
 3306POPC   C3B44001   8.658  33.336   6.986
 3306POPC   C4B44002   8.900  33.620   7.178
 3307POPC   NC344003  16.202  30.172   5.512
 3307POPC   PO444004  16.392  30.869   5.461
 3307POPC   GL144005  16.614  30.733   5.840
 3307POPC   GL244006  16.501  30.406   5.892
 3307POPC   C1A44007  16.720  30.690   6.301
 3307POPC   D2A44008  16.481  30.641   6.701
 3307POPC   C3A44009  16.668  30.691   7.090
 3307POPC   C4A44010  17.092  30.730   7.252
 3307POPC   C1B44011  16.473  30.245   6.324
 3307POPC   C2B44012  16.618  30.145   6.751
 3307POPC   C3B44013  16.695  30.150   7.181
 3307POPC   C4B44014  16.388  30.010   7.503
 3308POPC   NC344015  27.659  35.992   5.322
 3308POPC   PO444016  27.835  36.619   5.522
 3308POPC   GL144017  27.559  36.298   5.762
 3308POPC   GL244018  27.478  35.932   5.806
 3308POPC   C1A44019  27.378  36.313   6.175
 3308POPC   D2A44020  27.529  36.476   6.572
 3308POPC   C3A44021  27.290  36.423   6.935
 3308POPC   C4A44022  27.167  36.208   7.271
 3308POPC   C1B44023  27.592  35.841   6.245
 3308POPC   C2B44024  27.425  35.946   6.669
 3308POPC   C3B44025  27.625  35.932   7.086
 3308POPC   C4B44026  27.759  35.637   7.467
 3309POPC   NC344027  11.038   7.596   5.539
 3309POPC   PO444028  11.695   7.302   5.450
 3309POPC   GL144029  11.369   7.324   5.809
 3309POPC   GL244030  11.283   7.641   5.982
 3309POPC   C1A44031  11.140   7.204   6.227
 3309POPC   D2A44032  11.351   7.176   6.626
 3309POPC   C3A44033  11.241   6.990   7.009
 3309POPC   C4A44034  11.318   7.149   7.399
 3309POPC   C1B44035  10.924   7.648   6.241
 3309POPC   C2B44036  10.937   7.492   6.628
 3309POPC   C3B44037  11.178   7.516   6.983
 3309POPC   C4B44038  10.880   7.375   7.251
 3310POPC   NC344039  41.700  33.413   5.324
 3310POPC   PO444040  41.374  32.942   5.408
 3310POPC   GL144041  41.643  33.083   5.761
 3310POPC   GL244042  41.520  33.355   5.932
 3310POPC   C1A44043  41.683  32.840   6.133
 3310POPC   D2A44044  41.803  32.819   6.563
 3310POPC   C3A44045  41.736  32.764   6.990
 3310POPC   C4A44046  41.699  33.112   7.250
 3310POPC   C1B44047  41.346  33.164   6.318
 3310POPC   C2B44048  41.439  33.153   6.754
 3310POPC   C3B44049  41.361  33.432   7.063
 3310POPC   C4B44050  41.192  33.129   7.298
 3311POPC   NC344051  14.099  23.617   5.095
 3311POPC   PO444052  14.751  23.609   5.413
 3311POPC   GL144053  14.533  23.792   5.812
 3311POPC   GL244054  14.212  23.908   5.791
 3311POPC   C1A44055  14.482  24.063   6.209
 3311POPC   D2A44056  14.369  24.262   6.613
 3311POPC   C3A44057  14.379  24.013   7.000
 3311POPC   C4A44058  14.557  24.049   7.397
 3311POPC   C1B44059  14.277  23.580   6.183
 3311POPC   C2B44060  14.219  23.424   6.610
 3311POPC   C3B44061  14.218  23.185   7.001
 3311POPC   C4B44062  14.384  23.215   7.455
 3312POPC   NC344063  32.497  16.573   4.978
 3312POPC   PO444064  32.513  16.136   5.521
 3312POPC   GL144065  32.404  15.976   5.947
 3312POPC   GL244066  32.071  15.849   5.891
 3312POPC   C1A44067  32.529  15.909   6.398
 3312POPC   D2A44068  32.414  16.110   6.792
 3312POPC   C3A44069  32.089  15.989   7.101
 3312POPC   C4A44070  32.079  16.092   7.566
 3312POPC   C1B44071  32.160  15.591   6.257
 3312POPC   C2B44072  32.183  15.644   6.701
 3312POPC   C3B44073  32.037  15.461   7.085
 3312POPC   C4B44074  31.850  15.643   7.463
 3313POPC   NC344075   0.670   9.213   5.422
 3313POPC   PO444076   0.025   8.994   5.644
 3313POPC   GL144077   0.398   9.056   5.838
 3313POPC   GL244078   0.541   8.784   5.658
 3313POPC   C1A44079   0.458   9.095   6.297
 3313POPC   D2A44080   0.129   8.995   6.599
 3313POPC   C3A44081   0.238   9.151   6.989
 3313POPC   C4A44082   0.601   9.124   7.286
 3313POPC   C1B44083   0.555   8.633   6.070
 3313POPC   C2B44084   0.487   8.593   6.508
 3313POPC   C3B44085   0.583   8.809   6.870
 3313POPC   C4B44086   0.427   8.652   7.276
 3314POPC   NC344087  27.013  23.600   5.547
 3314POPC   PO444088  26.465  23.162   5.735
 3314POPC   GL144089  26.779  23.411   5.962
 3314POPC   GL244090  26.752  23.777   5.967
 3314POPC   C1A44091  26.912  23.493   6.381
 3314POPC   D2A44092  26.718  23.793   6.650
 3314POPC   C3A44093  26.625  23.607   7.025
 3314POPC   C4A44094  27.001  23.374   7.119
 3314POPC   C1B44095  27.170  23.877   6.137
 3314POPC   C2B44096  27.251  23.873   6.561
 3314POPC   C3B44097  27.090  23.962   6.975
 3314POPC   C4B44098  26.905  23.864   7.344
 3315POPC   NC344099  34.879  32.047   5.289
 3315POPC   PO444100  34.540  32.646   5.158
 3315POPC   GL144101  34.611  32.557   5.618
 3315POPC   GL244102  34.523  32.210   5.715
 3315POPC   C1A44103  34.603  32.612   6.072
 3315POPC   D2A44104  34.731  32.405   6.472
 3315POPC   C3A44105  34.556  32.548   6.840
 3315POPC   C4A44106  34.585  32.499   7.266
 3315POPC   C1B44107  34.686  32.062   6.090
 3315POPC   C2B44108  34.529  31.925   6.498
 3315POPC   C3B44109  34.508  32.018   6.932
 3315POPC   C4B44110  34.858  32.049   7.156
 3316POPC   NC344111  23.618  34.532   5.443
 3316POPC   PO444112  24.005  35.018   5.662
 3316POPC   GL144113  23.778  34.744   5.904
 3316POPC   GL244114  23.790  34.362   5.894
 3316POPC   C1A44115  23.746  34.744   6.343
 3316POPC   D2A44116  23.925  34.536   6.668
 3316POPC   C3A44117  23.886  34.762   7.057
 3316POPC   C4A44118  23.878  34.828   7.505
 3316POPC   C1B44119  23.433  34.392   6.143
 3316POPC   C2B44120  23.393  34.417   6.558
 3316POPC   C3B44121  23.537  34.365   6.968
 3316POPC   C4B44122  23.467  34.586   7.321
 3317POPC   NC344123  39.513   2.504   5.029
 3317POPC   PO444124  39.080   2.617   5.530
 3317POPC   GL144125  39.287   2.768   5.873
 3317POPC   GL244126  39.031   3.033   5.974
 3317POPC   C1A44127  39.387   2.827   6.295
 3317POPC   D2A44128  39.072   3.016   6.555
 3317POPC   C3A44129  39.041   2.856   6.974
 3317POPC   C4A44130  39.413   2.732   7.192
 3317POPC   C1B44131  38.889   2.654   6.183
 3317POPC   C2B44132  38.718   2.572   6.574
 3317POPC   C3B44133  38.783   2.391   6.946
 3317POPC   C4B44134  38.925   2.465   7.322
 3318POPC   NC344135   5.784   9.807   5.130
 3318POPC   PO444136   5.959   9.640   5.740
 3318POPC   GL144137   5.574   9.674   5.928
 3318POPC   GL244138   5.508   9.318   5.952
 3318POPC   C1A44139   5.374   9.877   6.284
 3318POPC   D2A44140   5.346  10.059   6.708
 3318POPC   C3A44141   5.722  10.061   7.000
 3318POPC   C4A44142   6.151  10.127   7.207
 3318POPC   C1B44143   5.604   9.408   6.368
 3318POPC   C2B44144   5.950   9.658   6.540
 3318POPC   C3B44145   6.037   9.661   6.970
 3318POPC   C4B44146   5.626   9.512   7.155
 3319POPC   NC344147  28.112  10.373   5.407
 3319POPC   PO444148  27.704   9.954   5.683
 3319POPC   GL144149  28.083  10.229   5.897
 3319POPC   GL244150  28.463  10.318   5.824
 3319POPC   C1A44151  28.203  10.536   6.252
 3319POPC   D2A44152  28.357  10.780   6.636
 3319POPC   C3A44153  28.453  10.697   7.075
 3319POPC   C4A44154  28.333  10.387   7.394
 3319POPC   C1B44155  28.689  10.358   6.241
 3319POPC   C2B44156  28.783  10.475   6.698
 3319POPC   C3B44157  28.773  10.287   7.135
 3319POPC   C4B44158  28.777  10.244   7.629
 3320POPC   NC344159  23.090  28.870   5.423
 3320POPC   PO444160  22.810  29.437   5.473
 3320POPC   GL144161  22.798  29.131   5.763
 3320POPC   GL244162  23.106  29.302   5.870
 3320POPC   C1A44163  22.985  28.884   6.128
 3320POPC   D2A44164  23.017  29.060   6.536
 3320POPC   C3A44165  23.107  28.899   6.948
 3320POPC   C4A44166  22.972  28.831   7.355
 3320POPC   C1B44167  22.838  29.492   6.177
 3320POPC   C2B44168  22.627  29.387   6.555
 3320POPC   C3B44169  22.891  29.374   6.913
 3320POPC   C4B44170  22.747  29.303   7.289
 3321POPC   NC344171   5.190  44.257   5.450
 3321POPC   PO444172   4.888  44.886   5.302
 3321POPC   GL144173   4.966  44.691   5.715
 3321POPC   GL244174   4.753  44.368   5.718
 3321POPC   C1A44175   5.177  44.771   6.162
 3321POPC   D2A44176   5.249  44.744   6.644
 3321POPC   C3A44177   5.299  44.901   7.104
 3321POPC   C4A44178   5.196  44.860   7.586
 3321POPC   C1B44179   4.984  44.280   6.093
 3321POPC   C2B44180   4.901  44.366   6.515
 3321POPC   C3B44181   5.101  44.344   6.916
 3321POPC   C4B44182   4.940  44.553   7.260
 3322POPC   NC344183  24.987  27.050   5.238
 3322POPC   PO444184  25.311  26.447   5.460
 3322POPC   GL144185  25.153  26.753   5.818
 3322POPC   GL244186  24.999  27.100   5.740
 3322POPC   C1A44187  25.252  26.759   6.293
 3322POPC   D2A44188  25.478  26.598   6.699
 3322POPC   C3A44189  25.370  26.820   7.098
 3322POPC   C4A44190  25.522  26.890   7.534
 3322POPC   C1B44191  24.904  27.149   6.165
 3322POPC   C2B44192  24.889  27.008   6.605
 3322POPC   C3B44193  25.030  27.203   7.017
 3322POPC   C4B44194  25.173  27.216   7.430
 3323POPC   NC344195   9.542   8.807   5.160
 3323POPC   PO444196  10.026   9.228   5.217
 3323POPC   GL144197   9.998   9.157   5.682
 3323POPC   GL244198   9.679   9.302   5.720
 3323POPC   C1A44199   9.809   8.975   6.093
 3323POPC   D2A44200   9.536   9.024   6.486
 3323POPC   C3A44201   9.733   8.961   6.871
 3323POPC   C4A44202   9.853   8.997   7.273
 3323POPC   C1B44203   9.567   9.413   6.140
 3323POPC   C2B44204   9.362   9.560   6.502
 3323POPC   C3B44205   9.368   9.408   6.901
 3323POPC   C4B44206   9.575   9.414   7.285
 3324POPC   NC344207  25.715  43.991   5.354
 3324POPC   PO444208  26.298  43.618   5.370
 3324POPC   GL144209  26.215  43.847   5.783
 3324POPC   GL244210  25.869  43.795   5.807
 3324POPC   C1A44211  26.087  44.107   6.175
 3324POPC   D2A44212  25.932  44.306   6.592
 3324POPC   C3A44213  26.102  44.140   7.025
 3324POPC   C4A44214  26.123  43.793   7.372
 3324POPC   C1B44215  25.944  43.576   6.223
 3324POPC   C2B44216  26.055  43.587   6.679
 3324POPC   C3B44217  25.795  43.713   7.007
 3324POPC   C4B44218  25.643  43.500   7.411
 3325POPC   NC344219  27.868  43.250   5.423
 3325POPC   PO444220  27.314  42.800   5.542
 3325POPC   GL144221  27.456  43.022   5.878
 3325POPC   GL244222  27.710  43.218   5.939
 3325POPC   C1A44223  27.488  42.830   6.273
 3325POPC   D2A44224  27.674  42.755   6.686
 3325POPC   C3A44225  27.542  43.100   6.941
 3325POPC   C4A44226  27.457  43.332   7.298
 3325POPC   C1B44227  27.740  43.267   6.399
 3325POPC   C2B44228  27.596  43.582   6.704
 3325POPC   C3B44229  27.879  43.515   7.043
 3325POPC   C4B44230  27.923  43.127   7.305
 3326POPC   NC344231  22.010  34.898   5.039
 3326POPC   PO444232  21.776  34.409   5.403
 3326POPC   GL144233  22.085  34.537   5.795
 3326POPC   GL244234  22.441  34.371   5.780
 3326POPC   C1A44235  22.202  34.397   6.255
 3326POPC   D2A44236  22.367  34.552   6.684
 3326POPC   C3A44237  22.136  34.563   7.093
 3326POPC   C4A44238  21.887  34.374   7.419
 3326POPC   C1B44239  22.632  34.137   6.154
 3326POPC   C2B44240  22.469  34.062   6.597
 3326POPC   C3B44241  22.626  34.211   7.030
 3326POPC   C4B44242  22.584  34.263   7.496
 3327POPC   NC344243  27.838  23.635   5.279
 3327POPC   PO444244  27.373  24.059   5.503
 3327POPC   GL144245  27.539  23.700   5.763
 3327POPC   GL244246  27.900  23.554   5.773
 3327POPC   C1A44247  27.670  23.730   6.198
 3327POPC   D2A44248  27.743  24.044   6.523
 3327POPC   C3A44249  27.601  23.892   6.935
 3327POPC   C4A44250  27.399  23.658   7.248
 3327POPC   C1B44251  28.101  23.373   6.135
 3327POPC   C2B44252  27.984  23.499   6.535
 3327POPC   C3B44253  27.676  23.377   6.848
 3327POPC   C4B44254  27.908  23.546   7.185
 3328POPC   NC344255  12.292   2.949   5.459
 3328POPC   PO444256  11.671   2.773   5.497
 3328POPC   GL144257  11.965   2.803   5.838
 3328POPC   GL244258  11.987   3.129   5.989
 3328POPC   C1A44259  11.923   2.693   6.296
 3328POPC   D2A44260  12.156   2.681   6.710
 3328POPC   C3A44261  12.024   2.388   7.055
 3328POPC   C4A44262  11.734   2.422   7.422
 3328POPC   C1B44263  12.312   3.004   6.263
 3328POPC   C2B44264  12.269   3.188   6.641
 3328POPC   C3B44265  12.417   3.043   7.006
 3328POPC   C4B44266  12.082   2.864   7.213
 3329POPC   NC344267   3.982  26.044   5.318
 3329POPC   PO444268   3.374  26.434   5.384
 3329POPC   GL144269   3.387  26.152   5.726
 3329POPC   GL244270   3.600  25.882   5.642
 3329POPC   C1A44271   3.341  26.212   6.151
 3329POPC   D2A44272   3.426  26.255   6.569
 3329POPC   C3A44273   3.370  25.877   6.804
 3329POPC   C4A44274   3.322  26.083   7.193
 3329POPC   C1B44275   3.836  25.830   6.066
 3329POPC   C2B44276   3.843  25.932   6.527
 3329POPC   C3B44277   3.802  26.077   6.965
 3329POPC   C4B44278   3.754  25.859   7.361
 3330POPC   NC344279  31.472  44.165   5.455
 3330POPC   PO444280  31.281  44.706   4.991
 3330POPC   GL144281  31.288  44.643   5.498
 3330POPC   GL244282  31.659  44.596   5.684
 3330POPC   C1A44283  31.257  44.636   6.000
 3330POPC   D2A44284  31.476  44.631   6.418
 3330POPC   C3A44285  31.676  44.831   6.781
 3330POPC   C4A44286  31.771  44.903   7.206
 3330POPC   C1B44287  31.688  44.284   6.065
 3330POPC   C2B44288  31.518  44.130   6.467
 3330POPC   C3B44289  31.389  44.337   6.840
 3330POPC   C4B44290  31.666  44.402   7.159
 3331POPC   NC344291  18.671   8.856   5.524
 3331POPC   PO444292  18.027   8.881   5.243
 3331POPC   GL144293  18.100   8.998   5.764
 3331POPC   GL244294  18.448   9.132   5.884
 3331POPC   C1A44295  18.200   8.942   6.284
 3331POPC   D2A44296  18.057   9.053   6.723
 3331POPC   C3A44297  18.265   8.993   7.125
 3331POPC   C4A44298  18.329   9.254   7.476
 3331POPC   C1B44299  18.706   9.146   6.279
 3331POPC   C2B44300  18.616   9.012   6.723
 3331POPC   C3B44301  18.741   9.186   7.143
 3331POPC   C4B44302  18.627   9.630   7.314
 3332POPC   NC344303  32.485  32.611   5.122
 3332POPC   PO444304  32.095  32.233   5.524
 3332POPC   GL144305  32.137  32.034   5.857
 3332POPC   GL244306  32.483  32.085   5.915
 3332POPC   C1A44307  32.100  32.101   6.257
 3332POPC   D2A44308  32.445  32.028   6.510
 3332POPC   C3A44309  32.313  32.263   6.852
 3332POPC   C4A44310  32.136  32.118   7.235
 3332POPC   C1B44311  32.452  32.471   6.238
 3332POPC   C2B44312  32.435  32.765   6.591
 3332POPC   C3B44313  32.468  32.714   7.025
 3332POPC   C4B44314  32.554  32.429   7.308
 3333POPC   NC344315  35.655  36.523   5.535
 3333POPC   PO444316  35.321  37.033   5.175
 3333POPC   GL144317  35.344  36.954   5.627
 3333POPC   GL244318  35.168  36.631   5.686
 3333POPC   C1A44319  35.287  36.993   6.081
 3333POPC   D2A44320  35.066  36.794   6.459
 3333POPC   C3A44321  35.268  36.878   6.885
 3333POPC   C4A44322  35.231  37.080   7.307
 3333POPC   C1B44323  35.293  36.490   6.096
 3333POPC   C2B44324  35.584  36.661   6.412
 3333POPC   C3B44325  35.662  36.534   6.826
 3333POPC   C4B44326  35.542  36.553   7.264
 3334POPC   NC344327  21.501  43.650   5.430
 3334POPC   PO444328  21.669  42.972   5.469
 3334POPC   GL144329  21.385  43.186   5.774
 3334POPC   GL244330  21.238  42.851   5.822
 3334POPC   C1A44331  21.261  43.442   6.178
 3334POPC   D2A44332  21.353  43.621   6.619
 3334POPC   C3A44333  21.392  43.357   6.988
 3334POPC   C4A44334  21.106  43.045   7.096
 3334POPC   C1B44335  21.466  42.969   6.241
 3334POPC   C2B44336  21.497  42.935   6.702
 3334POPC   C3B44337  21.438  42.645   7.064
 3334POPC   C4B44338  21.161  42.601   7.429
 3335POPC   NC344339   6.935   5.686   5.506
 3335POPC   PO444340   6.316   6.100   5.463
 3335POPC   GL144341   6.590   5.957   5.790
 3335POPC   GL244342   6.444   5.644   5.769
 3335POPC   C1A44343   6.706   5.893   6.241
 3335POPC   D2A44344   6.420   5.995   6.589
 3335POPC   C3A44345   6.614   6.205   6.934
 3335POPC   C4A44346   6.897   5.999   7.207
 3335POPC   C1B44347   6.291   5.593   6.182
 3335POPC   C2B44348   6.440   5.477   6.601
 3335POPC   C3B44349   6.760   5.636   6.870
 3335POPC   C4B44350   6.860   5.495   7.285
 3336POPC   NC344351  22.787  23.394   5.436
 3336POPC   PO444352  23.198  23.923   5.510
 3336POPC   GL144353  23.129  23.605   5.772
 3336POPC   GL244354  22.818  23.726   5.902
 3336POPC   C1A44355  23.174  23.437   6.164
 3336POPC   D2A44356  22.947  23.436   6.531
 3336POPC   C3A44357  22.975  23.674   6.915
 3336POPC   C4A44358  23.143  23.784   7.306
 3336POPC   C1B44359  22.864  23.905   6.342
 3336POPC   C2B44360  22.630  24.033   6.734
 3336POPC   C3B44361  22.600  23.964   7.192
 3336POPC   C4B44362  22.846  24.133   7.528
 3337POPC   NC344363  36.683  18.892   5.168
 3337POPC   PO444364  36.076  18.937   5.541
 3337POPC   GL144365  36.151  19.155   5.889
 3337POPC   GL244366  35.853  19.304   5.948
 3337POPC   C1A44367  36.324  18.997   6.282
 3337POPC   D2A44368  36.390  19.100   6.697
 3337POPC   C3A44369  36.282  18.902   7.086
 3337POPC   C4A44370  36.344  18.960   7.570
 3337POPC   C1B44371  35.835  18.911   6.231
 3337POPC   C2B44372  35.942  18.876   6.661
 3337POPC   C3B44373  35.791  19.043   7.037
 3337POPC   C4B44374  35.969  19.292   7.372
 3338POPC   NC344375  11.720  11.311   4.938
 3338POPC   PO444376  11.183  11.273   5.378
 3338POPC   GL144377  11.224  11.350   5.818
 3338POPC   GL244378  11.573  11.360   5.857
 3338POPC   C1A44379  11.317  11.530   6.251
 3338POPC   D2A44380  11.459  11.320   6.642
 3338POPC   C3A44381  11.345  11.491   7.057
 3338POPC   C4A44382  11.254  11.266   7.456
 3338POPC   C1B44383  11.703  11.090   6.239
 3338POPC   C2B44384  11.729  10.859   6.638
 3338POPC   C3B44385  11.630  10.919   7.069
 3338POPC   C4B44386  11.633  10.863   7.538
 3339POPC   NC344387  30.745  41.981   5.484
 3339POPC   PO444388  30.996  41.391   5.471
 3339POPC   GL144389  30.743  41.532   5.847
 3339POPC   GL244390  30.830  41.810   5.956
 3339POPC   C1A44391  30.556  41.566   6.296
 3339POPC   D2A44392  30.759  41.660   6.699
 3339POPC   C3A44393  30.498  41.748   7.027
 3339POPC   C4A44394  30.451  41.557   7.436
 3339POPC   C1B44395  30.976  41.952   6.339
 3339POPC   C2B44396  31.264  41.845   6.665
 3339POPC   C3B44397  31.205  41.785   7.094
 3339POPC   C4B44398  30.863  41.837   7.361
 3340POPC   NC344399  23.389   3.275   5.442
 3340POPC   PO444400  23.845   3.669   5.561
 3340POPC   GL144401  23.553   3.529   5.852
 3340POPC   GL244402  23.730   3.211   5.821
 3340POPC   C1A44403  23.378   3.252   6.176
 3340POPC   D2A44404  23.465   3.263   6.607
 3340POPC   C3A44405  23.698   3.662   6.680
 3340POPC   C4A44406  23.893   3.666   7.081
 3340POPC   C1B44407  23.902   3.366   6.242
 3340POPC   C2B44408  23.983   3.236   6.689
 3340POPC   C3B44409  23.726   3.129   7.063
 3340POPC   C4B44410  23.799   3.137   7.541
 3341POPC   NC344411  28.486  39.494   5.346
 3341POPC   PO444412  28.173  38.957   5.482
 3341POPC   GL144413  28.507  39.143   5.754
 3341POPC   GL244414  28.807  38.897   5.770
 3341POPC   C1A44415  28.349  39.338   6.182
 3341POPC   D2A44416  27.976  39.244   6.493
 3341POPC   C3A44417  28.077  39.121   6.921
 3341POPC   C4A44418  28.406  39.391   6.988
 3341POPC   C1B44419  28.633  38.909   6.182
 3341POPC   C2B44420  28.440  39.001   6.559
 3341POPC   C3B44421  28.541  38.870   6.924
 3341POPC   C4B44422  28.633  39.013   7.270
 3342POPC   NC344423  27.613  44.030   5.391
 3342POPC   PO444424  27.457  43.439   5.520
 3342POPC   GL144425  27.671  43.717   5.796
 3342POPC   GL244426  27.449  44.048   5.895
 3342POPC   C1A44427  27.716  43.751   6.224
 3342POPC   D2A44428  27.703  44.131   6.495
 3342POPC   C3A44429  27.757  44.074   6.932
 3342POPC   C4A44430  27.497  43.818   7.157
 3342POPC   C1B44431  27.250  43.936   6.337
 3342POPC   C2B44432  27.245  44.124   6.793
 3342POPC   C3B44433  27.352  44.306   7.225
 3342POPC   C4B44434  27.334  44.392   7.723
 3343POPC   NC344435  37.474   7.418   5.432
 3343POPC   PO444436  37.719   8.077   5.306
 3343POPC   GL144437  37.691   7.788   5.684
 3343POPC   GL244438  37.884   7.476   5.754
 3343POPC   C1A44439  37.543   7.614   6.111
 3343POPC   D2A44440  37.692   7.673   6.542
 3343POPC   C3A44441  37.638   7.467   6.945
 3343POPC   C4A44442  37.580   7.199   7.266
 3343POPC   C1B44443  38.009   7.392   6.195
 3343POPC   C2B44444  37.980   7.236   6.621
 3343POPC   C3B44445  38.074   7.225   7.052
 3343POPC   C4B44446  37.972   7.481   7.411
 3344POPC   NC344447   3.766  16.740   5.166
 3344POPC   PO444448   3.261  17.085   5.304
 3344POPC   GL144449   3.347  16.932   5.761
 3344POPC   GL244450   3.655  16.709   5.813
 3344POPC   C1A44451   3.204  16.857   6.214
 3344POPC   D2A44452   3.280  17.045   6.645
 3344POPC   C3A44453   3.259  16.808   6.994
 3344POPC   C4A44454   3.567  16.554   7.191
 3344POPC   C1B44455   3.691  16.599   6.280
 3344POPC   C2B44456   3.827  16.419   6.713
 3344POPC   C3B44457   4.047  16.392   7.154
 3344POPC   C4B44458   4.003  16.477   7.629
 3345POPC   NC344459  19.127  41.897   5.145
 3345POPC   PO444460  18.524  41.682   5.206
 3345POPC   GL144461  18.751  41.783   5.648
 3345POPC   GL244462  18.900  41.515   5.792
 3345POPC   C1A44463  18.828  41.896   6.150
 3345POPC   D2A44464  18.769  41.783   6.636
 3345POPC   C3A44465  19.039  41.772   7.055
 3345POPC   C4A44466  19.118  41.710   7.560
 3345POPC   C1B44467  19.009  41.419   6.223
 3345POPC   C2B44468  18.784  41.271   6.592
 3345POPC   C3B44469  18.696  41.094   6.971
 3345POPC   C4B44470  18.903  40.881   7.325
 3346POPC   NC344471  26.029  28.243   5.189
 3346POPC   PO444472  26.538  28.639   5.477
 3346POPC   GL144473  26.308  28.599   5.848
 3346POPC   GL244474  26.029  28.336   5.814
 3346POPC   C1A44475  26.086  28.636   6.224
 3346POPC   D2A44476  26.136  28.345   6.505
 3346POPC   C3A44477  26.374  28.427   6.843
 3346POPC   C4A44478  26.236  28.301   7.240
 3346POPC   C1B44479  25.668  28.333   6.130
 3346POPC   C2B44480  25.648  28.474   6.549
 3346POPC   C3B44481  25.845  28.466   6.924
 3346POPC   C4B44482  25.718  28.282   7.281
 3347POPC   NC344483  42.298  16.435   5.355
 3347POPC   PO444484  42.747  16.976   5.321
 3347POPC   GL144485  42.431  16.846   5.660
 3347POPC   GL244486  42.433  16.567   5.817
 3347POPC   C1A44487  42.203  16.997   6.051
 3347POPC   D2A44488  42.005  17.081   6.460
 3347POPC   C3A44489  42.172  16.789   6.781
 3347POPC   C4A44490  42.087  16.747   7.217
 3347POPC   C1B44491  42.257  16.476   6.212
 3347POPC   C2B44492  42.445  16.381   6.605
 3347POPC   C3B44493  42.521  16.264   7.013
 3347POPC   C4B44494  42.591  16.630   7.279
 3348POPC   NC344495  30.288  40.608   4.959
 3348POPC   PO444496  30.112  40.966   5.500
 3348POPC   GL144497  29.948  40.844   5.857
 3348POPC   GL244498  30.293  40.833   5.952
 3348POPC   C1A44499  29.948  40.609   6.254
 3348POPC   D2A44500  29.678  40.408   6.593
 3348POPC   C3A44501  29.624  40.574   7.010
 3348POPC   C4A44502  29.865  40.763   7.328
 3348POPC   C1B44503  30.155  41.175   6.198
 3348POPC   C2B44504  30.185  40.960   6.553
 3348POPC   C3B44505  30.129  41.005   6.966
 3348POPC   C4B44506  30.381  40.784   7.239
 3349POPC   NC344507  28.963  30.149   5.522
 3349POPC   PO444508  29.610  29.995   5.415
 3349POPC   GL144509  29.314  29.830   5.750
 3349POPC   GL244510  29.032  29.577   5.843
 3349POPC   C1A44511  29.216  30.027   6.156
 3349POPC   D2A44512  29.214  29.820   6.548
 3349POPC   C3A44513  29.375  30.045   6.887
 3349POPC   C4A44514  29.483  29.945   7.289
 3349POPC   C1B44515  28.819  29.731   6.221
 3349POPC   C2B44516  28.707  29.720   6.646
 3349POPC   C3B44517  28.894  29.916   6.986
 3349POPC   C4B44518  29.002  29.887   7.418
 3350POPC   NC344519   2.844  28.959   5.367
 3350POPC   PO444520   2.294  29.331   5.226
 3350POPC   GL144521   2.445  29.359   5.676
 3350POPC   GL244522   2.813  29.372   5.713
 3350POPC   C1A44523   2.521  29.286   6.149
 3350POPC   D2A44524   2.540  28.939   6.507
 3350POPC   C3A44525   2.490  29.020   6.968
 3350POPC   C4A44526   2.498  29.445   7.094
 3350POPC   C1B44527   3.069  29.275   6.096
 3350POPC   C2B44528   3.219  29.150   6.525
 3350POPC   C3B44529   3.007  29.045   6.900
 3350POPC   C4B44530   3.000  29.376   7.153
 3351POPC   NC344531  15.296  16.391   5.568
 3351POPC   PO444532  15.014  17.095   5.530
 3351POPC   GL144533  15.169  16.813   5.829
 3351POPC   GL244534  14.968  16.522   5.927
 3351POPC   C1A44535  15.382  16.645   6.195
 3351POPC   D2A44536  15.297  16.516   6.602
 3351POPC   C3A44537  15.326  16.729   6.986
 3351POPC   C4A44538  15.442  16.467   7.307
 3351POPC   C1B44539  14.890  16.856   6.237
 3351POPC   C2B44540  14.959  16.929   6.635
 3351POPC   C3B44541  14.785  16.807   7.005
 3351POPC   C4B44542  14.923  16.683   7.365
 3352POPC   NC344543  44.547  22.382   5.284
 3352POPC   PO444544  44.876  21.865   5.240
 3352POPC   GL144545  44.845  22.103   5.666
 3352POPC   GL244546  44.512  22.286   5.776
 3352POPC   C1A44547  44.793  22.088   6.140
 3352POPC   D2A44548  44.739  22.299   6.550
 3352POPC   C3A44549  44.808  22.124   6.954
 3352POPC   C4A44550  44.652  21.774   7.187
 3352POPC   C1B44551  44.470  22.538   6.159
 3352POPC   C2B44552  44.490  22.728   6.567
 3352POPC   C3B44553  44.460  22.537   6.975
 3352POPC   C4B44554  44.169  22.517   7.332
 3353POPC   NC344555  38.928  23.286   5.115
 3353POPC   PO444556  38.599  22.783   5.469
 3353POPC   GL144557  38.450  22.840   5.890
 3353POPC   GL244558  38.326  23.186   5.976
 3353POPC   C1A44559  38.570  22.903   6.321
 3353POPC   D2A44560  38.319  22.797   6.666
 3353POPC   C3A44561  38.520  22.882   7.033
 3353POPC   C4A44562  38.808  22.588   7.238
 3353POPC   C1B44563  38.135  23.215   6.411
 3353POPC   C2B44564  38.143  23.233   6.891
 3353POPC   C3B44565  38.206  23.189   7.361
 3353POPC   C4B44566  38.321  23.322   7.822
 3354POPC   NC344567  16.344  37.452   5.179
 3354POPC   PO444568  16.770  37.947   5.153
 3354POPC   GL144569  16.570  37.798   5.561
 3354POPC   GL244570  16.453  37.433   5.671
 3354POPC   C1A44571  16.571  37.813   6.038
 3354POPC   D2A44572  16.679  38.056   6.363
 3354POPC   C3A44573  16.692  37.880   6.763
 3354POPC   C4A44574  16.469  37.921   7.151
 3354POPC   C1B44575  16.743  37.340   6.023
 3354POPC   C2B44576  16.611  37.385   6.447
 3354POPC   C3B44577  16.497  37.413   6.882
 3354POPC   C4B44578  16.690  37.477   7.286
 3355POPC   NC344579  20.344  44.997   5.551
 3355POPC   PO444580  20.789  44.632   5.168
 3355POPC   GL144581  20.660  44.586   5.643
 3355POPC   GL244582  20.309  44.518   5.796
 3355POPC   C1A44583  20.688  44.575   6.126
 3355POPC   D2A44584  20.649  44.262   6.470
 3355POPC   C3A44585  20.628  44.465   6.889
 3355POPC   C4A44586  20.918  44.641   7.183
 3355POPC   C1B44587  20.180  44.591   6.237
 3355POPC   C2B44588  20.161  44.376   6.606
 3355POPC   C3B44589  20.177  44.277   6.995
 3355POPC   C4B44590  20.235  44.507   7.347
 3356POPC   NC344591  24.677   9.151   5.415
 3356POPC   PO444592  24.167   8.811   5.375
 3356POPC   GL144593  24.211   8.764   5.872
 3356POPC   GL244594  24.449   9.054   6.013
 3356POPC   C1A44595  24.287   8.688   6.329
 3356POPC   D2A44596  24.348   8.506   6.743
 3356POPC   C3A44597  24.389   8.853   6.984
 3356POPC   C4A44598  24.241   9.293   6.999
 3356POPC   C1B44599  24.784   8.890   6.325
 3356POPC   C2B44600  24.856   8.847   6.787
 3356POPC   C3B44601  24.726   9.189   7.137
 3356POPC   C4B44602  24.610   9.322   7.563
 3357POPC   NC344603  40.487  38.975   5.404
 3357POPC   PO444604  39.903  39.336   5.223
 3357POPC   GL144605  39.925  39.204   5.658
 3357POPC   GL244606  40.266  39.190   5.789
 3357POPC   C1A44607  39.903  39.329   6.106
 3357POPC   D2A44608  39.991  39.517   6.503
 3357POPC   C3A44609  40.016  39.293   6.866
 3357POPC   C4A44610  39.888  39.271   7.256
 3357POPC   C1B44611  40.385  39.125   6.191
 3357POPC   C2B44612  40.480  39.234   6.609
 3357POPC   C3B44613  40.499  39.168   7.054
 3357POPC   C4B44614  40.360  39.305   7.441
 3358POPC   NC344615  41.842  19.658   5.436
 3358POPC   PO444616  41.238  19.505   5.594
 3358POPC   GL144617  41.502  19.785   5.871
 3358POPC   GL244618  41.870  19.918   5.861
 3358POPC   C1A44619  41.607  19.864   6.311
 3358POPC   D2A44620  41.614  19.920   6.767
 3358POPC   C3A44621  41.475  19.606   7.040
 3358POPC   C4A44622  41.246  19.495   7.363
 3358POPC   C1B44623  41.935  20.230   6.174
 3358POPC   C2B44624  42.052  20.396   6.595
 3358POPC   C3B44625  41.960  20.214   7.008
 3358POPC   C4B44626  41.589  20.076   7.252
 3359POPC   NC344627  27.227  31.081   5.436
 3359POPC   PO444628  27.547  31.657   5.428
 3359POPC   GL144629  27.455  31.545   5.882
 3359POPC   GL244630  27.345  31.202   5.912
 3359POPC   C1A44631  27.531  31.425   6.353
 3359POPC   D2A44632  27.778  31.195   6.690
 3359POPC   C3A44633  27.961  31.337   7.135
 3359POPC   C4A44634  28.162  31.674   7.457
 3359POPC   C1B44635  27.214  31.006   6.278
 3359POPC   C2B44636  27.198  31.155   6.684
 3359POPC   C3B44637  27.404  31.148   7.050
 3359POPC   C4B44638  27.262  31.208   7.442
 3360POPC   NC344639  13.585   4.647   5.005
 3360POPC   PO444640  13.551   5.169   5.460
 3360POPC   GL144641  13.554   5.012   5.852
 3360POPC   GL244642  13.764   5.269   5.964
 3360POPC   C1A44643  13.529   4.942   6.288
 3360POPC   D2A44644  13.681   5.049   6.679
 3360POPC   C3A44645  13.426   5.032   7.045
 3360POPC   C4A44646  13.369   4.637   7.254
 3360POPC   C1B44647  13.735   5.447   6.350
 3360POPC   C2B44648  13.735   5.551   6.759
 3360POPC   C3B44649  13.877   5.310   7.072
 3360POPC   C4B44650  14.003   5.197   7.447
 3361POPC   NC344651   4.531  11.582   5.494
 3361POPC   PO444652   4.123  11.014   5.493
 3361POPC   GL144653   4.313  11.203   5.825
 3361POPC   GL244654   4.641  11.114   5.816
 3361POPC   C1A44655   4.291  11.321   6.245
 3361POPC   D2A44656   4.496  11.419   6.642
 3361POPC   C3A44657   4.187  11.551   6.945
 3361POPC   C4A44658   3.940  11.464   7.331
 3361POPC   C1B44659   4.535  10.891   6.204
 3361POPC   C2B44660   4.429  10.919   6.667
 3361POPC   C3B44661   4.583  11.022   7.124
 3361POPC   C4B44662   4.630  10.761   7.545
 3362POPC   NC344663  24.710  15.326   5.359
 3362POPC   PO444664  24.382  14.729   5.502
 3362POPC   GL144665  24.489  15.069   5.761
 3362POPC   GL244666  24.822  14.918   5.741
 3362POPC   C1A44667  24.369  15.273   6.173
 3362POPC   D2A44668  24.495  15.216   6.619
 3362POPC   C3A44669  24.274  15.404   6.975
 3362POPC   C4A44670  24.233  15.440   7.409
 3362POPC   C1B44671  24.730  14.884   6.179
 3362POPC   C2B44672  24.593  14.712   6.552
 3362POPC   C3B44673  24.732  14.870   6.939
 3362POPC   C4B44674  24.519  15.050   7.271
 3363POPC   NC344675   1.984  11.498   5.101
 3363POPC   PO444676   2.360  11.220   5.576
 3363POPC   GL144677   2.009  11.289   5.828
 3363POPC   GL244678   1.713  11.501   5.693
 3363POPC   C1A44679   2.033  11.196   6.263
 3363POPC   D2A44680   2.023  10.984   6.637
 3363POPC   C3A44681   2.037  11.310   6.923
 3363POPC   C4A44682   1.925  11.393   7.357
 3363POPC   C1B44683   1.559  11.281   6.091
 3363POPC   C2B44684   1.621  11.341   6.567
 3363POPC   C3B44685   1.562  11.204   7.014
 3363POPC   C4B44686   1.849  10.898   7.270
 3364POPC   NC344687  33.697  22.065   5.554
 3364POPC   PO444688  34.192  22.488   5.547
 3364POPC   GL144689  34.076  22.254   5.930
 3364POPC   GL244690  33.893  21.915   5.999
 3364POPC   C1A44691  33.971  22.264   6.374
 3364POPC   D2A44692  34.088  22.139   6.774
 3364POPC   C3A44693  33.866  22.399   7.101
 3364POPC   C4A44694  33.966  22.264   7.541
 3364POPC   C1B44695  33.522  22.039   6.309
 3364POPC   C2B44696  33.597  22.084   6.782
 3364POPC   C3B44697  33.816  21.898   7.191
 3364POPC   C4B44698  33.645  21.791   7.622
 3365POPC   NC344699   6.777  13.033   5.444
 3365POPC   PO444700   6.664  12.307   5.476
 3365POPC   GL144701   6.625  12.657   5.801
 3365POPC   GL244702   6.550  13.040   5.899
 3365POPC   C1A44703   6.425  12.654   6.194
 3365POPC   D2A44704   6.474  12.898   6.552
 3365POPC   C3A44705   6.455  12.612   6.878
 3365POPC   C4A44706   6.338  12.781   7.250
 3365POPC   C1B44707   6.900  12.926   6.171
 3365POPC   C2B44708   6.949  13.080   6.575
 3365POPC   C3B44709   6.862  12.928   6.974
 3365POPC   C4B44710   7.165  12.770   7.189
 3366POPC   NC344711   2.618  14.237   5.323
 3366POPC   PO444712   3.074  14.712   5.581
 3366POPC   GL144713   2.999  14.591   5.988
 3366POPC   GL244714   2.924  14.244   5.943
 3366POPC   C1A44715   2.684  14.603   6.337
 3366POPC   D2A44716   2.516  14.474   6.736
 3366POPC   C3A44717   2.569  14.707   7.091
 3366POPC   C4A44718   2.392  14.764   7.506
 3366POPC   C1B44719   2.526  14.169   6.091
 3366POPC   C2B44720   2.371  14.063   6.491
 3366POPC   C3B44721   2.410  14.023   6.948
 3366POPC   C4B44722   2.687  14.231   7.236
 3367POPC   NC344723  27.800  30.292   5.055
 3367POPC   PO444724  27.360  30.692   5.246
 3367POPC   GL144725  27.500  30.732   5.724
 3367POPC   GL244726  27.176  30.685   5.839
 3367POPC   C1A44727  27.679  30.785   6.194
 3367POPC   D2A44728  27.513  30.739   6.651
 3367POPC   C3A44729  27.819  30.811   7.015
 3367POPC   C4A44730  27.724  30.977   7.434
 3367POPC   C1B44731  27.317  30.433   6.152
 3367POPC   C2B44732  27.197  30.239   6.502
 3367POPC   C3B44733  27.196  30.391   6.907
 3367POPC   C4B44734  27.366  30.664   7.223
 3368POPC   NC344735   2.021  15.028   5.186
 3368POPC   PO444736   2.227  14.369   5.137
 3368POPC   GL144737   2.165  14.283   5.646
 3368POPC   GL244738   1.867  14.492   5.799
 3368POPC   C1A44739   2.014  14.109   6.074
 3368POPC   D2A44740   1.883  14.010   6.504
 3368POPC   C3A44741   1.952  14.226   6.891
 3368POPC   C4A44742   1.859  14.036   7.281
 3368POPC   C1B44743   2.131  14.601   6.192
 3368POPC   C2B44744   2.040  14.710   6.630
 3368POPC   C3B44745   2.043  14.706   7.091
 3368POPC   C4B44746   1.681  14.533   7.265
 3369POPC   NC344747  39.771  38.767   5.239
 3369POPC   PO444748  40.421  38.489   5.342
 3369POPC   GL144749  40.151  38.421   5.688
 3369POPC   GL244750  40.083  38.722   5.663
 3369POPC   C1A44751  40.012  38.253   6.068
 3369POPC   D2A44752  40.006  38.472   6.450
 3369POPC   C3A44753  40.093  38.304   6.834
 3369POPC   C4A44754  39.962  38.372   7.273
 3369POPC   C1B44755  39.931  38.819   6.046
 3369POPC   C2B44756  39.991  38.973   6.470
 3369POPC   C3B44757  40.014  38.793   6.885
 3369POPC   C4B44758  40.176  38.836   7.289
 3370POPC   NC344759  23.498   1.566   5.053
 3370POPC   PO444760  23.859   1.936   5.515
 3370POPC   GL144761  23.600   2.038   5.835
 3370POPC   GL244762  23.845   1.970   6.026
 3370POPC   C1A44763  23.545   2.363   6.155
 3370POPC   D2A44764  23.652   2.293   6.583
 3370POPC   C3A44765  23.343   2.267   6.916
 3370POPC   C4A44766  23.377   2.141   7.361
 3370POPC   C1B44767  23.784   1.596   6.229
 3370POPC   C2B44768  23.894   1.639   6.643
 3370POPC   C3B44769  23.645   1.832   6.962
 3370POPC   C4B44770  23.496   1.548   7.286
 3371POPC   NC344771  17.187  33.390   5.490
 3371POPC   PO444772  17.447  32.822   5.127
 3371POPC   GL144773  17.484  32.820   5.663
 3371POPC   GL244774  17.600  33.130   5.763
 3371POPC   C1A44775  17.449  32.889   6.187
 3371POPC   D2A44776  17.648  32.830   6.633
 3371POPC   C3A44777  17.344  32.905   7.040
 3371POPC   C4A44778  17.390  32.835   7.544
 3371POPC   C1B44779  17.634  33.352   6.174
 3371POPC   C2B44780  17.483  33.296   6.612
 3371POPC   C3B44781  17.718  33.237   7.036
 3371POPC   C4B44782  17.549  33.289   7.474
 3372POPC   NC344783  17.828  37.130   5.518
 3372POPC   PO444784  17.440  36.599   5.437
 3372POPC   GL144785  17.525  36.812   5.790
 3372POPC   GL244786  17.386  37.138   5.811
 3372POPC   C1A44787  17.678  36.904   6.171
 3372POPC   D2A44788  17.541  37.171   6.467
 3372POPC   C3A44789  17.650  36.987   6.845
 3372POPC   C4A44790  17.661  36.906   7.264
 3372POPC   C1B44791  17.133  37.037   6.183
 3372POPC   C2B44792  17.062  37.180   6.638
 3372POPC   C3B44793  17.227  37.176   7.090
 3372POPC   C4B44794  17.200  36.848   7.457
 3373POPC   NC344795  14.492  39.906   5.391
 3373POPC   PO444796  13.987  40.118   5.656
 3373POPC   GL144797  14.231  39.777   5.875
 3373POPC   GL244798  14.604  39.801   5.874
 3373POPC   C1A44799  14.292  39.751   6.351
 3373POPC   D2A44800  14.131  40.012   6.727
 3373POPC   C3A44801  14.242  39.851   7.157
 3373POPC   C4A44802  14.686  39.747   7.233
 3373POPC   C1B44803  14.484  40.176   6.119
 3373POPC   C2B44804  14.612  40.190   6.552
 3373POPC   C3B44805  14.543  40.249   6.996
 3373POPC   C4B44806  14.688  40.250   7.415
 3374POPC   NC344807  31.233   9.498   5.376
 3374POPC   PO444808  31.715  10.064   5.346
 3374POPC   GL144809  31.738   9.848   5.759
 3374POPC   GL244810  31.540   9.554   5.785
 3374POPC   C1A44811  31.511   9.885   6.174
 3374POPC   D2A44812  31.343   9.778   6.599
 3374POPC   C3A44813  31.593   9.835   6.942
 3374POPC   C4A44814  31.414   9.893   7.326
 3374POPC   C1B44815  31.322   9.412   6.189
 3374POPC   C2B44816  31.265   9.253   6.612
 3374POPC   C3B44817  31.259   9.393   7.031
 3374POPC   C4B44818  31.601   9.412   7.288
 3375POPC   NC344819  10.941   8.352   5.492
 3375POPC   PO444820  10.348   8.002   5.565
 3375POPC   GL144821  10.591   8.164   5.857
 3375POPC   GL244822  10.885   7.977   5.863
 3375POPC   C1A44823  10.354   8.318   6.206
 3375POPC   D2A44824  10.330   8.523   6.585
 3375POPC   C3A44825  10.384   8.304   6.935
 3375POPC   C4A44826  10.646   8.461   7.204
 3375POPC   C1B44827  10.804   8.117   6.323
 3375POPC   C2B44828  10.688   7.942   6.725
 3375POPC   C3B44829  10.675   7.930   7.178
 3375POPC   C4B44830  10.635   7.767   7.639
 3376POPC   NC344831  21.144  34.114   5.348
 3376POPC   PO444832  21.636  33.659   5.244
 3376POPC   GL144833  21.521  33.726   5.720
 3376POPC   GL244834  21.204  33.899   5.809
 3376POPC   C1A44835  21.407  33.533   6.178
 3376POPC   D2A44836  21.511  33.526   6.637
 3376POPC   C3A44837  21.257  33.501   7.020
 3376POPC   C4A44838  21.300  33.613   7.510
 3376POPC   C1B44839  21.347  34.047   6.192
 3376POPC   C2B44840  21.325  34.242   6.593
 3376POPC   C3B44841  21.381  33.973   6.934
 3376POPC   C4B44842  21.502  34.049   7.362
 3377POPC   NC344843  17.734  40.484   5.590
 3377POPC   PO444844  17.772  39.897   5.250
 3377POPC   GL144845  17.485  40.011   5.606
 3377POPC   GL244846  17.214  39.809   5.736
 3377POPC   C1A44847  17.462  40.102   6.073
 3377POPC   D2A44848  17.291  39.997   6.489
 3377POPC   C3A44849  17.343  40.065   6.918
 3377POPC   C4A44850  17.343  40.275   7.336
 3377POPC   C1B44851  17.182  39.643   6.141
 3377POPC   C2B44852  17.016  39.557   6.548
 3377POPC   C3B44853  16.894  39.812   6.878
 3377POPC   C4B44854  16.979  39.922   7.298
 3378POPC   NC344855   6.513   7.543   5.606
 3378POPC   PO444856   6.771   6.976   5.301
 3378POPC   GL144857   6.884   7.218   5.786
 3378POPC   GL244858   6.796   7.576   5.996
 3378POPC   C1A44859   6.954   7.201   6.274
 3378POPC   D2A44860   6.852   7.588   6.538
 3378POPC   C3A44861   6.665   7.469   6.928
 3378POPC   C4A44862   6.882   7.333   7.303
 3378POPC   C1B44863   6.467   7.437   6.257
 3378POPC   C2B44864   6.264   7.245   6.569
 3378POPC   C3B44865   6.290   7.133   7.007
 3378POPC   C4B44866   6.315   7.413   7.340
 3379POPC   NC344867  29.583   7.044   5.268
 3379POPC   PO444868  28.894   7.082   5.341
 3379POPC   GL144869  29.051   7.280   5.718
 3379POPC   GL244870  28.916   7.615   5.767
 3379POPC   C1A44871  29.391   7.183   6.050
 3379POPC   D2A44872  29.445   7.334   6.466
 3379POPC   C3A44873  29.338   7.049   6.823
 3379POPC   C4A44874  29.213   7.109   7.269
 3379POPC   C1B44875  28.982   7.443   6.204
 3379POPC   C2B44876  28.964   7.333   6.644
 3379POPC   C3B44877  29.009   7.512   7.033
 3379POPC   C4B44878  28.804   7.412   7.398
 3380POPC   NC344879  19.400  37.105   5.639
 3380POPC   PO444880  20.059  36.772   5.551
 3380POPC   GL144881  19.831  36.910   5.875
 3380POPC   GL244882  19.546  36.676   5.872
 3380POPC   C1A44883  19.969  37.054   6.282
 3380POPC   D2A44884  19.987  36.862   6.699
 3380POPC   C3A44885  19.831  37.100   7.080
 3380POPC   C4A44886  19.985  36.951   7.472
 3380POPC   C1B44887  19.756  36.575   6.277
 3380POPC   C2B44888  19.558  36.575   6.686
 3380POPC   C3B44889  19.648  36.630   7.107
 3380POPC   C4B44890  19.746  36.478   7.506
 3381POPC   NC344891  18.482  10.622   5.383
 3381POPC   PO444892  17.867  10.587   5.416
 3381POPC   GL144893  18.142  10.755   5.768
 3381POPC   GL244894  18.412  10.541   5.896
 3381POPC   C1A44895  18.117  10.888   6.205
 3381POPC   D2A44896  18.355  10.800   6.588
 3381POPC   C3A44897  18.366  10.777   7.047
 3381POPC   C4A44898  18.356  10.374   7.254
 3381POPC   C1B44899  18.569  10.404   6.323
 3381POPC   C2B44900  18.497  10.219   6.764
 3381POPC   C3B44901  18.264   9.916   7.072
 3381POPC   C4B44902  18.140   9.778   7.498
 3382POPC   NC344903  20.788  21.346   5.330
 3382POPC   PO444904  20.135  21.226   5.434
 3382POPC   GL144905  20.486  21.207   5.730
 3382POPC   GL244906  20.589  21.522   5.780
 3382POPC   C1A44907  20.672  21.222   6.179
 3382POPC   D2A44908  20.856  21.462   6.530
 3382POPC   C3A44909  20.707  21.276   6.919
 3382POPC   C4A44910  20.552  21.137   7.336
 3382POPC   C1B44911  20.425  21.666   6.192
 3382POPC   C2B44912  20.367  21.565   6.644
 3382POPC   C3B44913  20.508  21.714   7.069
 3382POPC   C4B44914  20.548  21.628   7.519
 3383POPC   NC344915  43.217  23.328   5.480
 3383POPC   PO444916  43.058  22.661   5.309
 3383POPC   GL144917  43.116  22.838   5.719
 3383POPC   GL244918  42.846  23.099   5.756
 3383POPC   C1A44919  43.070  22.819   6.183
 3383POPC   D2A44920  42.961  22.927   6.621
 3383POPC   C3A44921  43.095  22.781   7.044
 3383POPC   C4A44922  43.175  22.369   7.220
 3383POPC   C1B44923  42.706  23.196   6.177
 3383POPC   C2B44924  42.483  23.088   6.570
 3383POPC   C3B44925  42.622  23.038   6.992
 3383POPC   C4B44926  42.823  23.125   7.369
 3384POPC   NC344927  42.615  22.845   5.350
 3384POPC   PO444928  42.369  23.385   5.342
 3384POPC   GL144929  42.324  23.202   5.733
 3384POPC   GL244930  42.186  22.850   5.721
 3384POPC   C1A44931  42.210  23.122   6.155
 3384POPC   D2A44932  42.067  22.792   6.467
 3384POPC   C3A44933  42.114  22.923   6.901
 3384POPC   C4A44934  42.208  23.184   7.261
 3384POPC   C1B44935  42.524  22.732   6.022
 3384POPC   C2B44936  42.610  22.614   6.427
 3384POPC   C3B44937  42.475  22.571   6.836
 3384POPC   C4B44938  42.663  22.513   7.250
 3385POPC   NC344939  23.805  12.891   5.406
 3385POPC   PO444940  23.201  13.053   5.415
 3385POPC   GL144941  23.476  12.980   5.863
 3385POPC   GL244942  23.860  12.853   5.911
 3385POPC   C1A44943  23.522  12.801   6.332
 3385POPC   D2A44944  23.570  12.726   6.794
 3385POPC   C3A44945  23.308  12.899   7.152
 3385POPC   C4A44946  23.403  12.942   7.628
 3385POPC   C1B44947  24.001  12.494   6.195
 3385POPC   C2B44948  23.981  12.439   6.689
 3385POPC   C3B44949  23.928  12.537   7.109
 3385POPC   C4B44950  23.791  12.923   7.258
 3386POPC   NC344951  26.135  35.056   5.196
 3386POPC   PO444952  25.907  34.422   5.431
 3386POPC   GL144953  25.895  34.755   5.728
 3386POPC   GL244954  26.233  34.876   5.704
 3386POPC   C1A44955  25.838  34.694   6.178
 3386POPC   D2A44956  26.022  34.355   6.435
 3386POPC   C3A44957  25.956  34.334   6.881
 3386POPC   C4A44958  25.634  34.314   7.159
 3386POPC   C1B44959  26.359  34.892   6.168
 3386POPC   C2B44960  26.379  35.126   6.583
 3386POPC   C3B44961  26.452  34.965   7.052
 3386POPC   C4B44962  26.551  34.697   7.450
 3387POPC   NC344963  42.914   9.393   5.396
 3387POPC   PO444964  43.335   9.862   5.258
 3387POPC   GL144965  43.194   9.932   5.684
 3387POPC   GL244966  42.913   9.734   5.794
 3387POPC   C1A44967  43.278   9.972   6.120
 3387POPC   D2A44968  43.423   9.722   6.488
 3387POPC   C3A44969  43.218   9.682   6.895
 3387POPC   C4A44970  43.063   9.924   7.230
 3387POPC   C1B44971  42.977   9.564   6.236
 3387POPC   C2B44972  42.776   9.591   6.656
 3387POPC   C3B44973  42.785   9.520   7.106
 3387POPC   C4B44974  42.838   9.536   7.571
 3388POPC   NC344975  11.855  34.934   5.599
 3388POPC   PO444976  12.203  34.521   5.237
 3388POPC   GL144977  12.271  34.477   5.716
 3388POPC   GL244978  12.490  34.195   5.860
 3388POPC   C1A44979  12.056  34.513   6.151
 3388POPC   D2A44980  11.937  34.334   6.588
 3388POPC   C3A44981  12.059  34.569   6.963
 3388POPC   C4A44982  12.036  34.661   7.440
 3388POPC   C1B44983  12.463  34.231   6.316
 3388POPC   C2B44984  12.392  34.599   6.555
 3388POPC   C3B44985  12.502  34.816   6.915
 3388POPC   C4B44986  12.506  34.549   7.225
 3389POPC   NC344987   0.641  41.050   5.423
 3389POPC   PO444988  44.939  41.139   5.289
 3389POPC   GL144989   0.182  41.102   5.700
 3389POPC   GL244990   0.268  40.754   5.712
 3389POPC   C1A44991   0.526  40.997   6.070
 3389POPC   D2A44992   0.591  40.785   6.468
 3389POPC   C3A44993   0.510  40.968   6.879
 3389POPC   C4A44994   0.587  40.695   7.240
 3389POPC   C1B44995   0.234  40.576   6.152
 3389POPC   C2B44996   0.003  40.624   6.553
 3389POPC   C3B44997   0.127  40.639   7.014
 3389POPC   C4B44998   0.278  40.274   7.284
 3390POPC   NC344999  10.841  34.404   5.591
 3390POPC   PO445000  10.180  34.739   5.462
 3390POPC   GL145001  10.384  34.595   5.824
 3390POPC   GL245002  10.282  34.249   5.748
 3390POPC   C1A45003  10.571  34.713   6.249
 3390POPC   D2A45004  10.500  34.916   6.663
 3390POPC   C3A45005  10.621  34.666   7.032
 3390POPC   C4A45006  10.734  34.661   7.464
 3390POPC   C1B45007  10.398  34.227   6.192
 3390POPC   C2B45008  10.422  34.354   6.641
 3390POPC   C3B45009  10.215  34.331   7.056
 3390POPC   C4B45010  10.306  34.280   7.508
 3391POPC   NC345011  27.364  40.252   5.507
 3391POPC   PO445012  27.819  39.778   5.325
 3391POPC   GL145013  27.721  39.865   5.803
 3391POPC   GL245014  27.673  40.213   5.903
 3391POPC   C1A45015  27.880  39.914   6.256
 3391POPC   D2A45016  27.728  39.898   6.689
 3391POPC   C3A45017  27.965  39.925   7.095
 3391POPC   C4A45018  27.837  39.974   7.538
 3391POPC   C1B45019  27.309  40.230   6.207
 3391POPC   C2B45020  27.384  40.345   6.661
 3391POPC   C3B45021  27.465  40.129   7.064
 3391POPC   C4B45022  27.326  40.214   7.500
 3392POPC   NC345023  40.875  42.518   5.386
 3392POPC   PO445024  40.556  41.898   5.395
 3392POPC   GL145025  40.665  42.091   5.798
 3392POPC   GL245026  40.976  42.274   5.808
 3392POPC   C1A45027  40.683  42.253   6.252
 3392POPC   D2A45028  40.974  42.267   6.607
 3392POPC   C3A45029  40.848  42.293   7.002
 3392POPC   C4A45030  40.785  42.406   7.397
 3392POPC   C1B45031  41.157  42.099   6.159
 3392POPC   C2B45032  41.280  41.884   6.546
 3392POPC   C3B45033  41.248  41.944   7.027
 3392POPC   C4B45034  40.957  41.910   7.425
 3393POPC   NC345035  23.000  25.948   5.508
 3393POPC   PO445036  22.369  26.148   5.427
 3393POPC   GL145037  22.640  26.243   5.788
 3393POPC   GL245038  22.996  26.384   5.778
 3393POPC   C1A45039  22.723  26.007   6.176
 3393POPC   D2A45040  22.997  25.832   6.508
 3393POPC   C3A45041  22.850  25.794   6.918
 3393POPC   C4A45042  22.975  25.575   7.292
 3393POPC   C1B45043  23.209  26.184   6.120
 3393POPC   C2B45044  23.169  26.320   6.543
 3393POPC   C3B45045  23.296  26.111   6.909
 3393POPC   C4B45046  23.059  26.080   7.276
 3394POPC   NC345047  42.427   2.923   5.258
 3394POPC   PO445048  42.132   2.302   5.337
 3394POPC   GL145049  42.291   2.590   5.693
 3394POPC   GL245050  42.477   2.901   5.777
 3394POPC   C1A45051  42.323   2.561   6.151
 3394POPC   D2A45052  42.041   2.498   6.507
 3394POPC   C3A45053  42.253   2.586   6.881
 3394POPC   C4A45054  42.117   2.576   7.291
 3394POPC   C1B45055  42.699   2.937   6.192
 3394POPC   C2B45056  42.669   2.877   6.645
 3394POPC   C3B45057  42.577   2.962   7.070
 3394POPC   C4B45058  42.143   3.077   7.156
 3395POPC   NC345059  11.098  32.008   4.974
 3395POPC   PO445060  11.450  32.356   5.432
 3395POPC   GL145061  11.166  32.149   5.727
 3395POPC   GL245062  11.039  32.455   5.862
 3395POPC   C1A45063  11.179  32.013   6.198
 3395POPC   D2A45064  11.069  32.141   6.661
 3395POPC   C3A45065  11.330  32.245   7.018
 3395POPC   C4A45066  11.448  31.880   7.232
 3395POPC   C1B45067  10.964  32.497   6.305
 3395POPC   C2B45068  11.085  32.655   6.726
 3395POPC   C3B45069  10.975  32.634   7.157
 3395POPC   C4B45070  11.214  32.724   7.525
 3396POPC   NC345071  20.033  15.433   5.294
 3396POPC   PO445072  19.478  15.776   5.435
 3396POPC   GL145073  19.624  15.484   5.790
 3396POPC   GL245074  19.968  15.383   5.862
 3396POPC   C1A45075  19.564  15.281   6.182
 3396POPC   D2A45076  19.738  15.430   6.558
 3396POPC   C3A45077  19.553  15.244   6.959
 3396POPC   C4A45078  19.390  15.290   7.383
 3396POPC   C1B45079  20.096  15.155   6.253
 3396POPC   C2B45080  19.959  14.987   6.658
 3396POPC   C3B45081  20.051  15.274   6.996
 3396POPC   C4B45082  20.271  15.266   7.359
 3397POPC   NC345083  39.357   8.765   4.974
 3397POPC   PO445084  39.298   8.270   5.493
 3397POPC   GL145085  39.204   8.003   5.852
 3397POPC   GL245086  38.850   7.822   5.793
 3397POPC   C1A45087  39.302   8.164   6.295
 3397POPC   D2A45088  39.144   8.423   6.645
 3397POPC   C3A45089  39.320   8.403   7.069
 3397POPC   C4A45090  39.617   8.112   7.218
 3397POPC   C1B45091  38.820   8.026   6.186
 3397POPC   C2B45092  38.890   7.942   6.621
 3397POPC   C3B45093  38.887   8.118   7.033
 3397POPC   C4B45094  38.814   8.575   7.012
 3398POPC   NC345095   0.688  43.601   5.392
 3398POPC   PO445096   0.177  44.059   5.376
 3398POPC   GL145097   0.350  44.013   5.754
 3398POPC   GL245098   0.689  43.975   5.749
 3398POPC   C1A45099   0.293  44.104   6.171
 3398POPC   D2A45100   0.210  43.804   6.493
 3398POPC   C3A45101   0.352  43.941   6.908
 3398POPC   C4A45102   0.249  43.959   7.348
 3398POPC   C1B45103   0.637  43.718   6.124
 3398POPC   C2B45104   0.734  43.744   6.560
 3398POPC   C3B45105   0.846  43.820   6.968
 3398POPC   C4B45106   0.719  43.795   7.416
 3399POPC   NC345107   0.805   1.014   5.363
 3399POPC   PO445108   1.390   1.335   5.465
 3399POPC   GL145109   1.229   1.076   5.742
 3399POPC   GL245110   1.407   0.754   5.805
 3399POPC   C1A45111   1.164   1.305   6.101
 3399POPC   D2A45112   1.228   1.310   6.526
 3399POPC   C3A45113   0.885   1.190   6.794
 3399POPC   C4A45114   0.896   1.251   7.221
 3399POPC   C1B45115   1.479   0.935   6.211
 3399POPC   C2B45116   1.652   0.999   6.617
 3399POPC   C3B45117   1.331   1.001   6.934
 3399POPC   C4B45118   1.183   0.830   7.303
 3400POPC   NC345119   6.491   6.568   5.386
 3400POPC   PO445120   6.368   7.120   5.718
 3400POPC   GL145121   6.615   6.781   5.873
 3400POPC   GL245122   6.925   6.657   5.701
 3400POPC   C1A45123   6.698   6.759   6.317
 3400POPC   D2A45124   6.701   6.976   6.718
 3400POPC   C3A45125   6.581   6.716   7.082
 3400POPC   C4A45126   6.423   6.901   7.461
 3400POPC   C1B45127   6.889   6.354   6.058
 3400POPC   C2B45128   6.952   6.350   6.526
 3400POPC   C3B45129   7.110   6.400   6.963
 3400POPC   C4B45130   6.925   6.456   7.397
 3401POPC   NC345131  24.478  33.641   5.695
 3401POPC   PO445132  24.512  33.031   5.222
 3401POPC   GL145133  24.483  33.026   5.684
 3401POPC   GL245134  24.298  32.723   5.819
 3401POPC   C1A45135  24.503  33.078   6.157
 3401POPC   D2A45136  24.466  32.970   6.617
 3401POPC   C3A45137  24.605  33.212   6.987
 3401POPC   C4A45138  24.875  33.173   7.348
 3401POPC   C1B45139  24.262  32.621   6.261
 3401POPC   C2B45140  24.276  32.517   6.709
 3401POPC   C3B45141  24.347  32.734   7.090
 3401POPC   C4B45142  24.217  32.630   7.506
 3402POPC   NC345143   3.113  20.696   5.606
 3402POPC   PO445144   2.454  20.665   5.497
 3402POPC   GL145145   2.544  20.719   5.925
 3402POPC   GL245146   2.766  20.999   5.848
 3402POPC   C1A45147   2.710  20.402   6.280
 3402POPC   D2A45148   2.998  20.150   6.556
 3402POPC   C3A45149   3.041  20.288   7.001
 3402POPC   C4A45150   2.769  20.435   7.357
 3402POPC   C1B45151   2.971  20.825   6.207
 3402POPC   C2B45152   3.060  20.674   6.617
 3402POPC   C3B45153   2.870  20.785   6.993
 3402POPC   C4B45154   3.003  20.882   7.453
 3403POPC   NC345155  11.059  20.929   5.577
 3403POPC   PO445156  11.446  21.389   5.190
 3403POPC   GL145157  11.379  21.560   5.611
 3403POPC   GL245158  11.368  21.279   5.766
 3403POPC   C1A45159  11.227  21.682   6.047
 3403POPC   D2A45160  11.252  21.432   6.436
 3403POPC   C3A45161  11.219  21.564   6.873
 3403POPC   C4A45162  11.206  21.328   7.241
 3403POPC   C1B45163  11.647  21.409   6.105
 3403POPC   C2B45164  11.750  21.490   6.540
 3403POPC   C3B45165  11.662  21.324   6.960
 3403POPC   C4B45166  11.676  21.485   7.397
 3404POPC   NC345167  27.358  26.300   5.490
 3404POPC   PO445168  27.761  25.807   5.609
 3404POPC   GL145169  27.534  26.016   5.907
 3404POPC   GL245170  27.297  25.767   5.985
 3404POPC   C1A45171  27.629  25.962   6.342
 3404POPC   D2A45172  27.487  25.914   6.744
 3404POPC   C3A45173  27.686  26.046   7.112
 3404POPC   C4A45174  28.104  26.146   7.252
 3404POPC   C1B45175  27.127  25.770   6.391
 3404POPC   C2B45176  27.088  25.620   6.818
 3404POPC   C3B45177  27.236  25.706   7.216
 3404POPC   C4B45178  27.402  25.659   7.624
 3405POPC   NC345179   0.643   9.914   5.453
 3405POPC   PO445180   0.258   9.398   5.275
 3405POPC   GL145181   0.362   9.547   5.710
 3405POPC   GL245182   0.709   9.516   5.844
 3405POPC   C1A45183   0.261   9.657   6.158
 3405POPC   D2A45184   0.204   9.505   6.595
 3405POPC   C3A45185   0.396   9.643   6.976
 3405POPC   C4A45186   0.814   9.528   7.025
 3405POPC   C1B45187   0.735   9.866   6.150
 3405POPC   C2B45188   0.526   9.941   6.568
 3405POPC   C3B45189   0.718  10.058   6.967
 3405POPC   C4B45190   0.920   9.916   7.329
 3406POPC   NC345191  10.483   4.496   5.491
 3406POPC   PO445192  10.120   3.844   5.603
 3406POPC   GL145193  10.475   4.018   5.857
 3406POPC   GL245194  10.329   4.338   5.931
 3406POPC   C1A45195  10.755   4.296   6.171
 3406POPC   D2A45196  10.554   4.396   6.541
 3406POPC   C3A45197  10.665   4.555   6.910
 3406POPC   C4A45198  10.495   4.554   7.317
 3406POPC   C1B45199  10.213   4.100   6.276
 3406POPC   C2B45200  10.272   3.988   6.689
 3406POPC   C3B45201  10.438   4.093   7.092
 3406POPC   C4B45202  10.341   3.814   7.425
 3407POPC   NC345203   0.123   4.086   5.376
 3407POPC   PO445204   0.641   4.461   5.537
 3407POPC   GL145205   0.490   4.422   5.896
 3407POPC   GL245206   0.156   4.494   5.795
 3407POPC   C1A45207   0.633   4.469   6.318
 3407POPC   D2A45208   1.015   4.367   6.563
 3407POPC   C3A45209   0.876   4.459   6.966
 3407POPC   C4A45210   0.569   4.189   7.170
 3407POPC   C1B45211   0.141   4.294   6.228
 3407POPC   C2B45212   0.306   4.166   6.652
 3407POPC   C3B45213   0.091   4.081   7.047
 3407POPC   C4B45214   0.134   4.392   7.387
 3408POPC   NC345215  23.810  43.140   5.546
 3408POPC   PO445216  23.206  42.933   5.618
 3408POPC   GL145217  23.442  43.245   5.892
 3408POPC   GL245218  23.773  43.078   6.035
 3408POPC   C1A45219  23.586  43.471   6.282
 3408POPC   D2A45220  23.741  43.158   6.556
 3408POPC   C3A45221  23.691  43.259   6.963
 3408POPC   C4A45222  24.009  43.468   7.177
 3408POPC   C1B45223  24.072  42.810   6.267
 3408POPC   C2B45224  24.217  42.867   6.673
 3408POPC   C3B45225  23.981  42.736   7.021
 3408POPC   C4B45226  24.098  42.689   7.452
 3409POPC   NC345227  11.111  40.056   5.054
 3409POPC   PO445228  11.555  39.652   5.372
 3409POPC   GL145229  11.265  39.917   5.639
 3409POPC   GL245230  11.131  40.276   5.636
 3409POPC   C1A45231  11.104  39.879   6.059
 3409POPC   D2A45232  10.917  39.715   6.454
 3409POPC   C3A45233  11.182  39.886   6.774
 3409POPC   C4A45234  11.516  40.039   7.045
 3409POPC   C1B45235  11.002  40.408   6.084
 3409POPC   C2B45236  11.115  40.551   6.547
 3409POPC   C3B45237  11.018  40.358   6.989
 3409POPC   C4B45238  11.046  39.991   7.260
 3410POPC   NC345239   2.545  38.821   5.497
 3410POPC   PO445240   2.991  38.384   5.253
 3410POPC   GL145241   2.770  38.269   5.686
 3410POPC   GL245242   2.453  38.381   5.851
 3410POPC   C1A45243   2.832  38.223   6.160
 3410POPC   D2A45244   2.947  38.451   6.560
 3410POPC   C3A45245   2.899  38.301   6.956
 3410POPC   C4A45246   2.776  38.343   7.354
 3410POPC   C1B45247   2.474  38.576   6.253
 3410POPC   C2B45248   2.494  38.701   6.648
 3410POPC   C3B45249   2.447  38.526   7.006
 3410POPC   C4B45250   2.463  38.753   7.389
 3411POPC   NC345251  33.006   5.652   5.459
 3411POPC   PO445252  32.870   4.961   5.529
 3411POPC   GL145253  33.223   4.995   5.814
 3411POPC   GL245254  33.402   5.305   5.708
 3411POPC   C1A45255  33.107   4.966   6.253
 3411POPC   D2A45256  32.824   5.069   6.619
 3411POPC   C3A45257  32.994   5.072   7.015
 3411POPC   C4A45258  33.320   4.867   7.237
 3411POPC   C1B45259  33.353   5.426   6.130
 3411POPC   C2B45260  33.194   5.457   6.554
 3411POPC   C3B45261  33.401   5.381   6.948
 3411POPC   C4B45262  33.265   5.375   7.356
 3412POPC   NC345263  29.348  17.721   5.470
 3412POPC   PO445264  29.012  17.206   5.308
 3412POPC   GL145265  29.051  17.416   5.768
 3412POPC   GL245266  29.027  17.763   5.890
 3412POPC   C1A45267  29.269  17.457   6.207
 3412POPC   D2A45268  29.167  17.607   6.643
 3412POPC   C3A45269  29.284  17.386   7.056
 3412POPC   C4A45270  29.352  17.188   7.494
 3412POPC   C1B45271  28.775  17.640   6.234
 3412POPC   C2B45272  28.642  17.524   6.619
 3412POPC   C3B45273  28.786  17.673   6.974
 3412POPC   C4B45274  29.141  17.875   7.117
 3413POPC   NC345275  15.152  35.644   5.124
 3413POPC   PO445276  14.763  35.167   5.320
 3413POPC   GL145277  15.097  35.247   5.694
 3413POPC   GL245278  15.299  35.572   5.708
 3413POPC   C1A45279  14.944  35.299   6.183
 3413POPC   D2A45280  14.776  35.152   6.594
 3413POPC   C3A45281  15.024  35.229   6.966
 3413POPC   C4A45282  15.411  35.366   7.194
 3413POPC   C1B45283  15.354  35.607   6.190
 3413POPC   C2B45284  15.272  35.520   6.639
 3413POPC   C3B45285  15.108  35.749   7.050
 3413POPC   C4B45286  15.333  35.853   7.463
 3414POPC   NC345287  24.312   2.940   5.252
 3414POPC   PO445288  24.674   2.349   5.322
 3414POPC   GL145289  24.544   2.514   5.715
 3414POPC   GL245290  24.654   2.871   5.728
 3414POPC   C1A45291  24.622   2.632   6.161
 3414POPC   D2A45292  24.398   2.746   6.506
 3414POPC   C3A45293  24.572   2.648   6.886
 3414POPC   C4A45294  24.514   2.833   7.285
 3414POPC   C1B45295  24.840   3.111   6.107
 3414POPC   C2B45296  24.922   2.972   6.575
 3414POPC   C3B45297  24.920   3.023   7.035
 3414POPC   C4B45298  24.676   3.330   7.297
 3415POPC   NC345299  24.256  24.708   5.466
 3415POPC   PO445300  24.696  24.156   5.337
 3415POPC   GL145301  24.656  24.442   5.689
 3415POPC   GL245302  24.337  24.316   5.830
 3415POPC   C1A45303  24.715  24.502   6.146
 3415POPC   D2A45304  24.520  24.538   6.564
 3415POPC   C3A45305  24.707  24.549   6.956
 3415POPC   C4A45306  24.645  24.214   7.249
 3415POPC   C1B45307  24.178  24.576   6.187
 3415POPC   C2B45308  24.019  24.684   6.637
 3415POPC   C3B45309  24.129  24.559   7.096
 3415POPC   C4B45310  24.065  24.626   7.568
 3416POPC   NC345311  31.128   1.049   5.467
 3416POPC   PO445312  30.482   1.089   5.279
 3416POPC   GL145313  30.634   1.222   5.670
 3416POPC   GL245314  30.662   0.889   5.752
 3416POPC   C1A45315  30.748   1.297   6.126
 3416POPC   D2A45316  30.859   1.145   6.548
 3416POPC   C3A45317  30.962   1.433   6.898
 3416POPC   C4A45318  30.842   1.414   7.327
 3416POPC   C1B45319  30.326   1.007   6.046
 3416POPC   C2B45320  30.330   1.240   6.455
 3416POPC   C3B45321  30.469   1.220   6.896
 3416POPC   C4B45322  30.286   1.040   7.261
 3417POPC   NC345323   7.681  14.462   5.331
 3417POPC   PO445324   7.273  14.108   5.773
 3417POPC   GL145325   7.676  14.266   5.864
 3417POPC   GL245326   7.708  14.613   5.809
 3417POPC   C1A45327   7.629  14.384   6.291
 3417POPC   D2A45328   7.531  14.281   6.689
 3417POPC   C3A45329   7.475  14.523   7.023
 3417POPC   C4A45330   7.118  14.526   7.241
 3417POPC   C1B45331   7.645  14.876   6.195
 3417POPC   C2B45332   7.701  14.809   6.625
 3417POPC   C3B45333   7.683  14.977   7.034
 3417POPC   C4B45334   7.786  14.928   7.454
 3418POPC   NC345335  16.151  36.945   5.479
 3418POPC   PO445336  15.527  36.705   5.375
 3418POPC   GL145337  15.820  36.695   5.754
 3418POPC   GL245338  15.839  37.071   5.856
 3418POPC   C1A45339  16.110  36.705   6.114
 3418POPC   D2A45340  15.970  36.788   6.518
 3418POPC   C3A45341  16.137  36.649   6.900
 3418POPC   C4A45342  15.932  36.704   7.252
 3418POPC   C1B45343  16.224  37.207   6.100
 3418POPC   C2B45344  16.123  37.280   6.529
 3418POPC   C3B45345  16.025  37.150   6.920
 3418POPC   C4B45346  16.308  37.048   7.207
 3419POPC   NC345347   4.383  34.382   5.248
 3419POPC   PO445348   4.145  35.039   5.272
 3419POPC   GL145349   4.237  34.693   5.662
 3419POPC   GL245350   4.524  34.444   5.716
 3419POPC   C1A45351   4.181  34.554   6.163
 3419POPC   D2A45352   4.237  34.629   6.661
 3419POPC   C3A45353   4.133  34.432   7.094
 3419POPC   C4A45354   4.105  34.567   7.522
 3419POPC   C1B45355   4.680  34.598   6.097
 3419POPC   C2B45356   4.673  34.412   6.505
 3419POPC   C3B45357   4.686  34.490   6.935
 3419POPC   C4B45358   4.564  34.371   7.343
 3420POPC   NC345359  38.033  21.833   5.463
 3420POPC   PO445360  37.726  22.496   5.483
 3420POPC   GL145361  37.661  22.476   5.875
 3420POPC   GL245362  37.619  22.112   5.828
 3420POPC   C1A45363  37.776  22.317   6.261
 3420POPC   D2A45364  37.554  22.177   6.580
 3420POPC   C3A45365  37.691  22.337   6.952
 3420POPC   C4A45366  37.914  22.029   7.103
 3420POPC   C1B45367  37.323  21.987   6.140
 3420POPC   C2B45368  37.311  21.728   6.509
 3420POPC   C3B45369  37.492  21.778   6.906
 3420POPC   C4B45370  37.324  21.715   7.287
 3421POPC   NC345371  26.263  17.906   5.390
 3421POPC   PO445372  26.179  17.283   5.479
 3421POPC   GL145373  26.174  17.593   5.799
 3421POPC   GL245374  25.845  17.739   5.780
 3421POPC   C1A45375  26.308  17.663   6.218
 3421POPC   D2A45376  26.411  17.612   6.646
 3421POPC   C3A45377  26.107  17.443   6.940
 3421POPC   C4A45378  26.066  17.350   7.378
 3421POPC   C1B45379  25.619  17.789   6.151
 3421POPC   C2B45380  25.825  17.636   6.511
 3421POPC   C3B45381  25.713  17.732   6.911
 3421POPC   C4B45382  25.629  17.649   7.345
 3422POPC   NC345383  35.847  34.158   5.515
 3422POPC   PO445384  36.367  33.757   5.233
 3422POPC   GL145385  36.175  33.722   5.674
 3422POPC   GL245386  35.919  33.858   5.915
 3422POPC   C1A45387  36.286  33.599   6.131
 3422POPC   D2A45388  36.189  33.797   6.537
 3422POPC   C3A45389  36.273  33.583   6.912
 3422POPC   C4A45390  36.458  33.644   7.290
 3422POPC   C1B45391  35.842  34.091   6.277
 3422POPC   C2B45392  35.789  34.097   6.729
 3422POPC   C3B45393  35.850  34.230   7.136
 3422POPC   C4B45394  36.108  33.978   7.367
 3423POPC   NC345395  12.085  37.295   5.525
 3423POPC   PO445396  12.510  36.729   5.520
 3423POPC   GL145397  12.308  36.818   5.914
 3423POPC   GL245398  11.965  36.841   5.889
 3423POPC   C1A45399  12.148  36.700   6.340
 3423POPC   D2A45400  12.395  36.699   6.710
 3423POPC   C3A45401  12.203  36.705   7.100
 3423POPC   C4A45402  12.153  37.097   7.290
 3423POPC   C1B45403  11.846  37.116   6.203
 3423POPC   C2B45404  11.696  36.939   6.581
 3423POPC   C3B45405  11.737  36.976   7.005
 3423POPC   C4B45406  11.766  36.740   7.376
 3424POPC   NC345407  13.414  27.978   5.488
 3424POPC   PO445408  13.970  27.762   5.113
 3424POPC   GL145409  13.804  27.647   5.594
 3424POPC   GL245410  13.713  27.303   5.815
 3424POPC   C1A45411  13.766  27.732   6.084
 3424POPC   D2A45412  13.857  27.520   6.490
 3424POPC   C3A45413  13.770  27.651   6.901
 3424POPC   C4A45414  13.591  27.627   7.304
 3424POPC   C1B45415  13.427  27.351   6.222
 3424POPC   C2B45416  13.354  27.680   6.529
 3424POPC   C3B45417  13.221  27.599   6.948
 3424POPC   C4B45418  13.231  27.219   7.227
 3425POPC   NC345419  12.739  20.193   5.389
 3425POPC   PO445420  13.224  19.753   5.454
 3425POPC   GL145421  12.953  19.980   5.792
 3425POPC   GL245422  12.669  19.806   5.796
 3425POPC   C1A45423  12.704  20.109   6.201
 3425POPC   D2A45424  12.610  20.029   6.615
 3425POPC   C3A45425  12.898  19.750   6.814
 3425POPC   C4A45426  12.927  19.758   7.239
 3425POPC   C1B45427  12.758  19.608   6.250
 3425POPC   C2B45428  12.471  19.534   6.626
 3425POPC   C3B45429  12.427  19.705   7.042
 3425POPC   C4B45430  12.486  19.654   7.494
 3426POPC   NC345431   3.302  40.272   5.375
 3426POPC   PO445432   2.670  40.500   5.247
 3426POPC   GL145433   2.649  40.597   5.683
 3426POPC   GL245434   2.973  40.772   5.717
 3426POPC   C1A45435   2.565  40.805   6.083
 3426POPC   D2A45436   2.621  40.620   6.503
 3426POPC   C3A45437   2.534  40.837   6.876
 3426POPC   C4A45438   2.648  40.772   7.283
 3426POPC   C1B45439   3.040  40.623   6.156
 3426POPC   C2B45440   3.133  40.679   6.573
 3426POPC   C3B45441   2.947  40.502   6.939
 3426POPC   C4B45442   2.752  40.262   7.255
 3427POPC   NC345443  43.362  12.052   5.550
 3427POPC   PO445444  42.791  12.456   5.535
 3427POPC   GL145445  42.983  12.208   5.862
 3427POPC   GL245446  42.955  11.824   5.756
 3427POPC   C1A45447  43.056  12.301   6.310
 3427POPC   D2A45448  43.000  12.327   6.778
 3427POPC   C3A45449  43.027  12.225   7.213
 3427POPC   C4A45450  42.778  12.356   7.600
 3427POPC   C1B45451  43.198  11.818   6.150
 3427POPC   C2B45452  43.039  11.859   6.569
 3427POPC   C3B45453  42.995  11.690   6.962
 3427POPC   C4B45454  43.142  11.748   7.340
 3428POPC   NC345455  14.871   4.858   5.581
 3428POPC   PO445456  15.597   4.956   5.454
 3428POPC   GL145457  15.531   4.911   5.869
 3428POPC   GL245458  15.244   4.710   5.858
 3428POPC   C1A45459  15.358   4.982   6.282
 3428POPC   D2A45460  15.112   5.235   6.595
 3428POPC   C3A45461  15.339   5.335   6.980
 3428POPC   C4A45462  15.175   5.316   7.399
 3428POPC   C1B45463  14.965   4.652   6.234
 3428POPC   C2B45464  15.106   4.708   6.683
 3428POPC   C3B45465  15.180   4.858   7.135
 3428POPC   C4B45466  15.260   4.860   7.627
 3429POPC   NC345467   7.283  42.570   5.395
 3429POPC   PO445468   7.908  42.567   5.522
 3429POPC   GL145469   7.561  42.497   5.803
 3429POPC   GL245470   7.431  42.194   5.736
 3429POPC   C1A45471   7.311  42.545   6.189
 3429POPC   D2A45472   7.091  42.712   6.572
 3429POPC   C3A45473   7.284  42.607   6.984
 3429POPC   C4A45474   7.583  42.389   7.232
 3429POPC   C1B45475   7.282  42.029   6.111
 3429POPC   C2B45476   7.201  42.172   6.535
 3429POPC   C3B45477   7.309  42.081   6.945
 3429POPC   C4B45478   7.371  41.936   7.352
 3430POPC   NC345479  43.434  34.701   5.520
 3430POPC   PO445480  42.767  34.975   5.556
 3430POPC   GL145481  42.896  34.679   5.882
 3430POPC   GL245482  42.809  34.346   5.804
 3430POPC   C1A45483  43.028  34.674   6.320
 3430POPC   D2A45484  43.106  34.361   6.667
 3430POPC   C3A45485  43.190  34.505   7.081
 3430POPC   C4A45486  43.177  34.934   7.204
 3430POPC   C1B45487  42.824  34.208   6.222
 3430POPC   C2B45488  42.812  33.948   6.579
 3430POPC   C3B45489  42.763  34.121   6.986
 3430POPC   C4B45490  42.961  34.165   7.408
 3431POPC   NC345491  10.429  26.643   5.454
 3431POPC   PO445492  10.470  27.209   5.812
 3431POPC   GL145493  10.412  26.803   5.951
 3431POPC   GL245494  10.691  26.634   5.920
 3431POPC   C1A45495  10.462  26.673   6.367
 3431POPC   D2A45496  10.442  26.992   6.689
 3431POPC   C3A45497  10.352  26.825   7.077
 3431POPC   C4A45498  10.549  26.855   7.487
 3431POPC   C1B45499  10.966  26.737   6.256
 3431POPC   C2B45500  10.877  26.700   6.684
 3431POPC   C3B45501  10.863  26.757   7.113
 3431POPC   C4B45502  10.897  26.491   7.518
 3432POPC   NC345503  39.770  22.061   5.396
 3432POPC   PO445504  40.298  21.745   5.775
 3432POPC   GL145505  40.313  22.142   5.970
 3432POPC   GL245506  40.146  22.312   5.707
 3432POPC   C1A45507  40.138  22.166   6.399
 3432POPC   D2A45508  40.086  21.748   6.600
 3432POPC   C3A45509  40.220  21.793   7.022
 3432POPC   C4A45510  40.169  22.189   7.146
 3432POPC   C1B45511  39.787  22.219   6.018
 3432POPC   C2B45512  39.636  22.452   6.363
 3432POPC   C3B45513  39.721  22.418   6.802
 3432POPC   C4B45514  39.661  22.255   7.207
 3433POPC   NC345515  43.381   5.985   5.456
 3433POPC   PO445516  42.708   6.243   5.356
 3433POPC   GL145517  42.786   6.046   5.804
 3433POPC   GL245518  43.082   5.851   5.814
 3433POPC   C1A45519  42.901   5.880   6.262
 3433POPC   D2A45520  43.194   6.022   6.596
 3433POPC   C3A45521  43.048   6.125   6.990
 3433POPC   C4A45522  42.893   5.829   7.251
 3433POPC   C1B45523  43.405   5.883   6.142
 3433POPC   C2B45524  43.532   5.650   6.540
 3433POPC   C3B45525  43.376   5.673   7.005
 3433POPC   C4B45526  43.395   5.985   7.362
 3434POPC   NC345527  41.451  35.485   5.334
 3434POPC   PO445528  41.889  34.984   5.485
 3434POPC   GL145529  41.678  35.201   5.845
 3434POPC   GL245530  41.456  35.507   5.846
 3434POPC   C1A45531  41.442  35.128   6.237
 3434POPC   D2A45532  41.343  35.375   6.603
 3434POPC   C3A45533  41.479  35.197   6.959
 3434POPC   C4A45534  41.342  35.263   7.343
 3434POPC   C1B45535  41.638  35.598   6.248
 3434POPC   C2B45536  41.583  35.835   6.627
 3434POPC   C3B45537  41.676  35.680   7.025
 3434POPC   C4B45538  42.039  35.805   7.246
 3435POPC   NC345539  15.568  12.493   5.208
 3435POPC   PO445540  16.167  12.887   5.269
 3435POPC   GL145541  16.143  12.829   5.798
 3435POPC   GL245542  15.900  13.094   5.995
 3435POPC   C1A45543  16.027  12.699   6.268
 3435POPC   D2A45544  15.838  12.395   6.537
 3435POPC   C3A45545  15.672  12.476   6.966
 3435POPC   C4A45546  15.708  12.389   7.391
 3435POPC   C1B45547  15.593  13.067   6.305
 3435POPC   C2B45548  15.718  12.885   6.670
 3435POPC   C3B45549  16.120  12.699   6.853
 3435POPC   C4B45550  16.031  12.773   7.264
 3436POPC   NC345551  41.017  11.539   5.135
 3436POPC   PO445552  40.560  11.067   5.239
 3436POPC   GL145553  40.651  11.219   5.703
 3436POPC   GL245554  41.002  11.264   5.764
 3436POPC   C1A45555  40.627  11.361   6.155
 3436POPC   D2A45556  40.652  11.183   6.561
 3436POPC   C3A45557  40.647  11.449   6.917
 3436POPC   C4A45558  40.756  11.180   7.193
 3436POPC   C1B45559  41.162  11.402   6.176
 3436POPC   C2B45560  41.090  11.484   6.606
 3436POPC   C3B45561  41.243  11.325   6.977
 3436POPC   C4B45562  41.129  11.503   7.346
 3437POPC   NC345563  30.598  22.621   5.167
 3437POPC   PO445564  30.996  22.044   5.334
 3437POPC   GL145565  30.827  21.951   5.753
 3437POPC   GL245566  30.449  21.996   5.784
 3437POPC   C1A45567  30.816  22.080   6.199
 3437POPC   D2A45568  30.859  21.835   6.579
 3437POPC   C3A45569  30.953  22.017   6.980
 3437POPC   C4A45570  30.765  21.926   7.359
 3437POPC   C1B45571  30.294  22.243   6.174
 3437POPC   C2B45572  30.387  22.226   6.618
 3437POPC   C3B45573  30.483  22.257   7.051
 3437POPC   C4B45574  30.428  22.249   7.500
 3438POPC   NC345575  19.050  18.593   5.477
 3438POPC   PO445576  19.488  18.040   5.477
 3438POPC   GL145577  19.387  18.372   5.789
 3438POPC   GL245578  19.096  18.170   5.803
 3438POPC   C1A45579  19.255  18.460   6.252
 3438POPC   D2A45580  19.191  18.344   6.717
 3438POPC   C3A45581  19.004  18.521   7.092
 3438POPC   C4A45582  18.928  18.542   7.557
 3438POPC   C1B45583  18.861  18.138   6.150
 3438POPC   C2B45584  18.713  18.262   6.532
 3438POPC   C3B45585  18.749  18.078   6.921
 3438POPC   C4B45586  19.035  18.031   7.230
 3439POPC   NC345587  42.239  44.824   5.365
 3439POPC   PO445588  42.717  44.441   5.562
 3439POPC   GL145589  42.412  44.566   5.865
 3439POPC   GL245590  42.062  44.528   5.737
 3439POPC   C1A45591  42.386  44.669   6.309
 3439POPC   D2A45592  42.187  44.926   6.638
 3439POPC   C3A45593  42.236  44.774   7.061
 3439POPC   C4A45594  42.612  44.735   7.292
 3439POPC   C1B45595  41.948  44.444   6.165
 3439POPC   C2B45596  42.051  44.405   6.623
 3439POPC   C3B45597  42.014  44.314   7.058
 3439POPC   C4B45598  42.241  44.396   7.432
 3440POPC   NC345599   2.639  19.065   5.264
 3440POPC   PO445600   1.959  19.092   5.324
 3440POPC   GL145601   2.141  19.130   5.785
 3440POPC   GL245602   2.307  18.853   5.950
 3440POPC   C1A45603   1.908  19.109   6.213
 3440POPC   D2A45604   1.838  19.374   6.610
 3440POPC   C3A45605   1.936  19.191   7.028
 3440POPC   C4A45606   1.891  19.075   7.466
 3440POPC   C1B45607   2.130  18.662   6.330
 3440POPC   C2B45608   1.941  18.679   6.768
 3440POPC   C3B45609   2.201  18.740   7.179
 3440POPC   C4B45610   2.322  18.852   7.623
 3441POPC   NC345611  26.557  22.734   5.529
 3441POPC   PO445612  27.168  23.113   5.524
 3441POPC   GL145613  26.915  22.933   5.858
 3441POPC   GL245614  26.962  22.601   5.868
 3441POPC   C1A45615  26.689  23.010   6.304
 3441POPC   D2A45616  26.569  22.786   6.705
 3441POPC   C3A45617  26.617  23.039   7.105
 3441POPC   C4A45618  26.682  23.275   7.517
 3441POPC   C1B45619  26.822  22.531   6.297
 3441POPC   C2B45620  27.039  22.554   6.694
 3441POPC   C3B45621  26.882  22.576   7.108
 3441POPC   C4B45622  26.994  22.853   7.432
 3442POPC   NC345623  34.472   6.585   5.154
 3442POPC   PO445624  34.960   6.239   5.554
 3442POPC   GL145625  34.509   6.398   5.683
 3442POPC   GL245626  34.387   6.766   5.663
 3442POPC   C1A45627  34.532   6.539   6.110
 3442POPC   D2A45628  34.489   6.610   6.537
 3442POPC   C3A45629  34.675   6.340   6.847
 3442POPC   C4A45630  34.631   6.199   7.279
 3442POPC   C1B45631  34.083   6.780   6.012
 3442POPC   C2B45632  33.991   6.800   6.446
 3442POPC   C3B45633  34.180   6.885   6.841
 3442POPC   C4B45634  34.501   6.729   7.125
 3443POPC   NC345635  11.971  28.070   5.421
 3443POPC   PO445636  12.323  28.622   5.459
 3443POPC   GL145637  12.250  28.378   5.851
 3443POPC   GL245638  12.369  28.032   5.789
 3443POPC   C1A45639  12.175  28.509   6.307
 3443POPC   D2A45640  11.948  28.698   6.674
 3443POPC   C3A45641  12.191  28.638   7.047
 3443POPC   C4A45642  12.418  28.279   7.121
 3443POPC   C1B45643  12.295  28.002   6.238
 3443POPC   C2B45644  12.253  28.139   6.667
 3443POPC   C3B45645  11.998  27.995   7.031
 3443POPC   C4B45646  11.643  28.023   7.310
 3444POPC   NC345647  20.532  36.616   5.469
 3444POPC   PO445648  20.560  37.218   5.251
 3444POPC   GL145649  20.551  37.007   5.778
 3444POPC   GL245650  20.791  36.730   5.899
 3444POPC   C1A45651  20.362  36.721   6.146
 3444POPC   D2A45652  20.620  36.505   6.473
 3444POPC   C3A45653  20.649  36.733   6.869
 3444POPC   C4A45654  20.316  36.903   7.093
 3444POPC   C1B45655  20.946  36.854   6.311
 3444POPC   C2B45656  20.976  37.097   6.698
 3444POPC   C3B45657  20.932  37.150   7.147
 3444POPC   C4B45658  20.964  37.363   7.525
 3445POPC   NC345659  43.297  24.092   5.315
 3445POPC   PO445660  42.869  23.629   5.448
 3445POPC   GL145661  43.090  23.673   5.833
 3445POPC   GL245662  43.362  23.943   5.808
 3445POPC   C1A45663  43.138  23.465   6.245
 3445POPC   D2A45664  42.852  23.438   6.621
 3445POPC   C3A45665  43.053  23.520   7.001
 3445POPC   C4A45666  43.282  23.407   7.336
 3445POPC   C1B45667  43.109  24.022   6.196
 3445POPC   C2B45668  43.026  24.295   6.567
 3445POPC   C3B45669  43.108  24.203   6.976
 3445POPC   C4B45670  42.837  23.955   7.199
 3446POPC   NC345671  37.878  11.291   5.416
 3446POPC   PO445672  37.188  11.526   5.464
 3446POPC   GL145673  37.414  11.301   5.869
 3446POPC   GL245674  37.790  11.143   5.874
 3446POPC   C1A45675  37.616  11.268   6.304
 3446POPC   D2A45676  37.606  11.154   6.712
 3446POPC   C3A45677  37.507  11.497   7.009
 3446POPC   C4A45678  37.471  11.496   7.498
 3446POPC   C1B45679  38.006  10.865   6.183
 3446POPC   C2B45680  38.011  10.791   6.634
 3446POPC   C3B45681  38.012  11.047   6.985
 3446POPC   C4B45682  37.621  11.070   7.253
 3447POPC   NC345683  13.473  26.203   5.291
 3447POPC   PO445684  14.080  26.148   5.260
 3447POPC   GL145685  13.836  26.112   5.652
 3447POPC   GL245686  13.949  25.773   5.704
 3447POPC   C1A45687  13.559  26.169   6.039
 3447POPC   D2A45688  13.339  26.378   6.422
 3447POPC   C3A45689  13.391  26.181   6.862
 3447POPC   C4A45690  13.539  26.147   7.313
 3447POPC   C1B45691  13.765  25.676   6.127
 3447POPC   C2B45692  13.682  25.943   6.499
 3447POPC   C3B45693  13.756  25.805   6.932
 3447POPC   C4B45694  13.943  25.831   7.326
 3448POPC   NC345695   8.495   4.309   5.675
 3448POPC   PO445696   9.285   4.435   5.548
 3448POPC   GL145697   8.992   4.352   5.822
 3448POPC   GL245698   8.919   4.009   5.740
 3448POPC   C1A45699   8.969   4.559   6.209
 3448POPC   D2A45700   9.192   4.581   6.589
 3448POPC   C3A45701   8.874   4.666   6.855
 3448POPC   C4A45702   8.893   4.633   7.268
 3448POPC   C1B45703   9.000   4.042   6.210
 3448POPC   C2B45704   8.875   4.203   6.615
 3448POPC   C3B45705   9.098   4.231   7.018
 3448POPC   C4B45706   8.999   4.004   7.398
 3449POPC   NC345707  36.510   6.447   5.561
 3449POPC   PO445708  37.160   6.306   5.469
 3449POPC   GL145709  37.137   6.503   5.844
 3449POPC   GL245710  36.915   6.761   5.718
 3449POPC   C1A45711  36.934   6.510   6.266
 3449POPC   D2A45712  36.781   6.511   6.718
 3449POPC   C3A45713  37.093   6.581   7.052
 3449POPC   C4A45714  37.093   6.956   7.320
 3449POPC   C1B45715  36.799   6.983   6.083
 3449POPC   C2B45716  36.893   6.991   6.521
 3449POPC   C3B45717  36.736   6.991   6.944
 3449POPC   C4B45718  36.619   7.220   7.300
 3450POPC   NC345719   3.785  37.476   5.304
 3450POPC   PO445720   3.511  38.125   5.404
 3450POPC   GL145721   3.530  37.804   5.710
 3450POPC   GL245722   3.575  38.057   5.942
 3450POPC   C1A45723   3.511  37.547   6.113
 3450POPC   D2A45724   3.391  37.507   6.584
 3450POPC   C3A45725   3.605  37.577   7.012
 3450POPC   C4A45726   3.750  37.302   7.410
 3450POPC   C1B45727   3.519  37.983   6.382
 3450POPC   C2B45728   3.196  37.983   6.703
 3450POPC   C3B45729   3.236  37.966   7.127
 3450POPC   C4B45730   3.647  38.095   7.104
 3451POPC   NC345731   5.305  11.140   5.350
 3451POPC   PO445732   5.221  11.716   5.527
 3451POPC   GL145733   5.019  11.449   5.792
 3451POPC   GL245734   5.158  11.104   5.820
 3451POPC   C1A45735   4.797  11.510   6.184
 3451POPC   D2A45736   5.074  11.535   6.545
 3451POPC   C3A45737   4.964  11.306   6.892
 3451POPC   C4A45738   4.996  11.553   7.247
 3451POPC   C1B45739   5.028  11.036   6.195
 3451POPC   C2B45740   5.268  10.891   6.496
 3451POPC   C3B45741   5.333  10.913   6.910
 3451POPC   C4B45742   5.221  11.057   7.284
 3452POPC   NC345743   3.516  43.686   5.458
 3452POPC   PO445744   3.252  44.244   5.326
 3452POPC   GL145745   3.436  44.124   5.744
 3452POPC   GL245746   3.769  44.211   5.808
 3452POPC   C1A45747   3.407  43.974   6.188
 3452POPC   D2A45748   3.206  43.732   6.523
 3452POPC   C3A45749   3.425  43.759   6.951
 3452POPC   C4A45750   3.415  43.884   7.392
 3452POPC   C1B45751   3.863  44.237   6.219
 3452POPC   C2B45752   3.724  44.078   6.603
 3452POPC   C3B45753   3.710  44.184   7.012
 3452POPC   C4B45754   3.893  43.939   7.294
 3453POPC   NC345755  37.599   6.426   5.458
 3453POPC   PO445756  37.816   7.088   5.420
 3453POPC   GL145757  37.618   6.825   5.788
 3453POPC   GL245758  37.856   6.525   5.897
 3453POPC   C1A45759  37.333   6.858   6.156
 3453POPC   D2A45760  37.316   6.683   6.573
 3453POPC   C3A45761  37.581   6.871   6.874
 3453POPC   C4A45762  37.562   6.708   7.272
 3453POPC   C1B45763  37.524   6.375   6.168
 3453POPC   C2B45764  37.532   6.184   6.552
 3453POPC   C3B45765  37.685   6.368   6.910
 3453POPC   C4B45766  37.915   6.255   7.281
 3454POPC   NC345767   9.995   6.897   5.419
 3454POPC   PO445768   9.570   6.295   5.431
 3454POPC   GL145769   9.727   6.585   5.732
 3454POPC   GL245770   9.507   6.878   5.718
 3454POPC   C1A45771   9.876   6.571   6.161
 3454POPC   D2A45772   9.995   6.457   6.578
 3454POPC   C3A45773  10.088   6.763   6.904
 3454POPC   C4A45774  10.030   6.700   7.350
 3454POPC   C1B45775   9.642   7.041   6.133
 3454POPC   C2B45776   9.841   7.040   6.553
 3454POPC   C3B45777   9.639   6.981   7.001
 3454POPC   C4B45778   9.575   7.012   7.451
 3455POPC   NC345779   0.097  29.474   5.422
 3455POPC   PO445780   0.544  29.042   5.268
 3455POPC   GL145781   0.391  29.031   5.697
 3455POPC   GL245782   0.013  28.986   5.650
 3455POPC   C1A45783   0.513  29.226   6.104
 3455POPC   D2A45784   0.742  29.203   6.511
 3455POPC   C3A45785   0.556  29.276   6.918
 3455POPC   C4A45786   0.737  29.197   7.335
 3455POPC   C1B45787   0.056  28.906   6.097
 3455POPC   C2B45788   0.216  29.051   6.478
 3455POPC   C3B45789   0.089  28.963   6.855
 3455POPC   C4B45790   0.297  28.921   7.173
 3456POPC   NC345791  19.194  25.033   5.106
 3456POPC   PO445792  18.835  25.552   5.401
 3456POPC   GL145793  18.921  25.404   5.786
 3456POPC   GL245794  19.241  25.268   5.783
 3456POPC   C1A45795  19.053  25.540   6.203
 3456POPC   D2A45796  18.981  25.353   6.600
 3456POPC   C3A45797  19.088  25.532   6.992
 3456POPC   C4A45798  18.943  25.618   7.407
 3456POPC   C1B45799  19.186  25.038   6.186
 3456POPC   C2B45800  19.393  24.883   6.544
 3456POPC   C3B45801  19.268  25.023   6.908
 3456POPC   C4B45802  19.069  25.094   7.274
 3457POPC   NC345803  28.772  21.410   5.614
 3457POPC   PO445804  28.117  21.153   5.418
 3457POPC   GL145805  28.343  21.165   5.794
 3457POPC   GL245806  28.637  20.941   5.837
 3457POPC   C1A45807  28.374  21.419   6.140
 3457POPC   D2A45808  28.217  21.382   6.545
 3457POPC   C3A45809  28.451  21.528   6.880
 3457POPC   C4A45810  28.457  21.593   7.308
 3457POPC   C1B45811  28.456  20.945   6.302
 3457POPC   C2B45812  28.206  20.922   6.736
 3457POPC   C3B45813  28.213  21.140   7.166
 3457POPC   C4B45814  28.452  20.949   7.554
 3458POPC   NC345815   5.559  24.041   5.409
 3458POPC   PO445816   5.782  24.618   5.168
 3458POPC   GL145817   5.751  24.500   5.643
 3458POPC   GL245818   5.812  24.203   5.822
 3458POPC   C1A45819   5.716  24.590   6.115
 3458POPC   D2A45820   5.488  24.352   6.446
 3458POPC   C3A45821   5.732  24.288   6.830
 3458POPC   C4A45822   5.943  24.538   7.175
 3458POPC   C1B45823   5.793  24.010   6.196
 3458POPC   C2B45824   6.057  23.971   6.537
 3458POPC   C3B45825   6.224  24.174   6.920
 3458POPC   C4B45826   6.146  24.115   7.360
 3459POPC   NC345827  23.272  15.267   5.412
 3459POPC   PO445828  22.610  15.345   5.451
 3459POPC   GL145829  22.917  15.218   5.792
 3459POPC   GL245830  23.118  14.889   5.762
 3459POPC   C1A45831  23.142  15.343   6.167
 3459POPC   D2A45832  22.998  15.445   6.596
 3459POPC   C3A45833  23.282  15.503   6.939
 3459POPC   C4A45834  23.324  15.165   7.208
 3459POPC   C1B45835  22.956  14.860   6.191
 3459POPC   C2B45836  23.059  14.895   6.632
 3459POPC   C3B45837  22.866  15.079   6.977
 3459POPC   C4B45838  22.610  15.069   7.326
 3460POPC   NC345839  42.933  24.845   5.370
 3460POPC   PO445840  43.249  25.520   5.229
 3460POPC   GL145841  43.199  25.341   5.675
 3460POPC   GL245842  43.378  24.986   5.710
 3460POPC   C1A45843  42.935  25.369   6.103
 3460POPC   D2A45844  42.683  25.269   6.495
 3460POPC   C3A45845  42.867  25.315   6.914
 3460POPC   C4A45846  43.098  25.467   7.279
 3460POPC   C1B45847  43.404  25.148   6.133
 3460POPC   C2B45848  43.221  25.171   6.525
 3460POPC   C3B45849  43.384  25.264   6.918
 3460POPC   C4B45850  43.429  25.044   7.284
 3461POPC   NC345851   2.565   1.713   5.205
 3461POPC   PO445852   2.887   1.134   5.140
 3461POPC   GL145853   2.779   1.210   5.610
 3461POPC   GL245854   3.054   1.247   5.845
 3461POPC   C1A45855   2.572   1.294   6.053
 3461POPC   D2A45856   2.562   1.159   6.528
 3461POPC   C3A45857   2.682   1.350   6.945
 3461POPC   C4A45858   3.022   1.147   7.195
 3461POPC   C1B45859   2.963   0.988   6.220
 3461POPC   C2B45860   3.039   1.001   6.662
 3461POPC   C3B45861   3.074   0.677   6.930
 3461POPC   C4B45862   3.125   0.658   7.331
 3462POPC   NC345863  43.691  40.399   5.274
 3462POPC   PO445864  44.108  40.917   5.182
 3462POPC   GL145865  43.855  40.852   5.667
 3462POPC   GL245866  43.809  40.541   5.830
 3462POPC   C1A45867  43.568  41.007   6.032
 3462POPC   D2A45868  43.429  40.981   6.493
 3462POPC   C3A45869  43.722  40.948   6.857
 3462POPC   C4A45870  43.778  40.686   7.247
 3462POPC   C1B45871  44.011  40.800   6.185
 3462POPC   C2B45872  44.119  40.749   6.622
 3462POPC   C3B45873  44.207  40.899   7.042
 3462POPC   C4B45874  44.261  40.608   7.389
 3463POPC   NC345875  11.819  29.703   5.365
 3463POPC   PO445876  11.905  30.379   5.463
 3463POPC   GL145877  12.174  30.216   5.793
 3463POPC   GL245878  12.201  29.856   5.747
 3463POPC   C1A45879  12.323  30.249   6.203
 3463POPC   D2A45880  12.344  29.994   6.548
 3463POPC   C3A45881  12.352  30.142   6.942
 3463POPC   C4A45882  12.496  29.960   7.292
 3463POPC   C1B45883  11.999  29.843   6.161
 3463POPC   C2B45884  11.927  29.710   6.584
 3463POPC   C3B45885  12.071  29.701   7.002
 3463POPC   C4B45886  11.818  29.980   7.252
 3464POPC   NC345887   2.552  21.091   5.372
 3464POPC   PO445888   3.100  21.318   5.086
 3464POPC   GL145889   2.934  21.427   5.615
 3464POPC   GL245890   2.655  21.519   5.846
 3464POPC   C1A45891   2.991  21.361   6.164
 3464POPC   D2A45892   2.819  21.144   6.556
 3464POPC   C3A45893   2.594  21.223   6.899
 3464POPC   C4A45894   2.853  21.285   7.179
 3464POPC   C1B45895   2.560  21.725   6.232
 3464POPC   C2B45896   2.680  21.714   6.666
 3464POPC   C3B45897   2.562  21.733   7.095
 3464POPC   C4B45898   2.577  21.860   7.561
 3465POPC   NC345899   3.913  20.158   5.344
 3465POPC   PO445900   3.541  19.639   5.393
 3465POPC   GL145901   3.535  19.905   5.778
 3465POPC   GL245902   3.631  19.632   6.019
 3465POPC   C1A45903   3.396  20.045   6.212
 3465POPC   D2A45904   3.613  19.858   6.589
 3465POPC   C3A45905   3.449  19.942   7.009
 3465POPC   C4A45906   3.369  19.660   7.365
 3465POPC   C1B45907   3.900  20.018   6.164
 3465POPC   C2B45908   4.005  20.220   6.588
 3465POPC   C3B45909   3.945  20.081   7.013
 3465POPC   C4B45910   3.869  19.681   7.232
 3466POPC   NC345911  37.474  14.036   5.353
 3466POPC   PO445912  37.997  13.729   5.186
 3466POPC   GL145913  37.931  13.951   5.637
 3466POPC   GL245914  37.591  13.885   5.809
 3466POPC   C1A45915  37.967  13.842   6.113
 3466POPC   D2A45916  37.701  13.677   6.440
 3466POPC   C3A45917  37.817  13.722   6.869
 3466POPC   C4A45918  37.666  13.408   7.158
 3466POPC   C1B45919  37.375  13.987   6.186
 3466POPC   C2B45920  37.197  13.870   6.590
 3466POPC   C3B45921  37.279  13.712   6.997
 3466POPC   C4B45922  37.574  13.882   7.308
 3467POPC   NC345923  29.697   0.318   5.536
 3467POPC   PO445924  29.936   0.964   5.496
 3467POPC   GL145925  29.914   0.711   5.857
 3467POPC   GL245926  30.130   0.440   5.843
 3467POPC   C1A45927  29.747   0.457   6.204
 3467POPC   D2A45928  29.572   0.585   6.599
 3467POPC   C3A45929  29.784   0.530   6.993
 3467POPC   C4A45930  29.606   0.327   7.355
 3467POPC   C1B45931  30.266   0.481   6.233
 3467POPC   C2B45932  30.085   0.380   6.610
 3467POPC   C3B45933  30.189   0.114   6.963
 3467POPC   C4B45934  30.498   0.117   7.289
 3468POPC   NC345935  37.086  25.064   5.251
 3468POPC   PO445936  37.001  25.675   5.511
 3468POPC   GL145937  36.998  25.274   5.747
 3468POPC   GL245938  36.701  25.056   5.758
 3468POPC   C1A45939  37.001  25.110   6.182
 3468POPC   D2A45940  36.788  25.076   6.566
 3468POPC   C3A45941  36.858  25.372   6.881
 3468POPC   C4A45942  36.846  25.131   7.233
 3468POPC   C1B45943  36.490  25.140   6.144
 3468POPC   C2B45944  36.340  25.313   6.560
 3468POPC   C3B45945  36.407  25.142   6.965
 3468POPC   C4B45946  36.339  25.289   7.386
 3469POPC   NC345947  13.325  22.380   5.545
 3469POPC   PO445948  13.916  22.046   5.378
 3469POPC   GL145949  13.682  22.038   5.795
 3469POPC   GL245950  13.340  22.068   5.932
 3469POPC   C1A45951  13.714  22.177   6.249
 3469POPC   D2A45952  13.790  22.441   6.615
 3469POPC   C3A45953  13.700  22.277   7.014
 3469POPC   C4A45954  13.682  21.945   7.302
 3469POPC   C1B45955  13.229  22.402   6.245
 3469POPC   C2B45956  13.285  22.482   6.705
 3469POPC   C3B45957  13.235  22.458   7.144
 3469POPC   C4B45958  13.545  22.432   7.515
 3470POPC   NC345959   9.915  23.475   5.630
 3470POPC   PO445960   9.775  24.117   5.338
 3470POPC   GL145961   9.844  23.990   5.748
 3470POPC   GL245962   9.533  23.817   5.744
 3470POPC   C1A45963  10.029  24.018   6.173
 3470POPC   D2A45964   9.981  23.764   6.548
 3470POPC   C3A45965   9.960  23.946   6.947
 3470POPC   C4A45966   9.874  23.835   7.365
 3470POPC   C1B45967   9.615  23.708   6.181
 3470POPC   C2B45968   9.438  23.602   6.590
 3470POPC   C3B45969   9.456  23.793   6.998
 3470POPC   C4B45970   9.495  24.167   7.213
 3471POPC   NC345971  22.368   5.455   5.586
 3471POPC   PO445972  22.040   4.942   5.370
 3471POPC   GL145973  21.995   5.149   5.799
 3471POPC   GL245974  22.292   5.020   5.930
 3471POPC   C1A45975  22.037   5.351   6.231
 3471POPC   D2A45976  22.244   5.333   6.665
 3471POPC   C3A45977  22.086   5.020   6.967
 3471POPC   C4A45978  21.736   5.113   7.243
 3471POPC   C1B45979  22.294   4.893   6.377
 3471POPC   C2B45980  22.485   4.645   6.721
 3471POPC   C3B45981  22.529   4.816   7.144
 3471POPC   C4B45982  22.425   5.156   7.440
 3472POPC   NC345983   0.449  22.595   5.378
 3472POPC   PO445984   0.427  23.185   5.692
 3472POPC   GL145985   0.384  22.760   5.876
 3472POPC   GL245986   0.728  22.684   5.826
 3472POPC   C1A45987   0.441  22.603   6.313
 3472POPC   D2A45988   0.503  22.886   6.658
 3472POPC   C3A45989   0.363  22.760   7.055
 3472POPC   C4A45990  44.951  22.571   7.174
 3472POPC   C1B45991   0.811  22.977   6.209
 3472POPC   C2B45992   0.810  23.282   6.571
 3472POPC   C3B45993   0.706  23.202   7.007
 3472POPC   C4B45994   0.300  23.266   7.199
 3473POPC   NC345995  14.324  30.988   5.482
 3473POPC   PO445996  14.266  30.323   5.440
 3473POPC   GL145997  14.440  30.593   5.783
 3473POPC   GL245998  14.807  30.634   5.759
 3473POPC   C1A45999  14.465  30.844   6.213
 3473POPC   D2A46000  14.438  30.776   6.644
 3473POPC   C3A46001  14.601  30.754   7.045
 3473POPC   C4A46002  14.209  30.834   7.240
 3473POPC   C1B46003  14.747  30.450   6.152
 3473POPC   C2B46004  14.881  30.547   6.553
 3473POPC   C3B46005  14.844  30.298   6.890
 3473POPC   C4B46006  14.706  30.294   7.294
 3474POPC   NC346007   4.079  13.850   5.434
 3474POPC   PO446008   4.516  13.333   5.372
 3474POPC   GL146009   4.476  13.502   5.788
 3474POPC   GL246010   4.149  13.694   5.901
 3474POPC   C1A46011   4.476  13.506   6.236
 3474POPC   D2A46012   4.105  13.466   6.510
 3474POPC   C3A46013   4.192  13.555   6.925
 3474POPC   C4A46014   4.592  13.534   7.155
 3474POPC   C1B46015   4.209  13.941   6.290
 3474POPC   C2B46016   4.437  13.950   6.679
 3474POPC   C3B46017   4.310  14.027   7.102
 3474POPC   C4B46018   4.105  14.102   7.499
 3475POPC   NC346019  30.295   0.645   5.404
 3475POPC   PO446020  30.896   0.233   5.407
 3475POPC   GL146021  30.981   0.474   5.789
 3475POPC   GL246022  30.657   0.400   5.914
 3475POPC   C1A46023  31.048   0.369   6.246
 3475POPC   D2A46024  30.685   0.305   6.545
 3475POPC   C3A46025  30.823   0.397   6.974
 3475POPC   C4A46026  30.952   0.327   7.441
 3475POPC   C1B46027  30.709   0.743   6.242
 3475POPC   C2B46028  30.458   0.777   6.615
 3475POPC   C3B46029  30.327   0.612   6.989
 3475POPC   C4B46030  30.561   0.632   7.338
 3476POPC   NC346031  34.647  22.467   5.440
 3476POPC   PO446032  34.837  21.794   5.227
 3476POPC   GL146033  34.479  21.950   5.638
 3476POPC   GL246034  34.616  22.254   5.880
 3476POPC   C1A46035  34.399  21.902   6.143
 3476POPC   D2A46036  34.772  21.961   6.455
 3476POPC   C3A46037  34.732  21.910   6.927
 3476POPC   C4A46038  34.335  21.822   7.148
 3476POPC   C1B46039  34.460  22.400   6.283
 3476POPC   C2B46040  34.545  22.346   6.716
 3476POPC   C3B46041  34.383  22.329   7.146
 3476POPC   C4B46042  34.475  22.169   7.540
 3477POPC   NC346043  28.737  18.512   5.467
 3477POPC   PO446044  28.091  18.429   5.458
 3477POPC   GL146045  28.175  18.399   5.886
 3477POPC   GL246046  28.475  18.258   5.820
 3477POPC   C1A46047  28.233  18.379   6.341
 3477POPC   D2A46048  28.032  18.155   6.663
 3477POPC   C3A46049  28.165  18.282   7.057
 3477POPC   C4A46050  28.321  18.632   7.200
 3477POPC   C1B46051  28.651  18.131   6.184
 3477POPC   C2B46052  28.544  18.036   6.616
 3477POPC   C3B46053  28.658  18.158   7.064
 3477POPC   C4B46054  28.492  18.171   7.492
 3478POPC   NC346055  11.991  35.685   5.130
 3478POPC   PO446056  12.301  35.192   5.499
 3478POPC   GL146057  12.193  35.423   5.844
 3478POPC   GL246058  11.879  35.491   5.667
 3478POPC   C1A46059  12.202  35.302   6.302
 3478POPC   D2A46060  12.050  34.974   6.619
 3478POPC   C3A46061  12.059  35.056   7.077
 3478POPC   C4A46062  12.229  35.425   7.247
 3478POPC   C1B46063  11.755  35.466   6.100
 3478POPC   C2B46064  11.732  35.376   6.500
 3478POPC   C3B46065  11.881  35.465   6.846
 3478POPC   C4B46066  11.705  35.435   7.228
 3479POPC   NC346067   1.978  28.965   5.309
 3479POPC   PO446068   2.538  28.709   5.623
 3479POPC   GL146069   2.158  28.930   5.794
 3479POPC   GL246070   1.935  29.237   5.729
 3479POPC   C1A46071   2.072  29.041   6.200
 3479POPC   D2A46072   2.026  28.840   6.567
 3479POPC   C3A46073   1.973  29.062   6.908
 3479POPC   C4A46074   2.072  28.816   7.249
 3479POPC   C1B46075   1.623  29.226   6.072
 3479POPC   C2B46076   1.581  29.116   6.483
 3479POPC   C3B46077   1.460  29.180   6.882
 3479POPC   C4B46078   1.626  29.132   7.281
 3480POPC   NC346079  19.793  13.014   5.261
 3480POPC   PO446080  19.497  12.445   5.422
 3480POPC   GL146081  19.655  12.790   5.725
 3480POPC   GL246082  19.982  12.999   5.769
 3480POPC   C1A46083  19.745  12.810   6.172
 3480POPC   D2A46084  19.611  12.649   6.539
 3480POPC   C3A46085  19.677  12.871   6.893
 3480POPC   C4A46086  19.604  12.668   7.295
 3480POPC   C1B46087  20.245  12.807   6.126
 3480POPC   C2B46088  20.122  12.766   6.569
 3480POPC   C3B46089  20.191  12.971   6.974
 3480POPC   C4B46090  19.901  13.064   7.312
 3481POPC   NC346091   8.266  26.334   5.342
 3481POPC   PO446092   8.381  27.045   5.461
 3481POPC   GL146093   8.197  26.787   5.767
 3481POPC   GL246094   7.887  26.613   5.628
 3481POPC   C1A46095   8.245  26.930   6.208
 3481POPC   D2A46096   8.189  27.108   6.631
 3481POPC   C3A46097   8.288  26.740   6.889
 3481POPC   C4A46098   8.526  26.704   7.266
 3481POPC   C1B46099   7.768  26.760   6.076
 3481POPC   C2B46100   7.869  26.726   6.545
 3481POPC   C3B46101   7.815  26.909   6.978
 3481POPC   C4B46102   7.956  26.701   7.377
 3482POPC   NC346103  23.636  44.928   5.341
 3482POPC   PO446104  23.989  44.257   5.321
 3482POPC   GL146105  23.842  44.546   5.689
 3482POPC   GL246106  23.969  44.901   5.762
 3482POPC   C1A46107  23.782  44.546   6.174
 3482POPC   D2A46108  23.649  44.432   6.621
 3482POPC   C3A46109  23.954  44.588   6.936
 3482POPC   C4A46110  24.080  44.763   7.338
 3482POPC   C1B46111  23.613   0.043   6.047
 3482POPC   C2B46112  23.438  44.925   6.461
 3482POPC   C3B46113  23.506  44.855   6.904
 3482POPC   C4B46114  23.369   0.105   7.238
 3483POPC   NC346115  11.079  18.341   5.362
 3483POPC   PO446116  11.762  18.230   5.373
 3483POPC   GL146117  11.536  18.276   5.751
 3483POPC   GL246118  11.238  18.462   5.820
 3483POPC   C1A46119  11.553  18.202   6.191
 3483POPC   D2A46120  11.358  18.286   6.546
 3483POPC   C3A46121  11.523  18.250   6.936
 3483POPC   C4A46122  11.331  18.386   7.289
 3483POPC   C1B46123  11.023  18.216   6.130
 3483POPC   C2B46124  10.851  18.191   6.537
 3483POPC   C3B46125  11.026  18.102   6.915
 3483POPC   C4B46126  11.033  17.982   7.307
 3484POPC   NC346127  41.329   6.750   5.564
 3484POPC   PO446128  42.005   6.760   5.577
 3484POPC   GL146129  41.995   6.540   5.908
 3484POPC   GL246130  41.663   6.670   5.984
 3484POPC   C1A46131  42.062   6.614   6.314
 3484POPC   D2A46132  41.875   6.730   6.678
 3484POPC   C3A46133  41.580   6.455   6.862
 3484POPC   C4A46134  41.427   6.742   7.122
 3484POPC   C1B46135  41.450   6.590   6.382
 3484POPC   C2B46136  41.116   6.709   6.668
 3484POPC   C3B46137  40.912   6.894   7.015
 3484POPC   C4B46138  41.082   6.867   7.466
 3485POPC   NC346139  31.877  20.858   5.150
 3485POPC   PO446140  31.426  21.324   5.385
 3485POPC   GL146141  31.517  21.323   5.816
 3485POPC   GL246142  31.189  21.446   5.854
 3485POPC   C1A46143  31.704  21.540   6.218
 3485POPC   D2A46144  31.732  21.668   6.675
 3485POPC   C3A46145  31.600  21.443   7.064
 3485POPC   C4A46146  31.838  21.296   7.417
 3485POPC   C1B46147  31.261  21.284   6.256
 3485POPC   C2B46148  31.258  21.499   6.593
 3485POPC   C3B46149  31.118  21.538   6.944
 3485POPC   C4B46150  31.008  21.359   7.296
 3486POPC   NC346151  31.105  36.942   5.261
 3486POPC   PO446152  31.692  36.663   5.425
 3486POPC   GL146153  31.497  36.726   5.810
 3486POPC   GL246154  31.153  36.771   5.740
 3486POPC   C1A46155  31.624  36.729   6.242
 3486POPC   D2A46156  31.674  36.989   6.616
 3486POPC   C3A46157  31.555  36.800   6.988
 3486POPC   C4A46158  31.684  36.765   7.415
 3486POPC   C1B46159  31.089  37.039   6.089
 3486POPC   C2B46160  31.184  36.866   6.504
 3486POPC   C3B46161  31.073  37.040   6.911
 3486POPC   C4B46162  31.240  37.053   7.331
 3487POPC   NC346163  27.831  29.314   5.261
 3487POPC   PO446164  27.531  28.734   5.408
 3487POPC   GL146165  27.431  28.954   5.815
 3487POPC   GL246166  27.490  29.318   5.692
 3487POPC   C1A46167  27.523  28.889   6.287
 3487POPC   D2A46168  27.769  28.844   6.715
 3487POPC   C3A46169  27.708  29.060   7.139
 3487POPC   C4A46170  27.370  29.129   7.413
 3487POPC   C1B46171  27.475  29.402   6.140
 3487POPC   C2B46172  27.592  29.320   6.558
 3487POPC   C3B46173  27.426  29.401   6.930
 3487POPC   C4B46174  27.573  29.600   7.273
 3488POPC   NC346175  24.199  40.236   5.357
 3488POPC   PO446176  23.546  40.243   5.297
 3488POPC   GL146177  23.792  39.999   5.675
 3488POPC   GL246178  24.176  39.852   5.702
 3488POPC   C1A46179  23.745  39.955   6.180
 3488POPC   D2A46180  23.633  40.144   6.631
 3488POPC   C3A46181  23.604  39.821   6.973
 3488POPC   C4A46182  23.626  39.786   7.431
 3488POPC   C1B46183  24.138  40.208   5.997
 3488POPC   C2B46184  24.100  40.249   6.434
 3488POPC   C3B46185  24.069  39.902   6.731
 3488POPC   C4B46186  24.056  39.949   7.187
 3489POPC   NC346187  16.609  38.340   5.327
 3489POPC   PO446188  16.551  38.955   5.525
 3489POPC   GL146189  16.762  38.638   5.801
 3489POPC   GL246190  16.759  38.252   5.805
 3489POPC   C1A46191  16.907  38.547   6.221
 3489POPC   D2A46192  16.776  38.468   6.640
 3489POPC   C3A46193  16.911  38.709   6.998
 3489POPC   C4A46194  16.804  38.734   7.426
 3489POPC   C1B46195  17.093  38.067   6.072
 3489POPC   C2B46196  17.158  38.126   6.547
 3489POPC   C3B46197  17.015  38.187   7.009
 3489POPC   C4B46198  17.181  38.228   7.443
 3490POPC   NC346199  26.430  29.084   5.553
 3490POPC   PO446200  26.031  29.586   5.508
 3490POPC   GL146201  26.136  29.468   5.892
 3490POPC   GL246202  26.123  29.088   5.960
 3490POPC   C1A46203  25.939  29.434   6.270
 3490POPC   D2A46204  25.935  29.054   6.493
 3490POPC   C3A46205  26.161  29.108   6.866
 3490POPC   C4A46206  26.144  29.307   7.286
 3490POPC   C1B46207  26.479  28.976   6.233
 3490POPC   C2B46208  26.659  28.962   6.679
 3490POPC   C3B46209  26.520  28.833   7.113
 3490POPC   C4B46210  26.086  28.789   7.258
 3491POPC   NC346211  41.388  21.589   5.496
 3491POPC   PO446212  41.843  21.044   5.487
 3491POPC   GL146213  41.636  21.195   5.821
 3491POPC   GL246214  41.261  21.182   5.807
 3491POPC   C1A46215  41.577  21.395   6.204
 3491POPC   D2A46216  41.406  21.249   6.585
 3491POPC   C3A46217  41.681  21.304   6.902
 3491POPC   C4A46218  41.645  21.536   7.214
 3491POPC   C1B46219  41.358  20.926   6.182
 3491POPC   C2B46220  41.270  20.764   6.606
 3491POPC   C3B46221  41.373  20.933   7.037
 3491POPC   C4B46222  41.318  21.062   7.494
 3492POPC   NC346223  11.760   7.779   5.407
 3492POPC   PO446224  12.372   7.354   5.402
 3492POPC   GL146225  12.149   7.384   5.822
 3492POPC   GL246226  11.879   7.135   5.910
 3492POPC   C1A46227  12.147   7.309   6.302
 3492POPC   D2A46228  12.135   7.147   6.707
 3492POPC   C3A46229  12.201   7.406   7.029
 3492POPC   C4A46230  12.376   7.202   7.347
 3492POPC   C1B46231  11.651   7.385   6.232
 3492POPC   C2B46232  11.753   7.495   6.669
 3492POPC   C3B46233  11.687   7.313   7.084
 3492POPC   C4B46234  11.812   7.149   7.498
 3493POPC   NC346235   1.342  12.940   5.308
 3493POPC   PO446236   1.505  12.395   5.638
 3493POPC   GL146237   1.256  12.720   5.791
 3493POPC   GL246238   1.339  13.070   5.826
 3493POPC   C1A46239   1.168  12.761   6.223
 3493POPC   D2A46240   1.113  12.494   6.567
 3493POPC   C3A46241   1.344  12.628   6.913
 3493POPC   C4A46242   1.021  12.482   7.170
 3493POPC   C1B46243   1.317  13.264   6.253
 3493POPC   C2B46244   1.292  13.342   6.681
 3493POPC   C3B46245   1.144  13.280   7.071
 3493POPC   C4B46246   1.179  12.917   7.326
 3494POPC   NC346247  12.498  23.961   5.560
 3494POPC   PO446248  11.893  23.663   5.379
 3494POPC   GL146249  12.103  23.658   5.776
 3494POPC   GL246250  12.028  23.992   5.812
 3494POPC   C1A46251  12.279  23.741   6.213
 3494POPC   D2A46252  12.494  23.878   6.590
 3494POPC   C3A46253  12.372  23.763   7.010
 3494POPC   C4A46254  12.018  23.980   7.196
 3494POPC   C1B46255  11.835  24.016   6.228
 3494POPC   C2B46256  11.963  23.846   6.677
 3494POPC   C3B46257  11.926  23.500   7.056
 3494POPC   C4B46258  11.784  23.392   7.511
 3495POPC   NC346259  43.021  39.538   5.102
 3495POPC   PO446260  43.475  39.099   5.132
 3495POPC   GL146261  43.339  39.093   5.665
 3495POPC   GL246262  43.208  39.367   5.921
 3495POPC   C1A46263  43.335  38.970   6.159
 3495POPC   D2A46264  43.166  39.198   6.497
 3495POPC   C3A46265  43.211  39.099   6.930
 3495POPC   C4A46266  43.016  39.367   7.247
 3495POPC   C1B46267  43.529  39.494   6.150
 3495POPC   C2B46268  43.658  39.613   6.532
 3495POPC   C3B46269  43.485  39.568   6.941
 3495POPC   C4B46270  43.594  39.284   7.246
 3496POPC   NC346271  40.269   9.155   5.651
 3496POPC   PO446272  40.829   8.931   5.347
 3496POPC   GL146273  40.725   8.941   5.768
 3496POPC   GL246274  40.775   9.283   5.781
 3496POPC   C1A46275  40.652   8.971   6.207
 3496POPC   D2A46276  40.719   8.721   6.554
 3496POPC   C3A46277  40.552   8.969   6.870
 3496POPC   C4A46278  40.653   8.885   7.268
 3496POPC   C1B46279  41.115   9.202   6.095
 3496POPC   C2B46280  41.222   9.283   6.548
 3496POPC   C3B46281  40.946   9.343   6.904
 3496POPC   C4B46282  40.624   9.398   7.207
 3497POPC   NC346283   7.696  16.198   5.243
 3497POPC   PO446284   7.315  15.779   5.160
 3497POPC   GL146285   7.449  15.866   5.658
 3497POPC   GL246286   7.711  15.655   5.842
 3497POPC   C1A46287   7.385  15.865   6.163
 3497POPC   D2A46288   7.516  15.772   6.624
 3497POPC   C3A46289   7.365  16.103   6.910
 3497POPC   C4A46290   7.081  16.070   7.298
 3497POPC   C1B46291   7.882  15.757   6.267
 3497POPC   C2B46292   7.909  16.126   6.592
 3497POPC   C3B46293   7.820  16.353   7.005
 3497POPC   C4B46294   7.456  16.432   7.315
 3498POPC   NC346295  14.808  35.680   5.663
 3498POPC   PO446296  15.231  36.065   5.263
 3498POPC   GL146297  15.297  36.091   5.738
 3498POPC   GL246298  15.449  36.364   5.806
 3498POPC   C1A46299  15.070  36.313   6.161
 3498POPC   D2A46300  14.816  36.165   6.514
 3498POPC   C3A46301  14.898  36.326   6.923
 3498POPC   C4A46302  15.091  36.247   7.281
 3498POPC   C1B46303  15.516  36.109   6.181
 3498POPC   C2B46304  15.323  36.020   6.568
 3498POPC   C3B46305  15.464  36.102   6.968
 3498POPC   C4B46306  15.645  36.296   7.302
 3499POPC   NC346307  22.135  42.930   5.463
 3499POPC   PO446308  21.946  43.537   5.283
 3499POPC   GL146309  22.017  43.420   5.761
 3499POPC   GL246310  21.878  43.102   5.904
 3499POPC   C1A46311  22.264  43.258   6.177
 3499POPC   D2A46312  22.206  43.066   6.603
 3499POPC   C3A46313  22.367  43.215   7.008
 3499POPC   C4A46314  22.518  42.867   7.252
 3499POPC   C1B46315  21.764  43.409   6.223
 3499POPC   C2B46316  21.817  43.386   6.649
 3499POPC   C3B46317  21.859  43.163   7.010
 3499POPC   C4B46318  21.811  43.322   7.393
 3500POPC   NC346319  25.445  39.039   5.317
 3500POPC   PO446320  24.999  39.478   5.333
 3500POPC   GL146321  25.167  39.323   5.758
 3500POPC   GL246322  25.532  39.271   5.776
 3500POPC   C1A46323  25.305  39.420   6.210
 3500POPC   D2A46324  25.267  39.185   6.602
 3500POPC   C3A46325  25.304  39.334   7.023
 3500POPC   C4A46326  25.393  39.247   7.445
 3500POPC   C1B46327  25.664  39.049   6.177
 3500POPC   C2B46328  25.580  38.795   6.529
 3500POPC   C3B46329  25.626  38.938   6.907
 3500POPC   C4B46330  25.832  39.109   7.252
 3501POPC   NC346331  23.257  32.393   5.414
 3501POPC   PO446332  22.610  32.197   5.397
 3501POPC   GL146333  22.936  32.194   5.771
 3501POPC   GL246334  23.095  32.555   5.853
 3501POPC   C1A46335  22.862  32.059   6.227
 3501POPC   D2A46336  22.557  32.265   6.534
 3501POPC   C3A46337  22.637  32.199   6.980
 3501POPC   C4A46338  22.958  32.072   7.284
 3501POPC   C1B46339  22.969  32.559   6.265
 3501POPC   C2B46340  23.044  32.352   6.673
 3501POPC   C3B46341  22.994  32.558   7.069
 3501POPC   C4B46342  23.224  32.506   7.420
 3502POPC   NC346343  18.045  33.148   5.427
 3502POPC   PO446344  18.500  33.605   5.443
 3502POPC   GL146345  18.432  33.299   5.788
 3502POPC   GL246346  18.067  33.367   5.884
 3502POPC   C1A46347  18.353  33.165   6.236
 3502POPC   D2A46348  18.004  33.214   6.511
 3502POPC   C3A46349  18.154  33.004   6.822
 3502POPC   C4A46350  18.255  33.014   7.206
 3502POPC   C1B46351  17.949  32.918   6.071
 3502POPC   C2B46352  18.106  32.669   6.423
 3502POPC   C3B46353  18.025  32.512   6.840
 3502POPC   C4B46354  17.809  32.738   7.125
 3503POPC   NC346355  41.123  40.086   5.285
 3503POPC   PO446356  41.822  40.238   5.195
 3503POPC   GL146357  41.546  40.058   5.584
 3503POPC   GL246358  41.432  40.259   5.879
 3503POPC   C1A46359  41.508  39.749   5.975
 3503POPC   D2A46360  41.452  39.614   6.438
 3503POPC   C3A46361  41.550  39.824   6.828
 3503POPC   C4A46362  41.424  40.177   7.081
 3503POPC   C1B46363  41.773  40.133   6.211
 3503POPC   C2B46364  41.974  40.183   6.643
 3503POPC   C3B46365  41.925  40.216   7.111
 3503POPC   C4B46366  41.984  39.996   7.484
 3504POPC   NC346367   4.066  27.728   5.488
 3504POPC   PO446368   4.626  27.451   5.462
 3504POPC   GL146369   4.281  27.353   5.766
 3504POPC   GL246370   4.323  27.650   5.927
 3504POPC   C1A46371   4.073  27.278   6.163
 3504POPC   D2A46372   4.161  27.542   6.516
 3504POPC   C3A46373   4.094  27.441   6.946
 3504POPC   C4A46374   4.197  27.722   7.289
 3504POPC   C1B46375   4.599  27.335   6.153
 3504POPC   C2B46376   4.791  27.421   6.517
 3504POPC   C3B46377   4.606  27.630   6.848
 3504POPC   C4B46378   4.565  27.408   7.183
 3505POPC   NC346379   6.556  31.285   5.383
 3505POPC   PO446380   6.339  31.953   5.273
 3505POPC   GL146381   6.559  31.756   5.701
 3505POPC   GL246382   6.729  31.447   5.818
 3505POPC   C1A46383   6.784  31.761   6.170
 3505POPC   D2A46384   6.906  31.781   6.591
 3505POPC   C3A46385   6.641  31.623   6.901
 3505POPC   C4A46386   6.690  31.596   7.330
 3505POPC   C1B46387   6.516  31.302   6.235
 3505POPC   C2B46388   6.291  31.332   6.663
 3505POPC   C3B46389   6.413  31.194   7.105
 3505POPC   C4B46390   6.351  31.289   7.584
 3506POPC   NC346391   0.470  25.077   5.415
 3506POPC   PO446392   0.462  25.766   5.510
 3506POPC   GL146393   0.598  25.444   5.798
 3506POPC   GL246394   0.256  25.394   5.838
 3506POPC   C1A46395   0.593  25.182   6.194
 3506POPC   D2A46396   0.752  24.996   6.595
 3506POPC   C3A46397   0.559  25.201   6.951
 3506POPC   C4A46398   0.696  25.395   7.325
 3506POPC   C1B46399   0.271  25.599   6.231
 3506POPC   C2B46400   0.198  25.435   6.645
 3506POPC   C3B46401   0.236  25.585   7.067
 3506POPC   C4B46402   0.246  25.400   7.527
 3507POPC   NC346403   2.372   2.150   5.633
 3507POPC   PO446404   2.956   1.963   5.326
 3507POPC   GL146405   2.874   1.763   5.713
 3507POPC   GL246406   3.205   1.875   5.815
 3507POPC   C1A46407   2.717   1.851   6.156
 3507POPC   D2A46408   2.478   2.074   6.499
 3507POPC   C3A46409   2.589   1.991   6.937
 3507POPC   C4A46410   2.673   2.331   7.246
 3507POPC   C1B46411   3.229   2.008   6.239
 3507POPC   C2B46412   3.008   2.066   6.630
 3507POPC   C3B46413   3.081   2.076   7.067
 3507POPC   C4B46414   3.050   1.670   7.221
 3508POPC   NC346415  17.864   3.796   5.369
 3508POPC   PO446416  17.403   3.355   5.563
 3508POPC   GL146417  17.657   3.524   5.860
 3508POPC   GL246418  17.573   3.867   5.851
 3508POPC   C1A46419  17.510   3.583   6.271
 3508POPC   D2A46420  17.531   3.840   6.594
 3508POPC   C3A46421  17.589   3.560   6.897
 3508POPC   C4A46422  17.646   3.218   7.160
 3508POPC   C1B46423  17.272   4.076   6.174
 3508POPC   C2B46424  17.143   4.171   6.626
 3508POPC   C3B46425  17.202   3.888   7.012
 3508POPC   C4B46426  17.577   3.767   7.338
 3509POPC   NC346427   0.923  38.951   5.560
 3509POPC   PO446428   1.372  39.267   5.156
 3509POPC   GL146429   1.152  39.390   5.643
 3509POPC   GL246430   1.436  39.360   5.873
 3509POPC   C1A46431   1.046  39.154   6.133
 3509POPC   D2A46432   1.345  39.126   6.483
 3509POPC   C3A46433   1.264  38.966   6.895
 3509POPC   C4A46434   1.366  39.124   7.325
 3509POPC   C1B46435   1.153  39.634   6.111
 3509POPC   C2B46436   1.021  39.537   6.535
 3509POPC   C3B46437   1.217  39.460   6.939
 3509POPC   C4B46438   1.043  39.538   7.342
 3510POPC   NC346439   0.594  24.381   5.282
 3510POPC   PO446440   0.003  24.604   5.393
 3510POPC   GL146441   0.348  24.579   5.719
 3510POPC   GL246442   0.196  24.269   5.790
 3510POPC   C1A46443   0.596  24.644   6.156
 3510POPC   D2A46444   0.448  24.550   6.617
 3510POPC   C3A46445   0.572  24.694   7.049
 3510POPC   C4A46446   0.525  24.904   7.475
 3510POPC   C1B46447   0.126  24.410   6.222
 3510POPC   C2B46448  44.991  24.280   6.639
 3510POPC   C3B46449   0.176  24.383   7.042
 3510POPC   C4B46450   0.177  24.527   7.496
 3511POPC   NC346451   5.077  42.063   5.516
 3511POPC   PO446452   5.220  42.664   5.438
 3511POPC   GL146453   5.237  42.424   5.857
 3511POPC   GL246454   5.309  42.061   5.954
 3511POPC   C1A46455   5.263  42.468   6.326
 3511POPC   D2A46456   5.469  42.566   6.730
 3511POPC   C3A46457   5.251  42.484   7.127
 3511POPC   C4A46458   5.184  42.614   7.527
 3511POPC   C1B46459   5.225  41.969   6.373
 3511POPC   C2B46460   5.182  42.134   6.764
 3511POPC   C3B46461   5.375  41.999   7.132
 3511POPC   C4B46462   5.225  42.107   7.536
 3512POPC   NC346463  13.418  31.735   5.497
 3512POPC   PO446464  13.926  31.263   5.446
 3512POPC   GL146465  13.731  31.350   5.856
 3512POPC   GL246466  13.359  31.376   5.881
 3512POPC   C1A46467  13.617  31.182   6.273
 3512POPC   D2A46468  13.472  30.919   6.599
 3512POPC   C3A46469  13.615  31.169   6.934
 3512POPC   C4A46470  13.390  31.524   7.072
 3512POPC   C1B46471  13.433  31.704   6.235
 3512POPC   C2B46472  13.316  31.893   6.665
 3512POPC   C3B46473  13.565  31.996   7.037
 3512POPC   C4B46474  13.983  31.870   7.212
 3513POPC   NC346475  36.734  13.657   5.417
 3513POPC   PO446476  37.474  13.445   5.559
 3513POPC   GL146477  37.127  13.658   5.760
 3513POPC   GL246478  36.974  13.348   5.778
 3513POPC   C1A46479  36.887  13.866   6.114
 3513POPC   D2A46480  36.763  14.111   6.500
 3513POPC   C3A46481  36.740  13.929   6.925
 3513POPC   C4A46482  36.849  13.677   7.305
 3513POPC   C1B46483  36.763  13.367   6.156
 3513POPC   C2B46484  36.735  13.580   6.544
 3513POPC   C3B46485  36.868  13.399   6.887
 3513POPC   C4B46486  37.183  13.200   7.129
 3514POPC   NC346487   0.208  19.899   5.481
 3514POPC   PO446488   0.893  19.719   5.521
 3514POPC   GL146489   0.632  19.700   5.839
 3514POPC   GL246490   0.381  19.492   5.701
 3514POPC   C1A46491   0.381  19.850   6.171
 3514POPC   D2A46492   0.251  19.967   6.583
 3514POPC   C3A46493   0.533  19.828   6.868
 3514POPC   C4A46494   0.525  19.714   7.269
 3514POPC   C1B46495   0.095  19.432   6.030
 3514POPC   C2B46496   0.068  19.513   6.452
 3514POPC   C3B46497   0.209  19.445   6.865
 3514POPC   C4B46498   0.091  19.425   7.284
 3515POPC   NC346499   0.800   6.289   5.528
 3515POPC   PO446500   1.351   6.108   5.519
 3515POPC   GL146501   1.352   5.900   5.912
 3515POPC   GL246502   1.025   5.754   5.869
 3515POPC   C1A46503   1.228   5.784   6.340
 3515POPC   D2A46504   1.031   5.667   6.704
 3515POPC   C3A46505   1.207   5.838   7.075
 3515POPC   C4A46506   1.143   5.801   7.552
 3515POPC   C1B46507   0.967   6.177   6.112
 3515POPC   C2B46508   0.903   6.350   6.484
 3515POPC   C3B46509   0.893   6.212   6.884
 3515POPC   C4B46510   1.012   6.240   7.296
 3516POPC   NC346511   0.321  11.600   5.460
 3516POPC   PO446512   0.629  10.986   5.214
 3516POPC   GL146513   0.689  11.147   5.668
 3516POPC   GL246514   0.341  11.210   5.825
 3516POPC   C1A46515   0.722  11.223   6.142
 3516POPC   D2A46516   0.457  11.245   6.509
 3516POPC   C3A46517   0.523  11.436   6.896
 3516POPC   C4A46518   0.735  11.460   7.281
 3516POPC   C1B46519   0.030  11.176   6.222
 3516POPC   C2B46520  44.872  11.102   6.674
 3516POPC   C3B46521   0.084  11.190   7.090
 3516POPC   C4B46522   0.252  11.490   7.424
 3517POPC   NC346523  35.445  42.657   5.442
 3517POPC   PO446524  35.771  42.005   5.350
 3517POPC   GL146525  35.493  42.056   5.759
 3517POPC   GL246526  35.514  42.400   5.854
 3517POPC   C1A46527  35.230  42.167   6.171
 3517POPC   D2A46528  35.370  42.425   6.530
 3517POPC   C3A46529  35.260  42.213   6.891
 3517POPC   C4A46530  35.200  42.251   7.305
 3517POPC   C1B46531  35.217  42.695   6.097
 3517POPC   C2B46532  34.957  42.730   6.487
 3517POPC   C3B46533  35.114  42.747   6.918
 3517POPC   C4B46534  34.941  42.693   7.334
 3518POPC   NC346535  18.674   4.434   5.457
 3518POPC   PO446536  19.238   4.073   5.539
 3518POPC   GL146537  18.997   4.290   5.839
 3518POPC   GL246538  19.045   4.630   5.779
 3518POPC   C1A46539  18.881   4.442   6.238
 3518POPC   D2A46540  18.997   4.620   6.596
 3518POPC   C3A46541  18.951   4.319   6.889
 3518POPC   C4A46542  18.756   4.356   7.269
 3518POPC   C1B46543  19.337   4.655   6.147
 3518POPC   C2B46544  19.504   4.706   6.566
 3518POPC   C3B46545  19.318   4.720   6.991
 3518POPC   C4B46546  19.298   4.369   7.259
 3519POPC   NC346547  21.478  26.259   5.277
 3519POPC   PO446548  21.521  25.718   5.617
 3519POPC   GL146549  21.493  26.137   5.784
 3519POPC   GL246550  21.115  26.155   5.657
 3519POPC   C1A46551  21.771  26.194   6.165
 3519POPC   D2A46552  21.676  26.231   6.614
 3519POPC   C3A46553  21.649  26.001   7.013
 3519POPC   C4A46554  21.317  25.711   7.115
 3519POPC   C1B46555  20.986  25.925   6.036
 3519POPC   C2B46556  20.875  26.021   6.472
 3519POPC   C3B46557  21.145  26.121   6.816
 3519POPC   C4B46558  21.067  26.238   7.210
 3520POPC   NC346559  21.953  24.933   5.500
 3520POPC   PO446560  22.475  24.611   5.575
 3520POPC   GL146561  22.335  24.272   5.853
 3520POPC   GL246562  21.982  24.282   5.746
 3520POPC   C1A46563  22.452  24.218   6.269
 3520POPC   D2A46564  22.283  24.482   6.567
 3520POPC   C3A46565  22.291  24.368   6.963
 3520POPC   C4A46566  22.178  24.636   7.306
 3520POPC   C1B46567  21.945  24.518   6.148
 3520POPC   C2B46568  21.784  24.380   6.553
 3520POPC   C3B46569  21.823  24.592   6.936
 3520POPC   C4B46570  21.702  24.428   7.339
 3521POPC   NC346571  26.417   8.358   5.474
 3521POPC   PO446572  26.879   7.896   5.347
 3521POPC   GL146573  26.784   8.100   5.708
 3521POPC   GL246574  26.444   7.956   5.816
 3521POPC   C1A46575  26.836   8.207   6.124
 3521POPC   D2A46576  27.057   8.130   6.514
 3521POPC   C3A46577  27.316   8.397   6.766
 3521POPC   C4A46578  27.146   8.239   7.145
 3521POPC   C1B46579  26.495   7.877   6.265
 3521POPC   C2B46580  26.533   8.214   6.584
 3521POPC   C3B46581  26.622   8.180   7.018
 3521POPC   C4B46582  26.456   7.775   7.159
 3522POPC   NC346583   5.994  21.874   5.149
 3522POPC   PO446584   5.701  21.374   5.556
 3522POPC   GL146585   5.667  21.444   5.971
 3522POPC   GL246586   5.669  21.115   6.065
 3522POPC   C1A46587   5.770  21.743   6.328
 3522POPC   D2A46588   5.789  21.845   6.778
 3522POPC   C3A46589   5.679  21.455   7.008
 3522POPC   C4A46590   5.781  21.165   7.327
 3522POPC   C1B46591   6.059  21.290   6.274
 3522POPC   C2B46592   6.149  21.508   6.671
 3522POPC   C3B46593   6.207  21.461   7.130
 3522POPC   C4B46594   6.454  21.188   7.448
 3523POPC   NC346595   8.877  38.760   5.484
 3523POPC   PO446596   8.949  39.485   5.472
 3523POPC   GL146597   8.993  39.222   5.822
 3523POPC   GL246598   8.660  39.125   5.822
 3523POPC   C1A46599   9.028  39.439   6.224
 3523POPC   D2A46600   9.048  39.419   6.651
 3523POPC   C3A46601   9.192  39.002   6.733
 3523POPC   C4A46602   9.218  38.885   7.165
 3523POPC   C1B46603   8.535  39.453   6.136
 3523POPC   C2B46604   8.546  39.356   6.599
 3523POPC   C3B46605   8.758  39.142   6.951
 3523POPC   C4B46606   8.740  38.979   7.361
 3524POPC   NC346607   5.208  38.218   5.484
 3524POPC   PO446608   5.051  38.909   5.619
 3524POPC   GL146609   4.923  38.614   5.972
 3524POPC   GL246610   5.073  38.266   5.978
 3524POPC   C1A46611   5.094  38.513   6.404
 3524POPC   D2A46612   5.354  38.608   6.739
 3524POPC   C3A46613   5.134  38.591   7.140
 3524POPC   C4A46614   4.768  38.797   7.355
 3524POPC   C1B46615   5.296  38.015   6.303
 3524POPC   C2B46616   5.429  38.056   6.732
 3524POPC   C3B46617   5.287  38.048   7.167
 3524POPC   C4B46618   4.938  38.204   7.439
 3525POPC   NC346619  24.552  30.199   5.582
 3525POPC   PO446620  24.279  29.576   5.731
 3525POPC   GL146621  24.413  29.900   5.980
 3525POPC   GL246622  24.764  29.895   5.956
 3525POPC   C1A46623  24.287  30.172   6.322
 3525POPC   D2A46624  24.519  30.211   6.714
 3525POPC   C3A46625  24.635  29.812   6.908
 3525POPC   C4A46626  24.274  29.854   7.122
 3525POPC   C1B46627  24.781  30.290   6.203
 3525POPC   C2B46628  24.939  30.462   6.582
 3525POPC   C3B46629  24.981  30.191   6.943
 3525POPC   C4B46630  24.717  30.117   7.319
 3526POPC   NC346631  17.900  44.480   5.606
 3526POPC   PO446632  17.416  44.520   5.165
 3526POPC   GL146633  17.460  44.764   5.564
 3526POPC   GL246634  17.433  44.480   5.780
 3526POPC   C1A46635  17.531  44.938   6.005
 3526POPC   D2A46636  17.338   0.005   6.429
 3526POPC   C3A46637  17.436  44.693   6.756
 3526POPC   C4A46638  17.814  44.681   7.029
 3526POPC   C1B46639  17.595  44.443   6.194
 3526POPC   C2B46640  17.519  44.228   6.540
 3526POPC   C3B46641  17.677  44.219   6.908
 3526POPC   C4B46642  17.406  44.371   7.186
 3527POPC   NC346643  33.357   6.587   5.408
 3527POPC   PO446644  34.041   6.571   5.339
 3527POPC   GL146645  33.781   6.471   5.727
 3527POPC   GL246646  33.520   6.197   5.696
 3527POPC   C1A46647  33.576   6.714   6.091
 3527POPC   D2A46648  33.500   6.976   6.485
 3527POPC   C3A46649  33.669   6.810   6.879
 3527POPC   C4A46650  33.977   6.596   7.196
 3527POPC   C1B46651  33.605   6.152   6.143
 3527POPC   C2B46652  33.659   6.411   6.506
 3527POPC   C3B46653  33.616   6.316   6.940
 3527POPC   C4B46654  33.498   6.134   7.308
 3528POPC   NC346655  32.841  38.296   5.162
 3528POPC   PO446656  33.317  38.611   5.351
 3528POPC   GL146657  33.067  38.352   5.670
 3528POPC   GL246658  32.790  38.103   5.679
 3528POPC   C1A46659  33.128  38.461   6.113
 3528POPC   D2A46660  33.175  38.748   6.482
 3528POPC   C3A46661  33.120  38.577   6.899
 3528POPC   C4A46662  33.049  38.435   7.298
 3528POPC   C1B46663  32.672  38.215   6.109
 3528POPC   C2B46664  32.832  38.334   6.525
 3528POPC   C3B46665  32.752  38.187   6.946
 3528POPC   C4B46666  32.606  38.237   7.374
 3529POPC   NC346667  32.170  44.879   5.525
 3529POPC   PO446668  32.071  44.267   5.371
 3529POPC   GL146669  32.243  44.438   5.774
 3529POPC   GL246670  32.543  44.697   5.803
 3529POPC   C1A46671  32.057  44.617   6.163
 3529POPC   D2A46672  31.949  44.418   6.578
 3529POPC   C3A46673  32.139  44.573   6.981
 3529POPC   C4A46674  32.094  44.566   7.433
 3529POPC   C1B46675  32.559  44.528   6.194
 3529POPC   C2B46676  32.486  44.520   6.592
 3529POPC   C3B46677  32.722  44.620   6.923
 3529POPC   C4B46678  32.573  44.670   7.297
 3530POPC   NC346679  25.514   6.672   5.360
 3530POPC   PO446680  24.860   7.022   5.404
 3530POPC   GL146681  25.162   6.828   5.711
 3530POPC   GL246682  25.484   6.963   5.802
 3530POPC   C1A46683  25.215   6.619   6.115
 3530POPC   D2A46684  25.212   6.724   6.563
 3530POPC   C3A46685  25.515   6.880   6.865
 3530POPC   C4A46686  25.441   6.881   7.312
 3530POPC   C1B46687  25.657   6.831   6.263
 3530POPC   C2B46688  25.661   6.476   6.572
 3530POPC   C3B46689  25.405   6.390   6.989
 3530POPC   C4B46690  25.401   6.425   7.489
 3531POPC   NC346691  29.748  37.466   5.354
 3531POPC   PO446692  30.178  38.008   5.516
 3531POPC   GL146693  30.290  37.642   5.765
 3531POPC   GL246694  29.940  37.626   5.826
 3531POPC   C1A46695  30.303  37.534   6.208
 3531POPC   D2A46696  30.054  37.634   6.576
 3531POPC   C3A46697  30.137  37.451   6.972
 3531POPC   C4A46698  30.323  37.512   7.351
 3531POPC   C1B46699  29.631  37.715   6.127
 3531POPC   C2B46700  29.570  37.859   6.549
 3531POPC   C3B46701  29.719  37.770   6.970
 3531POPC   C4B46702  29.616  37.961   7.336
 3532POPC   NC346703  27.415  17.708   5.499
 3532POPC   PO446704  27.343  17.038   5.588
 3532POPC   GL146705  27.486  17.343   5.888
 3532POPC   GL246706  27.652  17.688   5.946
 3532POPC   C1A46707  27.350  17.362   6.331
 3532POPC   D2A46708  27.335  17.233   6.772
 3532POPC   C3A46709  27.494  17.638   6.923
 3532POPC   C4A46710  27.359  17.816   7.323
 3532POPC   C1B46711  27.870  17.409   6.209
 3532POPC   C2B46712  27.794  17.332   6.616
 3532POPC   C3B46713  27.940  17.338   7.026
 3532POPC   C4B46714  27.911  17.681   7.290
 3533POPC   NC346715  42.049  17.950   5.531
 3533POPC   PO446716  41.575  18.370   5.211
 3533POPC   GL146717  41.492  18.386   5.680
 3533POPC   GL246718  41.271  18.122   5.813
 3533POPC   C1A46719  41.552  18.425   6.144
 3533POPC   D2A46720  41.653  18.123   6.473
 3533POPC   C3A46721  41.639  18.260   6.893
 3533POPC   C4A46722  41.704  18.440   7.306
 3533POPC   C1B46723  41.212  17.981   6.224
 3533POPC   C2B46724  41.292  17.786   6.627
 3533POPC   C3B46725  41.415  17.822   7.054
 3533POPC   C4B46726  41.262  18.178   7.249
 3534POPC   NC346727   3.731  25.079   5.530
 3534POPC   PO446728   3.279  25.528   5.401
 3534POPC   GL146729   3.378  25.476   5.858
 3534POPC   GL246730   3.348  25.119   5.900
 3534POPC   C1A46731   3.433  25.637   6.303
 3534POPC   D2A46732   3.576  25.407   6.627
 3534POPC   C3A46733   3.759  25.554   6.948
 3534POPC   C4A46734   3.591  25.377   7.299
 3534POPC   C1B46735   3.723  25.162   6.209
 3534POPC   C2B46736   3.873  24.989   6.642
 3534POPC   C3B46737   3.977  25.066   7.104
 3534POPC   C4B46738   3.935  25.097   7.586
 3535POPC   NC346739  20.576  29.415   5.430
 3535POPC   PO446740  20.765  29.952   5.403
 3535POPC   GL146741  20.586  29.813   5.772
 3535POPC   GL246742  20.655  30.100   5.937
 3535POPC   C1A46743  20.422  29.758   6.218
 3535POPC   D2A46744  20.644  29.991   6.544
 3535POPC   C3A46745  20.527  29.972   6.981
 3535POPC   C4A46746  20.506  30.087   7.426
 3535POPC   C1B46747  20.929  29.779   6.146
 3535POPC   C2B46748  21.048  29.641   6.560
 3535POPC   C3B46749  21.037  29.918   6.918
 3535POPC   C4B46750  20.965  29.850   7.368
 3536POPC   NC346751  14.840  14.218   5.472
 3536POPC   PO446752  15.442  14.582   5.520
 3536POPC   GL146753  15.369  14.380   5.863
 3536POPC   GL246754  15.013  14.459   5.904
 3536POPC   C1A46755  15.439  14.440   6.291
 3536POPC   D2A46756  15.227  14.655   6.624
 3536POPC   C3A46757  15.356  14.660   7.068
 3536POPC   C4A46758  15.251  14.602   7.521
 3536POPC   C1B46759  14.973  14.248   6.307
 3536POPC   C2B46760  14.791  14.373   6.708
 3536POPC   C3B46761  14.894  14.419   7.137
 3536POPC   C4B46762  14.890  14.214   7.547
 3537POPC   NC346763  19.047  26.727   5.398
 3537POPC   PO446764  18.472  27.046   5.533
 3537POPC   GL146765  18.731  26.725   5.820
 3537POPC   GL246766  18.634  26.370   5.879
 3537POPC   C1A46767  19.056  26.553   6.149
 3537POPC   D2A46768  19.087  26.406   6.599
 3537POPC   C3A46769  19.261  26.716   6.892
 3537POPC   C4A46770  19.322  26.905   7.314
 3537POPC   C1B46771  18.566  26.570   6.302
 3537POPC   C2B46772  18.784  26.819   6.641
 3537POPC   C3B46773  18.805  26.806   7.114
 3537POPC   C4B46774  18.505  26.761   7.489
 3538POPC   NC346775  14.369  43.743   5.306
 3538POPC   PO446776  14.412  44.294   5.567
 3538POPC   GL146777  14.169  44.069   5.841
 3538POPC   GL246778  14.467  43.867   5.900
 3538POPC   C1A46779  14.141  43.939   6.289
 3538POPC   D2A46780  14.394  43.768   6.606
 3538POPC   C3A46781  14.295  43.884   7.011
 3538POPC   C4A46782  14.149  43.576   7.253
 3538POPC   C1B46783  14.619  44.132   6.255
 3538POPC   C2B46784  14.462  44.286   6.673
 3538POPC   C3B46785  14.700  44.174   7.062
 3538POPC   C4B46786  14.797  44.306   7.498
 3539POPC   NC346787  41.403   0.176   4.964
 3539POPC   PO446788  41.626   0.809   5.210
 3539POPC   GL146789  41.745   0.544   5.635
 3539POPC   GL246790  41.879   0.180   5.588
 3539POPC   C1A46791  41.696   0.598   6.114
 3539POPC   D2A46792  41.641   0.736   6.576
 3539POPC   C3A46793  41.323   0.512   6.808
 3539POPC   C4A46794  41.198   0.524   7.240
 3539POPC   C1B46795  41.921   0.103   6.053
 3539POPC   C2B46796  41.828   0.256   6.484
 3539POPC   C3B46797  41.809   0.315   6.931
 3539POPC   C4B46798  41.924   0.127   7.292
 3540POPC   NC346799   4.879  43.009   5.281
 3540POPC   PO446800   5.479  43.140   5.015
 3540POPC   GL146801   5.390  43.163   5.516
 3540POPC   GL246802   5.228  43.483   5.642
 3540POPC   C1A46803   5.207  43.034   5.981
 3540POPC   D2A46804   4.913  42.846   6.341
 3540POPC   C3A46805   5.052  42.847   6.783
 3540POPC   C4A46806   5.400  42.960   7.088
 3540POPC   C1B46807   5.402  43.513   6.081
 3540POPC   C2B46808   5.281  43.425   6.533
 3540POPC   C3B46809   5.117  43.341   6.951
 3540POPC   C4B46810   5.303  43.529   7.303
 3541POPC   NC346811  44.823   9.343   5.421
 3541POPC   PO446812  44.477   8.774   5.255
 3541POPC   GL146813  44.524   8.985   5.672
 3541POPC   GL246814  44.293   9.233   5.764
 3541POPC   C1A46815  44.597   9.063   6.159
 3541POPC   D2A46816  44.625   8.858   6.575
 3541POPC   C3A46817  44.602   9.081   6.954
 3541POPC   C4A46818  44.864   9.049   7.307
 3541POPC   C1B46819  44.202   8.793   5.994
 3541POPC   C2B46820  44.364   8.457   6.318
 3541POPC   C3B46821  44.502   8.407   6.778
 3541POPC   C4B46822  44.531   8.627   7.167
 3542POPC   NC346823  35.935   6.651   5.042
 3542POPC   PO446824  36.365   6.909   5.538
 3542POPC   GL146825  36.066   6.603   5.746
 3542POPC   GL246826  35.944   6.790   5.938
 3542POPC   C1A46827  36.085   6.377   6.166
 3542POPC   D2A46828  35.949   6.520   6.566
 3542POPC   C3A46829  36.213   6.420   6.894
 3542POPC   C4A46830  36.088   6.393   7.300
 3542POPC   C1B46831  36.292   6.890   6.190
 3542POPC   C2B46832  36.388   6.823   6.596
 3542POPC   C3B46833  36.222   6.925   6.985
 3542POPC   C4B46834  36.199   6.885   7.421
 3543POPC   NC346835   2.557  40.936   5.324
 3543POPC   PO446836   2.965  41.513   5.280
 3543POPC   GL146837   2.916  41.461   5.717
 3543POPC   GL246838   2.684  41.208   5.771
 3543POPC   C1A46839   2.891  41.637   6.147
 3543POPC   D2A46840   2.962  41.591   6.583
 3543POPC   C3A46841   2.729  41.804   6.879
 3543POPC   C4A46842   2.595  41.635   7.252
 3543POPC   C1B46843   2.986  41.133   6.124
 3543POPC   C2B46844   2.855  41.099   6.563
 3543POPC   C3B46845   2.825  41.254   7.008
 3543POPC   C4B46846   2.956  41.262   7.482
 3544POPC   NC346847  13.724   3.051   5.284
 3544POPC   PO446848  13.413   2.505   5.392
 3544POPC   GL146849  13.687   2.699   5.667
 3544POPC   GL246850  13.430   2.944   5.699
 3544POPC   C1A46851  13.838   3.009   5.993
 3544POPC   D2A46852  13.708   3.064   6.438
 3544POPC   C3A46853  13.818   2.850   6.843
 3544POPC   C4A46854  13.758   3.095   7.217
 3544POPC   C1B46855  13.266   2.954   6.108
 3544POPC   C2B46856  13.206   3.147   6.494
 3544POPC   C3B46857  13.339   3.072   6.896
 3544POPC   C4B46858  13.380   2.704   7.152
 3545POPC   NC346859  24.466   7.252   5.291
 3545POPC   PO446860  24.228   7.869   5.368
 3545POPC   GL146861  24.534   7.594   5.681
 3545POPC   GL246862  24.450   7.215   5.798
 3545POPC   C1A46863  24.665   7.529   6.127
 3545POPC   D2A46864  24.497   7.360   6.530
 3545POPC   C3A46865  24.711   7.435   6.915
 3545POPC   C4A46866  24.709   7.809   7.169
 3545POPC   C1B46867  24.261   7.027   6.193
 3545POPC   C2B46868  24.259   6.927   6.678
 3545POPC   C3B46869  24.491   6.993   7.105
 3545POPC   C4B46870  24.403   7.065   7.553
 3546POPC   NC346871   6.739  44.129   5.217
 3546POPC   PO446872   6.472  43.646   5.519
 3546POPC   GL146873   6.615  44.005   5.785
 3546POPC   GL246874   6.370  44.145   5.999
 3546POPC   C1A46875   6.782  43.995   6.226
 3546POPC   D2A46876   6.788  43.651   6.515
 3546POPC   C3A46877   6.991  43.608   6.923
 3546POPC   C4A46878   6.861  43.824   7.263
 3546POPC   C1B46879   6.278  43.800   6.287
 3546POPC   C2B46880   6.112  43.812   6.723
 3546POPC   C3B46881   6.379  43.739   7.071
 3546POPC   C4B46882   6.357  43.554   7.484
 3547POPC   NC346883  28.155  25.747   5.372
 3547POPC   PO446884  28.552  26.320   5.277
 3547POPC   GL146885  28.578  26.091   5.709
 3547POPC   GL246886  28.239  25.972   5.812
 3547POPC   C1A46887  28.609  25.951   6.160
 3547POPC   D2A46888  28.406  25.855   6.567
 3547POPC   C3A46889  28.609  25.982   6.923
 3547POPC   C4A46890  28.566  26.379   7.107
 3547POPC   C1B46891  28.101  25.720   6.175
 3547POPC   C2B46892  27.938  25.650   6.604
 3547POPC   C3B46893  28.115  25.692   7.029
 3547POPC   C4B46894  28.442  25.799   7.365
 3548POPC   NC346895  43.463  27.909   5.468
 3548POPC   PO446896  44.189  27.721   5.326
 3548POPC   GL146897  44.084  27.628   5.774
 3548POPC   GL246898  44.012  27.267   5.845
 3548POPC   C1A46899  43.988  27.648   6.231
 3548POPC   D2A46900  44.100  27.646   6.673
 3548POPC   C3A46901  43.887  27.491   7.044
 3548POPC   C4A46902  43.978  27.519   7.489
 3548POPC   C1B46903  43.735  27.209   6.206
 3548POPC   C2B46904  43.824  27.169   6.640
 3548POPC   C3B46905  43.561  27.104   6.985
 3548POPC   C4B46906  43.580  27.189   7.427
 3549POPC   NC346907  37.927  39.144   5.463
 3549POPC   PO446908  37.198  38.997   5.560
 3549POPC   GL146909  37.551  39.106   5.802
 3549POPC   GL246910  37.370  39.361   5.932
 3549POPC   C1A46911  37.786  39.188   6.208
 3549POPC   D2A46912  37.710  39.354   6.647
 3549POPC   C3A46913  37.888  39.014   6.918
 3549POPC   C4A46914  38.016  39.020   7.358
 3549POPC   C1B46915  37.274  39.076   6.234
 3549POPC   C2B46916  37.491  38.905   6.571
 3549POPC   C3B46917  37.343  38.980   6.959
 3549POPC   C4B46918  37.230  39.102   7.364
 3550POPC   NC346919   1.625   9.759   5.348
 3550POPC   PO446920   0.976   9.575   5.408
 3550POPC   GL146921   1.219   9.788   5.709
 3550POPC   GL246922   1.413   9.480   5.714
 3550POPC   C1A46923   1.278   9.948   6.145
 3550POPC   D2A46924   1.057  10.013   6.564
 3550POPC   C3A46925   1.279   9.841   6.961
 3550POPC   C4A46926   1.531   9.843   7.363
 3550POPC   C1B46927   1.569   9.521   6.093
 3550POPC   C2B46928   1.488   9.646   6.521
 3550POPC   C3B46929   1.415   9.347   6.854
 3550POPC   C4B46930   1.652   9.270   7.219
 3551POPC   NC346931  39.628  39.622   5.483
 3551POPC   PO446932  38.956  39.858   5.278
 3551POPC   GL146933  39.240  39.936   5.683
 3551POPC   GL246934  39.503  40.127   5.789
 3551POPC   C1A46935  39.147  40.000   6.154
 3551POPC   D2A46936  39.166  40.135   6.606
 3551POPC   C3A46937  39.169  39.816   6.954
 3551POPC   C4A46938  38.983  39.779   7.369
 3551POPC   C1B46939  39.504  40.374   6.154
 3551POPC   C2B46940  39.646  40.345   6.560
 3551POPC   C3B46941  39.552  40.185   6.960
 3551POPC   C4B46942  39.323  40.135   7.325
 3552POPC   NC346943  34.748  41.069   5.559
 3552POPC   PO446944  34.543  40.467   5.421
 3552POPC   GL146945  34.511  40.704   5.811
 3552POPC   GL246946  34.310  41.049   5.851
 3552POPC   C1A46947  34.706  40.707   6.196
 3552POPC   D2A46948  34.423  40.593   6.533
 3552POPC   C3A46949  34.559  40.674   6.917
 3552POPC   C4A46950  34.720  40.514   7.298
 3552POPC   C1B46951  34.407  41.086   6.326
 3552POPC   C2B46952  34.830  41.000   6.606
 3552POPC   C3B46953  34.949  40.959   7.061
 3552POPC   C4B46954  34.540  41.028   7.267
 3553POPC   NC346955  19.226  32.663   5.349
 3553POPC   PO446956  18.813  32.200   5.316
 3553POPC   GL146957  19.054  32.164   5.710
 3553POPC   GL246958  19.193  32.508   5.823
 3553POPC   C1A46959  18.920  32.234   6.150
 3553POPC   D2A46960  18.995  32.422   6.534
 3553POPC   C3A46961  18.855  32.215   6.919
 3553POPC   C4A46962  18.674  31.887   7.217
 3553POPC   C1B46963  19.366  32.671   6.201
 3553POPC   C2B46964  19.283  32.836   6.610
 3553POPC   C3B46965  19.025  32.694   6.954
 3553POPC   C4B46966  19.150  32.653   7.315
 3554POPC   NC346967  36.624  24.204   5.468
 3554POPC   PO446968  37.163  24.670   5.481
 3554POPC   GL146969  37.041  24.660   5.896
 3554POPC   GL246970  36.669  24.561   5.843
 3554POPC   C1A46971  37.237  24.673   6.326
 3554POPC   D2A46972  37.065  24.685   6.759
 3554POPC   C3A46973  37.042  24.371   7.125
 3554POPC   C4A46974  37.283  24.300   7.526
 3554POPC   C1B46975  36.704  24.639   6.286
 3554POPC   C2B46976  36.597  24.473   6.697
 3554POPC   C3B46977  36.631  24.681   7.089
 3554POPC   C4B46978  36.496  24.809   7.483
 3555POPC   NC346979  26.902  19.245   5.347
 3555POPC   PO446980  27.224  18.737   5.590
 3555POPC   GL146981  26.796  18.921   5.737
 3555POPC   GL246982  26.695  19.298   5.811
 3555POPC   C1A46983  26.619  18.933   6.150
 3555POPC   D2A46984  26.793  19.194   6.512
 3555POPC   C3A46985  26.727  19.041   6.916
 3555POPC   C4A46986  26.778  19.180   7.335
 3555POPC   C1B46987  26.420  19.420   6.161
 3555POPC   C2B46988  26.438  19.601   6.563
 3555POPC   C3B46989  26.557  19.513   6.973
 3555POPC   C4B46990  26.572  19.608   7.417
 3556POPC   NC346991  11.538  25.517   5.379
 3556POPC   PO446992  10.966  25.229   5.233
 3556POPC   GL146993  11.167  25.320   5.706
 3556POPC   GL246994  11.551  25.380   5.872
 3556POPC   C1A46995  11.141  25.303   6.183
 3556POPC   D2A46996  11.385  25.263   6.583
 3556POPC   C3A46997  11.312  25.150   7.018
 3556POPC   C4A46998  11.328  25.498   7.311
 3556POPC   C1B46999  11.807  25.277   6.261
 3556POPC   C2B47000  11.862  25.069   6.675
 3556POPC   C3B47001  11.808  25.281   7.077
 3556POPC   C4B47002  11.709  25.221   7.513
 3557POPC   NC347003  25.558   5.949   5.143
 3557POPC   PO447004  25.281   5.666   5.690
 3557POPC   GL147005  25.097   6.046   5.868
 3557POPC   GL247006  25.311   6.308   5.721
 3557POPC   C1A47007  25.041   5.985   6.306
 3557POPC   D2A47008  25.231   5.696   6.621
 3557POPC   C3A47009  25.140   5.869   7.020
 3557POPC   C4A47010  24.991   6.204   7.240
 3557POPC   C1B47011  25.542   6.187   6.130
 3557POPC   C2B47012  25.684   5.948   6.504
 3557POPC   C3B47013  25.652   5.772   6.913
 3557POPC   C4B47014  25.565   5.995   7.297
 3558POPC   NC347015  27.096  31.732   5.446
 3558POPC   PO447016  26.811  31.150   5.212
 3558POPC   GL147017  26.691  31.522   5.683
 3558POPC   GL247018  26.946  31.558   5.915
 3558POPC   C1A47019  26.571  31.350   6.192
 3558POPC   D2A47020  26.661  31.189   6.671
 3558POPC   C3A47021  26.890  31.327   7.067
 3558POPC   C4A47022  26.811  31.702   7.311
 3558POPC   C1B47023  27.025  31.520   6.361
 3558POPC   C2B47024  27.029  31.701   6.784
 3558POPC   C3B47025  27.297  31.661   7.157
 3558POPC   C4B47026  27.243  31.702   7.602
 3559POPC   NC347027  28.610  16.455   5.627
 3559POPC   PO447028  28.318  17.122   5.583
 3559POPC   GL147029  28.475  16.880   5.907
 3559POPC   GL247030  28.198  16.620   5.888
 3559POPC   C1A47031  28.512  16.768   6.344
 3559POPC   D2A47032  28.325  16.624   6.754
 3559POPC   C3A47033  28.404  16.767   7.203
 3559POPC   C4A47034  28.321  16.663   7.655
 3559POPC   C1B47035  28.044  16.905   6.195
 3559POPC   C2B47036  27.847  16.843   6.574
 3559POPC   C3B47037  27.921  16.811   6.994
 3559POPC   C4B47038  27.923  16.917   7.407
 3560POPC   NC347039  12.964  23.740   5.118
 3560POPC   PO447040  12.592  23.505   5.623
 3560POPC   GL147041  12.890  23.646   5.857
 3560POPC   GL247042  13.093  23.896   5.657
 3560POPC   C1A47043  12.814  23.557   6.290
 3560POPC   D2A47044  12.755  23.275   6.652
 3560POPC   C3A47045  12.858  23.521   7.002
 3560POPC   C4A47046  12.655  23.504   7.388
 3560POPC   C1B47047  13.065  24.046   6.117
 3560POPC   C2B47048  13.000  23.935   6.570
 3560POPC   C3B47049  12.822  24.034   6.955
 3560POPC   C4B47050  13.094  24.006   7.289
 3561POPC   NC347051  16.392   2.328   5.352
 3561POPC   PO447052  15.812   2.078   5.350
 3561POPC   GL147053  15.800   2.120   5.808
 3561POPC   GL247054  15.953   2.422   5.904
 3561POPC   C1A47055  15.984   1.954   6.205
 3561POPC   D2A47056  16.035   2.109   6.616
 3561POPC   C3A47057  15.891   1.864   6.967
 3561POPC   C4A47058  15.897   2.035   7.416
 3561POPC   C1B47059  15.632   2.351   6.230
 3561POPC   C2B47060  15.530   2.303   6.637
 3561POPC   C3B47061  15.720   2.327   7.022
 3561POPC   C4B47062  16.122   2.447   7.215
 3562POPC   NC347063  44.505   5.939   5.242
 3562POPC   PO447064  43.786   5.939   5.212
 3562POPC   GL147065  43.838   5.901   5.670
 3562POPC   GL247066  44.185   5.879   5.699
 3562POPC   C1A47067  43.887   5.759   6.104
 3562POPC   D2A47068  44.083   5.782   6.502
 3562POPC   C3A47069  43.892   5.704   6.888
 3562POPC   C4A47070  43.887   5.798   7.282
 3562POPC   C1B47071  44.267   6.111   6.085
 3562POPC   C2B47072  44.355   6.214   6.514
 3562POPC   C3B47073  44.148   6.142   6.902
 3562POPC   C4B47074  44.319   6.070   7.299
 3563POPC   NC347075  44.878  21.406   5.254
 3563POPC   PO447076  44.509  21.043   5.676
 3563POPC   GL147077  44.873  21.239   5.911
 3563POPC   GL247078  44.968  21.584   5.767
 3563POPC   C1A47079  44.791  21.282   6.371
 3563POPC   D2A47080  44.664  21.258   6.825
 3563POPC   C3A47081  44.309  21.424   7.060
 3563POPC   C4A47082  44.513  21.379   7.469
 3563POPC   C1B47083   0.086  21.667   6.210
 3563POPC   C2B47084  44.923  21.730   6.639
 3563POPC   C3B47085   0.116  21.708   7.056
 3563POPC   C4B47086   0.007  21.504   7.448
 3564POPC   NC347087  14.159  31.703   5.407
 3564POPC   PO447088  14.678  31.221   5.280
 3564POPC   GL147089  14.473  31.441   5.666
 3564POPC   GL247090  14.665  31.740   5.595
 3564POPC   C1A47091  14.222  31.311   6.077
 3564POPC   D2A47092  14.082  31.121   6.509
 3564POPC   C3A47093  14.318  31.227   6.900
 3564POPC   C4A47094  14.128  31.394   7.277
 3564POPC   C1B47095  14.571  31.794   6.058
 3564POPC   C2B47096  14.560  31.878   6.530
 3564POPC   C3B47097  14.467  31.784   6.992
 3564POPC   C4B47098  14.506  31.718   7.455
 3565POPC   NC347099   8.451  38.010   5.427
 3565POPC   PO447100   8.036  37.378   5.325
 3565POPC   GL147101   8.213  37.619   5.642
 3565POPC   GL247102   8.006  37.902   5.744
 3565POPC   C1A47103   8.167  37.562   6.114
 3565POPC   D2A47104   8.044  37.796   6.484
 3565POPC   C3A47105   8.080  37.591   6.890
 3565POPC   C4A47106   7.957  37.718   7.290
 3565POPC   C1B47107   8.330  38.032   6.084
 3565POPC   C2B47108   8.554  37.807   6.416
 3565POPC   C3B47109   8.483  37.889   6.839
 3565POPC   C4B47110   8.523  37.767   7.244
 3566POPC   NC347111  10.421   5.462   5.489
 3566POPC   PO447112  10.803   5.929   5.559
 3566POPC   GL147113  10.437   6.158   5.769
 3566POPC   GL247114  10.268   5.862   5.780
 3566POPC   C1A47115  10.278   6.204   6.207
 3566POPC   D2A47116  10.476   5.983   6.588
 3566POPC   C3A47117  10.292   5.902   7.014
 3566POPC   C4A47118  10.481   5.963   7.445
 3566POPC   C1B47119  10.391   5.697   6.167
 3566POPC   C2B47120  10.210   5.467   6.514
 3566POPC   C3B47121  10.116   5.414   6.939
 3566POPC   C4B47122  10.358   5.479   7.314
 3567POPC   NC347123  22.675  31.752   5.488
 3567POPC   PO447124  22.983  31.160   5.446
 3567POPC   GL147125  23.060  31.356   5.816
 3567POPC   GL247126  22.697  31.374   5.855
 3567POPC   C1A47127  23.167  31.406   6.247
 3567POPC   D2A47128  22.982  31.344   6.664
 3567POPC   C3A47129  23.139  31.640   6.981
 3567POPC   C4A47130  23.349  31.450   7.292
 3567POPC   C1B47131  22.661  31.530   6.286
 3567POPC   C2B47132  22.738  31.790   6.682
 3567POPC   C3B47133  22.652  31.688   7.139
 3567POPC   C4B47134  22.552  31.764   7.570
 3568POPC   NC347135  33.509  39.036   5.414
 3568POPC   PO447136  34.025  39.621   5.297
 3568POPC   GL147137  33.754  39.424   5.665
 3568POPC   GL247138  33.867  39.088   5.788
 3568POPC   C1A47139  33.611  39.371   6.138
 3568POPC   D2A47140  33.411  39.411   6.559
 3568POPC   C3A47141  33.643  39.289   6.956
 3568POPC   C4A47142  33.425  39.279   7.361
 3568POPC   C1B47143  34.067  38.869   6.145
 3568POPC   C2B47144  34.198  38.936   6.578
 3568POPC   C3B47145  34.111  39.064   7.005
 3568POPC   C4B47146  33.931  38.838   7.361
 3569POPC   NC347147  25.577  29.588   5.418
 3569POPC   PO447148  25.148  29.126   5.524
 3569POPC   GL147149  25.409  29.048   5.835
 3569POPC   GL247150  25.652  29.273   5.843
 3569POPC   C1A47151  25.519  28.853   6.217
 3569POPC   D2A47152  25.246  28.785   6.559
 3569POPC   C3A47153  25.411  28.757   6.967
 3569POPC   C4A47154  25.237  29.071   7.232
 3569POPC   C1B47155  25.451  29.357   6.271
 3569POPC   C2B47156  25.508  29.230   6.711
 3569POPC   C3B47157  25.704  29.176   7.102
 3569POPC   C4B47158  25.621  29.307   7.534
 3570POPC   NC347159  12.874  16.234   5.379
 3570POPC   PO447160  12.844  15.595   5.237
 3570POPC   GL147161  12.760  15.840   5.663
 3570POPC   GL247162  13.073  16.016   5.797
 3570POPC   C1A47163  12.637  15.931   6.118
 3570POPC   D2A47164  12.414  15.728   6.513
 3570POPC   C3A47165  12.691  15.681   6.915
 3570POPC   C4A47166  12.672  15.600   7.380
 3570POPC   C1B47167  13.037  16.236   6.194
 3570POPC   C2B47168  12.799  16.089   6.580
 3570POPC   C3B47169  12.797  16.182   7.015
 3570POPC   C4B47170  12.881  16.083   7.449
 3571POPC   NC347171  10.222  35.189   5.556
 3571POPC   PO447172  10.744  35.639   5.380
 3571POPC   GL147173  10.613  35.472   5.784
 3571POPC   GL247174  10.614  35.096   5.887
 3571POPC   C1A47175  10.628  35.509   6.231
 3571POPC   D2A47176  10.828  35.354   6.602
 3571POPC   C3A47177  10.546  35.375   6.942
 3571POPC   C4A47178  10.667  35.548   7.293
 3571POPC   C1B47179  10.261  35.129   6.213
 3571POPC   C2B47180  10.149  35.322   6.607
 3571POPC   C3B47181  10.104  35.098   6.996
 3571POPC   C4B47182  10.366  34.987   7.331
 3572POPC   NC347183   9.924  19.828   5.327
 3572POPC   PO447184   9.396  20.175   5.595
 3572POPC   GL147185   9.722  19.939   5.782
 3572POPC   GL247186   9.543  19.682   5.872
 3572POPC   C1A47187   9.951  19.817   6.169
 3572POPC   D2A47188   9.810  19.914   6.593
 3572POPC   C3A47189   9.994  19.701   6.982
 3572POPC   C4A47190  10.228  19.712   7.376
 3572POPC   C1B47191   9.405  19.957   6.227
 3572POPC   C2B47192   9.305  19.988   6.673
 3572POPC   C3B47193   9.512  19.862   7.053
 3572POPC   C4B47194   9.509  19.686   7.471
 3573POPC   NC347195  21.276  12.738   5.204
 3573POPC   PO447196  21.775  13.215   5.473
 3573POPC   GL147197  21.456  13.147   5.791
 3573POPC   GL247198  21.385  12.797   5.793
 3573POPC   C1A47199  21.369  13.031   6.242
 3573POPC   D2A47200  21.427  12.770   6.615
 3573POPC   C3A47201  21.231  13.029   6.943
 3573POPC   C4A47202  21.188  12.996   7.379
 3573POPC   C1B47203  21.115  12.595   6.142
 3573POPC   C2B47204  20.915  12.452   6.505
 3573POPC   C3B47205  21.004  12.536   6.926
 3573POPC   C4B47206  21.095  12.513   7.335
 3574POPC   NC347207  21.181   6.059   5.467
 3574POPC   PO447208  21.743   6.335   5.531
 3574POPC   GL147209  21.584   5.964   5.829
 3574POPC   GL247210  21.420   5.618   5.738
 3574POPC   C1A47211  21.590   5.704   6.242
 3574POPC   D2A47212  21.717   5.446   6.620
 3574POPC   C3A47213  21.600   5.590   7.036
 3574POPC   C4A47214  21.555   6.050   7.171
 3574POPC   C1B47215  21.116   5.509   6.106
 3574POPC   C2B47216  21.176   5.530   6.577
 3574POPC   C3B47217  20.923   5.537   6.956
 3574POPC   C4B47218  21.168   5.733   7.277
 3575POPC   NC347219  30.338   3.791   5.510
 3575POPC   PO447220  30.909   3.455   5.303
 3575POPC   GL147221  30.705   3.451   5.722
 3575POPC   GL247222  30.736   3.807   5.827
 3575POPC   C1A47223  30.614   3.450   6.183
 3575POPC   D2A47224  30.800   3.314   6.593
 3575POPC   C3A47225  30.663   3.267   7.002
 3575POPC   C4A47226  30.865   3.308   7.360
 3575POPC   C1B47227  30.671   3.963   6.236
 3575POPC   C2B47228  30.929   3.799   6.530
 3575POPC   C3B47229  30.996   3.657   6.940
 3575POPC   C4B47230  30.818   3.794   7.284
 3576POPC   NC347231   4.030   8.029   5.437
 3576POPC   PO447232   4.369   8.607   5.536
 3576POPC   GL147233   4.339   8.251   5.808
 3576POPC   GL247234   4.672   8.135   5.922
 3576POPC   C1A47235   4.275   8.175   6.238
 3576POPC   D2A47236   4.433   7.962   6.590
 3576POPC   C3A47237   4.224   8.060   6.964
 3576POPC   C4A47238   4.064   8.259   7.289
 3576POPC   C1B47239   4.751   7.773   6.206
 3576POPC   C2B47240   4.806   7.622   6.628
 3576POPC   C3B47241   4.513   7.630   6.967
 3576POPC   C4B47242   4.445   7.758   7.359
 3577POPC   NC347243  28.369  15.717   4.997
 3577POPC   PO447244  28.286  16.127   5.486
 3577POPC   GL147245  28.275  16.078   5.905
 3577POPC   GL247246  27.931  16.173   5.883
 3577POPC   C1A47247  28.365  15.783   6.276
 3577POPC   D2A47248  28.554  15.578   6.637
 3577POPC   C3A47249  28.570  15.830   7.006
 3577POPC   C4A47250  28.447  16.253   7.111
 3577POPC   C1B47251  27.908  15.974   6.277
 3577POPC   C2B47252  28.139  15.955   6.714
 3577POPC   C3B47253  28.033  15.904   7.173
 3577POPC   C4B47254  28.099  15.632   7.549
 3578POPC   NC347255  14.469  42.295   5.400
 3578POPC   PO447256  14.364  42.897   5.572
 3578POPC   GL147257  14.413  42.596   5.804
 3578POPC   GL247258  14.782  42.668   5.782
 3578POPC   C1A47259  14.252  42.358   6.131
 3578POPC   D2A47260  14.402  42.372   6.540
 3578POPC   C3A47261  14.176  42.325   6.932
 3578POPC   C4A47262  14.155  42.021   7.270
 3578POPC   C1B47263  14.783  42.345   6.112
 3578POPC   C2B47264  14.848  42.086   6.486
 3578POPC   C3B47265  14.674  42.131   6.896
 3578POPC   C4B47266  14.564  42.333   7.285
 3579POPC   NC347267  40.586  39.902   5.525
 3579POPC   PO447268  41.138  39.608   5.379
 3579POPC   GL147269  41.046  39.830   5.776
 3579POPC   GL247270  40.928  40.163   5.806
 3579POPC   C1A47271  41.059  39.889   6.243
 3579POPC   D2A47272  40.832  40.023   6.624
 3579POPC   C3A47273  40.943  40.017   7.043
 3579POPC   C4A47274  41.212  39.734   7.242
 3579POPC   C1B47275  40.583  40.067   6.137
 3579POPC   C2B47276  40.405  40.257   6.512
 3579POPC   C3B47277  40.433  40.189   6.991
 3579POPC   C4B47278  40.605  40.087   7.431
 3580POPC   NC347279  19.035   9.814   5.378
 3580POPC   PO447280  18.802   9.314   5.553
 3580POPC   GL147281  18.899   9.621   5.865
 3580POPC   GL247282  19.245   9.724   5.837
 3580POPC   C1A47283  19.049   9.574   6.304
 3580POPC   D2A47284  18.870   9.532   6.748
 3580POPC   C3A47285  19.096   9.573   7.146
 3580POPC   C4A47286  19.047   9.738   7.601
 3580POPC   C1B47287  19.201  10.081   6.144
 3580POPC   C2B47288  19.021  10.252   6.530
 3580POPC   C3B47289  18.992  10.050   6.915
 3580POPC   C4B47290  19.381  10.026   7.118
 3581POPC   NC347291  17.429  34.176   5.323
 3581POPC   PO447292  17.723  33.542   5.509
 3581POPC   GL147293  17.581  33.917   5.745
 3581POPC   GL247294  17.236  34.057   5.827
 3581POPC   C1A47295  17.589  33.854   6.168
 3581POPC   D2A47296  17.696  34.023   6.537
 3581POPC   C3A47297  17.726  33.689   6.797
 3581POPC   C4A47298  17.667  33.718   7.243
 3581POPC   C1B47299  17.080  33.910   6.203
 3581POPC   C2B47300  17.235  33.778   6.598
 3581POPC   C3B47301  17.370  34.027   6.943
 3581POPC   C4B47302  17.231  34.040   7.344
 3582POPC   NC347303  15.640  36.238   5.337
 3582POPC   PO447304  16.199  36.065   5.517
 3582POPC   GL147305  15.908  36.139   5.796
 3582POPC   GL247306  15.734  35.840   5.662
 3582POPC   C1A47307  15.991  36.228   6.234
 3582POPC   D2A47308  15.809  36.308   6.644
 3582POPC   C3A47309  16.070  36.153   6.998
 3582POPC   C4A47310  16.157  36.264   7.438
 3582POPC   C1B47311  15.826  35.720   6.064
 3582POPC   C2B47312  15.792  35.813   6.491
 3582POPC   C3B47313  15.717  35.655   6.886
 3582POPC   C4B47314  15.804  35.816   7.281
 3583POPC   NC347315  17.485   5.479   5.300
 3583POPC   PO447316  17.729   4.896   5.558
 3583POPC   GL147317  17.429   5.054   5.850
 3583POPC   GL247318  17.385   5.360   5.768
 3583POPC   C1A47319  17.469   5.081   6.290
 3583POPC   D2A47320  17.697   5.008   6.643
 3583POPC   C3A47321  17.471   4.997   7.022
 3583POPC   C4A47322  17.588   4.640   7.206
 3583POPC   C1B47323  17.734   5.432   6.030
 3583POPC   C2B47324  17.646   5.517   6.471
 3583POPC   C3B47325  17.770   5.456   6.893
 3583POPC   C4B47326  17.623   5.435   7.280
 3584POPC   NC347327  30.027  17.717   5.378
 3584POPC   PO447328  29.597  17.335   5.538
 3584POPC   GL147329  29.957  17.387   5.812
 3584POPC   GL247330  29.988  17.734   5.873
 3584POPC   C1A47331  29.993  17.287   6.265
 3584POPC   D2A47332  30.067  17.543   6.651
 3584POPC   C3A47333  29.795  17.457   7.041
 3584POPC   C4A47334  29.867  17.201   7.439
 3584POPC   C1B47335  29.815  17.789   6.255
 3584POPC   C2B47336  29.948  18.039   6.595
 3584POPC   C3B47337  30.110  17.896   7.001
 3584POPC   C4B47338  30.058  17.674   7.406
 3585POPC   NC347339   3.364  18.330   5.431
 3585POPC   PO447340   3.865  18.762   5.312
 3585POPC   GL147341   3.734  18.591   5.777
 3585POPC   GL247342   3.723  18.234   5.825
 3585POPC   C1A47343   3.589  18.453   6.253
 3585POPC   D2A47344   3.826  18.172   6.564
 3585POPC   C3A47345   3.659  18.178   6.973
 3585POPC   C4A47346   3.495  18.510   7.223
 3585POPC   C1B47347   3.556  17.941   6.164
 3585POPC   C2B47348   3.325  18.012   6.542
 3585POPC   C3B47349   3.232  18.368   6.803
 3585POPC   C4B47350   3.040  18.265   7.198
 3586POPC   NC347351   0.954  12.098   5.164
 3586POPC   PO447352   0.253  12.050   5.333
 3586POPC   GL147353   0.486  11.994   5.767
 3586POPC   GL247354   0.695  11.672   5.845
 3586POPC   C1A47355   0.345  12.095   6.207
 3586POPC   D2A47356   0.462  11.909   6.614
 3586POPC   C3A47357   0.751  12.171   6.842
 3586POPC   C4A47358   0.523  12.418   7.148
 3586POPC   C1B47359   0.341  11.597   6.159
 3586POPC   C2B47360   0.067  11.569   6.547
 3586POPC   C3B47361   0.096  11.711   6.967
 3586POPC   C4B47362   0.440  11.886   7.149
 3587POPC   NC347363  38.891  27.017   5.320
 3587POPC   PO447364  39.434  26.643   5.521
 3587POPC   GL147365  39.151  26.931   5.759
 3587POPC   GL247366  38.869  26.759   5.813
 3587POPC   C1A47367  39.069  27.166   6.152
 3587POPC   D2A47368  39.228  27.219   6.592
 3587POPC   C3A47369  39.040  27.029   6.974
 3587POPC   C4A47370  39.235  26.897   7.395
 3587POPC   C1B47371  39.116  26.648   6.174
 3587POPC   C2B47372  39.091  26.711   6.593
 3587POPC   C3B47373  39.234  26.531   7.002
 3587POPC   C4B47374  39.124  26.408   7.462
 3588POPC   NC347375  10.192  12.869   5.410
 3588POPC   PO447376  10.742  12.340   5.588
 3588POPC   GL147377  10.668  12.640   5.874
 3588POPC   GL247378  10.430  12.864   5.842
 3588POPC   C1A47379  10.660  12.773   6.284
 3588POPC   D2A47380  10.445  12.740   6.641
 3588POPC   C3A47381  10.719  12.801   6.998
 3588POPC   C4A47382  10.459  12.702   7.296
 3588POPC   C1B47383  10.211  13.015   6.189
 3588POPC   C2B47384  10.107  13.141   6.601
 3588POPC   C3B47385  10.194  13.061   7.023
 3588POPC   C4B47386  10.503  13.235   7.300
 3589POPC   NC347387   8.689  10.857   5.485
 3589POPC   PO447388   9.251  10.535   5.622
 3589POPC   GL147389   8.999  10.377   5.954
 3589POPC   GL247390   8.703  10.582   5.921
 3589POPC   C1A47391   8.908  10.341   6.379
 3589POPC   D2A47392   8.844  10.532   6.747
 3589POPC   C3A47393   9.045  10.350   7.128
 3589POPC   C4A47394   9.065  10.574   7.540
 3589POPC   C1B47395   8.629  10.792   6.315
 3589POPC   C2B47396   8.750  11.058   6.667
 3589POPC   C3B47397   9.049  11.082   7.015
 3589POPC   C4B47398   9.093  11.094   7.466
 3590POPC   NC347399   1.411  20.397   5.317
 3590POPC   PO447400   0.884  20.715   5.612
 3590POPC   GL147401   1.098  20.511   5.906
 3590POPC   GL247402   1.468  20.496   5.823
 3590POPC   C1A47403   1.002  20.505   6.320
 3590POPC   D2A47404   0.912  20.781   6.643
 3590POPC   C3A47405   0.922  20.598   7.041
 3590POPC   C4A47406   1.192  20.755   7.331
 3590POPC   C1B47407   1.470  20.249   6.213
 3590POPC   C2B47408   1.394  20.316   6.670
 3590POPC   C3B47409   1.434  20.148   7.105
 3590POPC   C4B47410   1.345  20.314   7.526
 3591POPC   NC347411  28.188  14.683   5.384
 3591POPC   PO447412  28.301  14.109   5.478
 3591POPC   GL147413  28.242  14.336   5.828
 3591POPC   GL247414  27.946  14.546   5.824
 3591POPC   C1A47415  28.392  14.237   6.261
 3591POPC   D2A47416  28.423  14.285   6.711
 3591POPC   C3A47417  28.251  14.644   6.889
 3591POPC   C4A47418  28.398  14.874   7.234
 3591POPC   C1B47419  27.876  14.261   6.176
 3591POPC   C2B47420  27.983  14.050   6.571
 3591POPC   C3B47421  27.863  14.305   6.909
 3591POPC   C4B47422  28.016  14.446   7.295
 3592POPC   NC347423  19.566   8.413   5.466
 3592POPC   PO447424  19.191   8.851   5.425
 3592POPC   GL147425  19.063   8.926   5.821
 3592POPC   GL247426  19.198   9.212   5.849
 3592POPC   C1A47427  18.967   8.718   6.167
 3592POPC   D2A47428  19.092   8.565   6.548
 3592POPC   C3A47429  19.052   8.828   6.903
 3592POPC   C4A47430  19.049   8.790   7.335
 3592POPC   C1B47431  19.328   9.126   6.234
 3592POPC   C2B47432  19.269   9.228   6.640
 3592POPC   C3B47433  19.471   9.113   6.988
 3592POPC   C4B47434  19.368   9.189   7.373
 3593POPC   NC347435  11.782  20.158   5.473
 3593POPC   PO447436  11.409  19.601   5.403
 3593POPC   GL147437  11.303  19.650   5.843
 3593POPC   GL247438  11.381  19.994   5.808
 3593POPC   C1A47439  11.268  19.666   6.321
 3593POPC   D2A47440  10.975  19.594   6.668
 3593POPC   C3A47441  11.095  19.630   7.104
 3593POPC   C4A47442  11.063  20.038   7.332
 3593POPC   C1B47443  10.990  20.022   6.055
 3593POPC   C2B47444  11.042  20.094   6.506
 3593POPC   C3B47445  11.389  19.937   6.778
 3593POPC   C4B47446  11.559  20.071   7.182
 3594POPC   NC347447  39.567  41.170   5.471
 3594POPC   PO447448  38.941  41.570   5.391
 3594POPC   GL147449  39.187  41.447   5.743
 3594POPC   GL247450  39.468  41.690   5.765
 3594POPC   C1A47451  39.127  41.256   6.154
 3594POPC   D2A47452  39.363  41.265   6.517
 3594POPC   C3A47453  39.324  41.384   6.908
 3594POPC   C4A47454  39.152  41.207   7.270
 3594POPC   C1B47455  39.263  41.749   6.168
 3594POPC   C2B47456  39.416  41.801   6.570
 3594POPC   C3B47457  39.485  41.971   6.963
 3594POPC   C4B47458  39.371  41.736   7.315
 3595POPC   NC347459  16.668   4.487   4.893
 3595POPC   PO447460  16.906   4.467   5.488
 3595POPC   GL147461  16.726   4.381   5.879
 3595POPC   GL247462  16.585   4.717   5.829
 3595POPC   C1A47463  16.719   4.136   6.285
 3595POPC   D2A47464  16.715   3.880   6.679
 3595POPC   C3A47465  16.770   4.178   7.028
 3595POPC   C4A47466  16.784   4.165   7.478
 3595POPC   C1B47467  16.798   4.711   6.237
 3595POPC   C2B47468  16.744   4.532   6.634
 3595POPC   C3B47469  16.597   4.677   7.020
 3595POPC   C4B47470  16.712   4.661   7.446
 3596POPC   NC347471  41.173   2.905   5.355
 3596POPC   PO447472  40.577   2.656   5.210
 3596POPC   GL147473  40.649   2.741   5.674
 3596POPC   GL247474  40.972   2.638   5.750
 3596POPC   C1A47475  40.488   2.901   6.113
 3596POPC   D2A47476  40.610   3.198   6.467
 3596POPC   C3A47477  40.698   3.076   6.900
 3596POPC   C4A47478  40.550   2.894   7.295
 3596POPC   C1B47479  40.800   2.489   6.139
 3596POPC   C2B47480  40.810   2.701   6.528
 3596POPC   C3B47481  40.720   2.553   6.934
 3596POPC   C4B47482  40.834   2.430   7.354
 3597POPC   NC347483  43.465   2.551   5.269
 3597POPC   PO447484  42.840   2.794   5.402
 3597POPC   GL147485  43.000   2.754   5.803
 3597POPC   GL247486  42.811   2.518   5.922
 3597POPC   C1A47487  43.223   2.901   6.167
 3597POPC   D2A47488  43.168   2.786   6.599
 3597POPC   C3A47489  43.336   3.045   6.912
 3597POPC   C4A47490  43.258   2.912   7.323
 3597POPC   C1B47491  43.147   2.394   6.244
 3597POPC   C2B47492  43.281   2.294   6.699
 3597POPC   C3B47493  43.237   2.419   7.134
 3597POPC   C4B47494  43.297   2.388   7.586
 3598POPC   NC347495  13.647  15.455   5.479
 3598POPC   PO447496  13.186  14.941   5.708
 3598POPC   GL147497  13.603  15.082   5.824
 3598POPC   GL247498  13.880  14.853   5.763
 3598POPC   C1A47499  13.755  15.223   6.221
 3598POPC   D2A47500  13.786  15.484   6.601
 3598POPC   C3A47501  13.849  15.325   6.994
 3598POPC   C4A47502  13.542  15.098   7.228
 3598POPC   C1B47503  13.675  14.708   6.150
 3598POPC   C2B47504  13.585  14.857   6.571
 3598POPC   C3B47505  13.806  14.754   6.946
 3598POPC   C4B47506  14.037  14.933   7.259
 3599POPC   NC347507  22.263  32.496   5.450
 3599POPC   PO447508  21.613  32.276   5.383
 3599POPC   GL147509  21.848  32.352   5.773
 3599POPC   GL247510  21.813  32.042   5.840
 3599POPC   C1A47511  22.047  32.300   6.234
 3599POPC   D2A47512  22.070  32.275   6.703
 3599POPC   C3A47513  22.254  32.562   6.961
 3599POPC   C4A47514  22.343  32.604   7.375
 3599POPC   C1B47515  22.084  31.795   6.073
 3599POPC   C2B47516  22.282  31.841   6.449
 3599POPC   C3B47517  22.247  31.822   6.865
 3599POPC   C4B47518  22.244  32.045   7.249
 3600POPC   NC347519  29.303  21.590   5.222
 3600POPC   PO447520  29.042  21.036   5.484
 3600POPC   GL147521  29.324  21.204   5.753
 3600POPC   GL247522  29.404  21.557   5.730
 3600POPC   C1A47523  29.271  21.232   6.202
 3600POPC   D2A47524  29.439  21.030   6.586
 3600POPC   C3A47525  29.185  21.156   6.971
 3600POPC   C4A47526  28.735  21.134   7.156
 3600POPC   C1B47527  29.177  21.779   6.060
 3600POPC   C2B47528  29.111  21.898   6.497
 3600POPC   C3B47529  29.233  21.692   6.885
 3600POPC   C4B47530  28.987  21.555   7.256
 3601POPC   NC347531  19.098  11.957   5.249
 3601POPC   PO447532  18.684  12.424   5.323
 3601POPC   GL147533  19.013  12.183   5.680
 3601POPC   GL247534  19.337  12.077   5.723
 3601POPC   C1A47535  19.011  12.083   6.115
 3601POPC   D2A47536  18.808  11.989   6.479
 3601POPC   C3A47537  18.945  12.051   6.904
 3601POPC   C4A47538  18.655  11.923   7.191
 3601POPC   C1B47539  19.423  12.377   6.090
 3601POPC   C2B47540  19.242  12.318   6.507
 3601POPC   C3B47541  19.450  12.161   6.843
 3601POPC   C4B47542  19.359  11.786   7.095
 3602POPC   NC347543   7.050  10.031   5.625
 3602POPC   PO447544   7.326   9.574   5.164
 3602POPC   GL147545   7.447   9.665   5.642
 3602POPC   GL247546   7.203   9.594   5.941
 3602POPC   C1A47547   7.657   9.744   6.069
 3602POPC   D2A47548   7.434   9.634   6.443
 3602POPC   C3A47549   7.611   9.561   6.849
 3602POPC   C4A47550   7.519   9.848   7.157
 3602POPC   C1B47551   6.920   9.526   6.300
 3602POPC   C2B47552   6.988   9.675   6.720
 3602POPC   C3B47553   7.011   9.841   7.118
 3602POPC   C4B47554   6.975   9.626   7.520
 3603POPC   NC347555  25.499   8.154   5.513
 3603POPC   PO447556  25.019   8.401   5.138
 3603POPC   GL147557  25.001   8.319   5.679
 3603POPC   GL247558  25.238   8.492   5.836
 3603POPC   C1A47559  25.004   8.086   6.099
 3603POPC   D2A47560  25.227   8.107   6.519
 3603POPC   C3A47561  25.176   8.405   6.834
 3603POPC   C4A47562  25.097   8.156   7.187
 3603POPC   C1B47563  25.207   8.535   6.243
 3603POPC   C2B47564  25.577   8.520   6.505
 3603POPC   C3B47565  25.705   8.456   6.920
 3603POPC   C4B47566  25.452   8.506   7.275
 3604POPC   NC347567  39.663  18.802   5.461
 3604POPC   PO447568  39.155  19.109   5.349
 3604POPC   GL147569  39.190  19.237   5.782
 3604POPC   GL247570  39.203  18.917   5.833
 3604POPC   C1A47571  39.104  19.190   6.272
 3604POPC   D2A47572  38.816  19.054   6.632
 3604POPC   C3A47573  38.901  19.091   7.096
 3604POPC   C4A47574  39.200  19.142   7.437
 3604POPC   C1B47575  39.503  18.865   6.142
 3604POPC   C2B47576  39.588  19.027   6.509
 3604POPC   C3B47577  39.374  19.057   6.891
 3604POPC   C4B47578  39.298  18.707   7.179
 3605POPC   NC347579   5.413  24.811   5.376
 3605POPC   PO447580   4.957  24.306   5.424
 3605POPC   GL147581   5.118  24.606   5.774
 3605POPC   GL247582   5.318  24.344   5.902
 3605POPC   C1A47583   5.249  24.786   6.226
 3605POPC   D2A47584   5.414  24.895   6.680
 3605POPC   C3A47585   5.210  24.755   7.091
 3605POPC   C4A47586   4.804  24.520   7.152
 3605POPC   C1B47587   4.983  24.362   6.231
 3605POPC   C2B47588   5.042  24.486   6.676
 3605POPC   C3B47589   5.256  24.251   7.021
 3605POPC   C4B47590   5.547  24.295   7.333
 3606POPC   NC347591   9.208  32.668   5.343
 3606POPC   PO447592   8.587  32.910   5.388
 3606POPC   GL147593   8.789  32.593   5.742
 3606POPC   GL247594   9.156  32.510   5.833
 3606POPC   C1A47595   8.828  32.390   6.182
 3606POPC   D2A47596   8.955  32.484   6.608
 3606POPC   C3A47597   8.948  32.246   6.995
 3606POPC   C4A47598   8.813  32.286   7.406
 3606POPC   C1B47599   9.342  32.475   6.234
 3606POPC   C2B47600   9.554  32.548   6.610
 3606POPC   C3B47601   9.411  32.482   6.989
 3606POPC   C4B47602   9.262  32.552   7.390
 3607POPC   NC347603  19.802  31.568   5.407
 3607POPC   PO447604  19.979  30.919   5.242
 3607POPC   GL147605  20.059  31.196   5.667
 3607POPC   GL247606  20.188  31.560   5.777
 3607POPC   C1A47607  19.854  31.356   6.087
 3607POPC   D2A47608  20.095  31.496   6.474
 3607POPC   C3A47609  19.852  31.447   6.858
 3607POPC   C4A47610  19.698  31.255   7.221
 3607POPC   C1B47611  19.996  31.844   6.090
 3607POPC   C2B47612  19.671  31.800   6.403
 3607POPC   C3B47613  19.636  31.901   6.826
 3607POPC   C4B47614  19.604  31.763   7.232
 3608POPC   NC347615   3.682  19.187   5.402
 3608POPC   PO447616   3.240  18.718   5.644
 3608POPC   GL147617   3.438  19.086   5.881
 3608POPC   GL247618   3.792  19.087   5.952
 3608POPC   C1A47619   3.466  19.237   6.336
 3608POPC   D2A47620   3.387  18.938   6.688
 3608POPC   C3A47621   3.558  18.997   7.091
 3608POPC   C4A47622   3.696  19.244   7.430
 3608POPC   C1B47623   3.838  18.882   6.393
 3608POPC   C2B47624   3.807  18.653   6.801
 3608POPC   C3B47625   3.980  18.714   7.240
 3608POPC   C4B47626   4.068  18.940   7.641
 3609POPC   NC347627  32.850  20.973   4.950
 3609POPC   PO447628  33.069  21.473   5.443
 3609POPC   GL147629  33.219  21.343   5.782
 3609POPC   GL247630  33.200  21.690   5.924
 3609POPC   C1A47631  33.107  21.252   6.183
 3609POPC   D2A47632  33.124  21.509   6.530
 3609POPC   C3A47633  33.176  21.312   6.922
 3609POPC   C4A47634  33.101  21.181   7.350
 3609POPC   C1B47635  32.787  21.657   6.162
 3609POPC   C2B47636  32.602  21.404   6.472
 3609POPC   C3B47637  32.664  21.416   6.891
 3609POPC   C4B47638  32.861  21.633   7.227
 3610POPC   NC347639  16.056   1.764   5.568
 3610POPC   PO447640  15.893   1.197   5.267
 3610POPC   GL147641  15.933   1.262   5.728
 3610POPC   GL247642  16.311   1.358   5.752
 3610POPC   C1A47643  15.682   1.308   6.154
 3610POPC   D2A47644  15.797   1.167   6.594
 3610POPC   C3A47645  15.633   1.423   6.930
 3610POPC   C4A47646  15.450   1.387   7.338
 3610POPC   C1B47647  16.184   1.301   6.187
 3610POPC   C2B47648  16.144   1.540   6.567
 3610POPC   C3B47649  16.156   1.388   6.983
 3610POPC   C4B47650  15.974   1.541   7.355
 3611POPC   NC347651  17.129   5.922   5.389
 3611POPC   PO447652  17.762   5.830   5.203
 3611POPC   GL147653  17.597   5.859   5.667
 3611POPC   GL247654  17.279   5.975   5.860
 3611POPC   C1A47655  17.705   5.927   6.112
 3611POPC   D2A47656  17.432   5.996   6.447
 3611POPC   C3A47657  17.496   6.149   6.836
 3611POPC   C4A47658  17.631   5.927   7.161
 3611POPC   C1B47659  17.255   5.639   6.142
 3611POPC   C2B47660  17.102   5.569   6.516
 3611POPC   C3B47661  17.273   5.663   6.904
 3611POPC   C4B47662  17.118   5.957   7.201
 3612POPC   NC347663  38.552  41.835   5.451
 3612POPC   PO447664  38.135  41.229   5.391
 3612POPC   GL147665  38.295  41.481   5.708
 3612POPC   GL247666  38.648  41.466   5.802
 3612POPC   C1A47667  38.233  41.560   6.125
 3612POPC   D2A47668  38.368  41.819   6.465
 3612POPC   C3A47669  38.469  41.519   6.772
 3612POPC   C4A47670  38.408  41.573   7.202
 3612POPC   C1B47671  38.755  41.598   6.195
 3612POPC   C2B47672  38.951  41.572   6.585
 3612POPC   C3B47673  38.888  41.575   7.042
 3612POPC   C4B47674  38.847  41.578   7.491
 3613POPC   NC347675  12.010  25.847   5.444
 3613POPC   PO447676  12.599  26.110   5.421
 3613POPC   GL147677  12.252  26.093   5.807
 3613POPC   GL247678  12.028  25.762   5.931
 3613POPC   C1A47679  11.988  26.166   6.221
 3613POPC   D2A47680  12.075  25.981   6.636
 3613POPC   C3A47681  12.029  26.233   6.983
 3613POPC   C4A47682  12.132  26.626   7.177
 3613POPC   C1B47683  12.361  25.813   6.226
 3613POPC   C2B47684  12.582  25.850   6.613
 3613POPC   C3B47685  12.431  25.913   7.030
 3613POPC   C4B47686  12.021  25.734   7.180
 3614POPC   NC347687  19.356   0.372   5.146
 3614POPC   PO447688  18.801   0.608   5.416
 3614POPC   GL147689  19.081   0.443   5.757
 3614POPC   GL247690  18.802   0.494   5.936
 3614POPC   C1A47691  19.210   0.546   6.238
 3614POPC   D2A47692  19.217   0.495   6.731
 3614POPC   C3A47693  19.114   0.806   7.071
 3614POPC   C4A47694  19.038   0.732   7.526
 3614POPC   C1B47695  18.638   0.116   6.164
 3614POPC   C2B47696  18.651  44.948   6.585
 3614POPC   C3B47697  18.756   0.040   7.018
 3614POPC   C4B47698  18.759   0.453   7.173
 3615POPC   NC347699  24.283  10.050   5.456
 3615POPC   PO447700  24.791   9.590   5.326
 3615POPC   GL147701  24.642   9.777   5.732
 3615POPC   GL247702  24.775  10.135   5.754
 3615POPC   C1A47703  24.491   9.620   6.142
 3615POPC   D2A47704  24.456   9.420   6.544
 3615POPC   C3A47705  24.644   9.647   6.888
 3615POPC   C4A47706  24.560   9.754   7.298
 3615POPC   C1B47707  24.494  10.142   6.130
 3615POPC   C2B47708  24.430   9.989   6.542
 3615POPC   C3B47709  24.305  10.047   6.955
 3615POPC   C4B47710  24.075   9.732   7.164
 3616POPC   NC347711  39.956  33.255   5.307
 3616POPC   PO447712  40.384  32.832   5.493
 3616POPC   GL147713  40.157  33.015   5.818
 3616POPC   GL247714  39.800  33.018   5.774
 3616POPC   C1A47715  40.091  33.176   6.244
 3616POPC   D2A47716  39.957  33.090   6.671
 3616POPC   C3A47717  40.286  33.159   6.969
 3616POPC   C4A47718  40.363  32.915   7.312
 3616POPC   C1B47719  39.599  33.026   6.187
 3616POPC   C2B47720  39.447  33.198   6.567
 3616POPC   C3B47721  39.548  33.257   6.990
 3616POPC   C4B47722  39.850  33.080   7.217
 3617POPC   NC347723   5.479   8.891   5.183
 3617POPC   PO447724   6.008   9.341   5.235
 3617POPC   GL147725   5.923   9.121   5.700
 3617POPC   GL247726   6.222   8.972   5.870
 3617POPC   C1A47727   5.774   8.853   6.065
 3617POPC   D2A47728   5.729   8.930   6.528
 3617POPC   C3A47729   5.981   8.709   6.821
 3617POPC   C4A47730   5.945   8.672   7.255
 3617POPC   C1B47731   6.079   9.207   6.246
 3617POPC   C2B47732   6.180   9.213   6.691
 3617POPC   C3B47733   6.000   9.165   7.114
 3617POPC   C4B47734   6.189   9.046   7.498
 3618POPC   NC347735  20.222  27.795   5.514
 3618POPC   PO447736  20.744  28.200   5.332
 3618POPC   GL147737  20.918  28.140   5.729
 3618POPC   GL247738  20.639  27.959   5.813
 3618POPC   C1A47739  20.853  28.294   6.171
 3618POPC   D2A47740  20.552  28.466   6.478
 3618POPC   C3A47741  20.638  28.683   6.879
 3618POPC   C4A47742  20.530  28.638   7.306
 3618POPC   C1B47743  20.335  28.136   6.132
 3618POPC   C2B47744  20.222  27.998   6.574
 3618POPC   C3B47745  20.238  27.875   7.042
 3618POPC   C4B47746  20.470  28.140   7.382
 3619POPC   NC347747  33.976  31.619   5.348
 3619POPC   PO447748  33.375  31.490   5.115
 3619POPC   GL147749  33.494  31.551   5.651
 3619POPC   GL247750  33.824  31.664   5.819
 3619POPC   C1A47751  33.586  31.392   6.165
 3619POPC   D2A47752  33.846  31.291   6.594
 3619POPC   C3A47753  33.722  31.290   7.072
 3619POPC   C4A47754  33.716  31.066   7.500
 3619POPC   C1B47755  34.165  31.791   6.101
 3619POPC   C2B47756  34.044  31.772   6.524
 3619POPC   C3B47757  34.136  31.638   6.940
 3619POPC   C4B47758  34.033  31.898   7.297
 3620POPC   NC347759  40.133  18.670   5.215
 3620POPC   PO447760  39.822  19.319   5.362
 3620POPC   GL147761  39.719  19.212   5.801
 3620POPC   GL247762  39.962  18.961   5.942
 3620POPC   C1A47763  39.835  19.401   6.208
 3620POPC   D2A47764  40.001  19.460   6.638
 3620POPC   C3A47765  39.909  19.075   6.897
 3620POPC   C4A47766  39.701  19.016   7.284
 3620POPC   C1B47767  40.087  18.991   6.402
 3620POPC   C2B47768  40.165  18.637   6.717
 3620POPC   C3B47769  40.254  18.717   7.123
 3620POPC   C4B47770  40.340  19.157   7.154
 3621POPC   NC347771  27.269   8.169   5.375
 3621POPC   PO447772  27.924   8.431   5.506
 3621POPC   GL147773  27.718   8.405   5.903
 3621POPC   GL247774  27.362   8.455   5.811
 3621POPC   C1A47775  27.687   8.359   6.374
 3621POPC   D2A47776  27.888   8.081   6.703
 3621POPC   C3A47777  27.864   8.235   7.118
 3621POPC   C4A47778  27.556   8.461   7.306
 3621POPC   C1B47779  27.338   8.073   6.063
 3621POPC   C2B47780  27.494   7.858   6.428
 3621POPC   C3B47781  27.410   7.900   6.855
 3621POPC   C4B47782  27.522   7.878   7.265
 3622POPC   NC347783  33.927  16.138   5.439
 3622POPC   PO447784  33.413  15.661   5.483
 3622POPC   GL147785  33.705  15.826   5.774
 3622POPC   GL247786  34.053  15.723   5.773
 3622POPC   C1A47787  33.724  16.094   6.105
 3622POPC   D2A47788  33.739  16.001   6.545
 3622POPC   C3A47789  33.643  16.246   6.925
 3622POPC   C4A47790  33.631  16.222   7.362
 3622POPC   C1B47791  34.257  15.641   6.157
 3622POPC   C2B47792  34.135  15.671   6.582
 3622POPC   C3B47793  33.905  15.768   6.972
 3622POPC   C4B47794  33.962  15.819   7.445
 3623POPC   NC347795  43.639   0.984   5.477
 3623POPC   PO447796  44.099   1.434   5.242
 3623POPC   GL147797  44.069   1.187   5.673
 3623POPC   GL247798  43.768   1.269   5.896
 3623POPC   C1A47799  44.112   0.999   6.109
 3623POPC   D2A47800  44.080   1.232   6.499
 3623POPC   C3A47801  44.029   1.081   6.916
 3623POPC   C4A47802  44.082   1.236   7.328
 3623POPC   C1B47803  43.610   1.461   6.261
 3623POPC   C2B47804  43.627   1.332   6.702
 3623POPC   C3B47805  43.616   1.333   7.143
 3623POPC   C4B47806  43.397   1.499   7.528
 3624POPC   NC347807   8.879   4.609   5.390
 3624POPC   PO447808   9.124   5.169   5.180
 3624POPC   GL147809   9.000   5.115   5.671
 3624POPC   GL247810   9.180   4.850   5.826
 3624POPC   C1A47811   8.948   5.133   6.174
 3624POPC   D2A47812   8.716   5.092   6.576
 3624POPC   C3A47813   8.946   5.155   6.963
 3624POPC   C4A47814   8.671   5.224   7.241
 3624POPC   C1B47815   9.388   4.873   6.225
 3624POPC   C2B47816   9.325   5.056   6.631
 3624POPC   C3B47817   9.339   4.839   7.039
 3624POPC   C4B47818   9.323   4.786   7.497
 3625POPC   NC347819  35.161  17.093   5.388
 3625POPC   PO447820  35.267  16.375   5.353
 3625POPC   GL147821  35.351  16.684   5.699
 3625POPC   GL247822  35.047  16.831   5.834
 3625POPC   C1A47823  35.425  16.661   6.170
 3625POPC   D2A47824  35.226  16.772   6.598
 3625POPC   C3A47825  35.439  16.622   6.953
 3625POPC   C4A47826  35.570  16.612   7.347
 3625POPC   C1B47827  34.918  16.608   6.227
 3625POPC   C2B47828  34.890  16.382   6.639
 3625POPC   C3B47829  34.954  16.548   7.066
 3625POPC   C4B47830  34.912  16.683   7.509
 3626POPC   NC347831  35.134   8.386   5.478
 3626POPC   PO447832  34.474   8.301   5.335
 3626POPC   GL147833  34.412   8.093   5.727
 3626POPC   GL247834  34.752   7.996   5.789
 3626POPC   C1A47835  34.370   8.147   6.163
 3626POPC   D2A47836  34.629   8.044   6.512
 3626POPC   C3A47837  34.560   8.230   6.918
 3626POPC   C4A47838  34.631   8.083   7.329
 3626POPC   C1B47839  34.883   8.304   6.110
 3626POPC   C2B47840  34.816   8.518   6.503
 3626POPC   C3B47841  35.010   8.470   6.865
 3626POPC   C4B47842  34.857   8.548   7.251
 3627POPC   NC347843   8.488  30.777   5.324
 3627POPC   PO447844   7.826  30.598   5.373
 3627POPC   GL147845   8.137  30.598   5.704
 3627POPC   GL247846   8.211  30.940   5.720
 3627POPC   C1A47847   8.149  30.710   6.163
 3627POPC   D2A47848   8.337  30.580   6.546
 3627POPC   C3A47849   8.137  30.669   6.912
 3627POPC   C4A47850   8.181  30.466   7.288
 3627POPC   C1B47851   8.375  31.192   6.079
 3627POPC   C2B47852   8.362  31.136   6.550
 3627POPC   C3B47853   8.466  31.194   6.997
 3627POPC   C4B47854   8.377  30.915   7.311
 3628POPC   NC347855   0.761  26.097   5.393
 3628POPC   PO447856   1.414  25.855   5.496
 3628POPC   GL147857   1.197  25.967   5.876
 3628POPC   GL247858   0.932  26.221   5.901
 3628POPC   C1A47859   1.284  26.069   6.310
 3628POPC   D2A47860   1.468  26.267   6.684
 3628POPC   C3A47861   1.419  26.122   7.119
 3628POPC   C4A47862   1.465  25.852   7.503
 3628POPC   C1B47863   0.789  25.799   6.146
 3628POPC   C2B47864   0.734  25.548   6.558
 3628POPC   C3B47865   0.820  25.730   6.975
 3628POPC   C4B47866   0.880  26.139   7.176
 3629POPC   NC347867   4.352  32.739   4.909
 3629POPC   PO447868   4.441  32.735   5.580
 3629POPC   GL147869   4.338  33.046   5.873
 3629POPC   GL247870   4.012  33.117   5.849
 3629POPC   C1A47871   4.269  33.176   6.287
 3629POPC   D2A47872   4.115  32.977   6.654
 3629POPC   C3A47873   4.387  33.043   6.985
 3629POPC   C4A47874   4.534  32.942   7.396
 3629POPC   C1B47875   3.778  33.019   6.232
 3629POPC   C2B47876   3.667  33.218   6.641
 3629POPC   C3B47877   3.921  33.316   6.997
 3629POPC   C4B47878   3.882  33.148   7.435
 3630POPC   NC347879  28.632  17.439   5.451
 3630POPC   PO447880  27.904  17.559   5.506
 3630POPC   GL147881  28.203  17.535   5.836
 3630POPC   GL247882  28.488  17.752   5.832
 3630POPC   C1A47883  28.372  17.320   6.223
 3630POPC   D2A47884  28.261  17.140   6.639
 3630POPC   C3A47885  28.449  17.261   7.051
 3630POPC   C4A47886  28.328  17.206   7.503
 3630POPC   C1B47887  28.219  17.866   6.201
 3630POPC   C2B47888  28.161  17.669   6.579
 3630POPC   C3B47889  28.282  17.775   6.971
 3630POPC   C4B47890  28.454  17.675   7.359
 3631POPC   NC347891  13.371  41.162   5.498
 3631POPC   PO447892  13.671  40.548   5.321
 3631POPC   GL147893  13.703  40.551   5.782
 3631POPC   GL247894  13.447  40.765   5.795
 3631POPC   C1A47895  13.748  40.676   6.254
 3631POPC   D2A47896  13.875  40.910   6.681
 3631POPC   C3A47897  13.781  40.737   7.106
 3631POPC   C4A47898  13.793  40.738   7.548
 3631POPC   C1B47899  13.317  40.932   6.168
 3631POPC   C2B47900  13.388  40.807   6.590
 3631POPC   C3B47901  13.359  40.986   6.976
 3631POPC   C4B47902  13.330  40.820   7.363
 3632POPC   NC347903  36.597   5.249   5.515
 3632POPC   PO447904  35.963   5.176   5.304
 3632POPC   GL147905  36.116   5.225   5.715
 3632POPC   GL247906  36.335   4.984   5.876
 3632POPC   C1A47907  35.956   5.262   6.145
 3632POPC   D2A47908  35.902   4.924   6.447
 3632POPC   C3A47909  36.013   4.972   6.887
 3632POPC   C4A47910  35.759   4.954   7.251
 3632POPC   C1B47911  36.451   5.340   6.195
 3632POPC   C2B47912  36.268   5.558   6.582
 3632POPC   C3B47913  36.171   5.463   7.015
 3632POPC   C4B47914  36.304   5.235   7.342
 3633POPC   NC347915  21.928  11.098   5.337
 3633POPC   PO447916  22.395  11.530   5.493
 3633POPC   GL147917  22.171  11.280   5.783
 3633POPC   GL247918  21.824  11.268   5.792
 3633POPC   C1A47919  22.133  11.080   6.165
 3633POPC   D2A47920  22.150  10.919   6.543
 3633POPC   C3A47921  22.284  11.117   6.909
 3633POPC   C4A47922  22.123  11.056   7.321
 3633POPC   C1B47923  21.731  11.384   6.158
 3633POPC   C2B47924  21.900  11.359   6.564
 3633POPC   C3B47925  21.809  11.306   6.988
 3633POPC   C4B47926  21.596  11.321   7.393
 3634POPC   NC347927  10.901  40.626   5.310
 3634POPC   PO447928  11.495  40.660   5.512
 3634POPC   GL147929  11.159  40.827   5.804
 3634POPC   GL247930  11.379  40.775   6.105
 3634POPC   C1A47931  10.885  40.895   6.213
 3634POPC   D2A47932  11.031  41.066   6.625
 3634POPC   C3A47933  10.978  40.870   7.062
 3634POPC   C4A47934  11.128  40.780   7.517
 3634POPC   C1B47935  11.647  41.072   6.373
 3634POPC   C2B47936  11.658  41.179   6.807
 3634POPC   C3B47937  11.483  41.053   7.218
 3634POPC   C4B47938  11.377  41.206   7.606
 3635POPC   NC347939   1.322  24.554   5.395
 3635POPC   PO447940   0.767  24.788   5.145
 3635POPC   GL147941   0.899  24.519   5.657
 3635POPC   GL247942   1.207  24.731   5.870
 3635POPC   C1A47943   1.031  24.306   6.066
 3635POPC   D2A47944   0.872  24.304   6.490
 3635POPC   C3A47945   1.013  24.595   6.807
 3635POPC   C4A47946   1.047  24.502   7.216
 3635POPC   C1B47947   1.172  24.716   6.331
 3635POPC   C2B47948   1.376  24.332   6.552
 3635POPC   C3B47949   1.483  24.350   6.963
 3635POPC   C4B47950   1.420  24.819   7.094
 3636POPC   NC347951  11.459  17.220   5.489
 3636POPC   PO447952  11.632  16.582   5.367
 3636POPC   GL147953  11.439  16.664   5.775
 3636POPC   GL247954  11.086  16.550   5.833
 3636POPC   C1A47955  11.488  16.810   6.227
 3636POPC   D2A47956  11.305  16.830   6.665
 3636POPC   C3A47957  11.512  16.654   7.034
 3636POPC   C4A47958  11.895  16.472   7.164
 3636POPC   C1B47959  11.071  16.514   6.283
 3636POPC   C2B47960  11.009  16.393   6.706
 3636POPC   C3B47961  11.071  16.404   7.170
 3636POPC   C4B47962  11.140  16.280   7.623
 3637POPC   NC347963  19.088  35.901   5.284
 3637POPC   PO447964  19.052  35.226   5.440
 3637POPC   GL147965  19.225  35.200   5.830
 3637POPC   GL247966  18.883  35.101   5.978
 3637POPC   C1A47967  19.216  35.456   6.208
 3637POPC   D2A47968  19.019  35.352   6.599
 3637POPC   C3A47969  19.256  35.377   6.972
 3637POPC   C4A47970  19.441  35.589   7.321
 3637POPC   C1B47971  19.178  34.925   6.262
 3637POPC   C2B47972  19.351  34.905   6.650
 3637POPC   C3B47973  19.246  34.889   7.066
 3637POPC   C4B47974  19.228  35.144   7.465
 3638POPC   NC347975   5.310  30.113   5.366
 3638POPC   PO447976   4.689  30.277   5.406
 3638POPC   GL147977   4.875  30.098   5.771
 3638POPC   GL247978   5.150  30.326   5.797
 3638POPC   C1A47979   5.008  29.828   6.160
 3638POPC   D2A47980   4.880  29.692   6.588
 3638POPC   C3A47981   5.205  29.563   6.851
 3638POPC   C4A47982   5.390  29.721   7.233
 3638POPC   C1B47983   4.983  30.325   6.215
 3638POPC   C2B47984   5.176  30.103   6.591
 3638POPC   C3B47985   5.044  30.041   7.014
 3638POPC   C4B47986   4.738  30.339   7.209
 3639POPC   NC347987  34.889  16.269   5.636
 3639POPC   PO447988  34.730  16.828   5.288
 3639POPC   GL147989  34.581  17.003   5.687
 3639POPC   GL247990  34.558  16.643   5.783
 3639POPC   C1A47991  34.666  17.039   6.149
 3639POPC   D2A47992  34.894  17.165   6.543
 3639POPC   C3A47993  34.744  17.026   6.936
 3639POPC   C4A47994  34.824  17.181   7.334
 3639POPC   C1B47995  34.417  16.562   6.187
 3639POPC   C2B47996  34.519  16.738   6.573
 3639POPC   C3B47997  34.427  16.623   6.998
 3639POPC   C4B47998  34.560  16.349   7.315
 3640POPC   NC347999  39.539  33.748   5.358
 3640POPC   PO448000  38.979  34.122   5.585
 3640POPC   GL148001  39.113  33.761   5.832
 3640POPC   GL248002  38.797  33.823   5.976
 3640POPC   C1A48003  39.090  33.559   6.269
 3640POPC   D2A48004  39.275  33.728   6.620
 3640POPC   C3A48005  39.069  33.749   6.994
 3640POPC   C4A48006  39.379  33.670   7.260
 3640POPC   C1B48007  39.062  34.105   6.278
 3640POPC   C2B48008  39.053  34.252   6.738
 3640POPC   C3B48009  39.018  34.228   7.203
 3640POPC   C4B48010  39.043  33.915   7.537
 3641POPC   NC348011   7.193  39.334   5.447
 3641POPC   PO448012   6.527  39.125   5.315
 3641POPC   GL148013   6.741  39.261   5.693
 3641POPC   GL248014   6.964  38.962   5.724
 3641POPC   C1A48015   6.703  39.458   6.100
 3641POPC   D2A48016   6.634  39.311   6.504
 3641POPC   C3A48017   6.597  39.558   6.869
 3641POPC   C4A48018   6.573  39.370   7.264
 3641POPC   C1B48019   6.813  38.950   6.153
 3641POPC   C2B48020   6.691  38.809   6.586
 3641POPC   C3B48021   6.875  39.091   6.912
 3641POPC   C4B48022   7.011  39.120   7.315
 3642POPC   NC348023  34.867  13.528   5.629
 3642POPC   PO448024  35.460  13.856   5.403
 3642POPC   GL148025  35.392  13.560   5.745
 3642POPC   GL248026  35.245  13.846   5.873
 3642POPC   C1A48027  35.437  13.404   6.194
 3642POPC   D2A48028  35.704  13.420   6.625
 3642POPC   C3A48029  35.557  13.261   7.049
 3642POPC   C4A48030  35.176  13.348   7.291
 3642POPC   C1B48031  35.502  13.955   6.159
 3642POPC   C2B48032  35.334  13.782   6.529
 3642POPC   C3B48033  35.274  13.675   6.936
 3642POPC   C4B48034  35.398  13.940   7.343
 3643POPC   NC348035  24.786  19.703   5.364
 3643POPC   PO448036  24.250  20.134   5.473
 3643POPC   GL148037  24.590  19.995   5.759
 3643POPC   GL248038  24.960  19.880   5.801
 3643POPC   C1A48039  24.592  20.017   6.179
 3643POPC   D2A48040  24.352  19.960   6.546
 3643POPC   C3A48041  24.363  19.573   6.765
 3643POPC   C4A48042  24.473  19.652   7.167
 3643POPC   C1B48043  25.021  19.770   6.270
 3643POPC   C2B48044  24.834  19.812   6.680
 3643POPC   C3B48045  24.973  19.780   7.112
 3643POPC   C4B48046  24.789  20.066   7.368
 3644POPC   NC348047  10.196  18.453   5.509
 3644POPC   PO448048  10.687  18.072   5.380
 3644POPC   GL148049  10.664  18.313   5.768
 3644POPC   GL248050  10.639  18.657   5.680
 3644POPC   C1A48051  10.469  18.203   6.190
 3644POPC   D2A48052  10.312  18.118   6.628
 3644POPC   C3A48053  10.549  18.303   6.942
 3644POPC   C4A48054  10.631  18.264   7.346
 3644POPC   C1B48055  10.474  18.711   6.097
 3644POPC   C2B48056  10.590  18.656   6.523
 3644POPC   C3B48057  10.252  18.686   6.792
 3644POPC   C4B48058  10.159  18.555   7.204
 3645POPC   NC348059  31.668   2.339   5.422
 3645POPC   PO448060  31.196   1.763   5.465
 3645POPC   GL148061  31.498   1.942   5.753
 3645POPC   GL248062  31.473   2.287   5.877
 3645POPC   C1A48063  31.606   1.866   6.192
 3645POPC   D2A48064  31.617   2.070   6.600
 3645POPC   C3A48065  31.454   2.051   7.043
 3645POPC   C4A48066  31.371   2.242   7.482
 3645POPC   C1B48067  31.784   2.397   6.189
 3645POPC   C2B48068  31.987   2.415   6.591
 3645POPC   C3B48069  31.986   2.145   6.955
 3645POPC   C4B48070  31.853   2.272   7.353
 3646POPC   NC348071  35.397   6.298   5.405
 3646POPC   PO448072  35.420   5.638   5.403
 3646POPC   GL148073  35.399   5.941   5.790
 3646POPC   GL248074  35.627   6.271   5.845
 3646POPC   C1A48075  35.229   5.800   6.185
 3646POPC   D2A48076  35.471   5.774   6.529
 3646POPC   C3A48077  35.285   5.578   6.850
 3646POPC   C4A48078  35.397   5.835   7.193
 3646POPC   C1B48079  35.390   6.274   6.229
 3646POPC   C2B48080  35.494   6.286   6.624
 3646POPC   C3B48081  35.696   6.293   6.984
 3646POPC   C4B48082  35.612   6.243   7.392
 3647POPC   NC348083   7.258   1.843   5.291
 3647POPC   PO448084   7.765   2.284   5.478
 3647POPC   GL148085   7.451   2.063   5.748
 3647POPC   GL248086   7.122   2.196   5.638
 3647POPC   C1A48087   7.439   1.810   6.170
 3647POPC   D2A48088   7.640   1.742   6.597
 3647POPC   C3A48089   7.424   1.955   6.919
 3647POPC   C4A48090   7.426   2.194   7.271
 3647POPC   C1B48091   7.090   2.188   6.086
 3647POPC   C2B48092   7.234   2.190   6.494
 3647POPC   C3B48093   7.003   2.219   6.860
 3647POPC   C4B48094   6.902   2.162   7.266
 3648POPC   NC348095  12.229   8.630   5.173
 3648POPC   PO448096  11.863   9.091   5.532
 3648POPC   GL148097  11.935   9.005   5.906
 3648POPC   GL248098  12.253   9.067   5.899
 3648POPC   C1A48099  11.944   8.839   6.278
 3648POPC   D2A48100  11.667   8.942   6.565
 3648POPC   C3A48101  11.799   8.892   6.935
 3648POPC   C4A48102  12.039   8.581   7.077
 3648POPC   C1B48103  12.368   9.118   6.334
 3648POPC   C2B48104  12.268   8.839   6.677
 3648POPC   C3B48105  12.262   9.047   7.078
 3648POPC   C4B48106  12.335   9.290   7.448
 3649POPC   NC348107   4.497  10.723   5.504
 3649POPC   PO448108   4.091  10.251   5.406
 3649POPC   GL148109   4.306  10.339   5.781
 3649POPC   GL248110   4.120  10.657   5.870
 3649POPC   C1A48111   4.399  10.410   6.205
 3649POPC   D2A48112   4.212  10.451   6.596
 3649POPC   C3A48113   4.537  10.470   6.909
 3649POPC   C4A48114   4.651  10.286   7.342
 3649POPC   C1B48115   4.011  10.872   6.270
 3649POPC   C2B48116   3.880  10.845   6.702
 3649POPC   C3B48117   4.076  11.030   7.044
 3649POPC   C4B48118   4.238  10.663   7.253
 3650POPC   NC348119  31.076   6.360   5.420
 3650POPC   PO448120  31.598   5.831   5.463
 3650POPC   GL148121  31.598   5.974   5.848
 3650POPC   GL248122  31.347   6.218   5.824
 3650POPC   C1A48123  31.675   5.816   6.239
 3650POPC   D2A48124  31.891   5.766   6.599
 3650POPC   C3A48125  31.673   5.865   6.918
 3650POPC   C4A48126  31.798   6.000   7.268
 3650POPC   C1B48127  31.310   6.162   6.264
 3650POPC   C2B48128  31.225   5.911   6.664
 3650POPC   C3B48129  31.225   6.017   7.142
 3650POPC   C4B48130  30.997   6.167   7.542
 3651POPC   NC348131  36.024  10.393   5.508
 3651POPC   PO448132  36.548  10.783   5.516
 3651POPC   GL148133  36.333  10.638   5.853
 3651POPC   GL248134  36.478  10.330   5.812
 3651POPC   C1A48135  36.064  10.409   6.177
 3651POPC   D2A48136  35.919  10.508   6.592
 3651POPC   C3A48137  36.045  10.285   6.972
 3651POPC   C4A48138  36.075  10.515   7.346
 3651POPC   C1B48139  36.578  10.412   6.273
 3651POPC   C2B48140  36.451  10.433   6.722
 3651POPC   C3B48141  36.522  10.659   7.153
 3651POPC   C4B48142  36.508  10.559   7.644
 3652POPC   NC348143  16.536  36.061   5.216
 3652POPC   PO448144  17.073  35.739   5.431
 3652POPC   GL148145  17.017  36.003   5.806
 3652POPC   GL248146  16.778  36.248   5.714
 3652POPC   C1A48147  16.824  35.938   6.176
 3652POPC   D2A48148  16.818  36.195   6.516
 3652POPC   C3A48149  16.785  36.006   6.940
 3652POPC   C4A48150  17.017  35.811   7.274
 3652POPC   C1B48151  16.501  36.344   6.073
 3652POPC   C2B48152  16.379  36.445   6.493
 3652POPC   C3B48153  16.624  36.491   6.873
 3652POPC   C4B48154  16.551  36.575   7.250
 3653POPC   NC348155  11.588  11.004   5.421
 3653POPC   PO448156  11.259  10.385   5.443
 3653POPC   GL148157  11.274  10.556   5.862
 3653POPC   GL248158  11.411  10.867   5.859
 3653POPC   C1A48159  11.519  10.567   6.259
 3653POPC   D2A48160  11.688  10.260   6.577
 3653POPC   C3A48161  11.435  10.261   6.947
 3653POPC   C4A48162  11.281  10.584   7.231
 3653POPC   C1B48163  11.198  10.997   6.207
 3653POPC   C2B48164  11.212  10.844   6.626
 3653POPC   C3B48165  11.126  11.020   7.009
 3653POPC   C4B48166  10.768  10.972   7.263
 3654POPC   NC348167  14.958  12.706   5.493
 3654POPC   PO448168  15.525  12.965   5.241
 3654POPC   GL148169  15.474  12.791   5.637
 3654POPC   GL248170  15.410  13.088   5.802
 3654POPC   C1A48171  15.547  12.617   6.048
 3654POPC   D2A48172  15.354  12.593   6.451
 3654POPC   C3A48173  15.187  12.607   6.868
 3654POPC   C4A48174  15.325  12.738   7.271
 3654POPC   C1B48175  15.115  12.908   6.115
 3654POPC   C2B48176  15.059  13.006   6.546
 3654POPC   C3B48177  15.174  13.132   6.970
 3654POPC   C4B48178  14.867  13.227   7.289
 3655POPC   NC348179  43.450   0.224   5.298
 3655POPC   PO448180  43.982   0.638   5.378
 3655POPC   GL148181  43.834   0.420   5.757
 3655POPC   GL248182  43.477   0.287   5.830
 3655POPC   C1A48183  43.961   0.502   6.200
 3655POPC   D2A48184  44.199   0.712   6.540
 3655POPC   C3A48185  44.053   0.556   6.919
 3655POPC   C4A48186  44.071   0.735   7.325
 3655POPC   C1B48187  43.433   0.504   6.252
 3655POPC   C2B48188  43.637   0.800   6.592
 3655POPC   C3B48189  43.634   0.807   7.066
 3655POPC   C4B48190  43.636   0.501   7.429
 3656POPC   NC348191  16.498  41.638   5.512
 3656POPC   PO448192  16.894  41.282   5.089
 3656POPC   GL148193  17.004  41.505   5.591
 3656POPC   GL248194  16.891  41.841   5.740
 3656POPC   C1A48195  17.018  41.504   6.110
 3656POPC   D2A48196  17.048  41.367   6.577
 3656POPC   C3A48197  16.891  41.588   6.934
 3656POPC   C4A48198  16.534  41.669   7.155
 3656POPC   C1B48199  16.628  41.831   6.174
 3656POPC   C2B48200  16.560  41.830   6.647
 3656POPC   C3B48201  16.206  41.973   6.878
 3656POPC   C4B48202  16.057  42.011   7.252
 3657POPC   NC348203  35.045  33.954   5.248
 3657POPC   PO448204  35.611  33.697   5.553
 3657POPC   GL148205  35.385  33.880   5.878
 3657POPC   GL248206  35.463  33.573   6.061
 3657POPC   C1A48207  35.128  33.882   6.261
 3657POPC   D2A48208  35.388  33.772   6.607
 3657POPC   C3A48209  35.260  33.726   7.026
 3657POPC   C4A48210  34.977  33.993   7.269
 3657POPC   C1B48211  35.791  33.551   6.329
 3657POPC   C2B48212  35.799  33.511   6.764
 3657POPC   C3B48213  35.762  33.700   7.161
 3657POPC   C4B48214  35.719  33.470   7.591
 3658POPC   NC348215  28.977   0.257   5.400
 3658POPC   PO448216  29.433   0.699   5.607
 3658POPC   GL148217  29.242   0.389   5.822
 3658POPC   GL248218  28.920   0.584   5.810
 3658POPC   C1A48219  29.245   0.345   6.244
 3658POPC   D2A48220  29.287   0.142   6.612
 3658POPC   C3A48221  29.275   0.383   6.976
 3658POPC   C4A48222  29.082   0.299   7.361
 3658POPC   C1B48223  28.810   0.611   6.260
 3658POPC   C2B48224  28.893   0.582   6.707
 3658POPC   C3B48225  28.947   0.749   7.149
 3658POPC   C4B48226  28.779   0.630   7.587
 3659POPC   NC348227  18.080  18.334   5.519
 3659POPC   PO448228  18.700  18.041   5.490
 3659POPC   GL148229  18.448  18.148   5.818
 3659POPC   GL248230  18.166  17.936   5.846
 3659POPC   C1A48231  18.379  18.396   6.157
 3659POPC   D2A48232  18.177  18.501   6.537
 3659POPC   C3A48233  18.417  18.469   6.901
 3659POPC   C4A48234  18.528  18.353   7.298
 3659POPC   C1B48235  17.978  18.076   6.269
 3659POPC   C2B48236  17.861  18.158   6.739
 3659POPC   C3B48237  17.954  18.391   7.141
 3659POPC   C4B48238  17.893  18.449   7.616
 3660POPC   NC348239  37.084  30.585   5.358
 3660POPC   PO448240  36.416  30.553   5.507
 3660POPC   GL148241  36.649  30.799   5.836
 3660POPC   GL248242  36.988  30.648   5.846
 3660POPC   C1A48243  36.878  30.990   6.219
 3660POPC   D2A48244  36.899  31.182   6.646
 3660POPC   C3A48245  36.645  31.001   6.983
 3660POPC   C4A48246  36.799  30.869   7.393
 3660POPC   C1B48247  36.778  30.477   6.219
 3660POPC   C2B48248  36.792  30.677   6.614
 3660POPC   C3B48249  37.005  30.625   6.984
 3660POPC   C4B48250  36.978  30.401   7.383
 3661POPC   NC348251  21.554  29.367   5.230
 3661POPC   PO448252  21.012  28.990   5.383
 3661POPC   GL148253  21.378  29.090   5.717
 3661POPC   GL248254  21.596  29.380   5.738
 3661POPC   C1A48255  21.579  29.015   6.140
 3661POPC   D2A48256  21.576  28.774   6.524
 3661POPC   C3A48257  21.557  29.004   6.929
 3661POPC   C4A48258  21.357  29.012   7.361
 3661POPC   C1B48259  21.821  29.456   6.118
 3661POPC   C2B48260  21.675  29.368   6.520
 3661POPC   C3B48261  21.841  29.424   6.917
 3661POPC   C4B48262  21.747  29.349   7.330
 3662POPC   NC348263   6.806   2.478   4.986
 3662POPC   PO448264   6.362   2.752   5.394
 3662POPC   GL148265   6.358   2.759   5.812
 3662POPC   GL248266   6.315   3.093   5.867
 3662POPC   C1A48267   6.609   2.642   6.150
 3662POPC   D2A48268   6.668   2.783   6.542
 3662POPC   C3A48269   6.617   2.539   6.881
 3662POPC   C4A48270   6.639   2.630   7.296
 3662POPC   C1B48271   6.213   2.989   6.292
 3662POPC   C2B48272   6.255   3.005   6.735
 3662POPC   C3B48273   6.264   2.986   7.161
 3662POPC   C4B48274   6.375   2.965   7.571
 3663POPC   NC348275   9.206  19.767   5.490
 3663POPC   PO448276   8.711  20.097   5.409
 3663POPC   GL148277   8.933  19.978   5.851
 3663POPC   GL248278   9.050  19.625   5.961
 3663POPC   C1A48279   8.840  19.925   6.307
 3663POPC   D2A48280   8.567  20.095   6.643
 3663POPC   C3A48281   8.712  19.931   7.063
 3663POPC   C4A48282   9.073  19.870   7.311
 3663POPC   C1B48283   9.170  19.536   6.420
 3663POPC   C2B48284   9.107  19.576   6.882
 3663POPC   C3B48285   9.052  19.367   7.267
 3663POPC   C4B48286   8.963  18.986   7.489
 3664POPC   NC348287  30.201  28.634   5.425
 3664POPC   PO448288  29.565  28.355   5.424
 3664POPC   GL148289  29.847  28.411   5.755
 3664POPC   GL248290  29.765  28.724   5.807
 3664POPC   C1A48291  30.102  28.499   6.132
 3664POPC   D2A48292  30.063  28.634   6.554
 3664POPC   C3A48293  30.122  28.362   6.883
 3664POPC   C4A48294  30.192  28.490   7.278
 3664POPC   C1B48295  29.708  28.931   6.217
 3664POPC   C2B48296  29.581  28.791   6.644
 3664POPC   C3B48297  29.694  28.620   7.023
 3664POPC   C4B48298  29.712  28.822   7.404
 3665POPC   NC348299  15.100  36.477   5.453
 3665POPC   PO448300  14.880  37.106   5.405
 3665POPC   GL148301  15.032  37.023   5.813
 3665POPC   GL248302  15.347  36.876   5.835
 3665POPC   C1A48303  14.967  36.829   6.217
 3665POPC   D2A48304  14.749  36.672   6.573
 3665POPC   C3A48305  14.957  36.867   6.904
 3665POPC   C4A48306  15.263  37.135   7.188
 3665POPC   C1B48307  15.501  36.647   6.224
 3665POPC   C2B48308  15.310  36.530   6.633
 3665POPC   C3B48309  15.352  36.630   7.082
 3665POPC   C4B48310  15.029  36.742   7.431
 3666POPC   NC348311  15.224   4.022   5.497
 3666POPC   PO448312  15.019   3.387   5.453
 3666POPC   GL148313  15.350   3.437   5.779
 3666POPC   GL248314  15.179   3.691   5.891
 3666POPC   C1A48315  15.585   3.244   6.157
 3666POPC   D2A48316  15.658   3.113   6.614
 3666POPC   C3A48317  15.702   3.491   6.894
 3666POPC   C4A48318  15.428   3.747   7.171
 3666POPC   C1B48319  14.980   3.686   6.280
 3666POPC   C2B48320  15.084   3.764   6.709
 3666POPC   C3B48321  14.845   3.763   7.059
 3666POPC   C4B48322  14.559   3.615   7.335
 3667POPC   NC348323  12.405  29.056   5.568
 3667POPC   PO448324  13.000  28.995   5.372
 3667POPC   GL148325  12.860  29.252   5.747
 3667POPC   GL248326  12.576  29.482   5.805
 3667POPC   C1A48327  12.682  29.116   6.149
 3667POPC   D2A48328  12.813  29.204   6.523
 3667POPC   C3A48329  12.799  29.030   6.897
 3667POPC   C4A48330  13.077  29.146   7.220
 3667POPC   C1B48331  12.475  29.617   6.213
 3667POPC   C2B48332  12.414  29.494   6.645
 3667POPC   C3B48333  12.601  29.501   7.063
 3667POPC   C4B48334  12.317  29.468   7.432
 3668POPC   NC348335  40.223  43.478   5.230
 3668POPC   PO448336  39.901  43.796   5.747
 3668POPC   GL148337  39.994  43.509   6.015
 3668POPC   GL248338  40.276  43.397   5.764
 3668POPC   C1A48339  39.925  43.692   6.440
 3668POPC   D2A48340  39.999  44.151   6.537
 3668POPC   C3A48341  39.955  44.202   6.973
 3668POPC   C4A48342  39.823  43.774   7.053
 3668POPC   C1B48343  40.465  43.330   6.179
 3668POPC   C2B48344  40.326  43.405   6.608
 3668POPC   C3B48345  40.271  43.802   6.829
 3668POPC   C4B48346  40.384  43.931   7.269
 3669POPC   NC348347  23.540  40.656   4.999
 3669POPC   PO448348  23.776  41.234   5.259
 3669POPC   GL148349  23.897  40.988   5.699
 3669POPC   GL248350  23.722  41.138   5.966
 3669POPC   C1A48351  24.016  40.735   6.116
 3669POPC   D2A48352  23.809  40.660   6.542
 3669POPC   C3A48353  23.629  40.755   6.975
 3669POPC   C4A48354  23.846  40.727   7.382
 3669POPC   C1B48355  23.919  41.204   6.361
 3669POPC   C2B48356  23.842  41.323   6.780
 3669POPC   C3B48357  23.760  41.195   7.196
 3669POPC   C4B48358  23.404  41.074   7.442
 3670POPC   NC348359  38.662  14.670   5.285
 3670POPC   PO448360  38.081  14.443   5.398
 3670POPC   GL148361  38.370  14.317   5.751
 3670POPC   GL248362  38.691  14.494   5.780
 3670POPC   C1A48363  38.495  14.183   6.172
 3670POPC   D2A48364  38.251  14.008   6.528
 3670POPC   C3A48365  38.367  14.240   6.923
 3670POPC   C4A48366  38.218  14.253   7.339
 3670POPC   C1B48367  38.789  14.634   6.173
 3670POPC   C2B48368  38.647  14.507   6.565
 3670POPC   C3B48369  38.705  14.699   6.948
 3670POPC   C4B48370  38.764  14.643   7.395
 3671POPC   NC348371  13.000  17.071   5.582
 3671POPC   PO448372  13.248  16.462   5.528
 3671POPC   GL148373  12.851  16.597   5.775
 3671POPC   GL248374  12.553  16.839   5.657
 3671POPC   C1A48375  12.928  16.760   6.195
 3671POPC   D2A48376  12.960  16.571   6.583
 3671POPC   C3A48377  12.811  16.704   6.945
 3671POPC   C4A48378  12.923  16.589   7.328
 3671POPC   C1B48379  12.474  16.931   6.064
 3671POPC   C2B48380  12.513  16.930   6.547
 3671POPC   C3B48381  12.624  17.163   6.974
 3671POPC   C4B48382  13.029  17.080   7.230
 3672POPC   NC348383  16.094  34.815   5.507
 3672POPC   PO448384  16.277  34.188   5.292
 3672POPC   GL148385  16.163  34.239   5.764
 3672POPC   GL248386  15.926  34.472   5.834
 3672POPC   C1A48387  16.186  34.410   6.242
 3672POPC   D2A48388  15.991  34.307   6.654
 3672POPC   C3A48389  15.685  34.507   6.925
 3672POPC   C4A48390  15.957  34.340   7.213
 3672POPC   C1B48391  15.818  34.793   6.136
 3672POPC   C2B48392  15.905  34.812   6.569
 3672POPC   C3B48393  16.172  34.727   6.913
 3672POPC   C4B48394  16.228  34.940   7.302
 3673POPC   NC348395  28.846  41.312   5.369
 3673POPC   PO448396  29.452  41.644   5.397
 3673POPC   GL148397  29.130  41.633   5.705
 3673POPC   GL248398  29.019  41.314   5.837
 3673POPC   C1A48399  29.195  41.722   6.128
 3673POPC   D2A48400  29.216  41.611   6.530
 3673POPC   C3A48401  29.196  41.842   6.875
 3673POPC   C4A48402  29.049  41.838   7.270
 3673POPC   C1B48403  29.119  41.187   6.232
 3673POPC   C2B48404  29.221  41.124   6.644
 3673POPC   C3B48405  29.073  41.333   7.017
 3673POPC   C4B48406  28.816  41.394   7.402
 3674POPC   NC348407  43.314  20.857   5.420
 3674POPC   PO448408  43.183  20.190   5.499
 3674POPC   GL148409  43.123  20.381   5.865
 3674POPC   GL248410  42.912  20.665   5.741
 3674POPC   C1A48411  43.051  20.376   6.320
 3674POPC   D2A48412  43.023  20.115   6.681
 3674POPC   C3A48413  43.092  20.390   7.003
 3674POPC   C4A48414  42.761  20.519   7.220
 3674POPC   C1B48415  43.130  20.831   6.108
 3674POPC   C2B48416  43.282  20.798   6.560
 3674POPC   C3B48417  43.270  20.965   6.979
 3674POPC   C4B48418  43.029  20.934   7.331
 3675POPC   NC348419  11.926   9.434   5.226
 3675POPC   PO448420  12.190  10.022   5.415
 3675POPC   GL148421  11.872   9.806   5.694
 3675POPC   GL248422  11.974   9.512   5.841
 3675POPC   C1A48423  11.879   9.949   6.161
 3675POPC   D2A48424  11.916   9.771   6.578
 3675POPC   C3A48425  11.886   9.972   6.977
 3675POPC   C4A48426  12.150  10.135   7.296
 3675POPC   C1B48427  11.915   9.347   6.260
 3675POPC   C2B48428  12.018   9.285   6.677
 3675POPC   C3B48429  11.872   9.386   7.067
 3675POPC   C4B48430  11.987   9.649   7.381
 3676POPC   NC348431  28.840   5.680   5.598
 3676POPC   PO448432  28.357   6.015   5.298
 3676POPC   GL148433  28.355   5.876   5.734
 3676POPC   GL248434  28.077   5.660   5.723
 3676POPC   C1A48435  28.487   5.741   6.176
 3676POPC   D2A48436  28.634   5.482   6.561
 3676POPC   C3A48437  28.547   5.708   6.973
 3676POPC   C4A48438  28.657   6.115   7.210
 3676POPC   C1B48439  27.953   5.794   6.146
 3676POPC   C2B48440  27.925   5.615   6.580
 3676POPC   C3B48441  28.011   5.688   7.050
 3676POPC   C4B48442  28.189   5.997   7.364
 3677POPC   NC348443   1.790   8.232   5.217
 3677POPC   PO448444   2.211   7.828   5.707
 3677POPC   GL148445   2.054   8.201   5.892
 3677POPC   GL248446   1.772   8.300   5.719
 3677POPC   C1A48447   2.150   8.377   6.275
 3677POPC   D2A48448   1.972   8.445   6.680
 3677POPC   C3A48449   2.170   8.339   7.058
 3677POPC   C4A48450   2.220   7.969   7.243
 3677POPC   C1B48451   1.601   8.270   6.131
 3677POPC   C2B48452   1.508   8.171   6.562
 3677POPC   C3B48453   1.628   8.243   7.007
 3677POPC   C4B48454   1.748   8.124   7.420
 3678POPC   NC348455  17.811  13.042   5.463
 3678POPC   PO448456  17.909  12.367   5.331
 3678POPC   GL148457  17.800  12.548   5.841
 3678POPC   GL248458  17.823  12.927   5.967
 3678POPC   C1A48459  17.449  12.690   6.216
 3678POPC   D2A48460  17.101  12.603   6.537
 3678POPC   C3A48461  17.149  12.671   6.998
 3678POPC   C4A48462  17.275  13.018   7.279
 3678POPC   C1B48463  17.748  13.023   6.448
 3678POPC   C2B48464  17.632  12.904   6.893
 3678POPC   C3B48465  17.756  12.912   7.339
 3678POPC   C4B48466  17.683  12.901   7.794
 3679POPC   NC348467   4.598   3.388   5.558
 3679POPC   PO448468   3.972   3.704   5.511
 3679POPC   GL148469   4.211   3.558   5.846
 3679POPC   GL248470   4.529   3.733   5.909
 3679POPC   C1A48471   4.308   3.345   6.226
 3679POPC   D2A48472   4.355   3.499   6.640
 3679POPC   C3A48473   4.476   3.236   6.989
 3679POPC   C4A48474   4.372   3.484   7.309
 3679POPC   C1B48475   4.350   3.912   6.265
 3679POPC   C2B48476   4.036   3.955   6.593
 3679POPC   C3B48477   4.101   3.811   7.012
 3679POPC   C4B48478   4.477   3.980   7.179
 3680POPC   NC348479  40.945  36.347   5.357
 3680POPC   PO448480  40.442  35.930   5.603
 3680POPC   GL148481  40.751  36.114   5.800
 3680POPC   GL248482  40.998  35.934   5.649
 3680POPC   C1A48483  40.872  36.265   6.185
 3680POPC   D2A48484  40.706  36.371   6.544
 3680POPC   C3A48485  40.847  36.152   6.898
 3680POPC   C4A48486  40.805  36.407   7.269
 3680POPC   C1B48487  41.149  35.847   6.080
 3680POPC   C2B48488  41.059  35.798   6.533
 3680POPC   C3B48489  41.166  35.734   6.975
 3680POPC   C4B48490  41.176  36.063   7.298
 3681POPC   NC348491  24.619  34.428   5.508
 3681POPC   PO448492  24.102  34.824   5.176
 3681POPC   GL148493  24.172  34.566   5.631
 3681POPC   GL248494  24.455  34.811   5.811
 3681POPC   C1A48495  24.193  34.539   6.134
 3681POPC   D2A48496  24.361  34.818   6.438
 3681POPC   C3A48497  24.382  34.696   6.852
 3681POPC   C4A48498  24.257  34.256   6.954
 3681POPC   C1B48499  24.732  34.579   6.142
 3681POPC   C2B48500  24.917  34.426   6.545
 3681POPC   C3B48501  24.771  34.372   6.993
 3681POPC   C4B48502  24.784  34.780   7.209
 3682POPC   NC348503  36.333   2.807   5.509
 3682POPC   PO448504  35.642   2.880   5.623
 3682POPC   GL148505  35.994   2.994   5.890
 3682POPC   GL248506  36.389   3.026   5.958
 3682POPC   C1A48507  35.985   2.997   6.325
 3682POPC   D2A48508  35.914   2.648   6.600
 3682POPC   C3A48509  35.918   2.832   6.987
 3682POPC   C4A48510  36.084   2.698   7.372
 3682POPC   C1B48511  36.364   2.637   6.191
 3682POPC   C2B48512  36.425   2.524   6.606
 3682POPC   C3B48513  36.434   2.748   6.986
 3682POPC   C4B48514  36.289   3.135   7.221
 3683POPC   NC348515   6.149   5.492   5.355
 3683POPC   PO448516   5.712   4.964   5.181
 3683POPC   GL148517   5.804   5.072   5.672
 3683POPC   GL248518   6.075   5.268   5.788
 3683POPC   C1A48519   5.919   4.883   6.096
 3683POPC   D2A48520   5.761   4.885   6.527
 3683POPC   C3A48521   6.064   4.962   6.837
 3683POPC   C4A48522   6.085   4.978   7.271
 3683POPC   C1B48523   5.832   5.386   6.122
 3683POPC   C2B48524   5.928   5.399   6.545
 3683POPC   C3B48525   5.983   5.445   6.988
 3683POPC   C4B48526   6.360   5.518   7.155
 3684POPC   NC348527  43.309  14.800   5.476
 3684POPC   PO448528  42.926  15.255   5.298
 3684POPC   GL148529  43.069  15.206   5.760
 3684POPC   GL248530  43.287  14.940   5.951
 3684POPC   C1A48531  42.929  15.147   6.219
 3684POPC   D2A48532  43.011  14.958   6.643
 3684POPC   C3A48533  42.949  15.265   6.992
 3684POPC   C4A48534  43.167  15.578   7.209
 3684POPC   C1B48535  43.427  14.736   6.351
 3684POPC   C2B48536  43.452  14.752   6.766
 3684POPC   C3B48537  43.468  15.141   6.973
 3684POPC   C4B48538  43.412  15.162   7.385
 3685POPC   NC348539  28.586  40.683   5.369
 3685POPC   PO448540  27.905  40.573   5.562
 3685POPC   GL148541  28.196  40.827   5.795
 3685POPC   GL248542  28.559  40.808   5.849
 3685POPC   C1A48543  28.174  40.773   6.223
 3685POPC   D2A48544  28.304  40.616   6.619
 3685POPC   C3A48545  28.146  40.832   6.976
 3685POPC   C4A48546  28.182  40.670   7.340
 3685POPC   C1B48547  28.641  41.022   6.214
 3685POPC   C2B48548  28.760  40.888   6.638
 3685POPC   C3B48549  28.641  40.699   7.011
 3685POPC   C4B48550  28.616  40.936   7.345
 3686POPC   NC348551  16.504  33.747   5.356
 3686POPC   PO448552  17.134  33.834   5.390
 3686POPC   GL148553  16.845  33.723   5.754
 3686POPC   GL248554  16.636  34.020   5.786
 3686POPC   C1A48555  16.624  33.681   6.178
 3686POPC   D2A48556  16.718  33.874   6.610
 3686POPC   C3A48557  16.696  33.669   7.012
 3686POPC   C4A48558  17.062  33.540   7.266
 3686POPC   C1B48559  16.647  34.196   6.208
 3686POPC   C2B48560  16.523  34.348   6.633
 3686POPC   C3B48561  16.379  34.111   6.958
 3686POPC   C4B48562  16.510  33.993   7.379
 3687POPC   NC348563   1.784  38.927   5.306
 3687POPC   PO448564   2.251  38.477   5.415
 3687POPC   GL148565   1.951  38.523   5.718
 3687POPC   GL248566   1.898  38.178   5.784
 3687POPC   C1A48567   1.961  38.590   6.162
 3687POPC   D2A48568   2.012  38.853   6.523
 3687POPC   C3A48569   1.955  38.600   6.878
 3687POPC   C4A48570   2.042  38.493   7.292
 3687POPC   C1B48571   2.156  38.099   6.138
 3687POPC   C2B48572   2.161  38.281   6.535
 3687POPC   C3B48573   2.148  38.111   6.924
 3687POPC   C4B48574   2.340  38.080   7.295
 3688POPC   NC348575  29.482  23.790   5.255
 3688POPC   PO448576  28.947  23.491   5.562
 3688POPC   GL148577  29.124  23.783   5.844
 3688POPC   GL248578  29.452  23.852   5.769
 3688POPC   C1A48579  28.978  23.872   6.239
 3688POPC   D2A48580  28.963  23.630   6.573
 3688POPC   C3A48581  28.972  23.824   6.946
 3688POPC   C4A48582  29.182  23.681   7.322
 3688POPC   C1B48583  29.465  24.001   6.202
 3688POPC   C2B48584  29.479  23.781   6.591
 3688POPC   C3B48585  29.487  23.941   6.996
 3688POPC   C4B48586  29.661  23.838   7.393
 3689POPC   NC348587   3.615  29.710   5.233
 3689POPC   PO448588   3.122  30.203   5.330
 3689POPC   GL148589   3.396  30.061   5.664
 3689POPC   GL248590   3.466  29.760   5.721
 3689POPC   C1A48591   3.640  30.140   6.077
 3689POPC   D2A48592   3.877  30.038   6.417
 3689POPC   C3A48593   3.672  30.064   6.807
 3689POPC   C4A48594   3.814  29.902   7.184
 3689POPC   C1B48595   3.369  29.691   6.106
 3689POPC   C2B48596   3.541  29.640   6.496
 3689POPC   C3B48597   3.425  29.598   6.892
 3689POPC   C4B48598   3.329  29.733   7.284
 3690POPC   NC348599  14.572   3.308   5.393
 3690POPC   PO448600  14.114   3.788   5.598
 3690POPC   GL148601  14.293   3.439   5.852
 3690POPC   GL248602  14.687   3.434   5.889
 3690POPC   C1A48603  14.144   3.316   6.280
 3690POPC   D2A48604  14.257   3.098   6.672
 3690POPC   C3A48605  14.234   3.378   7.017
 3690POPC   C4A48606  14.091   3.429   7.435
 3690POPC   C1B48607  14.642   3.302   6.340
 3690POPC   C2B48608  14.727   3.334   6.778
 3690POPC   C3B48609  14.683   3.132   7.149
 3690POPC   C4B48610  14.506   3.127   7.578
 3691POPC   NC348611   8.558  36.147   5.363
 3691POPC   PO448612   7.935  35.833   5.461
 3691POPC   GL148613   8.020  36.195   5.760
 3691POPC   GL248614   7.874  36.184   6.095
 3691POPC   C1A48615   8.251  36.492   6.037
 3691POPC   D2A48616   8.204  36.473   6.500
 3691POPC   C3A48617   8.528  36.378   6.803
 3691POPC   C4A48618   8.479  36.239   7.222
 3691POPC   C1B48619   8.283  36.002   6.193
 3691POPC   C2B48620   8.398  35.904   6.606
 3691POPC   C3B48621   8.116  36.005   6.927
 3691POPC   C4B48622   7.921  35.792   7.245
 3692POPC   NC348623   6.355   1.421   5.377
 3692POPC   PO448624   6.847   1.035   5.456
 3692POPC   GL148625   6.825   1.105   5.881
 3692POPC   GL248626   6.560   1.331   5.835
 3692POPC   C1A48627   6.792   1.060   6.334
 3692POPC   D2A48628   6.560   0.972   6.726
 3692POPC   C3A48629   6.812   1.036   7.128
 3692POPC   C4A48630   6.835   1.395   7.395
 3692POPC   C1B48631   6.451   1.464   6.220
 3692POPC   C2B48632   6.659   1.481   6.608
 3692POPC   C3B48633   6.501   1.437   7.005
 3692POPC   C4B48634   6.401   1.704   7.339
 3693POPC   NC348635  42.860   0.234   5.354
 3693POPC   PO448636  43.309   0.665   5.495
 3693POPC   GL148637  42.994   0.520   5.801
 3693POPC   GL248638  42.769   0.231   5.839
 3693POPC   C1A48639  42.857   0.565   6.228
 3693POPC   D2A48640  43.016   0.416   6.625
 3693POPC   C3A48641  42.852   0.705   6.955
 3693POPC   C4A48642  43.190   0.649   7.240
 3693POPC   C1B48643  42.945   0.065   6.177
 3693POPC   C2B48644  42.862  44.774   6.475
 3693POPC   C3B48645  42.718  44.927   6.841
 3693POPC   C4B48646  42.821   0.237   7.149
 3694POPC   NC348647  35.618   3.314   5.502
 3694POPC   PO448648  35.214   3.736   5.332
 3694POPC   GL148649  35.099   3.649   5.739
 3694POPC   GL248650  35.417   3.795   5.821
 3694POPC   C1A48651  35.144   3.336   6.056
 3694POPC   D2A48652  35.450   3.277   6.374
 3694POPC   C3A48653  35.287   3.407   6.753
 3694POPC   C4A48654  35.296   3.355   7.188
 3694POPC   C1B48655  35.291   3.806   6.245
 3694POPC   C2B48656  35.499   3.905   6.620
 3694POPC   C3B48657  35.443   3.855   7.051
 3694POPC   C4B48658  35.175   3.803   7.380
 3695POPC   NC348659  44.299  42.829   5.447
 3695POPC   PO448660  43.757  43.241   5.435
 3695POPC   GL148661  43.975  43.110   5.757
 3695POPC   GL248662  43.904  42.754   5.809
 3695POPC   C1A48663  44.078  43.269   6.154
 3695POPC   D2A48664  44.221  43.443   6.543
 3695POPC   C3A48665  44.185  43.206   6.930
 3695POPC   C4A48666  44.022  43.392   7.279
 3695POPC   C1B48667  43.676  42.943   6.164
 3695POPC   C2B48668  43.811  43.088   6.574
 3695POPC   C3B48669  43.761  42.940   6.988
 3695POPC   C4B48670  43.544  43.207   7.228
 3696POPC   NC348671  22.649   6.778   5.082
 3696POPC   PO448672  23.191   6.517   5.450
 3696POPC   GL148673  23.087   6.599   5.913
 3696POPC   GL248674  22.690   6.541   5.985
 3696POPC   C1A48675  22.969   6.828   6.270
 3696POPC   D2A48676  22.682   6.669   6.524
 3696POPC   C3A48677  22.685   6.849   6.921
 3696POPC   C4A48678  22.714   6.780   7.335
 3696POPC   C1B48679  22.968   6.285   6.287
 3696POPC   C2B48680  22.971   6.114   6.701
 3696POPC   C3B48681  22.772   6.351   7.050
 3696POPC   C4B48682  22.916   6.352   7.499
 3697POPC   NC348683  39.405  15.250   5.313
 3697POPC   PO448684  40.046  15.283   5.465
 3697POPC   GL148685  39.574  15.285   5.778
 3697POPC   GL248686  39.358  14.963   5.736
 3697POPC   C1A48687  39.423  15.045   6.227
 3697POPC   D2A48688  39.404  15.052   6.691
 3697POPC   C3A48689  39.402  15.423   6.953
 3697POPC   C4A48690  39.309  15.249   7.343
 3697POPC   C1B48691  38.981  15.082   5.997
 3697POPC   C2B48692  38.916  15.049   6.464
 3697POPC   C3B48693  38.926  15.206   6.891
 3697POPC   C4B48694  38.645  15.146   7.219
 3698POPC   NC348695  41.211  23.307   5.217
 3698POPC   PO448696  41.679  23.834   5.103
 3698POPC   GL148697  41.477  23.730   5.556
 3698POPC   GL248698  41.615  23.452   5.704
 3698POPC   C1A48699  41.419  23.825   6.042
 3698POPC   D2A48700  41.673  23.793   6.456
 3698POPC   C3A48701  41.553  23.779   6.918
 3698POPC   C4A48702  41.532  24.027   7.329
 3698POPC   C1B48703  41.893  23.515   6.076
 3698POPC   C2B48704  41.869  23.287   6.490
 3698POPC   C3B48705  41.835  23.360   6.920
 3698POPC   C4B48706  41.935  23.644   7.280
 3699POPC   NC348707   9.936  22.638   5.520
 3699POPC   PO448708   9.529  23.187   5.610
 3699POPC   GL148709   9.783  22.993   5.887
 3699POPC   GL248710   9.600  23.178   6.138
 3699POPC   C1A48711   9.938  22.793   6.258
 3699POPC   D2A48712   9.952  22.906   6.677
 3699POPC   C3A48713  10.032  22.587   6.949
 3699POPC   C4A48714   9.786  22.616   7.313
 3699POPC   C1B48715  10.031  23.303   6.291
 3699POPC   C2B48716  10.206  23.349   6.729
 3699POPC   C3B48717   9.821  23.430   6.979
 3699POPC   C4B48718   9.659  23.330   7.409
 3700POPC   NC348719  37.309  22.241   5.420
 3700POPC   PO448720  36.632  22.033   5.323
 3700POPC   GL148721  36.851  22.219   5.714
 3700POPC   GL248722  37.150  22.394   5.885
 3700POPC   C1A48723  36.802  22.133   6.161
 3700POPC   D2A48724  37.020  22.131   6.560
 3700POPC   C3A48725  36.726  22.082   6.919
 3700POPC   C4A48726  36.776  21.863   7.321
 3700POPC   C1B48727  37.295  22.560   6.283
 3700POPC   C2B48728  37.257  22.548   6.742
 3700POPC   C3B48729  37.215  22.207   7.035
 3700POPC   C4B48730  36.980  22.342   7.330
 3701POPC   NC348731  17.182  24.086   5.422
 3701POPC   PO448732  17.489  23.546   5.086
 3701POPC   GL148733  17.474  23.648   5.559
 3701POPC   GL248734  17.214  23.432   5.721
 3701POPC   C1A48735  17.603  23.781   6.036
 3701POPC   D2A48736  17.779  23.856   6.497
 3701POPC   C3A48737  17.635  23.784   6.946
 3701POPC   C4A48738  17.511  23.381   7.131
 3701POPC   C1B48739  17.178  23.522   6.189
 3701POPC   C2B48740  17.294  23.553   6.645
 3701POPC   C3B48741  17.118  23.714   7.051
 3701POPC   C4B48742  16.831  24.076   7.085
 3702POPC   NC348743  32.141  36.790   5.454
 3702POPC   PO448744  32.650  37.204   5.470
 3702POPC   GL148745  32.386  36.989   5.847
 3702POPC   GL248746  31.967  36.993   5.878
 3702POPC   C1A48747  32.376  36.589   6.092
 3702POPC   D2A48748  32.457  36.336   6.453
 3702POPC   C3A48749  32.289  36.565   6.788
 3702POPC   C4A48750  32.118  36.772   7.128
 3702POPC   C1B48751  32.095  36.959   6.306
 3702POPC   C2B48752  32.183  37.092   6.719
 3702POPC   C3B48753  31.905  37.214   7.051
 3702POPC   C4B48754  31.984  37.149   7.498
 3703POPC   NC348755   7.924  22.295   5.401
 3703POPC   PO448756   7.330  21.972   5.393
 3703POPC   GL148757   7.538  22.121   5.711
 3703POPC   GL248758   7.632  21.810   5.817
 3703POPC   C1A48759   7.443  22.219   6.148
 3703POPC   D2A48760   7.730  22.321   6.518
 3703POPC   C3A48761   7.541  22.355   6.943
 3703POPC   C4A48762   7.217  22.091   7.170
 3703POPC   C1B48763   7.807  21.884   6.226
 3703POPC   C2B48764   7.908  21.818   6.665
 3703POPC   C3B48765   7.765  21.912   7.072
 3703POPC   C4B48766   7.574  21.799   7.439
 3704POPC   NC348767  35.623  20.806   5.166
 3704POPC   PO448768  35.271  20.265   5.356
 3704POPC   GL148769  35.264  20.533   5.749
 3704POPC   GL248770  35.583  20.737   5.800
 3704POPC   C1A48771  35.279  20.544   6.223
 3704POPC   D2A48772  35.479  20.602   6.653
 3704POPC   C3A48773  35.390  20.259   6.984
 3704POPC   C4A48774  35.192  20.254   7.410
 3704POPC   C1B48775  35.577  20.976   6.218
 3704POPC   C2B48776  35.454  21.149   6.639
 3704POPC   C3B48777  35.496  20.961   7.038
 3704POPC   C4B48778  35.129  20.690   7.111
 3705POPC   NC348779  34.838  20.412   5.419
 3705POPC   PO448780  34.692  21.080   5.403
 3705POPC   GL148781  34.655  20.770   5.715
 3705POPC   GL248782  34.409  20.481   5.735
 3705POPC   C1A48783  34.773  20.605   6.102
 3705POPC   D2A48784  34.747  20.359   6.468
 3705POPC   C3A48785  34.711  20.562   6.838
 3705POPC   C4A48786  34.724  20.410   7.266
 3705POPC   C1B48787  34.271  20.453   6.173
 3705POPC   C2B48788  34.127  20.481   6.613
 3705POPC   C3B48789  34.258  20.419   7.040
 3705POPC   C4B48790  34.290  20.352   7.505
 3706POPC   NC348791  12.518  25.580   5.192
 3706POPC   PO448792  13.110  25.943   5.395
 3706POPC   GL148793  13.054  25.886   5.872
 3706POPC   GL248794  12.734  26.050   5.966
 3706POPC   C1A48795  13.051  25.935   6.353
 3706POPC   D2A48796  12.900  26.234   6.686
 3706POPC   C3A48797  12.949  26.042   7.087
 3706POPC   C4A48798  13.294  25.744   7.151
 3706POPC   C1B48799  12.496  26.306   6.279
 3706POPC   C2B48800  12.420  26.415   6.723
 3706POPC   C3B48801  12.590  26.409   7.167
 3706POPC   C4B48802  12.620  26.192   7.575
 3707POPC   NC348803  39.405  14.557   5.420
 3707POPC   PO448804  38.784  14.229   5.363
 3707POPC   GL148805  39.112  14.199   5.746
 3707POPC   GL248806  39.480  14.145   5.828
 3707POPC   C1A48807  39.157  14.291   6.201
 3707POPC   D2A48808  39.163  14.587   6.534
 3707POPC   C3A48809  39.055  14.340   6.870
 3707POPC   C4A48810  39.141  14.334   7.261
 3707POPC   C1B48811  39.576  14.547   6.074
 3707POPC   C2B48812  39.667  14.667   6.496
 3707POPC   C3B48813  39.516  14.572   6.920
 3707POPC   C4B48814  39.179  14.815   7.114
 3708POPC   NC348815   4.628  32.298   5.587
 3708POPC   PO448816   4.124  32.394   5.098
 3708POPC   GL148817   4.116  32.347   5.652
 3708POPC   GL248818   4.022  32.609   5.899
 3708POPC   C1A48819   4.130  32.139   6.086
 3708POPC   D2A48820   4.406  31.853   6.348
 3708POPC   C3A48821   4.378  31.866   6.817
 3708POPC   C4A48822   4.358  32.129   7.177
 3708POPC   C1B48823   4.286  32.641   6.279
 3708POPC   C2B48824   4.359  32.530   6.748
 3708POPC   C3B48825   4.195  32.618   7.180
 3708POPC   C4B48826   4.030  32.662   7.617
 3709POPC   NC348827  44.236  12.536   5.588
 3709POPC   PO448828  43.723  12.190   5.288
 3709POPC   GL148829  43.808  12.232   5.758
 3709POPC   GL248830  44.113  12.129   5.954
 3709POPC   C1A48831  43.657  12.090   6.178
 3709POPC   D2A48832  43.571  11.804   6.523
 3709POPC   C3A48833  43.434  11.958   6.925
 3709POPC   C4A48834  43.642  12.101   7.278
 3709POPC   C1B48835  44.271  11.866   6.263
 3709POPC   C2B48836  44.226  11.841   6.715
 3709POPC   C3B48837  44.146  11.969   7.119
 3709POPC   C4B48838  44.089  12.207   7.512
 3710POPC   NC348839  31.414  37.402   5.136
 3710POPC   PO448840  31.092  38.003   5.350
 3710POPC   GL148841  31.301  37.639   5.660
 3710POPC   GL248842  31.356  37.254   5.669
 3710POPC   C1A48843  31.316  37.699   6.152
 3710POPC   D2A48844  31.458  37.855   6.610
 3710POPC   C3A48845  31.405  37.902   7.103
 3710POPC   C4A48846  31.702  37.940   7.451
 3710POPC   C1B48847  31.547  37.241   6.123
 3710POPC   C2B48848  31.305  37.353   6.521
 3710POPC   C3B48849  31.423  37.408   6.944
 3710POPC   C4B48850  31.569  37.444   7.363
 3711POPC   NC348851   5.825   6.231   5.461
 3711POPC   PO448852   5.698   5.534   5.464
 3711POPC   GL148853   5.881   5.794   5.807
 3711POPC   GL248854   5.604   6.059   5.890
 3711POPC   C1A48855   5.868   5.881   6.289
 3711POPC   D2A48856   5.740   5.851   6.748
 3711POPC   C3A48857   6.106   5.952   7.018
 3711POPC   C4A48858   6.417   5.981   7.349
 3711POPC   C1B48859   5.572   6.365   6.250
 3711POPC   C2B48860   5.334   6.394   6.658
 3711POPC   C3B48861   5.544   6.255   7.044
 3711POPC   C4B48862   5.680   5.952   7.316
 3712POPC   NC348863  34.082  14.018   5.477
 3712POPC   PO448864  33.574  14.433   5.177
 3712POPC   GL148865  33.812  14.430   5.605
 3712POPC   GL248866  33.625  14.517   5.857
 3712POPC   C1A48867  34.087  14.612   5.978
 3712POPC   D2A48868  34.040  14.684   6.428
 3712POPC   C3A48869  34.004  14.383   6.784
 3712POPC   C4A48870  34.115  14.450   7.218
 3712POPC   C1B48871  33.722  14.321   6.210
 3712POPC   C2B48872  33.567  14.498   6.543
 3712POPC   C3B48873  33.431  14.444   6.935
 3712POPC   C4B48874  33.640  14.264   7.248
 3713POPC   NC348875  40.523  25.614   5.449
 3713POPC   PO448876  40.930  26.186   5.215
 3713POPC   GL148877  40.850  26.098   5.673
 3713POPC   GL248878  41.045  25.788   5.690
 3713POPC   C1A48879  40.561  26.022   6.083
 3713POPC   D2A48880  40.437  26.021   6.552
 3713POPC   C3A48881  40.716  26.225   6.903
 3713POPC   C4A48882  41.172  26.292   7.080
 3713POPC   C1B48883  41.049  25.914   6.121
 3713POPC   C2B48884  41.066  26.070   6.536
 3713POPC   C3B48885  41.030  25.818   6.897
 3713POPC   C4B48886  41.160  25.791   7.286
 3714POPC   NC348887  18.288  38.689   4.959
 3714POPC   PO448888  18.006  38.217   5.325
 3714POPC   GL148889  18.177  38.453   5.703
 3714POPC   GL248890  17.883  38.474   5.899
 3714POPC   C1A48891  18.335  38.400   6.157
 3714POPC   D2A48892  18.168  38.311   6.596
 3714POPC   C3A48893  18.389  38.181   6.931
 3714POPC   C4A48894  18.565  38.394   7.268
 3714POPC   C1B48895  17.867  38.599   6.309
 3714POPC   C2B48896  17.787  38.650   6.730
 3714POPC   C3B48897  17.895  38.355   7.046
 3714POPC   C4B48898  18.127  38.161   7.389
 3715POPC   NC348899   9.195   2.737   5.421
 3715POPC   PO448900   9.429   3.365   5.545
 3715POPC   GL148901   9.247   3.035   5.841
 3715POPC   GL248902   8.922   2.823   5.845
 3715POPC   C1A48903   9.208   2.972   6.274
 3715POPC   D2A48904   9.149   3.060   6.686
 3715POPC   C3A48905   9.232   2.843   7.068
 3715POPC   C4A48906   9.164   3.039   7.469
 3715POPC   C1B48907   8.829   2.652   6.260
 3715POPC   C2B48908   8.949   2.571   6.686
 3715POPC   C3B48909   8.942   2.400   7.096
 3715POPC   C4B48910   8.680   2.302   7.406
 3716POPC   NC348911  11.135  27.837   5.354
 3716POPC   PO448912  11.582  28.415   5.289
 3716POPC   GL148913  11.314  28.243   5.614
 3716POPC   GL248914  11.511  27.975   5.785
 3716POPC   C1A48915  11.257  28.363   6.041
 3716POPC   D2A48916  11.390  28.541   6.427
 3716POPC   C3A48917  11.210  28.338   6.779
 3716POPC   C4A48918  11.207  28.382   7.219
 3716POPC   C1B48919  11.763  28.142   6.178
 3716POPC   C2B48920  11.736  28.237   6.655
 3716POPC   C3B48921  11.688  28.473   7.056
 3716POPC   C4B48922  11.654  28.576   7.501
 3717POPC   NC348923  37.926  32.047   5.526
 3717POPC   PO448924  37.363  31.785   5.502
 3717POPC   GL148925  37.604  31.985   5.912
 3717POPC   GL248926  37.730  32.345   5.881
 3717POPC   C1A48927  37.843  32.156   6.317
 3717POPC   D2A48928  37.718  32.355   6.704
 3717POPC   C3A48929  37.988  32.200   6.990
 3717POPC   C4A48930  37.856  31.967   7.322
 3717POPC   C1B48931  37.364  32.320   6.193
 3717POPC   C2B48932  37.252  32.474   6.574
 3717POPC   C3B48933  37.262  32.229   6.954
 3717POPC   C4B48934  37.291  32.362   7.390
 3718POPC   NC348935  35.086  39.469   5.397
 3718POPC   PO448936  35.691  39.262   5.149
 3718POPC   GL148937  35.502  39.021   5.630
 3718POPC   GL248938  35.759  38.957   5.915
 3718POPC   C1A48939  35.291  38.928   6.125
 3718POPC   D2A48940  35.466  38.956   6.590
 3718POPC   C3A48941  35.204  39.007   7.000
 3718POPC   C4A48942  35.288  39.183   7.447
 3718POPC   C1B48943  35.585  39.311   6.216
 3718POPC   C2B48944  35.463  39.503   6.611
 3718POPC   C3B48945  35.480  39.459   7.055
 3718POPC   C4B48946  35.514  39.617   7.482
 3719POPC   NC348947   4.226  38.886   5.313
 3719POPC   PO448948   4.323  39.506   5.281
 3719POPC   GL148949   4.181  39.321   5.708
 3719POPC   GL248950   4.041  38.975   5.793
 3719POPC   C1A48951   4.062  39.283   6.180
 3719POPC   D2A48952   4.355  39.230   6.506
 3719POPC   C3A48953   4.205  39.136   6.903
 3719POPC   C4A48954   4.377  39.174   7.296
 3719POPC   C1B48955   4.471  39.026   6.013
 3719POPC   C2B48956   4.684  38.845   6.402
 3719POPC   C3B48957   4.584  38.795   6.853
 3719POPC   C4B48958   4.267  38.702   7.190
 3720POPC   NC348959  39.545   9.365   5.102
 3720POPC   PO448960  39.509  10.019   5.409
 3720POPC   GL148961  39.516   9.725   5.799
 3720POPC   GL248962  39.179   9.544   5.895
 3720POPC   C1A48963  39.495   9.724   6.280
 3720POPC   D2A48964  39.356   9.760   6.709
 3720POPC   C3A48965  39.480  10.019   7.063
 3720POPC   C4A48966  39.373   9.971   7.515
 3720POPC   C1B48967  39.113   9.335   6.336
 3720POPC   C2B48968  39.039   9.387   6.798
 3720POPC   C3B48969  39.242   9.551   7.182
 3720POPC   C4B48970  39.122   9.551   7.645
 3721POPC   NC348971  34.813  12.683   5.461
 3721POPC   PO448972  34.425  13.212   5.560
 3721POPC   GL148973  34.685  13.052   5.849
 3721POPC   GL248974  34.674  12.693   5.953
 3721POPC   C1A48975  34.645  13.125   6.257
 3721POPC   D2A48976  34.757  12.873   6.581
 3721POPC   C3A48977  34.492  12.929   6.903
 3721POPC   C4A48978  34.583  12.765   7.297
 3721POPC   C1B48979  34.955  12.425   6.196
 3721POPC   C2B48980  35.113  12.497   6.601
 3721POPC   C3B48981  34.938  12.425   7.024
 3721POPC   C4B48982  34.944  12.464   7.495
 3722POPC   NC348983   4.288  33.127   5.378
 3722POPC   PO448984   4.405  33.914   5.316
 3722POPC   GL148985   4.420  33.881   5.707
 3722POPC   GL248986   4.272  33.542   5.677
 3722POPC   C1A48987   4.443  34.109   6.099
 3722POPC   D2A48988   4.159  34.132   6.456
 3722POPC   C3A48989   4.363  34.076   6.828
 3722POPC   C4A48990   4.295  33.939   7.265
 3722POPC   C1B48991   4.163  33.665   6.104
 3722POPC   C2B48992   4.121  33.589   6.559
 3722POPC   C3B48993   4.373  33.562   6.919
 3722POPC   C4B48994   4.323  33.413   7.330
 3723POPC   NC348995  13.341  19.289   5.522
 3723POPC   PO448996  12.659  19.002   5.512
 3723POPC   GL148997  12.824  19.252   5.843
 3723POPC   GL248998  12.492  19.347   5.910
 3723POPC   C1A48999  13.010  19.094   6.265
 3723POPC   D2A49000  13.176  18.839   6.680
 3723POPC   C3A49001  13.098  18.911   7.131
 3723POPC   C4A49002  12.756  18.933   7.425
 3723POPC   C1B49003  12.494  19.152   6.283
 3723POPC   C2B49004  12.712  19.071   6.677
 3723POPC   C3B49005  12.722  19.287   7.059
 3723POPC   C4B49006  12.359  19.217   7.325
 3724POPC   NC349007  27.310   0.475   5.166
 3724POPC   PO449008  27.778   0.211   5.576
 3724POPC   GL149009  27.637   0.503   5.854
 3724POPC   GL249010  27.331   0.584   5.696
 3724POPC   C1A49011  27.799   0.562   6.271
 3724POPC   D2A49012  28.000   0.624   6.673
 3724POPC   C3A49013  27.711   0.466   6.936
 3724POPC   C4A49014  27.630   0.458   7.357
 3724POPC   C1B49015  27.181   0.556   6.135
 3724POPC   C2B49016  27.358   0.593   6.561
 3724POPC   C3B49017  27.226   0.656   6.977
 3724POPC   C4B49018  27.249   0.794   7.398
 3725POPC   NC349019   8.048   3.541   5.428
 3725POPC   PO449020   8.594   4.014   5.329
 3725POPC   GL149021   8.461   3.697   5.724
 3725POPC   GL249022   8.335   3.301   5.780
 3725POPC   C1A49023   8.253   3.612   6.160
 3725POPC   D2A49024   8.296   3.381   6.560
 3725POPC   C3A49025   8.299   3.629   6.927
 3725POPC   C4A49026   8.006   3.776   7.226
 3725POPC   C1B49027   8.000   3.185   6.147
 3725POPC   C2B49028   7.790   3.373   6.536
 3725POPC   C3B49029   7.913   3.297   6.984
 3725POPC   C4B49030   8.293   3.183   7.242
 3726POPC   NC349031  24.756  18.147   5.662
 3726POPC   PO449032  24.240  18.591   5.475
 3726POPC   GL149033  24.334  18.370   5.864
 3726POPC   GL249034  24.270  18.005   5.861
 3726POPC   C1A49035  24.441  18.477   6.284
 3726POPC   D2A49036  24.499  18.430   6.726
 3726POPC   C3A49037  24.811  18.495   7.027
 3726POPC   C4A49038  24.715  18.412   7.476
 3726POPC   C1B49039  24.451  17.953   6.273
 3726POPC   C2B49040  24.379  17.937   6.717
 3726POPC   C3B49041  24.427  18.149   7.147
 3726POPC   C4B49042  24.388  17.987   7.579
 3727POPC   NC349043  26.128  20.378   5.442
 3727POPC   PO449044  25.665  20.853   5.181
 3727POPC   GL149045  25.760  20.957   5.677
 3727POPC   GL249046  26.071  20.801   5.773
 3727POPC   C1A49047  25.714  20.847   6.154
 3727POPC   D2A49048  25.630  20.663   6.570
 3727POPC   C3A49049  25.787  20.882   6.926
 3727POPC   C4A49050  25.860  20.699   7.331
 3727POPC   C1B49051  26.203  20.906   6.212
 3727POPC   C2B49052  26.295  20.825   6.667
 3727POPC   C3B49053  26.287  20.859   7.103
 3727POPC   C4B49054  26.583  20.779   7.418
 3728POPC   NC349055  33.599  39.807   5.344
 3728POPC   PO449056  33.322  40.367   5.575
 3728POPC   GL149057  33.218  40.192   5.971
 3728POPC   GL249058  32.850  40.016   6.016
 3728POPC   C1A49059  33.103  40.347   6.353
 3728POPC   D2A49060  32.774  40.152   6.550
 3728POPC   C3A49061  32.964  40.000   6.936
 3728POPC   C4A49062  33.313  40.228   7.129
 3728POPC   C1B49063  33.124  39.783   6.283
 3728POPC   C2B49064  33.356  39.933   6.618
 3728POPC   C3B49065  33.457  39.762   6.981
 3728POPC   C4B49066  33.222  39.751   7.310
 3729POPC   NC349067  11.407  11.706   5.480
 3729POPC   PO449068  11.163  12.220   5.057
 3729POPC   GL149069  11.195  12.148   5.589
 3729POPC   GL249070  11.024  11.836   5.772
 3729POPC   C1A49071  11.390  12.079   6.037
 3729POPC   D2A49072  11.665  11.939   6.379
 3729POPC   C3A49073  11.507  12.014   6.808
 3729POPC   C4A49074  11.445  12.135   7.233
 3729POPC   C1B49075  10.926  11.899   6.184
 3729POPC   C2B49076  11.017  12.057   6.585
 3729POPC   C3B49077  11.025  11.921   7.016
 3729POPC   C4B49078  11.018  12.031   7.482
 3730POPC   NC349079  14.566  13.611   5.319
 3730POPC   PO449080  13.922  13.452   5.272
 3730POPC   GL149081  14.174  13.499   5.671
 3730POPC   GL249082  14.465  13.700   5.847
 3730POPC   C1A49083  14.197  13.339   6.118
 3730POPC   D2A49084  14.402  13.580   6.466
 3730POPC   C3A49085  14.637  13.425   6.828
 3730POPC   C4A49086  14.493  13.625   7.195
 3730POPC   C1B49087  14.817  13.769   6.157
 3730POPC   C2B49088  14.904  13.835   6.618
 3730POPC   C3B49089  14.881  13.915   7.074
 3730POPC   C4B49090  14.900  13.707   7.502
 3731POPC   NC349091  27.497  21.894   5.442
 3731POPC   PO449092  27.723  22.447   5.535
 3731POPC   GL149093  27.690  22.342   5.878
 3731POPC   GL249094  27.361  22.277   5.852
 3731POPC   C1A49095  27.755  22.445   6.266
 3731POPC   D2A49096  27.811  22.077   6.470
 3731POPC   C3A49097  27.645  22.082   6.859
 3731POPC   C4A49098  27.834  22.232   7.205
 3731POPC   C1B49099  27.497  21.902   6.100
 3731POPC   C2B49100  27.331  21.773   6.519
 3731POPC   C3B49101  27.359  21.649   6.957
 3731POPC   C4B49102  27.538  21.837   7.309
 3732POPC   NC349103  21.739   7.405   5.397
 3732POPC   PO449104  21.188   7.738   5.284
 3732POPC   GL149105  21.452   7.589   5.792
 3732POPC   GL249106  21.767   7.709   5.857
 3732POPC   C1A49107  21.221   7.400   6.246
 3732POPC   D2A49108  21.247   7.093   6.635
 3732POPC   C3A49109  21.175   7.322   7.025
 3732POPC   C4A49110  21.394   7.369   7.398
 3732POPC   C1B49111  21.712   7.472   6.244
 3732POPC   C2B49112  21.611   7.433   6.689
 3732POPC   C3B49113  21.859   7.488   7.064
 3732POPC   C4B49114  21.802   7.646   7.470
 3733POPC   NC349115  24.237  11.990   5.444
 3733POPC   PO449116  24.816  12.333   5.477
 3733POPC   GL149117  24.648  12.026   5.760
 3733POPC   GL249118  24.850  11.734   5.808
 3733POPC   C1A49119  24.362  11.989   6.124
 3733POPC   D2A49120  24.086  12.010   6.471
 3733POPC   C3A49121  24.258  12.036   6.882
 3733POPC   C4A49122  24.019  12.022   7.232
 3733POPC   C1B49123  24.872  11.954   6.211
 3733POPC   C2B49124  24.691  12.013   6.605
 3733POPC   C3B49125  24.782  12.139   7.024
 3733POPC   C4B49126  24.752  12.132   7.490
 3734POPC   NC349127  11.333  28.778   5.120
 3734POPC   PO449128  11.660  29.251   5.416
 3734POPC   GL149129  11.378  29.139   5.762
 3734POPC   GL249130  11.364  28.767   5.709
 3734POPC   C1A49131  11.191  29.336   6.164
 3734POPC   D2A49132  11.319  29.263   6.606
 3734POPC   C3A49133  11.564  29.520   6.906
 3734POPC   C4A49134  11.338  29.362   7.248
 3734POPC   C1B49135  11.097  28.843   6.101
 3734POPC   C2B49136  10.977  28.842   6.559
 3734POPC   C3B49137  11.004  29.048   6.972
 3734POPC   C4B49138  11.310  28.861   7.237
 3735POPC   NC349139  19.814  17.078   5.226
 3735POPC   PO449140  19.882  16.470   5.500
 3735POPC   GL149141  19.811  16.769   5.786
 3735POPC   GL249142  20.088  16.969   5.688
 3735POPC   C1A49143  19.658  16.741   6.228
 3735POPC   D2A49144  19.834  16.642   6.637
 3735POPC   C3A49145  19.644  16.764   7.030
 3735POPC   C4A49146  19.455  16.513   7.357
 3735POPC   C1B49147  20.187  16.808   6.136
 3735POPC   C2B49148  20.294  16.892   6.571
 3735POPC   C3B49149  20.165  16.850   6.997
 3735POPC   C4B49150  20.137  17.158   7.345
 3736POPC   NC349151  22.373  43.692   5.419
 3736POPC   PO449152  22.385  44.371   5.618
 3736POPC   GL149153  22.149  44.021   5.793
 3736POPC   GL249154  21.882  44.184   5.983
 3736POPC   C1A49155  22.135  43.757   6.169
 3736POPC   D2A49156  22.370  43.585   6.544
 3736POPC   C3A49157  22.239  43.716   6.932
 3736POPC   C4A49158  22.158  43.670   7.342
 3736POPC   C1B49159  22.213  44.263   6.267
 3736POPC   C2B49160  22.213  44.164   6.690
 3736POPC   C3B49161  22.471  44.193   7.007
 3736POPC   C4B49162  22.478  44.057   7.385
 3737POPC   NC349163  29.787  41.309   5.468
 3737POPC   PO449164  30.353  41.728   5.534
 3737POPC   GL149165  29.999  41.783   5.870
 3737POPC   GL249166  29.661  41.583   5.895
 3737POPC   C1A49167  30.005  41.695   6.333
 3737POPC   D2A49168  30.203  41.449   6.690
 3737POPC   C3A49169  30.035  41.555   7.107
 3737POPC   C4A49170  30.091  42.018   7.225
 3737POPC   C1B49171  29.612  41.349   6.296
 3737POPC   C2B49172  29.657  41.474   6.738
 3737POPC   C3B49173  29.519  41.571   7.163
 3737POPC   C4B49174  29.671  41.342   7.527
 3738POPC   NC349175  34.323  27.392   5.538
 3738POPC   PO449176  34.927  27.577   5.377
 3738POPC   GL149177  34.867  27.583   5.815
 3738POPC   GL249178  34.560  27.730   5.891
 3738POPC   C1A49179  34.876  27.648   6.273
 3738POPC   D2A49180  34.713  27.622   6.665
 3738POPC   C3A49181  34.954  27.544   7.021
 3738POPC   C4A49182  34.582  27.487   7.256
 3738POPC   C1B49183  34.352  27.783   6.314
 3738POPC   C2B49184  34.263  27.929   6.759
 3738POPC   C3B49185  34.214  27.840   7.214
 3738POPC   C4B49186  34.111  28.023   7.617
 3739POPC   NC349187  18.785  21.491   5.408
 3739POPC   PO449188  18.171  21.105   5.478
 3739POPC   GL149189  18.280  21.307   5.892
 3739POPC   GL249190  18.511  21.605   5.921
 3739POPC   C1A49191  18.395  21.278   6.332
 3739POPC   D2A49192  18.479  21.429   6.750
 3739POPC   C3A49193  18.096  21.543   6.974
 3739POPC   C4A49194  18.070  21.550   7.415
 3739POPC   C1B49195  18.409  21.810   6.363
 3739POPC   C2B49196  18.389  21.957   6.805
 3739POPC   C3B49197  18.516  21.756   7.187
 3739POPC   C4B49198  18.872  21.534   7.364
 3740POPC   NC349199   1.756   2.377   5.296
 3740POPC   PO449200   2.156   1.790   5.436
 3740POPC   GL149201   1.916   1.968   5.824
 3740POPC   GL249202   2.156   2.102   6.087
 3740POPC   C1A49203   1.719   1.916   6.258
 3740POPC   D2A49204   1.732   2.058   6.695
 3740POPC   C3A49205   2.098   2.180   6.922
 3740POPC   C4A49206   2.253   2.048   7.316
 3740POPC   C1B49207   2.196   1.671   6.211
 3740POPC   C2B49208   2.322   1.585   6.626
 3740POPC   C3B49209   2.181   1.640   7.027
 3740POPC   C4B49210   1.809   1.809   7.189
 3741POPC   NC349211  32.656  18.524   5.346
 3741POPC   PO449212  33.225  18.078   5.364
 3741POPC   GL149213  33.187  18.228   5.731
 3741POPC   GL249214  33.118  18.573   5.639
 3741POPC   C1A49215  33.288  18.139   6.151
 3741POPC   D2A49216  33.156  18.301   6.542
 3741POPC   C3A49217  33.198  18.082   6.911
 3741POPC   C4A49218  32.932  18.157   7.240
 3741POPC   C1B49219  32.998  18.590   6.093
 3741POPC   C2B49220  33.094  18.800   6.510
 3741POPC   C3B49221  32.955  18.652   6.955
 3741POPC   C4B49222  32.907  18.610   7.440
 3742POPC   NC349223  41.838  31.359   5.397
 3742POPC   PO449224  41.279  31.627   5.180
 3742POPC   GL149225  41.433  31.626   5.687
 3742POPC   GL249226  41.646  31.357   5.898
 3742POPC   C1A49227  41.358  31.661   6.164
 3742POPC   D2A49228  41.591  31.441   6.541
 3742POPC   C3A49229  41.374  31.489   6.982
 3742POPC   C4A49230  41.420  31.701   7.426
 3742POPC   C1B49231  41.889  31.065   6.157
 3742POPC   C2B49232  42.073  31.175   6.574
 3742POPC   C3B49233  41.889  31.148   6.982
 3742POPC   C4B49234  41.832  31.487   7.248
 3743POPC   NC349235  34.795  35.067   5.528
 3743POPC   PO449236  34.785  34.553   5.069
 3743POPC   GL149237  34.615  34.554   5.500
 3743POPC   GL249238  34.912  34.588   5.684
 3743POPC   C1A49239  34.460  34.562   5.943
 3743POPC   D2A49240  34.557  34.524   6.394
 3743POPC   C3A49241  34.521  34.662   6.834
 3743POPC   C4A49242  34.822  34.455   7.125
 3743POPC   C1B49243  34.958  34.785   6.096
 3743POPC   C2B49244  34.839  34.955   6.473
 3743POPC   C3B49245  34.970  34.909   6.886
 3743POPC   C4B49246  34.765  34.946   7.259
 3744POPC   NC349247  21.822  14.430   5.506
 3744POPC   PO449248  21.159  14.555   5.507
 3744POPC   GL149249  21.095  14.430   5.895
 3744POPC   GL249250  21.423  14.248   5.862
 3744POPC   C1A49251  21.114  14.262   6.289
 3744POPC   D2A49252  21.415  14.162   6.610
 3744POPC   C3A49253  21.195  14.269   6.967
 3744POPC   C4A49254  21.104  13.986   7.279
 3744POPC   C1B49255  21.524  14.603   6.136
 3744POPC   C2B49256  21.569  14.652   6.561
 3744POPC   C3B49257  21.661  14.475   6.965
 3744POPC   C4B49258  21.418  14.632   7.293
 3745POPC   NC349259  24.759  14.398   5.544
 3745POPC   PO449260  24.102  14.398   5.166
 3745POPC   GL149261  24.245  14.268   5.649
 3745POPC   GL249262  24.507  14.089   5.883
 3745POPC   C1A49263  24.273  14.459   6.123
 3745POPC   D2A49264  24.212  14.335   6.571
 3745POPC   C3A49265  24.410  14.460   6.963
 3745POPC   C4A49266  24.306  14.605   7.383
 3745POPC   C1B49267  24.434  13.928   6.329
 3745POPC   C2B49268  24.411  13.940   6.808
 3745POPC   C3B49269  24.592  14.075   7.224
 3745POPC   C4B49270  24.554  14.243   7.641
 3746POPC   NC349271  27.452  42.369   5.419
 3746POPC   PO449272  28.075  42.192   5.314
 3746POPC   GL149273  27.899  42.299   5.714
 3746POPC   GL249274  27.815  42.659   5.777
 3746POPC   C1A49275  27.673  42.145   6.082
 3746POPC   D2A49276  27.479  42.336   6.453
 3746POPC   C3A49277  27.398  42.089   6.795
 3746POPC   C4A49278  27.318  42.275   7.192
 3746POPC   C1B49279  27.959  42.566   6.206
 3746POPC   C2B49280  28.074  42.350   6.604
 3746POPC   C3B49281  27.839  42.311   6.998
 3746POPC   C4B49282  27.654  42.670   7.214
 3747POPC   NC349283  19.506  16.221   5.578
 3747POPC   PO449284  19.840  15.787   5.034
 3747POPC   GL149285  19.955  15.837   5.586
 3747POPC   GL249286  20.055  16.103   5.785
 3747POPC   C1A49287  19.833  15.804   6.112
 3747POPC   D2A49288  19.811  15.981   6.568
 3747POPC   C3A49289  19.740  15.721   6.961
 3747POPC   C4A49290  19.832  15.566   7.380
 3747POPC   C1B49291  19.993  16.323   6.169
 3747POPC   C2B49292  20.242  16.367   6.540
 3747POPC   C3B49293  20.159  16.175   6.897
 3747POPC   C4B49294  19.874  16.121   7.217
 3748POPC   NC349295  22.325  11.967   5.382
 3748POPC   PO449296  21.741  12.305   5.325
 3748POPC   GL149297  21.923  12.122   5.729
 3748POPC   GL249298  21.958  11.760   5.720
 3748POPC   C1A49299  22.067  12.206   6.175
 3748POPC   D2A49300  22.402  12.235   6.514
 3748POPC   C3A49301  22.303  12.432   6.930
 3748POPC   C4A49302  21.929  12.282   7.187
 3748POPC   C1B49303  22.139  11.673   6.136
 3748POPC   C2B49304  22.085  11.839   6.552
 3748POPC   C3B49305  22.237  11.916   6.945
 3748POPC   C4B49306  22.222  11.546   7.194
 3749POPC   NC349307   2.062  10.861   5.484
 3749POPC   PO449308   1.745  10.214   5.392
 3749POPC   GL149309   1.969  10.433   5.745
 3749POPC   GL249310   2.163  10.221   5.976
 3749POPC   C1A49311   2.052  10.676   6.161
 3749POPC   D2A49312   1.959  10.469   6.555
 3749POPC   C3A49313   2.092  10.579   6.958
 3749POPC   C4A49314   2.200  10.302   7.266
 3749POPC   C1B49315   1.707  10.278   6.158
 3749POPC   C2B49316   1.533  10.189   6.572
 3749POPC   C3B49317   1.710  10.199   6.993
 3749POPC   C4B49318   1.689  10.415   7.383
 3750POPC   NC349319   1.852   1.398   5.474
 3750POPC   PO449320   2.162   0.844   5.427
 3750POPC   GL149321   2.152   1.014   5.828
 3750POPC   GL249322   1.805   1.055   5.843
 3750POPC   C1A49323   2.109   1.133   6.264
 3750POPC   D2A49324   2.161   0.860   6.600
 3750POPC   C3A49325   2.122   1.147   6.898
 3750POPC   C4A49326   2.276   1.205   7.293
 3750POPC   C1B49327   1.688   1.405   6.137
 3750POPC   C2B49328   1.807   1.505   6.564
 3750POPC   C3B49329   1.594   1.435   6.934
 3750POPC   C4B49330   1.344   1.553   7.294
 3751POPC   NC349331  43.856  17.256   5.306
 3751POPC   PO449332  44.002  17.909   5.356
 3751POPC   GL149333  44.065  17.594   5.680
 3751POPC   GL249334  43.725  17.562   5.751
 3751POPC   C1A49335  44.138  17.430   6.124
 3751POPC   D2A49336  43.975  17.241   6.530
 3751POPC   C3A49337  44.132  17.401   6.940
 3751POPC   C4A49338  44.101  17.397   7.380
 3751POPC   C1B49339  43.499  17.761   6.099
 3751POPC   C2B49340  43.464  17.601   6.508
 3751POPC   C3B49341  43.657  17.628   6.891
 3751POPC   C4B49342  43.611  17.451   7.267
 3752POPC   NC349343  29.047  39.703   5.329
 3752POPC   PO449344  29.634  40.084   5.470
 3752POPC   GL149345  29.278  40.205   5.782
 3752POPC   GL249346  29.022  39.953   5.764
 3752POPC   C1A49347  29.156  40.168   6.247
 3752POPC   D2A49348  29.066  40.024   6.666
 3752POPC   C3A49349  29.394  40.122   6.960
 3752POPC   C4A49350  29.382  40.305   7.376
 3752POPC   C1B49351  29.256  39.702   6.044
 3752POPC   C2B49352  29.182  39.580   6.461
 3752POPC   C3B49353  29.347  39.600   6.867
 3752POPC   C4B49354  29.139  39.754   7.213
 3753POPC   NC349355  20.470  16.933   5.324
 3753POPC   PO449356  20.693  16.218   5.329
 3753POPC   GL149357  20.684  16.565   5.647
 3753POPC   GL249358  20.345  16.531   5.721
 3753POPC   C1A49359  20.686  16.882   6.028
 3753POPC   D2A49360  20.760  17.073   6.466
 3753POPC   C3A49361  20.723  16.944   6.928
 3753POPC   C4A49362  20.516  16.816   7.350
 3753POPC   C1B49363  20.527  16.390   6.113
 3753POPC   C2B49364  20.722  16.544   6.517
 3753POPC   C3B49365  20.590  16.456   6.968
 3753POPC   C4B49366  20.368  16.258   7.345
 3754POPC   NC349367   4.016  36.274   5.366
 3754POPC   PO449368   4.583  36.544   5.437
 3754POPC   GL149369   4.281  36.496   5.787
 3754POPC   GL249370   4.219  36.109   5.879
 3754POPC   C1A49371   4.262  36.474   6.241
 3754POPC   D2A49372   4.368  36.146   6.508
 3754POPC   C3A49373   4.212  36.064   6.892
 3754POPC   C4A49374   4.211  36.328   7.230
 3754POPC   C1B49375   4.654  36.030   6.113
 3754POPC   C2B49376   4.870  35.948   6.539
 3754POPC   C3B49377   4.700  35.899   6.950
 3754POPC   C4B49378   4.406  35.858   7.306
 3755POPC   NC349379  18.867   2.712   5.531
 3755POPC   PO449380  19.486   2.463   5.331
 3755POPC   GL149381  19.345   2.627   5.748
 3755POPC   GL249382  19.253   2.987   5.778
 3755POPC   C1A49383  19.165   2.538   6.183
 3755POPC   D2A49384  18.842   2.467   6.485
 3755POPC   C3A49385  19.043   2.526   6.878
 3755POPC   C4A49386  19.120   2.577   7.313
 3755POPC   C1B49387  18.964   2.996   6.150
 3755POPC   C2B49388  18.893   2.970   6.608
 3755POPC   C3B49389  19.042   3.037   7.030
 3755POPC   C4B49390  18.909   3.049   7.444
 3756POPC   NC349391  23.279  39.900   5.447
 3756POPC   PO449392  23.346  39.299   5.560
 3756POPC   GL149393  23.146  39.073   5.947
 3756POPC   GL249394  22.903  38.795   5.890
 3756POPC   C1A49395  22.903  39.047   6.374
 3756POPC   D2A49396  22.575  39.170   6.712
 3756POPC   C3A49397  22.736  39.385   7.118
 3756POPC   C4A49398  23.197  39.531   7.176
 3756POPC   C1B49399  23.184  38.612   6.212
 3756POPC   C2B49400  23.293  38.778   6.615
 3756POPC   C3B49401  23.086  39.104   6.881
 3756POPC   C4B49402  23.058  39.060   7.362
 3757POPC   NC349403  23.828  19.985   5.310
 3757POPC   PO449404  23.335  20.172   5.767
 3757POPC   GL149405  23.608  19.870   5.835
 3757POPC   GL249406  23.865  20.136   5.809
 3757POPC   C1A49407  23.529  19.593   6.220
 3757POPC   D2A49408  23.364  19.392   6.626
 3757POPC   C3A49409  23.508  19.673   6.971
 3757POPC   C4A49410  23.950  19.569   7.150
 3757POPC   C1B49411  23.927  19.968   6.236
 3757POPC   C2B49412  23.903  19.798   6.669
 3757POPC   C3B49413  24.088  20.027   7.041
 3757POPC   C4B49414  23.694  20.113   7.219
 3758POPC   NC349415   1.306  44.065   5.696
 3758POPC   PO449416   1.130  43.494   5.330
 3758POPC   GL149417   1.042  43.411   5.792
 3758POPC   GL249418   1.083  43.685   5.908
 3758POPC   C1A49419   1.321  43.430   6.244
 3758POPC   D2A49420   1.257  43.584   6.666
 3758POPC   C3A49421   1.451  43.445   7.026
 3758POPC   C4A49422   1.205  43.677   7.270
 3758POPC   C1B49423   1.164  43.927   6.303
 3758POPC   C2B49424   1.247  44.107   6.713
 3758POPC   C3B49425   1.203  44.184   7.144
 3758POPC   C4B49426   1.107  44.074   7.579
 3759POPC   NC349427  40.433   2.232   5.349
 3759POPC   PO449428  41.194   2.261   5.443
 3759POPC   GL149429  40.907   2.122   5.764
 3759POPC   GL249430  41.215   2.167   5.936
 3759POPC   C1A49431  40.696   1.972   6.168
 3759POPC   D2A49432  40.781   1.628   6.480
 3759POPC   C3A49433  40.967   1.720   6.886
 3759POPC   C4A49434  40.772   1.935   7.230
 3759POPC   C1B49435  41.153   2.132   6.330
 3759POPC   C2B49436  40.900   2.171   6.643
 3759POPC   C3B49437  41.143   2.201   6.985
 3759POPC   C4B49438  41.232   2.112   7.372
 3760POPC   NC349439  39.623  23.036   5.378
 3760POPC   PO449440  39.963  22.538   5.266
 3760POPC   GL149441  39.987  22.801   5.673
 3760POPC   GL249442  40.260  23.009   5.784
 3760POPC   C1A49443  40.047  22.669   6.113
 3760POPC   D2A49444  39.983  22.819   6.542
 3760POPC   C3A49445  40.198  22.635   6.878
 3760POPC   C4A49446  39.994  22.660   7.250
 3760POPC   C1B49447  40.103  23.185   6.174
 3760POPC   C2B49448  40.284  23.236   6.589
 3760POPC   C3B49449  40.363  23.111   7.006
 3760POPC   C4B49450  40.338  23.319   7.387
 3761POPC   NC349451  40.263   2.932   5.388
 3761POPC   PO449452  39.845   2.441   5.356
 3761POPC   GL149453  39.830   2.546   5.870
 3761POPC   GL249454  39.793   2.917   5.872
 3761POPC   C1A49455  39.861   2.544   6.330
 3761POPC   D2A49456  40.210   2.779   6.523
 3761POPC   C3A49457  40.229   2.752   6.938
 3761POPC   C4A49458  40.337   2.409   7.224
 3761POPC   C1B49459  39.846   3.062   6.295
 3761POPC   C2B49460  39.672   3.008   6.710
 3761POPC   C3B49461  39.808   3.048   7.128
 3761POPC   C4B49462  39.927   2.673   7.344
 3762POPC   NC349463  25.706  14.101   5.421
 3762POPC   PO449464  25.985  14.773   5.337
 3762POPC   GL149465  25.982  14.535   5.772
 3762POPC   GL249466  25.894  14.237   5.889
 3762POPC   C1A49467  26.041  14.560   6.254
 3762POPC   D2A49468  25.883  14.304   6.590
 3762POPC   C3A49469  25.965  14.502   6.980
 3762POPC   C4A49470  25.709  14.673   7.302
 3762POPC   C1B49471  26.193  14.089   6.214
 3762POPC   C2B49472  26.383  14.110   6.606
 3762POPC   C3B49473  26.301  13.885   6.944
 3762POPC   C4B49474  26.053  14.090   7.277
 3763POPC   NC349475  18.806  33.229   5.410
 3763POPC   PO449476  19.390  33.043   5.141
 3763POPC   GL149477  19.270  33.067   5.683
 3763POPC   GL249478  18.938  33.065   5.876
 3763POPC   C1A49479  19.342  33.170   6.197
 3763POPC   D2A49480  19.223  33.361   6.623
 3763POPC   C3A49481  19.247  33.138   7.028
 3763POPC   C4A49482  19.217  33.087   7.512
 3763POPC   C1B49483  18.848  33.169   6.320
 3763POPC   C2B49484  18.798  33.079   6.748
 3763POPC   C3B49485  18.760  33.082   7.202
 3763POPC   C4B49486  18.546  33.457   7.323
 3764POPC   NC349487   5.414  10.331   5.434
 3764POPC   PO449488   4.948  10.825   5.425
 3764POPC   GL149489   4.877  10.652   5.852
 3764POPC   GL249490   5.217  10.580   5.907
 3764POPC   C1A49491   4.895  10.541   6.313
 3764POPC   D2A49492   5.048  10.484   6.726
 3764POPC   C3A49493   4.940  10.659   7.142
 3764POPC   C4A49494   5.081  10.556   7.578
 3764POPC   C1B49495   5.459  10.448   6.284
 3764POPC   C2B49496   5.575  10.517   6.716
 3764POPC   C3B49497   5.367  10.407   7.123
 3764POPC   C4B49498   5.454  10.201   7.498
 3765POPC   NC349499  19.826  36.326   5.625
 3765POPC   PO449500  19.885  35.730   5.213
 3765POPC   GL149501  19.813  35.797   5.650
 3765POPC   GL249502  20.108  35.886   5.831
 3765POPC   C1A49503  19.584  35.861   6.026
 3765POPC   D2A49504  19.501  36.136   6.372
 3765POPC   C3A49505  19.720  36.097   6.747
 3765POPC   C4A49506  19.639  36.053   7.176
 3765POPC   C1B49507  20.053  36.045   6.280
 3765POPC   C2B49508  20.144  36.356   6.612
 3765POPC   C3B49509  20.065  36.348   7.059
 3765POPC   C4B49510  20.064  36.084   7.448
 3766POPC   NC349511  31.547  27.548   5.262
 3766POPC   PO449512  31.187  27.884   5.375
 3766POPC   GL149513  31.438  27.725   5.774
 3766POPC   GL249514  31.563  27.390   5.900
 3766POPC   C1A49515  31.319  27.706   6.250
 3766POPC   D2A49516  31.151  27.484   6.641
 3766POPC   C3A49517  31.155  27.700   7.073
 3766POPC   C4A49518  31.483  27.976   7.281
 3766POPC   C1B49519  31.748  27.465   6.369
 3766POPC   C2B49520  31.997  27.384   6.781
 3766POPC   C3B49521  31.914  27.469   7.240
 3766POPC   C4B49522  31.883  27.756   7.597
 3767POPC   NC349523  35.620  27.753   5.267
 3767POPC   PO449524  35.376  27.139   5.162
 3767POPC   GL149525  35.375  27.439   5.610
 3767POPC   GL249526  35.289  27.833   5.648
 3767POPC   C1A49527  35.350  27.525   6.112
 3767POPC   D2A49528  35.553  27.490   6.596
 3767POPC   C3A49529  35.468  27.661   7.053
 3767POPC   C4A49530  35.491  27.706   7.533
 3767POPC   C1B49531  35.143  28.012   6.030
 3767POPC   C2B49532  35.260  27.949   6.470
 3767POPC   C3B49533  35.163  28.063   6.886
 3767POPC   C4B49534  35.128  27.974   7.310
 3768POPC   NC349535   1.840   7.239   5.115
 3768POPC   PO449536   2.034   7.851   5.171
 3768POPC   GL149537   1.863   7.525   5.564
 3768POPC   GL249538   1.720   7.784   5.857
 3768POPC   C1A49539   1.897   7.333   6.034
 3768POPC   D2A49540   1.931   7.115   6.454
 3768POPC   C3A49541   1.918   7.332   6.847
 3768POPC   C4A49542   1.839   7.129   7.236
 3768POPC   C1B49543   1.912   7.877   6.283
 3768POPC   C2B49544   1.880   7.863   6.718
 3768POPC   C3B49545   1.553   7.718   6.965
 3768POPC   C4B49546   1.825   7.638   7.280
 3769POPC   NC349547  14.757  17.286   5.215
 3769POPC   PO449548  14.130  17.490   5.393
 3769POPC   GL149549  14.236  17.444   5.805
 3769POPC   GL249550  14.583  17.355   5.725
 3769POPC   C1A49551  14.168  17.675   6.204
 3769POPC   D2A49552  14.448  17.754   6.554
 3769POPC   C3A49553  14.312  17.637   6.945
 3769POPC   C4A49554  14.484  17.469   7.306
 3769POPC   C1B49555  14.651  17.549   6.127
 3769POPC   C2B49556  14.913  17.443   6.497
 3769POPC   C3B49557  14.813  17.336   6.941
 3769POPC   C4B49558  14.917  17.213   7.406
 3770POPC   NC349559   4.901   5.851   5.412
 3770POPC   PO449560   5.144   6.321   5.192
 3770POPC   GL149561   5.054   6.215   5.721
 3770POPC   GL249562   5.138   5.830   5.849
 3770POPC   C1A49563   5.105   6.179   6.210
 3770POPC   D2A49564   4.946   6.016   6.613
 3770POPC   C3A49565   5.099   5.969   7.048
 3770POPC   C4A49566   4.917   6.019   7.461
 3770POPC   C1B49567   5.054   5.634   6.259
 3770POPC   C2B49568   5.129   5.549   6.715
 3770POPC   C3B49569   5.182   5.469   7.159
 3770POPC   C4B49570   4.867   5.524   7.443
 3771POPC   NC349571  12.538  32.212   5.181
 3771POPC   PO449572  12.128  32.438   5.632
 3771POPC   GL149573  12.006  32.202   5.944
 3771POPC   GL249574  11.640  32.248   5.920
 3771POPC   C1A49575  12.224  32.213   6.344
 3771POPC   D2A49576  12.459  32.179   6.727
 3771POPC   C3A49577  12.182  32.273   7.090
 3771POPC   C4A49578  11.796  32.534   7.095
 3771POPC   C1B49579  11.720  31.975   6.292
 3771POPC   C2B49580  11.641  31.788   6.702
 3771POPC   C3B49581  11.900  31.754   7.047
 3771POPC   C4B49582  11.925  31.968   7.422
 3772POPC   NC349583  13.033   2.838   5.367
 3772POPC   PO449584  12.411   2.508   5.402
 3772POPC   GL149585  12.686   2.703   5.744
 3772POPC   GL249586  13.070   2.567   5.794
 3772POPC   C1A49587  12.791   2.761   6.186
 3772POPC   D2A49588  12.643   2.796   6.598
 3772POPC   C3A49589  12.889   2.822   6.953
 3772POPC   C4A49590  12.632   2.704   7.312
 3772POPC   C1B49591  13.149   2.396   6.205
 3772POPC   C2B49592  12.929   2.378   6.597
 3772POPC   C3B49593  12.904   2.326   7.061
 3772POPC   C4B49594  13.048   2.467   7.475
 3773POPC   NC349595  24.257  36.789   5.294
 3773POPC   PO449596  24.797  36.481   5.545
 3773POPC   GL149597  24.487  36.702   5.802
 3773POPC   GL249598  24.221  36.970   5.770
 3773POPC   C1A49599  24.347  36.617   6.222
 3773POPC   D2A49600  24.130  36.586   6.615
 3773POPC   C3A49601  24.408  36.727   6.964
 3773POPC   C4A49602  24.283  36.921   7.333
 3773POPC   C1B49603  24.474  37.101   6.161
 3773POPC   C2B49604  24.542  37.141   6.621
 3773POPC   C3B49605  24.347  37.303   7.020
 3773POPC   C4B49606  24.599  37.286   7.440
 3774POPC   NC349607  26.491   6.542   5.524
 3774POPC   PO449608  26.972   6.966   5.323
 3774POPC   GL149609  26.855   6.848   5.739
 3774POPC   GL249610  26.947   6.505   5.821
 3774POPC   C1A49611  26.650   6.768   6.153
 3774POPC   D2A49612  26.556   6.503   6.517
 3774POPC   C3A49613  26.582   6.723   6.900
 3774POPC   C4A49614  26.519   6.943   7.266
 3774POPC   C1B49615  26.957   6.306   6.202
 3774POPC   C2B49616  27.077   6.451   6.590
 3774POPC   C3B49617  26.921   6.316   6.959
 3774POPC   C4B49618  26.838   6.497   7.316
 3775POPC   NC349619  38.896  36.765   5.163
 3775POPC   PO449620  39.355  37.157   5.436
 3775POPC   GL149621  39.164  37.094   5.832
 3775POPC   GL249622  39.170  36.719   5.884
 3775POPC   C1A49623  39.212  37.053   6.287
 3775POPC   D2A49624  39.177  36.798   6.647
 3775POPC   C3A49625  39.192  37.076   6.997
 3775POPC   C4A49626  39.022  37.077   7.392
 3775POPC   C1B49627  39.538  36.693   6.210
 3775POPC   C2B49628  39.680  36.877   6.562
 3775POPC   C3B49629  39.581  36.732   6.969
 3775POPC   C4B49630  39.620  36.615   7.393
 3776POPC   NC349631  42.797   5.047   5.458
 3776POPC   PO449632  43.373   5.517   5.531
 3776POPC   GL149633  43.031   5.327   5.838
 3776POPC   GL249634  42.701   5.522   5.842
 3776POPC   C1A49635  42.996   4.928   6.117
 3776POPC   D2A49636  43.217   4.725   6.488
 3776POPC   C3A49637  43.374   5.068   6.791
 3776POPC   C4A49638  43.196   5.201   7.182
 3776POPC   C1B49639  42.585   5.353   6.222
 3776POPC   C2B49640  42.901   5.248   6.522
 3776POPC   C3B49641  42.875   5.467   6.885
 3776POPC   C4B49642  42.708   5.342   7.271
 3777POPC   NC349643  13.605  39.446   5.377
 3777POPC   PO449644  14.009  38.974   5.570
 3777POPC   GL149645  13.640  39.105   5.786
 3777POPC   GL249646  13.835  39.014   6.076
 3777POPC   C1A49647  13.378  39.158   6.168
 3777POPC   D2A49648  13.310  39.427   6.537
 3777POPC   C3A49649  13.476  39.325   6.899
 3777POPC   C4A49650  13.431  39.176   7.283
 3777POPC   C1B49651  13.913  39.430   6.126
 3777POPC   C2B49652  13.783  39.667   6.458
 3777POPC   C3B49653  13.935  39.553   6.853
 3777POPC   C4B49654  13.861  39.425   7.252
 3778POPC   NC349655  37.950  12.433   5.406
 3778POPC   PO449656  37.934  11.746   5.308
 3778POPC   GL149657  37.821  11.999   5.668
 3778POPC   GL249658  37.580  11.765   5.737
 3778POPC   C1A49659  37.649  12.205   6.056
 3778POPC   D2A49660  37.594  12.057   6.494
 3778POPC   C3A49661  37.396  12.103   6.899
 3778POPC   C4A49662  37.666  12.392   7.121
 3778POPC   C1B49663  37.778  11.717   6.136
 3778POPC   C2B49664  37.862  11.625   6.587
 3778POPC   C3B49665  37.853  11.877   6.964
 3778POPC   C4B49666  37.617  11.941   7.333
 3779POPC   NC349667  21.062  31.308   5.383
 3779POPC   PO449668  20.443  31.409   5.370
 3779POPC   GL149669  20.647  31.335   5.766
 3779POPC   GL249670  20.995  31.395   5.893
 3779POPC   C1A49671  20.548  31.490   6.186
 3779POPC   D2A49672  20.657  31.351   6.619
 3779POPC   C3A49673  20.364  31.484   6.934
 3779POPC   C4A49674  20.116  31.861   7.054
 3779POPC   C1B49675  21.041  31.585   6.321
 3779POPC   C2B49676  20.823  31.835   6.657
 3779POPC   C3B49677  20.760  31.755   7.105
 3779POPC   C4B49678  20.990  31.836   7.515
 3780POPC   NC349679  30.262  43.088   5.245
 3780POPC   PO449680  29.625  43.228   5.317
 3780POPC   GL149681  29.788  43.219   5.742
 3780POPC   GL249682  29.789  43.551   5.856
 3780POPC   C1A49683  30.026  43.198   6.143
 3780POPC   D2A49684  29.982  43.353   6.564
 3780POPC   C3A49685  29.986  42.991   6.811
 3780POPC   C4A49686  29.976  42.961   7.249
 3780POPC   C1B49687  29.566  43.423   6.232
 3780POPC   C2B49688  29.522  43.158   6.608
 3780POPC   C3B49689  29.647  43.302   7.027
 3780POPC   C4B49690  29.408  43.458   7.365
 3781POPC   NC349691  11.107  39.477   5.418
 3781POPC   PO449692  11.099  38.762   5.359
 3781POPC   GL149693  11.176  39.026   5.718
 3781POPC   GL249694  11.474  39.164   5.618
 3781POPC   C1A49695  11.352  39.001   6.160
 3781POPC   D2A49696  11.522  39.033   6.582
 3781POPC   C3A49697  11.255  39.078   6.975
 3781POPC   C4A49698  11.270  38.997   7.452
 3781POPC   C1B49699  11.413  39.472   5.978
 3781POPC   C2B49700  11.421  39.529   6.408
 3781POPC   C3B49701  11.495  39.489   6.831
 3781POPC   C4B49702  11.317  39.565   7.226
 3782POPC   NC349703  35.500   5.139   5.383
 3782POPC   PO449704  34.845   5.280   5.295
 3782POPC   GL149705  35.035   5.179   5.709
 3782POPC   GL249706  35.296   5.397   5.857
 3782POPC   C1A49707  35.236   4.901   6.046
 3782POPC   D2A49708  35.393   4.783   6.479
 3782POPC   C3A49709  35.373   5.048   6.865
 3782POPC   C4A49710  35.236   4.909   7.286
 3782POPC   C1B49711  35.466   5.307   6.298
 3782POPC   C2B49712  35.755   5.368   6.663
 3782POPC   C3B49713  35.682   5.411   7.106
 3782POPC   C4B49714  35.380   5.378   7.406
 3783POPC   NC349715  18.057  33.880   5.529
 3783POPC   PO449716  18.532  34.442   5.448
 3783POPC   GL149717  18.389  34.151   5.802
 3783POPC   GL249718  18.481  33.819   5.882
 3783POPC   C1A49719  18.104  33.998   6.176
 3783POPC   D2A49720  18.191  33.887   6.608
 3783POPC   C3A49721  18.005  34.044   6.993
 3783POPC   C4A49722  18.255  33.901   7.332
 3783POPC   C1B49723  18.567  33.634   6.283
 3783POPC   C2B49724  18.448  33.440   6.675
 3783POPC   C3B49725  18.153  33.505   7.003
 3783POPC   C4B49726  18.041  33.424   7.442
 3784POPC   NC349727  36.641  19.777   5.123
 3784POPC   PO449728  37.213  20.044   5.429
 3784POPC   GL149729  37.006  19.783   5.735
 3784POPC   GL249730  37.277  19.533   5.813
 3784POPC   C1A49731  36.764  19.842   6.112
 3784POPC   D2A49732  36.810  19.673   6.522
 3784POPC   C3A49733  36.681  19.815   6.941
 3784POPC   C4A49734  36.841  19.536   7.261
 3784POPC   C1B49735  37.261  19.733   6.216
 3784POPC   C2B49736  37.165  20.045   6.493
 3784POPC   C3B49737  37.170  19.854   6.869
 3784POPC   C4B49738  37.090  19.975   7.282
 3785POPC   NC349739  36.838  17.101   5.295
 3785POPC   PO449740  36.988  16.418   5.391
 3785POPC   GL149741  36.861  16.730   5.738
 3785POPC   GL249742  36.616  17.031   5.751
 3785POPC   C1A49743  37.032  16.770   6.164
 3785POPC   D2A49744  37.099  16.472   6.502
 3785POPC   C3A49745  36.995  16.712   6.847
 3785POPC   C4A49746  37.162  16.654   7.235
 3785POPC   C1B49747  36.536  16.796   6.124
 3785POPC   C2B49748  36.615  16.946   6.552
 3785POPC   C3B49749  36.411  16.873   6.944
 3785POPC   C4B49750  36.568  16.586   7.220
 3786POPC   NC349751  39.014  34.747   5.416
 3786POPC   PO449752  39.712  34.587   5.433
 3786POPC   GL149753  39.490  34.674   5.846
 3786POPC   GL249754  39.175  34.523   5.855
 3786POPC   C1A49755  39.411  34.608   6.317
 3786POPC   D2A49756  39.216  34.742   6.736
 3786POPC   C3A49757  39.420  34.546   7.140
 3786POPC   C4A49758  39.402  34.313   7.544
 3786POPC   C1B49759  38.929  34.721   6.175
 3786POPC   C2B49760  38.678  34.580   6.511
 3786POPC   C3B49761  38.721  34.732   6.906
 3786POPC   C4B49762  38.904  34.729   7.293
 3787POPC   NC349763  23.113   4.906   5.551
 3787POPC   PO449764  22.824   5.543   5.527
 3787POPC   GL149765  23.046   5.382   5.875
 3787POPC   GL249766  23.370   5.417   5.770
 3787POPC   C1A49767  22.971   5.321   6.334
 3787POPC   D2A49768  22.718   5.109   6.655
 3787POPC   C3A49769  22.972   5.038   7.015
 3787POPC   C4A49770  22.933   5.120   7.462
 3787POPC   C1B49771  23.464   5.293   6.197
 3787POPC   C2B49772  23.413   5.144   6.621
 3787POPC   C3B49773  23.357   5.392   6.975
 3787POPC   C4B49774  23.596   5.580   7.291
 3788POPC   NC349775  30.005  44.477   5.292
 3788POPC   PO449776  30.142   0.160   5.430
 3788POPC   GL149777  29.968  44.931   5.785
 3788POPC   GL249778  29.717  44.720   5.693
 3788POPC   C1A49779  29.946  44.617   6.148
 3788POPC   D2A49780  30.187  44.536   6.546
 3788POPC   C3A49781  29.982  44.592   6.938
 3788POPC   C4A49782  30.141  44.733   7.321
 3788POPC   C1B49783  29.583  44.970   6.104
 3788POPC   C2B49784  29.771  44.986   6.511
 3788POPC   C3B49785  29.686   0.031   6.939
 3788POPC   C4B49786  29.634  44.766   7.287
 3789POPC   NC349787  37.320  31.315   5.588
 3789POPC   PO449788  37.909  31.624   5.341
 3789POPC   GL149789  37.759  31.527   5.780
 3789POPC   GL249790  37.626  31.240   5.971
 3789POPC   C1A49791  37.744  31.637   6.263
 3789POPC   D2A49792  37.577  31.855   6.647
 3789POPC   C3A49793  37.710  31.626   6.989
 3789POPC   C4A49794  37.647  31.231   7.188
 3789POPC   C1B49795  37.314  31.292   6.306
 3789POPC   C2B49796  37.379  31.300   6.757
 3789POPC   C3B49797  37.139  31.175   7.131
 3789POPC   C4B49798  37.323  31.170   7.590
 3790POPC   NC349799  38.791   8.486   5.649
 3790POPC   PO449800  38.305   8.349   5.247
 3790POPC   GL149801  38.347   8.209   5.682
 3790POPC   GL249802  38.035   8.153   5.743
 3790POPC   C1A49803  38.351   8.247   6.154
 3790POPC   D2A49804  38.629   8.387   6.488
 3790POPC   C3A49805  38.435   8.215   6.822
 3790POPC   C4A49806  38.430   8.338   7.212
 3790POPC   C1B49807  37.961   7.901   6.096
 3790POPC   C2B49808  38.098   7.962   6.518
 3790POPC   C3B49809  38.053   7.759   6.905
 3790POPC   C4B49810  38.212   7.904   7.277
 3791POPC   NC349811  11.130  35.915   5.312
 3791POPC   PO449812  11.023  36.594   5.274
 3791POPC   GL149813  11.328  36.440   5.653
 3791POPC   GL249814  11.344  36.075   5.730
 3791POPC   C1A49815  11.240  36.332   6.128
 3791POPC   D2A49816  11.307  36.148   6.540
 3791POPC   C3A49817  11.184  36.291   6.914
 3791POPC   C4A49818  11.179  36.174   7.308
 3791POPC   C1B49819  11.512  35.897   6.135
 3791POPC   C2B49820  11.744  35.897   6.555
 3791POPC   C3B49821  11.526  35.859   6.989
 3791POPC   C4B49822  11.535  35.873   7.503
 3792POPC   NC349823  38.732  33.654   5.485
 3792POPC   PO449824  38.229  34.093   5.591
 3792POPC   GL149825  38.246  33.819   5.903
 3792POPC   GL249826  38.317  33.499   5.784
 3792POPC   C1A49827  38.429  33.771   6.299
 3792POPC   D2A49828  38.741  33.855   6.599
 3792POPC   C3A49829  38.599  34.033   7.004
 3792POPC   C4A49830  38.564  34.074   7.492
 3792POPC   C1B49831  38.628  33.354   6.085
 3792POPC   C2B49832  38.689  33.332   6.529
 3792POPC   C3B49833  38.622  33.492   6.945
 3792POPC   C4B49834  38.403  33.648   7.280
 3793POPC   NC349835  12.377  17.667   5.448
 3793POPC   PO449836  11.909  17.242   5.339
 3793POPC   GL149837  12.207  17.264   5.747
 3793POPC   GL249838  12.189  17.610   5.912
 3793POPC   C1A49839  12.176  17.257   6.266
 3793POPC   D2A49840  12.253  17.346   6.675
 3793POPC   C3A49841  12.042  17.445   7.046
 3793POPC   C4A49842  11.693  17.466   7.309
 3793POPC   C1B49843  12.001  17.742   6.303
 3793POPC   C2B49844  12.149  17.858   6.677
 3793POPC   C3B49845  11.963  17.983   7.006
 3793POPC   C4B49846  11.981  17.855   7.394
 3794POPC   NC349847  20.368  43.830   5.410
 3794POPC   PO449848  21.043  43.838   5.469
 3794POPC   GL149849  20.709  43.925   5.770
 3794POPC   GL249850  20.885  44.186   5.873
 3794POPC   C1A49851  20.474  43.766   6.156
 3794POPC   D2A49852  20.284  43.856   6.563
 3794POPC   C3A49853  20.578  43.947   6.899
 3794POPC   C4A49854  20.588  44.154   7.287
 3794POPC   C1B49855  20.981  43.868   6.189
 3794POPC   C2B49856  20.812  43.633   6.527
 3794POPC   C3B49857  20.938  43.567   6.936
 3794POPC   C4B49858  20.879  43.730   7.325
 3795POPC   NC349859  39.732   3.700   5.451
 3795POPC   PO449860  40.270   3.339   5.594
 3795POPC   GL149861  40.094   3.700   5.831
 3795POPC   GL249862  39.853   3.456   5.925
 3795POPC   C1A49863  39.887   3.834   6.259
 3795POPC   D2A49864  40.068   3.734   6.671
 3795POPC   C3A49865  39.931   3.699   7.102
 3795POPC   C4A49866  40.120   3.656   7.523
 3795POPC   C1B49867  40.195   3.425   6.274
 3795POPC   C2B49868  40.164   3.246   6.724
 3795POPC   C3B49869  40.259   3.292   7.165
 3795POPC   C4B49870  40.133   3.106   7.549
 3796POPC   NC349871  39.834  20.393   5.419
 3796POPC   PO449872  40.064  20.964   5.497
 3796POPC   GL149873  40.022  20.689   5.849
 3796POPC   GL249874  40.329  20.519   5.998
 3796POPC   C1A49875  39.974  20.780   6.296
 3796POPC   D2A49876  40.303  20.877   6.594
 3796POPC   C3A49877  40.196  20.804   7.017
 3796POPC   C4A49878  39.899  20.649   7.311
 3796POPC   C1B49879  40.089  20.297   6.284
 3796POPC   C2B49880  40.032  20.420   6.696
 3796POPC   C3B49881  39.987  20.218   7.064
 3796POPC   C4B49882  40.252  20.200   7.430
 3797POPC   NC349883   7.060  14.497   5.650
 3797POPC   PO449884   6.403  14.406   5.380
 3797POPC   GL149885   6.388  14.227   5.762
 3797POPC   GL249886   6.717  14.040   5.808
 3797POPC   C1A49887   6.572  14.407   6.144
 3797POPC   D2A49888   6.710  14.702   6.445
 3797POPC   C3A49889   6.749  14.579   6.871
 3797POPC   C4A49890   6.464  14.505   7.191
 3797POPC   C1B49891   6.848  13.987   6.272
 3797POPC   C2B49892   6.994  14.129   6.706
 3797POPC   C3B49893   6.828  14.118   7.145
 3797POPC   C4B49894   6.787  13.869   7.543
 3798POPC   NC349895  42.598  14.916   5.235
 3798POPC   PO449896  42.345  15.569   5.381
 3798POPC   GL149897  42.508  15.245   5.693
 3798POPC   GL249898  42.672  14.887   5.743
 3798POPC   C1A49899  42.457  15.329   6.152
 3798POPC   D2A49900  42.606  15.292   6.591
 3798POPC   C3A49901  42.320  15.310   6.936
 3798POPC   C4A49902  42.543  15.313   7.309
 3798POPC   C1B49903  42.451  14.798   6.133
 3798POPC   C2B49904  42.541  14.791   6.544
 3798POPC   C3B49905  42.606  14.878   6.960
 3798POPC   C4B49906  42.313  14.848   7.223
 3799POPC   NC349907  38.898  39.033   5.647
 3799POPC   PO449908  38.363  39.235   5.239
 3799POPC   GL149909  38.387  39.068   5.653
 3799POPC   GL249910  38.459  39.409   5.779
 3799POPC   C1A49911  38.326  39.068   6.134
 3799POPC   D2A49912  38.206  39.215   6.571
 3799POPC   C3A49913  38.414  39.109   7.021
 3799POPC   C4A49914  38.628  39.125   7.467
 3799POPC   C1B49915  38.152  39.571   6.123
 3799POPC   C2B49916  38.075  39.731   6.555
 3799POPC   C3B49917  38.086  39.531   6.972
 3799POPC   C4B49918  38.262  39.462   7.382
 3800POPC   NC349919   4.837  15.422   5.503
 3800POPC   PO449920   5.318  15.043   5.308
 3800POPC   GL149921   5.117  15.058   5.734
 3800POPC   GL249922   5.438  14.927   5.814
 3800POPC   C1A49923   5.077  15.233   6.181
 3800POPC   D2A49924   4.917  15.199   6.618
 3800POPC   C3A49925   5.209  15.281   6.954
 3800POPC   C4A49926   5.299  15.472   7.341
 3800POPC   C1B49927   5.232  14.737   6.144
 3800POPC   C2B49928   5.325  14.858   6.559
 3800POPC   C3B49929   5.512  14.733   6.933
 3800POPC   C4B49930   5.347  14.916   7.273
 3801POPC   NC349931  29.136   4.930   5.321
 3801POPC   PO449932  28.606   5.205   5.606
 3801POPC   GL149933  28.994   5.181   5.803
 3801POPC   GL249934  29.350   5.122   5.756
 3801POPC   C1A49935  29.078   5.255   6.211
 3801POPC   D2A49936  29.121   5.081   6.594
 3801POPC   C3A49937  28.971   5.306   6.946
 3801POPC   C4A49938  29.116   5.220   7.333
 3801POPC   C1B49939  29.541   5.045   6.163
 3801POPC   C2B49940  29.699   5.136   6.560
 3801POPC   C3B49941  29.478   5.110   6.952
 3801POPC   C4B49942  29.615   5.212   7.338
 3802POPC   NC349943  22.368  29.292   5.416
 3802POPC   PO449944  21.747  28.915   5.298
 3802POPC   GL149945  21.906  28.932   5.751
 3802POPC   GL249946  22.163  29.168   5.856
 3802POPC   C1A49947  22.040  28.843   6.221
 3802POPC   D2A49948  22.137  29.127   6.577
 3802POPC   C3A49949  22.058  28.935   6.972
 3802POPC   C4A49950  21.860  28.852   7.366
 3802POPC   C1B49951  22.494  29.060   6.154
 3802POPC   C2B49952  22.535  28.818   6.508
 3802POPC   C3B49953  22.577  28.980   6.897
 3802POPC   C4B49954  22.457  28.875   7.284
 3803POPC   NC349955  41.127  24.893   5.421
 3803POPC   PO449956  40.899  25.466   5.173
 3803POPC   GL149957  40.895  25.302   5.641
 3803POPC   GL249958  40.770  24.978   5.795
 3803POPC   C1A49959  40.782  25.435   6.076
 3803POPC   D2A49960  40.783  25.620   6.493
 3803POPC   C3A49961  40.787  25.369   6.906
 3803POPC   C4A49962  40.717  25.588   7.305
 3803POPC   C1B49963  41.105  24.898   6.138
 3803POPC   C2B49964  41.238  24.748   6.591
 3803POPC   C3B49965  41.062  24.851   7.025
 3803POPC   C4B49966  40.656  24.652   7.186
 3804POPC   NC349967  15.312  27.722   5.220
 3804POPC   PO449968  14.761  27.427   5.025
 3804POPC   GL149969  14.857  27.574   5.482
 3804POPC   GL249970  15.102  27.392   5.653
 3804POPC   C1A49971  14.862  27.771   5.960
 3804POPC   D2A49972  14.923  27.879   6.459
 3804POPC   C3A49973  15.076  27.763   6.922
 3804POPC   C4A49974  15.338  27.722   7.328
 3804POPC   C1B49975  15.030  27.318   6.127
 3804POPC   C2B49976  15.084  27.363   6.597
 3804POPC   C3B49977  15.190  27.279   7.050
 3804POPC   C4B49978  15.239  27.263   7.502
 3805POPC   NC349979  12.206  14.262   5.497
 3805POPC   PO449980  12.403  14.919   5.489
 3805POPC   GL149981  12.268  14.651   5.879
 3805POPC   GL249982  11.923  14.673   5.984
 3805POPC   C1A49983  12.189  14.349   6.258
 3805POPC   D2A49984  11.924  14.299   6.628
 3805POPC   C3A49985  12.152  14.199   7.004
 3805POPC   C4A49986  12.433  13.828   6.980
 3805POPC   C1B49987  11.982  14.810   6.362
 3805POPC   C2B49988  11.884  14.773   6.784
 3805POPC   C3B49989  12.085  14.907   7.118
 3805POPC   C4B49990  12.291  14.698   7.422
 3806POPC   NC349991  14.794  24.070   5.500
 3806POPC   PO449992  14.223  24.372   5.478
 3806POPC   GL149993  14.343  24.459   5.890
 3806POPC   GL249994  14.699  24.393   5.870
 3806POPC   C1A49995  14.135  24.584   6.279
 3806POPC   D2A49996  14.125  24.728   6.708
 3806POPC   C3A49997  14.090  24.436   7.032
 3806POPC   C4A49998  14.285  24.466   7.443
 3806POPC   C1B49999  14.714  24.543   6.269
 3806POPC   C2B50000  14.650  24.708   6.662
 3806POPC   C3B50001  14.589  24.523   7.028
 3806POPC   C4B50002  14.730  24.717   7.365
 3807POPC   NC350003  34.619  15.540   5.465
 3807POPC   PO450004  34.859  14.925   5.339
 3807POPC   GL150005  34.615  15.081   5.710
 3807POPC   GL250006  34.264  15.220   5.698
 3807POPC   C1A50007  34.650  15.314   6.131
 3807POPC   D2A50008  34.642  15.468   6.590
 3807POPC   C3A50009  34.751  15.128   6.933
 3807POPC   C4A50010  34.994  14.900   7.310
 3807POPC   C1B50011  34.131  15.126   6.121
 3807POPC   C2B50012  33.959  15.172   6.548
 3807POPC   C3B50013  34.116  15.309   6.940
 3807POPC   C4B50014  34.421  15.622   7.043
 3808POPC   NC350015   3.753  26.694   5.366
 3808POPC   PO450016   3.924  27.285   5.405
 3808POPC   GL150017   3.756  27.019   5.793
 3808POPC   GL250018   3.534  26.685   5.822
 3808POPC   C1A50019   3.701  26.930   6.255
 3808POPC   D2A50020   3.914  27.061   6.641
 3808POPC   C3A50021   3.796  26.941   7.054
 3808POPC   C4A50022   3.593  27.054   7.457
 3808POPC   C1B50023   3.232  26.723   6.166
 3808POPC   C2B50024   3.336  26.828   6.613
 3808POPC   C3B50025   3.279  26.911   7.046
 3808POPC   C4B50026   3.462  26.574   7.273
 3809POPC   NC350027   6.933  22.202   5.306
 3809POPC   PO450028   6.331  21.959   5.439
 3809POPC   GL150029   6.632  22.078   5.776
 3809POPC   GL250030   7.015  22.147   5.815
 3809POPC   C1A50031   6.520  22.256   6.189
 3809POPC   D2A50032   6.311  22.081   6.575
 3809POPC   C3A50033   6.575  22.197   6.939
 3809POPC   C4A50034   6.688  22.210   7.394
 3809POPC   C1B50035   6.971  21.979   6.259
 3809POPC   C2B50036   6.967  21.913   6.733
 3809POPC   C3B50037   6.783  21.769   7.138
 3809POPC   C4B50038   6.578  21.673   7.551
 3810POPC   NC350039  18.811  16.927   5.413
 3810POPC   PO450040  19.111  16.384   5.366
 3810POPC   GL150041  19.005  16.475   5.808
 3810POPC   GL250042  18.907  16.833   5.909
 3810POPC   C1A50043  19.118  16.529   6.254
 3810POPC   D2A50044  19.329  16.508   6.659
 3810POPC   C3A50045  19.115  16.691   7.013
 3810POPC   C4A50046  18.929  16.584   7.407
 3810POPC   C1B50047  18.675  16.849   6.312
 3810POPC   C2B50048  18.767  16.559   6.618
 3810POPC   C3B50049  18.680  16.417   6.980
 3810POPC   C4B50050  18.602  16.843   7.107
 3811POPC   NC350051   9.765  42.111   5.263
 3811POPC   PO450052   9.888  41.459   5.309
 3811POPC   GL150053   9.811  41.643   5.714
 3811POPC   GL250054   9.489  41.833   5.721
 3811POPC   C1A50055   9.733  41.468   6.147
 3811POPC   D2A50056   9.730  41.611   6.584
 3811POPC   C3A50057   9.871  41.356   6.952
 3811POPC   C4A50058   9.922  41.288   7.409
 3811POPC   C1B50059   9.484  41.915   6.171
 3811POPC   C2B50060   9.550  42.099   6.588
 3811POPC   C3B50061   9.585  41.874   6.995
 3811POPC   C4B50062   9.495  41.533   7.255
 3812POPC   NC350063   0.399   7.088   5.614
 3812POPC   PO450064   0.859   7.567   5.365
 3812POPC   GL150065   0.550   7.540   5.755
 3812POPC   GL250066   0.309   7.788   5.833
 3812POPC   C1A50067   0.450   7.385   6.176
 3812POPC   D2A50068   0.373   7.192   6.555
 3812POPC   C3A50069   0.497   7.380   6.931
 3812POPC   C4A50070   0.558   7.283   7.328
 3812POPC   C1B50071   0.102   7.733   6.242
 3812POPC   C2B50072   0.080   7.586   6.663
 3812POPC   C3B50073   0.151   7.757   7.067
 3812POPC   C4B50074  44.998   7.729   7.445
 3813POPC   NC350075  25.749  19.452   5.459
 3813POPC   PO450076  26.432  19.269   5.368
 3813POPC   GL150077  26.156  19.202   5.720
 3813POPC   GL250078  26.131  19.558   5.779
 3813POPC   C1A50079  26.100  19.006   6.138
 3813POPC   D2A50080  26.318  19.050   6.542
 3813POPC   C3A50081  26.256  18.850   6.908
 3813POPC   C4A50082  25.895  18.917   7.124
 3813POPC   C1B50083  25.841  19.429   6.118
 3813POPC   C2B50084  25.849  19.273   6.547
 3813POPC   C3B50085  26.077  19.360   6.902
 3813POPC   C4B50086  26.273  19.213   7.273
 3814POPC   NC350087  25.248   9.659   5.225
 3814POPC   PO450088  25.409  10.308   5.336
 3814POPC   GL150089  25.290   9.988   5.649
 3814POPC   GL250090  25.465   9.644   5.693
 3814POPC   C1A50091  25.155   9.936   6.076
 3814POPC   D2A50092  24.904   9.823   6.430
 3814POPC   C3A50093  25.152   9.767   6.791
 3814POPC   C4A50094  25.073   9.784   7.234
 3814POPC   C1B50095  25.559   9.445   6.108
 3814POPC   C2B50096  25.510   9.405   6.569
 3814POPC   C3B50097  25.714   9.356   6.956
 3814POPC   C4B50098  25.582   9.353   7.375
 3815POPC   NC350099  12.117  36.468   5.555
 3815POPC   PO450100  12.356  35.955   5.240
 3815POPC   GL150101  12.171  35.914   5.658
 3815POPC   GL250102  11.845  36.024   5.689
 3815POPC   C1A50103  12.082  35.870   6.136
 3815POPC   D2A50104  12.246  35.733   6.569
 3815POPC   C3A50105  12.083  35.912   6.962
 3815POPC   C4A50106  12.314  35.912   7.330
 3815POPC   C1B50107  11.753  36.331   6.045
 3815POPC   C2B50108  11.722  36.436   6.454
 3815POPC   C3B50109  11.648  36.491   6.872
 3815POPC   C4B50110  11.741  36.254   7.211
 3816POPC   NC350111   8.772   7.349   5.325
 3816POPC   PO450112   9.250   7.771   5.338
 3816POPC   GL150113   9.049   7.552   5.725
 3816POPC   GL250114   9.042   7.178   5.792
 3816POPC   C1A50115   8.872   7.522   6.155
 3816POPC   D2A50116   8.889   7.412   6.592
 3816POPC   C3A50117   8.754   7.608   6.970
 3816POPC   C4A50118   8.743   7.446   7.387
 3816POPC   C1B50119   9.127   7.059   6.255
 3816POPC   C2B50120   9.356   7.234   6.645
 3816POPC   C3B50121   9.193   7.289   7.101
 3816POPC   C4B50122   9.224   7.356   7.575
 3817POPC   NC350123  12.288  15.721   5.398
 3817POPC   PO450124  12.437  16.398   5.440
 3817POPC   GL150125  12.270  16.089   5.745
 3817POPC   GL250126  11.902  16.000   5.639
 3817POPC   C1A50127  12.161  16.068   6.185
 3817POPC   D2A50128  12.032  16.112   6.601
 3817POPC   C3A50129  12.298  16.009   6.933
 3817POPC   C4A50130  12.038  15.985   7.239
 3817POPC   C1B50131  11.759  15.820   6.041
 3817POPC   C2B50132  11.772  15.682   6.456
 3817POPC   C3B50133  11.992  15.599   6.828
 3817POPC   C4B50134  11.950  15.494   7.252
 3818POPC   NC350135  18.158  37.795   5.349
 3818POPC   PO450136  18.267  37.273   5.528
 3818POPC   GL150137  18.246  37.591   5.857
 3818POPC   GL250138  18.110  37.965   5.815
 3818POPC   C1A50139  18.414  37.539   6.263
 3818POPC   D2A50140  18.516  37.350   6.641
 3818POPC   C3A50141  18.461  37.639   6.953
 3818POPC   C4A50142  18.560  37.875   7.302
 3818POPC   C1B50143  18.102  37.958   6.226
 3818POPC   C2B50144  18.102  37.792   6.597
 3818POPC   C3B50145  17.997  37.857   6.974
 3818POPC   C4B50146  18.091  37.664   7.337
 3819POPC   NC350147  40.086  27.204   5.239
 3819POPC   PO450148  39.784  27.645   5.591
 3819POPC   GL150149  39.865  27.368   5.901
 3819POPC   GL250150  40.192  27.441   5.893
 3819POPC   C1A50151  39.927  27.358   6.323
 3819POPC   D2A50152  39.873  27.672   6.631
 3819POPC   C3A50153  39.903  27.491   7.028
 3819POPC   C4A50154  39.672  27.619   7.375
 3819POPC   C1B50155  40.244  27.744   6.255
 3819POPC   C2B50156  40.401  27.738   6.667
 3819POPC   C3B50157  40.252  27.858   7.067
 3819POPC   C4B50158  40.201  27.629   7.431
 3820POPC   NC350159  19.330  37.816   5.417
 3820POPC   PO450160  19.123  37.178   5.263
 3820POPC   GL150161  18.993  37.439   5.620
 3820POPC   GL250162  18.680  37.652   5.601
 3820POPC   C1A50163  18.913  37.523   6.062
 3820POPC   D2A50164  18.951  37.645   6.508
 3820POPC   C3A50165  18.938  37.410   6.922
 3820POPC   C4A50166  19.277  37.247   7.178
 3820POPC   C1B50167  18.598  37.942   6.007
 3820POPC   C2B50168  18.572  37.981   6.494
 3820POPC   C3B50169  18.866  37.969   6.894
 3820POPC   C4B50170  19.179  37.775   7.201
 3821POPC   NC350171  21.380   0.925   5.563
 3821POPC   PO450172  21.008   1.507   5.447
 3821POPC   GL150173  21.166   1.322   5.799
 3821POPC   GL250174  20.920   1.045   5.676
 3821POPC   C1A50175  21.446   1.175   6.178
 3821POPC   D2A50176  21.735   1.027   6.518
 3821POPC   C3A50177  21.590   0.967   6.945
 3821POPC   C4A50178  21.561   1.266   7.290
 3821POPC   C1B50179  20.978   0.980   6.104
 3821POPC   C2B50180  21.049   1.028   6.507
 3821POPC   C3B50181  20.992   0.808   6.857
 3821POPC   C4B50182  21.139   1.006   7.228
 3822POPC   NC350183  39.262  11.651   5.302
 3822POPC   PO450184  39.104  12.366   5.272
 3822POPC   GL150185  39.082  12.201   5.673
 3822POPC   GL250186  39.439  12.214   5.675
 3822POPC   C1A50187  39.005  12.297   6.115
 3822POPC   D2A50188  39.057  12.076   6.491
 3822POPC   C3A50189  39.080  12.223   6.878
 3822POPC   C4A50190  39.302  12.111   7.236
 3822POPC   C1B50191  39.449  11.873   5.976
 3822POPC   C2B50192  39.414  11.692   6.393
 3822POPC   C3B50193  39.350  11.763   6.830
 3822POPC   C4B50194  39.569  11.673   7.220
 3823POPC   NC350195  23.216  30.770   5.362
 3823POPC   PO450196  22.630  30.417   5.391
 3823POPC   GL150197  22.890  30.505   5.761
 3823POPC   GL250198  22.979  30.830   5.828
 3823POPC   C1A50199  23.076  30.445   6.191
 3823POPC   D2A50200  23.283  30.519   6.579
 3823POPC   C3A50201  23.034  30.542   6.956
 3823POPC   C4A50202  23.151  30.588   7.411
 3823POPC   C1B50203  22.852  31.010   6.185
 3823POPC   C2B50204  22.859  30.839   6.555
 3823POPC   C3B50205  22.616  30.850   6.907
 3823POPC   C4B50206  22.832  30.943   7.229
 3824POPC   NC350207  28.659  29.081   5.073
 3824POPC   PO450208  29.250  29.303   5.476
 3824POPC   GL150209  29.223  29.056   5.870
 3824POPC   GL250210  28.880  29.018   6.003
 3824POPC   C1A50211  29.227  28.846   6.292
 3824POPC   D2A50212  28.988  28.893   6.673
 3824POPC   C3A50213  29.223  28.912   7.047
 3824POPC   C4A50214  29.289  29.091   7.441
 3824POPC   C1B50215  29.034  29.303   6.336
 3824POPC   C2B50216  29.080  29.390   6.773
 3824POPC   C3B50217  29.204  29.503   7.148
 3824POPC   C4B50218  28.915  29.410   7.495
 3825POPC   NC350219  41.243   9.192   5.426
 3825POPC   PO450220  41.800   8.807   5.550
 3825POPC   GL150221  41.452   8.863   5.832
 3825POPC   GL250222  41.165   8.690   5.672
 3825POPC   C1A50223  41.525   8.932   6.287
 3825POPC   D2A50224  41.877   9.013   6.590
 3825POPC   C3A50225  41.773   9.129   7.016
 3825POPC   C4A50226  41.704   8.846   7.353
 3825POPC   C1B50227  41.063   8.690   6.115
 3825POPC   C2B50228  41.239   8.580   6.523
 3825POPC   C3B50229  41.406   8.765   6.883
 3825POPC   C4B50230  41.245   9.046   7.200
 3826POPC   NC350231  12.813  29.672   5.357
 3826POPC   PO450232  12.671  30.288   5.630
 3826POPC   GL150233  12.677  29.990   5.910
 3826POPC   GL250234  12.956  29.810   5.829
 3826POPC   C1A50235  12.809  30.018   6.322
 3826POPC   D2A50236  13.068  30.152   6.669
 3826POPC   C3A50237  12.987  29.986   7.097
 3826POPC   C4A50238  12.938  29.986   7.557
 3826POPC   C1B50239  12.996  29.551   6.181
 3826POPC   C2B50240  12.998  29.650   6.631
 3826POPC   C3B50241  13.265  29.568   6.959
 3826POPC   C4B50242  13.232  29.610   7.397
 3827POPC   NC350243  40.371  12.778   5.650
 3827POPC   PO450244  40.941  12.964   5.444
 3827POPC   GL150245  40.917  13.035   5.889
 3827POPC   GL250246  41.142  12.786   6.051
 3827POPC   C1A50247  40.646  12.943   6.250
 3827POPC   D2A50248  40.487  12.591   6.544
 3827POPC   C3A50249  40.694  12.546   6.964
 3827POPC   C4A50250  40.820  12.414   7.375
 3827POPC   C1B50251  41.094  12.909   6.514
 3827POPC   C2B50252  40.711  13.035   6.755
 3827POPC   C3B50253  40.491  13.013   7.139
 3827POPC   C4B50254  40.839  12.925   7.384
 3828POPC   NC350255   0.856   8.448   5.426
 3828POPC   PO450256   1.355   8.008   5.242
 3828POPC   GL150257   1.292   8.093   5.717
 3828POPC   GL250258   1.253   8.467   5.789
 3828POPC   C1A50259   1.262   7.882   6.152
 3828POPC   D2A50260   1.140   7.768   6.579
 3828POPC   C3A50261   1.141   8.035   6.918
 3828POPC   C4A50262   1.265   7.997   7.335
 3828POPC   C1B50263   0.955   8.302   6.102
 3828POPC   C2B50264   0.810   8.191   6.532
 3828POPC   C3B50265   0.748   8.354   6.967
 3828POPC   C4B50266   0.792   8.196   7.402
 3829POPC   NC350267  38.304  25.631   5.577
 3829POPC   PO450268  38.490  25.219   5.088
 3829POPC   GL150269  38.679  25.236   5.579
 3829POPC   GL250270  38.367  25.209   5.842
 3829POPC   C1A50271  38.799  25.178   6.069
 3829POPC   D2A50272  38.431  25.043   6.384
 3829POPC   C3A50273  38.432  25.119   6.858
 3829POPC   C4A50274  38.680  25.180   7.252
 3829POPC   C1B50275  38.437  25.527   6.211
 3829POPC   C2B50276  38.333  25.581   6.649
 3829POPC   C3B50277  38.406  25.597   7.118
 3829POPC   C4B50278  38.367  25.470   7.573
 3830POPC   NC350279  32.040  40.956   4.976
 3830POPC   PO450280  32.422  40.557   5.491
 3830POPC   GL150281  32.248  40.783   5.820
 3830POPC   GL250282  31.942  40.993   5.715
 3830POPC   C1A50283  32.157  40.550   6.185
 3830POPC   D2A50284  32.264  40.319   6.537
 3830POPC   C3A50285  32.241  40.542   6.875
 3830POPC   C4A50286  32.031  40.813   7.116
 3830POPC   C1B50287  31.936  41.021   6.191
 3830POPC   C2B50288  32.202  40.944   6.559
 3830POPC   C3B50289  32.470  41.024   6.923
 3830POPC   C4B50290  32.327  41.175   7.342
 3831POPC   NC350291  42.647  33.032   5.436
 3831POPC   PO450292  42.000  33.079   5.388
 3831POPC   GL150293  42.174  32.930   5.766
 3831POPC   GL250294  42.436  33.173   5.878
 3831POPC   C1A50295  42.180  32.896   6.211
 3831POPC   D2A50296  42.336  33.188   6.504
 3831POPC   C3A50297  42.129  33.088   6.869
 3831POPC   C4A50298  42.171  32.919   7.255
 3831POPC   C1B50299  42.682  32.947   6.176
 3831POPC   C2B50300  42.750  32.883   6.608
 3831POPC   C3B50301  42.628  33.112   6.954
 3831POPC   C4B50302  42.655  33.024   7.358
 3832POPC   NC350303  16.141  35.529   5.211
 3832POPC   PO450304  15.445  35.329   5.272
 3832POPC   GL150305  15.812  35.307   5.620
 3832POPC   GL250306  15.602  35.227   5.915
 3832POPC   C1A50307  16.061  35.289   6.081
 3832POPC   D2A50308  15.841  35.312   6.486
 3832POPC   C3A50309  16.088  35.281   6.878
 3832POPC   C4A50310  16.055  35.395   7.326
 3832POPC   C1B50311  15.411  35.091   6.309
 3832POPC   C2B50312  15.475  35.033   6.752
 3832POPC   C3B50313  15.748  34.982   7.122
 3832POPC   C4B50314  15.632  35.067   7.558
 3833POPC   NC350315  18.865  44.362   5.378
 3833POPC   PO450316  19.235  44.948   5.336
 3833POPC   GL150317  19.254  44.835   5.757
 3833POPC   GL250318  19.236  44.464   5.749
 3833POPC   C1A50319  19.216  44.997   6.185
 3833POPC   D2A50320  19.147  44.791   6.586
 3833POPC   C3A50321  19.373  44.869   6.947
 3833POPC   C4A50322  19.154  44.937   7.348
 3833POPC   C1B50323  19.129  44.462   6.185
 3833POPC   C2B50324  19.263  44.289   6.580
 3833POPC   C3B50325  19.181  44.378   7.011
 3833POPC   C4B50326  19.028  44.420   7.430
 3834POPC   NC350327  14.372  22.077   5.420
 3834POPC   PO450328  14.484  22.670   5.472
 3834POPC   GL150329  14.143  22.507   5.769
 3834POPC   GL250330  14.164  22.155   5.881
 3834POPC   C1A50331  14.157  22.486   6.262
 3834POPC   D2A50332  14.510  22.534   6.573
 3834POPC   C3A50333  14.568  22.324   7.005
 3834POPC   C4A50334  14.713  21.939   7.222
 3834POPC   C1B50335  14.168  21.968   6.319
 3834POPC   C2B50336  14.185  22.146   6.744
 3834POPC   C3B50337  14.183  21.969   7.177
 3834POPC   C4B50338  14.360  21.745   7.554
 3835POPC   NC350339  34.073  41.593   5.403
 3835POPC   PO450340  33.516  41.943   5.161
 3835POPC   GL150341  33.753  41.880   5.638
 3835POPC   GL250342  33.700  41.540   5.793
 3835POPC   C1A50343  33.847  41.860   6.128
 3835POPC   D2A50344  33.964  41.899   6.573
 3835POPC   C3A50345  33.845  41.669   6.921
 3835POPC   C4A50346  34.087  41.361   7.204
 3835POPC   C1B50347  33.955  41.321   6.143
 3835POPC   C2B50348  34.003  41.297   6.613
 3835POPC   C3B50349  33.672  41.199   6.973
 3835POPC   C4B50350  33.575  41.558   7.334
 3836POPC   NC350351  23.175  13.457   5.178
 3836POPC   PO450352  22.835  13.999   5.385
 3836POPC   GL150353  22.847  13.927   5.887
 3836POPC   GL250354  22.896  13.529   6.025
 3836POPC   C1A50355  23.100  13.874   6.320
 3836POPC   D2A50356  23.334  13.630   6.646
 3836POPC   C3A50357  23.213  13.759   7.055
 3836POPC   C4A50358  22.854  13.716   7.307
 3836POPC   C1B50359  23.240  13.282   6.264
 3836POPC   C2B50360  23.213  13.098   6.670
 3836POPC   C3B50361  23.007  13.286   7.027
 3836POPC   C4B50362  23.110  13.302   7.443
 3837POPC   NC350363  39.651  43.436   5.573
 3837POPC   PO450364  40.102  43.014   5.183
 3837POPC   GL150365  40.016  42.978   5.613
 3837POPC   GL250366  39.919  42.640   5.665
 3837POPC   C1A50367  40.053  43.006   6.085
 3837POPC   D2A50368  39.798  43.005   6.494
 3837POPC   C3A50369  39.879  43.310   6.844
 3837POPC   C4A50370  40.196  43.419   7.172
 3837POPC   C1B50371  39.860  42.533   6.138
 3837POPC   C2B50372  40.185  42.605   6.464
 3837POPC   C3B50373  40.248  42.919   6.807
 3837POPC   C4B50374  40.008  42.916   7.175
 3838POPC   NC350375  31.233  42.472   5.229
 3838POPC   PO450376  30.536  42.414   5.472
 3838POPC   GL150377  30.511  42.220   5.857
 3838POPC   GL250378  30.881  42.302   5.890
 3838POPC   C1A50379  30.467  42.082   6.265
 3838POPC   D2A50380  30.668  42.301   6.597
 3838POPC   C3A50381  30.863  42.120   6.915
 3838POPC   C4A50382  30.593  42.233   7.231
 3838POPC   C1B50383  30.933  42.570   6.242
 3838POPC   C2B50384  30.854  42.783   6.613
 3838POPC   C3B50385  30.928  42.621   7.035
 3838POPC   C4B50386  30.700  42.684   7.424
 3839POPC   NC350387  38.137   3.221   5.593
 3839POPC   PO450388  38.688   3.539   5.634
 3839POPC   GL150389  38.338   3.607   5.883
 3839POPC   GL250390  38.168   3.910   5.796
 3839POPC   C1A50391  38.370   3.470   6.282
 3839POPC   D2A50392  38.183   3.317   6.625
 3839POPC   C3A50393  38.490   3.340   6.917
 3839POPC   C4A50394  38.356   3.414   7.303
 3839POPC   C1B50395  38.221   3.969   6.261
 3839POPC   C2B50396  38.469   3.845   6.638
 3839POPC   C3B50397  38.519   3.839   7.085
 3839POPC   C4B50398  38.753   3.705   7.466
 3840POPC   NC350399  13.775   3.780   5.291
 3840POPC   PO450400  13.313   3.277   5.290
 3840POPC   GL150401  13.546   3.451   5.680
 3840POPC   GL250402  13.632   3.811   5.805
 3840POPC   C1A50403  13.419   3.473   6.135
 3840POPC   D2A50404  13.549   3.548   6.557
 3840POPC   C3A50405  13.348   3.759   6.875
 3840POPC   C4A50406  13.367   3.468   7.201
 3840POPC   C1B50407  13.880   3.760   6.214
 3840POPC   C2B50408  14.025   3.712   6.665
 3840POPC   C3B50409  13.814   3.705   7.092
 3840POPC   C4B50410  13.782   3.823   7.555
 3841POPC   NC350411   9.572  43.645   5.458
 3841POPC   PO450412   9.843  44.140   5.557
 3841POPC   GL150413   9.955  43.675   5.798
 3841POPC   GL250414  10.190  43.345   5.809
 3841POPC   C1A50415   9.903  43.496   6.217
 3841POPC   D2A50416   9.673  43.661   6.578
 3841POPC   C3A50417   9.726  43.584   7.019
 3841POPC   C4A50418   9.542  43.844   7.336
 3841POPC   C1B50419  10.417  43.482   6.205
 3841POPC   C2B50420  10.201  43.722   6.545
 3841POPC   C3B50421  10.056  43.951   6.867
 3841POPC   C4B50422   9.940  44.123   7.256
 3842POPC   NC350423   0.087  42.814   5.538
 3842POPC   PO450424  44.540  43.289   5.389
 3842POPC   GL150425  44.687  43.076   5.779
 3842POPC   GL250426  44.416  42.917   5.941
 3842POPC   C1A50427  44.831  43.024   6.249
 3842POPC   D2A50428  44.579  43.023   6.655
 3842POPC   C3A50429  44.792  43.141   7.057
 3842POPC   C4A50430   0.048  43.489   7.234
 3842POPC   C1B50431  44.174  42.779   6.297
 3842POPC   C2B50432  44.149  42.706   6.736
 3842POPC   C3B50433  44.403  42.742   7.095
 3842POPC   C4B50434  44.511  42.898   7.486
 3843POPC   NC350435  24.598  42.987   5.366
 3843POPC   PO450436  24.045  42.729   5.602
 3843POPC   GL150437  24.275  43.092   5.803
 3843POPC   GL250438  24.658  43.087   5.856
 3843POPC   C1A50439  24.338  43.239   6.223
 3843POPC   D2A50440  24.694  43.127   6.498
 3843POPC   C3A50441  24.578  43.270   6.886
 3843POPC   C4A50442  24.322  43.059   7.173
 3843POPC   C1B50443  24.591  42.735   6.114
 3843POPC   C2B50444  24.646  42.610   6.532
 3843POPC   C3B50445  24.688  42.772   6.956
 3843POPC   C4B50446  24.810  43.093   7.314
 3844POPC   NC350447  13.546  10.749   5.150
 3844POPC   PO450448  13.865  11.076   5.553
 3844POPC   GL150449  13.686  10.900   5.931
 3844POPC   GL250450  13.457  10.638   5.872
 3844POPC   C1A50451  13.560  10.821   6.380
 3844POPC   D2A50452  13.253  10.894   6.722
 3844POPC   C3A50453  13.489  10.650   7.030
 3844POPC   C4A50454  13.927  10.538   7.094
 3844POPC   C1B50455  13.547  10.331   6.249
 3844POPC   C2B50456  13.646  10.261   6.731
 3844POPC   C3B50457  13.581  10.156   7.222
 3844POPC   C4B50458  13.404  10.109   7.693
 3845POPC   NC350459  31.365  20.016   5.326
 3845POPC   PO450460  31.722  19.473   5.478
 3845POPC   GL150461  31.356  19.637   5.683
 3845POPC   GL250462  31.426  19.970   5.829
 3845POPC   C1A50463  31.280  19.573   6.125
 3845POPC   D2A50464  31.470  19.770   6.491
 3845POPC   C3A50465  31.291  19.664   6.890
 3845POPC   C4A50466  31.342  19.757   7.318
 3845POPC   C1B50467  31.672  20.148   6.183
 3845POPC   C2B50468  31.766  20.191   6.629
 3845POPC   C3B50469  31.719  19.960   7.013
 3845POPC   C4B50470  31.991  19.983   7.373
 3846POPC   NC350471  23.931   5.284   5.267
 3846POPC   PO450472  23.397   4.787   5.209
 3846POPC   GL150473  23.632   5.023   5.585
 3846POPC   GL250474  23.513   4.888   5.883
 3846POPC   C1A50475  23.909   5.207   5.971
 3846POPC   D2A50476  23.894   5.327   6.485
 3846POPC   C3A50477  23.863   5.247   6.969
 3846POPC   C4A50478  24.035   5.279   7.412
 3846POPC   C1B50479  23.770   4.780   6.233
 3846POPC   C2B50480  23.860   4.829   6.646
 3846POPC   C3B50481  23.708   4.766   7.029
 3846POPC   C4B50482  23.408   4.995   7.289
 3847POPC   NC350483  42.774  18.396   5.370
 3847POPC   PO450484  43.521  18.629   5.465
 3847POPC   GL150485  43.438  18.456   5.849
 3847POPC   GL250486  43.116  18.401   5.754
 3847POPC   C1A50487  43.259  18.464   6.285
 3847POPC   D2A50488  42.906  18.445   6.579
 3847POPC   C3A50489  43.016  18.314   6.994
 3847POPC   C4A50490  43.250  18.406   7.351
 3847POPC   C1B50491  43.058  18.067   6.039
 3847POPC   C2B50492  43.141  17.997   6.472
 3847POPC   C3B50493  43.157  17.843   6.864
 3847POPC   C4B50494  42.860  17.821   7.192
 3848POPC   NC350495  38.186  26.365   5.474
 3848POPC   PO450496  38.691  25.894   5.515
 3848POPC   GL150497  38.461  26.039   5.859
 3848POPC   GL250498  38.563  26.351   5.855
 3848POPC   C1A50499  38.525  26.053   6.317
 3848POPC   D2A50500  38.599  25.992   6.782
 3848POPC   C3A50501  38.324  26.101   7.106
 3848POPC   C4A50502  38.248  25.986   7.508
 3848POPC   C1B50503  38.601  26.589   6.248
 3848POPC   C2B50504  38.617  26.568   6.698
 3848POPC   C3B50505  38.762  26.379   7.056
 3848POPC   C4B50506  38.610  26.341   7.457
 3849POPC   NC350507  42.179   3.842   5.619
 3849POPC   PO450508  42.168   3.297   5.239
 3849POPC   GL150509  42.048   3.304   5.683
 3849POPC   GL250510  42.389   3.404   5.749
 3849POPC   C1A50511  41.863   3.456   6.094
 3849POPC   D2A50512  42.024   3.511   6.510
 3849POPC   C3A50513  42.161   3.853   6.751
 3849POPC   C4A50514  42.216   3.839   7.195
 3849POPC   C1B50515  42.342   3.295   6.153
 3849POPC   C2B50516  42.506   3.349   6.532
 3849POPC   C3B50517  42.418   3.444   6.928
 3849POPC   C4B50518  42.689   3.711   7.149
 3850POPC   NC350519  18.819  31.750   5.380
 3850POPC   PO450520  19.358  31.531   5.534
 3850POPC   GL150521  18.966  31.446   5.812
 3850POPC   GL250522  18.770  31.743   5.897
 3850POPC   C1A50523  18.956  31.368   6.303
 3850POPC   D2A50524  19.297  31.463   6.632
 3850POPC   C3A50525  19.213  31.327   7.067
 3850POPC   C4A50526  18.821  31.275   7.316
 3850POPC   C1B50527  19.168  31.792   6.144
 3850POPC   C2B50528  19.201  31.963   6.561
 3850POPC   C3B50529  19.154  31.817   6.982
 3850POPC   C4B50530  19.109  31.685   7.429
 3851POPC   NC350531  33.405  32.382   5.441
 3851POPC   PO450532  32.762  32.261   5.286
 3851POPC   GL150533  32.976  32.207   5.735
 3851POPC   GL250534  33.313  32.032   5.789
 3851POPC   C1A50535  32.879  32.152   6.214
 3851POPC   D2A50536  32.799  32.375   6.624
 3851POPC   C3A50537  32.783  32.118   6.994
 3851POPC   C4A50538  33.034  32.246   7.384
 3851POPC   C1B50539  33.331  32.368   6.109
 3851POPC   C2B50540  33.297  32.219   6.527
 3851POPC   C3B50541  33.275  32.061   6.939
 3851POPC   C4B50542  33.526  32.016   7.291
 3852POPC   NC350543  17.102  44.208   5.069
 3852POPC   PO450544  16.713  43.729   5.363
 3852POPC   GL150545  16.798  44.002   5.722
 3852POPC   GL250546  17.078  44.176   5.596
 3852POPC   C1A50547  16.738  43.924   6.187
 3852POPC   D2A50548  16.777  43.609   6.553
 3852POPC   C3A50549  16.731  43.821   6.963
 3852POPC   C4A50550  16.560  44.208   7.162
 3852POPC   C1B50551  17.213  44.097   6.052
 3852POPC   C2B50552  17.224  43.839   6.438
 3852POPC   C3B50553  17.300  43.865   6.892
 3852POPC   C4B50554  17.108  43.955   7.295
 3853POPC   NC350555  14.165  36.101   5.485
 3853POPC   PO450556  14.829  36.126   5.598
 3853POPC   GL150557  14.494  36.051   5.903
 3853POPC   GL250558  14.269  36.357   5.909
 3853POPC   C1A50559  14.488  35.816   6.304
 3853POPC   D2A50560  14.758  35.667   6.668
 3853POPC   C3A50561  14.570  35.844   7.043
 3853POPC   C4A50562  14.126  35.830   7.146
 3853POPC   C1B50563  14.302  36.299   6.355
 3853POPC   C2B50564  14.383  36.287   6.786
 3853POPC   C3B50565  14.185  36.342   7.165
 3853POPC   C4B50566  14.151  36.593   7.525
 3854POPC   NC350567  21.958  20.148   5.346
 3854POPC   PO450568  21.378  19.686   5.368
 3854POPC   GL150569  21.509  19.591   5.786
 3854POPC   GL250570  21.640  19.916   5.799
 3854POPC   C1A50571  21.493  19.550   6.246
 3854POPC   D2A50572  21.785  19.467   6.591
 3854POPC   C3A50573  21.662  19.701   6.947
 3854POPC   C4A50574  21.305  19.761   7.224
 3854POPC   C1B50575  21.432  20.070   6.166
 3854POPC   C2B50576  21.570  20.105   6.595
 3854POPC   C3B50577  21.444  20.206   6.999
 3854POPC   C4B50578  21.533  20.210   7.453
 3855POPC   NC350579  28.770  23.918   5.505
 3855POPC   PO450580  28.126  24.007   5.319
 3855POPC   GL150581  28.279  23.903   5.745
 3855POPC   GL250582  28.439  23.574   5.760
 3855POPC   C1A50583  28.206  23.878   6.209
 3855POPC   D2A50584  28.507  23.870   6.574
 3855POPC   C3A50585  28.377  23.692   6.962
 3855POPC   C4A50586  28.292  23.915   7.353
 3855POPC   C1B50587  28.603  23.514   6.182
 3855POPC   C2B50588  28.537  23.330   6.592
 3855POPC   C3B50589  28.819  23.330   6.959
 3855POPC   C4B50590  28.698  23.526   7.337
 3856POPC   NC350591  27.897   4.072   5.504
 3856POPC   PO450592  27.228   4.088   5.526
 3856POPC   GL150593  27.463   4.063   5.848
 3856POPC   GL250594  27.611   4.346   5.873
 3856POPC   C1A50595  27.582   4.019   6.262
 3856POPC   D2A50596  27.746   4.075   6.681
 3856POPC   C3A50597  27.475   4.250   7.042
 3856POPC   C4A50598  27.197   4.145   7.422
 3856POPC   C1B50599  27.822   4.592   6.159
 3856POPC   C2B50600  27.985   4.697   6.545
 3856POPC   C3B50601  28.081   4.765   6.973
 3856POPC   C4B50602  27.800   4.825   7.320
 3857POPC   NC350603  21.748   2.870   5.466
 3857POPC   PO450604  22.443   2.480   5.369
 3857POPC   GL150605  22.246   2.795   5.648
 3857POPC   GL250606  22.005   2.546   5.786
 3857POPC   C1A50607  22.086   3.005   6.048
 3857POPC   D2A50608  21.949   2.876   6.477
 3857POPC   C3A50609  22.178   3.047   6.799
 3857POPC   C4A50610  22.067   3.278   7.180
 3857POPC   C1B50611  21.712   2.565   6.147
 3857POPC   C2B50612  21.501   2.533   6.566
 3857POPC   C3B50613  21.638   2.520   6.997
 3857POPC   C4B50614  21.990   2.764   7.207
 3858POPC   NC350615  41.632  25.323   5.142
 3858POPC   PO450616  41.884  25.024   5.660
 3858POPC   GL150617  41.722  25.379   5.829
 3858POPC   GL250618  41.415  25.414   5.636
 3858POPC   C1A50619  41.830  25.491   6.247
 3858POPC   D2A50620  41.778  25.269   6.633
 3858POPC   C3A50621  41.825  25.493   7.023
 3858POPC   C4A50622  41.718  25.338   7.450
 3858POPC   C1B50623  41.297  25.451   6.100
 3858POPC   C2B50624  41.196  25.280   6.525
 3858POPC   C3B50625  41.318  25.337   6.975
 3858POPC   C4B50626  41.094  25.258   7.347
 3859POPC   NC350627  44.761  10.057   5.316
 3859POPC   PO450628  44.274   9.572   5.317
 3859POPC   GL150629  44.566   9.727   5.698
 3859POPC   GL250630  44.728  10.076   5.807
 3859POPC   C1A50631  44.721   9.622   6.144
 3859POPC   D2A50632  44.712   9.394   6.558
 3859POPC   C3A50633  44.852   9.529   6.998
 3859POPC   C4A50634  44.553   9.438   7.340
 3859POPC   C1B50635  44.937  10.082   6.201
 3859POPC   C2B50636  44.898   9.909   6.640
 3859POPC   C3B50637   0.058  10.028   7.056
 3859POPC   C4B50638  44.965  10.210   7.464
 3860POPC   NC350639  31.778   8.001   5.291
 3860POPC   PO450640  31.168   8.223   5.181
 3860POPC   GL150641  31.497   8.254   5.610
 3860POPC   GL250642  31.607   8.551   5.703
 3860POPC   C1A50643  31.490   8.204   6.108
 3860POPC   D2A50644  31.396   8.348   6.555
 3860POPC   C3A50645  31.382   8.129   6.965
 3860POPC   C4A50646  31.220   8.033   7.357
 3860POPC   C1B50647  31.837   8.579   6.113
 3860POPC   C2B50648  31.913   8.424   6.554
 3860POPC   C3B50649  31.702   8.532   6.947
 3860POPC   C4B50650  31.645   8.373   7.367
 3861POPC   NC350651  33.299  44.187   5.038
 3861POPC   PO450652  32.946  43.803   5.485
 3861POPC   GL150653  32.984  43.985   5.831
 3861POPC   GL250654  32.708  44.202   5.821
 3861POPC   C1A50655  33.197  43.860   6.204
 3861POPC   D2A50656  33.098  43.575   6.561
 3861POPC   C3A50657  33.088  43.818   6.948
 3861POPC   C4A50658  33.215  43.893   7.364
 3861POPC   C1B50659  32.716  44.041   6.255
 3861POPC   C2B50660  32.857  44.160   6.658
 3861POPC   C3B50661  32.661  44.131   7.058
 3861POPC   C4B50662  32.417  43.833   7.218
 3862POPC   NC350663   4.037  18.335   5.405
 3862POPC   PO450664   4.639  18.243   5.637
 3862POPC   GL150665   4.246  18.294   5.871
 3862POPC   GL250666   4.132  17.994   6.049
 3862POPC   C1A50667   4.100  18.470   6.242
 3862POPC   D2A50668   4.278  18.522   6.648
 3862POPC   C3A50669   4.144  18.291   6.994
 3862POPC   C4A50670   3.938  18.210   7.404
 3862POPC   C1B50671   4.463  18.113   6.382
 3862POPC   C2B50672   4.645  18.215   6.830
 3862POPC   C3B50673   4.566  18.532   7.154
 3862POPC   C4B50674   4.457  18.938   7.308
 3863POPC   NC350675  30.388   5.668   5.637
 3863POPC   PO450676  29.658   5.923   5.424
 3863POPC   GL150677  29.906   5.926   5.762
 3863POPC   GL250678  29.793   5.620   5.811
 3863POPC   C1A50679  29.874   5.955   6.203
 3863POPC   D2A50680  30.095   5.947   6.572
 3863POPC   C3A50681  29.957   5.895   6.993
 3863POPC   C4A50682  30.216   5.855   7.331
 3863POPC   C1B50683  29.538   5.561   6.206
 3863POPC   C2B50684  29.665   5.644   6.630
 3863POPC   C3B50685  29.525   5.629   7.066
 3863POPC   C4B50686  29.761   5.662   7.494
 3864POPC   NC350687  35.993  21.038   5.607
 3864POPC   PO450688  36.345  21.520   5.425
 3864POPC   GL150689  36.174  21.478   5.810
 3864POPC   GL250690  36.335  21.187   5.964
 3864POPC   C1A50691  36.008  21.454   6.227
 3864POPC   D2A50692  36.282  21.358   6.557
 3864POPC   C3A50693  35.986  21.472   6.860
 3864POPC   C4A50694  35.990  21.398   7.275
 3864POPC   C1B50695  36.100  20.947   6.243
 3864POPC   C2B50696  35.934  20.984   6.630
 3864POPC   C3B50697  36.156  21.002   6.989
 3864POPC   C4B50698  35.921  20.906   7.337
 3865POPC   NC350699  11.035  24.776   5.091
 3865POPC   PO450700  11.634  24.489   5.148
 3865POPC   GL150701  11.318  24.335   5.571
 3865POPC   GL250702  10.993  24.482   5.704
 3865POPC   C1A50703  11.321  24.215   6.060
 3865POPC   D2A50704  11.253  24.460   6.459
 3865POPC   C3A50705  11.222  24.373   6.904
 3865POPC   C4A50706  11.220  24.478   7.348
 3865POPC   C1B50707  10.839  24.547   6.160
 3865POPC   C2B50708  10.748  24.504   6.649
 3865POPC   C3B50709  10.809  24.639   7.106
 3865POPC   C4B50710  10.794  24.607   7.582
 3866POPC   NC350711  25.537   0.584   5.414
 3866POPC   PO450712  26.132   0.340   5.098
 3866POPC   GL150713  26.061   0.393   5.592
 3866POPC   GL250714  25.923   0.712   5.730
 3866POPC   C1A50715  26.168   0.404   6.084
 3866POPC   D2A50716  26.364   0.328   6.527
 3866POPC   C3A50717  26.107   0.321   6.910
 3866POPC   C4A50718  26.075   0.001   7.228
 3866POPC   C1B50719  25.670   0.627   6.123
 3866POPC   C2B50720  25.493   0.578   6.557
 3866POPC   C3B50721  25.724   0.725   6.913
 3866POPC   C4B50722  25.753   0.938   7.297
 3867POPC   NC350723  34.808  31.326   5.512
 3867POPC   PO450724  34.395  31.869   5.320
 3867POPC   GL150725  34.496  31.683   5.725
 3867POPC   GL250726  34.326  31.348   5.804
 3867POPC   C1A50727  34.655  31.556   6.145
 3867POPC   D2A50728  34.453  31.412   6.517
 3867POPC   C3A50729  34.698  31.534   6.861
 3867POPC   C4A50730  34.558  31.619   7.261
 3867POPC   C1B50731  34.567  31.051   6.124
 3867POPC   C2B50732  34.765  30.996   6.569
 3867POPC   C3B50733  34.688  31.029   7.048
 3867POPC   C4B50734  34.860  31.240   7.439
 3868POPC   NC350735  15.687  14.144   5.452
 3868POPC   PO450736  16.126  14.585   5.187
 3868POPC   GL150737  16.001  14.498   5.647
 3868POPC   GL250738  16.121  14.151   5.736
 3868POPC   C1A50739  15.899  14.632   6.094
 3868POPC   D2A50740  15.742  14.802   6.512
 3868POPC   C3A50741  15.867  14.654   6.937
 3868POPC   C4A50742  15.750  14.553   7.376
 3868POPC   C1B50743  15.816  14.117   6.112
 3868POPC   C2B50744  15.847  14.276   6.560
 3868POPC   C3B50745  16.148  14.169   6.920
 3868POPC   C4B50746  16.320  14.011   7.347
 3869POPC   NC350747  21.255  10.938   5.482
 3869POPC   PO450748  21.652  11.496   5.342
 3869POPC   GL150749  21.337  11.419   5.717
 3869POPC   GL250750  21.355  11.095   5.953
 3869POPC   C1A50751  21.253  11.556   6.173
 3869POPC   D2A50752  21.391  11.283   6.514
 3869POPC   C3A50753  21.296  11.311   6.945
 3869POPC   C4A50754  21.261  11.683   7.236
 3869POPC   C1B50755  21.639  10.883   6.267
 3869POPC   C2B50756  21.668  10.885   6.722
 3869POPC   C3B50757  21.661  10.841   7.169
 3869POPC   C4B50758  21.762  10.875   7.614
 3870POPC   NC350759  37.113   2.301   5.426
 3870POPC   PO450760  36.785   1.689   5.302
 3870POPC   GL150761  36.903   1.825   5.716
 3870POPC   GL250762  36.699   2.120   5.725
 3870POPC   C1A50763  37.129   1.795   6.126
 3870POPC   D2A50764  37.251   2.117   6.433
 3870POPC   C3A50765  37.032   2.043   6.803
 3870POPC   C4A50766  37.010   1.983   7.254
 3870POPC   C1B50767  36.725   2.173   6.174
 3870POPC   C2B50768  36.571   2.034   6.572
 3870POPC   C3B50769  36.601   2.218   6.988
 3870POPC   C4B50770  36.445   1.974   7.276
 3871POPC   NC350771  21.397  17.267   5.150
 3871POPC   PO450772  21.487  17.715   5.488
 3871POPC   GL150773  21.318  17.548   5.809
 3871POPC   GL250774  21.452  17.241   5.737
 3871POPC   C1A50775  21.473  17.579   6.218
 3871POPC   D2A50776  21.789  17.623   6.524
 3871POPC   C3A50777  21.606  17.762   6.907
 3871POPC   C4A50778  21.470  17.556   7.257
 3871POPC   C1B50779  21.156  17.184   6.128
 3871POPC   C2B50780  21.135  17.392   6.560
 3871POPC   C3B50781  21.192  17.201   6.972
 3871POPC   C4B50782  21.436  17.058   7.323
 3872POPC   NC350783   7.608  20.674   5.153
 3872POPC   PO450784   8.222  20.862   5.422
 3872POPC   GL150785   8.487  21.026   5.757
 3872POPC   GL250786   8.184  21.078   5.939
 3872POPC   C1A50787   8.698  20.915   6.168
 3872POPC   D2A50788   8.611  20.646   6.570
 3872POPC   C3A50789   8.350  20.826   6.902
 3872POPC   C4A50790   8.240  20.794   7.338
 3872POPC   C1B50791   8.233  20.689   6.219
 3872POPC   C2B50792   8.118  20.452   6.622
 3872POPC   C3B50793   8.012  20.398   7.087
 3872POPC   C4B50794   8.014  20.389   7.581
 3873POPC   NC350795   3.730  21.036   5.495
 3873POPC   PO450796   3.407  20.363   5.451
 3873POPC   GL150797   3.665  20.421   5.830
 3873POPC   GL250798   3.589  20.756   5.898
 3873POPC   C1A50799   3.676  20.474   6.300
 3873POPC   D2A50800   3.469  20.338   6.664
 3873POPC   C3A50801   3.566  20.459   7.071
 3873POPC   C4A50802   3.318  20.486   7.453
 3873POPC   C1B50803   3.449  20.928   6.307
 3873POPC   C2B50804   3.543  20.851   6.715
 3873POPC   C3B50805   3.332  20.919   7.074
 3873POPC   C4B50806   3.322  21.283   7.368
 3874POPC   NC350807   6.860  44.795   5.401
 3874POPC   PO450808   6.372  44.375   5.441
 3874POPC   GL150809   6.578  44.568   5.808
 3874POPC   GL250810   6.911  44.432   5.807
 3874POPC   C1A50811   6.630  44.503   6.282
 3874POPC   D2A50812   6.446  44.183   6.570
 3874POPC   C3A50813   6.492  44.250   6.987
 3874POPC   C4A50814   6.648  44.649   7.105
 3874POPC   C1B50815   7.086  44.699   6.120
 3874POPC   C2B50816   6.973  44.873   6.516
 3874POPC   C3B50817   7.136  44.769   6.905
 3874POPC   C4B50818   7.127  44.701   7.344
 3875POPC   NC350819  27.813   7.006   5.460
 3875POPC   PO450820  27.626   7.677   5.531
 3875POPC   GL150821  27.699   7.379   5.904
 3875POPC   GL250822  28.034   7.209   5.881
 3875POPC   C1A50823  27.576   7.349   6.386
 3875POPC   D2A50824  27.203   7.465   6.682
 3875POPC   C3A50825  27.293   7.403   7.118
 3875POPC   C4A50826  27.560   7.102   6.990
 3875POPC   C1B50827  28.095   7.574   6.164
 3875POPC   C2B50828  28.116   7.529   6.591
 3875POPC   C3B50829  27.789   7.557   6.877
 3875POPC   C4B50830  27.836   7.452   7.290
 3876POPC   NC350831  21.189  35.316   5.429
 3876POPC   PO450832  21.874  35.204   5.365
 3876POPC   GL150833  21.588  35.248   5.829
 3876POPC   GL250834  21.232  35.248   5.917
 3876POPC   C1A50835  21.555  35.435   6.262
 3876POPC   D2A50836  21.708  35.318   6.674
 3876POPC   C3A50837  21.678  35.494   7.084
 3876POPC   C4A50838  21.547  35.310   7.474
 3876POPC   C1B50839  21.029  35.052   6.258
 3876POPC   C2B50840  21.204  35.201   6.624
 3876POPC   C3B50841  21.191  35.368   7.036
 3876POPC   C4B50842  20.816  35.411   7.217
 3877POPC   NC350843  44.024  30.271   5.242
 3877POPC   PO450844  44.041  29.566   5.351
 3877POPC   GL150845  43.845  29.746   5.738
 3877POPC   GL250846  44.074  29.989   5.711
 3877POPC   C1A50847  43.897  29.672   6.204
 3877POPC   D2A50848  44.125  29.848   6.565
 3877POPC   C3A50849  43.958  29.770   6.959
 3877POPC   C4A50850  44.136  29.806   7.341
 3877POPC   C1B50851  44.085  30.132   6.124
 3877POPC   C2B50852  43.934  30.314   6.519
 3877POPC   C3B50853  43.860  30.272   6.944
 3877POPC   C4B50854  44.186  30.346   7.222
 3878POPC   NC350855  41.977  41.668   5.365
 3878POPC   PO450856  42.625  41.389   5.328
 3878POPC   GL150857  42.646  41.501   5.790
 3878POPC   GL250858  42.326  41.690   5.874
 3878POPC   C1A50859  42.575  41.428   6.244
 3878POPC   D2A50860  42.606  41.610   6.682
 3878POPC   C3A50861  42.539  41.334   7.049
 3878POPC   C4A50862  42.245  41.497   7.356
 3878POPC   C1B50863  42.234  41.817   6.328
 3878POPC   C2B50864  42.176  41.874   6.800
 3878POPC   C3B50865  42.152  42.009   7.239
 3878POPC   C4B50866  42.132  41.886   7.679
 3879POPC   NC350867  39.977  44.120   5.435
 3879POPC   PO450868  39.930  44.810   5.322
 3879POPC   GL150869  40.046  44.787   5.732
 3879POPC   GL250870  39.725  44.670   5.810
 3879POPC   C1A50871  40.040  44.739   6.213
 3879POPC   D2A50872  40.235  44.589   6.612
 3879POPC   C3A50873  40.121  44.698   7.042
 3879POPC   C4A50874  40.113  44.517   7.441
 3879POPC   C1B50875  39.628  44.407   6.196
 3879POPC   C2B50876  39.506  44.363   6.630
 3879POPC   C3B50877  39.615  44.613   6.986
 3879POPC   C4B50878  39.592  44.450   7.384
 3880POPC   NC350879  33.110  12.526   5.568
 3880POPC   PO450880  32.714  13.101   5.430
 3880POPC   GL150881  33.086  13.034   5.702
 3880POPC   GL250882  32.850  12.851   5.885
 3880POPC   C1A50883  33.299  12.852   6.127
 3880POPC   D2A50884  33.419  12.883   6.565
 3880POPC   C3A50885  33.277  12.652   6.936
 3880POPC   C4A50886  33.097  12.754   7.344
 3880POPC   C1B50887  32.929  13.232   6.151
 3880POPC   C2B50888  33.011  13.168   6.583
 3880POPC   C3B50889  32.793  13.033   6.962
 3880POPC   C4B50890  32.799  13.174   7.367
 3881POPC   NC350891   8.633  30.123   5.342
 3881POPC   PO450892   9.009  29.561   5.327
 3881POPC   GL150893   8.766  29.755   5.680
 3881POPC   GL250894   9.096  29.798   5.811
 3881POPC   C1A50895   8.729  29.969   6.115
 3881POPC   D2A50896   8.968  30.028   6.526
 3881POPC   C3A50897   8.775  29.983   6.953
 3881POPC   C4A50898   8.823  29.835   7.384
 3881POPC   C1B50899   9.211  29.666   6.238
 3881POPC   C2B50900   9.312  29.603   6.686
 3881POPC   C3B50901   9.301  29.759   7.126
 3881POPC   C4B50902   9.302  29.776   7.582
 3882POPC   NC350903  18.721  11.386   5.577
 3882POPC   PO450904  19.267  11.124   5.333
 3882POPC   GL150905  19.206  11.193   5.794
 3882POPC   GL250906  19.303  11.555   5.757
 3882POPC   C1A50907  19.139  11.102   6.274
 3882POPC   D2A50908  19.131  11.147   6.764
 3882POPC   C3A50909  19.163  10.871   7.163
 3882POPC   C4A50910  19.178  10.691   7.639
 3882POPC   C1B50911  19.176  11.603   6.185
 3882POPC   C2B50912  19.178  11.664   6.633
 3882POPC   C3B50913  18.933  11.539   7.017
 3882POPC   C4B50914  19.160  11.349   7.353
 3883POPC   NC350915   3.000  10.283   5.356
 3883POPC   PO450916   2.420  10.555   5.478
 3883POPC   GL150917   2.703  10.404   5.772
 3883POPC   GL250918   2.899  10.693   5.870
 3883POPC   C1A50919   2.639  10.367   6.210
 3883POPC   D2A50920   2.446  10.602   6.540
 3883POPC   C3A50921   2.574  10.437   6.926
 3883POPC   C4A50922   2.747  10.274   7.298
 3883POPC   C1B50923   2.995  10.915   6.252
 3883POPC   C2B50924   2.907  10.799   6.670
 3883POPC   C3B50925   2.888  10.789   7.116
 3883POPC   C4B50926   2.958  10.801   7.579
 3884POPC   NC350927  18.788  24.154   5.356
 3884POPC   PO450928  19.181  23.579   5.339
 3884POPC   GL150929  18.919  23.519   5.700
 3884POPC   GL250930  18.983  23.842   5.797
 3884POPC   C1A50931  18.813  23.518   6.159
 3884POPC   D2A50932  18.987  23.597   6.578
 3884POPC   C3A50933  18.707  23.507   6.922
 3884POPC   C4A50934  18.467  23.798   7.166
 3884POPC   C1B50935  19.194  23.948   6.206
 3884POPC   C2B50936  19.327  23.979   6.643
 3884POPC   C3B50937  18.952  23.981   6.934
 3884POPC   C4B50938  18.922  23.863   7.371
 3885POPC   NC350939   3.275   1.223   5.372
 3885POPC   PO450940   3.804   0.822   5.394
 3885POPC   GL150941   3.589   1.012   5.769
 3885POPC   GL250942   3.551   1.368   5.787
 3885POPC   C1A50943   3.466   1.103   6.214
 3885POPC   D2A50944   3.522   1.293   6.636
 3885POPC   C3A50945   3.489   1.000   6.994
 3885POPC   C4A50946   3.446   1.014   7.454
 3885POPC   C1B50947   3.765   1.520   6.128
 3885POPC   C2B50948   3.980   1.544   6.494
 3885POPC   C3B50949   4.030   1.742   6.895
 3885POPC   C4B50950   3.964   1.661   7.341
 3886POPC   NC350951  16.778  34.703   5.247
 3886POPC   PO450952  16.472  34.991   5.712
 3886POPC   GL150953  16.560  34.591   5.869
 3886POPC   GL250954  16.888  34.471   5.715
 3886POPC   C1A50955  16.670  34.700   6.300
 3886POPC   D2A50956  16.956  34.785   6.649
 3886POPC   C3A50957  16.703  34.691   6.998
 3886POPC   C4A50958  16.427  34.483   7.291
 3886POPC   C1B50959  17.082  34.461   6.135
 3886POPC   C2B50960  17.051  34.278   6.571
 3886POPC   C3B50961  16.883  34.210   7.004
 3886POPC   C4B50962  16.895  34.411   7.430
 3887POPC   NC350963   4.049  43.320   5.031
 3887POPC   PO450964   4.503  43.134   5.530
 3887POPC   GL150965   4.337  43.120   5.915
 3887POPC   GL250966   4.137  43.386   5.850
 3887POPC   C1A50967   4.423  43.011   6.347
 3887POPC   D2A50968   4.513  42.829   6.725
 3887POPC   C3A50969   4.683  43.037   7.072
 3887POPC   C4A50970   4.534  43.197   7.472
 3887POPC   C1B50971   4.018  43.308   6.266
 3887POPC   C2B50972   4.171  43.359   6.660
 3887POPC   C3B50973   4.190  43.166   7.039
 3887POPC   C4B50974   4.265  42.725   7.170
 3888POPC   NC350975  36.483  29.089   5.426
 3888POPC   PO450976  35.771  28.931   5.328
 3888POPC   GL150977  35.818  29.055   5.769
 3888POPC   GL250978  36.166  29.091   5.844
 3888POPC   C1A50979  35.830  29.185   6.222
 3888POPC   D2A50980  36.012  29.384   6.558
 3888POPC   C3A50981  35.939  29.160   6.927
 3888POPC   C4A50982  36.158  28.941   7.245
 3888POPC   C1B50983  36.330  29.003   6.267
 3888POPC   C2B50984  36.363  28.961   6.705
 3888POPC   C3B50985  36.481  28.638   6.948
 3888POPC   C4B50986  36.424  28.531   7.333
 3889POPC   NC350987  30.587  10.980   5.750
 3889POPC   PO450988  30.829  11.426   5.220
 3889POPC   GL150989  31.031  11.357   5.671
 3889POPC   GL250990  30.930  11.609   5.867
 3889POPC   C1A50991  30.983  11.223   6.159
 3889POPC   D2A50992  30.947  10.929   6.479
 3889POPC   C3A50993  30.956  11.017   6.899
 3889POPC   C4A50994  30.695  11.044   7.292
 3889POPC   C1B50995  30.679  11.621   6.262
 3889POPC   C2B50996  30.841  11.447   6.654
 3889POPC   C3B50997  30.957  11.483   7.107
 3889POPC   C4B50998  30.745  11.675   7.458
 3890POPC   NC350999  10.221  16.749   5.407
 3890POPC   PO451000  10.927  16.851   5.439
 3890POPC   GL151001  10.597  16.784   5.775
 3890POPC   GL251002  10.292  17.004   5.850
 3890POPC   C1A51003  10.584  16.685   6.205
 3890POPC   D2A51004  10.807  16.859   6.561
 3890POPC   C3A51005  10.659  16.688   6.962
 3890POPC   C4A51006  10.633  16.744   7.400
 3890POPC   C1B51007  10.430  17.174   6.270
 3890POPC   C2B51008  10.368  17.043   6.698
 3890POPC   C3B51009  10.453  17.137   7.133
 3890POPC   C4B51010  10.178  17.000   7.513
 3891POPC   NC351011  32.528   7.928   5.328
 3891POPC   PO451012  32.049   8.383   5.364
 3891POPC   GL151013  32.002   8.213   5.764
 3891POPC   GL251014  32.216   7.932   5.759
 3891POPC   C1A51015  32.230   8.235   6.180
 3891POPC   D2A51016  32.356   7.962   6.516
 3891POPC   C3A51017  32.440   8.134   6.933
 3891POPC   C4A51018  32.130   8.365   7.174
 3891POPC   C1B51019  31.901   7.851   6.117
 3891POPC   C2B51020  31.712   7.908   6.512
 3891POPC   C3B51021  31.869   8.025   6.902
 3891POPC   C4B51022  31.740   7.851   7.284
 3892POPC   NC351023  37.658  20.120   5.458
 3892POPC   PO451024  37.671  20.760   5.364
 3892POPC   GL151025  37.604  20.553   5.780
 3892POPC   GL251026  37.906  20.328   5.851
 3892POPC   C1A51027  37.695  20.673   6.231
 3892POPC   D2A51028  37.827  20.924   6.614
 3892POPC   C3A51029  37.644  20.780   6.991
 3892POPC   C4A51030  37.730  20.757   7.421
 3892POPC   C1B51031  38.107  20.372   6.244
 3892POPC   C2B51032  37.916  20.422   6.646
 3892POPC   C3B51033  38.013  20.428   7.060
 3892POPC   C4B51034  38.044  20.069   7.253
 3893POPC   NC351035   1.694  30.712   5.323
 3893POPC   PO451036   2.352  30.840   5.362
 3893POPC   GL151037   2.164  30.873   5.769
 3893POPC   GL251038   2.397  31.128   5.890
 3893POPC   C1A51039   1.977  30.631   6.139
 3893POPC   D2A51040   2.150  30.448   6.524
 3893POPC   C3A51041   1.997  30.598   6.929
 3893POPC   C4A51042   1.786  30.556   7.314
 3893POPC   C1B51043   2.411  30.960   6.299
 3893POPC   C2B51044   2.422  30.865   6.755
 3893POPC   C3B51045   2.298  30.973   7.168
 3893POPC   C4B51046   2.267  30.617   7.430
 3894POPC   NC351047  28.777  10.812   5.613
 3894POPC   PO451048  29.288  10.372   5.464
 3894POPC   GL151049  29.035  10.338   5.840
 3894POPC   GL251050  29.060  10.680   6.003
 3894POPC   C1A51051  29.195  10.288   6.271
 3894POPC   D2A51052  29.261  10.632   6.558
 3894POPC   C3A51053  29.427  10.541   6.977
 3894POPC   C4A51054  29.235  10.338   7.348
 3894POPC   C1B51055  28.724  10.857   6.278
 3894POPC   C2B51056  28.851  10.983   6.686
 3894POPC   C3B51057  28.981  10.792   7.080
 3894POPC   C4B51058  28.781  10.749   7.483
 3895POPC   NC351059  35.288  40.111   5.358
 3895POPC   PO451060  35.483  39.533   5.620
 3895POPC   GL151061  35.322  39.881   5.829
 3895POPC   GL251062  35.590  40.140   5.777
 3895POPC   C1A51063  35.289  39.861   6.269
 3895POPC   D2A51064  35.149  40.150   6.582
 3895POPC   C3A51065  35.134  39.950   6.995
 3895POPC   C4A51066  35.288  40.060   7.404
 3895POPC   C1B51067  35.529  40.302   6.181
 3895POPC   C2B51068  35.664  40.303   6.607
 3895POPC   C3B51069  35.618  40.287   7.047
 3895POPC   C4B51070  35.792  40.008   7.327
 3896POPC   NC351071  36.492  39.940   5.416
 3896POPC   PO451072  37.093  39.815   5.120
 3896POPC   GL151073  37.048  40.036   5.603
 3896POPC   GL251074  36.752  40.018   5.829
 3896POPC   C1A51075  37.160  40.130   6.108
 3896POPC   D2A51076  37.085  40.258   6.546
 3896POPC   C3A51077  37.203  40.061   6.944
 3896POPC   C4A51078  37.086  40.068   7.381
 3896POPC   C1B51079  36.680  40.066   6.271
 3896POPC   C2B51080  36.830  39.824   6.639
 3896POPC   C3B51081  36.682  40.028   7.005
 3896POPC   C4B51082  36.626  40.277   7.347
 3897POPC   NC351083  30.783  43.821   5.123
 3897POPC   PO451084  30.789  44.337   5.622
 3897POPC   GL151085  30.709  44.029   5.947
 3897POPC   GL251086  30.845  43.751   5.688
 3897POPC   C1A51087  30.535  44.068   6.359
 3897POPC   D2A51088  30.715  44.102   6.763
 3897POPC   C3A51089  30.464  44.069   7.127
 3897POPC   C4A51090  30.340  43.849   7.510
 3897POPC   C1B51091  30.924  43.610   6.115
 3897POPC   C2B51092  30.724  43.622   6.510
 3897POPC   C3B51093  30.707  43.612   6.964
 3897POPC   C4B51094  31.072  43.540   7.199
 3898POPC   NC351095  36.882   4.099   5.272
 3898POPC   PO451096  36.607   4.695   5.512
 3898POPC   GL151097  36.787   4.408   5.799
 3898POPC   GL251098  36.752   4.051   5.756
 3898POPC   C1A51099  36.858   4.385   6.242
 3898POPC   D2A51100  36.897   4.623   6.657
 3898POPC   C3A51101  37.179   4.420   6.999
 3898POPC   C4A51102  37.191   4.185   7.420
 3898POPC   C1B51103  36.478   4.020   6.112
 3898POPC   C2B51104  36.441   3.813   6.539
 3898POPC   C3B51105  36.472   4.012   6.958
 3898POPC   C4B51106  36.673   4.370   7.079
 3899POPC   NC351107  34.896  44.009   5.180
 3899POPC   PO451108  34.389  43.528   5.417
 3899POPC   GL151109  34.583  43.701   5.764
 3899POPC   GL251110  34.564  44.068   5.791
 3899POPC   C1A51111  34.810  43.637   6.158
 3899POPC   D2A51112  34.577  43.621   6.554
 3899POPC   C3A51113  34.719  43.804   6.934
 3899POPC   C4A51114  34.854  43.599   7.278
 3899POPC   C1B51115  34.399  43.943   6.194
 3899POPC   C2B51116  34.428  44.116   6.608
 3899POPC   C3B51117  34.307  44.097   7.029
 3899POPC   C4B51118  34.200  43.852   7.377
 3900POPC   NC351119  27.498  13.061   5.386
 3900POPC   PO451120  27.888  12.593   5.458
 3900POPC   GL151121  27.722  12.714   5.863
 3900POPC   GL251122  27.409  12.842   5.816
 3900POPC   C1A51123  27.627  12.828   6.316
 3900POPC   D2A51124  27.508  13.115   6.669
 3900POPC   C3A51125  27.630  12.967   7.078
 3900POPC   C4A51126  28.015  12.952   7.344
 3900POPC   C1B51127  27.206  13.045   6.123
 3900POPC   C2B51128  27.119  12.824   6.486
 3900POPC   C3B51129  27.168  12.675   6.901
 3900POPC   C4B51130  27.477  12.456   7.134
 3901POPC   NC351131  29.882  22.648   5.462
 3901POPC   PO451132  30.484  22.877   5.547
 3901POPC   GL151133  30.197  22.988   5.890
 3901POPC   GL251134  30.084  22.659   5.939
 3901POPC   C1A51135  30.041  23.088   6.345
 3901POPC   D2A51136  29.818  23.324   6.689
 3901POPC   C3A51137  29.952  23.522   7.092
 3901POPC   C4A51138  30.010  23.534   7.579
 3901POPC   C1B51139  29.679  22.854   6.093
 3901POPC   C2B51140  29.536  22.805   6.526
 3901POPC   C3B51141  29.599  22.539   6.897
 3901POPC   C4B51142  29.710  22.700   7.322
 3902POPC   NC351143  11.246   5.263   5.513
 3902POPC   PO451144  11.652   4.710   5.536
 3902POPC   GL151145  11.322   4.845   5.828
 3902POPC   GL251146  11.009   4.791   5.643
 3902POPC   C1A51147  11.186   5.085   6.224
 3902POPC   D2A51148  11.240   5.385   6.600
 3902POPC   C3A51149  11.579   5.249   6.880
 3902POPC   C4A51150  11.434   4.955   7.180
 3902POPC   C1B51151  10.798   4.786   6.038
 3902POPC   C2B51152  10.793   4.849   6.472
 3902POPC   C3B51153  11.022   4.946   6.839
 3902POPC   C4B51154  10.942   4.805   7.266
 3903POPC   NC351155  13.204  36.323   5.654
 3903POPC   PO451156  13.702  36.038   5.369
 3903POPC   GL151157  13.581  35.981   5.797
 3903POPC   GL251158  13.740  36.262   5.861
 3903POPC   C1A51159  13.679  36.001   6.283
 3903POPC   D2A51160  13.969  35.956   6.657
 3903POPC   C3A51161  13.734  36.155   7.011
 3903POPC   C4A51162  13.399  36.054   7.276
 3903POPC   C1B51163  13.438  36.451   6.234
 3903POPC   C2B51164  13.340  36.401   6.684
 3903POPC   C3B51165  13.330  36.531   7.112
 3903POPC   C4B51166  13.628  36.497   7.472
 3904POPC   NC351167  40.346  33.710   5.478
 3904POPC   PO451168  40.669  34.301   5.386
 3904POPC   GL151169  40.642  33.981   5.784
 3904POPC   GL251170  40.387  34.091   5.962
 3904POPC   C1A51171  40.565  33.662   6.169
 3904POPC   D2A51172  40.336  33.662   6.614
 3904POPC   C3A51173  40.514  33.657   7.031
 3904POPC   C4A51174  40.921  33.739   7.262
 3904POPC   C1B51175  40.763  34.132   6.270
 3904POPC   C2B51176  40.796  34.094   6.725
 3904POPC   C3B51177  40.568  34.155   7.105
 3904POPC   C4B51178  40.619  34.147   7.550
 3905POPC   NC351179   0.284  18.363   5.294
 3905POPC   PO451180   0.845  18.072   5.571
 3905POPC   GL151181   0.641  18.498   5.718
 3905POPC   GL251182   0.291  18.484   5.824
 3905POPC   C1A51183   0.652  18.717   6.130
 3905POPC   D2A51184   0.770  18.546   6.536
 3905POPC   C3A51185   0.556  18.475   6.903
 3905POPC   C4A51186   0.698  18.173   7.181
 3905POPC   C1B51187   0.507  18.225   6.188
 3905POPC   C2B51188   0.583  18.025   6.626
 3905POPC   C3B51189   0.287  17.998   6.967
 3905POPC   C4B51190  44.965  18.285   7.045
 3906POPC   NC351191   0.477  38.228   5.087
 3906POPC   PO451192   0.101  37.809   5.425
 3906POPC   GL151193   0.416  37.714   5.736
 3906POPC   GL251194   0.690  37.498   5.786
 3906POPC   C1A51195   0.323  37.638   6.157
 3906POPC   D2A51196   0.256  37.653   6.585
 3906POPC   C3A51197   0.568  37.914   6.772
 3906POPC   C4A51198   0.719  38.069   7.177
 3906POPC   C1B51199   0.715  37.312   6.175
 3906POPC   C2B51200   0.633  37.312   6.621
 3906POPC   C3B51201   0.740  37.500   7.030
 3906POPC   C4B51202   0.766  37.623   7.469
 3907POPC   NC351203  36.656  41.390   5.424
 3907POPC   PO451204  37.275  41.715   5.318
 3907POPC   GL151205  37.084  41.577   5.714
 3907POPC   GL251206  36.741  41.661   5.849
 3907POPC   C1A51207  37.180  41.635   6.164
 3907POPC   D2A51208  36.999  41.591   6.579
 3907POPC   C3A51209  37.199  41.664   6.981
 3907POPC   C4A51210  36.949  41.585   7.334
 3907POPC   C1B51211  36.779  41.262   6.119
 3907POPC   C2B51212  36.756  41.086   6.547
 3907POPC   C3B51213  36.722  41.322   6.928
 3907POPC   C4B51214  36.559  41.239   7.317
 3908POPC   NC351215  25.805  26.571   5.556
 3908POPC   PO451216  26.260  27.037   5.267
 3908POPC   GL151217  26.126  26.997   5.720
 3908POPC   GL251218  26.408  27.158   5.831
 3908POPC   C1A51219  25.852  26.916   6.139
 3908POPC   D2A51220  25.702  27.085   6.563
 3908POPC   C3A51221  25.853  26.891   6.947
 3908POPC   C4A51222  25.983  27.035   7.322
 3908POPC   C1B51223  26.328  27.051   6.274
 3908POPC   C2B51224  26.292  27.035   6.723
 3908POPC   C3B51225  26.447  26.946   7.137
 3908POPC   C4B51226  26.425  26.915   7.595
 3909POPC   NC351227   6.899   8.193   5.355
 3909POPC   PO451228   6.327   7.870   5.340
 3909POPC   GL151229   6.549   8.049   5.753
 3909POPC   GL251230   6.765   8.389   5.810
 3909POPC   C1A51231   6.682   8.044   6.193
 3909POPC   D2A51232   6.599   8.234   6.577
 3909POPC   C3A51233   6.743   7.970   6.869
 3909POPC   C4A51234   6.428   7.890   7.134
 3909POPC   C1B51235   6.751   8.602   6.237
 3909POPC   C2B51236   6.472   8.736   6.616
 3909POPC   C3B51237   6.434   8.519   7.027
 3909POPC   C4B51238   6.803   8.329   7.205
 3910POPC   NC351239  10.440   9.265   5.399
 3910POPC   PO451240  10.906   8.823   5.441
 3910POPC   GL151241  10.575   8.877   5.774
 3910POPC   GL251242  10.476   9.213   5.892
 3910POPC   C1A51243  10.296   8.821   6.162
 3910POPC   D2A51244  10.117   8.996   6.535
 3910POPC   C3A51245  10.260   8.892   6.959
 3910POPC   C4A51246  10.336   9.139   7.362
 3910POPC   C1B51247  10.722   9.078   6.228
 3910POPC   C2B51248  10.659   8.938   6.616
 3910POPC   C3B51249  10.695   9.158   6.979
 3910POPC   C4B51250  10.992   9.189   7.260
 3911POPC   NC351251  42.076   0.811   5.344
 3911POPC   PO451252  42.398   0.249   5.473
 3911POPC   GL151253  42.272   0.409   5.835
 3911POPC   GL251254  42.478   0.677   5.903
 3911POPC   C1A51255  42.413   0.193   6.221
 3911POPC   D2A51256  42.526   0.352   6.612
 3911POPC   C3A51257  42.336   0.268   7.008
 3911POPC   C4A51258  42.344   0.341   7.465
 3911POPC   C1B51259  42.176   0.636   6.276
 3911POPC   C2B51260  42.118   0.643   6.710
 3911POPC   C3B51261  42.142   0.714   7.156
 3911POPC   C4B51262  41.913   0.603   7.500
 3912POPC   NC351263   6.049  26.163   5.275
 3912POPC   PO451264   5.398  25.923   5.256
 3912POPC   GL151265   5.591  26.028   5.739
 3912POPC   GL251266   5.975  26.003   5.779
 3912POPC   C1A51267   5.724  25.984   6.232
 3912POPC   D2A51268   5.648  25.855   6.708
 3912POPC   C3A51269   5.773  26.124   7.089
 3912POPC   C4A51270   5.678  26.317   7.547
 3912POPC   C1B51271   6.238  25.987   6.179
 3912POPC   C2B51272   6.135  25.934   6.636
 3912POPC   C3B51273   6.326  25.985   7.043
 3912POPC   C4B51274   6.334  25.739   7.456
 3913POPC   NC351275   0.964  15.339   5.391
 3913POPC   PO451276   1.595  15.126   5.303
 3913POPC   GL151277   1.343  15.164   5.671
 3913POPC   GL251278   1.386  15.488   5.733
 3913POPC   C1A51279   1.136  14.998   6.031
 3913POPC   D2A51280   1.193  14.848   6.443
 3913POPC   C3A51281   0.919  15.027   6.766
 3913POPC   C4A51282   1.134  15.039   7.163
 3913POPC   C1B51283   1.509  15.343   6.147
 3913POPC   C2B51284   1.272  15.435   6.509
 3913POPC   C3B51285   1.114  15.501   6.909
 3913POPC   C4B51286   1.261  15.506   7.305
 3914POPC   NC351287  37.927  27.844   5.331
 3914POPC   PO451288  37.565  27.273   5.204
 3914POPC   GL151289  37.743  27.450   5.628
 3914POPC   GL251290  37.476  27.401   5.878
 3914POPC   C1A51291  37.955  27.431   6.070
 3914POPC   D2A51292  37.797  27.337   6.515
 3914POPC   C3A51293  37.872  27.535   6.946
 3914POPC   C4A51294  37.731  27.470   7.365
 3914POPC   C1B51295  37.548  27.762   6.193
 3914POPC   C2B51296  37.616  28.097   6.532
 3914POPC   C3B51297  37.685  28.086   6.970
 3914POPC   C4B51298  37.541  28.008   7.398
 3915POPC   NC351299  24.791   5.252   5.368
 3915POPC   PO451300  24.217   4.770   5.409
 3915POPC   GL151301  24.416   5.010   5.729
 3915POPC   GL251302  24.762   4.893   5.831
 3915POPC   C1A51303  24.319   4.975   6.178
 3915POPC   D2A51304  24.517   5.084   6.547
 3915POPC   C3A51305  24.293   4.991   6.892
 3915POPC   C4A51306  24.337   4.850   7.293
 3915POPC   C1B51307  24.732   5.254   6.070
 3915POPC   C2B51308  24.795   5.519   6.431
 3915POPC   C3B51309  24.849   5.421   6.862
 3915POPC   C4B51310  24.771   5.028   7.082
 3916POPC   NC351311  33.236   3.724   5.452
 3916POPC   PO451312  32.970   3.090   5.256
 3916POPC   GL151313  32.827   3.294   5.673
 3916POPC   GL251314  32.790   3.677   5.725
 3916POPC   C1A51315  32.897   3.372   6.132
 3916POPC   D2A51316  33.268   3.445   6.431
 3916POPC   C3A51317  33.144   3.470   6.870
 3916POPC   C4A51318  32.675   3.465   6.981
 3916POPC   C1B51319  32.781   3.918   6.151
 3916POPC   C2B51320  32.995   4.065   6.543
 3916POPC   C3B51321  33.060   3.957   6.984
 3916POPC   C4B51322  33.368   3.783   7.260
 3917POPC   NC351323  44.622   4.950   5.333
 3917POPC   PO451324  44.552   5.589   5.523
 3917POPC   GL151325  44.665   5.245   5.761
 3917POPC   GL251326  44.946   4.989   5.739
 3917POPC   C1A51327  44.551   5.098   6.174
 3917POPC   D2A51328  44.407   5.115   6.585
 3917POPC   C3A51329  44.521   4.913   6.952
 3917POPC   C4A51330  44.220   4.840   7.297
 3917POPC   C1B51331   0.006   5.304   6.118
 3917POPC   C2B51332  44.876   5.326   6.562
 3917POPC   C3B51333   0.081   5.158   6.914
 3917POPC   C4B51334   0.075   4.898   7.264
 3918POPC   NC351335  27.962   0.712   5.501
 3918POPC   PO451336  28.593   0.525   5.364
 3918POPC   GL151337  28.400   0.705   5.776
 3918POPC   GL251338  28.167   0.407   5.846
 3918POPC   C1A51339  28.311   0.645   6.249
 3918POPC   D2A51340  28.429   0.352   6.589
 3918POPC   C3A51341  28.417   0.590   6.982
 3918POPC   C4A51342  28.082   0.724   7.234
 3918POPC   C1B51343  28.576   0.251   5.990
 3918POPC   C2B51344  28.813   0.101   6.355
 3918POPC   C3B51345  28.813   0.082   6.820
 3918POPC   C4B51346  28.613   0.186   7.194
 3919POPC   NC351347  36.489  44.782   5.466
 3919POPC   PO451348  35.736  44.614   5.460
 3919POPC   GL151349  36.008  44.815   5.741
 3919POPC   GL251350  36.178  44.503   5.757
 3919POPC   C1A51351  36.062  44.959   6.165
 3919POPC   D2A51352  36.200  44.829   6.580
 3919POPC   C3A51353  35.946  44.932   6.932
 3919POPC   C4A51354  36.140  44.897   7.318
 3919POPC   C1B51355  36.146  44.432   6.184
 3919POPC   C2B51356  36.326  44.342   6.581
 3919POPC   C3B51357  36.158  44.463   6.975
 3919POPC   C4B51358  36.085  44.264   7.353
 3920POPC   NC351359  29.433  28.847   5.435
 3920POPC   PO451360  30.069  29.107   5.420
 3920POPC   GL151361  30.049  29.130   5.849
 3920POPC   GL251362  29.709  29.241   5.806
 3920POPC   C1A51363  30.180  29.040   6.269
 3920POPC   D2A51364  30.020  29.168   6.637
 3920POPC   C3A51365  30.099  28.927   6.998
 3920POPC   C4A51366  30.106  29.146   7.372
 3920POPC   C1B51367  29.495  29.435   6.133
 3920POPC   C2B51368  29.522  29.295   6.561
 3920POPC   C3B51369  29.644  29.177   6.994
 3920POPC   C4B51370  29.685  29.417   7.342
 3921POPC   NC351371  32.166  22.497   5.556
 3921POPC   PO451372  32.276  21.827   5.543
 3921POPC   GL151373  32.203  22.061   5.906
 3921POPC   GL251374  32.557  22.081   5.919
 3921POPC   C1A51375  31.942  22.035   6.319
 3921POPC   D2A51376  31.885  22.140   6.779
 3921POPC   C3A51377  32.230  22.311   7.055
 3921POPC   C4A51378  32.171  22.625   7.401
 3921POPC   C1B51379  32.514  22.072   6.345
 3921POPC   C2B51380  32.715  21.910   6.697
 3921POPC   C3B51381  32.785  22.130   7.103
 3921POPC   C4B51382  32.569  22.325   7.465
 3922POPC   NC351383   7.124  10.993   5.234
 3922POPC   PO451384   7.711  11.345   5.320
 3922POPC   GL151385   7.455  11.111   5.656
 3922POPC   GL251386   7.283  11.363   5.867
 3922POPC   C1A51387   7.479  10.950   6.101
 3922POPC   D2A51388   7.290  10.975   6.512
 3922POPC   C3A51389   7.384  11.299   6.805
 3922POPC   C4A51390   7.502  11.367   7.203
 3922POPC   C1B51391   7.318  11.440   6.298
 3922POPC   C2B51392   7.534  11.730   6.501
 3922POPC   C3B51393   7.746  11.693   6.862
 3922POPC   C4B51394   7.700  11.852   7.253
 3923POPC   NC351395  37.172  40.567   5.550
 3923POPC   PO451396  36.529  40.477   5.575
 3923POPC   GL151397  36.774  40.781   5.847
 3923POPC   GL251398  36.971  41.043   5.653
 3923POPC   C1A51399  37.060  40.738   6.227
 3923POPC   D2A51400  37.132  40.735   6.693
 3923POPC   C3A51401  36.768  40.608   6.956
 3923POPC   C4A51402  36.475  40.749   7.291
 3923POPC   C1B51403  37.264  41.147   5.965
 3923POPC   C2B51404  37.241  41.188   6.413
 3923POPC   C3B51405  37.214  41.192   6.859
 3923POPC   C4B51406  37.014  41.009   7.202
 3924POPC   NC351407   4.752  23.087   5.327
 3924POPC   PO451408   5.168  22.637   5.296
 3924POPC   GL151409   5.008  22.684   5.705
 3924POPC   GL251410   4.997  23.049   5.772
 3924POPC   C1A51411   5.220  22.591   6.093
 3924POPC   D2A51412   5.434  22.672   6.502
 3924POPC   C3A51413   5.127  22.791   6.820
 3924POPC   C4A51414   5.035  22.862   7.239
 3924POPC   C1B51415   4.803  22.926   6.150
 3924POPC   C2B51416   4.809  23.100   6.547
 3924POPC   C3B51417   4.778  23.210   6.962
 3924POPC   C4B51418   4.726  23.455   7.331
 3925POPC   NC351419  19.125  24.759   5.623
 3925POPC   PO451420  19.281  24.171   5.378
 3925POPC   GL151421  19.275  24.274   5.799
 3925POPC   GL251422  18.953  24.342   5.877
 3925POPC   C1A51423  19.294  24.466   6.225
 3925POPC   D2A51424  19.019  24.371   6.545
 3925POPC   C3A51425  19.233  24.411   6.905
 3925POPC   C4A51426  19.006  24.364   7.283
 3925POPC   C1B51427  18.811  24.661   6.169
 3925POPC   C2B51428  18.884  24.860   6.555
 3925POPC   C3B51429  18.847  24.729   6.947
 3925POPC   C4B51430  18.668  24.734   7.320
 3926POPC   NC351431   5.335  29.120   5.477
 3926POPC   PO451432   5.060  29.715   5.491
 3926POPC   GL151433   4.885  29.449   5.844
 3926POPC   GL251434   4.956  29.069   5.836
 3926POPC   C1A51435   5.026  29.313   6.280
 3926POPC   D2A51436   5.098  29.063   6.657
 3926POPC   C3A51437   4.843  29.189   6.986
 3926POPC   C4A51438   4.983  29.405   7.333
 3926POPC   C1B51439   4.948  28.799   6.232
 3926POPC   C2B51440   4.720  28.725   6.655
 3926POPC   C3B51441   4.752  28.681   7.090
 3926POPC   C4B51442   5.133  28.857   7.277
 3927POPC   NC351443  26.123   4.062   5.258
 3927POPC   PO451444  25.877   4.682   5.473
 3927POPC   GL151445  26.036   4.344   5.734
 3927POPC   GL251446  26.359   4.187   5.697
 3927POPC   C1A51447  25.962   4.206   6.165
 3927POPC   D2A51448  25.691   4.244   6.536
 3927POPC   C3A51449  25.932   4.204   6.914
 3927POPC   C4A51450  25.866   4.432   7.282
 3927POPC   C1B51451  26.458   4.034   6.100
 3927POPC   C2B51452  26.305   4.027   6.539
 3927POPC   C3B51453  26.457   4.023   6.952
 3927POPC   C4B51454  26.318   3.922   7.397
 3928POPC   NC351455  11.892  40.432   5.553
 3928POPC   PO451456  12.209  41.006   5.350
 3928POPC   GL151457  12.106  40.997   5.794
 3928POPC   GL251458  11.764  40.985   5.831
 3928POPC   C1A51459  12.343  41.027   6.220
 3928POPC   D2A51460  12.586  41.059   6.603
 3928POPC   C3A51461  12.442  40.843   6.977
 3928POPC   C4A51462  12.185  40.474   7.119
 3928POPC   C1B51463  11.950  40.707   6.183
 3928POPC   C2B51464  12.062  40.830   6.634
 3928POPC   C3B51465  11.964  40.922   7.108
 3928POPC   C4B51466  11.806  40.670   7.452
 3929POPC   NC351467  34.392  13.574   5.285
 3929POPC   PO451468  34.800  13.994   5.699
 3929POPC   GL151469  34.401  13.836   5.845
 3929POPC   GL251470  34.400  13.498   5.959
 3929POPC   C1A51471  34.248  13.823   6.293
 3929POPC   D2A51472  34.396  13.457   6.595
 3929POPC   C3A51473  34.581  13.661   6.962
 3929POPC   C4A51474  34.893  13.785   7.267
 3929POPC   C1B51475  34.737  13.645   6.253
 3929POPC   C2B51476  35.001  13.402   6.502
 3929POPC   C3B51477  34.915  13.260   6.874
 3929POPC   C4B51478  34.687  13.259   7.263
 3930POPC   NC351479  38.992  25.598   5.289
 3930POPC   PO451480  39.361  25.097   5.550
 3930POPC   GL151481  39.370  25.311   5.912
 3930POPC   GL251482  39.124  25.510   5.768
 3930POPC   C1A51483  39.227  25.272   6.328
 3930POPC   D2A51484  38.881  25.161   6.582
 3930POPC   C3A51485  39.030  25.008   6.929
 3930POPC   C4A51486  39.386  25.127   7.175
 3930POPC   C1B51487  38.931  25.663   6.111
 3930POPC   C2B51488  38.897  25.670   6.543
 3930POPC   C3B51489  38.922  25.542   6.984
 3930POPC   C4B51490  39.121  25.493   7.414
 3931POPC   NC351491  10.792  23.401   5.515
 3931POPC   PO451492  10.342  22.884   5.587
 3931POPC   GL151493  10.420  23.215   5.897
 3931POPC   GL251494  10.752  23.111   5.918
 3931POPC   C1A51495  10.519  23.147   6.357
 3931POPC   D2A51496  10.450  22.779   6.587
 3931POPC   C3A51497  10.450  22.936   7.006
 3931POPC   C4A51498  10.051  23.033   7.206
 3931POPC   C1B51499  10.842  22.788   6.205
 3931POPC   C2B51500  10.958  22.827   6.639
 3931POPC   C3B51501  10.963  22.643   7.074
 3931POPC   C4B51502  10.828  22.577   7.532
 3932POPC   NC351503  42.063  28.659   5.154
 3932POPC   PO451504  42.370  28.071   5.226
 3932POPC   GL151505  42.281  28.226   5.660
 3932POPC   GL251506  42.114  28.550   5.794
 3932POPC   C1A51507  42.383  28.179   6.090
 3932POPC   D2A51508  42.360  28.387   6.485
 3932POPC   C3A51509  42.337  28.176   6.861
 3932POPC   C4A51510  42.251  28.136   7.283
 3932POPC   C1B51511  41.960  28.656   6.235
 3932POPC   C2B51512  42.040  28.760   6.681
 3932POPC   C3B51513  42.031  28.543   7.071
 3932POPC   C4B51514  42.075  28.608   7.526
 3933POPC   NC351515  44.447  36.993   5.424
 3933POPC   PO451516   0.071  36.902   5.503
 3933POPC   GL151517  44.758  37.075   5.840
 3933POPC   GL251518  44.365  37.135   5.906
 3933POPC   C1A51519  44.709  36.916   6.274
 3933POPC   D2A51520  44.838  36.914   6.713
 3933POPC   C3A51521  44.623  36.689   7.073
 3933POPC   C4A51522  44.833  36.549   7.464
 3933POPC   C1B51523  44.256  37.115   6.344
 3933POPC   C2B51524  44.343  37.048   6.750
 3933POPC   C3B51525  44.586  37.201   7.057
 3933POPC   C4B51526  44.426  37.301   7.424
 3934POPC   NC351527  43.737  25.484   5.302
 3934POPC   PO451528  44.005  25.007   5.637
 3934POPC   GL151529  43.927  25.136   5.955
 3934POPC   GL251530  43.709  25.392   5.817
 3934POPC   C1A51531  43.838  25.031   6.379
 3934POPC   D2A51532  43.732  24.895   6.756
 3934POPC   C3A51533  43.866  25.186   7.054
 3934POPC   C4A51534  44.036  25.154   7.444
 3934POPC   C1B51535  43.804  25.528   6.208
 3934POPC   C2B51536  43.655  25.494   6.557
 3934POPC   C3B51537  43.800  25.691   6.866
 3934POPC   C4B51538  43.828  25.680   7.288
 3935POPC   NC351539   1.908  12.403   5.426
 3935POPC   PO451540   1.932  13.042   5.298
 3935POPC   GL151541   1.787  12.837   5.677
 3935POPC   GL251542   2.115  12.927   5.795
 3935POPC   C1A51543   1.760  12.753   6.133
 3935POPC   D2A51544   1.619  12.905   6.530
 3935POPC   C3A51545   1.875  12.732   6.870
 3935POPC   C4A51546   1.718  12.752   7.294
 3935POPC   C1B51547   2.310  13.154   6.129
 3935POPC   C2B51548   2.147  13.075   6.536
 3935POPC   C3B51549   2.250  13.102   6.952
 3935POPC   C4B51550   2.221  12.818   7.278
 3936POPC   NC351551  41.366  24.130   5.271
 3936POPC   PO451552  41.558  24.815   5.258
 3936POPC   GL151553  41.471  24.600   5.707
 3936POPC   GL251554  41.751  24.414   5.896
 3936POPC   C1A51555  41.299  24.401   6.136
 3936POPC   D2A51556  41.261  24.113   6.512
 3936POPC   C3A51557  41.488  24.278   6.857
 3936POPC   C4A51558  41.632  24.549   7.155
 3936POPC   C1B51559  41.962  24.590   6.273
 3936POPC   C2B51560  41.797  24.712   6.684
 3936POPC   C3B51561  41.898  24.977   7.043
 3936POPC   C4B51562  41.925  24.861   7.458
 3937POPC   NC351563  29.833   7.926   5.420
 3937POPC   PO451564  30.357   8.318   5.289
 3937POPC   GL151565  30.122   8.326   5.712
 3937POPC   GL251566  29.804   8.171   5.874
 3937POPC   C1A51567  30.284   8.278   6.154
 3937POPC   D2A51568  30.087   8.182   6.548
 3937POPC   C3A51569  30.242   8.370   6.956
 3937POPC   C4A51570  30.124   8.125   7.308
 3937POPC   C1B51571  29.488   8.284   6.222
 3937POPC   C2B51572  29.540   8.414   6.642
 3937POPC   C3B51573  29.754   8.185   6.952
 3937POPC   C4B51574  29.623   7.942   7.285
 3938POPC   NC351575   7.914  27.167   5.517
 3938POPC   PO451576   7.463  26.720   5.232
 3938POPC   GL151577   7.369  26.731   5.690
 3938POPC   GL251578   7.409  27.079   5.822
 3938POPC   C1A51579   7.235  26.690   6.126
 3938POPC   D2A51580   7.397  26.910   6.468
 3938POPC   C3A51581   7.360  26.696   6.833
 3938POPC   C4A51582   7.376  26.812   7.231
 3938POPC   C1B51583   7.109  27.227   6.163
 3938POPC   C2B51584   7.098  27.301   6.614
 3938POPC   C3B51585   7.383  27.250   6.975
 3938POPC   C4B51586   7.300  27.253   7.456
 3939POPC   NC351587   8.001  12.342   4.982
 3939POPC   PO451588   8.141  11.857   5.384
 3939POPC   GL151589   8.111  12.010   5.769
 3939POPC   GL251590   8.111  12.338   5.758
 3939POPC   C1A51591   8.154  11.853   6.183
 3939POPC   D2A51592   8.312  12.047   6.555
 3939POPC   C3A51593   8.249  11.862   6.953
 3939POPC   C4A51594   8.615  11.931   7.188
 3939POPC   C1B51595   7.946  12.325   6.194
 3939POPC   C2B51596   7.823  12.173   6.626
 3939POPC   C3B51597   7.937  12.277   7.091
 3939POPC   C4B51598   7.847  12.248   7.559
 3940POPC   NC351599   3.427  38.583   5.269
 3940POPC   PO451600   4.065  38.526   5.552
 3940POPC   GL151601   3.654  38.568   5.781
 3940POPC   GL251602   3.269  38.452   5.737
 3940POPC   C1A51603   3.785  38.619   6.211
 3940POPC   D2A51604   4.063  38.803   6.501
 3940POPC   C3A51605   3.842  38.774   6.875
 3940POPC   C4A51606   3.740  38.576   7.250
 3940POPC   C1B51607   3.308  38.432   6.186
 3940POPC   C2B51608   3.492  38.432   6.607
 3940POPC   C3B51609   3.330  38.598   6.949
 3940POPC   C4B51610   3.269  38.430   7.326
 3941POPC   NC351611  36.601  20.599   5.196
 3941POPC   PO451612  35.956  20.599   5.417
 3941POPC   GL151613  36.111  20.591   5.814
 3941POPC   GL251614  36.424  20.750   5.677
 3941POPC   C1A51615  35.914  20.477   6.206
 3941POPC   D2A51616  36.153  20.528   6.587
 3941POPC   C3A51617  35.910  20.547   6.950
 3941POPC   C4A51618  36.040  20.321   7.297
 3941POPC   C1B51619  36.545  20.698   6.113
 3941POPC   C2B51620  36.529  20.884   6.528
 3941POPC   C3B51621  36.576  20.717   6.957
 3941POPC   C4B51622  36.399  20.698   7.391
 3942POPC   NC351623  16.157   5.713   5.282
 3942POPC   PO451624  16.731   5.985   5.192
 3942POPC   GL151625  16.748   5.967   5.718
 3942POPC   GL251626  16.854   5.645   5.840
 3942POPC   C1A51627  16.894   6.003   6.202
 3942POPC   D2A51628  16.991   6.071   6.669
 3942POPC   C3A51629  16.671   6.170   6.986
 3942POPC   C4A51630  16.593   5.904   7.345
 3942POPC   C1B51631  16.645   5.561   6.246
 3942POPC   C2B51632  16.449   5.496   6.622
 3942POPC   C3B51633  16.733   5.662   6.908
 3942POPC   C4B51634  16.918   5.503   7.261
 3943POPC   NC351635  15.834  41.947   5.101
 3943POPC   PO451636  16.209  41.396   5.250
 3943POPC   GL151637  15.961  41.396   5.623
 3943POPC   GL251638  15.813  41.736   5.643
 3943POPC   C1A51639  16.095  41.436   6.055
 3943POPC   D2A51640  16.150  41.719   6.387
 3943POPC   C3A51641  16.124  41.490   6.766
 3943POPC   C4A51642  16.060  41.484   7.203
 3943POPC   C1B51643  15.717  41.866   6.088
 3943POPC   C2B51644  15.659  41.642   6.483
 3943POPC   C3B51645  15.695  41.698   6.911
 3943POPC   C4B51646  15.454  41.825   7.209
 3944POPC   NC351647  41.978  15.858   5.421
 3944POPC   PO451648  42.618  16.133   5.520
 3944POPC   GL151649  42.391  16.054   5.854
 3944POPC   GL251650  42.075  16.196   5.779
 3944POPC   C1A51651  42.482  15.981   6.284
 3944POPC   D2A51652  42.308  15.698   6.579
 3944POPC   C3A51653  42.194  15.842   6.980
 3944POPC   C4A51654  42.294  15.774   7.391
 3944POPC   C1B51655  41.978  15.930   6.128
 3944POPC   C2B51656  42.012  16.109   6.525
 3944POPC   C3B51657  42.021  16.321   6.900
 3944POPC   C4B51658  42.126  16.255   7.341
 3945POPC   NC351659  33.177   1.892   5.584
 3945POPC   PO451660  33.405   2.472   5.483
 3945POPC   GL151661  33.121   2.347   5.826
 3945POPC   GL251662  32.781   2.193   5.688
 3945POPC   C1A51663  33.277   2.128   6.214
 3945POPC   D2A51664  33.423   2.145   6.650
 3945POPC   C3A51665  33.192   1.859   6.892
 3945POPC   C4A51666  33.214   1.550   7.175
 3945POPC   C1B51667  32.653   2.037   6.099
 3945POPC   C2B51668  32.853   1.922   6.481
 3945POPC   C3B51669  32.803   2.170   6.825
 3945POPC   C4B51670  32.853   2.074   7.223
 3946POPC   NC351671  27.972  22.771   5.362
 3946POPC   PO451672  28.623  22.598   5.381
 3946POPC   GL151673  28.455  22.880   5.734
 3946POPC   GL251674  28.172  23.108   5.695
 3946POPC   C1A51675  28.495  22.985   6.199
 3946POPC   D2A51676  28.491  22.743   6.624
 3946POPC   C3A51677  28.548  22.919   7.025
 3946POPC   C4A51678  28.842  22.951   7.340
 3946POPC   C1B51679  28.011  22.855   6.053
 3946POPC   C2B51680  28.049  22.963   6.502
 3946POPC   C3B51681  28.148  23.179   6.890
 3946POPC   C4B51682  28.141  23.092   7.314
 3947POPC   NC351683  25.415  31.848   5.385
 3947POPC   PO451684  25.115  31.286   5.557
 3947POPC   GL151685  25.259  31.537   5.870
 3947POPC   GL251686  25.589  31.593   5.791
 3947POPC   C1A51687  25.300  31.474   6.312
 3947POPC   D2A51688  25.160  31.143   6.593
 3947POPC   C3A51689  25.001  31.232   7.021
 3947POPC   C4A51690  25.081  31.416   7.421
 3947POPC   C1B51691  25.777  31.665   6.178
 3947POPC   C2B51692  25.680  31.661   6.618
 3947POPC   C3B51693  25.477  31.493   6.995
 3947POPC   C4B51694  25.544  31.589   7.441
 3948POPC   NC351695  34.613   0.726   5.399
 3948POPC   PO451696  34.324   0.181   5.228
 3948POPC   GL151697  34.573   0.322   5.697
 3948POPC   GL251698  34.405   0.687   5.849
 3948POPC   C1A51699  34.678   0.441   6.183
 3948POPC   D2A51700  34.695   0.640   6.611
 3948POPC   C3A51701  34.476   0.396   6.909
 3948POPC   C4A51702  34.594   0.212   7.281
 3948POPC   C1B51703  34.154   0.747   6.232
 3948POPC   C2B51704  34.104   0.876   6.645
 3948POPC   C3B51705  34.302   0.868   7.044
 3948POPC   C4B51706  34.368   0.917   7.490
 3949POPC   NC351707   3.047  44.700   5.328
 3949POPC   PO451708   2.504  44.291   5.442
 3949POPC   GL151709   2.658  44.518   5.839
 3949POPC   GL251710   2.624  44.887   5.871
 3949POPC   C1A51711   2.781  44.606   6.301
 3949POPC   D2A51712   3.018  44.769   6.681
 3949POPC   C3A51713   2.988  44.459   6.999
 3949POPC   C4A51714   2.739  44.574   7.342
 3949POPC   C1B51715   2.324  44.829   6.186
 3949POPC   C2B51716   2.326  44.643   6.586
 3949POPC   C3B51717   2.537  44.747   6.918
 3949POPC   C4B51718   2.425  44.970   7.287
 3950POPC   NC351719   7.389  30.620   5.223
 3950POPC   PO451720   7.377  29.935   5.295
 3950POPC   GL151721   7.215  30.008   5.704
 3950POPC   GL251722   7.389  30.238   5.911
 3950POPC   C1A51723   7.173  29.814   6.121
 3950POPC   D2A51724   7.408  29.665   6.470
 3950POPC   C3A51725   7.307  29.834   6.856
 3950POPC   C4A51726   7.271  29.778   7.281
 3950POPC   C1B51727   7.663  30.017   6.199
 3950POPC   C2B51728   7.834  29.935   6.614
 3950POPC   C3B51729   7.771  29.825   7.045
 3950POPC   C4B51730   7.800  30.161   7.234
 3951POPC   NC351731  39.607   5.053   5.216
 3951POPC   PO451732  38.987   5.127   5.316
 3951POPC   GL151733  39.192   5.096   5.669
 3951POPC   GL251734  39.243   4.770   5.736
 3951POPC   C1A51735  39.295   5.124   6.106
 3951POPC   D2A51736  39.343   5.163   6.557
 3951POPC   C3A51737  39.122   5.237   6.963
 3951POPC   C4A51738  39.153   4.977   7.355
 3951POPC   C1B51739  39.435   4.612   6.128
 3951POPC   C2B51740  39.489   4.652   6.588
 3951POPC   C3B51741  39.521   4.812   7.028
 3951POPC   C4B51742  39.642   4.838   7.515
 3952POPC   NC351743  44.830  17.475   5.365
 3952POPC   PO451744  44.432  17.008   5.417
 3952POPC   GL151745  44.515  17.325   5.775
 3952POPC   GL251746  44.563  17.717   5.786
 3952POPC   C1A51747  44.673  17.389   6.208
 3952POPC   D2A51748  44.490  17.213   6.589
 3952POPC   C3A51749  44.649  17.275   6.996
 3952POPC   C4A51750  44.653  17.469   7.400
 3952POPC   C1B51751  44.458  17.841   6.241
 3952POPC   C2B51752  44.433  17.733   6.702
 3952POPC   C3B51753  44.376  17.814   7.172
 3952POPC   C4B51754  44.327  17.753   7.662
 3953POPC   NC351755  25.708   1.781   5.472
 3953POPC   PO451756  25.611   1.065   5.487
 3953POPC   GL151757  25.416   1.243   5.876
 3953POPC   GL251758  25.048   1.412   5.841
 3953POPC   C1A51759  25.429   1.038   6.299
 3953POPC   D2A51760  25.104   0.971   6.616
 3953POPC   C3A51761  25.023   1.044   7.080
 3953POPC   C4A51762  25.308   1.112   7.447
 3953POPC   C1B51763  25.165   1.464   6.282
 3953POPC   C2B51764  25.536   1.458   6.564
 3953POPC   C3B51765  25.444   1.326   6.980
 3953POPC   C4B51766  25.131   1.544   7.210
 3954POPC   NC351767  10.281  11.100   5.379
 3954POPC   PO451768   9.667  11.341   5.206
 3954POPC   GL151769   9.897  11.432   5.628
 3954POPC   GL251770   9.918  11.085   5.758
 3954POPC   C1A51771   9.878  11.477   6.117
 3954POPC   D2A51772   9.695  11.609   6.543
 3954POPC   C3A51773   9.885  11.490   6.957
 3954POPC   C4A51774   9.919  11.310   7.335
 3954POPC   C1B51775   9.874  10.946   6.200
 3954POPC   C2B51776   9.869  11.086   6.635
 3954POPC   C3B51777   9.580  11.081   6.989
 3954POPC   C4B51778   9.395  10.744   7.200
 3955POPC   NC351779  41.740  22.540   4.975
 3955POPC   PO451780  41.596  22.012   5.428
 3955POPC   GL151781  41.681  22.151   5.858
 3955POPC   GL251782  41.523  22.500   5.835
 3955POPC   C1A51783  41.776  21.970   6.281
 3955POPC   D2A51784  41.523  21.754   6.573
 3955POPC   C3A51785  41.499  21.958   6.926
 3955POPC   C4A51786  41.544  22.024   7.318
 3955POPC   C1B51787  41.712  22.473   6.247
 3955POPC   C2B51788  41.554  22.403   6.651
 3955POPC   C3B51789  41.722  22.430   7.055
 3955POPC   C4B51790  42.139  22.481   7.237
 3956POPC   NC351791  38.920  29.409   5.237
 3956POPC   PO451792  38.360  29.027   5.422
 3956POPC   GL151793  38.559  29.120   5.795
 3956POPC   GL251794  38.790  29.366   5.757
 3956POPC   C1A51795  38.437  29.239   6.220
 3956POPC   D2A51796  38.618  29.094   6.613
 3956POPC   C3A51797  38.457  28.948   7.011
 3956POPC   C4A51798  38.310  28.793   7.403
 3956POPC   C1B51799  38.853  29.544   6.180
 3956POPC   C2B51800  38.896  29.542   6.647
 3956POPC   C3B51801  38.656  29.425   7.060
 3956POPC   C4B51802  38.559  29.254   7.501
 3957POPC   NC351803   1.668  42.415   5.156
 3957POPC   PO451804   2.288  42.237   5.450
 3957POPC   GL151805   2.268  42.155   5.864
 3957POPC   GL251806   1.974  41.929   5.901
 3957POPC   C1A51807   2.103  42.267   6.264
 3957POPC   D2A51808   1.864  42.364   6.612
 3957POPC   C3A51809   2.158  42.439   6.907
 3957POPC   C4A51810   2.474  42.236   7.116
 3957POPC   C1B51811   1.725  41.910   6.286
 3957POPC   C2B51812   1.722  41.877   6.745
 3957POPC   C3B51813   1.750  42.143   7.118
 3957POPC   C4B51814   1.867  42.377   7.482
 3958POPC   NC351815  25.209  36.516   5.364
 3958POPC   PO451816  25.575  37.037   5.251
 3958POPC   GL151817  25.415  36.929   5.661
 3958POPC   GL251818  25.541  36.611   5.770
 3958POPC   C1A51819  25.329  36.980   6.132
 3958POPC   D2A51820  25.090  36.902   6.541
 3958POPC   C3A51821  25.242  37.046   6.962
 3958POPC   C4A51822  25.165  37.368   7.304
 3958POPC   C1B51823  25.735  36.666   6.188
 3958POPC   C2B51824  25.629  36.891   6.578
 3958POPC   C3B51825  25.668  36.736   7.001
 3958POPC   C4B51826  25.585  36.698   7.445
 3959POPC   NC351827  19.811  26.401   5.319
 3959POPC   PO451828  19.745  25.739   5.391
 3959POPC   GL151829  19.846  25.904   5.771
 3959POPC   GL251830  20.104  25.666   5.907
 3959POPC   C1A51831  20.000  26.113   6.147
 3959POPC   D2A51832  19.985  26.366   6.476
 3959POPC   C3A51833  20.138  26.233   6.861
 3959POPC   C4A51834  19.842  26.262   7.208
 3959POPC   C1B51835  19.771  25.676   6.210
 3959POPC   C2B51836  19.710  25.841   6.602
 3959POPC   C3B51837  19.912  25.804   6.984
 3959POPC   C4B51838  20.042  25.455   7.165
 3960POPC   NC351839  37.908   8.644   5.675
 3960POPC   PO451840  37.658   9.101   5.208
 3960POPC   GL151841  37.643   9.107   5.677
 3960POPC   GL251842  37.403   9.345   5.792
 3960POPC   C1A51843  37.664   9.039   6.156
 3960POPC   D2A51844  37.583   8.729   6.511
 3960POPC   C3A51845  37.768   8.831   6.914
 3960POPC   C4A51846  37.650   8.860   7.352
 3960POPC   C1B51847  37.205   9.289   6.192
 3960POPC   C2B51848  37.386   9.215   6.579
 3960POPC   C3B51849  37.313   9.411   6.951
 3960POPC   C4B51850  37.457   9.321   7.338
 3961POPC   NC351851  30.172  21.719   5.232
 3961POPC   PO451852  30.255  22.350   5.395
 3961POPC   GL151853  29.951  22.177   5.755
 3961POPC   GL251854  29.645  22.360   5.805
 3961POPC   C1A51855  29.691  21.923   6.127
 3961POPC   D2A51856  29.579  22.062   6.602
 3961POPC   C3A51857  29.722  21.867   7.023
 3961POPC   C4A51858  29.774  21.836   7.500
 3961POPC   C1B51859  29.780  22.396   6.257
 3961POPC   C2B51860  30.037  22.616   6.542
 3961POPC   C3B51861  30.107  22.599   6.983
 3961POPC   C4B51862  29.967  22.270   7.273
 3962POPC   NC351863  20.200  35.063   5.075
 3962POPC   PO451864  20.806  35.344   5.185
 3962POPC   GL151865  20.768  35.381   5.706
 3962POPC   GL251866  20.959  35.690   5.809
 3962POPC   C1A51867  20.583  35.281   6.134
 3962POPC   D2A51868  20.601  35.074   6.570
 3962POPC   C3A51869  20.274  35.200   6.875
 3962POPC   C4A51870  20.334  35.311   7.289
 3962POPC   C1B51871  21.011  35.567   6.254
 3962POPC   C2B51872  20.834  35.573   6.670
 3962POPC   C3B51873  20.917  35.876   7.004
 3962POPC   C4B51874  20.942  35.849   7.460
 3963POPC   NC351875  20.995  20.415   5.376
 3963POPC   PO451876  21.696  20.634   5.341
 3963POPC   GL151877  21.496  20.671   5.747
 3963POPC   GL251878  21.147  20.840   5.755
 3963POPC   C1A51879  21.427  20.763   6.183
 3963POPC   D2A51880  21.259  20.520   6.504
 3963POPC   C3A51881  21.341  20.715   6.874
 3963POPC   C4A51882  21.343  20.628   7.284
 3963POPC   C1B51883  20.921  20.783   6.184
 3963POPC   C2B51884  20.801  20.736   6.662
 3963POPC   C3B51885  20.912  20.853   7.103
 3963POPC   C4B51886  21.007  20.907   7.553
 3964POPC   NC351887  40.015  35.985   5.424
 3964POPC   PO451888  39.463  36.384   5.594
 3964POPC   GL151889  39.836  36.275   5.827
 3964POPC   GL251890  40.222  36.329   5.799
 3964POPC   C1A51891  39.844  36.045   6.207
 3964POPC   D2A51892  39.631  35.912   6.574
 3964POPC   C3A51893  39.831  35.943   6.950
 3964POPC   C4A51894  39.630  35.866   7.349
 3964POPC   C1B51895  40.349  36.164   6.227
 3964POPC   C2B51896  40.400  35.995   6.669
 3964POPC   C3B51897  40.355  36.226   7.028
 3964POPC   C4B51898  40.005  36.404   7.169
 3965POPC   NC351899  42.932  12.890   5.465
 3965POPC   PO451900  43.567  13.090   5.317
 3965POPC   GL151901  43.358  13.053   5.742
 3965POPC   GL251902  43.257  12.683   5.802
 3965POPC   C1A51903  43.213  13.065   6.189
 3965POPC   D2A51904  43.236  12.829   6.593
 3965POPC   C3A51905  43.082  12.977   6.984
 3965POPC   C4A51906  42.863  12.723   7.217
 3965POPC   C1B51907  43.468  12.580   6.189
 3965POPC   C2B51908  43.488  12.356   6.595
 3965POPC   C3B51909  43.415  12.509   7.013
 3965POPC   C4B51910  43.558  12.846   7.218
 3966POPC   NC351911  19.323  15.317   5.431
 3966POPC   PO451912  18.799  14.860   5.390
 3966POPC   GL151913  18.982  15.121   5.754
 3966POPC   GL251914  19.086  15.465   5.838
 3966POPC   C1A51915  19.046  15.114   6.202
 3966POPC   D2A51916  18.790  15.073   6.539
 3966POPC   C3A51917  19.041  15.042   6.889
 3966POPC   C4A51918  18.978  15.004   7.267
 3966POPC   C1B51919  19.161  15.609   6.245
 3966POPC   C2B51920  19.222  15.430   6.602
 3966POPC   C3B51921  19.216  15.604   6.979
 3966POPC   C4B51922  18.959  15.566   7.289
 3967POPC   NC351923   6.179  25.444   5.260
 3967POPC   PO451924   5.788  25.001   5.569
 3967POPC   GL151925   5.901  25.404   5.831
 3967POPC   GL251926   5.575  25.538   5.997
 3967POPC   C1A51927   6.011  25.527   6.284
 3967POPC   D2A51928   5.974  25.414   6.725
 3967POPC   C3A51929   5.949  25.636   7.091
 3967POPC   C4A51930   5.808  25.811   7.472
 3967POPC   C1B51931   5.675  25.118   6.198
 3967POPC   C2B51932   5.888  24.894   6.499
 3967POPC   C3B51933   6.012  24.939   6.885
 3967POPC   C4B51934   5.690  25.002   7.134
 3968POPC   NC351935   5.035  36.548   5.360
 3968POPC   PO451936   5.437  36.025   5.382
 3968POPC   GL151937   5.301  36.169   5.762
 3968POPC   GL251938   5.380  35.832   5.877
 3968POPC   C1A51939   5.160  36.190   6.192
 3968POPC   D2A51940   5.322  36.194   6.599
 3968POPC   C3A51941   5.034  36.275   6.908
 3968POPC   C4A51942   4.807  36.253   7.298
 3968POPC   C1B51943   5.566  35.882   6.238
 3968POPC   C2B51944   5.463  35.692   6.587
 3968POPC   C3B51945   5.189  35.749   6.918
 3968POPC   C4B51946   5.245  35.965   7.294
 3969POPC   NC351947   0.375  10.612   5.320
 3969POPC   PO451948   0.174   9.972   5.493
 3969POPC   GL151949   0.294  10.327   5.780
 3969POPC   GL251950   0.568  10.625   5.796
 3969POPC   C1A51951   0.433  10.306   6.212
 3969POPC   D2A51952   0.672  10.441   6.579
 3969POPC   C3A51953   0.367  10.435   6.908
 3969POPC   C4A51954   0.425  10.339   7.292
 3969POPC   C1B51955   0.329  10.789   6.098
 3969POPC   C2B51956   0.281  10.787   6.530
 3969POPC   C3B51957   0.549  10.910   6.890
 3969POPC   C4B51958   0.430  10.856   7.301
 3970POPC   NC351959  30.769  44.778   5.413
 3970POPC   PO451960  30.395  44.271   5.151
 3970POPC   GL151961  30.341  44.550   5.646
 3970POPC   GL251962  30.474  44.916   5.794
 3970POPC   C1A51963  30.439  44.511   6.108
 3970POPC   D2A51964  30.728  44.534   6.466
 3970POPC   C3A51965  30.567  44.582   6.907
 3970POPC   C4A51966  30.844  44.436   7.233
 3970POPC   C1B51967  30.827  44.924   6.128
 3970POPC   C2B51968  31.047  44.931   6.581
 3970POPC   C3B51969  30.948  44.913   7.069
 3970POPC   C4B51970  30.842  44.833   7.550
 3971POPC   NC351971  38.254  29.501   5.364
 3971POPC   PO451972  37.636  29.202   5.315
 3971POPC   GL151973  37.811  29.424   5.689
 3971POPC   GL251974  38.045  29.172   5.806
 3971POPC   C1A51975  37.692  29.332   6.150
 3971POPC   D2A51976  37.438  29.115   6.472
 3971POPC   C3A51977  37.540  29.180   6.893
 3971POPC   C4A51978  37.407  28.906   7.239
 3971POPC   C1B51979  38.020  28.932   6.202
 3971POPC   C2B51980  38.027  28.837   6.655
 3971POPC   C3B51981  37.945  28.966   7.097
 3971POPC   C4B51982  38.052  29.256   7.444
 3972POPC   NC351983  43.391   8.521   5.505
 3972POPC   PO451984  42.886   8.083   5.316
 3972POPC   GL151985  42.874   8.194   5.763
 3972POPC   GL251986  42.978   8.543   5.806
 3972POPC   C1A51987  43.029   8.144   6.224
 3972POPC   D2A51988  43.226   8.367   6.605
 3972POPC   C3A51989  43.325   8.151   7.003
 3972POPC   C4A51990  43.238   7.876   7.388
 3972POPC   C1B51991  42.712   8.554   6.164
 3972POPC   C2B51992  42.681   8.344   6.563
 3972POPC   C3B51993  42.812   8.155   6.940
 3972POPC   C4B51994  42.986   8.379   7.301
 3973POPC   NC351995   7.732  33.508   5.411
 3973POPC   PO451996   7.712  32.865   5.277
 3973POPC   GL151997   7.937  33.081   5.688
 3973POPC   GL251998   8.296  33.210   5.720
 3973POPC   C1A51999   8.075  32.936   6.146
 3973POPC   D2A52000   8.030  32.689   6.565
 3973POPC   C3A52001   7.912  32.891   6.982
 3973POPC   C4A52002   8.068  33.041   7.438
 3973POPC   C1B52003   8.352  33.363   6.174
 3973POPC   C2B52004   8.244  33.198   6.595
 3973POPC   C3B52005   8.130  33.350   6.997
 3973POPC   C4B52006   8.249  33.541   7.360
 3974POPC   NC352007  42.940  34.587   5.380
 3974POPC   PO452008  42.282  34.401   5.314
 3974POPC   GL152009  42.397  34.623   5.716
 3974POPC   GL252010  42.131  34.740   5.853
 3974POPC   C1A52011  42.516  34.707   6.199
 3974POPC   D2A52012  42.595  34.463   6.607
 3974POPC   C3A52013  42.687  34.640   7.031
 3974POPC   C4A52014  42.503  34.947   7.315
 3974POPC   C1B52015  42.123  34.403   6.160
 3974POPC   C2B52016  41.971  34.393   6.599
 3974POPC   C3B52017  42.194  34.442   6.984
 3974POPC   C4B52018  42.119  34.630   7.392
 3975POPC   NC352019   8.557  13.200   5.481
 3975POPC   PO452020   8.214  12.658   5.226
 3975POPC   GL152021   8.312  12.792   5.722
 3975POPC   GL252022   8.548  12.965   5.927
 3975POPC   C1A52023   8.105  12.831   6.170
 3975POPC   D2A52024   8.024  12.648   6.602
 3975POPC   C3A52025   8.031  12.823   7.033
 3975POPC   C4A52026   8.123  12.687   7.462
 3975POPC   C1B52027   8.500  13.130   6.342
 3975POPC   C2B52028   8.391  13.082   6.770
 3975POPC   C3B52029   8.283  13.259   7.172
 3975POPC   C4B52030   8.376  13.142   7.581
 3976POPC   NC352031  21.333   9.183   5.448
 3976POPC   PO452032  21.560   8.560   5.297
 3976POPC   GL152033  21.423   8.747   5.745
 3976POPC   GL252034  21.548   9.062   5.943
 3976POPC   C1A52035  21.150   8.816   6.140
 3976POPC   D2A52036  21.111   8.634   6.586
 3976POPC   C3A52037  21.375   8.782   6.967
 3976POPC   C4A52038  21.298   8.764   7.450
 3976POPC   C1B52039  21.432   9.162   6.392
 3976POPC   C2B52040  21.391   9.328   6.828
 3976POPC   C3B52041  21.279   9.230   7.253
 3976POPC   C4B52042  21.561   9.191   7.639
 3977POPC   NC352043  23.525   1.602   5.571
 3977POPC   PO452044  23.905   1.125   5.188
 3977POPC   GL152045  24.028   1.152   5.633
 3977POPC   GL252046  24.004   1.499   5.754
 3977POPC   C1A52047  23.771   1.113   6.021
 3977POPC   D2A52048  23.838   1.021   6.482
 3977POPC   C3A52049  23.591   1.219   6.832
 3977POPC   C4A52050  23.388   1.043   7.210
 3977POPC   C1B52051  24.219   1.333   6.122
 3977POPC   C2B52052  24.293   1.260   6.539
 3977POPC   C3B52053  24.139   1.325   6.957
 3977POPC   C4B52054  23.913   1.068   7.211
 3978POPC   NC352055  12.810  39.464   5.367
 3978POPC   PO452056  13.300  39.060   5.301
 3978POPC   GL152057  13.074  39.200   5.744
 3978POPC   GL252058  12.686  39.210   5.794
 3978POPC   C1A52059  12.915  39.359   6.211
 3978POPC   D2A52060  12.814  39.432   6.672
 3978POPC   C3A52061  12.973  39.162   7.024
 3978POPC   C4A52062  12.988  39.230   7.498
 3978POPC   C1B52063  12.567  39.668   5.989
 3978POPC   C2B52064  12.304  39.740   6.383
 3978POPC   C3B52065  12.348  39.581   6.810
 3978POPC   C4B52066  12.633  39.517   7.182
 3979POPC   NC352067  22.170   6.192   5.397
 3979POPC   PO452068  21.931   5.586   5.522
 3979POPC   GL152069  22.093   5.878   5.791
 3979POPC   GL252070  22.442   5.924   5.757
 3979POPC   C1A52071  21.999   6.007   6.173
 3979POPC   D2A52072  22.132   5.826   6.542
 3979POPC   C3A52073  22.018   5.866   6.959
 3979POPC   C4A52074  22.157   5.494   7.179
 3979POPC   C1B52075  22.487   6.114   6.144
 3979POPC   C2B52076  22.489   6.193   6.559
 3979POPC   C3B52077  22.526   5.919   6.933
 3979POPC   C4B52078  22.395   5.958   7.348
 3980POPC   NC352079  42.036  26.181   5.459
 3980POPC   PO452080  42.517  25.784   5.515
 3980POPC   GL152081  42.681  26.163   5.721
 3980POPC   GL252082  42.408  26.060   5.928
 3980POPC   C1A52083  42.711  26.420   6.107
 3980POPC   D2A52084  42.472  26.175   6.432
 3980POPC   C3A52085  42.504  26.285   6.866
 3980POPC   C4A52086  42.464  26.048   7.275
 3980POPC   C1B52087  42.034  25.965   6.184
 3980POPC   C2B52088  41.920  25.935   6.624
 3980POPC   C3B52089  42.022  25.975   7.063
 3980POPC   C4B52090  42.112  25.674   7.421
 3981POPC   NC352091  12.840  28.554   5.319
 3981POPC   PO452092  13.018  27.900   5.256
 3981POPC   GL152093  12.954  28.175   5.681
 3981POPC   GL252094  13.026  28.575   5.780
 3981POPC   C1A52095  12.728  28.285   6.086
 3981POPC   D2A52096  12.726  28.644   6.370
 3981POPC   C3A52097  12.704  28.531   6.788
 3981POPC   C4A52098  12.794  28.619   7.219
 3981POPC   C1B52099  13.206  28.510   6.170
 3981POPC   C2B52100  13.140  28.327   6.578
 3981POPC   C3B52101  13.217  28.486   7.007
 3981POPC   C4B52102  13.183  28.435   7.499
 3982POPC   NC352103  26.714  40.949   5.444
 3982POPC   PO452104  26.962  40.354   5.314
 3982POPC   GL152105  26.977  40.601   5.747
 3982POPC   GL252106  26.644  40.688   5.872
 3982POPC   C1A52107  27.027  40.706   6.224
 3982POPC   D2A52108  26.661  40.646   6.563
 3982POPC   C3A52109  26.760  40.647   7.023
 3982POPC   C4A52110  27.200  40.567   7.128
 3982POPC   C1B52111  26.626  41.052   6.177
 3982POPC   C2B52112  26.811  41.209   6.593
 3982POPC   C3B52113  27.009  41.090   6.978
 3982POPC   C4B52114  26.963  40.974   7.420
 3983POPC   NC352115  42.509  11.852   5.121
 3983POPC   PO452116  42.413  11.224   5.383
 3983POPC   GL152117  42.414  11.088   5.808
 3983POPC   GL252118  42.186  10.829   5.885
 3983POPC   C1A52119  42.476  11.287   6.237
 3983POPC   D2A52120  42.726  11.435   6.604
 3983POPC   C3A52121  42.582  11.379   7.041
 3983POPC   C4A52122  42.250  11.556   7.302
 3983POPC   C1B52123  42.320  10.817   6.303
 3983POPC   C2B52124  42.365  11.021   6.718
 3983POPC   C3B52125  42.142  11.086   7.104
 3983POPC   C4B52126  42.086  10.777   7.417
 3984POPC   NC352127   1.423  25.377   5.392
 3984POPC   PO452128   0.894  25.007   5.602
 3984POPC   GL152129   1.131  25.259   5.878
 3984POPC   GL252130   1.422  25.485   5.888
 3984POPC   C1A52131   1.106  25.255   6.305
 3984POPC   D2A52132   1.328  25.155   6.659
 3984POPC   C3A52133   1.073  25.265   6.959
 3984POPC   C4A52134   0.953  24.985   7.205
 3984POPC   C1B52135   1.482  25.592   6.307
 3984POPC   C2B52136   1.245  25.684   6.657
 3984POPC   C3B52137   1.419  25.630   7.036
 3984POPC   C4B52138   1.522  25.297   7.245
 3985POPC   NC352139   4.726   8.312   5.439
 3985POPC   PO452140   5.348   8.074   5.308
 3985POPC   GL152141   5.105   8.045   5.662
 3985POPC   GL252142   5.124   8.413   5.763
 3985POPC   C1A52143   5.194   8.044   6.113
 3985POPC   D2A52144   5.393   8.150   6.523
 3985POPC   C3A52145   5.146   7.979   6.862
 3985POPC   C4A52146   4.743   8.082   7.076
 3985POPC   C1B52147   4.956   8.506   6.205
 3985POPC   C2B52148   4.907   8.384   6.661
 3985POPC   C3B52149   5.009   8.532   7.106
 3985POPC   C4B52150   4.970   8.502   7.590
 3986POPC   NC352151  29.947  39.776   5.341
 3986POPC   PO452152  29.979  40.500   5.277
 3986POPC   GL152153  29.917  40.342   5.791
 3986POPC   GL252154  30.091  40.035   5.802
 3986POPC   C1A52155  29.649  40.189   6.129
 3986POPC   D2A52156  29.570  39.913   6.492
 3986POPC   C3A52157  29.882  39.950   6.833
 3986POPC   C4A52158  29.900  39.925   7.292
 3986POPC   C1B52159  30.131  40.120   6.268
 3986POPC   C2B52160  30.180  40.361   6.632
 3986POPC   C3B52161  30.101  40.388   7.045
 3986POPC   C4B52162  30.300  40.310   7.405
 3987POPC   NC352163  11.212  43.881   5.267
 3987POPC   PO452164  11.186  43.346   5.335
 3987POPC   GL152165  11.140  43.634   5.725
 3987POPC   GL252166  11.347  43.981   5.761
 3987POPC   C1A52167  10.916  43.762   6.123
 3987POPC   D2A52168  11.096  43.769   6.569
 3987POPC   C3A52169  11.419  43.542   6.815
 3987POPC   C4A52170  11.381  43.589   7.270
 3987POPC   C1B52171  11.688  44.111   6.097
 3987POPC   C2B52172  11.575  43.956   6.559
 3987POPC   C3B52173  11.677  43.932   7.031
 3987POPC   C4B52174  11.560  44.035   7.478
 3988POPC   NC352175  35.163  30.392   5.517
 3988POPC   PO452176  35.320  29.737   5.402
 3988POPC   GL152177  35.141  29.813   5.832
 3988POPC   GL252178  34.986  30.117   6.002
 3988POPC   C1A52179  35.350  29.817   6.238
 3988POPC   D2A52180  35.658  29.759   6.562
 3988POPC   C3A52181  35.526  29.915   6.935
 3988POPC   C4A52182  35.582  29.738   7.334
 3988POPC   C1B52183  35.009  30.140   6.438
 3988POPC   C2B52184  35.074  29.778   6.696
 3988POPC   C3B52185  35.066  29.730   7.112
 3988POPC   C4B52186  35.176  30.097   7.283
 3989POPC   NC352187   7.622   9.266   5.330
 3989POPC   PO452188   8.246   9.122   5.405
 3989POPC   GL152189   8.177   8.956   5.821
 3989POPC   GL252190   7.826   8.882   5.790
 3989POPC   C1A52191   8.181   8.944   6.296
 3989POPC   D2A52192   8.025   9.159   6.684
 3989POPC   C3A52193   8.278   9.083   7.069
 3989POPC   C4A52194   8.592   8.986   7.378
 3989POPC   C1B52195   7.869   8.574   6.129
 3989POPC   C2B52196   8.038   8.499   6.567
 3989POPC   C3B52197   8.034   8.600   7.013
 3989POPC   C4B52198   7.943   8.855   7.384
 3990POPC   NC352199  11.806  17.751   5.606
 3990POPC   PO452200  11.182  17.605   5.435
 3990POPC   GL152201  11.211  17.475   5.872
 3990POPC   GL252202  11.160  17.086   5.889
 3990POPC   C1A52203  11.347  17.723   6.260
 3990POPC   D2A52204  11.601  17.839   6.635
 3990POPC   C3A52205  11.371  17.725   7.027
 3990POPC   C4A52206  11.196  17.548   7.457
 3990POPC   C1B52207  11.155  17.223   6.322
 3990POPC   C2B52208  11.449  17.341   6.646
 3990POPC   C3B52209  11.401  17.171   7.040
 3990POPC   C4B52210  11.080  16.911   7.196
 3991POPC   NC352211  23.597  37.210   5.309
 3991POPC   PO452212  23.803  36.620   5.363
 3991POPC   GL152213  23.716  36.856   5.756
 3991POPC   GL252214  23.365  37.015   5.774
 3991POPC   C1A52215  23.936  36.904   6.172
 3991POPC   D2A52216  24.049  37.113   6.535
 3991POPC   C3A52217  23.958  36.951   6.936
 3991POPC   C4A52218  23.813  37.132   7.308
 3991POPC   C1B52219  23.426  36.767   6.173
 3991POPC   C2B52220  23.590  36.897   6.578
 3991POPC   C3B52221  23.497  36.759   7.014
 3991POPC   C4B52222  23.202  36.519   7.233
 3992POPC   NC352223  15.823  34.108   5.264
 3992POPC   PO452224  16.086  33.579   5.272
 3992POPC   GL152225  15.906  33.756   5.663
 3992POPC   GL252226  15.647  34.039   5.742
 3992POPC   C1A52227  16.095  33.811   6.066
 3992POPC   D2A52228  16.241  33.923   6.456
 3992POPC   C3A52229  16.062  33.735   6.828
 3992POPC   C4A52230  16.037  33.844   7.233
 3992POPC   C1B52231  15.735  34.155   6.195
 3992POPC   C2B52232  15.519  34.152   6.591
 3992POPC   C3B52233  15.590  33.981   7.002
 3992POPC   C4B52234  15.580  34.027   7.467
 3993POPC   NC352235  12.713   7.835   4.957
 3993POPC   PO452236  12.569   8.384   5.376
 3993POPC   GL152237  12.734   8.255   5.720
 3993POPC   GL252238  12.896   7.976   5.583
 3993POPC   C1A52239  12.860   8.381   6.144
 3993POPC   D2A52240  12.623   8.440   6.525
 3993POPC   C3A52241  12.826   8.232   6.890
 3993POPC   C4A52242  12.647   8.197   7.305
 3993POPC   C1B52243  12.927   7.893   6.015
 3993POPC   C2B52244  12.828   7.932   6.440
 3993POPC   C3B52245  13.028   7.746   6.779
 3993POPC   C4B52246  12.996   7.828   7.229
 3994POPC   NC352247  33.485  35.760   5.556
 3994POPC   PO452248  33.928  35.207   5.361
 3994POPC   GL152249  33.880  35.333   5.788
 3994POPC   GL252250  33.857  35.004   5.936
 3994POPC   C1A52251  33.836  35.667   6.119
 3994POPC   D2A52252  33.675  35.719   6.553
 3994POPC   C3A52253  33.922  35.488   6.858
 3994POPC   C4A52254  34.054  35.470   7.268
 3994POPC   C1B52255  33.970  35.188   6.332
 3994POPC   C2B52256  34.001  34.974   6.713
 3994POPC   C3B52257  33.795  35.044   7.132
 3994POPC   C4B52258  33.813  35.132   7.589
 3995POPC   NC352259  13.554  40.121   5.489
 3995POPC   PO452260  14.064  39.640   5.345
 3995POPC   GL152261  13.716  39.717   5.770
 3995POPC   GL252262  13.614  40.057   5.980
 3995POPC   C1A52263  13.379  39.644   6.075
 3995POPC   D2A52264  13.303  39.919   6.426
 3995POPC   C3A52265  13.541  39.917   6.848
 3995POPC   C4A52266  13.613  39.876   7.314
 3995POPC   C1B52267  13.803  40.172   6.346
 3995POPC   C2B52268  13.762  40.390   6.723
 3995POPC   C3B52269  13.907  40.254   7.139
 3995POPC   C4B52270  14.010  40.149   7.577
 3996POPC   NC352271   6.608  30.540   5.531
 3996POPC   PO452272   6.980  31.124   5.287
 3996POPC   GL152273   6.861  30.974   5.728
 3996POPC   GL252274   6.510  30.975   5.822
 3996POPC   C1A52275   6.864  30.901   6.203
 3996POPC   D2A52276   6.599  30.934   6.610
 3996POPC   C3A52277   6.777  30.846   7.021
 3996POPC   C4A52278   6.597  30.533   7.295
 3996POPC   C1B52279   6.352  30.762   6.191
 3996POPC   C2B52280   6.410  30.451   6.547
 3996POPC   C3B52281   6.366  30.212   6.945
 3996POPC   C4B52282   6.435  30.056   7.373
 3997POPC   NC352283   7.254  24.119   5.507
 3997POPC   PO452284   7.543  23.526   5.358
 3997POPC   GL152285   7.382  23.661   5.730
 3997POPC   GL252286   7.697  23.810   5.821
 3997POPC   C1A52287   7.248  23.723   6.142
 3997POPC   D2A52288   6.945  23.806   6.447
 3997POPC   C3A52289   7.104  23.690   6.845
 3997POPC   C4A52290   7.182  23.368   7.110
 3997POPC   C1B52291   7.648  24.045   6.195
 3997POPC   C2B52292   7.444  23.964   6.578
 3997POPC   C3B52293   7.600  23.779   6.961
 3997POPC   C4B52294   7.892  24.036   7.157
 3998POPC   NC352295  33.737  11.493   5.415
 3998POPC   PO452296  33.305  11.045   5.676
 3998POPC   GL152297  33.615  11.309   5.875
 3998POPC   GL252298  33.989  11.353   5.841
 3998POPC   C1A52299  33.748  11.286   6.297
 3998POPC   D2A52300  33.784  11.484   6.648
 3998POPC   C3A52301  33.790  11.185   6.933
 3998POPC   C4A52302  33.566  10.954   7.208
 3998POPC   C1B52303  34.238  11.188   6.186
 3998POPC   C2B52304  34.248  11.228   6.653
 3998POPC   C3B52305  34.230  10.959   7.036
 3998POPC   C4B52306  33.983  11.056   7.445
 3999POPC   NC352307  35.200  33.472   5.638
 3999POPC   PO452308  35.542  32.989   5.476
 3999POPC   GL152309  35.303  32.898   5.864
 3999POPC   GL252310  34.931  32.968   5.895
 3999POPC   C1A52311  35.544  32.732   6.191
 3999POPC   D2A52312  35.771  32.811   6.556
 3999POPC   C3A52313  35.519  32.886   6.925
 3999POPC   C4A52314  35.546  33.261   7.146
 3999POPC   C1B52315  35.042  33.281   6.254
 3999POPC   C2B52316  35.048  33.352   6.709
 3999POPC   C3B52317  35.054  33.172   7.136
 3999POPC   C4B52318  34.941  32.821   7.428
 4000POPC   NC352319  23.920  36.155   5.374
 4000POPC   PO452320  23.297  36.083   5.624
 4000POPC   GL152321  23.704  36.243   5.827
 4000POPC   GL252322  23.938  35.942   5.834
 4000POPC   C1A52323  23.820  36.417   6.232
 4000POPC   D2A52324  23.596  36.392   6.622
 4000POPC   C3A52325  23.759  36.280   7.026
 4000POPC   C4A52326  23.466  36.068   7.280
 4000POPC   C1B52327  23.767  35.909   6.243
 4000POPC   C2B52328  23.825  35.593   6.575
 4000POPC   C3B52329  23.701  35.719   6.963
 4000POPC   C4B52330  23.695  35.622   7.368
 4001POPC   NC352331   2.621  43.795   5.337
 4001POPC   PO452332   3.145  43.569   5.699
 4001POPC   GL152333   2.715  43.596   5.809
 4001POPC   GL252334   2.599  43.956   5.844
 4001POPC   C1A52335   2.587  43.558   6.220
 4001POPC   D2A52336   2.663  43.678   6.633
 4001POPC   C3A52337   2.920  43.859   6.932
 4001POPC   C4A52338   2.733  43.684   7.272
 4001POPC   C1B52339   2.787  44.043   6.265
 4001POPC   C2B52340   2.642  44.230   6.667
 4001POPC   C3B52341   2.553  44.166   7.108
 4001POPC   C4B52342   2.483  44.186   7.581
 4002POPC   NC352343  15.969  39.991   5.179
 4002POPC   PO452344  15.825  39.269   5.390
 4002POPC   GL152345  15.804  39.122   5.832
 4002POPC   GL252346  15.820  39.415   6.038
 4002POPC   C1A52347  15.570  39.026   6.242
 4002POPC   D2A52348  15.879  39.026   6.595
 4002POPC   C3A52349  15.893  39.327   6.927
 4002POPC   C4A52350  15.641  39.354   7.291
 4002POPC   C1B52351  16.191  39.487   6.271
 4002POPC   C2B52352  16.395  39.333   6.621
 4002POPC   C3B52353  16.441  39.560   7.013
 4002POPC   C4B52354  16.144  39.546   7.320
 4003POPC   NC352355  28.136  24.456   5.430
 4003POPC   PO452356  28.719  24.720   5.461
 4003POPC   GL152357  28.534  24.371   5.762
 4003POPC   GL252358  28.176  24.372   5.934
 4003POPC   C1A52359  28.597  24.217   6.194
 4003POPC   D2A52360  28.696  24.404   6.615
 4003POPC   C3A52361  28.565  24.205   7.012
 4003POPC   C4A52362  28.809  24.028   7.374
 4003POPC   C1B52363  28.357  24.681   6.210
 4003POPC   C2B52364  28.298  24.818   6.636
 4003POPC   C3B52365  28.067  24.623   6.947
 4003POPC   C4B52366  28.132  24.420   7.371
 4004POPC   NC352367  11.340  36.851   5.073
 4004POPC   PO452368  11.950  36.857   5.383
 4004POPC   GL152369  11.530  36.943   5.648
 4004POPC   GL252370  11.135  36.919   5.687
 4004POPC   C1A52371  11.446  36.798   6.103
 4004POPC   D2A52372  11.230  36.660   6.495
 4004POPC   C3A52373  11.233  36.823   6.871
 4004POPC   C4A52374  11.273  36.668   7.254
 4004POPC   C1B52375  10.921  37.010   6.109
 4004POPC   C2B52376  10.794  36.936   6.559
 4004POPC   C3B52377  10.803  37.163   6.955
 4004POPC   C4B52378  10.983  37.107   7.373
 4005POPC   NC352379  13.049  11.790   5.508
 4005POPC   PO452380  12.643  12.244   5.458
 4005POPC   GL152381  12.658  12.387   5.873
 4005POPC   GL252382  12.700  12.008   5.954
 4005POPC   C1A52383  12.696  12.374   6.326
 4005POPC   D2A52384  12.856  12.041   6.594
 4005POPC   C3A52385  12.757  12.085   7.023
 4005POPC   C4A52386  12.482  12.413   7.134
 4005POPC   C1B52387  13.132  11.950   6.160
 4005POPC   C2B52388  13.308  11.809   6.563
 4005POPC   C3B52389  13.213  11.862   6.953
 4005POPC   C4B52390  13.134  11.833   7.378
 4006POPC   NC352391  20.411  30.945   5.344
 4006POPC   PO452392  21.028  30.788   5.416
 4006POPC   GL152393  20.840  30.565   5.764
 4006POPC   GL252394  20.601  30.818   5.831
 4006POPC   C1A52395  20.762  30.486   6.233
 4006POPC   D2A52396  20.996  30.363   6.604
 4006POPC   C3A52397  20.810  30.413   7.014
 4006POPC   C4A52398  20.562  30.629   7.347
 4006POPC   C1B52399  20.741  31.013   6.233
 4006POPC   C2B52400  20.754  30.839   6.671
 4006POPC   C3B52401  20.611  31.041   7.053
 4006POPC   C4B52402  20.164  31.017   7.175
 4007POPC   NC352403  38.234  35.333   5.198
 4007POPC   PO452404  38.664  35.781   5.468
 4007POPC   GL152405  38.620  35.543   5.787
 4007POPC   GL252406  38.763  35.231   5.637
 4007POPC   C1A52407  38.312  35.618   6.130
 4007POPC   D2A52408  38.269  35.448   6.547
 4007POPC   C3A52409  38.247  35.657   6.954
 4007POPC   C4A52410  38.369  35.658   7.414
 4007POPC   C1B52411  38.605  35.110   6.064
 4007POPC   C2B52412  38.687  35.108   6.512
 4007POPC   C3B52413  38.495  35.189   6.910
 4007POPC   C4B52414  38.477  35.045   7.280
 4008POPC   NC352415  26.610  17.249   5.661
 4008POPC   PO452416  26.939  17.812   5.572
 4008POPC   GL152417  27.049  17.611   5.953
 4008POPC   GL252418  26.963  17.235   6.028
 4008POPC   C1A52419  26.861  17.643   6.357
 4008POPC   D2A52420  26.856  17.370   6.705
 4008POPC   C3A52421  27.012  17.544   7.081
 4008POPC   C4A52422  26.947  17.557   7.535
 4008POPC   C1B52423  26.562  17.193   6.303
 4008POPC   C2B52424  26.413  17.094   6.728
 4008POPC   C3B52425  26.560  17.320   7.123
 4008POPC   C4B52426  26.568  17.244   7.559
 4009POPC   NC352427  34.994  21.451   5.526
 4009POPC   PO452428  35.623  21.200   5.399
 4009POPC   GL152429  35.378  21.235   5.817
 4009POPC   GL252430  35.071  21.040   5.849
 4009POPC   C1A52431  35.234  21.427   6.245
 4009POPC   D2A52432  35.129  21.569   6.712
 4009POPC   C3A52433  35.483  21.509   7.029
 4009POPC   C4A52434  35.507  21.344   7.439
 4009POPC   C1B52435  34.847  21.097   6.250
 4009POPC   C2B52436  34.894  21.041   6.720
 4009POPC   C3B52437  35.049  21.223   7.114
 4009POPC   C4B52438  34.891  21.603   7.319
 4010POPC   NC352439  42.036  26.866   5.242
 4010POPC   PO452440  42.635  27.187   5.442
 4010POPC   GL152441  42.316  26.915   5.671
 4010POPC   GL252442  42.348  26.558   5.690
 4010POPC   C1A52443  42.256  26.933   6.140
 4010POPC   D2A52444  42.489  26.693   6.490
 4010POPC   C3A52445  42.565  26.850   6.920
 4010POPC   C4A52446  42.251  27.181   7.075
 4010POPC   C1B52447  42.169  26.449   6.107
 4010POPC   C2B52448  42.030  26.426   6.509
 4010POPC   C3B52449  42.102  26.659   6.853
 4010POPC   C4B52450  42.155  26.455   7.216
 4011POPC   NC352451  33.694  29.200   5.487
 4011POPC   PO452452  34.385  29.382   5.407
 4011POPC   GL152453  34.147  29.473   5.830
 4011POPC   GL252454  33.905  29.202   5.957
 4011POPC   C1A52455  34.106  29.520   6.298
 4011POPC   D2A52456  33.816  29.293   6.570
 4011POPC   C3A52457  33.935  29.177   7.003
 4011POPC   C4A52458  34.097  28.844   7.248
 4011POPC   C1B52459  33.482  29.263   6.158
 4011POPC   C2B52460  33.247  29.184   6.557
 4011POPC   C3B52461  33.430  29.245   6.956
 4011POPC   C4B52462  33.542  29.112   7.380
 4012POPC   NC352463  34.969  26.400   5.445
 4012POPC   PO452464  34.496  26.938   5.378
 4012POPC   GL152465  34.760  27.058   5.761
 4012POPC   GL252466  34.859  26.700   5.882
 4012POPC   C1A52467  34.847  27.098   6.216
 4012POPC   D2A52468  34.712  26.760   6.520
 4012POPC   C3A52469  34.629  26.866   6.944
 4012POPC   C4A52470  34.220  26.913   7.140
 4012POPC   C1B52471  34.858  26.367   6.232
 4012POPC   C2B52472  35.003  26.353   6.705
 4012POPC   C3B52473  34.972  26.486   7.166
 4012POPC   C4B52474  34.836  26.285   7.612
 4013POPC   NC352475   9.347  21.373   5.331
 4013POPC   PO452476   9.981  21.427   5.256
 4013POPC   GL152477   9.750  21.554   5.654
 4013POPC   GL252478   9.396  21.668   5.753
 4013POPC   C1A52479   9.789  21.601   6.083
 4013POPC   D2A52480   9.623  21.367   6.437
 4013POPC   C3A52481   9.758  21.453   6.872
 4013POPC   C4A52482   9.830  21.444   7.332
 4013POPC   C1B52483   9.303  21.730   6.221
 4013POPC   C2B52484   9.377  21.773   6.711
 4013POPC   C3B52485   9.312  21.541   7.169
 4013POPC   C4B52486   9.458  21.632   7.626
 4014POPC   NC352487  40.527  31.144   5.650
 4014POPC   PO452488  40.982  30.736   5.296
 4014POPC   GL152489  40.897  30.751   5.703
 4014POPC   GL252490  40.576  30.630   5.783
 4014POPC   C1A52491  40.954  30.723   6.148
 4014POPC   D2A52492  40.802  30.773   6.568
 4014POPC   C3A52493  41.054  30.610   6.908
 4014POPC   C4A52494  40.950  30.790   7.296
 4014POPC   C1B52495  40.490  30.430   6.178
 4014POPC   C2B52496  40.374  30.488   6.621
 4014POPC   C3B52497  40.551  30.634   7.014
 4014POPC   C4B52498  40.554  30.452   7.445
 4015POPC   NC352499  11.344  20.936   5.136
 4015POPC   PO452500  10.995  20.398   5.260
 4015POPC   GL152501  11.220  20.457   5.683
 4015POPC   GL252502  11.449  20.748   5.799
 4015POPC   C1A52503  11.261  20.443   6.148
 4015POPC   D2A52504  11.134  20.630   6.545
 4015POPC   C3A52505  11.231  20.402   6.909
 4015POPC   C4A52506  11.342  20.527   7.314
 4015POPC   C1B52507  11.354  20.974   6.179
 4015POPC   C2B52508  11.522  20.986   6.573
 4015POPC   C3B52509  11.358  20.914   6.976
 4015POPC   C4B52510  11.654  20.965   7.311
 4016POPC   NC352511   8.405  44.827   4.922
 4016POPC   PO452512   8.176  44.360   5.351
 4016POPC   GL152513   7.996  44.540   5.818
 4016POPC   GL252514   8.294  44.695   5.969
 4016POPC   C1A52515   8.028  44.513   6.339
 4016POPC   D2A52516   8.395  44.481   6.625
 4016POPC   C3A52517   8.332  44.842   6.913
 4016POPC   C4A52518   7.977  44.870   7.236
 4016POPC   C1B52519   8.013   0.011   6.226
 4016POPC   C2B52520   7.933   0.250   6.626
 4016POPC   C3B52521   8.155   0.306   7.028
 4016POPC   C4B52522   8.416   0.100   7.363
 4017POPC   NC352523  18.715  13.296   5.443
 4017POPC   PO452524  18.955  13.888   5.219
 4017POPC   GL152525  18.946  13.681   5.686
 4017POPC   GL252526  19.163  13.873   5.810
 4017POPC   C1A52527  19.124  13.540   6.167
 4017POPC   D2A52528  19.229  13.331   6.586
 4017POPC   C3A52529  19.021  13.473   6.997
 4017POPC   C4A52530  18.856  13.677   7.403
 4017POPC   C1B52531  18.861  14.005   6.132
 4017POPC   C2B52532  18.840  14.085   6.589
 4017POPC   C3B52533  19.062  14.023   6.965
 4017POPC   C4B52534  19.189  14.044   7.399
 4018POPC   NC352535  14.874  18.488   5.407
 4018POPC   PO452536  15.460  18.350   5.297
 4018POPC   GL152537  15.314  18.134   5.732
 4018POPC   GL252538  14.941  18.059   5.818
 4018POPC   C1A52539  15.450  18.140   6.204
 4018POPC   D2A52540  15.300  18.184   6.643
 4018POPC   C3A52541  15.536  18.275   7.050
 4018POPC   C4A52542  15.469  18.447   7.496
 4018POPC   C1B52543  14.951  17.935   6.291
 4018POPC   C2B52544  14.809  18.058   6.727
 4018POPC   C3B52545  15.046  18.172   7.101
 4018POPC   C4B52546  14.966  18.152   7.528
 4019POPC   NC352547   1.220  41.467   5.272
 4019POPC   PO452548   1.658  42.015   5.403
 4019POPC   GL152549   1.461  41.777   5.769
 4019POPC   GL252550   1.089  41.634   5.751
 4019POPC   C1A52551   1.405  41.494   6.143
 4019POPC   D2A52552   1.440  41.237   6.528
 4019POPC   C3A52553   1.346  41.487   6.873
 4019POPC   C4A52554   1.334  41.846   7.119
 4019POPC   C1B52555   0.843  41.620   6.142
 4019POPC   C2B52556   0.930  41.661   6.599
 4019POPC   C3B52557   0.840  41.537   7.032
 4019POPC   C4B52558   0.842  41.134   7.257
 4020POPC   NC352559  39.701  25.496   5.534
 4020POPC   PO452560  40.199  24.955   5.542
 4020POPC   GL152561  39.843  25.084   5.822
 4020POPC   GL252562  39.920  25.444   5.991
 4020POPC   C1A52563  39.704  25.078   6.256
 4020POPC   D2A52564  39.866  25.372   6.563
 4020POPC   C3A52565  40.077  25.123   6.887
 4020POPC   C4A52566  39.886  25.138   7.259
 4020POPC   C1B52567  40.281  25.569   6.293
 4020POPC   C2B52568  40.314  25.580   6.781
 4020POPC   C3B52569  40.231  25.514   7.245
 4020POPC   C4B52570  40.394  25.690   7.691
 4021POPC   NC352571   8.667   5.329   5.319
 4021POPC   PO452572   8.414   4.655   5.365
 4021POPC   GL152573   8.336   5.047   5.665
 4021POPC   GL252574   7.990   5.034   5.896
 4021POPC   C1A52575   8.420   5.167   6.123
 4021POPC   D2A52576   8.193   4.945   6.458
 4021POPC   C3A52577   8.363   4.732   6.820
 4021POPC   C4A52578   8.404   4.783   7.269
 4021POPC   C1B52579   7.925   5.337   6.219
 4021POPC   C2B52580   8.228   5.468   6.546
 4021POPC   C3B52581   8.259   5.244   6.920
 4021POPC   C4B52582   7.952   5.317   7.227
 4022POPC   NC352583  39.191   5.562   5.277
 4022POPC   PO452584  39.431   6.135   5.527
 4022POPC   GL152585  39.287   5.969   5.866
 4022POPC   GL252586  39.179   5.610   5.799
 4022POPC   C1A52587  39.287   6.145   6.293
 4022POPC   D2A52588  38.980   6.142   6.622
 4022POPC   C3A52589  39.149   6.017   6.999
 4022POPC   C4A52590  39.011   5.681   7.191
 4022POPC   C1B52591  39.336   5.619   6.223
 4022POPC   C2B52592  39.242   5.677   6.633
 4022POPC   C3B52593  39.480   5.623   6.998
 4022POPC   C4B52594  39.556   5.279   7.264
 4023POPC   NC352595  31.962  17.402   5.566
 4023POPC   PO452596  31.282  17.624   5.416
 4023POPC   GL152597  31.292  17.847   5.788
 4023POPC   GL252598  31.624  17.696   5.848
 4023POPC   C1A52599  31.136  17.822   6.228
 4023POPC   D2A52600  31.326  17.870   6.649
 4023POPC   C3A52601  31.342  17.531   6.917
 4023POPC   C4A52602  31.181  17.250   7.201
 4023POPC   C1B52603  31.610  17.526   6.293
 4023POPC   C2B52604  31.686  17.219   6.650
 4023POPC   C3B52605  31.698  17.223   7.097
 4023POPC   C4B52606  31.596  17.546   7.403
 4024POPC   NC352607  20.367  10.657   5.118
 4024POPC   PO452608  20.867  10.631   5.613
 4024POPC   GL152609  20.678  10.412   5.913
 4024POPC   GL252610  20.326  10.387   5.901
 4024POPC   C1A52611  20.730  10.263   6.312
 4024POPC   D2A52612  20.974  10.384   6.671
 4024POPC   C3A52613  20.743  10.468   7.025
 4024POPC   C4A52614  20.785  10.707   7.421
 4024POPC   C1B52615  20.308  10.618   6.290
 4024POPC   C2B52616  20.197  10.587   6.734
 4024POPC   C3B52617  20.365  10.798   7.099
 4024POPC   C4B52618  20.335  10.827   7.592
 4025POPC   NC352619  11.598  12.561   5.487
 4025POPC   PO452620  12.183  12.951   5.417
 4025POPC   GL152621  11.987  12.853   5.801
 4025POPC   GL252622  11.791  13.175   5.860
 4025POPC   C1A52623  12.201  12.668   6.191
 4025POPC   D2A52624  12.018  12.571   6.600
 4025POPC   C3A52625  12.142  12.762   7.004
 4025POPC   C4A52626  12.056  12.622   7.473
 4025POPC   C1B52627  11.753  12.931   6.274
 4025POPC   C2B52628  11.678  12.984   6.732
 4025POPC   C3B52629  11.732  12.948   7.202
 4025POPC   C4B52630  11.736  13.012   7.682
 4026POPC   NC352631  32.409  41.805   5.353
 4026POPC   PO452632  31.975  41.345   5.275
 4026POPC   GL152633  32.198  41.466   5.709
 4026POPC   GL252634  32.481  41.722   5.840
 4026POPC   C1A52635  32.163  41.517   6.189
 4026POPC   D2A52636  32.383  41.430   6.582
 4026POPC   C3A52637  32.072  41.350   6.917
 4026POPC   C4A52638  32.001  41.567   7.301
 4026POPC   C1B52639  32.493  41.952   6.206
 4026POPC   C2B52640  32.280  41.996   6.581
 4026POPC   C3B52641  32.340  41.798   6.934
 4026POPC   C4B52642  32.512  41.653   7.290
 4027POPC   NC352643  37.730  15.668   5.311
 4027POPC   PO452644  38.186  15.211   5.374
 4027POPC   GL152645  37.980  15.156   5.821
 4027POPC   GL252646  37.628  15.284   5.758
 4027POPC   C1A52647  37.909  14.996   6.273
 4027POPC   D2A52648  37.839  15.193   6.712
 4027POPC   C3A52649  37.796  14.988   7.150
 4027POPC   C4A52650  38.017  15.120   7.558
 4027POPC   C1B52651  37.562  15.417   6.208
 4027POPC   C2B52652  37.371  15.442   6.648
 4027POPC   C3B52653  37.588  15.486   7.082
 4027POPC   C4B52654  37.539  15.272   7.492
 4028POPC   NC352655  38.884  37.515   5.619
 4028POPC   PO452656  38.289  37.851   5.886
 4028POPC   GL152657  38.417  37.516   6.085
 4028POPC   GL252658  38.456  37.302   5.812
 4028POPC   C1A52659  38.318  37.264   6.438
 4028POPC   D2A52660  38.095  37.193   6.808
 4028POPC   C3A52661  38.184  37.584   7.061
 4028POPC   C4A52662  38.581  37.886   7.097
 4028POPC   C1B52663  38.733  37.134   6.154
 4028POPC   C2B52664  38.795  37.119   6.588
 4028POPC   C3B52665  38.582  37.311   6.899
 4028POPC   C4B52666  38.714  37.450   7.297
 4029POPC   NC352667  38.456  39.731   5.375
 4029POPC   PO452668  39.021  39.488   5.670
 4029POPC   GL152669  38.744  39.889   5.793
 4029POPC   GL252670  38.372  39.940   5.827
 4029POPC   C1A52671  38.687  40.232   6.142
 4029POPC   D2A52672  38.508  40.211   6.584
 4029POPC   C3A52673  38.707  40.049   6.949
 4029POPC   C4A52674  38.613  39.612   7.051
 4029POPC   C1B52675  38.172  40.179   6.159
 4029POPC   C2B52676  38.018  40.255   6.584
 4029POPC   C3B52677  38.142  40.065   6.986
 4029POPC   C4B52678  37.955  39.848   7.357
 4030POPC   NC352679  13.737  23.173   5.405
 4030POPC   PO452680  13.677  23.773   5.244
 4030POPC   GL152681  13.566  23.601   5.666
 4030POPC   GL252682  13.890  23.483   5.788
 4030POPC   C1A52683  13.364  23.617   6.088
 4030POPC   D2A52684  13.486  23.853   6.476
 4030POPC   C3A52685  13.356  23.735   6.901
 4030POPC   C4A52686  13.534  23.744   7.317
 4030POPC   C1B52687  13.835  23.799   6.104
 4030POPC   C2B52688  14.017  23.888   6.512
 4030POPC   C3B52689  13.923  23.761   6.938
 4030POPC   C4B52690  13.996  23.520   7.317
 4031POPC   NC352691  34.075   3.087   5.431
 4031POPC   PO452692  33.440   3.333   5.633
 4031POPC   GL152693  33.683   3.671   5.792
 4031POPC   GL252694  34.039   3.558   5.726
 4031POPC   C1A52695  33.693   3.763   6.233
 4031POPC   D2A52696  33.765   3.482   6.573
 4031POPC   C3A52697  33.843   3.582   6.973
 4031POPC   C4A52698  33.697   3.354   7.302
 4031POPC   C1B52699  33.958   3.331   6.115
 4031POPC   C2B52700  34.238   3.289   6.477
 4031POPC   C3B52701  34.405   3.327   6.893
 4031POPC   C4B52702  34.218   3.377   7.290
 4032POPC   NC352703   9.721  25.051   5.264
 4032POPC   PO452704   9.556  25.640   5.521
 4032POPC   GL152705   9.719  25.265   5.726
 4032POPC   GL252706   9.416  25.057   5.713
 4032POPC   C1A52707   9.762  25.151   6.161
 4032POPC   D2A52708   9.899  25.394   6.508
 4032POPC   C3A52709   9.764  25.294   6.896
 4032POPC   C4A52710   9.918  25.382   7.269
 4032POPC   C1B52711   9.279  25.261   6.104
 4032POPC   C2B52712   9.394  25.159   6.540
 4032POPC   C3B52713   9.270  25.332   6.940
 4032POPC   C4B52714   9.383  25.266   7.328
 4033POPC   NC352715   0.166  27.754   5.375
 4033POPC   PO452716   0.407  27.104   5.475
 4033POPC   GL152717   0.309  27.395   5.763
 4033POPC   GL252718   0.631  27.573   5.726
 4033POPC   C1A52719   0.319  27.681   6.123
 4033POPC   D2A52720   0.089  27.722   6.501
 4033POPC   C3A52721   0.211  27.496   6.863
 4033POPC   C4A52722   0.226  27.572   7.284
 4033POPC   C1B52723   0.711  27.345   6.141
 4033POPC   C2B52724   0.640  27.536   6.550
 4033POPC   C3B52725   0.695  27.648   6.987
 4033POPC   C4B52726   0.727  27.498   7.396
 4034POPC   NC352727   9.074   3.629   5.350
 4034POPC   PO452728   8.805   3.038   5.378
 4034POPC   GL152729   8.836   3.327   5.769
 4034POPC   GL252730   9.073   3.551   5.893
 4034POPC   C1A52731   8.803   3.319   6.270
 4034POPC   D2A52732   8.769   3.384   6.753
 4034POPC   C3A52733   9.137   3.395   7.086
 4034POPC   C4A52734   9.138   3.535   7.543
 4034POPC   C1B52735   9.221   3.624   6.347
 4034POPC   C2B52736   9.132   3.775   6.749
 4034POPC   C3B52737   8.769   3.842   6.972
 4034POPC   C4B52738   8.681   3.558   7.260
 4035POPC   NC352739  12.643   4.640   4.977
 4035POPC   PO452740  12.694   4.033   5.370
 4035POPC   GL152741  12.859   4.185   5.776
 4035POPC   GL252742  13.184   4.046   5.691
 4035POPC   C1A52743  12.756   4.336   6.218
 4035POPC   D2A52744  12.553   4.190   6.628
 4035POPC   C3A52745  12.614   4.289   7.091
 4035POPC   C4A52746  12.515   4.200   7.556
 4035POPC   C1B52747  13.226   4.016   6.150
 4035POPC   C2B52748  13.094   4.165   6.586
 4035POPC   C3B52749  13.135   4.242   7.021
 4035POPC   C4B52750  12.997   4.307   7.451
 4036POPC   NC352751  26.805  39.031   5.489
 4036POPC   PO452752  26.450  39.496   5.267
 4036POPC   GL152753  26.793  39.475   5.717
 4036POPC   GL252754  26.636  39.177   5.922
 4036POPC   C1A52755  27.066  39.284   6.133
 4036POPC   D2A52756  27.095  39.002   6.526
 4036POPC   C3A52757  27.026  39.203   6.911
 4036POPC   C4A52758  26.965  39.478   7.266
 4036POPC   C1B52759  26.661  38.915   6.289
 4036POPC   C2B52760  26.604  38.728   6.689
 4036POPC   C3B52761  26.773  38.807   7.096
 4036POPC   C4B52762  26.786  39.049   7.461
 4037POPC   NC352763  24.310  35.220   5.397
 4037POPC   PO452764  24.849  35.608   5.331
 4037POPC   GL152765  24.609  35.499   5.772
 4037POPC   GL252766  24.239  35.505   5.819
 4037POPC   C1A52767  24.546  35.247   6.209
 4037POPC   D2A52768  24.721  35.102   6.664
 4037POPC   C3A52769  24.469  35.181   7.054
 4037POPC   C4A52770  24.292  35.129   7.484
 4037POPC   C1B52771  24.228  35.639   6.250
 4037POPC   C2B52772  24.346  35.524   6.668
 4037POPC   C3B52773  24.198  35.704   7.063
 4037POPC   C4B52774  24.173  35.609   7.502
 4038POPC   NC352775  18.075  36.264   5.515
 4038POPC   PO452776  18.678  35.962   5.508
 4038POPC   GL152777  18.460  36.153   5.841
 4038POPC   GL252778  18.215  35.888   5.917
 4038POPC   C1A52779  18.244  36.246   6.247
 4038POPC   D2A52780  18.151  36.059   6.636
 4038POPC   C3A52781  18.215  36.307   7.010
 4038POPC   C4A52782  18.020  36.342   7.409
 4038POPC   C1B52783  17.879  35.892   6.208
 4038POPC   C2B52784  17.658  35.965   6.603
 4038POPC   C3B52785  17.832  35.923   7.022
 4038POPC   C4B52786  18.274  35.775   7.063
 4039POPC   NC352787  12.345  30.552   5.444
 4039POPC   PO452788  12.105  31.198   5.475
 4039POPC   GL152789  12.067  30.860   5.736
 4039POPC   GL252790  11.729  30.778   5.755
 4039POPC   C1A52791  12.323  30.759   6.096
 4039POPC   D2A52792  12.175  30.669   6.509
 4039POPC   C3A52793  12.391  30.834   6.858
 4039POPC   C4A52794  12.324  30.595   7.219
 4039POPC   C1B52795  11.871  30.511   6.111
 4039POPC   C2B52796  11.872  30.246   6.502
 4039POPC   C3B52797  11.924  30.409   6.931
 4039POPC   C4B52798  11.773  30.512   7.358
 4040POPC   NC352799   0.325  36.511   5.536
 4040POPC   PO452800   0.267  35.928   5.616
 4040POPC   GL152801   0.597  36.168   5.825
 4040POPC   GL252802   0.826  35.898   5.900
 4040POPC   C1A52803   0.406  36.254   6.230
 4040POPC   D2A52804   0.071  35.966   6.426
 4040POPC   C3A52805   0.068  35.909   6.885
 4040POPC   C4A52806   0.055  36.115   7.287
 4040POPC   C1B52807   0.873  36.092   6.340
 4040POPC   C2B52808   0.532  36.039   6.678
 4040POPC   C3B52809   0.548  36.025   7.130
 4040POPC   C4B52810   0.842  36.188   7.485
 4041POPC   NC352811  11.112  21.729   5.200
 4041POPC   PO452812  11.148  22.328   5.382
 4041POPC   GL152813  11.215  22.129   5.764
 4041POPC   GL252814  11.542  22.010   5.757
 4041POPC   C1A52815  11.232  22.180   6.211
 4041POPC   D2A52816  11.088  21.931   6.546
 4041POPC   C3A52817  11.142  22.129   6.954
 4041POPC   C4A52818  11.556  22.318   7.096
 4041POPC   C1B52819  11.692  21.919   6.169
 4041POPC   C2B52820  11.663  22.039   6.595
 4041POPC   C3B52821  11.644  21.831   6.971
 4041POPC   C4B52822  11.356  21.843   7.312
 4042POPC   NC352823  36.560  27.468   5.453
 4042POPC   PO452824  35.914  27.430   5.435
 4042POPC   GL152825  35.861  27.302   5.824
 4042POPC   GL252826  36.188  27.154   5.822
 4042POPC   C1A52827  35.858  27.534   6.183
 4042POPC   D2A52828  36.090  27.549   6.543
 4042POPC   C3A52829  35.981  27.709   6.965
 4042POPC   C4A52830  36.269  27.640   7.324
 4042POPC   C1B52831  36.063  27.051   6.248
 4042POPC   C2B52832  36.159  27.055   6.668
 4042POPC   C3B52833  36.133  27.231   7.045
 4042POPC   C4B52834  35.845  27.364   7.378
 4043POPC   NC352835  13.987  33.978   5.495
 4043POPC   PO452836  13.462  33.647   5.259
 4043POPC   GL152837  13.743  33.529   5.625
 4043POPC   GL252838  13.563  33.794   5.749
 4043POPC   C1A52839  13.895  33.665   6.102
 4043POPC   D2A52840  13.690  33.735   6.548
 4043POPC   C3A52841  13.920  33.704   6.970
 4043POPC   C4A52842  13.955  33.659   7.442
 4043POPC   C1B52843  13.379  33.820   6.131
 4043POPC   C2B52844  13.238  34.007   6.524
 4043POPC   C3B52845  13.254  33.847   6.941
 4043POPC   C4B52846  13.502  33.801   7.309
 4044POPC   NC352847   5.590  37.218   5.264
 4044POPC   PO452848   4.922  37.011   5.287
 4044POPC   GL152849   5.130  36.938   5.680
 4044POPC   GL252850   5.375  37.176   5.769
 4044POPC   C1A52851   5.229  36.660   6.020
 4044POPC   D2A52852   5.262  36.685   6.477
 4044POPC   C3A52853   4.968  36.785   6.816
 4044POPC   C4A52854   5.062  36.688   7.250
 4044POPC   C1B52855   5.114  37.132   6.174
 4044POPC   C2B52856   5.265  37.189   6.619
 4044POPC   C3B52857   5.354  37.054   7.063
 4044POPC   C4B52858   5.315  37.058   7.534
 4045POPC   NC352859   9.967  30.547   5.502
 4045POPC   PO452860   9.553  30.987   5.201
 4045POPC   GL152861   9.799  30.997   5.648
 4045POPC   GL252862   9.532  30.807   5.749
 4045POPC   C1A52863   9.907  30.761   6.098
 4045POPC   D2A52864   9.799  30.421   6.381
 4045POPC   C3A52865   9.795  30.581   6.804
 4045POPC   C4A52866   9.996  30.477   7.201
 4045POPC   C1B52867   9.567  31.123   6.099
 4045POPC   C2B52868   9.706  31.182   6.525
 4045POPC   C3B52869   9.725  31.121   6.965
 4045POPC   C4B52870   9.622  30.805   7.239
 4046POPC   NC352871   0.919   7.077   5.214
 4046POPC   PO452872   1.613   7.072   5.478
 4046POPC   GL152873   1.368   6.761   5.762
 4046POPC   GL252874   1.514   6.436   5.872
 4046POPC   C1A52875   1.162   6.700   6.181
 4046POPC   D2A52876   1.298   6.651   6.628
 4046POPC   C3A52877   1.087   6.680   7.005
 4046POPC   C4A52878   0.967   7.047   7.181
 4046POPC   C1B52879   1.443   6.253   6.277
 4046POPC   C2B52880   1.393   6.144   6.699
 4046POPC   C3B52881   1.485   6.343   7.090
 4046POPC   C4B52882   1.443   6.354   7.542
 4047POPC   NC352883  27.070  15.609   5.603
 4047POPC   PO452884  26.709  14.965   5.456
 4047POPC   GL152885  26.702  14.976   5.881
 4047POPC   GL252886  26.811  15.335   5.972
 4047POPC   C1A52887  26.670  14.990   6.325
 4047POPC   D2A52888  26.863  15.285   6.577
 4047POPC   C3A52889  26.740  15.118   6.932
 4047POPC   C4A52890  26.559  15.446   7.145
 4047POPC   C1B52891  27.168  15.115   6.198
 4047POPC   C2B52892  27.137  14.863   6.590
 4047POPC   C3B52893  27.212  14.923   7.020
 4047POPC   C4B52894  27.446  15.228   7.240
 4048POPC   NC352895   1.070   1.684   5.518
 4048POPC   PO452896   1.315   2.332   5.441
 4048POPC   GL152897   1.156   2.125   5.846
 4048POPC   GL252898   1.331   1.792   5.945
 4048POPC   C1A52899   1.257   2.157   6.303
 4048POPC   D2A52900   1.291   1.814   6.630
 4048POPC   C3A52901   1.335   2.018   7.040
 4048POPC   C4A52902   1.099   2.404   7.146
 4048POPC   C1B52903   0.948   1.742   6.213
 4048POPC   C2B52904   0.768   1.641   6.598
 4048POPC   C3B52905   0.921   1.707   7.000
 4048POPC   C4B52906   0.680   1.737   7.369
 4049POPC   NC352907  13.592  40.926   5.069
 4049POPC   PO452908  13.699  41.528   5.456
 4049POPC   GL152909  13.716  41.464   5.880
 4049POPC   GL252910  13.760  41.137   5.924
 4049POPC   C1A52911  13.731  41.726   6.266
 4049POPC   D2A52912  13.858  41.961   6.618
 4049POPC   C3A52913  13.605  41.882   6.986
 4049POPC   C4A52914  13.701  41.698   7.389
 4049POPC   C1B52915  13.678  41.224   6.355
 4049POPC   C2B52916  13.604  41.393   6.765
 4049POPC   C3B52917  13.778  41.237   7.164
 4049POPC   C4B52918  13.600  41.206   7.585
 4050POPC   NC352919   3.382  33.056   5.508
 4050POPC   PO452920   2.838  33.418   5.536
 4050POPC   GL152921   3.020  33.697   5.854
 4050POPC   GL252922   3.267  33.456   5.961
 4050POPC   C1A52923   2.844  33.927   6.247
 4050POPC   D2A52924   2.953  33.998   6.697
 4050POPC   C3A52925   2.748  33.740   7.013
 4050POPC   C4A52926   2.743  33.681   7.453
 4050POPC   C1B52927   2.932  33.413   6.277
 4050POPC   C2B52928   2.871  33.331   6.728
 4050POPC   C3B52929   2.995  33.315   7.179
 4050POPC   C4B52930   3.323  33.148   7.435
 4051POPC   NC352931  40.600   3.668   5.538
 4051POPC   PO452932  41.237   3.389   5.374
 4051POPC   GL152933  41.013   3.441   5.773
 4051POPC   GL252934  40.728   3.237   5.829
 4051POPC   C1A52935  40.800   3.595   6.181
 4051POPC   D2A52936  40.572   3.790   6.534
 4051POPC   C3A52937  40.594   3.605   6.940
 4051POPC   C4A52938  40.621   3.693   7.388
 4051POPC   C1B52939  40.989   3.039   6.126
 4051POPC   C2B52940  41.121   3.204   6.516
 4051POPC   C3B52941  41.264   3.199   6.920
 4051POPC   C4B52942  41.008   3.368   7.271
 4052POPC   NC352943   2.129  24.839   5.658
 4052POPC   PO452944   1.841  25.280   5.220
 4052POPC   GL152945   1.861  25.301   5.690
 4052POPC   GL252946   1.698  25.017   5.901
 4052POPC   C1A52947   1.942  25.427   6.133
 4052POPC   D2A52948   1.818  25.294   6.580
 4052POPC   C3A52949   1.976  25.456   6.975
 4052POPC   C4A52950   2.351  25.666   7.163
 4052POPC   C1B52951   2.034  24.929   6.276
 4052POPC   C2B52952   2.218  24.788   6.667
 4052POPC   C3B52953   2.239  25.010   7.091
 4052POPC   C4B52954   2.416  25.020   7.545
 4053POPC   NC352955  26.181  18.776   5.393
 4053POPC   PO452956  25.817  18.042   5.369
 4053POPC   GL152957  25.975  18.241   5.772
 4053POPC   GL252958  25.955  18.607   5.835
 4053POPC   C1A52959  26.024  18.093   6.184
 4053POPC   D2A52960  25.839  18.144   6.599
 4053POPC   C3A52961  26.151  17.974   6.897
 4053POPC   C4A52962  25.992  18.003   7.305
 4053POPC   C1B52963  26.265  18.536   6.194
 4053POPC   C2B52964  26.286  18.411   6.639
 4053POPC   C3B52965  26.001  18.435   7.034
 4053POPC   C4B52966  26.154  18.615   7.463
 4054POPC   NC352967  41.595  27.251   5.432
 4054POPC   PO452968  41.837  26.598   5.576
 4054POPC   GL152969  41.504  26.848   5.751
 4054POPC   GL252970  41.204  26.660   5.792
 4054POPC   C1A52971  41.505  26.982   6.180
 4054POPC   D2A52972  41.667  26.786   6.533
 4054POPC   C3A52973  41.714  27.006   6.910
 4054POPC   C4A52974  41.882  26.887   7.284
 4054POPC   C1B52975  41.184  26.581   6.280
 4054POPC   C2B52976  41.211  26.707   6.751
 4054POPC   C3B52977  41.342  26.800   7.197
 4054POPC   C4B52978  41.152  26.634   7.575
 4055POPC   NC352979  44.780  20.348   4.696
 4055POPC   PO452980  44.589  20.797   5.221
 4055POPC   GL152981  44.514  20.546   5.691
 4055POPC   GL252982  44.646  20.232   5.690
 4055POPC   C1A52983  44.737  20.592   6.138
 4055POPC   D2A52984   0.039  20.823   6.431
 4055POPC   C3A52985  44.940  20.804   6.877
 4055POPC   C4A52986  44.789  20.505   7.217
 4055POPC   C1B52987  44.425  20.195   6.095
 4055POPC   C2B52988  44.447  20.343   6.492
 4055POPC   C3B52989  44.524  20.226   6.879
 4055POPC   C4B52990  44.458  20.027   7.229
 4056POPC   NC352991  21.226  24.010   5.420
 4056POPC   PO452992  21.548  23.477   5.535
 4056POPC   GL152993  21.324  23.666   5.821
 4056POPC   GL252994  21.588  23.921   5.840
 4056POPC   C1A52995  21.313  23.789   6.239
 4056POPC   D2A52996  21.599  23.859   6.571
 4056POPC   C3A52997  21.370  23.841   6.969
 4056POPC   C4A52998  21.199  23.702   7.364
 4056POPC   C1B52999  21.778  23.568   6.145
 4056POPC   C2B53000  21.954  23.465   6.553
 4056POPC   C3B53001  21.728  23.483   6.924
 4056POPC   C4B53002  21.730  23.697   7.322
 4057POPC   NC353003  35.460  17.790   5.228
 4057POPC   PO453004  35.667  17.135   5.364
 4057POPC   GL153005  35.542  17.442   5.680
 4057POPC   GL253006  35.224  17.336   5.833
 4057POPC   C1A53007  35.582  17.525   6.141
 4057POPC   D2A53008  35.254  17.667   6.445
 4057POPC   C3A53009  35.388  17.685   6.865
 4057POPC   C4A53010  35.222  17.609   7.271
 4057POPC   C1B53011  35.254  17.142   6.203
 4057POPC   C2B53012  35.455  17.230   6.599
 4057POPC   C3B53013  35.247  17.179   6.960
 4057POPC   C4B53014  35.319  17.048   7.346
 4058POPC   NC353015  24.170  18.130   5.383
 4058POPC   PO453016  23.493  18.519   5.459
 4058POPC   GL153017  23.517  18.261   5.813
 4058POPC   GL253018  23.837  18.299   5.833
 4058POPC   C1A53019  23.531  18.373   6.274
 4058POPC   D2A53020  23.690  18.363   6.692
 4058POPC   C3A53021  23.443  18.511   7.037
 4058POPC   C4A53022  23.484  18.362   7.454
 4058POPC   C1B53023  23.981  18.157   6.262
 4058POPC   C2B53024  23.887  17.880   6.617
 4058POPC   C3B53025  24.011  17.871   7.069
 4058POPC   C4B53026  23.924  18.297   7.180
 4059POPC   NC353027  17.318  36.138   5.439
 4059POPC   PO453028  17.893  35.820   5.522
 4059POPC   GL153029  17.554  35.924   5.831
 4059POPC   GL253030  17.568  36.294   5.851
 4059POPC   C1A53031  17.316  36.063   6.225
 4059POPC   D2A53032  17.157  35.840   6.604
 4059POPC   C3A53033  17.311  36.062   6.957
 4059POPC   C4A53034  17.477  36.023   7.390
 4059POPC   C1B53035  17.742  36.388   6.254
 4059POPC   C2B53036  17.639  36.487   6.679
 4059POPC   C3B53037  17.616  36.430   7.121
 4059POPC   C4B53038  17.535  36.491   7.589
 4060POPC   NC353039  17.448  39.575   5.284
 4060POPC   PO453040  17.542  39.019   5.434
 4060POPC   GL153041  17.492  38.932   5.828
 4060POPC   GL253042  17.369  39.282   5.841
 4060POPC   C1A53043  17.480  38.952   6.260
 4060POPC   D2A53044  17.328  39.158   6.597
 4060POPC   C3A53045  17.490  39.030   6.980
 4060POPC   C4A53046  17.341  39.218   7.337
 4060POPC   C1B53047  17.638  39.432   6.192
 4060POPC   C2B53048  17.608  39.606   6.600
 4060POPC   C3B53049  17.365  39.558   6.956
 4060POPC   C4B53050  17.479  39.763   7.335
 4061POPC   NC353051  43.622  41.876   5.475
 4061POPC   PO453052  43.991  42.453   5.381
 4061POPC   GL153053  44.021  42.239   5.788
 4061POPC   GL253054  43.664  42.246   5.837
 4061POPC   C1A53055  44.263  42.262   6.195
 4061POPC   D2A53056  44.023  42.227   6.622
 4061POPC   C3A53057  44.173  42.096   7.026
 4061POPC   C4A53058  44.271  42.345   7.423
 4061POPC   C1B53059  43.789  42.437   6.215
 4061POPC   C2B53060  43.629  42.610   6.589
 4061POPC   C3B53061  43.493  42.445   6.965
 4061POPC   C4B53062  43.853  42.457   7.169
 4062POPC   NC353063   8.460  25.616   5.525
 4062POPC   PO453064   7.913  26.030   5.377
 4062POPC   GL153065   8.131  25.936   5.764
 4062POPC   GL253066   8.214  26.257   5.858
 4062POPC   C1A53067   7.958  25.969   6.204
 4062POPC   D2A53068   8.064  26.195   6.601
 4062POPC   C3A53069   8.030  25.958   7.016
 4062POPC   C4A53070   7.979  26.133   7.434
 4062POPC   C1B53071   8.464  26.134   6.228
 4062POPC   C2B53072   8.544  26.405   6.594
 4062POPC   C3B53073   8.440  26.259   7.005
 4062POPC   C4B53074   8.578  25.859   7.148
 4063POPC   NC353075   5.590   0.781   5.448
 4063POPC   PO453076   5.809   0.200   5.408
 4063POPC   GL153077   5.906   0.300   5.786
 4063POPC   GL253078   6.182   0.479   5.685
 4063POPC   C1A53079   5.807   0.364   6.227
 4063POPC   D2A53080   5.945   0.144   6.596
 4063POPC   C3A53081   5.623   0.282   6.911
 4063POPC   C4A53082   5.662   0.698   7.077
 4063POPC   C1B53083   6.296   0.363   6.118
 4063POPC   C2B53084   6.375   0.500   6.556
 4063POPC   C3B53085   6.136   0.461   6.949
 4063POPC   C4B53086   6.004   0.064   7.155
 4064POPC   NC353087  37.804   5.297   5.552
 4064POPC   PO453088  37.531   4.665   5.381
 4064POPC   GL153089  37.615   4.897   5.794
 4064POPC   GL253090  37.455   5.228   5.921
 4064POPC   C1A53091  37.726   4.854   6.236
 4064POPC   D2A53092  37.570   4.701   6.642
 4064POPC   C3A53093  37.764   4.891   6.996
 4064POPC   C4A53094  37.681   5.078   7.392
 4064POPC   C1B53095  37.587   5.361   6.359
 4064POPC   C2B53096  37.679   5.366   6.830
 4064POPC   C3B53097  37.609   5.555   7.253
 4064POPC   C4B53098  37.571   5.429   7.740
 4065POPC   NC353099   5.066  14.662   5.398
 4065POPC   PO453100   4.932  14.110   5.135
 4065POPC   GL153101   4.874  14.256   5.635
 4065POPC   GL253102   4.762  14.585   5.797
 4065POPC   C1A53103   4.983  14.261   6.107
 4065POPC   D2A53104   5.258  14.339   6.471
 4065POPC   C3A53105   5.149  14.360   6.909
 4065POPC   C4A53106   5.406  14.391   7.297
 4065POPC   C1B53107   4.710  14.836   6.163
 4065POPC   C2B53108   4.835  14.681   6.557
 4065POPC   C3B53109   4.966  14.819   6.951
 4065POPC   C4B53110   4.858  14.753   7.375
 4066POPC   NC353111  10.735  38.425   5.593
 4066POPC   PO453112  10.243  38.685   5.222
 4066POPC   GL153113  10.325  38.705   5.701
 4066POPC   GL253114  10.676  38.897   5.745
 4066POPC   C1A53115  10.453  38.503   6.155
 4066POPC   D2A53116  10.621  38.153   6.449
 4066POPC   C3A53117  10.739  38.274   6.892
 4066POPC   C4A53118  10.493  38.255   7.280
 4066POPC   C1B53119  10.885  38.781   6.179
 4066POPC   C2B53120  11.070  38.718   6.633
 4066POPC   C3B53121  11.040  38.654   7.128
 4066POPC   C4B53122  10.928  38.503   7.559
 4067POPC   NC353123  19.938  17.809   5.427
 4067POPC   PO453124  19.404  17.340   5.375
 4067POPC   GL153125  19.757  17.372   5.650
 4067POPC   GL253126  19.659  17.664   5.837
 4067POPC   C1A53127  19.864  17.220   6.062
 4067POPC   D2A53128  19.736  17.380   6.450
 4067POPC   C3A53129  19.951  17.306   6.838
 4067POPC   C4A53130  19.669  17.350   7.172
 4067POPC   C1B53131  20.031  17.703   6.112
 4067POPC   C2B53132  20.056  17.763   6.570
 4067POPC   C3B53133  19.884  17.823   6.968
 4067POPC   C4B53134  20.073  17.659   7.284
 4068POPC   NC353135   8.143  34.138   5.010
 4068POPC   PO453136   8.225  33.684   5.513
 4068POPC   GL153137   8.009  33.608   5.850
 4068POPC   GL253138   8.205  33.832   6.000
 4068POPC   C1A53139   7.869  33.602   6.280
 4068POPC   D2A53140   8.155  33.718   6.592
 4068POPC   C3A53141   7.977  33.845   6.986
 4068POPC   C4A53142   7.746  33.771   7.376
 4068POPC   C1B53143   8.555  33.871   6.256
 4068POPC   C2B53144   8.680  33.703   6.621
 4068POPC   C3B53145   8.485  33.828   6.969
 4068POPC   C4B53146   8.556  33.974   7.336
 4069POPC   NC353147  34.948   9.653   5.322
 4069POPC   PO453148  34.281   9.826   5.403
 4069POPC   GL153149  34.485   9.624   5.759
 4069POPC   GL253150  34.830   9.478   5.775
 4069POPC   C1A53151  34.507   9.434   6.159
 4069POPC   D2A53152  34.600   9.662   6.513
 4069POPC   C3A53153  34.661   9.517   6.911
 4069POPC   C4A53154  34.510   9.829   7.129
 4069POPC   C1B53155  34.884   9.793   6.112
 4069POPC   C2B53156  35.019   9.986   6.533
 4069POPC   C3B53157  34.860  10.152   6.947
 4069POPC   C4B53158  34.867  10.085   7.429
 4070POPC   NC353159  40.157  14.802   5.470
 4070POPC   PO453160  39.776  14.279   5.449
 4070POPC   GL153161  39.984  14.415   5.775
 4070POPC   GL253162  40.114  14.130   5.837
 4070POPC   C1A53163  40.090  14.601   6.188
 4070POPC   D2A53164  40.107  14.926   6.525
 4070POPC   C3A53165  40.013  14.714   6.910
 4070POPC   C4A53166  40.054  14.543   7.332
 4070POPC   C1B53167  39.863  14.130   6.197
 4070POPC   C2B53168  39.943  14.270   6.576
 4070POPC   C3B53169  39.906  14.219   6.963
 4070POPC   C4B53170  40.330  14.155   7.060
 4071POPC   NC353171  43.586  22.617   5.429
 4071POPC   PO453172  43.681  23.277   5.507
 4071POPC   GL153173  43.867  22.935   5.782
 4071POPC   GL253174  43.600  22.721   5.927
 4071POPC   C1A53175  44.033  22.837   6.215
 4071POPC   D2A53176  43.809  22.852   6.604
 4071POPC   C3A53177  44.012  22.855   6.986
 4071POPC   C4A53178  43.946  23.042   7.408
 4071POPC   C1B53179  43.534  23.083   6.204
 4071POPC   C2B53180  43.395  23.186   6.641
 4071POPC   C3B53181  43.545  23.067   7.068
 4071POPC   C4B53182  43.451  22.939   7.527
 4072POPC   NC353183   3.289  14.293   5.593
 4072POPC   PO453184   3.843  14.585   5.532
 4072POPC   GL153185   3.647  14.523   5.955
 4072POPC   GL253186   3.412  14.293   6.083
 4072POPC   C1A53187   3.818  14.278   6.346
 4072POPC   D2A53188   3.940  14.135   6.722
 4072POPC   C3A53189   3.633  14.324   6.970
 4072POPC   C4A53190   3.665  14.324   7.399
 4072POPC   C1B53191   3.140  14.370   6.439
 4072POPC   C2B53192   3.029  14.439   6.880
 4072POPC   C3B53193   3.174  14.355   7.291
 4072POPC   C4B53194   3.273  14.232   7.717
 4073POPC   NC353195  20.446   4.273   5.415
 4073POPC   PO453196  21.081   3.956   5.360
 4073POPC   GL153197  20.841   4.207   5.733
 4073POPC   GL253198  20.617   4.031   5.913
 4073POPC   C1A53199  20.501   4.497   6.044
 4073POPC   D2A53200  20.591   4.664   6.469
 4073POPC   C3A53201  20.485   4.576   6.898
 4073POPC   C4A53202  20.738   4.534   7.236
 4073POPC   C1B53203  20.881   4.246   6.237
 4073POPC   C2B53204  21.007   4.100   6.622
 4073POPC   C3B53205  20.843   4.093   7.022
 4073POPC   C4B53206  21.097   4.208   7.373
 4074POPC   NC353207  22.802  37.371   5.426
 4074POPC   PO453208  22.666  36.744   5.420
 4074POPC   GL153209  22.876  36.820   5.826
 4074POPC   GL253210  22.852  37.160   5.891
 4074POPC   C1A53211  22.921  36.654   6.240
 4074POPC   D2A53212  23.094  36.799   6.633
 4074POPC   C3A53213  22.828  36.698   6.964
 4074POPC   C4A53214  22.742  36.869   7.327
 4074POPC   C1B53215  23.100  37.159   6.257
 4074POPC   C2B53216  23.273  37.302   6.665
 4074POPC   C3B53217  23.134  37.121   7.065
 4074POPC   C4B53218  23.060  37.229   7.492
 4075POPC   NC353219   7.346  31.127   5.585
 4075POPC   PO453220   7.073  30.549   5.550
 4075POPC   GL153221   7.296  30.738   5.906
 4075POPC   GL253222   7.661  30.758   5.849
 4075POPC   C1A53223   7.421  30.985   6.273
 4075POPC   D2A53224   7.587  30.898   6.681
 4075POPC   C3A53225   7.302  30.977   7.040
 4075POPC   C4A53226   7.129  30.721   7.395
 4075POPC   C1B53227   7.659  30.523   6.259
 4075POPC   C2B53228   7.402  30.260   6.574
 4075POPC   C3B53229   7.361  30.354   7.029
 4075POPC   C4B53230   7.683  30.664   7.168
 4076POPC   NC353231  17.677  41.099   5.549
 4076POPC   PO453232  17.368  40.427   5.314
 4076POPC   GL153233  17.260  40.463   5.779
 4076POPC   GL253234  17.454  40.765   5.902
 4076POPC   C1A53235  17.228  40.515   6.269
 4076POPC   D2A53236  17.615  40.622   6.511
 4076POPC   C3A53237  17.581  40.527   6.928
 4076POPC   C4A53238  17.360  40.761   7.221
 4076POPC   C1B53239  17.782  40.979   6.166
 4076POPC   C2B53240  17.863  41.136   6.539
 4076POPC   C3B53241  17.612  41.078   6.867
 4076POPC   C4B53242  17.604  41.281   7.247
 4077POPC   NC353243   6.326  13.898   5.330
 4077POPC   PO453244   6.826  13.501   5.341
 4077POPC   GL153245   6.740  13.505   5.755
 4077POPC   GL253246   6.397  13.622   5.797
 4077POPC   C1A53247   6.832  13.454   6.189
 4077POPC   D2A53248   7.041  13.599   6.569
 4077POPC   C3A53249   6.861  13.459   6.935
 4077POPC   C4A53250   6.465  13.235   7.064
 4077POPC   C1B53251   6.324  13.922   6.151
 4077POPC   C2B53252   6.403  14.126   6.541
 4077POPC   C3B53253   6.310  14.069   6.962
 4077POPC   C4B53254   6.494  13.732   7.166
 4078POPC   NC353255  15.346  26.138   5.318
 4078POPC   PO453256  15.982  25.886   5.234
 4078POPC   GL153257  15.811  26.007   5.612
 4078POPC   GL253258  15.801  25.677   5.739
 4078POPC   C1A53259  15.992  26.048   6.030
 4078POPC   D2A53260  15.953  26.045   6.450
 4078POPC   C3A53261  16.022  26.012   6.859
 4078POPC   C4A53262  16.091  26.356   7.171
 4078POPC   C1B53263  15.703  25.643   6.187
 4078POPC   C2B53264  15.758  25.597   6.632
 4078POPC   C3B53265  15.674  25.710   7.076
 4078POPC   C4B53266  15.780  25.570   7.494
 4079POPC   NC353267  18.088  24.504   5.355
 4079POPC   PO453268  18.759  24.630   5.390
 4079POPC   GL153269  18.496  24.419   5.706
 4079POPC   GL253270  18.236  24.534   5.837
 4079POPC   C1A53271  18.497  24.270   6.180
 4079POPC   D2A53272  18.506  24.524   6.595
 4079POPC   C3A53273  18.542  24.310   6.999
 4079POPC   C4A53274  18.412  24.263   7.422
 4079POPC   C1B53275  18.302  24.766   6.195
 4079POPC   C2B53276  18.109  24.908   6.581
 4079POPC   C3B53277  18.286  24.860   6.974
 4079POPC   C4B53278  18.088  24.570   7.191
 4080POPC   NC353279  24.163  38.563   5.265
 4080POPC   PO453280  24.631  38.152   5.263
 4080POPC   GL153281  24.457  38.379   5.638
 4080POPC   GL253282  24.214  38.140   5.707
 4080POPC   C1A53283  24.465  38.642   6.041
 4080POPC   D2A53284  24.630  38.518   6.452
 4080POPC   C3A53285  24.610  38.684   6.880
 4080POPC   C4A53286  24.688  38.579   7.301
 4080POPC   C1B53287  24.392  38.138   6.129
 4080POPC   C2B53288  24.478  38.050   6.565
 4080POPC   C3B53289  24.614  38.171   6.989
 4080POPC   C4B53290  24.354  38.152   7.379
 4081POPC   NC353291  13.446  35.580   5.442
 4081POPC   PO453292  13.906  35.059   5.351
 4081POPC   GL153293  13.671  35.194   5.724
 4081POPC   GL253294  13.850  35.519   5.786
 4081POPC   C1A53295  13.610  35.186   6.182
 4081POPC   D2A53296  13.859  35.124   6.573
 4081POPC   C3A53297  13.633  35.116   6.979
 4081POPC   C4A53298  13.319  35.199   7.311
 4081POPC   C1B53299  13.935  35.568   6.242
 4081POPC   C2B53300  13.612  35.574   6.590
 4081POPC   C3B53301  13.622  35.642   7.043
 4081POPC   C4B53302  13.558  35.616   7.494
 4082POPC   NC353303  11.900   8.634   5.589
 4082POPC   PO453304  12.108   8.102   5.272
 4082POPC   GL153305  12.191   8.224   5.709
 4082POPC   GL253306  11.985   7.964   5.857
 4082POPC   C1A53307  12.426   8.119   6.108
 4082POPC   D2A53308  12.315   7.957   6.511
 4082POPC   C3A53309  12.306   8.214   6.866
 4082POPC   C4A53310  12.130   8.102   7.258
 4082POPC   C1B53311  11.961   8.321   6.174
 4082POPC   C2B53312  11.876   8.443   6.605
 4082POPC   C3B53313  11.782   8.107   6.879
 4082POPC   C4B53314  11.573   8.018   7.264
 4083POPC   NC353315  13.039   4.487   5.400
 4083POPC   PO453316  13.622   4.210   5.186
 4083POPC   GL153317  13.635   4.332   5.652
 4083POPC   GL253318  13.346   4.529   5.822
 4083POPC   C1A53319  13.696   4.255   6.107
 4083POPC   D2A53320  13.605   4.077   6.528
 4083POPC   C3A53321  13.890   4.184   6.865
 4083POPC   C4A53322  13.740   4.242   7.256
 4083POPC   C1B53323  13.267   4.517   6.282
 4083POPC   C2B53324  13.450   4.574   6.724
 4083POPC   C3B53325  13.823   4.690   7.019
 4083POPC   C4B53326  13.902   4.699   7.490
 4084POPC   NC353327  18.873  14.313   5.402
 4084POPC   PO453328  19.502  14.165   5.545
 4084POPC   GL153329  19.227  14.363   5.878
 4084POPC   GL253330  18.975  14.606   5.809
 4084POPC   C1A53331  19.237  14.309   6.331
 4084POPC   D2A53332  19.415  14.345   6.744
 4084POPC   C3A53333  19.157  14.520   7.100
 4084POPC   C4A53334  19.060  14.504   7.540
 4084POPC   C1B53335  18.852  14.641   6.219
 4084POPC   C2B53336  18.916  14.593   6.655
 4084POPC   C3B53337  18.655  14.603   7.038
 4084POPC   C4B53338  18.701  14.208   7.243
 4085POPC   NC353339  16.956  15.467   5.517
 4085POPC   PO453340  16.958  14.876   5.207
 4085POPC   GL153341  16.791  15.007   5.668
 4085POPC   GL253342  16.929  14.837   5.941
 4085POPC   C1A53343  16.714  15.276   6.095
 4085POPC   D2A53344  16.937  15.560   6.406
 4085POPC   C3A53345  16.782  15.525   6.838
 4085POPC   C4A53346  16.530  15.267   7.160
 4085POPC   C1B53347  17.144  15.031   6.276
 4085POPC   C2B53348  16.860  15.083   6.585
 4085POPC   C3B53349  16.859  14.914   6.963
 4085POPC   C4B53350  16.730  14.765   7.316
 4086POPC   NC353351  16.828  12.870   5.391
 4086POPC   PO453352  17.451  12.762   5.578
 4086POPC   GL153353  17.083  12.838   5.872
 4086POPC   GL253354  16.815  12.614   5.826
 4086POPC   C1A53355  16.858  12.993   6.285
 4086POPC   D2A53356  16.667  12.986   6.737
 4086POPC   C3A53357  16.870  13.213   7.069
 4086POPC   C4A53358  16.884  13.282   7.546
 4086POPC   C1B53359  16.508  12.647   6.102
 4086POPC   C2B53360  16.517  12.568   6.508
 4086POPC   C3B53361  16.644  12.485   6.939
 4086POPC   C4B53362  16.421  12.445   7.337
 4087POPC   NC353363  20.739  19.561   5.070
 4087POPC   PO453364  20.522  20.202   5.387
 4087POPC   GL153365  20.410  19.943   5.776
 4087POPC   GL253366  20.556  19.601   5.717
 4087POPC   C1A53367  20.373  19.958   6.266
 4087POPC   D2A53368  20.425  19.791   6.714
 4087POPC   C3A53369  20.827  19.836   6.975
 4087POPC   C4A53370  21.006  20.173   7.262
 4087POPC   C1B53371  20.268  19.476   6.069
 4087POPC   C2B53372  20.176  19.347   6.545
 4087POPC   C3B53373  20.129  19.416   7.020
 4087POPC   C4B53374  20.413  19.708   7.256
 4088POPC   NC353375  32.032  18.418   5.508
 4088POPC   PO453376  32.488  18.008   5.309
 4088POPC   GL153377  32.411  18.116   5.755
 4088POPC   GL253378  32.692  18.267   5.803
 4088POPC   C1A53379  32.093  18.182   6.129
 4088POPC   D2A53380  32.174  18.330   6.533
 4088POPC   C3A53381  32.211  18.054   6.867
 4088POPC   C4A53382  32.115  18.037   7.273
 4088POPC   C1B53383  32.504  18.471   6.129
 4088POPC   C2B53384  32.660  18.494   6.529
 4088POPC   C3B53385  32.429  18.603   6.892
 4088POPC   C4B53386  32.460  18.402   7.270
 4089POPC   NC353387  18.668   6.940   5.063
 4089POPC   PO453388  18.177   6.592   5.324
 4089POPC   GL153389  18.332   6.577   5.747
 4089POPC   GL253390  17.988   6.706   5.840
 4089POPC   C1A53391  18.590   6.561   6.164
 4089POPC   D2A53392  18.730   6.469   6.607
 4089POPC   C3A53393  18.476   6.574   7.028
 4089POPC   C4A53394  18.085   6.680   7.273
 4089POPC   C1B53395  18.117   6.699   6.251
 4089POPC   C2B53396  18.330   6.813   6.602
 4089POPC   C3B53397  18.060   7.018   6.900
 4089POPC   C4B53398  17.868   7.148   7.291
 4090POPC   NC353399   9.475  29.562   5.310
 4090POPC   PO453400   9.830  30.124   5.421
 4090POPC   GL153401   9.886  29.773   5.698
 4090POPC   GL253402   9.592  29.877   5.903
 4090POPC   C1A53403  10.030  29.811   6.149
 4090POPC   D2A53404   9.692  29.920   6.445
 4090POPC   C3A53405   9.741  29.892   6.875
 4090POPC   C4A53406   9.879  29.980   7.277
 4090POPC   C1B53407   9.345  30.191   6.199
 4090POPC   C2B53408   9.370  30.302   6.678
 4090POPC   C3B53409   9.494  30.279   7.127
 4090POPC   C4B53410   9.626  30.298   7.567
 4091POPC   NC353411  27.077  43.205   5.571
 4091POPC   PO453412  26.505  42.887   5.589
 4091POPC   GL153413  26.665  42.872   6.000
 4091POPC   GL253414  27.000  42.808   5.962
 4091POPC   C1A53415  26.665  43.090   6.409
 4091POPC   D2A53416  26.339  43.119   6.769
 4091POPC   C3A53417  26.555  43.161   7.166
 4091POPC   C4A53418  26.986  43.189   7.152
 4091POPC   C1B53419  27.011  42.658   6.391
 4091POPC   C2B53420  27.147  42.766   6.811
 4091POPC   C3B53421  27.162  42.743   7.268
 4091POPC   C4B53422  27.119  43.003   7.637
 4092POPC   NC353423  10.001  25.739   5.457
 4092POPC   PO453424   9.493  26.051   5.083
 4092POPC   GL153425   9.638  26.133   5.568
 4092POPC   GL253426   9.588  26.397   5.808
 4092POPC   C1A53427   9.838  26.028   6.027
 4092POPC   D2A53428   9.883  26.169   6.476
 4092POPC   C3A53429   9.904  25.857   6.835
 4092POPC   C4A53430   9.577  25.709   7.116
 4092POPC   C1B53431   9.402  26.261   6.211
 4092POPC   C2B53432   9.351  26.115   6.643
 4092POPC   C3B53433   9.520  26.200   7.054
 4092POPC   C4B53434   9.909  26.207   7.266
 4093POPC   NC353435  25.957  24.181   5.338
 4093POPC   PO453436  26.306  24.747   5.417
 4093POPC   GL153437  26.213  24.444   5.705
 4093POPC   GL253438  25.843  24.462   5.775
 4093POPC   C1A53439  26.229  24.347   6.151
 4093POPC   D2A53440  26.107  24.539   6.548
 4093POPC   C3A53441  26.139  24.310   6.936
 4093POPC   C4A53442  25.976  24.566   7.259
 4093POPC   C1B53443  25.733  24.183   6.157
 4093POPC   C2B53444  25.748  24.114   6.628
 4093POPC   C3B53445  25.617  24.295   7.036
 4093POPC   C4B53446  25.533  24.328   7.524
 4094POPC   NC353447  27.151  29.708   5.490
 4094POPC   PO453448  26.666  30.164   5.296
 4094POPC   GL153449  26.763  29.995   5.710
 4094POPC   GL253450  27.094  30.121   5.817
 4094POPC   C1A53451  26.551  29.971   6.106
 4094POPC   D2A53452  26.676  29.815   6.504
 4094POPC   C3A53453  26.889  29.987   6.823
 4094POPC   C4A53454  26.744  29.887   7.191
 4094POPC   C1B53455  27.018  29.763   6.120
 4094POPC   C2B53456  26.964  29.394   6.424
 4094POPC   C3B53457  26.943  29.476   6.837
 4094POPC   C4B53458  27.074  29.530   7.280
 4095POPC   NC353459  31.919   3.035   5.358
 4095POPC   PO453460  31.325   2.669   5.365
 4095POPC   GL153461  31.530   2.791   5.725
 4095POPC   GL253462  31.514   3.149   5.669
 4095POPC   C1A53463  31.381   2.740   6.150
 4095POPC   D2A53464  31.598   2.783   6.535
 4095POPC   C3A53465  31.546   2.521   6.866
 4095POPC   C4A53466  31.320   2.668   7.189
 4095POPC   C1B53467  31.647   3.207   6.094
 4095POPC   C2B53468  31.800   3.296   6.507
 4095POPC   C3B53469  31.693   3.131   6.896
 4095POPC   C4B53470  31.783   3.088   7.305
 4096POPC   NC353471  29.801   4.270   5.288
 4096POPC   PO453472  30.389   4.576   5.008
 4096POPC   GL153473  30.156   4.575   5.500
 4096POPC   GL253474  29.767   4.641   5.648
 4096POPC   C1A53475  30.101   4.427   5.984
 4096POPC   D2A53476  29.968   4.473   6.462
 4096POPC   C3A53477  30.227   4.421   6.851
 4096POPC   C4A53478  30.086   4.019   7.027
 4096POPC   C1B53479  29.585   4.546   6.092
 4096POPC   C2B53480  29.485   4.668   6.548
 4096POPC   C3B53481  29.502   4.519   6.990
 4096POPC   C4B53482  29.610   4.359   7.407
 4097POPC   NC353483  44.989   5.738   5.554
 4097POPC   PO453484  44.689   6.360   5.291
 4097POPC   GL153485  44.657   6.142   5.731
 4097POPC   GL253486  44.673   5.810   5.943
 4097POPC   C1A53487  44.755   6.226   6.190
 4097POPC   D2A53488  44.935   6.281   6.587
 4097POPC   C3A53489  44.693   6.166   6.914
 4097POPC   C4A53490  44.802   5.914   7.225
 4097POPC   C1B53491  44.529   5.625   6.315
 4097POPC   C2B53492  44.516   5.674   6.776
 4097POPC   C3B53493  44.687   5.413   7.107
 4097POPC   C4B53494  44.642   5.090   7.444
 4098POPC   NC353495  21.981  25.800   5.490
 4098POPC   PO453496  21.834  26.532   5.415
 4098POPC   GL153497  22.102  26.317   5.805
 4098POPC   GL253498  22.225  25.947   5.899
 4098POPC   C1A53499  22.279  26.305   6.240
 4098POPC   D2A53500  22.111  26.494   6.613
 4098POPC   C3A53501  22.143  26.240   6.984
 4098POPC   C4A53502  22.057  26.123   7.398
 4098POPC   C1B53503  21.986  25.746   6.240
 4098POPC   C2B53504  22.024  25.845   6.684
 4098POPC   C3B53505  22.092  25.687   7.121
 4098POPC   C4B53506  22.167  25.633   7.597
 4099POPC   NC353507  28.733   9.245   5.403
 4099POPC   PO453508  28.514   9.952   5.389
 4099POPC   GL153509  28.436   9.806   5.798
 4099POPC   GL253510  28.383   9.471   5.737
 4099POPC   C1A53511  28.368   9.959   6.226
 4099POPC   D2A53512  28.361  10.190   6.631
 4099POPC   C3A53513  28.220   9.989   7.023
 4099POPC   C4A53514  28.495   9.914   7.364
 4099POPC   C1B53515  28.589   9.409   6.093
 4099POPC   C2B53516  28.568   9.572   6.488
 4099POPC   C3B53517  28.617   9.661   6.920
 4099POPC   C4B53518  28.572   9.431   7.294
 4100POPC   NC353519  21.215  23.140   5.480
 4100POPC   PO453520  21.844  23.012   5.209
 4100POPC   GL153521  21.627  22.879   5.640
 4100POPC   GL253522  21.701  23.124   5.886
 4100POPC   C1A53523  21.405  22.754   6.085
 4100POPC   D2A53524  21.223  22.891   6.522
 4100POPC   C3A53525  21.430  22.885   6.928
 4100POPC   C4A53526  21.305  22.779   7.350
 4100POPC   C1B53527  21.366  23.265   6.184
 4100POPC   C2B53528  21.310  23.409   6.612
 4100POPC   C3B53529  21.215  23.328   7.036
 4100POPC   C4B53530  21.521  23.230   7.333
 4101POPC   NC353531  38.998   6.304   5.397
 4101POPC   PO453532  39.611   6.582   5.271
 4101POPC   GL153533  39.314   6.613   5.666
 4101POPC   GL253534  39.002   6.402   5.882
 4101POPC   C1A53535  39.401   6.621   6.080
 4101POPC   D2A53536  39.447   6.657   6.485
 4101POPC   C3A53537  39.501   6.327   6.742
 4101POPC   C4A53538  39.371   6.459   7.115
 4101POPC   C1B53539  38.945   6.593   6.307
 4101POPC   C2B53540  39.006   6.619   6.763
 4101POPC   C3B53541  38.876   6.405   7.152
 4101POPC   C4B53542  38.731   6.402   7.608
 4102POPC   NC353543  44.409  26.428   5.563
 4102POPC   PO453544  44.535  25.814   5.386
 4102POPC   GL153545  44.628  25.925   5.785
 4102POPC   GL253546  44.775  25.610   5.852
 4102POPC   C1A53547  44.470  26.132   6.162
 4102POPC   D2A53548  44.546  26.152   6.601
 4102POPC   C3A53549  44.491  26.362   6.995
 4102POPC   C4A53550  44.672  26.218   7.407
 4102POPC   C1B53551  44.706  25.567   6.276
 4102POPC   C2B53552  44.567  25.643   6.672
 4102POPC   C3B53553  44.656  25.835   7.039
 4102POPC   C4B53554  44.870  25.713   7.393
 4103POPC   NC353555  34.529   7.807   5.322
 4103POPC   PO453556  34.713   7.105   5.403
 4103POPC   GL153557  34.661   7.475   5.700
 4103POPC   GL253558  34.324   7.576   5.730
 4103POPC   C1A53559  34.607   7.664   6.136
 4103POPC   D2A53560  34.606   7.500   6.545
 4103POPC   C3A53561  34.670   7.701   6.930
 4103POPC   C4A53562  34.532   7.569   7.321
 4103POPC   C1B53563  34.294   7.255   6.066
 4103POPC   C2B53564  34.127   7.306   6.505
 4103POPC   C3B53565  34.264   7.371   6.931
 4103POPC   C4B53566  34.222   7.129   7.321
 4104POPC   NC353567  39.516  28.733   5.367
 4104POPC   PO453568  39.011  28.250   5.478
 4104POPC   GL153569  39.282  28.454   5.773
 4104POPC   GL253570  39.644  28.302   5.712
 4104POPC   C1A53571  39.051  28.517   6.172
 4104POPC   D2A53572  38.961  28.173   6.475
 4104POPC   C3A53573  39.176  28.182   6.846
 4104POPC   C4A53574  39.185  28.383   7.224
 4104POPC   C1B53575  39.718  28.579   6.044
 4104POPC   C2B53576  39.492  28.651   6.408
 4104POPC   C3B53577  39.408  28.635   6.843
 4104POPC   C4B53578  39.672  28.501   7.196
 4105POPC   NC353579  31.517  12.294   5.386
 4105POPC   PO453580  31.554  11.586   5.386
 4105POPC   GL153581  31.387  11.784   5.798
 4105POPC   GL253582  31.348  12.128   5.864
 4105POPC   C1A53583  31.187  11.731   6.268
 4105POPC   D2A53584  31.267  11.730   6.729
 4105POPC   C3A53585  31.313  11.874   7.164
 4105POPC   C4A53586  31.485  12.120   7.515
 4105POPC   C1B53587  31.553  12.060   6.299
 4105POPC   C2B53588  31.691  12.257   6.651
 4105POPC   C3B53589  31.598  12.331   7.069
 4105POPC   C4B53590  31.573  12.707   7.315
 4106POPC   NC353591   9.081   8.300   5.328
 4106POPC   PO453592   8.469   8.390   5.261
 4106POPC   GL153593   8.731   8.382   5.691
 4106POPC   GL253594   8.933   8.059   5.760
 4106POPC   C1A53595   8.887   8.405   6.135
 4106POPC   D2A53596   8.953   8.119   6.517
 4106POPC   C3A53597   8.949   8.296   6.938
 4106POPC   C4A53598   8.958   8.616   7.263
 4106POPC   C1B53599   8.624   7.976   6.121
 4106POPC   C2B53600   8.523   7.861   6.582
 4106POPC   C3B53601   8.501   8.066   7.005
 4106POPC   C4B53602   8.747   8.111   7.398
 4107POPC   NC353603  41.310   1.140   5.211
 4107POPC   PO453604  41.701   1.423   5.644
 4107POPC   GL153605  41.673   1.046   5.841
 4107POPC   GL253606  42.010   0.923   5.864
 4107POPC   C1A53607  41.395   1.024   6.221
 4107POPC   D2A53608  41.192   1.012   6.630
 4107POPC   C3A53609  41.291   1.291   7.001
 4107POPC   C4A53610  41.542   1.331   7.403
 4107POPC   C1B53611  41.898   1.083   6.297
 4107POPC   C2B53612  41.684   1.295   6.620
 4107POPC   C3B53613  41.795   1.138   7.000
 4107POPC   C4B53614  41.631   0.770   7.116
 4108POPC   NC353615  33.439  44.137   5.574
 4108POPC   PO453616  33.025  44.526   5.219
 4108POPC   GL153617  33.035  44.602   5.686
 4108POPC   GL253618  33.232  44.419   5.945
 4108POPC   C1A53619  32.972  44.818   6.096
 4108POPC   D2A53620  33.012  44.614   6.483
 4108POPC   C3A53621  33.220  44.758   6.845
 4108POPC   C4A53622  33.094  44.784   7.289
 4108POPC   C1B53623  33.476  44.307   6.310
 4108POPC   C2B53624  33.363  44.273   6.740
 4108POPC   C3B53625  33.135  44.319   7.119
 4108POPC   C4B53626  33.315  44.369   7.563
 4109POPC   NC353627  42.166  36.850   5.495
 4109POPC   PO453628  42.702  37.224   5.419
 4109POPC   GL153629  42.506  37.119   5.803
 4109POPC   GL253630  42.151  37.272   5.853
 4109POPC   C1A53631  42.436  36.972   6.221
 4109POPC   D2A53632  42.411  37.197   6.650
 4109POPC   C3A53633  42.633  37.024   7.045
 4109POPC   C4A53634  42.653  36.599   7.196
 4109POPC   C1B53635  41.988  37.177   6.300
 4109POPC   C2B53636  42.095  36.750   6.540
 4109POPC   C3B53637  42.212  36.708   6.927
 4109POPC   C4B53638  42.126  37.143   7.072
 4110POPC   NC353639  30.539  41.223   5.518
 4110POPC   PO453640  30.767  40.528   5.401
 4110POPC   GL153641  30.772  40.678   5.861
 4110POPC   GL253642  30.935  41.026   5.839
 4110POPC   C1A53643  30.557  40.608   6.324
 4110POPC   D2A53644  30.552  40.677   6.784
 4110POPC   C3A53645  30.866  40.803   7.108
 4110POPC   C4A53646  30.792  40.644   7.542
 4110POPC   C1B53647  30.679  41.086   6.202
 4110POPC   C2B53648  30.656  41.162   6.652
 4110POPC   C3B53649  30.587  41.229   7.096
 4110POPC   C4B53650  30.607  41.102   7.584
 4111POPC   NC353651   0.902  42.227   5.436
 4111POPC   PO453652   0.493  42.723   5.316
 4111POPC   GL153653   0.537  42.477   5.736
 4111POPC   GL253654   0.224  42.392   5.911
 4111POPC   C1A53655   0.729  42.316   6.147
 4111POPC   D2A53656   0.847  42.417   6.571
 4111POPC   C3A53657   0.509  42.418   6.876
 4111POPC   C4A53658   0.584  42.329   7.278
 4111POPC   C1B53659   0.263  42.425   6.379
 4111POPC   C2B53660   0.073  42.204   6.735
 4111POPC   C3B53661   0.080  42.190   7.202
 4111POPC   C4B53662  44.970  42.020   7.642
 4112POPC   NC353663  39.591  37.516   5.295
 4112POPC   PO453664  39.142  37.903   5.504
 4112POPC   GL153665  39.330  37.650   5.825
 4112POPC   GL253666  39.592  37.434   5.808
 4112POPC   C1A53667  39.183  37.555   6.235
 4112POPC   D2A53668  38.823  37.620   6.501
 4112POPC   C3A53669  39.008  37.560   6.900
 4112POPC   C4A53670  39.231  37.567   7.259
 4112POPC   C1B53671  39.655  37.329   6.256
 4112POPC   C2B53672  39.506  37.401   6.705
 4112POPC   C3B53673  39.697  37.432   7.148
 4112POPC   C4B53674  39.603  37.556   7.636
 4113POPC   NC353675  40.375  22.770   5.331
 4113POPC   PO453676  40.790  23.298   5.418
 4113POPC   GL153677  40.763  23.092   5.811
 4113POPC   GL253678  40.873  22.770   5.771
 4113POPC   C1A53679  40.553  22.900   6.177
 4113POPC   D2A53680  40.601  22.811   6.601
 4113POPC   C3A53681  40.830  23.148   6.782
 4113POPC   C4A53682  40.876  23.183   7.231
 4113POPC   C1B53683  41.079  22.794   6.200
 4113POPC   C2B53684  41.115  22.708   6.675
 4113POPC   C3B53685  40.859  22.701   7.057
 4113POPC   C4B53686  40.969  22.689   7.534
 4114POPC   NC353687  24.879  36.035   5.505
 4114POPC   PO453688  24.322  36.304   5.191
 4114POPC   GL153689  24.362  36.200   5.690
 4114POPC   GL253690  24.667  36.202   5.930
 4114POPC   C1A53691  24.242  36.132   6.184
 4114POPC   D2A53692  24.055  36.059   6.628
 4114POPC   C3A53693  24.299  36.218   6.956
 4114POPC   C4A53694  24.751  36.330   7.012
 4114POPC   C1B53695  24.699  35.847   6.174
 4114POPC   C2B53696  24.566  35.974   6.573
 4114POPC   C3B53697  24.669  35.841   6.965
 4114POPC   C4B53698  24.656  35.583   7.314
 4115POPC   NC353699  31.829   6.266   5.327
 4115POPC   PO453700  31.327   6.656   5.162
 4115POPC   GL153701  31.386   6.732   5.657
 4115POPC   GL253702  31.676   6.913   5.860
 4115POPC   C1A53703  31.283   6.774   6.136
 4115POPC   D2A53704  31.484   6.663   6.543
 4115POPC   C3A53705  31.611   6.915   6.911
 4115POPC   C4A53706  31.560   6.796   7.338
 4115POPC   C1B53707  31.694   6.472   6.084
 4115POPC   C2B53708  31.797   6.268   6.512
 4115POPC   C3B53709  31.693   6.390   6.960
 4115POPC   C4B53710  31.941   6.478   7.351
 4116POPC   NC353711  28.483  22.144   5.365
 4116POPC   PO453712  27.884  21.900   5.191
 4116POPC   GL153713  28.035  22.063   5.597
 4116POPC   GL253714  28.200  22.423   5.669
 4116POPC   C1A53715  28.096  22.050   6.035
 4116POPC   D2A53716  28.343  21.870   6.381
 4116POPC   C3A53717  28.221  21.993   6.770
 4116POPC   C4A53718  28.317  22.080   7.164
 4116POPC   C1B53719  28.385  22.491   6.051
 4116POPC   C2B53720  28.241  22.368   6.416
 4116POPC   C3B53721  28.008  22.478   6.754
 4116POPC   C4B53722  28.182  22.597   7.125
 4117POPC   NC353723   6.350  38.687   5.337
 4117POPC   PO453724   6.788  38.197   5.419
 4117POPC   GL153725   6.689  38.520   5.768
 4117POPC   GL253726   6.463  38.843   5.797
 4117POPC   C1A53727   6.499  38.532   6.195
 4117POPC   D2A53728   6.535  38.317   6.575
 4117POPC   C3A53729   6.370  38.472   6.942
 4117POPC   C4A53730   6.541  38.267   7.318
 4117POPC   C1B53731   6.292  39.038   6.185
 4117POPC   C2B53732   6.191  38.855   6.579
 4117POPC   C3B53733   6.394  38.994   6.953
 4117POPC   C4B53734   6.650  38.778   7.262
 4118POPC   NC353735  40.289   4.516   5.569
 4118POPC   PO453736  40.775   4.080   5.350
 4118POPC   GL153737  40.894   4.389   5.651
 4118POPC   GL253738  40.619   4.247   5.852
 4118POPC   C1A53739  41.005   4.463   6.095
 4118POPC   D2A53740  40.707   4.322   6.405
 4118POPC   C3A53741  40.734   4.324   6.871
 4118POPC   C4A53742  40.995   4.382   7.263
 4118POPC   C1B53743  40.338   4.063   6.155
 4118POPC   C2B53744  40.255   4.196   6.589
 4118POPC   C3B53745  40.289   4.052   7.009
 4118POPC   C4B53746  40.531   4.190   7.323
 4119POPC   NC353747  26.522   4.919   5.124
 4119POPC   PO453748  27.100   5.076   5.438
 4119POPC   GL153749  26.901   5.231   5.818
 4119POPC   GL253750  26.605   5.174   5.741
 4119POPC   C1A53751  27.008   5.192   6.214
 4119POPC   D2A53752  27.095   4.982   6.603
 4119POPC   C3A53753  27.021   5.254   6.955
 4119POPC   C4A53754  26.814   5.381   7.360
 4119POPC   C1B53755  26.506   5.041   6.162
 4119POPC   C2B53756  26.593   4.877   6.528
 4119POPC   C3B53757  26.542   5.051   6.906
 4119POPC   C4B53758  26.613   4.924   7.297
 4120POPC   NC353759   3.082  37.958   5.409
 4120POPC   PO453760   2.463  37.549   5.401
 4120POPC   GL153761   2.680  37.719   5.795
 4120POPC   GL253762   3.050  37.645   5.835
 4120POPC   C1A53763   2.554  37.778   6.252
 4120POPC   D2A53764   2.604  38.035   6.633
 4120POPC   C3A53765   2.702  37.830   7.046
 4120POPC   C4A53766   2.506  37.613   7.403
 4120POPC   C1B53767   3.063  37.772   6.250
 4120POPC   C2B53768   2.887  37.589   6.627
 4120POPC   C3B53769   3.088  37.491   7.034
 4120POPC   C4B53770   2.998  37.631   7.471
 4121POPC   NC353771  23.891  27.767   5.611
 4121POPC   PO453772  23.441  27.614   5.162
 4121POPC   GL153773  23.543  27.347   5.560
 4121POPC   GL253774  23.909  27.252   5.656
 4121POPC   C1A53775  23.515  27.419   6.038
 4121POPC   D2A53776  23.712  27.725   6.352
 4121POPC   C3A53777  23.663  27.669   6.802
 4121POPC   C4A53778  23.622  27.713   7.240
 4121POPC   C1B53779  24.035  27.360   6.106
 4121POPC   C2B53780  23.983  27.342   6.573
 4121POPC   C3B53781  24.039  27.428   7.055
 4121POPC   C4B53782  23.841  27.280   7.448
 4122POPC   NC353783  25.716  15.929   5.338
 4122POPC   PO453784  26.377  15.664   5.307
 4122POPC   GL153785  26.127  15.752   5.738
 4122POPC   GL253786  25.921  16.083   5.795
 4122POPC   C1A53787  26.177  15.812   6.229
 4122POPC   D2A53788  26.252  16.114   6.606
 4122POPC   C3A53789  26.180  15.966   7.050
 4122POPC   C4A53790  26.108  16.056   7.525
 4122POPC   C1B53791  25.834  16.189   6.245
 4122POPC   C2B53792  25.764  15.907   6.617
 4122POPC   C3B53793  25.673  15.992   7.041
 4122POPC   C4B53794  25.644  16.210   7.383
 4123POPC   NC353795  33.733  34.797   5.460
 4123POPC   PO453796  33.938  34.203   5.469
 4123POPC   GL153797  33.942  34.487   5.829
 4123POPC   GL253798  33.600  34.544   5.941
 4123POPC   C1A53799  34.053  34.639   6.258
 4123POPC   D2A53800  34.090  34.412   6.641
 4123POPC   C3A53801  34.056  34.576   7.057
 4123POPC   C4A53802  33.767  34.325   7.254
 4123POPC   C1B53803  33.567  34.768   6.350
 4123POPC   C2B53804  33.588  34.699   6.808
 4123POPC   C3B53805  33.398  34.727   7.240
 4123POPC   C4B53806  33.408  34.846   7.687
 4124POPC   NC353807   3.692   6.909   5.141
 4124POPC   PO453808   3.802   7.592   5.349
 4124POPC   GL153809   3.669   7.335   5.702
 4124POPC   GL253810   3.318   7.398   5.786
 4124POPC   C1A53811   3.672   7.509   6.138
 4124POPC   D2A53812   3.446   7.655   6.502
 4124POPC   C3A53813   3.581   7.445   6.877
 4124POPC   C4A53814   3.578   7.442   7.304
 4124POPC   C1B53815   3.299   7.180   6.232
 4124POPC   C2B53816   3.158   7.240   6.682
 4124POPC   C3B53817   3.236   7.121   7.121
 4124POPC   C4B53818   3.458   6.751   7.246
 4125POPC   NC353819  44.097  28.112   5.560
 4125POPC   PO453820  43.452  28.385   5.457
 4125POPC   GL153821  43.711  28.365   5.799
 4125POPC   GL253822  43.711  28.008   5.911
 4125POPC   C1A53823  43.769  28.621   6.147
 4125POPC   D2A53824  43.612  28.535   6.560
 4125POPC   C3A53825  43.899  28.490   6.897
 4125POPC   C4A53826  43.871  28.433   7.328
 4125POPC   C1B53827  43.806  28.114   6.347
 4125POPC   C2B53828  43.754  28.010   6.799
 4125POPC   C3B53829  43.806  27.948   7.239
 4125POPC   C4B53830  44.096  28.069   7.598
 4126POPC   NC353831  23.537  20.451   5.473
 4126POPC   PO453832  22.954  20.755   5.177
 4126POPC   GL153833  23.073  20.639   5.629
 4126POPC   GL253834  23.375  20.802   5.790
 4126POPC   C1A53835  22.927  20.643   6.094
 4126POPC   D2A53836  22.719  20.606   6.543
 4126POPC   C3A53837  22.702  20.841   6.935
 4126POPC   C4A53838  22.916  20.611   7.257
 4126POPC   C1B53839  23.323  20.956   6.216
 4126POPC   C2B53840  23.203  20.864   6.683
 4126POPC   C3B53841  23.171  21.016   7.133
 4126POPC   C4B53842  23.271  21.032   7.598
 4127POPC   NC353843  34.212  32.368   5.352
 4127POPC   PO453844  33.687  31.999   5.437
 4127POPC   GL153845  33.952  32.152   5.767
 4127POPC   GL253846  34.089  32.491   5.847
 4127POPC   C1A53847  33.774  32.126   6.181
 4127POPC   D2A53848  33.746  32.491   6.445
 4127POPC   C3A53849  33.680  32.365   6.860
 4127POPC   C4A53850  33.657  32.521   7.273
 4127POPC   C1B53851  34.242  32.306   6.235
 4127POPC   C2B53852  34.156  32.260   6.656
 4127POPC   C3B53853  34.133  32.348   7.089
 4127POPC   C4B53854  34.121  32.403   7.528
 4128POPC   NC353855   9.665  28.764   5.453
 4128POPC   PO453856   9.934  29.380   5.312
 4128POPC   GL153857   9.845  29.243   5.715
 4128POPC   GL253858   9.498  29.359   5.786
 4128POPC   C1A53859   9.809  28.976   6.080
 4128POPC   D2A53860   9.626  29.020   6.497
 4128POPC   C3A53861   9.935  28.930   6.835
 4128POPC   C4A53862  10.024  28.786   7.258
 4128POPC   C1B53863   9.675  29.454   6.186
 4128POPC   C2B53864   9.840  29.462   6.592
 4128POPC   C3B53865   9.692  29.368   6.988
 4128POPC   C4B53866   9.706  29.521   7.400
 4129POPC   NC353867   6.950   4.912   5.507
 4129POPC   PO453868   6.599   5.396   5.341
 4129POPC   GL153869   6.571   5.146   5.747
 4129POPC   GL253870   6.905   5.172   5.946
 4129POPC   C1A53871   6.466   5.106   6.204
 4129POPC   D2A53872   6.787   5.077   6.560
 4129POPC   C3A53873   6.608   5.122   6.979
 4129POPC   C4A53874   6.529   5.141   7.437
 4129POPC   C1B53875   7.135   4.869   6.216
 4129POPC   C2B53876   7.270   4.776   6.621
 4129POPC   C3B53877   6.966   4.744   6.942
 4129POPC   C4B53878   6.963   4.938   7.333
 4130POPC   NC353879   4.425   3.910   5.403
 4130POPC   PO453880   4.782   4.429   5.351
 4130POPC   GL153881   4.445   4.453   5.704
 4130POPC   GL253882   4.258   4.153   5.810
 4130POPC   C1A53883   4.492   4.435   6.188
 4130POPC   D2A53884   4.474   4.284   6.652
 4130POPC   C3A53885   4.474   4.501   7.074
 4130POPC   C4A53886   4.135   4.414   7.381
 4130POPC   C1B53887   3.996   4.299   6.147
 4130POPC   C2B53888   4.067   4.567   6.493
 4130POPC   C3B53889   3.999   4.455   6.887
 4130POPC   C4B53890   3.719   4.159   7.058
 4131POPC   NC353891  10.243  40.314   5.418
 4131POPC   PO453892  10.599  40.970   5.468
 4131POPC   GL153893  10.515  41.004   5.868
 4131POPC   GL253894  10.211  40.839   5.809
 4131POPC   C1A53895  10.359  40.995   6.307
 4131POPC   D2A53896  10.521  41.153   6.721
 4131POPC   C3A53897  10.331  41.050   7.132
 4131POPC   C4A53898  10.610  40.811   7.456
 4131POPC   C1B53899  10.419  40.512   6.055
 4131POPC   C2B53900  10.345  40.501   6.486
 4131POPC   C3B53901  10.523  40.603   6.889
 4131POPC   C4B53902  10.219  40.565   7.200
 4132POPC   NC353903   3.435  12.572   5.086
 4132POPC   PO453904   3.533  13.156   5.327
 4132POPC   GL153905   3.346  12.830   5.575
 4132POPC   GL253906   3.694  12.741   5.707
 4132POPC   C1A53907   3.303  12.726   6.027
 4132POPC   D2A53908   3.457  12.670   6.445
 4132POPC   C3A53909   3.320  13.005   6.719
 4132POPC   C4A53910   3.217  12.892   7.129
 4132POPC   C1B53911   3.774  12.957   6.124
 4132POPC   C2B53912   3.848  12.994   6.588
 4132POPC   C3B53913   3.735  12.835   7.001
 4132POPC   C4B53914   3.899  13.037   7.320
 4133POPC   NC353915  41.363  30.479   5.382
 4133POPC   PO453916  41.447  31.142   5.507
 4133POPC   GL153917  41.411  30.823   5.810
 4133POPC   GL253918  41.700  30.559   5.807
 4133POPC   C1A53919  41.474  30.712   6.248
 4133POPC   D2A53920  41.746  30.785   6.575
 4133POPC   C3A53921  41.577  30.700   6.961
 4133POPC   C4A53922  41.391  31.018   7.175
 4133POPC   C1B53923  41.893  30.401   6.236
 4133POPC   C2B53924  41.856  30.299   6.711
 4133POPC   C3B53925  41.916  30.386   7.188
 4133POPC   C4B53926  41.769  30.392   7.671
 4134POPC   NC353927  37.251   1.431   5.496
 4134POPC   PO453928  37.961   1.449   5.421
 4134POPC   GL153929  37.804   1.253   5.803
 4134POPC   GL253930  37.498   1.089   5.834
 4134POPC   C1A53931  37.821   1.168   6.256
 4134POPC   D2A53932  37.932   1.467   6.582
 4134POPC   C3A53933  37.699   1.454   6.968
 4134POPC   C4A53934  37.729   1.029   7.142
 4134POPC   C1B53935  37.312   1.275   6.221
 4134POPC   C2B53936  37.424   1.155   6.651
 4134POPC   C3B53937  37.278   0.862   6.975
 4134POPC   C4B53938  37.269   1.002   7.410
 4135POPC   NC353939  35.419  24.004   5.342
 4135POPC   PO453940  35.564  23.281   5.407
 4135POPC   GL153941  35.274  23.506   5.718
 4135POPC   GL253942  35.281  23.864   5.808
 4135POPC   C1A53943  35.190  23.546   6.180
 4135POPC   D2A53944  35.186  23.856   6.504
 4135POPC   C3A53945  35.331  23.709   6.924
 4135POPC   C4A53946  35.327  23.356   7.248
 4135POPC   C1B53947  35.550  24.067   6.145
 4135POPC   C2B53948  35.703  24.056   6.587
 4135POPC   C3B53949  35.697  24.119   7.065
 4135POPC   C4B53950  35.377  23.997   7.392
 4136POPC   NC353951  17.050  44.879   5.254
 4136POPC   PO453952  16.666  44.298   5.158
 4136POPC   GL153953  16.666  44.526   5.563
 4136POPC   GL253954  16.954  44.679   5.717
 4136POPC   C1A53955  16.587  44.445   6.028
 4136POPC   D2A53956  16.644  44.708   6.399
 4136POPC   C3A53957  16.600  44.679   6.841
 4136POPC   C4A53958  16.517   0.036   7.104
 4136POPC   C1B53959  17.094  44.605   6.146
 4136POPC   C2B53960  16.992  44.310   6.470
 4136POPC   C3B53961  16.997  44.291   6.896
 4136POPC   C4B53962  16.952  44.601   7.224
 4137POPC   NC353963  15.798  32.557   5.065
 4137POPC   PO453964  15.845  32.063   5.579
 4137POPC   GL153965  15.751  32.196   5.942
 4137POPC   GL253966  16.071  32.369   5.961
 4137POPC   C1A53967  15.663  32.553   6.232
 4137POPC   D2A53968  15.738  32.637   6.656
 4137POPC   C3A53969  15.636  32.261   6.885
 4137POPC   C4A53970  15.838  32.023   7.240
 4137POPC   C1B53971  16.023  32.022   6.301
 4137POPC   C2B53972  16.006  31.945   6.703
 4137POPC   C3B53973  16.231  32.163   6.973
 4137POPC   C4B53974  16.401  31.962   7.336
 4138POPC   NC353975  43.976   8.938   5.254
 4138POPC   PO453976  43.829   8.384   5.457
 4138POPC   GL153977  43.763   8.732   5.768
 4138POPC   GL253978  43.801   9.099   5.728
 4138POPC   C1A53979  43.753   8.740   6.232
 4138POPC   D2A53980  44.125   8.876   6.487
 4138POPC   C3A53981  44.142   8.818   6.901
 4138POPC   C4A53982  44.046   8.831   7.313
 4138POPC   C1B53983  43.921   9.223   6.158
 4138POPC   C2B53984  43.717   9.150   6.598
 4138POPC   C3B53985  43.660   9.076   7.048
 4138POPC   C4B53986  43.672   9.378   7.395
 4139POPC   NC353987  34.050  20.131   5.394
 4139POPC   PO453988  33.742  19.517   5.489
 4139POPC   GL153989  33.786  19.898   5.759
 4139POPC   GL253990  34.155  20.024   5.862
 4139POPC   C1A53991  33.749  20.071   6.150
 4139POPC   D2A53992  33.817  19.845   6.516
 4139POPC   C3A53993  33.875  20.084   6.863
 4139POPC   C4A53994  33.709  19.928   7.224
 4139POPC   C1B53995  34.113  19.655   6.115
 4139POPC   C2B53996  34.195  19.496   6.525
 4139POPC   C3B53997  34.067  19.601   6.949
 4139POPC   C4B53998  34.223  19.927   7.209
 4140POPC   NC353999   7.187  34.707   5.490
 4140POPC   PO454000   6.552  34.789   5.202
 4140POPC   GL154001   6.678  34.716   5.639
 4140POPC   GL254002   6.822  35.046   5.702
 4140POPC   C1A54003   6.628  34.474   6.051
 4140POPC   D2A54004   6.482  34.472   6.502
 4140POPC   C3A54005   6.659  34.311   6.871
 4140POPC   C4A54006   6.833  34.459   7.259
 4140POPC   C1B54007   6.965  34.869   6.089
 4140POPC   C2B54008   6.988  34.604   6.451
 4140POPC   C3B54009   6.928  34.757   6.853
 4140POPC   C4B54010   6.841  35.029   7.175
 4141POPC   NC354011   1.085  32.330   5.283
 4141POPC   PO454012   1.212  31.816   5.269
 4141POPC   GL154013   1.206  32.026   5.711
 4141POPC   GL254014   1.302  32.380   5.778
 4141POPC   C1A54015   1.185  32.035   6.200
 4141POPC   D2A54016   1.384  32.168   6.607
 4141POPC   C3A54017   1.564  31.953   6.953
 4141POPC   C4A54018   1.516  32.040   7.382
 4141POPC   C1B54019   1.292  32.538   6.240
 4141POPC   C2B54020   1.416  32.663   6.686
 4141POPC   C3B54021   1.556  32.460   7.071
 4141POPC   C4B54022   1.938  32.439   7.327
 4142POPC   NC354023  13.996   5.098   5.553
 4142POPC   PO454024  14.469   4.699   5.388
 4142POPC   GL154025  14.346   4.789   5.807
 4142POPC   GL254026  13.989   4.709   5.910
 4142POPC   C1A54027  14.527   5.034   6.137
 4142POPC   D2A54028  14.654   4.931   6.542
 4142POPC   C3A54029  14.652   5.213   6.863
 4142POPC   C4A54030  14.694   5.150   7.282
 4142POPC   C1B54031  14.045   4.981   6.292
 4142POPC   C2B54032  14.181   5.080   6.714
 4142POPC   C3B54033  14.263   4.921   7.116
 4142POPC   C4B54034  14.283   4.471   7.251
 4143POPC   NC354035  36.520   7.354   5.441
 4143POPC   PO454036  37.094   7.682   5.490
 4143POPC   GL154037  37.013   7.593   5.883
 4143POPC   GL254038  36.661   7.627   5.861
 4143POPC   C1A54039  37.140   7.339   6.223
 4143POPC   D2A54040  37.430   7.221   6.522
 4143POPC   C3A54041  37.199   7.218   6.894
 4143POPC   C4A54042  37.140   7.461   7.265
 4143POPC   C1B54043  36.653   7.460   6.250
 4143POPC   C2B54044  36.810   7.481   6.681
 4143POPC   C3B54045  36.742   7.685   7.083
 4143POPC   C4B54046  36.624   7.665   7.558
 4144POPC   NC354047  26.682   2.950   5.331
 4144POPC   PO454048  26.734   2.313   5.423
 4144POPC   GL154049  27.072   2.525   5.687
 4144POPC   GL254050  26.983   2.893   5.772
 4144POPC   C1A54051  27.128   2.558   6.144
 4144POPC   D2A54052  26.853   2.646   6.518
 4144POPC   C3A54053  26.999   2.761   6.934
 4144POPC   C4A54054  27.083   2.521   7.294
 4144POPC   C1B54055  26.645   2.933   6.130
 4144POPC   C2B54056  26.424   2.952   6.576
 4144POPC   C3B54057  26.368   3.036   7.044
 4144POPC   C4B54058  26.705   2.912   7.347
 4145POPC   NC354059   9.008  44.364   5.052
 4145POPC   PO454060   8.959  43.764   5.280
 4145POPC   GL154061   9.051  43.742   5.730
 4145POPC   GL254062   9.280  43.988   5.884
 4145POPC   C1A54063   8.846  43.795   6.137
 4145POPC   D2A54064   8.581  43.884   6.540
 4145POPC   C3A54065   8.766  43.871   6.966
 4145POPC   C4A54066   9.027  43.912   7.340
 4145POPC   C1B54067   9.249  43.989   6.372
 4145POPC   C2B54068   8.988  44.203   6.659
 4145POPC   C3B54069   9.027  44.336   7.070
 4145POPC   C4B54070   9.427  44.336   7.266
 4146POPC   NC354071  38.674   1.970   5.133
 4146POPC   PO454072  38.229   2.373   5.403
 4146POPC   GL154073  38.333   2.118   5.830
 4146POPC   GL254074  38.664   1.950   5.872
 4146POPC   C1A54075  38.334   1.889   6.236
 4146POPC   D2A54076  38.334   1.771   6.646
 4146POPC   C3A54077  38.487   1.986   6.982
 4146POPC   C4A54078  38.306   1.884   7.340
 4146POPC   C1B54079  38.786   2.142   6.261
 4146POPC   C2B54080  38.882   1.998   6.633
 4146POPC   C3B54081  38.973   1.751   6.972
 4146POPC   C4B54082  38.798   1.719   7.349
 4147POPC   NC354083  40.389  15.138   5.172
 4147POPC   PO454084  39.718  14.899   5.338
 4147POPC   GL154085  39.872  14.909   5.847
 4147POPC   GL254086  40.252  15.014   5.917
 4147POPC   C1A54087  39.874  15.239   6.180
 4147POPC   D2A54088  39.765  15.436   6.575
 4147POPC   C3A54089  39.867  15.200   6.947
 4147POPC   C4A54090  40.262  15.084   7.169
 4147POPC   C1B54091  40.352  15.309   6.281
 4147POPC   C2B54092  40.284  15.399   6.724
 4147POPC   C3B54093  40.287  15.617   7.124
 4147POPC   C4B54094  40.386  15.628   7.588
 4148POPC   NC354095  36.202  42.214   5.365
 4148POPC   PO454096  35.897  42.850   5.424
 4148POPC   GL154097  36.074  42.553   5.771
 4148POPC   GL254098  35.990  42.202   5.827
 4148POPC   C1A54099  36.289  42.452   6.185
 4148POPC   D2A54100  36.490  42.468   6.593
 4148POPC   C3A54101  36.325  42.165   6.868
 4148POPC   C4A54102  36.156  42.271   7.260
 4148POPC   C1B54103  35.804  42.317   6.248
 4148POPC   C2B54104  35.936  42.492   6.650
 4148POPC   C3B54105  35.717  42.470   7.040
 4148POPC   C4B54106  35.675  42.095   7.279
 4149POPC   NC354107  26.192  16.831   5.364
 4149POPC   PO454108  25.710  16.406   5.377
 4149POPC   GL154109  25.967  16.618   5.791
 4149POPC   GL254110  26.235  16.925   5.872
 4149POPC   C1A54111  25.977  16.693   6.269
 4149POPC   D2A54112  25.722  16.572   6.649
 4149POPC   C3A54113  25.949  16.436   7.033
 4149POPC   C4A54114  25.981  16.574   7.482
 4149POPC   C1B54115  26.036  17.215   6.187
 4149POPC   C2B54116  25.855  17.117   6.599
 4149POPC   C3B54117  25.962  16.946   6.997
 4149POPC   C4B54118  26.322  16.892   7.228
 4150POPC   NC354119   7.206  34.000   5.403
 4150POPC   PO454120   7.788  33.915   5.198
 4150POPC   GL154121   7.544  33.848   5.733
 4150POPC   GL254122   7.516  33.544   5.899
 4150POPC   C1A54123   7.435  33.924   6.198
 4150POPC   D2A54124   7.459  33.699   6.583
 4150POPC   C3A54125   7.462  33.910   6.972
 4150POPC   C4A54126   7.372  34.137   7.371
 4150POPC   C1B54127   7.185  33.409   6.171
 4150POPC   C2B54128   7.168  33.268   6.592
 4150POPC   C3B54129   7.158  33.495   6.971
 4150POPC   C4B54130   7.235  33.615   7.372
 4151POPC   NC354131  36.062  24.839   5.056
 4151POPC   PO454132  35.920  24.211   5.371
 4151POPC   GL154133  36.194  24.305   5.715
 4151POPC   GL254134  35.940  24.340   5.906
 4151POPC   C1A54135  36.406  24.228   6.130
 4151POPC   D2A54136  36.136  24.327   6.463
 4151POPC   C3A54137  36.179  24.189   6.870
 4151POPC   C4A54138  36.100  24.365   7.277
 4151POPC   C1B54139  36.192  24.696   6.090
 4151POPC   C2B54140  36.273  24.822   6.499
 4151POPC   C3B54141  36.153  24.712   6.896
 4151POPC   C4B54142  36.039  24.895   7.280
 4152POPC   NC354143  17.808  38.652   5.418
 4152POPC   PO454144  17.085  38.450   5.425
 4152POPC   GL154145  17.385  38.399   5.744
 4152POPC   GL254146  17.610  38.129   5.635
 4152POPC   C1A54147  17.404  38.453   6.198
 4152POPC   D2A54148  17.271  38.633   6.613
 4152POPC   C3A54149  17.402  38.516   7.041
 4152POPC   C4A54150  17.311  38.729   7.413
 4152POPC   C1B54151  17.621  38.009   6.069
 4152POPC   C2B54152  17.685  38.158   6.515
 4152POPC   C3B54153  17.513  38.027   6.903
 4152POPC   C4B54154  17.631  37.984   7.307
 4153POPC   NC354155  44.072  32.310   4.843
 4153POPC   PO454156  43.802  32.184   5.385
 4153POPC   GL154157  43.783  31.964   5.773
 4153POPC   GL254158  43.743  32.283   5.931
 4153POPC   C1A54159  43.787  31.880   6.227
 4153POPC   D2A54160  43.953  32.149   6.547
 4153POPC   C3A54161  43.881  32.066   6.986
 4153POPC   C4A54162  44.009  32.132   7.425
 4153POPC   C1B54163  43.573  32.647   6.177
 4153POPC   C2B54164  43.602  32.761   6.615
 4153POPC   C3B54165  43.712  32.566   7.026
 4153POPC   C4B54166  44.074  32.654   7.328
 4154POPC   NC354167  43.301  31.435   5.588
 4154POPC   PO454168  42.673  31.638   5.511
 4154POPC   GL154169  42.826  31.369   5.824
 4154POPC   GL254170  42.961  31.665   5.962
 4154POPC   C1A54171  43.021  31.229   6.219
 4154POPC   D2A54172  43.048  31.409   6.618
 4154POPC   C3A54173  43.235  31.238   6.977
 4154POPC   C4A54174  42.935  31.173   7.290
 4154POPC   C1B54175  43.311  31.676   6.256
 4154POPC   C2B54176  43.384  31.764   6.708
 4154POPC   C3B54177  43.240  31.694   7.170
 4154POPC   C4B54178  43.203  31.787   7.676
 4155POPC   NC354179   0.432  26.632   5.353
 4155POPC   PO454180  44.831  26.618   5.622
 4155POPC   GL154181   0.191  26.781   5.836
 4155POPC   GL254182   0.560  26.808   5.847
 4155POPC   C1A54183   0.268  26.830   6.266
 4155POPC   D2A54184   0.455  27.067   6.586
 4155POPC   C3A54185   0.250  26.996   6.986
 4155POPC   C4A54186   0.421  26.891   7.385
 4155POPC   C1B54187   0.788  26.734   6.218
 4155POPC   C2B54188   0.655  26.601   6.630
 4155POPC   C3B54189   0.736  26.843   6.982
 4155POPC   C4B54190   0.901  26.680   7.392
 4156POPC   NC354191  43.190  21.602   5.376
 4156POPC   PO454192  42.826  21.000   5.328
 4156POPC   GL154193  43.053  21.214   5.731
 4156POPC   GL254194  42.989  21.572   5.841
 4156POPC   C1A54195  43.187  21.313   6.202
 4156POPC   D2A54196  43.079  21.271   6.621
 4156POPC   C3A54197  43.362  21.477   6.938
 4156POPC   C4A54198  43.346  21.338   7.390
 4156POPC   C1B54199  42.969  21.790   6.276
 4156POPC   C2B54200  42.900  21.720   6.744
 4156POPC   C3B54201  42.902  21.447   7.155
 4156POPC   C4B54202  42.983  21.656   7.586
 4157POPC   NC354203  13.563  36.538   5.281
 4157POPC   PO454204  13.356  37.231   5.453
 4157POPC   GL154205  13.654  37.071   5.727
 4157POPC   GL254206  13.609  36.734   5.797
 4157POPC   C1A54207  13.704  37.057   6.173
 4157POPC   D2A54208  13.572  36.874   6.549
 4157POPC   C3A54209  13.655  37.199   6.828
 4157POPC   C4A54210  13.317  37.409   7.061
 4157POPC   C1B54211  13.911  36.605   6.179
 4157POPC   C2B54212  13.859  36.449   6.601
 4157POPC   C3B54213  13.823  36.679   7.000
 4157POPC   C4B54214  13.552  36.962   7.242
 4158POPC   NC354215  37.483  39.947   5.306
 4158POPC   PO454216  38.009  39.604   5.476
 4158POPC   GL154217  37.832  39.920   5.814
 4158POPC   GL254218  37.475  39.836   5.830
 4158POPC   C1A54219  37.667  40.206   6.207
 4158POPC   D2A54220  37.557  40.471   6.575
 4158POPC   C3A54221  37.682  40.314   6.961
 4158POPC   C4A54222  37.580  40.198   7.329
 4158POPC   C1B54223  37.642  39.696   6.231
 4158POPC   C2B54224  37.590  39.908   6.623
 4158POPC   C3B54225  37.614  39.760   7.014
 4158POPC   C4B54226  37.657  39.350   7.210
 4159POPC   NC354227  34.947  18.847   5.605
 4159POPC   PO454228  34.856  18.221   5.265
 4159POPC   GL154229  34.658  18.154   5.687
 4159POPC   GL254230  34.914  18.396   5.856
 4159POPC   C1A54231  34.512  17.937   6.078
 4159POPC   D2A54232  34.411  18.140   6.479
 4159POPC   C3A54233  34.501  17.972   6.903
 4159POPC   C4A54234  34.454  18.165   7.286
 4159POPC   C1B54235  34.708  18.592   6.219
 4159POPC   C2B54236  34.453  18.649   6.586
 4159POPC   C3B54237  34.636  18.476   6.922
 4159POPC   C4B54238  34.886  18.642   7.200
 4160POPC   NC354239  27.713  20.920   5.503
 4160POPC   PO454240  27.090  20.773   5.241
 4160POPC   GL154241  27.311  20.683   5.675
 4160POPC   GL254242  27.329  20.975   5.873
 4160POPC   C1A54243  27.551  20.494   6.055
 4160POPC   D2A54244  27.484  20.239   6.461
 4160POPC   C3A54245  27.596  20.391   6.877
 4160POPC   C4A54246  27.766  20.568   7.272
 4160POPC   C1B54247  27.324  20.888   6.301
 4160POPC   C2B54248  27.321  20.769   6.698
 4160POPC   C3B54249  27.281  20.708   7.134
 4160POPC   C4B54250  27.447  20.979   7.414
 4161POPC   NC354251  29.533  38.986   5.191
 4161POPC   PO454252  28.883  39.249   5.297
 4161POPC   GL154253  28.987  39.375   5.711
 4161POPC   GL254254  29.278  39.147   5.750
 4161POPC   C1A54255  28.866  39.358   6.133
 4161POPC   D2A54256  28.933  39.145   6.539
 4161POPC   C3A54257  28.913  39.334   6.928
 4161POPC   C4A54258  29.090  39.210   7.299
 4161POPC   C1B54259  29.185  38.926   6.140
 4161POPC   C2B54260  29.350  38.815   6.556
 4161POPC   C3B54261  29.420  39.033   6.959
 4161POPC   C4B54262  29.488  38.924   7.417
 4162POPC   NC354263  32.534  12.612   5.435
 4162POPC   PO454264  31.912  12.516   5.307
 4162POPC   GL154265  32.096  12.681   5.728
 4162POPC   GL254266  32.351  12.950   5.780
 4162POPC   C1A54267  32.048  12.685   6.213
 4162POPC   D2A54268  31.781  12.773   6.595
 4162POPC   C3A54269  31.974  12.685   6.999
 4162POPC   C4A54270  32.408  12.657   7.084
 4162POPC   C1B54271  32.483  12.962   6.237
 4162POPC   C2B54272  32.309  12.935   6.669
 4162POPC   C3B54273  32.252  13.134   7.098
 4162POPC   C4B54274  32.338  13.283   7.530
 4163POPC   NC354275  38.674   4.789   5.462
 4163POPC   PO454276  38.245   5.315   5.643
 4163POPC   GL154277  38.709   5.306   5.744
 4163POPC   GL254278  38.762   4.975   5.930
 4163POPC   C1A54279  38.855   5.414   6.168
 4163POPC   D2A54280  38.703   5.137   6.507
 4163POPC   C3A54281  38.500   5.252   6.876
 4163POPC   C4A54282  38.679   5.079   7.223
 4163POPC   C1B54283  38.351   4.936   6.177
 4163POPC   C2B54284  38.142   4.896   6.588
 4163POPC   C3B54285  38.283   4.780   6.997
 4163POPC   C4B54286  38.178   5.056   7.301
 4164POPC   NC354287  28.889  28.251   5.295
 4164POPC   PO454288  29.032  28.869   5.229
 4164POPC   GL154289  28.969  28.641   5.660
 4164POPC   GL254290  29.283  28.527   5.818
 4164POPC   C1A54291  28.905  28.481   6.136
 4164POPC   D2A54292  29.144  28.420   6.576
 4164POPC   C3A54293  28.937  28.489   7.026
 4164POPC   C4A54294  28.986  28.684   7.457
 4164POPC   C1B54295  29.536  28.455   6.196
 4164POPC   C2B54296  29.654  28.286   6.609
 4164POPC   C3B54297  29.385  28.208   6.985
 4164POPC   C4B54298  29.387  28.414   7.383
 4165POPC   NC354299  31.818  36.240   5.276
 4165POPC   PO454300  32.467  36.446   5.369
 4165POPC   GL154301  32.281  36.302   5.711
 4165POPC   GL254302  31.963  36.465   5.823
 4165POPC   C1A54303  32.351  36.006   6.071
 4165POPC   D2A54304  32.245  35.825   6.480
 4165POPC   C3A54305  32.177  36.066   6.834
 4165POPC   C4A54306  32.142  35.970   7.282
 4165POPC   C1B54307  31.972  36.315   6.265
 4165POPC   C2B54308  31.801  36.437   6.675
 4165POPC   C3B54309  31.840  36.349   7.125
 4165POPC   C4B54310  32.096  36.421   7.502
 4166POPC   NC354311  35.088   7.389   5.414
 4166POPC   PO454312  35.742   7.511   5.541
 4166POPC   GL154313  35.475   7.271   5.850
 4166POPC   GL254314  35.122   7.099   5.850
 4166POPC   C1A54315  35.437   7.431   6.288
 4166POPC   D2A54316  35.513   7.745   6.622
 4166POPC   C3A54317  35.507   7.552   7.035
 4166POPC   C4A54318  35.409   7.115   7.203
 4166POPC   C1B54319  34.972   7.226   6.287
 4166POPC   C2B54320  35.092   7.388   6.736
 4166POPC   C3B54321  34.958   7.338   7.186
 4166POPC   C4B54322  34.708   7.086   7.513
 4167POPC   NC354323  22.106  35.567   5.121
 4167POPC   PO454324  21.902  36.191   5.205
 4167POPC   GL154325  21.900  36.191   5.674
 4167POPC   GL254326  22.164  36.051   5.844
 4167POPC   C1A54327  21.830  36.300   6.156
 4167POPC   D2A54328  21.713  36.185   6.613
 4167POPC   C3A54329  21.919  36.393   6.992
 4167POPC   C4A54330  22.182  36.318   7.380
 4167POPC   C1B54331  21.977  35.827   6.231
 4167POPC   C2B54332  22.147  35.607   6.580
 4167POPC   C3B54333  22.154  35.677   7.003
 4167POPC   C4B54334  21.881  35.944   7.230
 4168POPC   NC354335   1.129  28.021   5.339
 4168POPC   PO454336   0.922  28.573   5.491
 4168POPC   GL154337   1.199  28.473   5.808
 4168POPC   GL254338   1.426  28.190   5.728
 4168POPC   C1A54339   1.090  28.382   6.222
 4168POPC   D2A54340   1.219  28.235   6.611
 4168POPC   C3A54341   1.159  28.502   6.955
 4168POPC   C4A54342   1.184  28.421   7.390
 4168POPC   C1B54343   1.437  28.002   6.138
 4168POPC   C2B54344   1.685  28.040   6.506
 4168POPC   C3B54345   1.570  27.914   6.881
 4168POPC   C4B54346   1.579  28.206   7.132
 4169POPC   NC354347  20.159  19.118   5.423
 4169POPC   PO454348  19.486  18.800   5.436
 4169POPC   GL154349  19.776  18.999   5.757
 4169POPC   GL254350  20.132  18.898   5.868
 4169POPC   C1A54351  19.864  19.155   6.180
 4169POPC   D2A54352  19.694  19.093   6.566
 4169POPC   C3A54353  19.930  18.944   6.886
 4169POPC   C4A54354  19.724  19.064   7.275
 4169POPC   C1B54355  20.257  18.579   6.151
 4169POPC   C2B54356  20.272  18.648   6.563
 4169POPC   C3B54357  20.401  18.723   6.966
 4169POPC   C4B54358  20.223  18.930   7.312
 4170POPC   NC354359   3.696   0.360   5.365
 4170POPC   PO454360   3.153   0.815   5.561
 4170POPC   GL154361   3.403   0.527   5.752
 4170POPC   GL254362   3.296   0.171   5.675
 4170POPC   C1A54363   3.635   0.607   6.131
 4170POPC   D2A54364   3.459   0.709   6.543
 4170POPC   C3A54365   3.707   0.551   6.866
 4170POPC   C4A54366   3.614   0.557   7.275
 4170POPC   C1B54367   3.260   0.209   6.139
 4170POPC   C2B54368   3.131   0.304   6.574
 4170POPC   C3B54369   3.272   0.209   7.014
 4170POPC   C4B54370   3.142  44.869   7.269
 4171POPC   NC354371  36.982  18.680   5.539
 4171POPC   PO454372  36.877  19.322   5.162
 4171POPC   GL154373  36.901  19.207   5.599
 4171POPC   GL254374  36.606  18.991   5.701
 4171POPC   C1A54375  36.881  19.323   6.046
 4171POPC   D2A54376  36.823  19.169   6.456
 4171POPC   C3A54377  37.024  19.309   6.845
 4171POPC   C4A54378  37.149  19.114   7.248
 4171POPC   C1B54379  36.756  18.794   6.108
 4171POPC   C2B54380  36.657  18.679   6.522
 4171POPC   C3B54381  36.789  18.847   6.897
 4171POPC   C4B54382  36.726  18.763   7.298
 4172POPC   NC354383  14.354  16.067   5.478
 4172POPC   PO454384  14.081  15.354   5.613
 4172POPC   GL154385  14.284  15.708   5.858
 4172POPC   GL254386  14.627  15.810   5.826
 4172POPC   C1A54387  14.318  16.034   6.179
 4172POPC   D2A54388  14.302  16.250   6.564
 4172POPC   C3A54389  14.476  16.129   6.968
 4172POPC   C4A54390  14.251  16.044   7.340
 4172POPC   C1B54391  14.651  15.648   6.243
 4172POPC   C2B54392  14.725  15.857   6.626
 4172POPC   C3B54393  14.898  15.805   7.016
 4172POPC   C4B54394  14.875  15.413   7.154
 4173POPC   NC354395  36.997   5.872   5.417
 4173POPC   PO454396  36.412   5.676   5.521
 4173POPC   GL154397  36.708   5.657   5.858
 4173POPC   GL254398  37.069   5.582   5.852
 4173POPC   C1A54399  36.846   5.968   6.170
 4173POPC   D2A54400  37.028   6.090   6.564
 4173POPC   C3A54401  36.832   6.062   6.963
 4173POPC   C4A54402  36.938   6.162   7.363
 4173POPC   C1B54403  36.953   5.457   6.294
 4173POPC   C2B54404  36.832   5.575   6.738
 4173POPC   C3B54405  37.093   5.519   7.135
 4173POPC   C4B54406  37.223   5.755   7.522
 4174POPC   NC354407  35.996  35.940   5.487
 4174POPC   PO454408  36.154  36.583   5.485
 4174POPC   GL154409  36.211  36.297   5.847
 4174POPC   GL254410  36.281  35.921   5.887
 4174POPC   C1A54411  36.146  36.236   6.293
 4174POPC   D2A54412  35.953  36.069   6.650
 4174POPC   C3A54413  36.114  36.320   6.928
 4174POPC   C4A54414  36.138  36.343   7.315
 4174POPC   C1B54415  36.004  35.751   6.233
 4174POPC   C2B54416  36.088  35.555   6.637
 4174POPC   C3B54417  36.126  35.792   7.051
 4174POPC   C4B54418  36.101  35.869   7.509
 4175POPC   NC354419   6.853  40.173   5.352
 4175POPC   PO454420   6.114  39.986   5.269
 4175POPC   GL154421   6.466  39.959   5.608
 4175POPC   GL254422   6.334  39.688   5.794
 4175POPC   C1A54423   6.868  39.932   5.955
 4175POPC   D2A54424   6.850  39.845   6.440
 4175POPC   C3A54425   6.945  40.015   6.880
 4175POPC   C4A54426   6.755  39.882   7.281
 4175POPC   C1B54427   6.417  40.013   6.129
 4175POPC   C2B54428   6.437  40.183   6.536
 4175POPC   C3B54429   6.430  40.055   6.946
 4175POPC   C4B54430   6.270  40.241   7.349
 4176POPC   NC354431  23.063  43.280   5.337
 4176POPC   PO454432  22.462  43.253   5.562
 4176POPC   GL154433  22.840  43.231   5.847
 4176POPC   GL254434  22.929  42.908   6.038
 4176POPC   C1A54435  22.775  43.345   6.276
 4176POPC   D2A54436  22.730  43.133   6.653
 4176POPC   C3A54437  22.886  43.287   7.038
 4176POPC   C4A54438  23.275  43.197   7.266
 4176POPC   C1B54439  23.234  43.092   6.333
 4176POPC   C2B54440  23.235  43.009   6.773
 4176POPC   C3B54441  23.000  42.799   7.120
 4176POPC   C4B54442  23.201  42.789   7.540
 4177POPC   NC354443   1.438  17.077   5.373
 4177POPC   PO454444   0.984  16.542   5.421
 4177POPC   GL154445   1.077  16.699   5.826
 4177POPC   GL254446   1.288  16.964   5.843
 4177POPC   C1A54447   1.105  16.786   6.261
 4177POPC   D2A54448   0.976  16.919   6.603
 4177POPC   C3A54449   1.222  16.859   6.940
 4177POPC   C4A54450   1.043  16.722   7.292
 4177POPC   C1B54451   1.592  16.973   6.211
 4177POPC   C2B54452   1.837  17.045   6.590
 4177POPC   C3B54453   1.668  17.172   7.012
 4177POPC   C4B54454   1.464  16.974   7.416
 4178POPC   NC354455   9.588   7.854   5.042
 4178POPC   PO454456  10.057   7.492   5.339
 4178POPC   GL154457   9.900   7.329   5.730
 4178POPC   GL254458   9.550   7.398   5.732
 4178POPC   C1A54459  10.026   7.398   6.183
 4178POPC   D2A54460   9.889   7.551   6.604
 4178POPC   C3A54461  10.048   7.297   6.959
 4178POPC   C4A54462  10.056   7.219   7.416
 4178POPC   C1B54463   9.390   7.508   6.145
 4178POPC   C2B54464   9.316   7.742   6.524
 4178POPC   C3B54465   9.500   7.695   6.917
 4178POPC   C4B54466   9.658   7.487   7.244
 4179POPC   NC354467  22.454  19.473   5.481
 4179POPC   PO454468  21.964  19.002   5.398
 4179POPC   GL154469  21.861  18.962   5.823
 4179POPC   GL254470  22.174  18.753   5.865
 4179POPC   C1A54471  22.031  19.140   6.224
 4179POPC   D2A54472  22.332  19.067   6.567
 4179POPC   C3A54473  22.365  19.330   6.948
 4179POPC   C4A54474  22.062  19.484   7.242
 4179POPC   C1B54475  22.131  18.632   6.302
 4179POPC   C2B54476  22.023  18.659   6.736
 4179POPC   C3B54477  21.963  18.998   7.022
 4179POPC   C4B54478  22.101  19.030   7.451
 4180POPC   NC354479  18.226  20.662   5.437
 4180POPC   PO454480  18.801  20.333   5.402
 4180POPC   GL154481  18.581  20.509   5.803
 4180POPC   GL254482  18.224  20.452   5.903
 4180POPC   C1A54483  18.542  20.770   6.210
 4180POPC   D2A54484  18.636  20.908   6.656
 4180POPC   C3A54485  18.430  20.740   7.058
 4180POPC   C4A54486  18.108  20.474   7.278
 4180POPC   C1B54487  18.422  20.272   6.271
 4180POPC   C2B54488  18.577  20.384   6.693
 4180POPC   C3B54489  18.603  20.225   7.120
 4180POPC   C4B54490  18.436  20.172   7.521
 4181POPC   NC354491  44.098  23.513   5.467
 4181POPC   PO454492  43.742  24.074   5.392
 4181POPC   GL154493  44.049  23.936   5.704
 4181POPC   GL254494  43.870  23.668   5.906
 4181POPC   C1A54495  44.207  23.977   6.143
 4181POPC   D2A54496  43.911  23.901   6.481
 4181POPC   C3A54497  44.047  23.914   6.902
 4181POPC   C4A54498  44.206  23.894   7.318
 4181POPC   C1B54499  43.960  23.399   6.294
 4181POPC   C2B54500  43.829  23.432   6.756
 4181POPC   C3B54501  43.769  23.531   7.228
 4181POPC   C4B54502  43.641  23.387   7.685
 4182POPC   NC354503  40.403  37.110   5.073
 4182POPC   PO454504  40.955  36.831   5.329
 4182POPC   GL154505  40.677  36.653   5.690
 4182POPC   GL254506  40.978  36.578   5.802
 4182POPC   C1A54507  40.527  36.681   6.142
 4182POPC   D2A54508  40.650  37.034   6.459
 4182POPC   C3A54509  40.533  37.064   6.902
 4182POPC   C4A54510  40.422  36.736   7.224
 4182POPC   C1B54511  41.009  36.839   6.106
 4182POPC   C2B54512  41.080  36.718   6.497
 4182POPC   C3B54513  40.885  36.703   6.879
 4182POPC   C4B54514  40.894  36.919   7.262
 4183POPC   NC354515   1.673   5.801   5.524
 4183POPC   PO454516   2.132   6.287   5.468
 4183POPC   GL154517   2.109   5.929   5.799
 4183POPC   GL254518   1.994   5.556   5.850
 4183POPC   C1A54519   2.244   5.785   6.232
 4183POPC   D2A54520   2.092   5.584   6.595
 4183POPC   C3A54521   2.226   5.792   6.968
 4183POPC   C4A54522   2.122   5.715   7.406
 4183POPC   C1B54523   1.730   5.699   6.234
 4183POPC   C2B54524   1.591   5.653   6.706
 4183POPC   C3B54525   1.725   5.876   7.102
 4183POPC   C4B54526   1.662   5.883   7.594
 4184POPC   NC354527  15.407  43.837   5.460
 4184POPC   PO454528  15.195  44.448   5.465
 4184POPC   GL154529  15.046  44.110   5.807
 4184POPC   GL254530  14.960  43.719   5.760
 4184POPC   C1A54531  15.218  43.948   6.228
 4184POPC   D2A54532  15.421  44.151   6.609
 4184POPC   C3A54533  15.510  43.980   7.049
 4184POPC   C4A54534  15.311  44.147   7.445
 4184POPC   C1B54535  14.827  43.611   6.198
 4184POPC   C2B54536  14.896  43.796   6.616
 4184POPC   C3B54537  14.753  43.642   7.008
 4184POPC   C4B54538  14.614  43.805   7.411
 4185POPC   NC354539  32.228  29.418   5.447
 4185POPC   PO454540  32.663  29.034   5.490
 4185POPC   GL154541  32.417  29.122   5.873
 4185POPC   GL254542  32.368  29.476   5.926
 4185POPC   C1A54543  32.325  28.969   6.308
 4185POPC   D2A54544  32.273  29.046   6.762
 4185POPC   C3A54545  32.488  28.951   7.150
 4185POPC   C4A54546  32.319  28.607   7.439
 4185POPC   C1B54547  32.546  29.425   6.298
 4185POPC   C2B54548  32.702  29.272   6.639
 4185POPC   C3B54549  32.498  29.466   6.944
 4185POPC   C4B54550  32.142  29.417   7.179
 4186POPC   NC354551   7.523  26.293   5.425
 4186POPC   PO454552   7.212  25.777   5.450
 4186POPC   GL154553   7.292  25.922   5.848
 4186POPC   GL254554   7.631  25.949   5.799
 4186POPC   C1A54555   7.453  25.813   6.272
 4186POPC   D2A54556   7.665  25.841   6.667
 4186POPC   C3A54557   7.363  26.067   6.929
 4186POPC   C4A54558   7.163  26.037   7.315
 4186POPC   C1B54559   7.573  26.290   6.089
 4186POPC   C2B54560   7.558  26.330   6.526
 4186POPC   C3B54561   7.755  26.395   6.961
 4186POPC   C4B54562   7.545  26.365   7.355
 4187POPC   NC354563   2.420   2.943   5.401
 4187POPC   PO454564   3.071   2.980   5.315
 4187POPC   GL154565   2.900   2.875   5.733
 4187POPC   GL254566   3.165   2.595   5.735
 4187POPC   C1A54567   2.656   2.820   6.161
 4187POPC   D2A54568   2.453   2.637   6.590
 4187POPC   C3A54569   2.512   2.788   7.055
 4187POPC   C4A54570   2.608   2.758   7.534
 4187POPC   C1B54571   2.935   2.389   6.049
 4187POPC   C2B54572   2.959   2.537   6.462
 4187POPC   C3B54573   2.986   2.578   6.902
 4187POPC   C4B54574   3.068   2.660   7.330
 4188POPC   NC354575  12.404  10.675   4.945
 4188POPC   PO454576  12.219  10.619   5.577
 4188POPC   GL154577  11.919  10.678   5.874
 4188POPC   GL254578  11.949  11.018   5.804
 4188POPC   C1A54579  12.028  10.510   6.279
 4188POPC   D2A54580  12.226  10.292   6.618
 4188POPC   C3A54581  11.996  10.482   6.934
 4188POPC   C4A54582  11.766  10.466   7.271
 4188POPC   C1B54583  12.213  10.989   6.201
 4188POPC   C2B54584  12.228  10.857   6.651
 4188POPC   C3B54585  12.154  10.944   7.087
 4188POPC   C4B54586  12.215  10.650   7.415
 4189POPC   NC354587   9.426  14.637   5.471
 4189POPC   PO454588  10.112  14.665   5.315
 4189POPC   GL154589   9.868  14.463   5.688
 4189POPC   GL254590   9.675  14.133   5.678
 4189POPC   C1A54591   9.774  14.450   6.159
 4189POPC   D2A54592   9.941  14.515   6.608
 4189POPC   C3A54593   9.955  14.457   7.077
 4189POPC   C4A54594   9.781  14.273   7.484
 4189POPC   C1B54595   9.390  14.136   6.041
 4189POPC   C2B54596   9.391  14.291   6.467
 4189POPC   C3B54597   9.486  14.351   6.891
 4189POPC   C4B54598   9.314  14.213   7.290
 4190POPC   NC354599  14.505  15.441   5.477
 4190POPC   PO454600  14.702  14.733   5.528
 4190POPC   GL154601  14.418  14.919   5.831
 4190POPC   GL254602  14.490  15.241   5.941
 4190POPC   C1A54603  14.159  14.884   6.196
 4190POPC   D2A54604  14.074  15.036   6.613
 4190POPC   C3A54605  14.418  15.109   6.892
 4190POPC   C4A54606  14.453  15.194   7.315
 4190POPC   C1B54607  14.221  15.402   6.271
 4190POPC   C2B54608  14.252  15.691   6.598
 4190POPC   C3B54609  14.362  15.625   7.020
 4190POPC   C4B54610  14.096  15.552   7.378
 4191POPC   NC354611   1.868  40.993   5.530
 4191POPC   PO454612   2.159  40.435   5.443
 4191POPC   GL154613   2.110  40.648   5.831
 4191POPC   GL254614   1.740  40.680   5.902
 4191POPC   C1A54615   2.074  40.836   6.246
 4191POPC   D2A54616   2.088  40.557   6.565
 4191POPC   C3A54617   2.052  40.716   6.951
 4191POPC   C4A54618   2.146  40.934   7.274
 4191POPC   C1B54619   1.497  40.777   6.263
 4191POPC   C2B54620   1.603  40.770   6.708
 4191POPC   C3B54621   1.596  40.721   7.170
 4191POPC   C4B54622   1.822  40.618   7.525
 4192POPC   NC354623  44.148  20.859   5.444
 4192POPC   PO454624  43.570  21.318   5.468
 4192POPC   GL154625  43.522  21.482   5.848
 4192POPC   GL254626  43.461  21.827   5.790
 4192POPC   C1A54627  43.700  21.328   6.266
 4192POPC   D2A54628  43.920  21.433   6.674
 4192POPC   C3A54629  43.805  21.242   7.080
 4192POPC   C4A54630  44.064  21.152   7.434
 4192POPC   C1B54631  43.733  21.837   6.170
 4192POPC   C2B54632  43.857  21.941   6.603
 4192POPC   C3B54633  43.808  21.794   7.044
 4192POPC   C4B54634  43.752  21.609   7.470
 4193POPC   NC354635   8.296  42.654   5.742
 4193POPC   PO454636   8.557  42.266   5.210
 4193POPC   GL154637   8.290  42.118   5.617
 4193POPC   GL254638   7.931  42.103   5.725
 4193POPC   C1A54639   8.232  42.086   6.110
 4193POPC   D2A54640   8.111  42.407   6.463
 4193POPC   C3A54641   8.196  42.281   6.889
 4193POPC   C4A54642   8.140  42.415   7.325
 4193POPC   C1B54643   7.744  42.217   6.174
 4193POPC   C2B54644   7.732  42.103   6.647
 4193POPC   C3B54645   7.832  41.970   7.096
 4193POPC   C4B54646   7.866  42.061   7.577
 4194POPC   NC354647  13.033  22.807   5.188
 4194POPC   PO454648  12.692  23.359   5.082
 4194POPC   GL154649  12.708  23.017   5.532
 4194POPC   GL254650  13.059  22.869   5.694
 4194POPC   C1A54651  12.681  22.857   6.019
 4194POPC   D2A54652  12.940  22.814   6.447
 4194POPC   C3A54653  12.781  22.689   6.892
 4194POPC   C4A54654  12.484  22.746   7.282
 4194POPC   C1B54655  13.090  23.174   6.057
 4194POPC   C2B54656  13.232  23.312   6.484
 4194POPC   C3B54657  13.179  23.089   6.892
 4194POPC   C4B54658  12.898  23.063   7.233
 4195POPC   NC354659  13.725  37.518   5.382
 4195POPC   PO454660  13.527  38.170   5.221
 4195POPC   GL154661  13.491  37.846   5.652
 4195POPC   GL254662  13.730  38.017   5.884
 4195POPC   C1A54663  13.619  37.532   6.012
 4195POPC   D2A54664  13.445  37.445   6.431
 4195POPC   C3A54665  13.612  37.727   6.779
 4195POPC   C4A54666  13.797  37.566   7.175
 4195POPC   C1B54667  13.416  37.932   6.229
 4195POPC   C2B54668  13.334  38.132   6.588
 4195POPC   C3B54669  13.235  38.060   6.978
 4195POPC   C4B54670  13.349  37.845   7.292
 4196POPC   NC354671  10.705  19.268   5.394
 4196POPC   PO454672  10.157  18.904   5.542
 4196POPC   GL154673  10.417  19.154   5.824
 4196POPC   GL254674  10.802  19.100   5.874
 4196POPC   C1A54675  10.497  19.205   6.271
 4196POPC   D2A54676  10.821  19.131   6.531
 4196POPC   C3A54677  10.655  19.271   6.920
 4196POPC   C4A54678  10.247  19.242   7.108
 4196POPC   C1B54679  10.972  18.761   6.140
 4196POPC   C2B54680  11.131  18.730   6.554
 4196POPC   C3B54681  10.989  18.614   6.944
 4196POPC   C4B54682  10.620  18.784   7.130
 4197POPC   NC354683   0.116  15.026   5.448
 4197POPC   PO454684  44.486  15.287   5.515
 4197POPC   GL154685  44.769  15.166   5.822
 4197POPC   GL254686   0.068  15.404   5.842
 4197POPC   C1A54687  44.735  15.289   6.247
 4197POPC   D2A54688  44.606  15.547   6.585
 4197POPC   C3A54689  44.689  15.304   6.969
 4197POPC   C4A54690  44.547  15.242   7.416
 4197POPC   C1B54691   0.171  15.045   6.116
 4197POPC   C2B54692  44.930  14.806   6.424
 4197POPC   C3B54693  44.845  14.780   6.867
 4197POPC   C4B54694  44.905  14.931   7.279
 4198POPC   NC354695  14.838  32.431   5.315
 4198POPC   PO454696  14.231  32.107   5.192
 4198POPC   GL154697  14.295  32.112   5.700
 4198POPC   GL254698  14.625  32.243   5.735
 4198POPC   C1A54699  14.321  32.233   6.203
 4198POPC   D2A54700  14.271  32.439   6.655
 4198POPC   C3A54701  14.299  32.278   7.136
 4198POPC   C4A54702  14.212  32.141   7.599
 4198POPC   C1B54703  14.821  32.306   6.091
 4198POPC   C2B54704  14.759  32.432   6.494
 4198POPC   C3B54705  14.721  32.245   6.867
 4198POPC   C4B54706  14.823  32.083   7.266
 4199POPC   NC354707  33.755  21.086   5.358
 4199POPC   PO454708  33.676  20.416   5.394
 4199POPC   GL154709  33.884  20.487   5.794
 4199POPC   GL254710  33.936  20.866   5.814
 4199POPC   C1A54711  33.769  20.592   6.228
 4199POPC   D2A54712  33.473  20.612   6.557
 4199POPC   C3A54713  33.714  20.576   6.932
 4199POPC   C4A54714  33.831  20.433   7.307
 4199POPC   C1B54715  33.554  21.024   6.048
 4199POPC   C2B54716  33.506  21.141   6.513
 4199POPC   C3B54717  33.643  21.068   6.939
 4199POPC   C4B54718  33.610  20.923   7.373
 4200POPC   NC354719  36.343   1.821   5.339
 4200POPC   PO454720  35.903   2.294   5.275
 4200POPC   GL154721  35.926   2.095   5.732
 4200POPC   GL254722  36.090   1.747   5.789
 4200POPC   C1A54723  36.167   2.139   6.157
 4200POPC   D2A54724  36.059   2.119   6.607
 4200POPC   C3A54725  36.103   2.314   7.018
 4200POPC   C4A54726  35.866   2.223   7.414
 4200POPC   C1B54727  35.842   1.699   6.181
 4200POPC   C2B54728  35.967   1.484   6.563
 4200POPC   C3B54729  36.229   1.678   6.853
 4200POPC   C4B54730  35.959   1.807   7.161
 4201POPC   NC354731  25.786  25.733   5.395
 4201POPC   PO454732  26.209  26.293   5.588
 4201POPC   GL154733  25.913  26.021   5.835
 4201POPC   GL254734  26.005  25.672   5.858
 4201POPC   C1A54735  25.953  25.920   6.295
 4201POPC   D2A54736  26.252  26.145   6.556
 4201POPC   C3A54737  26.017  26.405   6.850
 4201POPC   C4A54738  25.825  26.085   7.074
 4201POPC   C1B54739  26.243  25.501   6.216
 4201POPC   C2B54740  26.278  25.631   6.675
 4201POPC   C3B54741  26.278  25.605   7.147
 4201POPC   C4B54742  26.312  25.604   7.603
 4202POPC   NC354743  13.950  42.910   5.371
 4202POPC   PO454744  13.322  43.186   5.242
 4202POPC   GL154745  13.499  42.936   5.651
 4202POPC   GL254746  13.741  42.664   5.756
 4202POPC   C1A54747  13.451  42.830   6.137
 4202POPC   D2A54748  13.675  42.921   6.537
 4202POPC   C3A54749  13.529  43.111   6.912
 4202POPC   C4A54750  13.675  43.419   7.197
 4202POPC   C1B54751  14.016  42.821   6.133
 4202POPC   C2B54752  14.194  42.866   6.580
 4202POPC   C3B54753  13.986  42.831   6.995
 4202POPC   C4B54754  13.924  42.681   7.431
 4203POPC   NC354755  31.114  18.807   5.425
 4203POPC   PO454756  30.477  18.985   5.392
 4203POPC   GL154757  30.527  19.178   5.796
 4203POPC   GL254758  30.884  19.278   5.862
 4203POPC   C1A54759  30.454  19.304   6.225
 4203POPC   D2A54760  30.685  19.238   6.618
 4203POPC   C3A54761  30.449  19.030   6.946
 4203POPC   C4A54762  30.159  19.274   7.153
 4203POPC   C1B54763  30.787  18.886   6.148
 4203POPC   C2B54764  30.766  18.716   6.591
 4203POPC   C3B54765  30.946  18.903   6.974
 4203POPC   C4B54766  31.000  19.331   7.172
 4204POPC   NC354767   5.341   0.016   5.433
 4204POPC   PO454768   5.100   0.698   5.454
 4204POPC   GL154769   5.134   0.418   5.737
 4204POPC   GL254770   4.811   0.225   5.675
 4204POPC   C1A54771   5.321   0.555   6.132
 4204POPC   D2A54772   5.482   0.633   6.552
 4204POPC   C3A54773   5.217   0.828   6.849
 4204POPC   C4A54774   5.152   0.666   7.268
 4204POPC   C1B54775   4.876   0.210   6.118
 4204POPC   C2B54776   5.136   0.229   6.489
 4204POPC   C3B54777   5.060   0.336   6.903
 4204POPC   C4B54778   4.917   0.180   7.314
 4205POPC   NC354779  30.740   1.971   5.440
 4205POPC   PO454780  30.622   2.581   5.425
 4205POPC   GL154781  30.570   2.288   5.808
 4205POPC   GL254782  30.958   2.173   5.865
 4205POPC   C1A54783  30.602   1.926   6.148
 4205POPC   D2A54784  30.592   1.667   6.572
 4205POPC   C3A54785  30.620   1.872   7.011
 4205POPC   C4A54786  30.295   2.033   7.303
 4205POPC   C1B54787  31.193   2.224   6.286
 4205POPC   C2B54788  31.077   2.378   6.704
 4205POPC   C3B54789  30.976   2.279   7.132
 4205POPC   C4B54790  31.060   1.872   7.327
 4206POPC   NC354791  27.702  16.088   5.424
 4206POPC   PO454792  27.352  15.457   5.265
 4206POPC   GL154793  27.540  15.508   5.740
 4206POPC   GL254794  27.526  15.847   5.882
 4206POPC   C1A54795  27.610  15.529   6.255
 4206POPC   D2A54796  27.648  15.800   6.658
 4206POPC   C3A54797  27.533  15.712   7.046
 4206POPC   C4A54798  27.578  15.674   7.459
 4206POPC   C1B54799  27.408  16.049   6.271
 4206POPC   C2B54800  27.351  16.234   6.655
 4206POPC   C3B54801  27.223  16.114   7.039
 4206POPC   C4B54802  27.356  16.141   7.462
 4207POPC   NC354803  21.126  30.250   5.422
 4207POPC   PO454804  21.635  29.815   5.204
 4207POPC   GL154805  21.312  29.822   5.641
 4207POPC   GL254806  21.164  30.153   5.905
 4207POPC   C1A54807  21.455  29.807   6.093
 4207POPC   D2A54808  21.711  29.910   6.435
 4207POPC   C3A54809  21.506  29.772   6.796
 4207POPC   C4A54810  21.490  29.799   7.234
 4207POPC   C1B54811  21.407  30.319   6.290
 4207POPC   C2B54812  21.472  30.273   6.770
 4207POPC   C3B54813  21.275  30.258   7.205
 4207POPC   C4B54814  20.944  30.331   7.507
 4208POPC   NC354815   4.593  28.830   5.141
 4208POPC   PO454816   4.273  29.409   5.422
 4208POPC   GL154817   4.429  29.182   5.815
 4208POPC   GL254818   4.140  29.239   6.035
 4208POPC   C1A54819   4.499  29.013   6.277
 4208POPC   D2A54820   4.227  28.978   6.627
 4208POPC   C3A54821   4.342  29.043   7.052
 4208POPC   C4A54822   4.174  29.195   7.473
 4208POPC   C1B54823   4.037  29.539   6.342
 4208POPC   C2B54824   4.000  29.656   6.758
 4208POPC   C3B54825   3.944  29.408   7.081
 4208POPC   C4B54826   3.733  29.461   7.446
 4209POPC   NC354827   0.419  37.228   5.439
 4209POPC   PO454828   0.778  36.641   5.494
 4209POPC   GL154829   0.496  36.880   5.852
 4209POPC   GL254830   0.269  37.183   5.921
 4209POPC   C1A54831   0.204  36.721   6.200
 4209POPC   D2A54832   0.070  36.461   6.589
 4209POPC   C3A54833   0.172  36.565   7.027
 4209POPC   C4A54834   0.593  36.522   7.168
 4209POPC   C1B54835   0.158  37.189   6.369
 4209POPC   C2B54836   0.348  36.899   6.683
 4209POPC   C3B54837   0.536  37.012   7.055
 4209POPC   C4B54838   0.208  37.265   7.188
 4210POPC   NC354839  31.668  32.331   5.381
 4210POPC   PO454840  31.034  32.360   5.536
 4210POPC   GL154841  31.402  32.188   5.798
 4210POPC   GL254842  31.726  32.353   5.893
 4210POPC   C1A54843  31.446  32.087   6.241
 4210POPC   D2A54844  31.292  32.263   6.677
 4210POPC   C3A54845  31.128  32.170   7.112
 4210POPC   C4A54846  31.265  32.401   7.487
 4210POPC   C1B54847  31.779  32.470   6.348
 4210POPC   C2B54848  31.809  32.198   6.704
 4210POPC   C3B54849  31.647  32.194   7.118
 4210POPC   C4B54850  31.751  32.299   7.549
 4211POPC   NC354851   2.491  40.116   5.430
 4211POPC   PO454852   3.151  39.818   5.266
 4211POPC   GL154853   2.953  39.946   5.666
 4211POPC   GL254854   3.038  40.259   5.812
 4211POPC   C1A54855   2.938  39.887   6.138
 4211POPC   D2A54856   2.924  40.166   6.522
 4211POPC   C3A54857   2.880  39.898   6.910
 4211POPC   C4A54858   2.910  39.777   7.369
 4211POPC   C1B54859   2.630  40.290   6.085
 4211POPC   C2B54860   2.400  40.156   6.468
 4211POPC   C3B54861   2.384  40.303   6.903
 4211POPC   C4B54862   2.265  40.429   7.321
 4212POPC   NC354863   7.070  20.821   5.531
 4212POPC   PO454864   7.365  20.352   5.347
 4212POPC   GL154865   7.485  20.603   5.724
 4212POPC   GL254866   7.730  20.875   5.616
 4212POPC   C1A54867   7.331  20.651   6.200
 4212POPC   D2A54868   7.360  20.459   6.630
 4212POPC   C3A54869   7.323  20.602   7.080
 4212POPC   C4A54870   7.396  20.421   7.538
 4212POPC   C1B54871   7.775  20.833   6.070
 4212POPC   C2B54872   7.751  20.803   6.519
 4212POPC   C3B54873   7.842  20.867   6.950
 4212POPC   C4B54874   7.723  20.744   7.346
 4213POPC   NC354875   4.569  21.253   5.421
 4213POPC   PO454876   4.013  21.622   5.135
 4213POPC   GL154877   4.081  21.438   5.616
 4213POPC   GL254878   4.374  21.507   5.810
 4213POPC   C1A54879   3.998  21.430   6.126
 4213POPC   D2A54880   3.991  21.294   6.600
 4213POPC   C3A54881   4.297  21.400   6.959
 4213POPC   C4A54882   4.383  21.579   7.408
 4213POPC   C1B54883   4.485  21.252   6.203
 4213POPC   C2B54884   4.454  21.032   6.612
 4213POPC   C3B54885   4.532  20.962   7.063
 4213POPC   C4B54886   4.638  21.142   7.488
 4214POPC   NC354887  35.539  11.261   5.439
 4214POPC   PO454888  34.897  11.382   5.407
 4214POPC   GL154889  35.188  11.340   5.799
 4214POPC   GL254890  35.524  11.548   5.863
 4214POPC   C1A54891  35.197  11.498   6.237
 4214POPC   D2A54892  35.393  11.357   6.602
 4214POPC   C3A54893  35.395  11.588   6.947
 4214POPC   C4A54894  35.060  11.597   7.229
 4214POPC   C1B54895  35.589  11.163   6.170
 4214POPC   C2B54896  35.824  11.106   6.591
 4214POPC   C3B54897  35.595  11.115   7.006
 4214POPC   C4B54898  35.470  11.336   7.394
 4215POPC   NC354899  24.712   0.303   5.280
 4215POPC   PO454900  23.990   0.246   5.366
 4215POPC   GL154901  24.344   0.352   5.664
 4215POPC   GL254902  24.295   0.699   5.662
 4215POPC   C1A54903  24.561   0.437   6.095
 4215POPC   D2A54904  24.482   0.197   6.491
 4215POPC   C3A54905  24.513   0.419   6.885
 4215POPC   C4A54906  24.722   0.434   7.301
 4215POPC   C1B54907  24.190   0.805   6.084
 4215POPC   C2B54908  24.168   0.616   6.486
 4215POPC   C3B54909  24.015   0.643   6.890
 4215POPC   C4B54910  24.194   0.596   7.295
 4216POPC   NC354911  38.909  23.246   5.645
 4216POPC   PO454912  39.228  22.732   5.411
 4216POPC   GL154913  39.308  22.927   5.785
 4216POPC   GL254914  39.542  22.678   5.885
 4216POPC   C1A54915  39.109  22.891   6.191
 4216POPC   D2A54916  39.059  23.186   6.521
 4216POPC   C3A54917  39.033  22.980   6.924
 4216POPC   C4A54918  39.150  23.007   7.342
 4216POPC   C1B54919  39.614  22.979   6.213
 4216POPC   C2B54920  39.456  22.867   6.626
 4216POPC   C3B54921  39.572  22.855   7.048
 4216POPC   C4B54922  39.885  23.173   7.215
 4217POPC   NC354923  22.442  27.412   5.576
 4217POPC   PO454924  22.189  28.012   5.311
 4217POPC   GL154925  22.128  27.903   5.820
 4217POPC   GL254926  21.926  27.585   5.915
 4217POPC   C1A54927  22.308  27.677   6.238
 4217POPC   D2A54928  22.434  27.388   6.615
 4217POPC   C3A54929  22.363  27.563   7.050
 4217POPC   C4A54930  22.367  27.437   7.486
 4217POPC   C1B54931  21.787  27.680   6.310
 4217POPC   C2B54932  21.973  27.630   6.708
 4217POPC   C3B54933  21.906  27.361   7.070
 4217POPC   C4B54934  21.872  27.501   7.468
 4218POPC   NC354935  42.859   6.824   5.306
 4218POPC   PO454936  43.518   6.571   5.483
 4218POPC   GL154937  43.147   6.699   5.762
 4218POPC   GL254938  43.232   6.932   6.047
 4218POPC   C1A54939  42.954   6.519   6.180
 4218POPC   D2A54940  43.139   6.523   6.616
 4218POPC   C3A54941  43.093   6.839   6.959
 4218POPC   C4A54942  43.005   6.737   7.426
 4218POPC   C1B54943  43.543   6.756   6.354
 4218POPC   C2B54944  43.604   6.620   6.796
 4218POPC   C3B54945  43.375   6.489   7.189
 4218POPC   C4B54946  43.436   6.421   7.641
 4219POPC   NC354947  40.625   7.621   5.628
 4219POPC   PO454948  41.087   7.131   5.442
 4219POPC   GL154949  41.056   7.342   5.813
 4219POPC   GL254950  40.769   7.134   5.869
 4219POPC   C1A54951  41.024   7.475   6.245
 4219POPC   D2A54952  41.031   7.245   6.630
 4219POPC   C3A54953  40.973   7.583   6.931
 4219POPC   C4A54954  40.658   7.742   7.219
 4219POPC   C1B54955  40.637   7.172   6.268
 4219POPC   C2B54956  40.549   7.338   6.673
 4219POPC   C3B54957  40.456   7.241   7.072
 4219POPC   C4B54958  40.297   7.365   7.442
 4220POPC   NC354959  12.049  16.795   5.442
 4220POPC   PO454960  11.727  17.347   5.840
 4220POPC   GL154961  11.913  16.890   5.936
 4220POPC   GL254962  12.164  16.571   5.888
 4220POPC   C1A54963  12.050  16.747   6.348
 4220POPC   D2A54964  11.904  16.956   6.707
 4220POPC   C3A54965  12.159  16.922   7.055
 4220POPC   C4A54966  11.824  16.975   7.325
 4220POPC   C1B54967  12.494  16.454   6.242
 4220POPC   C2B54968  12.436  16.448   6.708
 4220POPC   C3B54969  12.406  16.457   7.187
 4220POPC   C4B54970  12.395  16.219   7.585
 4221POPC   NC354971  15.368  15.772   5.419
 4221POPC   PO454972  14.851  16.207   5.524
 4221POPC   GL154973  15.151  15.995   5.820
 4221POPC   GL254974  15.076  15.805   6.067
 4221POPC   C1A54975  15.406  16.137   6.187
 4221POPC   D2A54976  15.198  16.019   6.566
 4221POPC   C3A54977  15.426  16.078   6.926
 4221POPC   C4A54978  15.270  15.994   7.331
 4221POPC   C1B54979  14.829  16.143   6.216
 4221POPC   C2B54980  14.810  16.372   6.604
 4221POPC   C3B54981  14.969  16.315   7.021
 4221POPC   C4B54982  14.811  16.168   7.447
 4222POPC   NC354983  28.400   8.479   5.404
 4222POPC   PO454984  28.224   9.157   5.376
 4222POPC   GL154985  28.420   8.944   5.705
 4222POPC   GL254986  28.167   9.002   5.952
 4222POPC   C1A54987  28.686   8.903   6.074
 4222POPC   D2A54988  28.815   9.066   6.478
 4222POPC   C3A54989  28.754   8.830   6.846
 4222POPC   C4A54990  28.600   8.938   7.236
 4222POPC   C1B54991  28.300   9.085   6.379
 4222POPC   C2B54992  28.403   9.196   6.789
 4222POPC   C3B54993  28.168   9.168   7.115
 4222POPC   C4B54994  28.150   9.054   7.529
 4223POPC   NC354995  35.955  38.902   5.266
 4223POPC   PO454996  36.390  38.522   5.577
 4223POPC   GL154997  36.080  38.545   5.911
 4223POPC   GL254998  35.813  38.284   5.953
 4223POPC   C1A54999  35.906  38.616   6.301
 4223POPC   D2A55000  35.831  38.630   6.693
 4223POPC   C3A55001  36.183  38.741   6.874
 4223POPC   C4A55002  36.475  38.692   7.196
 4223POPC   C1B55003  36.038  38.098   6.285
 4223POPC   C2B55004  35.914  38.128   6.710
 4223POPC   C3B55005  35.887  38.342   7.117
 4223POPC   C4B55006  35.938  38.176   7.539
 4224POPC   NC355007  21.273  14.988   5.459
 4224POPC   PO455008  21.362  15.632   5.326
 4224POPC   GL155009  21.512  15.385   5.692
 4224POPC   GL255010  21.177  15.297   5.824
 4224POPC   C1A55011  21.563  15.260   6.150
 4224POPC   D2A55012  21.392  15.139   6.547
 4224POPC   C3A55013  21.511  15.396   6.894
 4224POPC   C4A55014  21.380  15.193   7.242
 4224POPC   C1B55015  21.125  14.932   6.134
 4224POPC   C2B55016  21.028  14.739   6.576
 4224POPC   C3B55017  21.030  14.889   7.046
 4224POPC   C4B55018  21.071  14.864   7.557
 4225POPC   NC355019   5.026  37.413   5.472
 4225POPC   PO455020   4.826  38.006   5.310
 4225POPC   GL155021   4.942  37.831   5.741
 4225POPC   GL255022   5.300  37.829   5.848
 4225POPC   C1A55023   4.942  37.661   6.169
 4225POPC   D2A55024   4.914  37.856   6.585
 4225POPC   C3A55025   5.124  37.626   6.901
 4225POPC   C4A55026   4.927  37.664   7.301
 4225POPC   C1B55027   5.444  37.515   6.166
 4225POPC   C2B55028   5.597  37.588   6.578
 4225POPC   C3B55029   5.657  37.454   6.996
 4225POPC   C4B55030   5.397  37.509   7.331
 4226POPC   NC355031  43.977  18.779   5.420
 4226POPC   PO455032  43.844  19.456   5.340
 4226POPC   GL155033  43.689  19.356   5.760
 4226POPC   GL255034  43.698  19.002   5.782
 4226POPC   C1A55035  43.926  19.232   6.175
 4226POPC   D2A55036  44.052  19.406   6.582
 4226POPC   C3A55037  44.082  19.200   7.019
 4226POPC   C4A55038  44.060  19.150   7.524
 4226POPC   C1B55039  43.540  18.868   6.165
 4226POPC   C2B55040  43.678  18.650   6.539
 4226POPC   C3B55041  43.802  18.714   6.959
 4226POPC   C4B55042  43.614  19.000   7.196
 4227POPC   NC355043   2.233  20.284   5.350
 4227POPC   PO455044   1.806  20.805   5.235
 4227POPC   GL155045   1.978  20.780   5.665
 4227POPC   GL255046   1.991  20.439   5.779
 4227POPC   C1A55047   2.083  20.888   6.114
 4227POPC   D2A55048   2.326  20.863   6.550
 4227POPC   C3A55049   2.040  20.810   6.928
 4227POPC   C4A55050   1.761  20.538   7.178
 4227POPC   C1B55051   2.209  20.402   6.171
 4227POPC   C2B55052   2.303  20.334   6.606
 4227POPC   C3B55053   2.436  20.514   6.977
 4227POPC   C4B55054   2.243  20.515   7.383
 4228POPC   NC355055   2.207  38.024   5.381
 4228POPC   PO455056   1.722  37.637   5.292
 4228POPC   GL155057   1.930  37.666   5.702
 4228POPC   GL255058   1.592  37.723   5.807
 4228POPC   C1A55059   2.088  37.551   6.130
 4228POPC   D2A55060   2.098  37.761   6.542
 4228POPC   C3A55061   2.210  37.605   6.961
 4228POPC   C4A55062   2.008  37.695   7.358
 4228POPC   C1B55063   1.682  37.895   6.181
 4228POPC   C2B55064   1.566  37.779   6.553
 4228POPC   C3B55065   1.686  37.771   6.959
 4228POPC   C4B55066   1.708  38.143   7.174
 4229POPC   NC355067   1.361  29.825   5.381
 4229POPC   PO455068   0.925  30.322   5.289
 4229POPC   GL155069   1.061  30.076   5.727
 4229POPC   GL255070   1.148  29.704   5.803
 4229POPC   C1A55071   1.060  29.975   6.208
 4229POPC   D2A55072   1.357  30.030   6.531
 4229POPC   C3A55073   1.288  30.136   6.978
 4229POPC   C4A55074   0.986  29.906   7.264
 4229POPC   C1B55075   1.495  29.713   6.113
 4229POPC   C2B55076   1.714  29.651   6.508
 4229POPC   C3B55077   1.532  29.689   6.914
 4229POPC   C4B55078   1.679  29.668   7.317
 4230POPC   NC355079  17.743   8.528   5.348
 4230POPC   PO455080  17.181   8.790   5.575
 4230POPC   GL155081  17.592   8.814   5.857
 4230POPC   GL255082  17.844   8.532   5.874
 4230POPC   C1A55083  17.693   8.897   6.334
 4230POPC   D2A55084  17.543   9.062   6.750
 4230POPC   C3A55085  17.756   8.963   7.150
 4230POPC   C4A55086  17.792   9.182   7.539
 4230POPC   C1B55087  17.516   8.438   6.218
 4230POPC   C2B55088  17.319   8.610   6.624
 4230POPC   C3B55089  17.280   8.770   7.085
 4230POPC   C4B55090  17.150   8.743   7.528
 4231POPC   NC355091  28.206  29.790   4.977
 4231POPC   PO455092  28.573  29.698   5.548
 4231POPC   GL155093  28.435  29.842   5.946
 4231POPC   GL255094  28.511  30.168   5.844
 4231POPC   C1A55095  28.128  29.962   6.265
 4231POPC   D2A55096  27.986  29.942   6.698
 4231POPC   C3A55097  28.324  29.926   6.999
 4231POPC   C4A55098  28.552  29.646   7.253
 4231POPC   C1B55099  28.702  30.221   6.208
 4231POPC   C2B55100  28.521  30.174   6.578
 4231POPC   C3B55101  28.619  30.341   6.959
 4231POPC   C4B55102  28.591  30.171   7.377
 4232POPC   NC355103  37.628  37.471   5.420
 4232POPC   PO455104  37.911  38.101   5.224
 4232POPC   GL155105  37.834  37.842   5.679
 4232POPC   GL255106  37.940  37.466   5.824
 4232POPC   C1A55107  37.650  37.793   6.107
 4232POPC   D2A55108  37.850  37.521   6.431
 4232POPC   C3A55109  37.691  37.528   6.860
 4232POPC   C4A55110  37.451  37.837   7.095
 4232POPC   C1B55111  37.546  37.288   6.044
 4232POPC   C2B55112  37.292  37.395   6.410
 4232POPC   C3B55113  37.225  37.177   6.801
 4232POPC   C4B55114  37.369  37.317   7.202
 4233POPC   NC355115  42.436   5.930   5.159
 4233POPC   PO455116  42.396   5.306   5.510
 4233POPC   GL155117  42.186   5.593   5.832
 4233POPC   GL255118  42.283   5.938   5.814
 4233POPC   C1A55119  41.917   5.702   6.178
 4233POPC   D2A55120  42.003   5.796   6.637
 4233POPC   C3A55121  42.311   5.548   6.898
 4233POPC   C4A55122  42.307   5.616   7.337
 4233POPC   C1B55123  42.397   5.844   6.262
 4233POPC   C2B55124  42.618   5.903   6.677
 4233POPC   C3B55125  42.470   6.040   7.055
 4233POPC   C4B55126  42.501   6.051   7.509
 4234POPC   NC355127  44.353  20.401   5.231
 4234POPC   PO455128  43.738  20.730   5.289
 4234POPC   GL155129  43.676  20.610   5.737
 4234POPC   GL255130  43.999  20.477   5.831
 4234POPC   C1A55131  43.543  20.528   6.192
 4234POPC   D2A55132  43.480  20.326   6.627
 4234POPC   C3A55133  43.593  20.571   7.012
 4234POPC   C4A55134  43.573  20.879   7.378
 4234POPC   C1B55135  44.218  20.676   6.178
 4234POPC   C2B55136  44.508  20.848   6.524
 4234POPC   C3B55137  44.430  20.770   6.955
 4234POPC   C4B55138  44.057  20.716   7.185
 4235POPC   NC355139  36.132  17.327   5.425
 4235POPC   PO455140  35.799  17.978   5.490
 4235POPC   GL155141  35.996  17.661   5.838
 4235POPC   GL255142  36.324  17.462   5.880
 4235POPC   C1A55143  36.051  17.668   6.315
 4235POPC   D2A55144  35.910  17.989   6.661
 4235POPC   C3A55145  35.889  17.790   7.080
 4235POPC   C4A55146  35.680  17.402   7.199
 4235POPC   C1B55147  36.244  17.187   6.223
 4235POPC   C2B55148  36.116  17.188   6.651
 4235POPC   C3B55149  36.182  17.330   7.095
 4235POPC   C4B55150  36.530  17.516   7.357
 4236POPC   NC355151  25.373  33.772   5.511
 4236POPC   PO455152  24.825  33.384   5.486
 4236POPC   GL155153  24.963  33.649   5.844
 4236POPC   GL255154  25.221  33.883   5.974
 4236POPC   C1A55155  24.974  33.535   6.270
 4236POPC   D2A55156  25.253  33.304   6.532
 4236POPC   C3A55157  25.185  33.467   6.953
 4236POPC   C4A55158  25.133  33.608   7.366
 4236POPC   C1B55159  25.410  33.796   6.367
 4236POPC   C2B55160  25.483  34.032   6.729
 4236POPC   C3B55161  25.236  34.013   7.090
 4236POPC   C4B55162  25.363  34.037   7.523
 4237POPC   NC355163  40.273  12.089   5.515
 4237POPC   PO455164  39.699  11.791   5.244
 4237POPC   GL155165  39.879  11.800   5.703
 4237POPC   GL255166  39.917  12.139   5.863
 4237POPC   C1A55167  39.922  11.756   6.190
 4237POPC   D2A55168  39.859  11.686   6.660
 4237POPC   C3A55169  39.838  12.034   6.980
 4237POPC   C4A55170  40.044  12.012   7.373
 4237POPC   C1B55171  40.066  12.429   6.184
 4237POPC   C2B55172  39.946  12.579   6.593
 4237POPC   C3B55173  40.171  12.655   6.960
 4237POPC   C4B55174  40.322  12.459   7.324
 4238POPC   NC355175  26.748  24.563   5.501
 4238POPC   PO455176  26.698  23.945   5.473
 4238POPC   GL155177  26.971  24.204   5.797
 4238POPC   GL255178  27.106  24.546   5.879
 4238POPC   C1A55179  26.864  24.274   6.250
 4238POPC   D2A55180  26.542  24.257   6.568
 4238POPC   C3A55181  26.694  24.289   6.980
 4238POPC   C4A55182  26.483  24.550   7.242
 4238POPC   C1B55183  27.029  24.779   6.231
 4238POPC   C2B55184  26.902  24.650   6.639
 4238POPC   C3B55185  26.809  24.860   7.009
 4238POPC   C4B55186  26.863  24.820   7.453
 4239POPC   NC355187   7.703  43.418   5.563
 4239POPC   PO455188   7.238  43.088   5.200
 4239POPC   GL155189   7.371  43.006   5.679
 4239POPC   GL255190   7.746  42.977   5.804
 4239POPC   C1A55191   7.366  43.069   6.161
 4239POPC   D2A55192   7.261  43.395   6.491
 4239POPC   C3A55193   7.490  43.400   6.882
 4239POPC   C4A55194   7.531  43.041   7.131
 4239POPC   C1B55195   7.787  42.730   6.191
 4239POPC   C2B55196   7.651  42.617   6.606
 4239POPC   C3B55197   7.881  42.698   6.991
 4239POPC   C4B55198   7.799  42.774   7.479
 4240POPC   NC355199   7.239  32.835   5.281
 4240POPC   PO455200   7.239  33.522   5.467
 4240POPC   GL155201   7.412  33.141   5.638
 4240POPC   GL255202   7.127  32.988   5.784
 4240POPC   C1A55203   7.575  33.053   6.070
 4240POPC   D2A55204   7.573  32.940   6.526
 4240POPC   C3A55205   7.623  33.281   6.837
 4240POPC   C4A55206   7.609  33.259   7.275
 4240POPC   C1B55207   7.116  32.888   6.240
 4240POPC   C2B55208   7.093  32.770   6.681
 4240POPC   C3B55209   7.289  32.896   7.068
 4240POPC   C4B55210   7.190  32.777   7.500
 4241POPC   NC355211   9.296  17.952   5.508
 4241POPC   PO455212   8.719  18.096   5.355
 4241POPC   GL155213   8.969  18.226   5.782
 4241POPC   GL255214   9.107  17.940   5.992
 4241POPC   C1A55215   9.099  18.385   6.219
 4241POPC   D2A55216   9.326  18.189   6.550
 4241POPC   C3A55217   9.087  18.305   6.899
 4241POPC   C4A55218   9.023  18.656   7.111
 4241POPC   C1B55219   8.793  17.972   6.330
 4241POPC   C2B55220   8.608  18.174   6.706
 4241POPC   C3B55221   8.511  18.011   7.091
 4241POPC   C4B55222   8.863  18.049   7.274
 4242POPC   NC355223  22.998  27.465   5.249
 4242POPC   PO455224  22.600  27.842   5.644
 4242POPC   GL155225  22.914  27.591   5.794
 4242POPC   GL255226  23.216  27.758   5.637
 4242POPC   C1A55227  22.821  27.598   6.249
 4242POPC   D2A55228  22.700  27.825   6.649
 4242POPC   C3A55229  22.855  27.554   6.974
 4242POPC   C4A55230  23.257  27.404   7.064
 4242POPC   C1B55231  23.255  27.872   6.094
 4242POPC   C2B55232  23.222  27.732   6.536
 4242POPC   C3B55233  23.227  27.903   6.942
 4242POPC   C4B55234  23.117  27.874   7.356
 4243POPC   NC355235  40.297  41.430   5.368
 4243POPC   PO455236  39.780  41.856   5.372
 4243POPC   GL155237  40.067  41.726   5.739
 4243POPC   GL255238  39.921  41.407   5.770
 4243POPC   C1A55239  40.210  41.516   6.164
 4243POPC   D2A55240  40.319  41.311   6.579
 4243POPC   C3A55241  40.293  41.586   6.937
 4243POPC   C4A55242  40.119  41.630   7.353
 4243POPC   C1B55243  39.670  41.390   6.128
 4243POPC   C2B55244  39.828  41.490   6.520
 4243POPC   C3B55245  39.790  41.548   6.956
 4243POPC   C4B55246  39.659  41.306   7.313
 4244POPC   NC355247  30.175   2.564   5.497
 4244POPC   PO455248  29.558   2.743   5.589
 4244POPC   GL155249  29.865   2.794   5.880
 4244POPC   GL255250  29.948   3.111   5.988
 4244POPC   C1A55251  29.938   2.635   6.266
 4244POPC   D2A55252  30.035   2.608   6.688
 4244POPC   C3A55253  29.710   2.756   6.983
 4244POPC   C4A55254  29.694   2.687   7.443
 4244POPC   C1B55255  30.264   3.064   6.264
 4244POPC   C2B55256  30.403   2.995   6.652
 4244POPC   C3B55257  30.251   2.933   7.037
 4244POPC   C4B55258  29.944   3.095   7.289
 4245POPC   NC355259  20.204   3.370   5.533
 4245POPC   PO455260  19.581   3.250   5.419
 4245POPC   GL155261  19.577   3.407   5.867
 4245POPC   GL255262  19.437   3.737   5.939
 4245POPC   C1A55263  19.931   3.498   6.163
 4245POPC   D2A55264  20.124   3.704   6.525
 4245POPC   C3A55265  19.871   3.687   6.895
 4245POPC   C4A55266  19.922   3.433   7.261
 4245POPC   C1B55267  19.633   3.901   6.321
 4245POPC   C2B55268  19.530   4.100   6.727
 4245POPC   C3B55269  19.406   3.879   7.108
 4245POPC   C4B55270  19.603   3.747   7.502
 4246POPC   NC355271  32.855  17.851   5.536
 4246POPC   PO455272  33.253  17.370   5.395
 4246POPC   GL155273  32.885  17.401   5.770
 4246POPC   GL255274  32.676  17.707   5.974
 4246POPC   C1A55275  32.886  17.332   6.245
 4246POPC   D2A55276  33.047  17.670   6.579
 4246POPC   C3A55277  33.013  17.596   7.047
 4246POPC   C4A55278  33.315  17.451   7.362
 4246POPC   C1B55279  32.763  18.027   6.298
 4246POPC   C2B55280  32.702  18.025   6.763
 4246POPC   C3B55281  32.575  17.831   7.177
 4246POPC   C4B55282  32.888  17.756   7.556
 4247POPC   NC355283  22.727   2.931   5.381
 4247POPC   PO455284  23.386   2.811   5.419
 4247POPC   GL155285  23.107   2.967   5.763
 4247POPC   GL255286  22.728   3.012   5.877
 4247POPC   C1A55287  23.048   2.687   6.102
 4247POPC   D2A55288  23.149   2.503   6.481
 4247POPC   C3A55289  22.897   2.735   6.761
 4247POPC   C4A55290  23.024   2.811   7.140
 4247POPC   C1B55291  22.540   2.891   6.300
 4247POPC   C2B55292  22.408   2.570   6.609
 4247POPC   C3B55293  22.461   2.578   7.043
 4247POPC   C4B55294  22.540   2.988   7.151
 4248POPC   NC355295   2.283  26.478   5.448
 4248POPC   PO455296   1.673  26.808   5.651
 4248POPC   GL155297   2.101  26.761   5.892
 4248POPC   GL255298   2.261  26.433   5.975
 4248POPC   C1A55299   2.080  26.736   6.366
 4248POPC   D2A55300   1.675  26.731   6.626
 4248POPC   C3A55301   1.687  26.958   7.018
 4248POPC   C4A55302   1.794  26.915   7.456
 4248POPC   C1B55303   2.385  26.296   6.362
 4248POPC   C2B55304   2.450  26.559   6.695
 4248POPC   C3B55305   2.194  26.850   6.905
 4248POPC   C4B55306   2.375  26.913   7.284
 4249POPC   NC355307   1.937  43.336   5.438
 4249POPC   PO455308   1.986  42.700   5.364
 4249POPC   GL155309   2.181  42.739   5.792
 4249POPC   GL255310   2.079  43.076   5.852
 4249POPC   C1A55311   2.085  42.778   6.270
 4249POPC   D2A55312   1.872  42.896   6.667
 4249POPC   C3A55313   2.135  42.937   7.039
 4249POPC   C4A55314   2.283  42.654   7.358
 4249POPC   C1B55315   1.879  43.339   6.165
 4249POPC   C2B55316   1.722  43.366   6.565
 4249POPC   C3B55317   1.946  43.385   6.919
 4249POPC   C4B55318   1.944  43.561   7.293
 4250POPC   NC355319  40.176  31.611   5.237
 4250POPC   PO455320  40.280  31.003   5.285
 4250POPC   GL155321  40.064  31.386   5.670
 4250POPC   GL255322  40.141  31.740   5.771
 4250POPC   C1A55323  39.743  31.528   6.041
 4250POPC   D2A55324  39.591  31.585   6.502
 4250POPC   C3A55325  39.775  31.314   6.856
 4250POPC   C4A55326  40.050  31.247   7.235
 4250POPC   C1B55327  40.250  31.528   6.201
 4250POPC   C2B55328  40.226  31.497   6.678
 4250POPC   C3B55329  40.158  31.706   7.058
 4250POPC   C4B55330  40.055  31.685   7.499
 4251POPC   NC355331  12.615  35.584   5.520
 4251POPC   PO455332  13.185  35.183   5.411
 4251POPC   GL155333  13.061  35.411   5.791
 4251POPC   GL255334  13.339  35.558   5.958
 4251POPC   C1A55335  12.735  35.365   6.125
 4251POPC   D2A55336  12.637  35.078   6.470
 4251POPC   C3A55337  12.427  35.298   6.794
 4251POPC   C4A55338  12.706  35.257   7.132
 4251POPC   C1B55339  13.073  35.761   6.270
 4251POPC   C2B55340  12.763  35.610   6.580
 4251POPC   C3B55341  12.675  35.747   6.999
 4251POPC   C4B55342  13.057  35.663   7.251
 4252POPC   NC355343   0.160  39.103   5.194
 4252POPC   PO455344   0.615  39.572   5.391
 4252POPC   GL155345   0.673  39.466   5.843
 4252POPC   GL255346   0.544  39.124   5.853
 4252POPC   C1A55347   0.602  39.342   6.305
 4252POPC   D2A55348   0.817  39.037   6.613
 4252POPC   C3A55349   0.788  39.157   7.059
 4252POPC   C4A55350   0.522  39.393   7.347
 4252POPC   C1B55351   0.214  38.987   6.146
 4252POPC   C2B55352   0.144  38.761   6.547
 4252POPC   C3B55353   0.281  38.922   6.962
 4252POPC   C4B55354   0.112  39.067   7.355
 4253POPC   NC355355  43.927  30.859   5.474
 4253POPC   PO455356  43.567  30.267   5.324
 4253POPC   GL155357  43.798  30.427   5.713
 4253POPC   GL255358  43.637  30.745   5.855
 4253POPC   C1A55359  44.038  30.626   6.097
 4253POPC   D2A55360  43.821  30.804   6.452
 4253POPC   C3A55361  44.097  30.750   6.842
 4253POPC   C4A55362  44.112  30.912   7.276
 4253POPC   C1B55363  43.567  30.385   6.169
 4253POPC   C2B55364  43.426  30.416   6.613
 4253POPC   C3B55365  43.596  30.714   6.907
 4253POPC   C4B55366  43.720  30.634   7.323
 4254POPC   NC355367   2.156  17.107   5.530
 4254POPC   PO455368   1.958  16.505   5.270
 4254POPC   GL155369   2.055  16.628   5.704
 4254POPC   GL255370   1.769  16.847   5.737
 4254POPC   C1A55371   2.145  16.743   6.159
 4254POPC   D2A55372   2.316  16.517   6.558
 4254POPC   C3A55373   2.229  16.651   6.997
 4254POPC   C4A55374   1.960  16.885   7.305
 4254POPC   C1B55375   1.691  16.499   6.046
 4254POPC   C2B55376   1.817  16.513   6.488
 4254POPC   C3B55377   1.702  16.659   6.912
 4254POPC   C4B55378   1.640  16.480   7.317
 4255POPC   NC355379   4.109  28.339   4.929
 4255POPC   PO455380   4.554  28.425   5.390
 4255POPC   GL155381   4.394  28.107   5.682
 4255POPC   GL255382   4.666  28.057   5.915
 4255POPC   C1A55383   4.205  28.167   6.123
 4255POPC   D2A55384   4.332  28.502   6.420
 4255POPC   C3A55385   4.289  28.517   6.886
 4255POPC   C4A55386   4.154  28.248   7.231
 4255POPC   C1B55387   4.544  27.846   6.329
 4255POPC   C2B55388   4.338  28.034   6.689
 4255POPC   C3B55389   4.606  28.143   7.046
 4255POPC   C4B55390   4.615  28.334   7.463
 4256POPC   NC355391  44.792  31.013   5.263
 4256POPC   PO455392  44.636  31.636   5.446
 4256POPC   GL155393  44.578  31.349   5.775
 4256POPC   GL255394  44.240  31.235   5.696
 4256POPC   C1A55395  44.684  31.370   6.245
 4256POPC   D2A55396  44.598  31.416   6.691
 4256POPC   C3A55397  44.882  31.509   7.057
 4256POPC   C4A55398   0.150  31.563   7.451
 4256POPC   C1B55399  44.300  31.063   6.106
 4256POPC   C2B55400  44.170  31.166   6.508
 4256POPC   C3B55401  44.150  31.275   6.914
 4256POPC   C4B55402  44.490  31.203   7.136
 4257POPC   NC355403  42.759  22.230   5.308
 4257POPC   PO455404  43.473  21.984   5.257
 4257POPC   GL155405  43.252  22.244   5.576
 4257POPC   GL255406  42.977  22.059   5.726
 4257POPC   C1A55407  43.259  22.349   6.032
 4257POPC   D2A55408  43.107  22.361   6.475
 4257POPC   C3A55409  43.326  22.055   6.817
 4257POPC   C4A55410  43.341  21.880   7.264
 4257POPC   C1B55411  42.722  22.225   6.080
 4257POPC   C2B55412  42.618  22.116   6.510
 4257POPC   C3B55413  42.836  22.214   6.871
 4257POPC   C4B55414  42.831  21.959   7.204
 4258POPC   NC355415  27.053  12.244   5.294
 4258POPC   PO455416  26.389  12.253   5.380
 4258POPC   GL155417  26.678  12.020   5.730
 4258POPC   GL255418  26.980  12.206   5.806
 4258POPC   C1A55419  26.894  11.928   6.204
 4258POPC   D2A55420  26.700  12.096   6.599
 4258POPC   C3A55421  26.776  11.898   7.018
 4258POPC   C4A55422  26.618  11.607   7.312
 4258POPC   C1B55423  26.862  12.439   6.215
 4258POPC   C2B55424  26.688  12.602   6.616
 4258POPC   C3B55425  26.644  12.414   7.009
 4258POPC   C4B55426  26.962  12.341   7.261
 4259POPC   NC355427  15.034  26.454   5.592
 4259POPC   PO455428  15.005  25.783   5.365
 4259POPC   GL155429  15.278  25.689   5.747
 4259POPC   GL255430  15.348  25.997   5.847
 4259POPC   C1A55431  15.189  25.706   6.253
 4259POPC   D2A55432  14.989  25.992   6.592
 4259POPC   C3A55433  15.107  26.078   7.048
 4259POPC   C4A55434  14.911  25.940   7.446
 4259POPC   C1B55435  15.494  26.130   6.257
 4259POPC   C2B55436  15.491  26.024   6.699
 4259POPC   C3B55437  15.601  26.218   7.088
 4259POPC   C4B55438  15.603  26.460   7.438
 4260POPC   NC355439   3.406  42.295   5.443
 4260POPC   PO455440   3.598  42.896   5.452
 4260POPC   GL155441   3.639  42.542   5.806
 4260POPC   GL255442   3.292  42.358   5.941
 4260POPC   C1A55443   3.710  42.399   6.251
 4260POPC   D2A55444   3.740  42.205   6.680
 4260POPC   C3A55445   3.850  42.379   7.118
 4260POPC   C4A55446   3.901  42.156   7.519
 4260POPC   C1B55447   3.334  42.020   6.288
 4260POPC   C2B55448   3.230  41.982   6.729
 4260POPC   C3B55449   3.445  42.047   7.071
 4260POPC   C4B55450   3.347  42.467   7.141
 4261POPC   NC355451  34.993   5.729   5.559
 4261POPC   PO455452  34.580   6.137   5.190
 4261POPC   GL155453  34.534   5.901   5.674
 4261POPC   GL255454  34.786   5.989   5.944
 4261POPC   C1A55455  34.369   5.812   6.139
 4261POPC   D2A55456  34.405   6.011   6.550
 4261POPC   C3A55457  34.489   5.801   6.941
 4261POPC   C4A55458  34.897   5.777   7.120
 4261POPC   C1B55459  34.857   6.177   6.332
 4261POPC   C2B55460  35.059   6.041   6.701
 4261POPC   C3B55461  35.164   6.283   7.071
 4261POPC   C4B55462  35.134   6.164   7.499
 4262POPC   NC355463   8.815  26.872   5.525
 4262POPC   PO455464   9.379  26.687   5.447
 4262POPC   GL155465   9.178  26.718   5.834
 4262POPC   GL255466   9.206  27.069   5.844
 4262POPC   C1A55467   8.904  26.881   6.191
 4262POPC   D2A55468   8.660  26.933   6.540
 4262POPC   C3A55469   8.848  26.848   6.904
 4262POPC   C4A55470   9.065  26.931   7.262
 4262POPC   C1B55471   9.252  27.258   6.201
 4262POPC   C2B55472   9.209  27.071   6.599
 4262POPC   C3B55473   9.455  27.146   6.940
 4262POPC   C4B55474   9.600  27.142   7.326
 4263POPC   NC355475  18.009  44.355   5.092
 4263POPC   PO455476  18.180  44.943   5.439
 4263POPC   GL155477  18.271  44.801   5.832
 4263POPC   GL255478  18.433  44.481   5.749
 4263POPC   C1A55479  18.086  44.655   6.217
 4263POPC   D2A55480  18.274  44.606   6.590
 4263POPC   C3A55481  18.276  44.863   6.933
 4263POPC   C4A55482  18.224  44.676   7.324
 4263POPC   C1B55483  18.616  44.577   6.182
 4263POPC   C2B55484  18.762  44.435   6.614
 4263POPC   C3B55485  18.664  44.526   7.058
 4263POPC   C4B55486  18.542  44.309   7.453
 4264POPC   NC355487  15.706  38.020   5.533
 4264POPC   PO455488  15.938  37.353   5.393
 4264POPC   GL155489  15.953  37.593   5.767
 4264POPC   GL255490  16.134  37.906   5.814
 4264POPC   C1A55491  15.972  37.637   6.204
 4264POPC   D2A55492  16.255  37.779   6.506
 4264POPC   C3A55493  16.049  37.672   6.875
 4264POPC   C4A55494  16.139  37.544   7.263
 4264POPC   C1B55495  15.986  38.138   6.203
 4264POPC   C2B55496  15.835  38.076   6.631
 4264POPC   C3B55497  15.979  38.126   7.083
 4264POPC   C4B55498  16.132  38.167   7.514
 4265POPC   NC355499  41.699   3.265   5.284
 4265POPC   PO455500  41.745   3.894   5.502
 4265POPC   GL155501  41.507   3.610   5.769
 4265POPC   GL255502  41.515   3.250   5.763
 4265POPC   C1A55503  41.317   3.546   6.183
 4265POPC   D2A55504  41.439   3.623   6.614
 4265POPC   C3A55505  41.353   3.690   7.045
 4265POPC   C4A55506  41.721   3.810   7.228
 4265POPC   C1B55507  41.499   3.081   6.155
 4265POPC   C2B55508  41.649   3.168   6.533
 4265POPC   C3B55509  41.773   3.349   6.925
 4265POPC   C4B55510  41.597   3.304   7.309
 4266POPC   NC355511  17.189  14.668   5.549
 4266POPC   PO455512  17.772  14.363   5.263
 4266POPC   GL155513  17.590  14.178   5.704
 4266POPC   GL255514  17.292  14.320   5.871
 4266POPC   C1A55515  17.532  14.035   6.179
 4266POPC   D2A55516  17.347  14.175   6.598
 4266POPC   C3A55517  17.616  14.323   6.927
 4266POPC   C4A55518  17.545  14.469   7.351
 4266POPC   C1B55519  17.139  14.505   6.261
 4266POPC   C2B55520  17.222  14.681   6.672
 4266POPC   C3B55521  17.129  14.482   7.059
 4266POPC   C4B55522  17.093  14.507   7.561
 4267POPC   NC355523   3.910   8.816   5.518
 4267POPC   PO455524   3.268   8.995   5.632
 4267POPC   GL155525   3.629   8.986   5.926
 4267POPC   GL255526   3.674   8.608   5.953
 4267POPC   C1A55527   3.681   8.990   6.404
 4267POPC   D2A55528   3.483   8.751   6.785
 4267POPC   C3A55529   3.532   9.021   7.126
 4267POPC   C4A55530   3.908   9.240   7.034
 4267POPC   C1B55531   3.919   8.532   6.354
 4267POPC   C2B55532   3.932   8.481   6.813
 4267POPC   C3B55533   3.970   8.744   7.151
 4267POPC   C4B55534   3.745   8.791   7.547
 4268POPC   NC355535   9.917  42.793   5.597
 4268POPC   PO455536   9.529  42.491   5.147
 4268POPC   GL155537   9.564  42.407   5.662
 4268POPC   GL255538   9.844  42.191   5.759
 4268POPC   C1A55539   9.665  42.405   6.168
 4268POPC   D2A55540   9.740  42.675   6.544
 4268POPC   C3A55541   9.478  42.591   6.858
 4268POPC   C4A55542   9.484  42.326   7.185
 4268POPC   C1B55543   9.981  41.946   6.115
 4268POPC   C2B55544  10.060  42.006   6.562
 4268POPC   C3B55545   9.948  42.226   6.907
 4268POPC   C4B55546   9.964  42.094   7.348
 4269POPC   NC355547   0.629  16.875   5.319
 4269POPC   PO455548   0.207  16.398   5.331
 4269POPC   GL155549   0.227  16.614   5.712
 4269POPC   GL255550   0.568  16.611   5.748
 4269POPC   C1A55551   0.237  16.756   6.147
 4269POPC   D2A55552   0.476  16.743   6.525
 4269POPC   C3A55553   0.297  16.683   6.893
 4269POPC   C4A55554   0.369  16.800   7.312
 4269POPC   C1B55555   0.697  16.479   6.120
 4269POPC   C2B55556   0.852  16.409   6.517
 4269POPC   C3B55557   0.791  16.519   6.903
 4269POPC   C4B55558   0.550  16.321   7.187
 4270POPC   NC355559  22.712  33.315   5.499
 4270POPC   PO455560  23.285  32.859   5.457
 4270POPC   GL155561  23.093  33.086   5.768
 4270POPC   GL255562  22.763  32.956   5.865
 4270POPC   C1A55563  23.131  33.137   6.193
 4270POPC   D2A55564  23.037  33.268   6.590
 4270POPC   C3A55565  23.252  33.144   6.940
 4270POPC   C4A55566  23.138  33.012   7.339
 4270POPC   C1B55567  22.480  33.218   6.135
 4270POPC   C2B55568  22.333  33.178   6.547
 4270POPC   C3B55569  22.586  33.185   6.897
 4270POPC   C4B55570  22.690  33.265   7.297
 4271POPC   NC355571  35.234  10.373   5.260
 4271POPC   PO455572  35.762  10.812   5.444
 4271POPC   GL155573  35.573  10.518   5.780
 4271POPC   GL255574  35.299  10.240   5.748
 4271POPC   C1A55575  35.450  10.633   6.212
 4271POPC   D2A55576  35.474  10.768   6.637
 4271POPC   C3A55577  35.650  10.614   7.071
 4271POPC   C4A55578  35.597  10.504   7.563
 4271POPC   C1B55579  35.047  10.290   6.112
 4271POPC   C2B55580  34.970  10.510   6.502
 4271POPC   C3B55581  35.113  10.601   6.914
 4271POPC   C4B55582  35.236  10.357   7.234
 4272POPC   NC355583  35.978  37.198   5.318
 4272POPC   PO455584  36.596  37.165   5.423
 4272POPC   GL155585  36.305  37.047   5.779
 4272POPC   GL255586  35.928  36.947   5.769
 4272POPC   C1A55587  36.417  37.086   6.233
 4272POPC   D2A55588  36.207  37.245   6.587
 4272POPC   C3A55589  36.376  37.290   6.985
 4272POPC   C4A55590  36.357  37.033   7.324
 4272POPC   C1B55591  36.055  36.722   6.149
 4272POPC   C2B55592  36.112  36.733   6.602
 4272POPC   C3B55593  35.984  36.867   7.035
 4272POPC   C4B55594  35.953  36.796   7.489
 4273POPC   NC355595  27.111  14.696   5.438
 4273POPC   PO455596  27.760  14.546   5.337
 4273POPC   GL155597  27.478  14.409   5.677
 4273POPC   GL255598  27.441  14.713   5.879
 4273POPC   C1A55599  27.368  14.254   6.101
 4273POPC   D2A55600  27.494  14.199   6.546
 4273POPC   C3A55601  27.384  14.467   6.836
 4273POPC   C4A55602  27.532  14.564   7.220
 4273POPC   C1B55603  27.553  14.680   6.358
 4273POPC   C2B55604  27.738  14.833   6.799
 4273POPC   C3B55605  27.873  14.933   7.252
 4273POPC   C4B55606  27.726  14.721   7.686
 4274POPC   NC355607  39.423  18.106   5.564
 4274POPC   PO455608  39.985  18.537   5.639
 4274POPC   GL155609  39.606  18.456   5.873
 4274POPC   GL255610  39.197  18.423   5.895
 4274POPC   C1A55611  39.495  18.244   6.243
 4274POPC   D2A55612  39.404  18.049   6.601
 4274POPC   C3A55613  39.329  18.237   6.968
 4274POPC   C4A55614  39.567  18.109   7.290
 4274POPC   C1B55615  38.985  18.191   6.246
 4274POPC   C2B55616  38.879  18.107   6.676
 4274POPC   C3B55617  38.898  17.959   7.077
 4274POPC   C4B55618  39.126  17.941   7.476
 4275POPC   NC355619  14.839  11.717   5.513
 4275POPC   PO455620  15.167  12.307   5.386
 4275POPC   GL155621  14.946  12.200   5.717
 4275POPC   GL255622  15.184  11.956   5.850
 4275POPC   C1A55623  15.008  12.361   6.131
 4275POPC   D2A55624  14.895  12.338   6.549
 4275POPC   C3A55625  14.981  12.035   6.878
 4275POPC   C4A55626  15.192  12.243   7.252
 4275POPC   C1B55627  15.468  12.122   6.218
 4275POPC   C2B55628  15.417  12.148   6.670
 4275POPC   C3B55629  15.576  11.966   7.058
 4275POPC   C4B55630  15.517  11.935   7.527
 4276POPC   NC355631  44.359  13.471   5.413
 4276POPC   PO455632   0.028  13.608   5.378
 4276POPC   GL155633  44.759  13.672   5.743
 4276POPC   GL255634  44.453  13.532   5.889
 4276POPC   C1A55635  44.789  13.799   6.197
 4276POPC   D2A55636  44.593  13.827   6.621
 4276POPC   C3A55637  44.780  13.769   7.032
 4276POPC   C4A55638  44.664  13.720   7.457
 4276POPC   C1B55639  44.288  13.320   6.252
 4276POPC   C2B55640  44.364  13.352   6.695
 4276POPC   C3B55641  44.351  13.434   7.143
 4276POPC   C4B55642  44.348  13.291   7.607
 4277POPC   NC355643  25.683  13.102   5.393
 4277POPC   PO455644  25.045  13.212   5.404
 4277POPC   GL155645  25.271  12.952   5.730
 4277POPC   GL255646  25.191  12.609   5.747
 4277POPC   C1A55647  25.363  12.876   6.185
 4277POPC   D2A55648  25.319  13.116   6.569
 4277POPC   C3A55649  25.374  12.956   6.979
 4277POPC   C4A55650  25.125  13.000   7.294
 4277POPC   C1B55651  25.143  12.410   6.151
 4277POPC   C2B55652  24.929  12.494   6.530
 4277POPC   C3B55653  24.920  12.763   6.864
 4277POPC   C4B55654  24.845  12.592   7.268
 4278POPC   NC355655  10.320  21.161   5.425
 4278POPC   PO455656  10.967  21.345   5.399
 4278POPC   GL155657  10.640  21.510   5.710
 4278POPC   GL255658  10.288  21.673   5.665
 4278POPC   C1A55659  10.595  21.463   6.185
 4278POPC   D2A55660  10.781  21.492   6.621
 4278POPC   C3A55661  10.671  21.269   7.003
 4278POPC   C4A55662  10.267  21.192   7.195
 4278POPC   C1B55663  10.259  21.840   6.080
 4278POPC   C2B55664  10.066  21.780   6.482
 4278POPC   C3B55665  10.269  21.580   6.833
 4278POPC   C4B55666  10.298  21.711   7.253
 4279POPC   NC355667   7.139  38.500   5.352
 4279POPC   PO455668   7.785  38.203   5.341
 4279POPC   GL155669   7.619  38.396   5.749
 4279POPC   GL255670   7.297  38.567   5.807
 4279POPC   C1A55671   7.528  38.329   6.189
 4279POPC   D2A55672   7.534  38.543   6.571
 4279POPC   C3A55673   7.442  38.318   6.942
 4279POPC   C4A55674   7.555  38.463   7.358
 4279POPC   C1B55675   7.030  38.489   6.163
 4279POPC   C2B55676   7.048  38.408   6.573
 4279POPC   C3B55677   6.895  38.472   6.944
 4279POPC   C4B55678   7.064  38.359   7.320
 4280POPC   NC355679  38.723  10.830   5.113
 4280POPC   PO455680  38.762  11.445   5.366
 4280POPC   GL155681  38.506  11.426   5.778
 4280POPC   GL255682  38.140  11.572   5.783
 4280POPC   C1A55683  38.645  11.256   6.206
 4280POPC   D2A55684  38.492  10.968   6.537
 4280POPC   C3A55685  38.545  11.088   6.989
 4280POPC   C4A55686  38.587  11.455   7.287
 4280POPC   C1B55687  38.149  11.371   6.200
 4280POPC   C2B55688  38.374  11.470   6.588
 4280POPC   C3B55689  38.222  11.525   6.959
 4280POPC   C4B55690  37.948  11.461   7.291
 4281POPC   NC355691   2.424   9.158   5.323
 4281POPC   PO455692   2.029   8.609   5.388
 4281POPC   GL155693   2.092   8.919   5.722
 4281POPC   GL255694   1.885   8.737   5.989
 4281POPC   C1A55695   2.020   9.229   6.088
 4281POPC   D2A55696   1.752   9.206   6.455
 4281POPC   C3A55697   1.941   9.174   6.823
 4281POPC   C4A55698   2.183   9.229   7.155
 4281POPC   C1B55699   1.626   8.712   6.399
 4281POPC   C2B55700   1.602   8.782   6.867
 4281POPC   C3B55701   1.856   8.729   7.249
 4281POPC   C4B55702   1.795   8.735   7.716
 4282POPC   NC355703  38.224  35.981   5.453
 4282POPC   PO455704  38.632  36.467   5.421
 4282POPC   GL155705  38.367  36.346   5.776
 4282POPC   GL255706  38.537  36.053   5.898
 4282POPC   C1A55707  38.204  36.294   6.217
 4282POPC   D2A55708  38.378  36.209   6.646
 4282POPC   C3A55709  38.153  36.207   7.030
 4282POPC   C4A55710  38.342  36.172   7.445
 4282POPC   C1B55711  38.747  36.093   6.307
 4282POPC   C2B55712  38.874  36.387   6.678
 4282POPC   C3B55713  38.670  36.354   7.067
 4282POPC   C4B55714  38.635  35.959   7.102
 4283POPC   NC355715  12.654  32.535   5.581
 4283POPC   PO455716  13.136  32.095   5.470
 4283POPC   GL155717  12.940  32.201   5.841
 4283POPC   GL255718  13.040  32.549   5.934
 4283POPC   C1A55719  12.751  32.220   6.239
 4283POPC   D2A55720  12.881  32.466   6.571
 4283POPC   C3A55721  12.963  32.203   6.898
 4283POPC   C4A55722  12.656  32.103   7.193
 4283POPC   C1B55723  12.637  32.710   6.177
 4283POPC   C2B55724  12.412  32.690   6.566
 4283POPC   C3B55725  12.566  32.621   6.991
 4283POPC   C4B55726  12.904  32.536   7.279
 4284POPC   NC355727   5.258  33.008   5.316
 4284POPC   PO455728   4.667  33.017   5.066
 4284POPC   GL155729   4.803  33.077   5.568
 4284POPC   GL255730   4.998  32.756   5.682
 4284POPC   C1A55731   4.787  32.990   6.085
 4284POPC   D2A55732   4.651  32.931   6.535
 4284POPC   C3A55733   4.895  33.068   6.900
 4284POPC   C4A55734   4.966  32.758   7.215
 4284POPC   C1B55735   5.252  32.767   6.086
 4284POPC   C2B55736   5.216  32.800   6.570
 4284POPC   C3B55737   5.395  32.971   6.994
 4284POPC   C4B55738   5.205  33.190   7.368
 4285POPC   NC355739   9.085  24.850   5.374
 4285POPC   PO455740   8.862  25.435   5.371
 4285POPC   GL155741   8.919  25.356   5.761
 4285POPC   GL255742   8.898  25.009   5.831
 4285POPC   C1A55743   8.787  25.393   6.184
 4285POPC   D2A55744   8.989  25.480   6.545
 4285POPC   C3A55745   8.780  25.449   6.918
 4285POPC   C4A55746   8.918  25.510   7.344
 4285POPC   C1B55747   8.712  24.875   6.222
 4285POPC   C2B55748   8.632  25.018   6.666
 4285POPC   C3B55749   8.941  24.955   7.032
 4285POPC   C4B55750   8.942  25.007   7.484
 4286POPC   NC355751   1.172  43.047   5.452
 4286POPC   PO455752   1.578  43.579   5.613
 4286POPC   GL155753   1.484  43.167   5.837
 4286POPC   GL255754   1.622  42.822   5.770
 4286POPC   C1A55755   1.089  43.003   6.126
 4286POPC   D2A55756   0.854  43.259   6.475
 4286POPC   C3A55757   0.969  43.270   6.959
 4286POPC   C4A55758   1.181  43.168   7.400
 4286POPC   C1B55759   1.576  42.910   6.251
 4286POPC   C2B55760   1.314  43.064   6.609
 4286POPC   C3B55761   1.384  42.930   7.004
 4286POPC   C4B55762   1.728  42.647   7.074
 4287POPC   NC355763  40.421  23.536   5.530
 4287POPC   PO455764  41.036  23.774   5.251
 4287POPC   GL155765  40.877  23.721   5.717
 4287POPC   GL255766  41.091  23.475   5.817
 4287POPC   C1A55767  40.586  23.668   6.144
 4287POPC   D2A55768  40.411  23.726   6.595
 4287POPC   C3A55769  40.625  23.575   7.021
 4287POPC   C4A55770  40.746  23.608   7.515
 4287POPC   C1B55771  40.937  23.317   6.245
 4287POPC   C2B55772  40.912  23.630   6.572
 4287POPC   C3B55773  41.046  23.853   6.926
 4287POPC   C4B55774  41.182  23.670   7.292
 4288POPC   NC355775   3.012   3.434   5.460
 4288POPC   PO455776   2.413   3.287   5.715
 4288POPC   GL155777   2.732   3.567   5.903
 4288POPC   GL255778   3.031   3.365   5.952
 4288POPC   C1A55779   2.847   3.794   6.304
 4288POPC   D2A55780   3.019   3.618   6.710
 4288POPC   C3A55781   2.823   3.598   7.128
 4288POPC   C4A55782   2.902   3.646   7.577
 4288POPC   C1B55783   2.848   3.278   6.324
 4288POPC   C2B55784   2.828   3.009   6.648
 4288POPC   C3B55785   2.912   3.101   7.051
 4288POPC   C4B55786   2.894   3.149   7.468
 4289POPC   NC355787   4.762  40.306   5.491
 4289POPC   PO455788   5.443  40.329   5.369
 4289POPC   GL155789   5.186  40.344   5.758
 4289POPC   GL255790   4.980  40.059   5.855
 4289POPC   C1A55791   5.000  40.372   6.216
 4289POPC   D2A55792   5.128  40.124   6.543
 4289POPC   C3A55793   5.040  40.236   6.909
 4289POPC   C4A55794   5.228  40.111   7.266
 4289POPC   C1B55795   4.889  39.813   6.228
 4289POPC   C2B55796   4.678  39.619   6.595
 4289POPC   C3B55797   4.770  39.799   6.977
 4289POPC   C4B55798   4.674  40.122   7.235
 4290POPC   NC355799  22.987  36.412   5.539
 4290POPC   PO455800  22.553  35.807   5.515
 4290POPC   GL155801  22.711  36.079   5.822
 4290POPC   GL255802  22.546  36.404   5.820
 4290POPC   C1A55803  22.946  36.141   6.216
 4290POPC   D2A55804  22.978  36.308   6.650
 4290POPC   C3A55805  23.027  36.058   7.020
 4290POPC   C4A55806  23.214  35.631   7.139
 4290POPC   C1B55807  22.428  36.222   6.240
 4290POPC   C2B55808  22.242  36.134   6.645
 4290POPC   C3B55809  22.505  36.195   7.007
 4290POPC   C4B55810  22.728  36.340   7.380
 4291POPC   NC355811  17.181  13.800   5.293
 4291POPC   PO455812  17.820  13.505   5.421
 4291POPC   GL155813  17.663  13.395   5.821
 4291POPC   GL255814  17.336  13.268   5.707
 4291POPC   C1A55815  17.695  13.521   6.272
 4291POPC   D2A55816  17.751  13.860   6.595
 4291POPC   C3A55817  17.590  13.799   6.974
 4291POPC   C4A55818  17.699  13.381   7.120
 4291POPC   C1B55819  17.236  13.618   5.996
 4291POPC   C2B55820  17.231  13.692   6.448
 4291POPC   C3B55821  17.277  13.423   6.807
 4291POPC   C4B55822  17.229  13.529   7.230
 4292POPC   NC355823   5.503  38.963   5.690
 4292POPC   PO455824   5.855  38.405   5.490
 4292POPC   GL155825   5.587  38.303   5.876
 4292POPC   GL255826   5.430  38.610   6.018
 4292POPC   C1A55827   5.659  38.338   6.346
 4292POPC   D2A55828   5.863  38.474   6.693
 4292POPC   C3A55829   5.678  38.385   7.057
 4292POPC   C4A55830   6.007  38.312   7.264
 4292POPC   C1B55831   5.666  38.840   6.333
 4292POPC   C2B55832   5.721  38.968   6.743
 4292POPC   C3B55833   5.954  38.830   7.098
 4292POPC   C4B55834   6.217  38.972   7.443
 4293POPC   NC355835  40.110   5.352   5.611
 4293POPC   PO455836  39.915   4.772   5.433
 4293POPC   GL155837  39.706   4.983   5.789
 4293POPC   GL255838  39.622   5.337   5.773
 4293POPC   C1A55839  39.828   4.919   6.240
 4293POPC   D2A55840  40.247   5.085   6.393
 4293POPC   C3A55841  40.284   5.099   6.840
 4293POPC   C4A55842  39.995   4.980   7.173
 4293POPC   C1B55843  39.807   5.412   6.186
 4293POPC   C2B55844  39.831   5.264   6.624
 4293POPC   C3B55845  39.949   5.447   6.964
 4293POPC   C4B55846  39.911   5.659   7.298
 4294POPC   NC355847   3.660  10.263   5.520
 4294POPC   PO455848   3.202  10.710   5.400
 4294POPC   GL155849   3.416  10.617   5.772
 4294POPC   GL255850   3.246  10.326   5.807
 4294POPC   C1A55851   3.669  10.503   6.152
 4294POPC   D2A55852   3.559  10.418   6.586
 4294POPC   C3A55853   3.837  10.387   6.948
 4294POPC   C4A55854   3.732  10.718   7.230
 4294POPC   C1B55855   3.162  10.408   6.214
 4294POPC   C2B55856   3.114  10.147   6.553
 4294POPC   C3B55857   3.084  10.366   6.903
 4294POPC   C4B55858   3.255  10.489   7.261
 4295POPC   NC355859  43.571   1.871   5.437
 4295POPC   PO455860  43.116   2.349   5.506
 4295POPC   GL155861  43.407   2.131   5.866
 4295POPC   GL255862  43.385   1.755   5.881
 4295POPC   C1A55863  43.391   1.948   6.338
 4295POPC   D2A55864  42.969   1.889   6.562
 4295POPC   C3A55865  42.959   1.995   7.003
 4295POPC   C4A55866  43.314   1.929   7.280
 4295POPC   C1B55867  43.082   1.594   6.132
 4295POPC   C2B55868  43.166   1.419   6.515
 4295POPC   C3B55869  43.193   1.551   6.938
 4295POPC   C4B55870  42.930   1.581   7.322
 4296POPC   NC355871  17.254  43.710   5.416
 4296POPC   PO455872  17.748  44.090   5.392
 4296POPC   GL155873  17.609  43.948   5.770
 4296POPC   GL255874  17.412  43.646   5.893
 4296POPC   C1A55875  17.736  43.920   6.185
 4296POPC   D2A55876  17.712  43.732   6.596
 4296POPC   C3A55877  17.931  43.789   6.943
 4296POPC   C4A55878  17.647  43.904   7.305
 4296POPC   C1B55879  17.233  43.372   6.231
 4296POPC   C2B55880  17.354  43.366   6.679
 4296POPC   C3B55881  17.086  43.422   7.051
 4296POPC   C4B55882  17.125  43.488   7.481
 4297POPC   NC355883  33.758  28.408   5.456
 4297POPC   PO455884  34.219  27.856   5.541
 4297POPC   GL155885  34.216  28.126   5.935
 4297POPC   GL255886  33.976  28.393   5.918
 4297POPC   C1A55887  34.212  28.306   6.407
 4297POPC   D2A55888  34.005  28.498   6.819
 4297POPC   C3A55889  33.852  28.199   7.167
 4297POPC   C4A55890  33.726  27.780   7.374
 4297POPC   C1B55891  33.931  28.732   6.226
 4297POPC   C2B55892  33.643  28.823   6.588
 4297POPC   C3B55893  33.485  28.735   6.996
 4297POPC   C4B55894  33.653  28.614   7.371
 4298POPC   NC355895   3.930  40.838   5.494
 4298POPC   PO455896   4.465  40.457   5.175
 4298POPC   GL155897   4.335  40.603   5.636
 4298POPC   GL255898   4.351  40.980   5.716
 4298POPC   C1A55899   4.314  40.607   6.081
 4298POPC   D2A55900   4.611  40.627   6.430
 4298POPC   C3A55901   4.601  40.517   6.875
 4298POPC   C4A55902   4.416  40.560   7.296
 4298POPC   C1B55903   4.080  41.077   6.088
 4298POPC   C2B55904   4.117  40.848   6.482
 4298POPC   C3B55905   4.202  40.842   6.903
 4298POPC   C4B55906   4.381  41.112   7.192
 4299POPC   NC355907   9.117  15.513   5.659
 4299POPC   PO455908   8.729  15.066   5.358
 4299POPC   GL155909   8.898  15.022   5.842
 4299POPC   GL255910   9.234  15.155   5.994
 4299POPC   C1A55911   8.903  15.024   6.345
 4299POPC   D2A55912   9.042  15.251   6.723
 4299POPC   C3A55913   9.192  15.136   7.123
 4299POPC   C4A55914   8.757  15.121   7.220
 4299POPC   C1B55915   9.140  15.513   6.298
 4299POPC   C2B55916   9.282  15.696   6.700
 4299POPC   C3B55917   9.107  15.637   7.094
 4299POPC   C4B55918   9.030  15.449   7.523
 4300POPC   NC355919  36.587  16.154   5.095
 4300POPC   PO455920  36.002  16.262   5.438
 4300POPC   GL155921  36.245  15.943   5.656
 4300POPC   GL255922  36.038  15.679   5.812
 4300POPC   C1A55923  36.382  15.952   6.100
 4300POPC   D2A55924  36.455  15.816   6.531
 4300POPC   C3A55925  36.371  15.986   6.936
 4300POPC   C4A55926  36.073  15.771   7.211
 4300POPC   C1B55927  36.017  15.679   6.306
 4300POPC   C2B55928  35.846  15.897   6.715
 4300POPC   C3B55929  35.763  16.173   7.104
 4300POPC   C4B55930  35.814  16.201   7.578
 4301POPC   NC355931  20.515  34.868   5.495
 4301POPC   PO455932  20.710  34.174   5.202
 4301POPC   GL155933  20.735  34.137   5.675
 4301POPC   GL255934  20.918  34.415   5.725
 4301POPC   C1A55935  20.516  34.231   6.099
 4301POPC   D2A55936  20.430  34.450   6.521
 4301POPC   C3A55937  20.399  34.228   6.933
 4301POPC   C4A55938  20.603  34.214   7.336
 4301POPC   C1B55939  21.007  34.424   6.175
 4301POPC   C2B55940  20.982  34.630   6.569
 4301POPC   C3B55941  20.750  34.592   6.934
 4301POPC   C4B55942  20.519  34.826   7.182
 4302POPC   NC355943  36.462   9.388   5.543
 4302POPC   PO455944  36.275  10.008   5.378
 4302POPC   GL155945  36.169   9.765   5.742
 4302POPC   GL255946  36.526   9.827   5.796
 4302POPC   C1A55947  35.992   9.654   6.158
 4302POPC   D2A55948  35.987   9.961   6.523
 4302POPC   C3A55949  35.891   9.793   6.920
 4302POPC   C4A55950  36.081   9.817   7.290
 4302POPC   C1B55951  36.375   9.974   6.164
 4302POPC   C2B55952  36.515   9.912   6.551
 4302POPC   C3B55953  36.473   9.945   6.956
 4302POPC   C4B55954  36.475  10.167   7.322
 4303POPC   NC355955   7.688  39.628   5.275
 4303POPC   PO455956   7.470  38.927   5.384
 4303POPC   GL155957   7.456  39.066   5.799
 4303POPC   GL255958   7.568  39.417   5.784
 4303POPC   C1A55959   7.412  38.859   6.181
 4303POPC   D2A55960   7.159  38.909   6.530
 4303POPC   C3A55961   7.290  38.802   6.963
 4303POPC   C4A55962   7.469  38.952   7.351
 4303POPC   C1B55963   7.271  39.361   6.188
 4303POPC   C2B55964   7.135  39.445   6.628
 4303POPC   C3B55965   7.094  39.550   7.068
 4303POPC   C4B55966   7.393  39.467   7.390
 4304POPC   NC355967  19.288  25.731   5.481
 4304POPC   PO455968  18.970  26.270   5.356
 4304POPC   GL155969  19.099  26.154   5.806
 4304POPC   GL255970  19.349  25.910   5.965
 4304POPC   C1A55971  18.919  26.048   6.239
 4304POPC   D2A55972  19.141  25.888   6.624
 4304POPC   C3A55973  18.941  26.037   7.031
 4304POPC   C4A55974  18.666  26.329   7.247
 4304POPC   C1B55975  19.486  26.222   6.304
 4304POPC   C2B55976  19.557  26.273   6.769
 4304POPC   C3B55977  19.438  25.976   7.099
 4304POPC   C4B55978  19.281  26.366   7.259
 4305POPC   NC355979   2.725  10.924   5.456
 4305POPC   PO455980   2.513  11.491   5.140
 4305POPC   GL155981   2.836  11.407   5.614
 4305POPC   GL255982   2.744  11.196   5.888
 4305POPC   C1A55983   3.109  11.454   6.095
 4305POPC   D2A55984   3.292  11.516   6.546
 4305POPC   C3A55985   3.077  11.257   6.866
 4305POPC   C4A55986   2.856  11.263   7.253
 4305POPC   C1B55987   2.496  10.954   6.155
 4305POPC   C2B55988   2.511  11.121   6.548
 4305POPC   C3B55989   2.454  10.959   6.929
 4305POPC   C4B55990   2.340  11.125   7.277
 4306POPC   NC355991  18.345  34.729   5.144
 4306POPC   PO455992  17.878  34.307   5.429
 4306POPC   GL155993  17.985  34.454   5.833
 4306POPC   GL255994  18.213  34.726   5.750
 4306POPC   C1A55995  18.297  34.457   6.211
 4306POPC   D2A55996  18.375  34.672   6.626
 4306POPC   C3A55997  18.349  34.400   6.951
 4306POPC   C4A55998  18.145  34.408   7.336
 4306POPC   C1B55999  18.332  34.960   6.128
 4306POPC   C2B56000  18.303  35.167   6.516
 4306POPC   C3B56001  18.354  35.135   6.934
 4306POPC   C4B56002  18.404  34.816   7.221
 4307POPC   NC356003  13.463  28.913   5.319
 4307POPC   PO456004  13.891  29.404   5.557
 4307POPC   GL156005  13.627  29.221   5.891
 4307POPC   GL256006  13.321  29.017   5.795
 4307POPC   C1A56007  13.674  29.212   6.349
 4307POPC   D2A56008  13.938  28.940   6.616
 4307POPC   C3A56009  13.893  29.107   7.038
 4307POPC   C4A56010  13.618  29.338   7.243
 4307POPC   C1B56011  13.189  29.032   6.196
 4307POPC   C2B56012  13.173  28.841   6.583
 4307POPC   C3B56013  13.421  28.966   6.898
 4307POPC   C4B56014  13.488  28.830   7.325
 4308POPC   NC356015  26.036  12.334   5.667
 4308POPC   PO456016  26.123  12.951   5.293
 4308POPC   GL156017  26.108  12.865   5.737
 4308POPC   GL256018  25.776  12.976   5.886
 4308POPC   C1A56019  26.211  13.092   6.125
 4308POPC   D2A56020  25.891  13.278   6.437
 4308POPC   C3A56021  25.821  13.038   6.780
 4308POPC   C4A56022  25.855  13.015   7.209
 4308POPC   C1B56023  25.856  12.783   6.317
 4308POPC   C2B56024  25.944  12.544   6.705
 4308POPC   C3B56025  25.750  12.528   7.072
 4308POPC   C4B56026  25.502  12.667   7.381
 4309POPC   NC356027  28.168  29.926   5.534
 4309POPC   PO456028  27.594  29.725   5.346
 4309POPC   GL156029  27.580  29.908   5.731
 4309POPC   GL256030  27.567  30.241   5.591
 4309POPC   C1A56031  27.497  29.925   6.179
 4309POPC   D2A56032  27.304  29.741   6.538
 4309POPC   C3A56033  27.423  29.910   6.880
 4309POPC   C4A56034  27.342  30.060   7.263
 4309POPC   C1B56035  27.788  30.300   5.999
 4309POPC   C2B56036  27.720  30.313   6.458
 4309POPC   C3B56037  27.701  30.326   6.925
 4309POPC   C4B56038  27.857  30.019   7.191
 4310POPC   NC356039  27.029  37.289   5.424
 4310POPC   PO456040  26.838  36.687   5.496
 4310POPC   GL156041  26.829  36.905   5.821
 4310POPC   GL256042  26.511  37.078   5.717
 4310POPC   C1A56043  27.033  36.939   6.240
 4310POPC   D2A56044  27.088  37.018   6.680
 4310POPC   C3A56045  26.799  36.846   6.950
 4310POPC   C4A56046  26.921  36.827   7.366
 4310POPC   C1B56047  26.583  37.211   6.124
 4310POPC   C2B56048  26.605  37.131   6.534
 4310POPC   C3B56049  26.417  37.230   6.905
 4310POPC   C4B56050  26.498  37.098   7.302
 4311POPC   NC356051  27.195  11.380   5.305
 4311POPC   PO456052  26.469  11.265   5.246
 4311POPC   GL156053  26.611  11.345   5.673
 4311POPC   GL256054  26.833  11.081   5.785
 4311POPC   C1A56055  26.694  11.460   6.131
 4311POPC   D2A56056  26.714  11.591   6.577
 4311POPC   C3A56057  26.954  11.383   6.899
 4311POPC   C4A56058  27.127  11.493   7.280
 4311POPC   C1B56059  26.579  10.960   6.163
 4311POPC   C2B56060  26.445  11.149   6.567
 4311POPC   C3B56061  26.458  11.231   7.022
 4311POPC   C4B56062  26.803  11.130   7.377
 4312POPC   NC356063  31.407  34.042   5.186
 4312POPC   PO456064  31.909  33.712   5.353
 4312POPC   GL156065  31.672  33.728   5.721
 4312POPC   GL256066  31.825  33.984   5.927
 4312POPC   C1A56067  31.710  33.524   6.137
 4312POPC   D2A56068  31.699  33.690   6.563
 4312POPC   C3A56069  31.421  33.544   6.890
 4312POPC   C4A56070  31.378  33.670   7.309
 4312POPC   C1B56071  31.427  33.959   6.208
 4312POPC   C2B56072  31.241  33.969   6.655
 4312POPC   C3B56073  31.409  34.104   7.066
 4312POPC   C4B56074  31.222  34.156   7.493
 4313POPC   NC356075  13.929  18.585   5.567
 4313POPC   PO456076  13.494  18.129   5.295
 4313POPC   GL156077  13.395  18.070   5.739
 4313POPC   GL256078  13.618  17.828   5.862
 4313POPC   C1A56079  13.483  18.301   6.146
 4313POPC   D2A56080  13.803  18.491   6.484
 4313POPC   C3A56081  13.664  18.500   6.936
 4313POPC   C4A56082  13.269  18.432   7.193
 4313POPC   C1B56083  13.642  17.818   6.287
 4313POPC   C2B56084  13.500  18.099   6.616
 4313POPC   C3B56085  13.480  18.008   7.019
 4313POPC   C4B56086  13.814  17.765   7.109
 4314POPC   NC356087   6.472   0.761   5.374
 4314POPC   PO456088   6.813   0.236   5.306
 4314POPC   GL156089   6.695   0.376   5.706
 4314POPC   GL256090   6.486   0.071   5.701
 4314POPC   C1A56091   6.738   0.589   6.119
 4314POPC   D2A56092   6.857   0.383   6.523
 4314POPC   C3A56093   6.725   0.549   6.952
 4314POPC   C4A56094   6.793   0.589   7.421
 4314POPC   C1B56095   6.664   0.002   6.092
 4314POPC   C2B56096   6.474   0.011   6.468
 4314POPC   C3B56097   6.491   0.086   6.889
 4314POPC   C4B56098   6.866   0.118   7.147
 4315POPC   NC356099  21.584  26.974   5.482
 4315POPC   PO456100  21.070  26.571   5.348
 4315POPC   GL156101  21.274  26.643   5.746
 4315POPC   GL256102  21.181  26.993   5.802
 4315POPC   C1A56103  21.396  26.509   6.179
 4315POPC   D2A56104  21.496  26.704   6.575
 4315POPC   C3A56105  21.462  26.506   6.977
 4315POPC   C4A56106  21.307  26.662   7.344
 4315POPC   C1B56107  21.133  26.925   6.224
 4315POPC   C2B56108  21.212  27.122   6.603
 4315POPC   C3B56109  21.366  27.039   7.022
 4315POPC   C4B56110  21.192  27.112   7.524
 4316POPC   NC356111  32.816   9.354   5.186
 4316POPC   PO456112  33.117   8.784   5.271
 4316POPC   GL156113  32.983   9.062   5.606
 4316POPC   GL256114  33.244   8.991   5.862
 4316POPC   C1A56115  32.767   9.162   6.000
 4316POPC   D2A56116  32.748   9.291   6.449
 4316POPC   C3A56117  32.770   8.994   6.789
 4316POPC   C4A56118  32.905   9.071   7.212
 4316POPC   C1B56119  33.178   8.965   6.335
 4316POPC   C2B56120  33.238   8.795   6.767
 4316POPC   C3B56121  33.427   9.007   7.134
 4316POPC   C4B56122  33.504   8.897   7.581
 4317POPC   NC356123  14.253   4.228   5.620
 4317POPC   PO456124  14.912   4.389   5.548
 4317POPC   GL156125  14.657   4.366   5.899
 4317POPC   GL256126  14.658   3.981   5.865
 4317POPC   C1A56127  14.425   4.534   6.269
 4317POPC   D2A56128  14.327   4.560   6.731
 4317POPC   C3A56129  14.692   4.685   7.003
 4317POPC   C4A56130  14.801   4.675   7.435
 4317POPC   C1B56131  14.453   3.782   6.212
 4317POPC   C2B56132  14.554   3.784   6.625
 4317POPC   C3B56133  14.390   4.009   6.954
 4317POPC   C4B56134  14.187   3.969   7.312
 4318POPC   NC356135  26.230   7.506   5.472
 4318POPC   PO456136  25.704   7.092   5.336
 4318POPC   GL156137  25.750   7.389   5.736
 4318POPC   GL256138  25.782   7.765   5.757
 4318POPC   C1A56139  25.700   7.364   6.221
 4318POPC   D2A56140  25.847   7.230   6.671
 4318POPC   C3A56141  26.267   7.253   6.914
 4318POPC   C4A56142  26.266   7.361   7.385
 4318POPC   C1B56143  26.028   7.745   6.157
 4318POPC   C2B56144  26.154   7.677   6.625
 4318POPC   C3B56145  25.962   7.648   7.064
 4318POPC   C4B56146  25.673   7.693   7.440
 4319POPC   NC356147  31.896  11.274   5.419
 4319POPC   PO456148  32.541  11.435   5.447
 4319POPC   GL156149  32.246  11.406   5.776
 4319POPC   GL256150  32.288  11.038   5.815
 4319POPC   C1A56151  32.146  11.364   6.214
 4319POPC   D2A56152  32.337  11.332   6.628
 4319POPC   C3A56153  32.038  11.349   6.961
 4319POPC   C4A56154  32.095  11.378   7.386
 4319POPC   C1B56155  32.427  10.942   6.252
 4319POPC   C2B56156  32.307  10.825   6.661
 4319POPC   C3B56157  32.299  10.928   7.152
 4319POPC   C4B56158  32.429  11.009   7.595
 4320POPC   NC356159  18.734   6.137   5.583
 4320POPC   PO456160  19.276   5.732   5.408
 4320POPC   GL156161  19.192   5.942   5.804
 4320POPC   GL256162  19.294   6.300   5.780
 4320POPC   C1A56163  19.019   5.763   6.209
 4320POPC   D2A56164  18.802   5.788   6.611
 4320POPC   C3A56165  18.953   5.556   6.991
 4320POPC   C4A56166  19.188   5.651   7.378
 4320POPC   C1B56167  19.080   6.283   6.202
 4320POPC   C2B56168  19.159   6.153   6.636
 4320POPC   C3B56169  19.072   6.096   7.075
 4320POPC   C4B56170  19.308   6.134   7.464
 4321POPC   NC356171  22.818   6.767   5.553
 4321POPC   PO456172  22.227   6.627   5.206
 4321POPC   GL156173  22.215   6.567   5.726
 4321POPC   GL256174  22.306   6.868   5.780
 4321POPC   C1A56175  22.176   6.517   6.196
 4321POPC   D2A56176  22.198   6.660   6.646
 4321POPC   C3A56177  22.238   6.340   6.970
 4321POPC   C4A56178  21.988   6.265   7.318
 4321POPC   C1B56179  22.264   7.019   6.200
 4321POPC   C2B56180  22.455   7.141   6.579
 4321POPC   C3B56181  22.216   7.113   6.948
 4321POPC   C4B56182  22.101   6.767   7.179
 4322POPC   NC356183  16.784  40.692   5.357
 4322POPC   PO456184  17.231  41.062   5.551
 4322POPC   GL156185  16.988  41.041   5.897
 4322POPC   GL256186  16.858  40.742   5.873
 4322POPC   C1A56187  16.756  41.043   6.306
 4322POPC   D2A56188  16.563  41.287   6.652
 4322POPC   C3A56189  16.624  41.152   7.071
 4322POPC   C4A56190  16.874  40.867   7.331
 4322POPC   C1B56191  16.661  40.540   6.190
 4322POPC   C2B56192  16.525  40.659   6.603
 4322POPC   C3B56193  16.535  40.632   7.020
 4322POPC   C4B56194  16.376  40.788   7.354
 4323POPC   NC356195  12.546  26.577   5.267
 4323POPC   PO456196  11.899  26.763   5.433
 4323POPC   GL156197  12.113  26.870   5.789
 4323POPC   GL256198  12.067  26.560   5.900
 4323POPC   C1A56199  12.073  27.105   6.180
 4323POPC   D2A56200  12.101  27.276   6.579
 4323POPC   C3A56201  11.995  27.050   6.936
 4323POPC   C4A56202  11.699  27.049   7.248
 4323POPC   C1B56203  11.840  26.657   6.242
 4323POPC   C2B56204  11.929  26.631   6.640
 4323POPC   C3B56205  11.681  26.618   6.968
 4323POPC   C4B56206  11.709  26.389   7.337
 4324POPC   NC356207  42.852  42.507   5.422
 4324POPC   PO456208  42.172  42.504   5.344
 4324POPC   GL156209  42.247  42.589   5.768
 4324POPC   GL256210  42.611  42.519   5.870
 4324POPC   C1A56211  42.198  42.321   6.130
 4324POPC   D2A56212  42.349  42.287   6.539
 4324POPC   C3A56213  42.191  42.454   6.929
 4324POPC   C4A56214  42.216  42.520   7.384
 4324POPC   C1B56215  42.712  42.157   6.144
 4324POPC   C2B56216  42.808  42.071   6.575
 4324POPC   C3B56217  42.615  42.132   6.967
 4324POPC   C4B56218  42.633  41.796   7.195
 4325POPC   NC356219  26.090   6.846   5.193
 4325POPC   PO456220  26.261   6.293   5.213
 4325POPC   GL156221  26.026   6.610   5.636
 4325POPC   GL256222  25.761   6.541   5.847
 4325POPC   C1A56223  26.115   6.879   6.039
 4325POPC   D2A56224  26.265   6.935   6.478
 4325POPC   C3A56225  26.058   6.739   6.834
 4325POPC   C4A56226  25.953   6.974   7.213
 4325POPC   C1B56227  26.063   6.381   6.169
 4325POPC   C2B56228  26.129   6.202   6.577
 4325POPC   C3B56229  25.897   6.214   6.941
 4325POPC   C4B56230  25.834   6.487   7.243
 4326POPC   NC356231  11.748  32.710   5.541
 4326POPC   PO456232  12.374  32.686   5.236
 4326POPC   GL156233  12.325  32.908   5.688
 4326POPC   GL256234  12.194  33.242   5.749
 4326POPC   C1A56235  12.158  32.890   6.128
 4326POPC   D2A56236  11.909  32.885   6.503
 4326POPC   C3A56237  12.122  32.968   6.885
 4326POPC   C4A56238  12.174  32.819   7.278
 4326POPC   C1B56239  12.047  33.407   6.190
 4326POPC   C2B56240  11.964  33.408   6.658
 4326POPC   C3B56241  12.202  33.447   7.079
 4326POPC   C4B56242  12.176  33.278   7.522
 4327POPC   NC356243  29.031  44.404   5.504
 4327POPC   PO456244  29.360  44.997   5.444
 4327POPC   GL156245  29.209  44.790   5.830
 4327POPC   GL256246  29.343  44.446   5.912
 4327POPC   C1A56247  29.169  44.727   6.310
 4327POPC   D2A56248  29.401  44.650   6.720
 4327POPC   C3A56249  29.206  44.879   7.065
 4327POPC   C4A56250  28.906  44.803   7.356
 4327POPC   C1B56251  29.042  44.230   6.190
 4327POPC   C2B56252  28.940  44.352   6.616
 4327POPC   C3B56253  29.078  44.388   7.049
 4327POPC   C4B56254  28.826  44.301   7.380
 4328POPC   NC356255   9.982  28.202   5.534
 4328POPC   PO456256   9.340  28.416   5.448
 4328POPC   GL156257   9.589  28.351   5.823
 4328POPC   GL256258   9.423  28.665   5.916
 4328POPC   C1A56259   9.817  28.102   6.209
 4328POPC   D2A56260   9.942  27.993   6.682
 4328POPC   C3A56261   9.828  28.300   7.056
 4328POPC   C4A56262   9.878  28.382   7.532
 4328POPC   C1B56263   9.611  28.550   6.307
 4328POPC   C2B56264   9.545  28.569   6.736
 4328POPC   C3B56265   9.492  28.713   7.158
 4328POPC   C4B56266   9.618  28.866   7.579
 4329POPC   NC356267   5.239  13.907   5.439
 4329POPC   PO456268   5.882  13.850   5.305
 4329POPC   GL156269   5.867  13.615   5.706
 4329POPC   GL256270   5.533  13.568   5.844
 4329POPC   C1A56271   6.009  13.508   6.132
 4329POPC   D2A56272   5.990  13.750   6.537
 4329POPC   C3A56273   6.075  13.574   6.920
 4329POPC   C4A56274   6.011  13.724   7.325
 4329POPC   C1B56275   5.542  13.383   6.282
 4329POPC   C2B56276   5.674  13.313   6.720
 4329POPC   C3B56277   5.601  13.514   7.118
 4329POPC   C4B56278   5.555  13.539   7.586
 4330POPC   NC356279  27.945   7.983   5.629
 4330POPC   PO456280  28.590   8.003   5.411
 4330POPC   GL156281  28.380   8.162   5.811
 4330POPC   GL256282  28.258   8.493   5.901
 4330POPC   C1A56283  28.150   8.111   6.225
 4330POPC   D2A56284  28.388   8.096   6.571
 4330POPC   C3A56285  28.355   8.220   6.976
 4330POPC   C4A56286  28.665   8.435   7.199
 4330POPC   C1B56287  28.406   8.564   6.339
 4330POPC   C2B56288  28.255   8.686   6.759
 4330POPC   C3B56289  28.186   8.638   7.208
 4330POPC   C4B56290  27.972   8.593   7.610
 4331POPC   NC356291  18.557  15.280   5.407
 4331POPC   PO456292  17.921  14.984   5.332
 4331POPC   GL156293  18.145  15.112   5.738
 4331POPC   GL256294  18.494  15.011   5.858
 4331POPC   C1A56295  18.155  15.358   6.156
 4331POPC   D2A56296  18.274  15.283   6.594
 4331POPC   C3A56297  17.929  15.188   6.865
 4331POPC   C4A56298  17.872  15.219   7.314
 4331POPC   C1B56299  18.650  15.415   6.083
 4331POPC   C2B56300  18.722  15.570   6.506
 4331POPC   C3B56301  18.650  15.401   6.930
 4331POPC   C4B56302  18.395  15.077   7.154
 4332POPC   NC356303  41.437  10.363   5.282
 4332POPC   PO456304  41.866  10.773   5.498
 4332POPC   GL156305  41.540  10.617   5.754
 4332POPC   GL256306  41.637  10.299   5.757
 4332POPC   C1A56307  41.321  10.684   6.173
 4332POPC   D2A56308  41.288  10.937   6.570
 4332POPC   C3A56309  41.371  10.691   6.959
 4332POPC   C4A56310  41.227  10.461   7.342
 4332POPC   C1B56311  41.828  10.456   6.136
 4332POPC   C2B56312  42.003  10.531   6.549
 4332POPC   C3B56313  41.891  10.613   6.953
 4332POPC   C4B56314  41.742  10.423   7.306
 4333POPC   NC356315   3.302   6.872   5.633
 4333POPC   PO456316   3.681   6.445   5.257
 4333POPC   GL156317   3.619   6.437   5.712
 4333POPC   GL256318   3.749   6.745   5.867
 4333POPC   C1A56319   3.393   6.435   6.130
 4333POPC   D2A56320   3.315   6.719   6.482
 4333POPC   C3A56321   3.397   6.482   6.826
 4333POPC   C4A56322   3.561   6.255   7.174
 4333POPC   C1B56323   3.966   7.077   6.118
 4333POPC   C2B56324   3.875   7.203   6.520
 4333POPC   C3B56325   3.753   6.949   6.863
 4333POPC   C4B56326   3.905   7.046   7.262
 4334POPC   NC356327  40.869  32.860   5.407
 4334POPC   PO456328  40.799  33.570   5.476
 4334POPC   GL156329  40.673  33.225   5.735
 4334POPC   GL256330  41.032  33.138   5.842
 4334POPC   C1A56331  40.585  32.991   6.122
 4334POPC   D2A56332  40.555  33.124   6.551
 4334POPC   C3A56333  40.715  32.865   6.917
 4334POPC   C4A56334  40.580  32.502   7.122
 4334POPC   C1B56335  41.054  33.533   6.115
 4334POPC   C2B56336  40.902  33.606   6.552
 4334POPC   C3B56337  40.894  33.340   6.899
 4334POPC   C4B56338  40.708  33.266   7.297
 4335POPC   NC356339  34.524   4.922   5.350
 4335POPC   PO456340  34.729   4.259   5.302
 4335POPC   GL156341  34.562   4.473   5.654
 4335POPC   GL256342  34.843   4.687   5.705
 4335POPC   C1A56343  34.471   4.387   6.094
 4335POPC   D2A56344  34.648   4.193   6.479
 4335POPC   C3A56345  34.537   4.373   6.885
 4335POPC   C4A56346  34.268   4.307   7.244
 4335POPC   C1B56347  34.732   4.845   6.108
 4335POPC   C2B56348  34.727   4.713   6.525
 4335POPC   C3B56349  34.993   4.689   6.877
 4335POPC   C4B56350  34.878   4.537   7.272
 4336POPC   NC356351   2.466  11.736   5.536
 4336POPC   PO456352   1.829  11.923   5.300
 4336POPC   GL156353   1.865  12.005   5.761
 4336POPC   GL256354   2.126  11.794   5.894
 4336POPC   C1A56355   2.012  12.245   6.130
 4336POPC   D2A56356   2.354  12.181   6.432
 4336POPC   C3A56357   2.236  12.293   6.837
 4336POPC   C4A56358   2.281  11.934   7.048
 4336POPC   C1B56359   1.851  11.711   6.220
 4336POPC   C2B56360   1.953  11.764   6.654
 4336POPC   C3B56361   1.767  11.768   7.054
 4336POPC   C4B56362   1.967  11.893   7.447
 4337POPC   NC356363  33.909  37.109   5.147
 4337POPC   PO456364  33.532  37.198   5.705
 4337POPC   GL156365  33.741  36.907   5.905
 4337POPC   GL256366  33.471  36.844   6.098
 4337POPC   C1A56367  34.015  36.847   6.253
 4337POPC   D2A56368  34.213  37.113   6.553
 4337POPC   C3A56369  34.070  37.129   6.956
 4337POPC   C4A56370  33.926  36.817   7.268
 4337POPC   C1B56371  33.585  36.607   6.408
 4337POPC   C2B56372  33.716  36.673   6.806
 4337POPC   C3B56373  33.493  36.507   7.156
 4337POPC   C4B56374  33.395  36.721   7.531
 4338POPC   NC356375   2.935  11.733   5.175
 4338POPC   PO456376   2.546  12.203   5.577
 4338POPC   GL156377   2.825  12.196   5.931
 4338POPC   GL256378   2.917  11.865   5.831
 4338POPC   C1A56379   2.931  12.477   6.290
 4338POPC   D2A56380   3.009  12.506   6.744
 4338POPC   C3A56381   2.787  12.105   6.880
 4338POPC   C4A56382   2.921  11.745   7.082
 4338POPC   C1B56383   2.641  11.655   6.163
 4338POPC   C2B56384   2.742  11.587   6.605
 4338POPC   C3B56385   2.507  11.485   6.961
 4338POPC   C4B56386   2.406  11.609   7.406
 4339POPC   NC356387  39.605  10.474   5.422
 4339POPC   PO456388  38.852  10.450   5.377
 4339POPC   GL156389  39.056  10.553   5.769
 4339POPC   GL256390  39.313  10.842   5.773
 4339POPC   C1A56391  39.091  10.281   6.148
 4339POPC   D2A56392  39.318  10.232   6.546
 4339POPC   C3A56393  39.092  10.345   6.942
 4339POPC   C4A56394  38.873  10.700   7.145
 4339POPC   C1B56395  39.272  10.759   6.231
 4339POPC   C2B56396  39.462  10.703   6.653
 4339POPC   C3B56397  39.509  10.580   7.093
 4339POPC   C4B56398  39.447  10.862   7.410
 4340POPC   NC356399   8.476  28.374   5.260
 4340POPC   PO456400   7.822  28.324   5.240
 4340POPC   GL156401   8.040  28.254   5.694
 4340POPC   GL256402   8.304  28.473   5.756
 4340POPC   C1A56403   8.128  28.333   6.192
 4340POPC   D2A56404   8.427  28.265   6.567
 4340POPC   C3A56405   8.279  28.156   6.971
 4340POPC   C4A56406   8.139  28.326   7.389
 4340POPC   C1B56407   8.460  28.757   6.093
 4340POPC   C2B56408   8.578  28.760   6.550
 4340POPC   C3B56409   8.509  28.625   6.993
 4340POPC   C4B56410   8.337  28.850   7.349
 4341POPC   NC356411  36.771  21.580   5.289
 4341POPC   PO456412  36.888  20.942   5.299
 4341POPC   GL156413  36.734  21.172   5.662
 4341POPC   GL256414  36.709  21.519   5.788
 4341POPC   C1A56415  36.814  21.142   6.132
 4341POPC   D2A56416  37.026  21.226   6.529
 4341POPC   C3A56417  36.705  21.221   6.857
 4341POPC   C4A56418  36.556  21.187   7.268
 4341POPC   C1B56419  36.938  21.638   6.143
 4341POPC   C2B56420  36.794  21.675   6.553
 4341POPC   C3B56421  36.994  21.630   6.919
 4341POPC   C4B56422  37.063  21.287   7.223
 4342POPC   NC356423  24.548  39.483   5.317
 4342POPC   PO456424  24.123  39.001   5.406
 4342POPC   GL156425  24.290  39.285   5.752
 4342POPC   GL256426  24.603  39.500   5.815
 4342POPC   C1A56427  24.325  39.176   6.193
 4342POPC   D2A56428  24.278  38.914   6.557
 4342POPC   C3A56429  24.291  39.085   6.976
 4342POPC   C4A56430  24.441  39.026   7.392
 4342POPC   C1B56431  24.786  39.385   6.228
 4342POPC   C2B56432  24.754  39.108   6.605
 4342POPC   C3B56433  24.780  39.250   7.037
 4342POPC   C4B56434  24.873  39.687   7.180
 4343POPC   NC356435  17.198  36.993   5.352
 4343POPC   PO456436  16.544  37.013   5.272
 4343POPC   GL156437  16.698  36.922   5.720
 4343POPC   GL256438  17.013  36.717   5.746
 4343POPC   C1A56439  16.625  36.856   6.195
 4343POPC   D2A56440  16.483  36.930   6.638
 4343POPC   C3A56441  16.764  36.977   7.004
 4343POPC   C4A56442  16.733  37.011   7.474
 4343POPC   C1B56443  17.017  36.497   6.130
 4343POPC   C2B56444  16.982  36.683   6.546
 4343POPC   C3B56445  17.178  36.665   6.947
 4343POPC   C4B56446  17.055  36.387   7.269
 4344POPC   NC356447  39.621   9.011   5.525
 4344POPC   PO456448  39.120   9.131   5.167
 4344POPC   GL156449  39.097   9.001   5.693
 4344POPC   GL256450  39.382   9.080   5.947
 4344POPC   C1A56451  39.056   8.782   6.164
 4344POPC   D2A56452  38.928   8.875   6.574
 4344POPC   C3A56453  39.210   8.899   6.902
 4344POPC   C4A56454  39.120   8.848   7.320
 4344POPC   C1B56455  39.631   9.221   6.268
 4344POPC   C2B56456  39.519   9.271   6.683
 4344POPC   C3B56457  39.593   9.167   7.116
 4344POPC   C4B56458  39.431   9.169   7.537
 4345POPC   NC356459  43.560  18.144   5.419
 4345POPC   PO456460  43.944  18.499   5.069
 4345POPC   GL156461  43.954  18.350   5.640
 4345POPC   GL256462  44.213  18.123   5.765
 4345POPC   C1A56463  43.873  18.419   6.106
 4345POPC   D2A56464  43.643  18.142   6.432
 4345POPC   C3A56465  43.518  18.247   6.866
 4345POPC   C4A56466  43.729  18.323   7.266
 4345POPC   C1B56467  43.981  17.921   6.074
 4345POPC   C2B56468  43.976  17.769   6.492
 4345POPC   C3B56469  43.993  18.008   6.878
 4345POPC   C4B56470  43.903  17.863   7.294
 4346POPC   NC356471  14.104  26.548   5.498
 4346POPC   PO456472  14.490  27.081   5.434
 4346POPC   GL156473  14.416  26.855   5.831
 4346POPC   GL256474  14.137  27.015   5.849
 4346POPC   C1A56475  14.356  26.706   6.282
 4346POPC   D2A56476  14.206  26.654   6.720
 4346POPC   C3A56477  14.502  26.507   7.017
 4346POPC   C4A56478  14.662  26.614   7.423
 4346POPC   C1B56479  14.018  27.093   6.257
 4346POPC   C2B56480  14.219  27.165   6.650
 4346POPC   C3B56481  14.327  27.090   7.070
 4346POPC   C4B56482  14.031  27.197   7.384
 4347POPC   NC356483  43.745  37.140   5.427
 4347POPC   PO456484  44.158  36.677   5.163
 4347POPC   GL156485  44.046  36.762   5.632
 4347POPC   GL256486  43.743  36.749   5.807
 4347POPC   C1A56487  44.143  36.674   6.090
 4347POPC   D2A56488  44.262  36.590   6.519
 4347POPC   C3A56489  43.994  36.697   6.871
 4347POPC   C4A56490  44.120  36.937   7.205
 4347POPC   C1B56491  43.833  37.111   6.067
 4347POPC   C2B56492  43.770  37.172   6.495
 4347POPC   C3B56493  43.687  37.139   6.934
 4347POPC   C4B56494  43.902  37.398   7.226
 4348POPC   NC356495  10.686  25.014   5.525
 4348POPC   PO456496  10.148  25.320   5.276
 4348POPC   GL156497  10.300  25.365   5.701
 4348POPC   GL256498  10.661  25.386   5.854
 4348POPC   C1A56499  10.240  25.471   6.131
 4348POPC   D2A56500  10.439  25.330   6.506
 4348POPC   C3A56501  10.260  25.436   6.880
 4348POPC   C4A56502  10.422  25.381   7.261
 4348POPC   C1B56503  10.700  25.041   6.167
 4348POPC   C2B56504  10.873  25.016   6.564
 4348POPC   C3B56505  10.846  25.338   6.864
 4348POPC   C4B56506  10.863  25.171   7.262
 4349POPC   NC356507  34.881   6.699   5.538
 4349POPC   PO456508  35.529   6.721   5.278
 4349POPC   GL156509  35.482   6.747   5.722
 4349POPC   GL256510  35.208   6.561   5.874
 4349POPC   C1A56511  35.518   6.798   6.183
 4349POPC   D2A56512  35.362   6.984   6.545
 4349POPC   C3A56513  35.432   6.725   6.886
 4349POPC   C4A56514  35.764   6.759   7.183
 4349POPC   C1B56515  35.016   6.677   6.295
 4349POPC   C2B56516  34.908   6.843   6.734
 4349POPC   C3B56517  35.004   6.793   7.179
 4349POPC   C4B56518  35.325   6.651   7.459
 4350POPC   NC356519  22.369  13.848   5.420
 4350POPC   PO456520  22.282  14.478   5.318
 4350POPC   GL156521  22.276  14.518   5.761
 4350POPC   GL256522  22.361  14.174   5.821
 4350POPC   C1A56523  22.064  14.668   6.164
 4350POPC   D2A56524  22.079  14.591   6.626
 4350POPC   C3A56525  22.047  14.180   6.805
 4350POPC   C4A56526  22.119  14.149   7.234
 4350POPC   C1B56527  22.220  14.165   6.257
 4350POPC   C2B56528  22.515  14.189   6.606
 4350POPC   C3B56529  22.561  13.993   7.001
 4350POPC   C4B56530  22.612  14.144   7.434
 4351POPC   NC356531  40.280  32.389   5.405
 4351POPC   PO456532  39.841  31.900   5.348
 4351POPC   GL156533  39.721  32.170   5.724
 4351POPC   GL256534  39.870  32.511   5.768
 4351POPC   C1A56535  39.862  32.140   6.140
 4351POPC   D2A56536  39.999  31.907   6.494
 4351POPC   C3A56537  39.998  32.165   6.872
 4351POPC   C4A56538  39.699  32.264   7.223
 4351POPC   C1B56539  39.993  32.666   6.192
 4351POPC   C2B56540  40.214  32.646   6.590
 4351POPC   C3B56541  40.054  32.656   7.001
 4351POPC   C4B56542  39.987  32.627   7.441
 4352POPC   NC356543   7.218  35.707   5.496
 4352POPC   PO456544   7.526  35.065   5.390
 4352POPC   GL156545   7.337  35.179   5.773
 4352POPC   GL256546   7.565  35.449   5.825
 4352POPC   C1A56547   7.267  35.278   6.211
 4352POPC   D2A56548   7.037  35.169   6.544
 4352POPC   C3A56549   7.261  35.160   6.909
 4352POPC   C4A56550   7.351  35.137   7.336
 4352POPC   C1B56551   7.765  35.163   6.134
 4352POPC   C2B56552   7.702  35.059   6.606
 4352POPC   C3B56553   7.693  34.892   7.056
 4352POPC   C4B56554   7.740  34.955   7.587
 4353POPC   NC356555   2.259  10.080   5.493
 4353POPC   PO456556   1.940   9.413   5.428
 4353POPC   GL156557   1.916   9.761   5.771
 4353POPC   GL256558   2.253   9.713   5.872
 4353POPC   C1A56559   1.924   9.841   6.240
 4353POPC   D2A56560   2.045   9.620   6.573
 4353POPC   C3A56561   1.812   9.679   6.943
 4353POPC   C4A56562   1.986   9.640   7.360
 4353POPC   C1B56563   2.439   9.874   6.264
 4353POPC   C2B56564   2.313  10.085   6.627
 4353POPC   C3B56565   2.277   9.878   7.013
 4353POPC   C4B56566   2.423   9.883   7.460
 4354POPC   NC356567  23.196  13.665   5.657
 4354POPC   PO456568  23.659  13.504   5.194
 4354POPC   GL156569  23.782  13.383   5.671
 4354POPC   GL256570  23.572  13.492   5.944
 4354POPC   C1A56571  24.052  13.597   6.045
 4354POPC   D2A56572  23.810  13.691   6.417
 4354POPC   C3A56573  23.923  13.640   6.848
 4354POPC   C4A56574  23.730  13.813   7.211
 4354POPC   C1B56575  23.770  13.225   6.236
 4354POPC   C2B56576  23.713  13.210   6.668
 4354POPC   C3B56577  23.529  13.344   7.035
 4354POPC   C4B56578  23.627  13.365   7.439
 4355POPC   NC356579  15.039  40.730   5.545
 4355POPC   PO456580  15.679  40.498   5.501
 4355POPC   GL156581  15.419  40.617   5.850
 4355POPC   GL256582  15.321  40.953   5.955
 4355POPC   C1A56583  15.155  40.578   6.236
 4355POPC   D2A56584  15.191  40.799   6.635
 4355POPC   C3A56585  15.118  40.495   6.965
 4355POPC   C4A56586  15.106  40.541   7.406
 4355POPC   C1B56587  14.939  41.108   6.182
 4355POPC   C2B56588  14.612  41.178   6.512
 4355POPC   C3B56589  14.835  41.183   6.901
 4355POPC   C4B56590  15.131  40.988   7.153
 4356POPC   NC356591  39.914   7.641   5.654
 4356POPC   PO456592  40.346   7.188   5.574
 4356POPC   GL156593  40.279   7.397   5.934
 4356POPC   GL256594  39.966   7.203   5.948
 4356POPC   C1A56595  40.395   7.662   6.310
 4356POPC   D2A56596  40.339   7.794   6.781
 4356POPC   C3A56597  39.927   7.743   6.978
 4356POPC   C4A56598  39.668   7.623   7.339
 4356POPC   C1B56599  40.138   7.158   6.353
 4356POPC   C2B56600  40.050   7.264   6.756
 4356POPC   C3B56601  39.913   7.217   7.148
 4356POPC   C4B56602  39.829   7.199   7.571
 4357POPC   NC356603   0.469  28.602   5.404
 4357POPC   PO456604   0.468  28.016   5.069
 4357POPC   GL156605   0.459  28.132   5.631
 4357POPC   GL256606   0.635  28.435   5.876
 4357POPC   C1A56607   0.251  28.213   6.116
 4357POPC   D2A56608   0.130  28.539   6.493
 4357POPC   C3A56609   0.235  28.432   6.943
 4357POPC   C4A56610   0.519  28.106   7.179
 4357POPC   C1B56611   0.637  28.728   6.268
 4357POPC   C2B56612   0.581  28.761   6.744
 4357POPC   C3B56613   0.714  28.634   7.196
 4357POPC   C4B56614   0.846  28.774   7.618
 4358POPC   NC356615  40.469  37.162   5.617
 4358POPC   PO456616  40.708  37.798   5.396
 4358POPC   GL156617  40.780  37.888   5.826
 4358POPC   GL256618  40.493  38.091   5.850
 4358POPC   C1A56619  40.891  37.641   6.216
 4358POPC   D2A56620  40.713  37.570   6.636
 4358POPC   C3A56621  40.952  37.408   6.987
 4358POPC   C4A56622  40.812  37.382   7.404
 4358POPC   C1B56623  40.479  38.025   6.295
 4358POPC   C2B56624  40.561  38.129   6.730
 4358POPC   C3B56625  40.729  37.875   7.074
 4358POPC   C4B56626  40.686  37.856   7.501
 4359POPC   NC356627  29.743  25.596   5.491
 4359POPC   PO456628  29.561  25.002   5.422
 4359POPC   GL156629  29.659  25.158   5.846
 4359POPC   GL256630  29.453  25.464   5.907
 4359POPC   C1A56631  29.793  25.016   6.297
 4359POPC   D2A56632  29.763  25.006   6.771
 4359POPC   C3A56633  30.029  24.771   7.041
 4359POPC   C4A56634  29.992  24.703   7.469
 4359POPC   C1B56635  29.838  25.519   6.159
 4359POPC   C2B56636  29.818  25.475   6.588
 4359POPC   C3B56637  29.726  25.490   7.048
 4359POPC   C4B56638  29.693  25.550   7.510
 4360POPC   NC356639  23.137  22.017   5.435
 4360POPC   PO456640  22.649  22.174   5.676
 4360POPC   GL156641  22.971  22.028   5.911
 4360POPC   GL256642  23.230  22.280   5.875
 4360POPC   C1A56643  23.045  22.016   6.302
 4360POPC   D2A56644  22.868  22.208   6.626
 4360POPC   C3A56645  22.846  22.093   7.039
 4360POPC   C4A56646  22.732  22.342   7.384
 4360POPC   C1B56647  23.295  22.471   6.296
 4360POPC   C2B56648  23.312  22.403   6.760
 4360POPC   C3B56649  23.198  22.444   7.203
 4360POPC   C4B56650  23.144  22.628   7.667
 4361POPC   NC356651  41.166  37.711   5.311
 4361POPC   PO456652  41.713  37.347   5.339
 4361POPC   GL156653  41.617  37.572   5.701
 4361POPC   GL256654  41.296  37.739   5.810
 4361POPC   C1A56655  41.686  37.562   6.108
 4361POPC   D2A56656  41.410  37.704   6.416
 4361POPC   C3A56657  41.668  37.736   6.743
 4361POPC   C4A56658  41.693  37.415   7.043
 4361POPC   C1B56659  41.166  38.059   6.119
 4361POPC   C2B56660  41.024  38.007   6.565
 4361POPC   C3B56661  41.225  37.861   6.936
 4361POPC   C4B56662  41.620  37.915   7.231
 4362POPC   NC356663  18.298  41.331   5.397
 4362POPC   PO456664  18.263  41.961   5.685
 4362POPC   GL156665  18.317  41.572   5.850
 4362POPC   GL256666  18.020  41.334   5.865
 4362POPC   C1A56667  18.479  41.500   6.250
 4362POPC   D2A56668  18.280  41.508   6.647
 4362POPC   C3A56669  18.465  41.570   7.051
 4362POPC   C4A56670  18.791  41.415   7.333
 4362POPC   C1B56671  17.968  41.612   6.237
 4362POPC   C2B56672  17.860  41.866   6.609
 4362POPC   C3B56673  17.907  41.599   6.966
 4362POPC   C4B56674  18.054  41.477   7.374
 4363POPC   NC356675  26.082  27.284   4.912
 4363POPC   PO456676  26.268  27.830   5.293
 4363POPC   GL156677  26.107  27.546   5.610
 4363POPC   GL256678  26.110  27.831   5.797
 4363POPC   C1A56679  25.973  27.394   6.028
 4363POPC   D2A56680  26.061  27.469   6.471
 4363POPC   C3A56681  25.993  27.421   6.893
 4363POPC   C4A56682  26.121  27.521   7.302
 4363POPC   C1B56683  25.929  27.893   6.173
 4363POPC   C2B56684  25.818  27.950   6.570
 4363POPC   C3B56685  26.000  27.955   6.948
 4363POPC   C4B56686  25.718  27.784   7.180
 4364POPC   NC356687   0.206   0.959   5.258
 4364POPC   PO456688   0.662   1.462   5.489
 4364POPC   GL156689   0.720   1.202   5.835
 4364POPC   GL256690   0.443   0.999   5.743
 4364POPC   C1A56691   0.695   1.240   6.287
 4364POPC   D2A56692   0.399   1.265   6.603
 4364POPC   C3A56693   0.466   1.433   7.001
 4364POPC   C4A56694   0.181   1.541   7.318
 4364POPC   C1B56695   0.409   0.824   6.152
 4364POPC   C2B56696   0.253   0.787   6.578
 4364POPC   C3B56697   0.461   0.893   6.968
 4364POPC   C4B56698   0.410   1.064   7.354
 4365POPC   NC356699  28.108  17.975   5.529
 4365POPC   PO456700  27.467  18.171   5.448
 4365POPC   GL156701  27.686  18.178   5.785
 4365POPC   GL256702  27.415  18.399   5.928
 4365POPC   C1A56703  27.786  18.189   6.202
 4365POPC   D2A56704  27.755  18.585   6.443
 4365POPC   C3A56705  27.686  18.488   6.867
 4365POPC   C4A56706  27.710  18.078   7.066
 4365POPC   C1B56707  27.280  18.053   6.199
 4365POPC   C2B56708  27.391  18.079   6.651
 4365POPC   C3B56709  27.225  18.266   7.050
 4365POPC   C4B56710  27.120  18.621   7.326
 4366POPC   NC356711   6.680   3.066   5.497
 4366POPC   PO456712   6.643   3.707   5.297
 4366POPC   GL156713   6.716   3.756   5.763
 4366POPC   GL256714   6.742   3.422   5.837
 4366POPC   C1A56715   6.750   3.704   6.242
 4366POPC   D2A56716   6.624   3.945   6.569
 4366POPC   C3A56717   6.601   3.703   6.891
 4366POPC   C4A56718   6.584   3.369   7.210
 4366POPC   C1B56719   6.712   3.187   6.219
 4366POPC   C2B56720   6.774   3.265   6.670
 4366POPC   C3B56721   6.854   2.994   6.988
 4366POPC   C4B56722   7.098   3.111   7.309
 4367POPC   NC356723   2.287   3.718   5.651
 4367POPC   PO456724   1.982   3.145   5.351
 4367POPC   GL156725   1.921   3.327   5.794
 4367POPC   GL256726   1.781   3.651   5.854
 4367POPC   C1A56727   1.792   3.258   6.235
 4367POPC   D2A56728   1.775   3.395   6.673
 4367POPC   C3A56729   2.165   3.223   6.868
 4367POPC   C4A56730   2.425   3.270   7.244
 4367POPC   C1B56731   1.953   3.734   6.267
 4367POPC   C2B56732   1.948   3.896   6.690
 4367POPC   C3B56733   2.214   3.761   7.037
 4367POPC   C4B56734   2.437   3.761   7.414
 4368POPC   NC356735  18.224  11.866   5.483
 4368POPC   PO456736  18.305  11.152   5.492
 4368POPC   GL156737  18.351  11.239   5.903
 4368POPC   GL256738  18.384  11.607   5.912
 4368POPC   C1A56739  18.412  11.287   6.334
 4368POPC   D2A56740  18.195  11.275   6.697
 4368POPC   C3A56741  18.601  11.178   6.841
 4368POPC   C4A56742  18.713  11.123   7.229
 4368POPC   C1B56743  18.341  11.784   6.340
 4368POPC   C2B56744  18.494  11.687   6.755
 4368POPC   C3B56745  18.353  11.503   7.152
 4368POPC   C4B56746  18.176  11.682   7.515
 4369POPC   NC356747  42.731  29.425   5.471
 4369POPC   PO456748  42.381  28.811   5.438
 4369POPC   GL156749  42.447  29.118   5.787
 4369POPC   GL256750  42.172  29.044   6.017
 4369POPC   C1A56751  42.529  29.342   6.191
 4369POPC   D2A56752  42.308  29.216   6.559
 4369POPC   C3A56753  42.499  29.314   6.946
 4369POPC   C4A56754  42.381  29.426   7.316
 4369POPC   C1B56755  42.503  28.749   6.140
 4369POPC   C2B56756  42.769  28.702   6.513
 4369POPC   C3B56757  42.555  28.646   6.919
 4369POPC   C4B56758  42.438  28.886   7.272
 4370POPC   NC356759  38.158   1.069   5.282
 4370POPC   PO456760  38.474   1.735   5.472
 4370POPC   GL156761  38.284   1.530   5.841
 4370POPC   GL256762  38.307   1.167   5.753
 4370POPC   C1A56763  38.436   1.383   6.270
 4370POPC   D2A56764  38.732   1.469   6.617
 4370POPC   C3A56765  38.506   1.459   7.028
 4370POPC   C4A56766  38.108   1.423   7.248
 4370POPC   C1B56767  38.252   0.944   6.092
 4370POPC   C2B56768  38.295   0.924   6.551
 4370POPC   C3B56769  38.443   0.930   7.006
 4370POPC   C4B56770  38.615   0.738   7.423
 4371POPC   NC356771  43.410  13.532   5.094
 4371POPC   PO456772  42.810  13.744   5.315
 4371POPC   GL156773  43.108  13.542   5.620
 4371POPC   GL256774  42.884  13.312   5.744
 4371POPC   C1A56775  43.310  13.568   6.070
 4371POPC   D2A56776  43.496  13.836   6.449
 4371POPC   C3A56777  43.411  13.730   6.861
 4371POPC   C4A56778  43.286  13.903   7.251
 4371POPC   C1B56779  42.804  13.511   6.142
 4371POPC   C2B56780  43.053  13.507   6.531
 4371POPC   C3B56781  42.921  13.651   6.935
 4371POPC   C4B56782  42.909  13.409   7.254
 4372POPC   NC356783  26.139  13.454   5.424
 4372POPC   PO456784  26.170  14.123   5.471
 4372POPC   GL156785  26.174  13.819   5.778
 4372POPC   GL256786  25.842  13.730   5.829
 4372POPC   C1A56787  26.189  13.590   6.172
 4372POPC   D2A56788  26.356  13.423   6.582
 4372POPC   C3A56789  26.153  13.383   6.981
 4372POPC   C4A56790  26.216  13.623   7.377
 4372POPC   C1B56791  25.723  13.887   6.220
 4372POPC   C2B56792  25.936  13.787   6.585
 4372POPC   C3B56793  25.790  13.776   6.976
 4372POPC   C4B56794  25.725  13.482   7.287
 4373POPC   NC356795  41.208  43.303   5.228
 4373POPC   PO456796  41.855  43.077   5.383
 4373POPC   GL156797  41.558  42.988   5.702
 4373POPC   GL256798  41.590  43.309   5.846
 4373POPC   C1A56799  41.398  42.926   6.130
 4373POPC   D2A56800  41.556  43.116   6.512
 4373POPC   C3A56801  41.339  43.089   6.914
 4373POPC   C4A56802  41.395  43.385   7.235
 4373POPC   C1B56803  41.918  43.076   6.108
 4373POPC   C2B56804  42.068  43.144   6.570
 4373POPC   C3B56805  41.840  43.246   6.995
 4373POPC   C4B56806  41.795  43.169   7.461
 4374POPC   NC356807  18.828  34.824   5.523
 4374POPC   PO456808  19.143  34.290   5.334
 4374POPC   GL156809  19.044  34.435   5.757
 4374POPC   GL256810  18.721  34.524   5.906
 4374POPC   C1A56811  19.146  34.394   6.174
 4374POPC   D2A56812  19.070  34.418   6.596
 4374POPC   C3A56813  19.323  34.166   6.851
 4374POPC   C4A56814  19.246  34.386   7.202
 4374POPC   C1B56815  18.742  34.693   6.287
 4374POPC   C2B56816  18.830  34.883   6.676
 4374POPC   C3B56817  18.820  34.626   7.013
 4374POPC   C4B56818  18.932  34.713   7.436
 4375POPC   NC356819  25.482  20.145   5.352
 4375POPC   PO456820  25.207  19.516   5.506
 4375POPC   GL156821  25.455  19.658   5.860
 4375POPC   GL256822  25.477  20.004   5.844
 4375POPC   C1A56823  25.517  19.760   6.320
 4375POPC   D2A56824  25.335  19.820   6.750
 4375POPC   C3A56825  25.629  19.773   7.064
 4375POPC   C4A56826  25.744  19.378   7.287
 4375POPC   C1B56827  25.655  20.237   6.203
 4375POPC   C2B56828  25.670  20.163   6.622
 4375POPC   C3B56829  25.499  20.329   6.965
 4375POPC   C4B56830  25.302  20.161   7.278
 4376POPC   NC356831  35.722  26.229   5.664
 4376POPC   PO456832  35.182  25.976   5.394
 4376POPC   GL156833  35.236  26.134   5.845
 4376POPC   GL256834  35.314  25.800   6.026
 4376POPC   C1A56835  35.332  26.211   6.311
 4376POPC   D2A56836  35.257  25.884   6.645
 4376POPC   C3A56837  35.295  26.064   7.065
 4376POPC   C4A56838  35.312  26.242   7.477
 4376POPC   C1B56839  34.909  25.853   6.266
 4376POPC   C2B56840  34.692  25.950   6.697
 4376POPC   C3B56841  34.786  26.010   7.172
 4376POPC   C4B56842  35.024  25.827   7.547
 4377POPC   NC356843   7.005   7.375   5.312
 4377POPC   PO456844   7.323   7.903   5.263
 4377POPC   GL156845   7.338   7.527   5.669
 4377POPC   GL256846   7.620   7.470   5.892
 4377POPC   C1A56847   7.243   7.603   6.170
 4377POPC   D2A56848   7.347   7.491   6.607
 4377POPC   C3A56849   7.169   7.667   6.992
 4377POPC   C4A56850   7.389   7.599   7.392
 4377POPC   C1B56851   7.499   7.172   6.238
 4377POPC   C2B56852   7.645   7.063   6.644
 4377POPC   C3B56853   7.456   7.204   7.050
 4377POPC   C4B56854   7.370   7.123   7.513
 4378POPC   NC356855   2.497  42.703   5.359
 4378POPC   PO456856   2.762  43.330   5.343
 4378POPC   GL156857   2.703  43.069   5.722
 4378POPC   GL256858   2.982  43.151   5.978
 4378POPC   C1A56859   2.501  43.061   6.139
 4378POPC   D2A56860   2.309  43.152   6.563
 4378POPC   C3A56861   2.495  43.310   6.955
 4378POPC   C4A56862   2.803  43.128   7.212
 4378POPC   C1B56863   2.947  43.241   6.443
 4378POPC   C2B56864   3.097  43.360   6.870
 4378POPC   C3B56865   3.188  43.443   7.322
 4378POPC   C4B56866   3.221  43.559   7.750
 4379POPC   NC356867   9.100  23.242   5.450
 4379POPC   PO456868   8.703  22.625   5.575
 4379POPC   GL156869   8.985  22.860   5.794
 4379POPC   GL256870   9.304  22.757   5.750
 4379POPC   C1A56871   9.029  23.039   6.188
 4379POPC   D2A56872   8.734  23.030   6.526
 4379POPC   C3A56873   8.982  23.131   6.859
 4379POPC   C4A56874   8.799  23.124   7.248
 4379POPC   C1B56875   9.446  22.629   6.130
 4379POPC   C2B56876   9.435  22.847   6.501
 4379POPC   C3B56877   9.482  22.771   6.914
 4379POPC   C4B56878   9.315  22.993   7.245
 4380POPC   NC356879  20.841  27.021   5.381
 4380POPC   PO456880  20.268  26.591   5.391
 4380POPC   GL156881  20.440  26.825   5.747
 4380POPC   GL256882  20.759  26.678   5.755
 4380POPC   C1A56883  20.623  26.824   6.210
 4380POPC   D2A56884  20.706  27.018   6.609
 4380POPC   C3A56885  20.493  26.868   6.967
 4380POPC   C4A56886  20.447  27.068   7.378
 4380POPC   C1B56887  20.913  26.428   6.090
 4380POPC   C2B56888  21.000  26.530   6.523
 4380POPC   C3B56889  20.995  26.691   6.917
 4380POPC   C4B56890  20.795  26.671   7.330
 4381POPC   NC356891  11.156  19.974   5.298
 4381POPC   PO456892  10.531  19.753   5.311
 4381POPC   GL156893  10.548  19.846   5.753
 4381POPC   GL256894  10.244  20.040   5.708
 4381POPC   C1A56895  10.603  19.717   6.226
 4381POPC   D2A56896  10.390  19.641   6.641
 4381POPC   C3A56897  10.608  19.788   7.036
 4381POPC   C4A56898  10.726  19.690   7.496
 4381POPC   C1B56899  10.339  20.145   6.123
 4381POPC   C2B56900  10.239  20.169   6.557
 4381POPC   C3B56901  10.246  20.175   7.021
 4381POPC   C4B56902  10.497  20.143   7.417
 4382POPC   NC356903  33.436   7.737   5.528
 4382POPC   PO456904  33.421   7.060   5.446
 4382POPC   GL156905  33.278   7.330   5.788
 4382POPC   GL256906  32.934   7.482   5.809
 4382POPC   C1A56907  33.275   7.374   6.222
 4382POPC   D2A56908  33.168   7.592   6.570
 4382POPC   C3A56909  33.284   7.425   6.954
 4382POPC   C4A56910  33.037   7.363   7.309
 4382POPC   C1B56911  32.768   7.316   6.197
 4382POPC   C2B56912  32.640   7.502   6.613
 4382POPC   C3B56913  32.610   7.449   7.059
 4382POPC   C4B56914  32.601   7.553   7.493
 4383POPC   NC356915  22.758  44.450   5.366
 4383POPC   PO456916  22.835  43.793   5.269
 4383POPC   GL156917  22.834  43.717   5.696
 4383POPC   GL256918  23.179  43.635   5.697
 4383POPC   C1A56919  22.639  43.826   6.098
 4383POPC   D2A56920  22.655  44.013   6.511
 4383POPC   C3A56921  22.763  43.782   6.883
 4383POPC   C4A56922  22.959  43.990   7.225
 4383POPC   C1B56923  23.143  43.672   6.147
 4383POPC   C2B56924  23.139  43.529   6.602
 4383POPC   C3B56925  23.264  43.633   7.031
 4383POPC   C4B56926  23.196  43.627   7.524
 4384POPC   NC356927   1.855  40.244   5.158
 4384POPC   PO456928   2.171  39.640   5.360
 4384POPC   GL156929   1.961  39.988   5.642
 4384POPC   GL256930   1.688  40.255   5.635
 4384POPC   C1A56931   2.012  40.170   6.086
 4384POPC   D2A56932   1.933  39.921   6.476
 4384POPC   C3A56933   2.152  39.830   6.829
 4384POPC   C4A56934   2.067  39.973   7.228
 4384POPC   C1B56935   1.503  40.264   6.060
 4384POPC   C2B56936   1.633  40.322   6.484
 4384POPC   C3B56937   1.807  40.275   6.903
 4384POPC   C4B56938   1.629  40.204   7.323
 4385POPC   NC356939  28.033   9.745   5.439
 4385POPC   PO456940  27.474   9.312   5.362
 4385POPC   GL156941  27.530   9.421   5.780
 4385POPC   GL256942  27.876   9.398   5.801
 4385POPC   C1A56943  27.450   9.583   6.200
 4385POPC   D2A56944  27.467   9.507   6.652
 4385POPC   C3A56945  27.576   9.850   6.978
 4385POPC   C4A56946  27.568   9.736   7.431
 4385POPC   C1B56947  28.085   9.529   6.216
 4385POPC   C2B56948  28.009   9.534   6.711
 4385POPC   C3B56949  27.722   9.379   7.090
 4385POPC   C4B56950  27.704   9.272   7.566
 4386POPC   NC356951  28.242  26.743   5.335
 4386POPC   PO456952  28.621  27.237   5.544
 4386POPC   GL156953  28.385  26.869   5.810
 4386POPC   GL256954  28.247  26.490   5.797
 4386POPC   C1A56955  28.021  26.810   6.109
 4386POPC   D2A56956  27.949  26.721   6.546
 4386POPC   C3A56957  28.354  26.855   6.726
 4386POPC   C4A56958  28.518  26.913   7.152
 4386POPC   C1B56959  28.149  26.245   6.236
 4386POPC   C2B56960  28.002  26.222   6.698
 4386POPC   C3B56961  28.081  26.577   7.025
 4386POPC   C4B56962  28.258  26.588   7.456
 4387POPC   NC356963  42.547  31.980   5.789
 4387POPC   PO456964  42.219  32.407   5.433
 4387POPC   GL156965  42.285  32.412   5.891
 4387POPC   GL256966  42.201  32.098   6.114
 4387POPC   C1A56967  42.496  32.485   6.291
 4387POPC   D2A56968  42.282  32.644   6.659
 4387POPC   C3A56969  42.507  32.626   7.023
 4387POPC   C4A56970  42.543  32.320   7.283
 4387POPC   C1B56971  41.963  32.421   6.291
 4387POPC   C2B56972  41.817  32.323   6.687
 4387POPC   C3B56973  42.068  32.274   7.002
 4387POPC   C4B56974  42.012  32.454   7.356
 4388POPC   NC356975  35.976   5.663   5.345
 4388POPC   PO456976  36.127   6.339   5.316
 4388POPC   GL156977  36.068   6.056   5.739
 4388POPC   GL256978  36.040   5.700   5.854
 4388POPC   C1A56979  35.801   5.956   6.182
 4388POPC   D2A56980  35.968   6.018   6.572
 4388POPC   C3A56981  35.834   5.828   6.893
 4388POPC   C4A56982  35.928   5.847   7.319
 4388POPC   C1B56983  36.327   5.889   6.172
 4388POPC   C2B56984  36.475   6.074   6.569
 4388POPC   C3B56985  36.344   5.938   6.987
 4388POPC   C4B56986  36.615   5.659   7.222
 4389POPC   NC356987  25.836  36.014   5.216
 4389POPC   PO456988  26.382  35.816   5.600
 4389POPC   GL156989  26.147  36.115   5.835
 4389POPC   GL256990  25.841  36.210   5.678
 4389POPC   C1A56991  26.094  36.291   6.263
 4389POPC   D2A56992  26.383  36.404   6.605
 4389POPC   C3A56993  26.239  36.236   6.989
 4389POPC   C4A56994  25.989  36.394   7.294
 4389POPC   C1B56995  25.649  36.145   6.057
 4389POPC   C2B56996  25.624  36.042   6.480
 4389POPC   C3B56997  25.738  36.244   6.861
 4389POPC   C4B56998  25.545  36.193   7.271
 4390POPC   NC356999  37.289  26.993   5.458
 4390POPC   PO457000  37.850  26.677   5.517
 4390POPC   GL157001  37.752  26.952   5.820
 4390POPC   GL257002  37.428  26.848   5.929
 4390POPC   C1A57003  37.941  26.938   6.223
 4390POPC   D2A57004  38.207  26.851   6.550
 4390POPC   C3A57005  38.006  27.040   6.918
 4390POPC   C4A57006  37.895  26.945   7.370
 4390POPC   C1B57007  37.610  26.546   6.221
 4390POPC   C2B57008  37.770  26.570   6.633
 4390POPC   C3B57009  37.607  26.711   7.010
 4390POPC   C4B57010  37.404  27.054   7.258
 4391POPC   NC357011   0.759  23.496   5.545
 4391POPC   PO457012   0.327  23.995   5.336
 4391POPC   GL157013   0.446  23.833   5.741
 4391POPC   GL257014   0.782  23.991   5.747
 4391POPC   C1A57015   0.519  23.625   6.160
 4391POPC   D2A57016   0.318  23.399   6.482
 4391POPC   C3A57017   0.444  23.610   6.833
 4391POPC   C4A57018   0.474  23.757   7.250
 4391POPC   C1B57019   0.554  24.132   6.126
 4391POPC   C2B57020   0.420  24.029   6.532
 4391POPC   C3B57021   0.619  24.125   6.914
 4391POPC   C4B57022   0.614  24.266   7.338
 4392POPC   NC357023  40.179  19.643   5.465
 4392POPC   PO457024  40.258  20.279   5.531
 4392POPC   GL157025  40.073  20.025   5.831
 4392POPC   GL257026  39.710  19.946   5.716
 4392POPC   C1A57027  40.168  19.797   6.228
 4392POPC   D2A57028  40.340  19.947   6.628
 4392POPC   C3A57029  40.242  19.789   7.024
 4392POPC   C4A57030  39.988  19.504   7.165
 4392POPC   C1B57031  39.690  19.988   6.173
 4392POPC   C2B57032  39.817  19.959   6.598
 4392POPC   C3B57033  39.616  19.835   6.950
 4392POPC   C4B57034  39.495  19.476   7.194
 4393POPC   NC357035  32.035  31.771   5.423
 4393POPC   PO457036  32.593  31.478   5.304
 4393POPC   GL157037  32.393  31.548   5.743
 4393POPC   GL257038  32.360  31.181   5.776
 4393POPC   C1A57039  32.181  31.620   6.168
 4393POPC   D2A57040  32.037  31.742   6.605
 4393POPC   C3A57041  32.356  31.762   6.950
 4393POPC   C4A57042  32.256  31.611   7.356
 4393POPC   C1B57043  32.429  31.181   6.202
 4393POPC   C2B57044  32.423  31.407   6.591
 4393POPC   C3B57045  32.280  31.253   6.977
 4393POPC   C4B57046  32.354  31.130   7.403
 4394POPC   NC357047  16.355  17.670   5.440
 4394POPC   PO457048  16.980  17.576   5.188
 4394POPC   GL157049  16.818  17.422   5.612
 4394POPC   GL257050  16.509  17.211   5.663
 4394POPC   C1A57051  16.706  17.539   6.046
 4394POPC   D2A57052  16.840  17.666   6.488
 4394POPC   C3A57053  16.773  17.380   6.832
 4394POPC   C4A57054  16.627  17.502   7.275
 4394POPC   C1B57055  16.336  17.157   6.088
 4394POPC   C2B57056  16.343  17.449   6.456
 4394POPC   C3B57057  16.275  17.422   6.914
 4394POPC   C4B57058  16.175  17.198   7.294
 4395POPC   NC357059   4.848  16.079   5.389
 4395POPC   PO457060   5.241  15.681   5.550
 4395POPC   GL157061   4.854  15.787   5.855
 4395POPC   GL257062   4.616  16.089   5.853
 4395POPC   C1A57063   4.898  15.802   6.306
 4395POPC   D2A57064   4.770  15.689   6.729
 4395POPC   C3A57065   5.049  15.807   7.054
 4395POPC   C4A57066   5.395  15.973   7.347
 4395POPC   C1B57067   4.702  16.281   6.261
 4395POPC   C2B57068   4.830  16.202   6.706
 4395POPC   C3B57069   5.071  16.315   7.110
 4395POPC   C4B57070   5.280  16.443   7.533
 4396POPC   NC357071   9.843  33.132   5.496
 4396POPC   PO457072   9.648  32.585   5.242
 4396POPC   GL157073   9.547  32.807   5.744
 4396POPC   GL257074   9.550  33.178   5.903
 4396POPC   C1A57075   9.690  32.849   6.231
 4396POPC   D2A57076   9.653  33.135   6.609
 4396POPC   C3A57077   9.615  32.972   7.047
 4396POPC   C4A57078   9.712  32.780   7.456
 4396POPC   C1B57079   9.968  33.276   6.126
 4396POPC   C2B57080  10.045  33.434   6.520
 4396POPC   C3B57081  10.048  33.312   6.925
 4396POPC   C4B57082   9.963  33.508   7.285
 4397POPC   NC357083  20.785  41.415   4.846
 4397POPC   PO457084  20.477  41.740   5.182
 4397POPC   GL157085  20.466  41.763   5.679
 4397POPC   GL257086  20.749  41.941   5.852
 4397POPC   C1A57087  20.363  41.621   6.124
 4397POPC   D2A57088  20.369  41.570   6.596
 4397POPC   C3A57089  20.665  41.428   6.953
 4397POPC   C4A57090  20.683  41.308   7.428
 4397POPC   C1B57091  20.747  41.879   6.341
 4397POPC   C2B57092  20.679  41.947   6.806
 4397POPC   C3B57093  20.730  41.857   7.251
 4397POPC   C4B57094  20.681  42.061   7.679
 4398POPC   NC357095   0.884  27.078   5.542
 4398POPC   PO457096   1.382  27.638   5.413
 4398POPC   GL157097   1.140  27.708   5.795
 4398POPC   GL257098   0.938  28.012   5.832
 4398POPC   C1A57099   1.206  27.537   6.200
 4398POPC   D2A57100   1.555  27.550   6.485
 4398POPC   C3A57101   1.482  27.418   6.887
 4398POPC   C4A57102   1.182  27.534   7.172
 4398POPC   C1B57103   0.882  27.907   6.279
 4398POPC   C2B57104   1.102  27.755   6.680
 4398POPC   C3B57105   1.077  28.010   7.082
 4398POPC   C4B57106   0.932  27.962   7.519
 4399POPC   NC357107  40.896  14.176   5.411
 4399POPC   PO457108  40.632  14.786   5.345
 4399POPC   GL157109  40.492  14.466   5.670
 4399POPC   GL257110  40.772  14.563   5.833
 4399POPC   C1A57111  40.485  14.260   6.118
 4399POPC   D2A57112  40.835  14.313   6.360
 4399POPC   C3A57113  40.815  14.270   6.809
 4399POPC   C4A57114  41.029  14.604   7.026
 4399POPC   C1B57115  40.581  14.747   6.229
 4399POPC   C2B57116  40.412  14.521   6.617
 4399POPC   C3B57117  40.499  14.622   7.076
 4399POPC   C4B57118  40.478  14.667   7.555
 4400POPC   NC357119  30.955  28.333   5.440
 4400POPC   PO457120  30.236  28.167   5.501
 4400POPC   GL157121  30.551  28.402   5.764
 4400POPC   GL257122  30.869  28.643   5.822
 4400POPC   C1A57123  30.757  28.289   6.164
 4400POPC   D2A57124  30.500  28.329   6.528
 4400POPC   C3A57125  30.706  28.186   6.904
 4400POPC   C4A57126  30.696  28.151   7.349
 4400POPC   C1B57127  30.559  28.748   6.135
 4400POPC   C2B57128  30.557  28.843   6.555
 4400POPC   C3B57129  30.553  28.678   6.943
 4400POPC   C4B57130  30.555  28.893   7.293
 4401POPC   NC357131  36.761  33.461   5.245
 4401POPC   PO457132  37.315  33.903   5.424
 4401POPC   GL157133  37.046  33.973   5.769
 4401POPC   GL257134  36.939  33.635   5.697
 4401POPC   C1A57135  37.049  34.104   6.234
 4401POPC   D2A57136  37.246  33.865   6.608
 4401POPC   C3A57137  37.183  33.895   7.057
 4401POPC   C4A57138  36.817  34.006   7.300
 4401POPC   C1B57139  36.900  33.627   6.134
 4401POPC   C2B57140  36.656  33.571   6.499
 4401POPC   C3B57141  36.783  33.627   6.893
 4401POPC   C4B57142  36.934  33.490   7.264
 4402POPC   NC357143  26.248  15.191   5.339
 4402POPC   PO457144  25.605  15.434   5.330
 4402POPC   GL157145  25.873  15.286   5.737
 4402POPC   GL257146  26.145  15.007   5.791
 4402POPC   C1A57147  26.115  15.294   6.195
 4402POPC   D2A57148  26.344  15.323   6.625
 4402POPC   C3A57149  26.060  15.466   6.951
 4402POPC   C4A57150  25.609  15.500   7.020
 4402POPC   C1B57151  25.750  14.906   6.054
 4402POPC   C2B57152  25.658  14.802   6.526
 4402POPC   C3B57153  25.818  15.001   6.916
 4402POPC   C4B57154  26.262  14.975   7.082
 4403POPC   NC357155   1.876  15.415   5.542
 4403POPC   PO457156   2.192  14.788   5.536
 4403POPC   GL157157   2.112  15.038   5.846
 4403POPC   GL257158   1.787  15.002   5.825
 4403POPC   C1A57159   2.041  15.232   6.235
 4403POPC   D2A57160   2.246  15.432   6.571
 4403POPC   C3A57161   2.071  15.195   6.921
 4403POPC   C4A57162   2.145  15.181   7.360
 4403POPC   C1B57163   1.675  14.855   6.217
 4403POPC   C2B57164   1.657  15.076   6.586
 4403POPC   C3B57165   1.569  15.285   6.945
 4403POPC   C4B57166   1.649  15.057   7.296
 4404POPC   NC357167   0.590  16.160   5.444
 4404POPC   PO457168   0.142  15.578   5.368
 4404POPC   GL157169   0.185  15.938   5.707
 4404POPC   GL257170   0.513  16.001   5.914
 4404POPC   C1A57171   0.118  16.247   6.079
 4404POPC   D2A57172   0.375  16.255   6.461
 4404POPC   C3A57173   0.441  15.951   6.785
 4404POPC   C4A57174   0.352  15.859   7.229
 4404POPC   C1B57175   0.823  15.978   6.234
 4404POPC   C2B57176   1.082  15.958   6.591
 4404POPC   C3B57177   0.912  15.958   6.996
 4404POPC   C4B57178   0.827  15.745   7.380
 4405POPC   NC357179  37.461  36.613   5.315
 4405POPC   PO457180  37.894  37.082   5.383
 4405POPC   GL157181  37.791  36.778   5.723
 4405POPC   GL257182  37.435  36.837   5.764
 4405POPC   C1A57183  37.692  36.801   6.188
 4405POPC   D2A57184  37.671  37.057   6.545
 4405POPC   C3A57185  37.636  36.905   6.970
 4405POPC   C4A57186  37.861  37.175   7.255
 4405POPC   C1B57187  37.214  36.646   6.107
 4405POPC   C2B57188  37.289  36.721   6.560
 4405POPC   C3B57189  37.082  36.685   6.968
 4405POPC   C4B57190  37.217  36.853   7.379
 4406POPC   NC357191  20.546  35.683   5.363
 4406POPC   PO457192  20.840  36.275   5.435
 4406POPC   GL157193  20.895  36.220   5.881
 4406POPC   GL257194  20.545  36.243   5.990
 4406POPC   C1A57195  20.905  36.073   6.321
 4406POPC   D2A57196  20.578  36.015   6.601
 4406POPC   C3A57197  20.554  36.247   6.953
 4406POPC   C4A57198  20.716  36.293   7.346
 4406POPC   C1B57199  20.515  35.790   6.133
 4406POPC   C2B57200  20.315  35.593   6.512
 4406POPC   C3B57201  20.194  35.838   6.889
 4406POPC   C4B57202  20.460  35.828   7.250
 4407POPC   NC357203  32.525   6.373   5.445
 4407POPC   PO457204  31.932   6.691   5.489
 4407POPC   GL157205  32.169   6.542   5.832
 4407POPC   GL257206  32.501   6.358   5.947
 4407POPC   C1A57207  32.143   6.593   6.256
 4407POPC   D2A57208  32.357   6.537   6.574
 4407POPC   C3A57209  32.131   6.643   6.887
 4407POPC   C4A57210  32.415   6.579   7.200
 4407POPC   C1B57211  32.555   6.825   6.078
 4407POPC   C2B57212  32.435   7.045   6.479
 4407POPC   C3B57213  32.567   6.970   6.909
 4407POPC   C4B57214  32.584   7.041   7.376
 4408POPC   NC357215  34.029   1.425   5.345
 4408POPC   PO457216  33.468   1.104   5.500
 4408POPC   GL157217  33.782   1.302   5.774
 4408POPC   GL257218  34.003   1.019   5.775
 4408POPC   C1A57219  34.003   1.311   6.187
 4408POPC   D2A57220  33.786   1.271   6.564
 4408POPC   C3A57221  33.957   1.263   6.979
 4408POPC   C4A57222  33.636   1.324   7.317
 4408POPC   C1B57223  33.686   0.899   6.104
 4408POPC   C2B57224  33.586   0.785   6.504
 4408POPC   C3B57225  33.600   0.906   6.931
 4408POPC   C4B57226  33.861   0.877   7.322
 4409POPC   NC357227   3.113   9.426   5.576
 4409POPC   PO457228   2.705   9.948   5.473
 4409POPC   GL157229   2.761   9.882   5.880
 4409POPC   GL257230   2.717   9.502   5.903
 4409POPC   C1A57231   2.992   9.745   6.248
 4409POPC   D2A57232   3.041   9.392   6.513
 4409POPC   C3A57233   3.036   9.597   6.896
 4409POPC   C4A57234   2.770   9.951   6.909
 4409POPC   C1B57235   2.489   9.355   6.290
 4409POPC   C2B57236   2.476   9.408   6.748
 4409POPC   C3B57237   2.607   9.512   7.155
 4409POPC   C4B57238   2.488   9.358   7.549
 4410POPC   NC357239  34.683  42.064   5.488
 4410POPC   PO457240  34.509  41.459   5.551
 4410POPC   GL157241  34.266  41.721   5.851
 4410POPC   GL257242  34.424  42.030   5.935
 4410POPC   C1A57243  34.323  41.654   6.287
 4410POPC   D2A57244  34.655  41.483   6.535
 4410POPC   C3A57245  34.528  41.454   6.975
 4410POPC   C4A57246  34.489  41.737   7.354
 4410POPC   C1B57247  34.786  41.859   6.143
 4410POPC   C2B57248  34.999  41.873   6.515
 4410POPC   C3B57249  34.738  41.899   6.828
 4410POPC   C4B57250  34.937  41.861   7.157
 4411POPC   NC357251  13.360  33.210   5.367
 4411POPC   PO457252  13.818  32.826   5.483
 4411POPC   GL157253  13.462  32.855   5.768
 4411POPC   GL257254  13.408  33.213   5.876
 4411POPC   C1A57255  13.459  32.744   6.203
 4411POPC   D2A57256  13.374  32.979   6.571
 4411POPC   C3A57257  13.568  32.878   6.934
 4411POPC   C4A57258  13.698  32.820   7.329
 4411POPC   C1B57259  13.654  33.245   6.243
 4411POPC   C2B57260  13.808  33.258   6.672
 4411POPC   C3B57261  13.542  33.374   7.009
 4411POPC   C4B57262  13.570  33.304   7.448
 4412POPC   NC357263   4.285   5.507   5.489
 4412POPC   PO457264   4.531   6.143   5.491
 4412POPC   GL157265   4.310   5.944   5.806
 4412POPC   GL257266   4.615   5.728   5.843
 4412POPC   C1A57267   4.093   6.020   6.217
 4412POPC   D2A57268   4.307   6.204   6.588
 4412POPC   C3A57269   4.152   6.083   7.029
 4412POPC   C4A57270   4.060   6.157   7.503
 4412POPC   C1B57271   4.601   5.900   6.252
 4412POPC   C2B57272   4.520   5.721   6.675
 4412POPC   C3B57273   4.571   5.810   7.129
 4412POPC   C4B57274   4.443   5.807   7.572
 4413POPC   NC357275  23.724   4.545   5.464
 4413POPC   PO457276  23.454   4.095   5.154
 4413POPC   GL157277  23.581   4.071   5.706
 4413POPC   GL257278  23.678   4.358   5.935
 4413POPC   C1A57279  23.775   3.909   6.148
 4413POPC   D2A57280  24.002   4.149   6.453
 4413POPC   C3A57281  23.746   4.277   6.783
 4413POPC   C4A57282  23.783   4.159   7.198
 4413POPC   C1B57283  23.502   4.317   6.326
 4413POPC   C2B57284  23.381   4.610   6.618
 4413POPC   C3B57285  23.295   4.484   7.011
 4413POPC   C4B57286  23.459   4.496   7.421
 4414POPC   NC357287  19.095  17.726   5.475
 4414POPC   PO457288  18.631  17.324   5.249
 4414POPC   GL157289  18.935  17.318   5.708
 4414POPC   GL257290  19.265  17.339   5.855
 4414POPC   C1A57291  18.925  17.281   6.209
 4414POPC   D2A57292  19.109  16.994   6.576
 4414POPC   C3A57293  19.105  17.215   7.007
 4414POPC   C4A57294  18.839  17.584   7.034
 4414POPC   C1B57295  19.190  17.729   6.123
 4414POPC   C2B57296  19.102  17.855   6.569
 4414POPC   C3B57297  19.343  17.720   6.946
 4414POPC   C4B57298  19.436  17.756   7.386
 4415POPC   NC357299  19.607  34.253   5.264
 4415POPC   PO457300  20.011  34.780   5.410
 4415POPC   GL157301  19.857  34.480   5.690
 4415POPC   GL257302  19.511  34.610   5.629
 4415POPC   C1A57303  20.021  34.445   6.129
 4415POPC   D2A57304  19.989  34.755   6.467
 4415POPC   C3A57305  20.130  34.687   6.892
 4415POPC   C4A57306  20.036  34.418   7.264
 4415POPC   C1B57307  19.563  34.648   6.073
 4415POPC   C2B57308  19.565  34.464   6.484
 4415POPC   C3B57309  19.641  34.580   6.950
 4415POPC   C4B57310  19.576  34.751   7.417
 4416POPC   NC357311  33.316  21.720   5.111
 4416POPC   PO457312  33.955  21.510   5.373
 4416POPC   GL157313  33.733  21.440   5.755
 4416POPC   GL257314  34.043  21.391   5.919
 4416POPC   C1A57315  33.613  21.529   6.181
 4416POPC   D2A57316  33.864  21.716   6.505
 4416POPC   C3A57317  33.624  21.574   6.846
 4416POPC   C4A57318  33.531  21.445   7.264
 4416POPC   C1B57319  33.976  21.162   6.291
 4416POPC   C2B57320  34.044  21.273   6.677
 4416POPC   C3B57321  34.054  21.341   7.086
 4416POPC   C4B57322  34.120  20.947   7.345
 4417POPC   NC357323  23.544   2.359   5.458
 4417POPC   PO457324  23.907   2.816   5.043
 4417POPC   GL157325  23.919   2.729   5.545
 4417POPC   GL257326  24.009   2.390   5.736
 4417POPC   C1A57327  23.868   2.781   6.030
 4417POPC   D2A57328  23.877   2.769   6.493
 4417POPC   C3A57329  23.511   2.756   6.779
 4417POPC   C4A57330  23.540   2.648   7.216
 4417POPC   C1B57331  24.113   2.360   6.222
 4417POPC   C2B57332  24.140   2.361   6.720
 4417POPC   C3B57333  24.062   2.701   7.029
 4417POPC   C4B57334  24.071   2.719   7.488
 4418POPC   NC357335  12.593  40.947   5.098
 4418POPC   PO457336  13.176  40.753   5.316
 4418POPC   GL157337  12.946  40.887   5.673
 4418POPC   GL257338  12.580  40.830   5.671
 4418POPC   C1A57339  12.829  40.971   6.085
 4418POPC   D2A57340  12.913  40.702   6.402
 4418POPC   C3A57341  12.932  40.746   6.855
 4418POPC   C4A57342  12.825  40.823   7.297
 4418POPC   C1B57343  12.503  40.560   6.091
 4418POPC   C2B57344  12.500  40.486   6.585
 4418POPC   C3B57345  12.664  40.336   7.010
 4418POPC   C4B57346  12.592  40.417   7.470
 4419POPC   NC357347   0.038   3.259   5.372
 4419POPC   PO457348  44.805   3.862   5.621
 4419POPC   GL157349  44.812   3.465   5.800
 4419POPC   GL257350  44.564   3.249   5.930
 4419POPC   C1A57351  44.990   3.427   6.196
 4419POPC   D2A57352   0.153   3.646   6.540
 4419POPC   C3A57353  44.974   3.546   6.926
 4419POPC   C4A57354  44.597   3.655   7.187
 4419POPC   C1B57355  44.522   3.638   6.214
 4419POPC   C2B57356  44.455   3.732   6.654
 4419POPC   C3B57357  44.155   3.524   6.907
 4419POPC   C4B57358  44.165   3.390   7.325
 4420POPC   NC357359  41.981  20.300   5.432
 4420POPC   PO457360  42.316  19.716   5.440
 4420POPC   GL157361  42.406  19.748   5.820
 4420POPC   GL257362  42.359  20.104   5.793
 4420POPC   C1A57363  42.261  19.803   6.214
 4420POPC   D2A57364  42.098  19.895   6.579
 4420POPC   C3A57365  42.236  19.673   6.918
 4420POPC   C4A57366  41.955  19.724   7.235
 4420POPC   C1B57367  42.638  20.145   6.142
 4420POPC   C2B57368  42.557  20.292   6.569
 4420POPC   C3B57369  42.496  20.115   7.012
 4420POPC   C4B57370  42.490  19.775   7.371
 4421POPC   NC357371  41.240  28.185   5.469
 4421POPC   PO457372  41.643  28.743   5.369
 4421POPC   GL157373  41.592  28.512   5.768
 4421POPC   GL257374  41.733  28.172   5.678
 4421POPC   C1A57375  41.462  28.446   6.227
 4421POPC   D2A57376  41.513  28.671   6.631
 4421POPC   C3A57377  41.255  28.524   6.976
 4421POPC   C4A57378  41.129  28.061   7.042
 4421POPC   C1B57379  41.877  28.168   6.108
 4421POPC   C2B57380  41.851  28.273   6.561
 4421POPC   C3B57381  41.654  28.208   6.946
 4421POPC   C4B57382  41.736  28.195   7.379
 4422POPC   NC357383  26.558  12.906   5.453
 4422POPC   PO457384  27.183  12.689   5.344
 4422POPC   GL157385  26.911  12.702   5.761
 4422POPC   GL257386  26.549  12.528   5.806
 4422POPC   C1A57387  26.711  12.922   6.126
 4422POPC   D2A57388  26.804  13.232   6.421
 4422POPC   C3A57389  26.697  13.094   6.828
 4422POPC   C4A57390  26.786  12.876   7.179
 4422POPC   C1B57391  26.334  12.594   6.226
 4422POPC   C2B57392  26.284  12.900   6.599
 4422POPC   C3B57393  26.273  12.764   7.058
 4422POPC   C4B57394  26.473  12.622   7.486
 4423POPC   NC357395  40.163  27.905   5.643
 4423POPC   PO457396  39.973  28.479   5.329
 4423POPC   GL157397  40.157  28.478   5.754
 4423POPC   GL257398  40.144  28.232   6.021
 4423POPC   C1A57399  40.217  28.716   6.134
 4423POPC   D2A57400  39.984  28.569   6.500
 4423POPC   C3A57401  40.084  28.346   6.889
 4423POPC   C4A57402  40.323  28.378   7.259
 4423POPC   C1B57403  39.781  28.063   6.220
 4423POPC   C2B57404  39.639  28.183   6.620
 4423POPC   C3B57405  39.680  28.009   7.015
 4423POPC   C4B57406  39.908  28.078   7.378
 4424POPC   NC357407  14.115  40.497   5.434
 4424POPC   PO457408  14.020  41.095   5.139
 4424POPC   GL157409  14.157  40.991   5.636
 4424POPC   GL257410  14.449  40.741   5.761
 4424POPC   C1A57411  14.180  40.907   6.149
 4424POPC   D2A57412  14.206  40.525   6.468
 4424POPC   C3A57413  14.241  40.656   6.898
 4424POPC   C4A57414  14.323  41.116   6.977
 4424POPC   C1B57415  14.643  40.670   6.208
 4424POPC   C2B57416  14.700  40.685   6.677
 4424POPC   C3B57417  14.682  40.738   7.138
 4424POPC   C4B57418  14.661  40.760   7.572
 4425POPC   NC357419   0.805   2.625   5.463
 4425POPC   PO457420   1.347   3.112   5.438
 4425POPC   GL157421   1.204   2.811   5.751
 4425POPC   GL257422   1.446   2.549   5.885
 4425POPC   C1A57423   1.003   2.631   6.103
 4425POPC   D2A57424   1.001   2.599   6.529
 4425POPC   C3A57425   0.919   2.955   6.742
 4425POPC   C4A57426   1.003   2.994   7.159
 4425POPC   C1B57427   1.458   2.853   6.212
 4425POPC   C2B57428   1.384   3.084   6.553
 4425POPC   C3B57429   1.503   2.987   6.949
 4425POPC   C4B57430   1.424   2.796   7.353
 4426POPC   NC357431  21.087   1.054   5.166
 4426POPC   PO457432  20.479   1.060   5.344
 4426POPC   GL157433  20.481   1.235   5.793
 4426POPC   GL257434  20.672   1.488   5.864
 4426POPC   C1A57435  20.588   1.222   6.295
 4426POPC   D2A57436  20.533   1.019   6.682
 4426POPC   C3A57437  20.677   1.146   7.076
 4426POPC   C4A57438  20.877   1.465   7.297
 4426POPC   C1B57439  20.284   1.564   6.115
 4426POPC   C2B57440  20.177   1.487   6.520
 4426POPC   C3B57441  20.358   1.511   6.913
 4426POPC   C4B57442  20.393   1.733   7.286
 4427POPC   NC357443   8.448  16.884   5.136
 4427POPC   PO457444   8.073  16.439   5.305
 4427POPC   GL157445   8.146  16.506   5.792
 4427POPC   GL257446   8.402  16.736   5.862
 4427POPC   C1A57447   8.063  16.595   6.267
 4427POPC   D2A57448   8.269  16.579   6.689
 4427POPC   C3A57449   8.166  16.734   7.113
 4427POPC   C4A57450   8.058  16.537   7.529
 4427POPC   C1B57451   8.413  16.980   6.275
 4427POPC   C2B57452   8.373  17.089   6.715
 4427POPC   C3B57453   8.636  17.027   7.070
 4427POPC   C4B57454   8.701  17.196   7.486
 4428POPC   NC357455  11.446  30.368   5.470
 4428POPC   PO457456  11.225  31.033   5.403
 4428POPC   GL157457  11.267  31.017   5.829
 4428POPC   GL257458  11.261  30.644   5.907
 4428POPC   C1A57459  11.410  31.008   6.255
 4428POPC   D2A57460  11.659  30.739   6.536
 4428POPC   C3A57461  11.699  30.865   6.959
 4428POPC   C4A57462  11.352  30.811   7.204
 4428POPC   C1B57463  10.956  30.365   6.131
 4428POPC   C2B57464  10.843  30.115   6.503
 4428POPC   C3B57465  10.918  30.256   6.925
 4428POPC   C4B57466  10.873  30.559   7.270
 4429POPC   NC357467  31.933  35.404   5.344
 4429POPC   PO457468  32.349  35.000   5.613
 4429POPC   GL157469  32.419  35.402   5.794
 4429POPC   GL257470  32.080  35.457   5.846
 4429POPC   C1A57471  32.591  35.529   6.203
 4429POPC   D2A57472  32.530  35.275   6.593
 4429POPC   C3A57473  32.350  35.471   6.979
 4429POPC   C4A57474  31.998  35.491   7.285
 4429POPC   C1B57475  32.109  35.371   6.277
 4429POPC   C2B57476  31.905  35.449   6.674
 4429POPC   C3B57477  31.851  35.128   6.974
 4429POPC   C4B57478  31.608  34.965   7.335
 4430POPC   NC357479  16.208  26.274   5.409
 4430POPC   PO457480  16.889  26.127   5.581
 4430POPC   GL157481  16.488  26.159   5.803
 4430POPC   GL257482  16.320  25.831   5.704
 4430POPC   C1A57483  16.397  26.281   6.239
 4430POPC   D2A57484  16.286  26.407   6.673
 4430POPC   C3A57485  16.508  26.128   6.968
 4430POPC   C4A57486  16.889  26.174   7.147
 4430POPC   C1B57487  16.576  25.801   6.122
 4430POPC   C2B57488  16.715  25.832   6.563
 4430POPC   C3B57489  16.849  25.672   6.956
 4430POPC   C4B57490  16.705  25.734   7.375
 4431POPC   NC357491   4.724   4.871   5.504
 4431POPC   PO457492   4.086   5.102   5.499
 4431POPC   GL157493   4.299   4.933   5.806
 4431POPC   GL257494   4.498   5.200   5.841
 4431POPC   C1A57495   4.317   4.931   6.231
 4431POPC   D2A57496   4.236   5.219   6.531
 4431POPC   C3A57497   4.336   5.010   6.879
 4431POPC   C4A57498   4.154   4.903   7.230
 4431POPC   C1B57499   4.621   5.366   6.211
 4431POPC   C2B57500   4.760   5.215   6.593
 4431POPC   C3B57501   4.714   5.350   6.976
 4431POPC   C4B57502   4.406   5.353   7.274
 4432POPC   NC357503   2.589   6.191   5.463
 4432POPC   PO457504   2.749   5.517   5.305
 4432POPC   GL157505   2.911   5.803   5.671
 4432POPC   GL257506   2.607   5.844   5.855
 4432POPC   C1A57507   2.982   6.106   6.072
 4432POPC   D2A57508   3.024   6.273   6.523
 4432POPC   C3A57509   3.160   6.011   6.875
 4432POPC   C4A57510   2.957   5.945   7.282
 4432POPC   C1B57511   2.466   6.223   6.102
 4432POPC   C2B57512   2.427   6.214   6.543
 4432POPC   C3B57513   2.633   6.163   6.933
 4432POPC   C4B57514   2.426   6.129   7.313
 4433POPC   NC357515  21.686  34.828   5.589
 4433POPC   PO457516  20.983  34.920   5.594
 4433POPC   GL157517  21.291  34.741   5.887
 4433POPC   GL257518  21.435  34.393   5.809
 4433POPC   C1A57519  21.507  34.909   6.243
 4433POPC   D2A57520  21.492  34.774   6.646
 4433POPC   C3A57521  21.203  34.838   6.992
 4433POPC   C4A57522  21.183  34.978   7.402
 4433POPC   C1B57523  21.697  34.424   6.203
 4433POPC   C2B57524  21.856  34.432   6.653
 4433POPC   C3B57525  21.580  34.442   7.024
 4433POPC   C4B57526  21.136  34.350   7.152
 4434POPC   NC357527  20.992   7.553   5.651
 4434POPC   PO457528  20.428   7.245   5.508
 4434POPC   GL157529  20.509   7.569   5.858
 4434POPC   GL257530  20.689   7.915   5.800
 4434POPC   C1A57531  20.664   7.414   6.251
 4434POPC   D2A57532  20.803   7.339   6.665
 4434POPC   C3A57533  20.522   7.451   7.018
 4434POPC   C4A57534  20.511   7.353   7.474
 4434POPC   C1B57535  20.880   7.860   6.221
 4434POPC   C2B57536  20.794   7.831   6.650
 4434POPC   C3B57537  20.922   7.791   7.057
 4434POPC   C4B57538  20.696   7.982   7.368
 4435POPC   NC357539  31.610   1.587   5.371
 4435POPC   PO457540  31.585   0.954   5.426
 4435POPC   GL157541  31.507   1.084   5.851
 4435POPC   GL257542  31.598   1.434   5.866
 4435POPC   C1A57543  31.325   1.215   6.259
 4435POPC   D2A57544  31.477   1.426   6.657
 4435POPC   C3A57545  31.449   1.214   7.075
 4435POPC   C4A57546  31.309   1.201   7.514
 4435POPC   C1B57547  31.844   1.388   6.258
 4435POPC   C2B57548  31.956   1.650   6.631
 4435POPC   C3B57549  31.793   1.639   7.046
 4435POPC   C4B57550  31.653   1.803   7.452
 4436POPC   NC357551  20.069   7.546   5.582
 4436POPC   PO457552  19.759   7.108   5.208
 4436POPC   GL157553  19.629   7.194   5.641
 4436POPC   GL257554  19.928   7.072   5.777
 4436POPC   C1A57555  19.630   7.425   6.065
 4436POPC   D2A57556  19.896   7.440   6.436
 4436POPC   C3A57557  19.789   7.436   6.855
 4436POPC   C4A57558  19.585   7.314   7.225
 4436POPC   C1B57559  20.197   7.200   6.120
 4436POPC   C2B57560  20.329   7.171   6.550
 4436POPC   C3B57561  20.202   7.044   6.907
 4436POPC   C4B57562  20.075   7.242   7.265
 4437POPC   NC357563   4.418  44.878   5.313
 4437POPC   PO457564   4.165  44.268   5.469
 4437POPC   GL157565   4.271  44.429   5.890
 4437POPC   GL257566   4.393  44.775   5.808
 4437POPC   C1A57567   4.333  44.378   6.369
 4437POPC   D2A57568   4.453  44.542   6.752
 4437POPC   C3A57569   4.283  44.960   6.740
 4437POPC   C4A57570   4.023   0.157   7.078
 4437POPC   C1B57571   4.662  44.685   6.125
 4437POPC   C2B57572   4.771  44.849   6.479
 4437POPC   C3B57573   4.813  44.893   6.884
 4437POPC   C4B57574   4.520  44.870   7.183
 4438POPC   NC357575  41.139  14.925   5.336
 4438POPC   PO457576  40.691  15.474   5.288
 4438POPC   GL157577  40.779  15.301   5.774
 4438POPC   GL257578  41.133  15.211   5.822
 4438POPC   C1A57579  40.835  15.197   6.284
 4438POPC   D2A57580  40.600  14.993   6.696
 4438POPC   C3A57581  40.766  15.040   7.141
 4438POPC   C4A57582  40.755  15.446   7.228
 4438POPC   C1B57583  41.126  14.809   6.084
 4438POPC   C2B57584  41.035  14.782   6.522
 4438POPC   C3B57585  41.077  15.160   6.776
 4438POPC   C4B57586  41.295  15.050   7.148
 4439POPC   NC357587   4.122  23.655   5.501
 4439POPC   PO457588   4.576  23.440   5.100
 4439POPC   GL157589   4.579  23.756   5.664
 4439POPC   GL257590   4.319  23.672   5.957
 4439POPC   C1A57591   4.728  23.936   6.068
 4439POPC   D2A57592   4.616  23.826   6.489
 4439POPC   C3A57593   4.323  24.051   6.785
 4439POPC   C4A57594   4.420  23.863   7.183
 4439POPC   C1B57595   4.460  23.378   6.270
 4439POPC   C2B57596   4.330  23.310   6.687
 4439POPC   C3B57597   4.283  23.366   7.119
 4439POPC   C4B57598   4.147  23.524   7.501
 4440POPC   NC357599  38.895   3.153   5.472
 4440POPC   PO457600  39.347   3.544   5.268
 4440POPC   GL157601  39.230   3.545   5.708
 4440POPC   GL257602  39.419   3.247   5.715
 4440POPC   C1A57603  39.066   3.677   6.149
 4440POPC   D2A57604  38.849   3.502   6.539
 4440POPC   C3A57605  38.974   3.573   6.984
 4440POPC   C4A57606  39.247   3.854   7.204
 4440POPC   C1B57607  39.424   3.321   6.166
 4440POPC   C2B57608  39.622   3.490   6.541
 4440POPC   C3B57609  39.503   3.458   6.973
 4440POPC   C4B57610  39.294   3.214   7.279
 4441POPC   NC357611  37.230   3.250   5.491
 4441POPC   PO457612  36.783   2.634   5.538
 4441POPC   GL157613  37.041   2.582   5.871
 4441POPC   GL257614  37.176   2.252   5.919
 4441POPC   C1A57615  36.901   2.656   6.277
 4441POPC   D2A57616  36.707   2.979   6.521
 4441POPC   C3A57617  36.907   3.003   6.930
 4441POPC   C4A57618  36.748   2.943   7.337
 4441POPC   C1B57619  37.455   2.494   6.160
 4441POPC   C2B57620  37.325   2.674   6.564
 4441POPC   C3B57621  37.132   2.540   6.958
 4441POPC   C4B57622  37.231   2.792   7.314
 4442POPC   NC357623   9.197  30.656   5.147
 4442POPC   PO457624   8.770  30.497   5.586
 4442POPC   GL157625   8.722  30.887   5.798
 4442POPC   GL257626   9.020  31.108   5.695
 4442POPC   C1A57627   8.683  30.827   6.256
 4442POPC   D2A57628   8.889  30.580   6.586
 4442POPC   C3A57629   8.654  30.639   6.961
 4442POPC   C4A57630   8.674  30.379   7.290
 4442POPC   C1B57631   9.152  30.839   6.075
 4442POPC   C2B57632   9.405  30.761   6.433
 4442POPC   C3B57633   9.302  30.844   6.840
 4442POPC   C4B57634   9.126  30.616   7.165
 4443POPC   NC357635  20.969   3.494   5.395
 4443POPC   PO457636  20.418   3.790   5.506
 4443POPC   GL157637  20.607   3.522   5.810
 4443POPC   GL257638  20.920   3.605   5.889
 4443POPC   C1A57639  20.471   3.380   6.213
 4443POPC   D2A57640  20.312   3.199   6.572
 4443POPC   C3A57641  20.328   3.380   6.951
 4443POPC   C4A57642  20.394   3.232   7.371
 4443POPC   C1B57643  20.822   3.745   6.288
 4443POPC   C2B57644  20.630   3.715   6.701
 4443POPC   C3B57645  20.751   3.613   7.137
 4443POPC   C4B57646  20.686   3.894   7.509
 4444POPC   NC357647  41.842  18.043   5.032
 4444POPC   PO457648  42.296  18.350   5.459
 4444POPC   GL157649  42.325  18.373   5.884
 4444POPC   GL257650  42.657  18.463   5.991
 4444POPC   C1A57651  42.095  18.277   6.249
 4444POPC   D2A57652  42.137  18.136   6.675
 4444POPC   C3A57653  42.104  18.479   6.973
 4444POPC   C4A57654  42.251  18.464   7.368
 4444POPC   C1B57655  42.596  18.115   6.288
 4444POPC   C2B57656  42.660  17.971   6.700
 4444POPC   C3B57657  42.534  18.201   7.049
 4444POPC   C4B57658  42.756  18.454   7.428
 4445POPC   NC357659  27.937   6.098   5.497
 4445POPC   PO457660  27.630   5.536   5.447
 4445POPC   GL157661  27.563   5.822   5.780
 4445POPC   GL257662  27.303   6.096   5.707
 4445POPC   C1A57663  27.437   5.694   6.193
 4445POPC   D2A57664  27.293   5.461   6.539
 4445POPC   C3A57665  27.495   5.637   6.855
 4445POPC   C4A57666  27.537   5.764   7.244
 4445POPC   C1B57667  27.454   6.205   6.130
 4445POPC   C2B57668  27.554   6.221   6.573
 4445POPC   C3B57669  27.416   6.198   7.025
 4445POPC   C4B57670  27.536   6.216   7.517
 4446POPC   NC357671  36.400  12.714   5.433
 4446POPC   PO457672  35.848  13.062   5.396
 4446POPC   GL157673  36.130  12.972   5.774
 4446POPC   GL257674  36.249  12.611   5.909
 4446POPC   C1A57675  36.303  13.150   6.160
 4446POPC   D2A57676  36.432  13.143   6.604
 4446POPC   C3A57677  36.088  13.191   6.895
 4446POPC   C4A57678  36.207  13.098   7.295
 4446POPC   C1B57679  35.924  12.769   6.193
 4446POPC   C2B57680  35.855  12.790   6.622
 4446POPC   C3B57681  36.025  12.708   7.008
 4446POPC   C4B57682  35.795  12.829   7.302
 4447POPC   NC357683  31.125   7.928   5.544
 4447POPC   PO457684  30.805   7.508   5.178
 4447POPC   GL157685  30.680   7.521   5.656
 4447POPC   GL257686  30.982   7.550   5.856
 4447POPC   C1A57687  30.422   7.313   6.037
 4447POPC   D2A57688  30.365   7.171   6.486
 4447POPC   C3A57689  30.452   7.319   6.918
 4447POPC   C4A57690  30.617   7.246   7.354
 4447POPC   C1B57691  30.709   7.705   6.190
 4447POPC   C2B57692  30.717   7.678   6.637
 4447POPC   C3B57693  30.809   7.668   7.084
 4447POPC   C4B57694  30.828   7.771   7.549
 4448POPC   NC357695   8.578  27.498   5.402
 4448POPC   PO457696   7.883  27.613   5.444
 4448POPC   GL157697   8.204  27.520   5.774
 4448POPC   GL257698   8.383  27.835   5.769
 4448POPC   C1A57699   8.126  27.448   6.226
 4448POPC   D2A57700   8.085  27.684   6.627
 4448POPC   C3A57701   7.963  27.412   6.976
 4448POPC   C4A57702   8.244  27.142   7.184
 4448POPC   C1B57703   8.383  27.882   6.227
 4448POPC   C2B57704   8.587  27.749   6.639
 4448POPC   C3B57705   8.527  27.675   7.091
 4448POPC   C4B57706   8.532  27.996   7.412
 4449POPC   NC357707  22.658   2.035   5.325
 4449POPC   PO457708  23.354   1.953   5.295
 4449POPC   GL157709  23.111   1.907   5.665
 4449POPC   GL257710  22.795   1.720   5.713
 4449POPC   C1A57711  23.178   1.910   6.122
 4449POPC   D2A57712  23.005   1.844   6.552
 4449POPC   C3A57713  22.819   2.217   6.755
 4449POPC   C4A57714  22.902   2.330   7.169
 4449POPC   C1B57715  22.661   1.769   6.163
 4449POPC   C2B57716  22.482   1.813   6.625
 4449POPC   C3B57717  22.698   1.827   7.057
 4449POPC   C4B57718  22.639   1.729   7.512
 4450POPC   NC357719  34.470   8.775   5.331
 4450POPC   PO457720  35.108   8.931   5.379
 4450POPC   GL157721  34.803   8.901   5.733
 4450POPC   GL257722  34.469   9.098   5.734
 4450POPC   C1A57723  34.691   8.892   6.172
 4450POPC   D2A57724  34.635   9.141   6.556
 4450POPC   C3A57725  34.678   8.957   6.967
 4450POPC   C4A57726  34.358   8.686   7.156
 4450POPC   C1B57727  34.210   9.025   6.098
 4450POPC   C2B57728  34.125   9.272   6.492
 4450POPC   C3B57729  34.226   9.250   6.955
 4450POPC   C4B57730  34.220   9.488   7.365
 4451POPC   NC357731  13.831  25.048   5.305
 4451POPC   PO457732  13.112  25.069   5.554
 4451POPC   GL157733  13.389  25.329   5.823
 4451POPC   GL257734  13.749  25.308   5.738
 4451POPC   C1A57735  13.279  25.464   6.239
 4451POPC   D2A57736  13.547  25.451   6.584
 4451POPC   C3A57737  13.431  25.282   6.965
 4451POPC   C4A57738  13.691  25.398   7.303
 4451POPC   C1B57739  13.989  25.041   6.006
 4451POPC   C2B57740  13.940  25.144   6.428
 4451POPC   C3B57741  13.917  25.169   6.876
 4451POPC   C4B57742  14.015  24.909   7.221
 4452POPC   NC357743  21.801  15.787   5.183
 4452POPC   PO457744  22.269  16.164   5.524
 4452POPC   GL157745  22.182  15.950   5.877
 4452POPC   GL257746  21.868  16.090   5.991
 4452POPC   C1A57747  22.238  15.900   6.309
 4452POPC   D2A57748  22.110  15.682   6.654
 4452POPC   C3A57749  22.223  15.891   7.015
 4452POPC   C4A57750  22.158  15.980   7.462
 4452POPC   C1B57751  21.708  15.828   6.327
 4452POPC   C2B57752  21.651  15.884   6.775
 4452POPC   C3B57753  21.777  15.724   7.201
 4452POPC   C4B57754  21.684  15.520   7.616
 4453POPC   NC357755   9.999  24.465   5.516
 4453POPC   PO457756  10.653  24.596   5.316
 4453POPC   GL157757  10.470  24.575   5.739
 4453POPC   GL257758  10.240  24.860   5.736
 4453POPC   C1A57759  10.324  24.452   6.165
 4453POPC   D2A57760  10.210  24.281   6.599
 4453POPC   C3A57761  10.328  24.461   7.029
 4453POPC   C4A57762  10.330  24.402   7.537
 4453POPC   C1B57763  10.208  24.946   6.170
 4453POPC   C2B57764  10.364  24.814   6.551
 4453POPC   C3B57765  10.479  24.975   6.931
 4453POPC   C4B57766  10.391  24.871   7.362
 4454POPC   NC357767   8.386   9.906   5.417
 4454POPC   PO457768   7.789  10.010   5.455
 4454POPC   GL157769   8.008   9.652   5.709
 4454POPC   GL257770   8.370   9.703   5.876
 4454POPC   C1A57771   8.050   9.397   6.111
 4454POPC   D2A57772   8.389   9.467   6.429
 4454POPC   C3A57773   8.319   9.566   6.876
 4454POPC   C4A57774   8.457   9.520   7.305
 4454POPC   C1B57775   8.134   9.878   6.223
 4454POPC   C2B57776   7.958   9.771   6.559
 4454POPC   C3B57777   7.979   9.952   6.975
 4454POPC   C4B57778   8.224   9.972   7.339
 4455POPC   NC357779  15.717   4.747   5.059
 4455POPC   PO457780  16.063   5.263   5.374
 4455POPC   GL157781  15.997   5.141   5.776
 4455POPC   GL257782  16.073   4.845   5.821
 4455POPC   C1A57783  15.860   5.274   6.172
 4455POPC   D2A57784  15.636   5.296   6.551
 4455POPC   C3A57785  15.831   5.149   6.919
 4455POPC   C4A57786  15.642   5.053   7.320
 4455POPC   C1B57787  15.870   4.749   6.217
 4455POPC   C2B57788  15.704   4.738   6.625
 4455POPC   C3B57789  15.911   4.652   7.028
 4455POPC   C4B57790  16.183   4.939   7.249
 4456POPC   NC357791   0.009  14.088   5.544
 4456POPC   PO457792  44.326  13.915   5.506
 4456POPC   GL157793  44.550  14.123   5.832
 4456POPC   GL257794  44.626  14.481   5.804
 4456POPC   C1A57795  44.461  14.254   6.262
 4456POPC   D2A57796  44.763  14.336   6.594
 4456POPC   C3A57797  44.664  14.300   7.036
 4456POPC   C4A57798  44.886  14.168   7.400
 4456POPC   C1B57799  44.504  14.812   6.139
 4456POPC   C2B57800  44.449  15.016   6.580
 4456POPC   C3B57801  44.377  14.905   7.039
 4456POPC   C4B57802  44.490  14.664   7.398
 4457POPC   NC357803  28.575  38.742   5.341
 4457POPC   PO457804  28.036  38.308   5.286
 4457POPC   GL157805  28.366  38.375   5.631
 4457POPC   GL257806  28.344  38.651   5.840
 4457POPC   C1A57807  28.495  38.232   6.048
 4457POPC   D2A57808  28.414  38.507   6.407
 4457POPC   C3A57809  28.510  38.380   6.840
 4457POPC   C4A57810  28.655  38.395   7.250
 4457POPC   C1B57811  28.105  38.854   6.168
 4457POPC   C2B57812  27.985  38.731   6.581
 4457POPC   C3B57813  28.022  38.545   6.965
 4457POPC   C4B57814  28.223  38.695   7.310
 4458POPC   NC357815   0.400   4.830   5.371
 4458POPC   PO457816   0.019   5.356   5.295
 4458POPC   GL157817   0.356   5.279   5.674
 4458POPC   GL257818   0.550   4.930   5.819
 4458POPC   C1A57819   0.508   5.343   6.093
 4458POPC   D2A57820   0.357   5.458   6.486
 4458POPC   C3A57821   0.602   5.337   6.815
 4458POPC   C4A57822   0.507   5.186   7.208
 4458POPC   C1B57823   0.284   4.855   6.137
 4458POPC   C2B57824   0.356   4.955   6.528
 4458POPC   C3B57825   0.406   4.721   6.885
 4458POPC   C4B57826   0.546   4.686   7.282
 4459POPC   NC357827  36.755  38.843   5.606
 4459POPC   PO457828  37.126  38.725   5.025
 4459POPC   GL157829  37.138  38.496   5.523
 4459POPC   GL257830  36.839  38.321   5.694
 4459POPC   C1A57831  37.161  38.460   6.031
 4459POPC   D2A57832  37.011  38.687   6.422
 4459POPC   C3A57833  36.786  38.560   6.798
 4459POPC   C4A57834  37.004  38.633   7.190
 4459POPC   C1B57835  36.645  38.436   6.153
 4459POPC   C2B57836  36.358  38.426   6.513
 4459POPC   C3B57837  36.364  38.245   6.931
 4459POPC   C4B57838  36.650  38.217   7.257
 4460POPC   NC357839  16.756  19.016   5.195
 4460POPC   PO457840  16.300  18.738   5.316
 4460POPC   GL157841  16.531  18.897   5.718
 4460POPC   GL257842  16.915  18.951   5.761
 4460POPC   C1A57843  16.627  18.847   6.207
 4460POPC   D2A57844  16.582  18.908   6.680
 4460POPC   C3A57845  16.791  18.813   7.090
 4460POPC   C4A57846  16.587  18.855   7.524
 4460POPC   C1B57847  17.136  18.952   6.203
 4460POPC   C2B57848  17.067  19.050   6.666
 4460POPC   C3B57849  17.049  19.258   7.096
 4460POPC   C4B57850  17.231  19.453   7.504
 4461POPC   NC357851  27.404  27.851   5.587
 4461POPC   PO457852  28.039  28.027   5.351
 4461POPC   GL157853  27.820  28.110   5.774
 4461POPC   GL257854  27.565  28.405   5.815
 4461POPC   C1A57855  27.639  28.084   6.210
 4461POPC   D2A57856  27.450  28.047   6.637
 4461POPC   C3A57857  27.723  28.258   6.933
 4461POPC   C4A57858  27.898  28.594   7.177
 4461POPC   C1B57859  27.260  28.439   6.197
 4461POPC   C2B57860  27.304  28.531   6.630
 4461POPC   C3B57861  27.385  28.665   7.043
 4461POPC   C4B57862  27.438  28.514   7.442
 4462POPC   NC357863  18.343  32.194   5.386
 4462POPC   PO457864  18.435  32.889   5.392
 4462POPC   GL157865  18.171  32.663   5.675
 4462POPC   GL257866  18.422  32.782   5.905
 4462POPC   C1A57867  18.167  32.354   6.036
 4462POPC   D2A57868  18.448  32.243   6.399
 4462POPC   C3A57869  18.364  32.140   6.850
 4462POPC   C4A57870  18.208  32.194   7.287
 4462POPC   C1B57871  18.634  32.707   6.282
 4462POPC   C2B57872  18.540  32.639   6.709
 4462POPC   C3B57873  18.537  32.589   7.116
 4462POPC   C4B57874  18.726  32.353   7.428
 4463POPC   NC357875  38.829  11.058   5.624
 4463POPC   PO457876  39.444  11.220   5.394
 4463POPC   GL157877  39.313  11.379   5.792
 4463POPC   GL257878  39.038  11.583   5.756
 4463POPC   C1A57879  39.170  11.274   6.207
 4463POPC   D2A57880  39.012  11.067   6.567
 4463POPC   C3A57881  39.236  11.052   6.951
 4463POPC   C4A57882  39.036  11.152   7.307
 4463POPC   C1B57883  38.976  11.746   6.118
 4463POPC   C2B57884  38.881  11.596   6.513
 4463POPC   C3B57885  38.913  11.458   6.895
 4463POPC   C4B57886  39.049  11.657   7.252
 4464POPC   NC357887  30.346   9.479   5.469
 4464POPC   PO457888  30.943   9.920   5.386
 4464POPC   GL157889  31.053   9.756   5.794
 4464POPC   GL257890  30.724   9.620   5.812
 4464POPC   C1A57891  30.973   9.808   6.251
 4464POPC   D2A57892  30.857   9.618   6.681
 4464POPC   C3A57893  30.942   9.841   7.090
 4464POPC   C4A57894  30.937  10.079   7.501
 4464POPC   C1B57895  30.513   9.538   6.206
 4464POPC   C2B57896  30.346   9.402   6.585
 4464POPC   C3B57897  30.441   9.511   6.978
 4464POPC   C4B57898  30.302   9.370   7.359
 4465POPC   NC357899   8.744  40.761   5.386
 4465POPC   PO457900   9.392  40.951   5.265
 4465POPC   GL157901   9.150  40.947   5.635
 4465POPC   GL257902   9.201  40.620   5.736
 4465POPC   C1A57903   8.945  40.906   6.057
 4465POPC   D2A57904   9.134  40.774   6.464
 4465POPC   C3A57905   8.941  41.000   6.806
 4465POPC   C4A57906   8.832  40.898   7.230
 4465POPC   C1B57907   8.926  40.419   6.067
 4465POPC   C2B57908   8.878  40.302   6.499
 4465POPC   C3B57909   8.938  40.412   6.928
 4465POPC   C4B57910   8.751  40.422   7.347
 4466POPC   NC357911  25.911  21.220   5.269
 4466POPC   PO457912  26.015  21.808   5.372
 4466POPC   GL157913  25.897  21.522   5.683
 4466POPC   GL257914  26.197  21.304   5.684
 4466POPC   C1A57915  25.877  21.329   6.079
 4466POPC   D2A57916  25.872  21.428   6.511
 4466POPC   C3A57917  26.104  21.281   6.853
 4466POPC   C4A57918  25.924  21.256   7.280
 4466POPC   C1B57919  26.382  21.358   6.082
 4466POPC   C2B57920  26.514  21.251   6.477
 4466POPC   C3B57921  26.622  21.213   6.897
 4466POPC   C4B57922  26.435  21.310   7.294
 4467POPC   NC357923  25.607  22.753   5.218
 4467POPC   PO457924  26.234  22.916   5.225
 4467POPC   GL157925  26.081  22.786   5.710
 4467POPC   GL257926  25.837  22.536   5.809
 4467POPC   C1A57927  26.208  22.667   6.176
 4467POPC   D2A57928  25.995  22.673   6.614
 4467POPC   C3A57929  26.172  22.781   7.055
 4467POPC   C4A57930  26.200  23.083   7.437
 4467POPC   C1B57931  25.607  22.667   6.206
 4467POPC   C2B57932  25.480  22.820   6.626
 4467POPC   C3B57933  25.657  22.857   7.058
 4467POPC   C4B57934  25.705  23.003   7.510
 4468POPC   NC357935  29.081   2.807   5.453
 4468POPC   PO457936  29.329   2.277   5.192
 4468POPC   GL157937  29.212   2.406   5.708
 4468POPC   GL257938  28.924   2.585   5.895
 4468POPC   C1A57939  29.370   2.373   6.148
 4468POPC   D2A57940  29.489   2.607   6.527
 4468POPC   C3A57941  29.192   2.647   6.849
 4468POPC   C4A57942  29.245   2.926   7.174
 4468POPC   C1B57943  29.036   2.772   6.318
 4468POPC   C2B57944  28.888   3.075   6.663
 4468POPC   C3B57945  28.851   3.238   7.093
 4468POPC   C4B57946  28.728   3.022   7.507
 4469POPC   NC357947  17.553  14.751   5.156
 4469POPC   PO457948  17.302  15.160   5.641
 4469POPC   GL157949  17.643  15.010   5.822
 4469POPC   GL257950  17.707  14.681   5.690
 4469POPC   C1A57951  17.696  15.146   6.255
 4469POPC   D2A57952  17.433  15.403   6.521
 4469POPC   C3A57953  17.263  15.217   6.868
 4469POPC   C4A57954  17.019  15.321   7.231
 4469POPC   C1B57955  17.621  14.624   6.151
 4469POPC   C2B57956  17.725  14.736   6.581
 4469POPC   C3B57957  17.594  14.839   6.997
 4469POPC   C4B57958  17.285  14.903   7.280
 4470POPC   NC357959  35.834  24.680   5.503
 4470POPC   PO457960  35.310  24.423   5.202
 4470POPC   GL157961  35.246  24.360   5.678
 4470POPC   GL257962  35.465  24.548   5.886
 4470POPC   C1A57963  35.082  24.228   6.100
 4470POPC   D2A57964  35.272  24.386   6.458
 4470POPC   C3A57965  35.250  24.230   6.860
 4470POPC   C4A57966  35.214  24.463   7.233
 4470POPC   C1B57967  35.719  24.583   6.280
 4470POPC   C2B57968  35.725  24.528   6.704
 4470POPC   C3B57969  35.648  24.673   7.062
 4470POPC   C4B57970  35.495  25.074   7.161
 4471POPC   NC357971  21.892   8.568   5.613
 4471POPC   PO457972  22.508   8.280   5.452
 4471POPC   GL157973  22.323   8.361   5.821
 4471POPC   GL257974  22.242   8.072   6.008
 4471POPC   C1A57975  22.349   8.533   6.219
 4471POPC   D2A57976  22.080   8.391   6.539
 4471POPC   C3A57977  22.294   8.232   6.885
 4471POPC   C4A57978  22.179   8.415   7.279
 4471POPC   C1B57979  21.883   7.989   6.274
 4471POPC   C2B57980  21.818   7.905   6.705
 4471POPC   C3B57981  21.904   7.999   7.115
 4471POPC   C4B57982  22.249   7.922   7.411
 4472POPC   NC357983  30.920  17.913   5.397
 4472POPC   PO457984  30.591  18.398   5.503
 4472POPC   GL157985  30.750  18.172   5.816
 4472POPC   GL257986  30.399  18.023   5.786
 4472POPC   C1A57987  30.897  18.319   6.245
 4472POPC   D2A57988  31.142  18.336   6.629
 4472POPC   C3A57989  30.954  18.203   7.036
 4472POPC   C4A57990  30.706  18.452   7.347
 4472POPC   C1B57991  30.465  18.075   6.213
 4472POPC   C2B57992  30.388  18.350   6.523
 4472POPC   C3B57993  30.474  18.261   6.931
 4472POPC   C4B57994  30.541  17.965   7.272
 4473POPC   NC357995  42.829  15.681   5.485
 4473POPC   PO457996  43.266  16.141   5.137
 4473POPC   GL157997  43.322  16.023   5.605
 4473POPC   GL257998  43.229  15.698   5.796
 4473POPC   C1A57999  43.420  16.062   6.077
 4473POPC   D2A58000  43.303  15.964   6.507
 4473POPC   C3A58001  43.384  16.120   6.930
 4473POPC   C4A58002  43.041  16.062   7.264
 4473POPC   C1B58003  42.946  15.714   6.190
 4473POPC   C2B58004  42.825  15.792   6.648
 4473POPC   C3B58005  42.693  15.744   7.084
 4473POPC   C4B58006  42.791  15.691   7.576
 4474POPC   NC358007  43.942  24.498   5.392
 4474POPC   PO458008  44.219  25.052   5.180
 4474POPC   GL158009  44.341  24.678   5.671
 4474POPC   GL258010  44.131  24.399   5.834
 4474POPC   C1A58011  44.185  24.720   6.171
 4474POPC   D2A58012  43.969  24.453   6.469
 4474POPC   C3A58013  44.084  24.465   6.918
 4474POPC   C4A58014  43.853  24.692   7.204
 4474POPC   C1B58015  43.762  24.183   6.050
 4474POPC   C2B58016  43.516  24.227   6.407
 4474POPC   C3B58017  43.580  24.377   6.818
 4474POPC   C4B58018  43.684  24.143   7.187
 4475POPC   NC358019  25.208  20.703   5.224
 4475POPC   PO458020  25.706  20.466   5.591
 4475POPC   GL158021  25.443  20.537   5.858
 4475POPC   GL258022  25.196  20.415   5.686
 4475POPC   C1A58023  25.247  20.685   6.238
 4475POPC   D2A58024  25.009  20.751   6.609
 4475POPC   C3A58025  25.273  20.788   6.961
 4475POPC   C4A58026  25.439  21.089   7.240
 4475POPC   C1B58027  25.109  20.233   6.097
 4475POPC   C2B58028  25.178  20.245   6.519
 4475POPC   C3B58029  24.990  20.278   6.917
 4475POPC   C4B58030  24.911  20.567   7.247
 4476POPC   NC358031  14.575  24.691   5.462
 4476POPC   PO458032  14.308  25.319   5.322
 4476POPC   GL158033  14.407  25.227   5.789
 4476POPC   GL258034  14.654  24.927   5.897
 4476POPC   C1A58035  14.286  25.465   6.190
 4476POPC   D2A58036  14.092  25.635   6.565
 4476POPC   C3A58037  14.237  25.551   6.978
 4476POPC   C4A58038  14.183  25.357   7.363
 4476POPC   C1B58039  14.437  24.986   6.275
 4476POPC   C2B58040  14.388  25.172   6.651
 4476POPC   C3B58041  14.480  25.054   7.044
 4476POPC   C4B58042  14.698  25.342   7.271
 4477POPC   NC358043  35.920  41.552   5.345
 4477POPC   PO458044  36.515  41.841   5.383
 4477POPC   GL158045  36.231  41.726   5.729
 4477POPC   GL258046  35.853  41.699   5.803
 4477POPC   C1A58047  36.276  41.450   6.096
 4477POPC   D2A58048  36.475  41.517   6.498
 4477POPC   C3A58049  36.235  41.430   6.872
 4477POPC   C4A58050  36.335  41.667   7.197
 4477POPC   C1B58051  35.938  41.834   6.169
 4477POPC   C2B58052  35.958  41.647   6.516
 4477POPC   C3B58053  35.928  41.851   6.896
 4477POPC   C4B58054  35.844  41.622   7.240
 4478POPC   NC358055  43.693   7.008   5.366
 4478POPC   PO458056  44.130   7.532   5.402
 4478POPC   GL158057  44.167   7.528   5.812
 4478POPC   GL258058  44.067   7.178   5.777
 4478POPC   C1A58059  44.106   7.446   6.240
 4478POPC   D2A58060  43.924   7.692   6.566
 4478POPC   C3A58061  43.980   7.478   6.926
 4478POPC   C4A58062  44.085   7.629   7.315
 4478POPC   C1B58063  43.701   7.184   6.046
 4478POPC   C2B58064  43.620   7.285   6.467
 4478POPC   C3B58065  43.522   7.150   6.871
 4478POPC   C4B58066  43.627   7.345   7.260
 4479POPC   NC358067  44.861  13.211   5.220
 4479POPC   PO458068  44.508  12.697   5.246
 4479POPC   GL158069  44.660  12.828   5.678
 4479POPC   GL258070  44.798  13.161   5.718
 4479POPC   C1A58071  44.525  12.850   6.141
 4479POPC   D2A58072  44.251  12.849   6.519
 4479POPC   C3A58073  44.448  12.896   6.955
 4479POPC   C4A58074  44.808  12.740   7.197
 4479POPC   C1B58075  44.814  13.281   6.142
 4479POPC   C2B58076  44.818  13.105   6.542
 4479POPC   C3B58077  44.819  13.260   6.931
 4479POPC   C4B58078  44.779  13.236   7.340
 4480POPC   NC358079  39.980   9.977   5.469
 4480POPC   PO458080  39.911   9.325   5.395
 4480POPC   GL158081  40.019   9.571   5.808
 4480POPC   GL258082  40.137   9.921   5.926
 4480POPC   C1A58083  39.999   9.587   6.270
 4480POPC   D2A58084  40.134   9.595   6.687
 4480POPC   C3A58085  39.791   9.609   6.958
 4480POPC   C4A58086  39.702   9.610   7.381
 4480POPC   C1B58087  39.846  10.091   6.206
 4480POPC   C2B58088  39.824  10.032   6.645
 4480POPC   C3B58089  40.100  10.010   7.016
 4480POPC   C4B58090  39.890  10.169   7.338
 4481POPC   NC358091  32.769  36.013   5.488
 4481POPC   PO458092  33.383  36.216   5.595
 4481POPC   GL158093  33.175  36.396   5.961
 4481POPC   GL258094  32.793  36.294   5.936
 4481POPC   C1A58095  33.043  36.479   6.405
 4481POPC   D2A58096  32.849  36.263   6.770
 4481POPC   C3A58097  33.100  36.099   7.104
 4481POPC   C4A58098  33.306  35.778   7.388
 4481POPC   C1B58099  32.834  35.995   6.292
 4481POPC   C2B58100  32.716  35.758   6.679
 4481POPC   C3B58101  32.604  35.914   7.069
 4481POPC   C4B58102  32.497  36.331   7.201
 4482POPC   NC358103  38.863  21.620   5.435
 4482POPC   PO458104  38.147  21.346   5.428
 4482POPC   GL158105  38.448  21.458   5.697
 4482POPC   GL258106  38.693  21.180   5.687
 4482POPC   C1A58107  38.449  21.420   6.138
 4482POPC   D2A58108  38.210  21.363   6.523
 4482POPC   C3A58109  38.420  21.511   6.885
 4482POPC   C4A58110  38.384  21.316   7.304
 4482POPC   C1B58111  38.870  21.123   6.106
 4482POPC   C2B58112  38.793  21.281   6.533
 4482POPC   C3B58113  38.676  21.071   6.913
 4482POPC   C4B58114  38.816  20.989   7.288
 4483POPC   NC358115  25.911  10.253   5.132
 4483POPC   PO458116  26.048   9.578   5.144
 4483POPC   GL158117  26.098   9.804   5.577
 4483POPC   GL258118  25.812  10.045   5.584
 4483POPC   C1A58119  26.194   9.807   6.075
 4483POPC   D2A58120  26.051   9.735   6.531
 4483POPC   C3A58121  26.163   9.824   6.986
 4483POPC   C4A58122  26.060   9.511   7.314
 4483POPC   C1B58123  25.699   9.955   6.004
 4483POPC   C2B58124  25.568   9.884   6.412
 4483POPC   C3B58125  25.665   9.853   6.839
 4483POPC   C4B58126  25.645   9.834   7.273
 4484POPC   NC358127  20.247  21.755   5.482
 4484POPC   PO458128  19.626  21.726   5.306
 4484POPC   GL158129  19.757  21.587   5.745
 4484POPC   GL258130  20.057  21.457   5.880
 4484POPC   C1A58131  19.545  21.324   6.054
 4484POPC   D2A58132  19.485  21.242   6.502
 4484POPC   C3A58133  19.590  21.616   6.775
 4484POPC   C4A58134  19.589  21.676   7.217
 4484POPC   C1B58135  19.958  21.460   6.315
 4484POPC   C2B58136  19.954  21.279   6.695
 4484POPC   C3B58137  20.161  21.307   7.060
 4484POPC   C4B58138  20.080  21.625   7.350
 4485POPC   NC358139  34.137  29.761   5.401
 4485POPC   PO458140  33.435  29.658   5.374
 4485POPC   GL158141  33.701  29.756   5.719
 4485POPC   GL258142  33.887  30.075   5.690
 4485POPC   C1A58143  33.679  29.816   6.154
 4485POPC   D2A58144  33.492  29.690   6.523
 4485POPC   C3A58145  33.787  29.708   6.854
 4485POPC   C4A58146  34.043  29.649   7.185
 4485POPC   C1B58147  34.006  30.217   6.097
 4485POPC   C2B58148  34.064  30.006   6.514
 4485POPC   C3B58149  34.215  30.077   6.983
 4485POPC   C4B58150  34.131  30.258   7.420
 4486POPC   NC358151  26.498  25.160   5.358
 4486POPC   PO458152  27.094  24.862   5.456
 4486POPC   GL158153  26.855  25.067   5.748
 4486POPC   GL258154  26.919  25.442   5.782
 4486POPC   C1A58155  26.639  25.157   6.124
 4486POPC   D2A58156  26.706  25.473   6.443
 4486POPC   C3A58157  26.665  25.356   6.888
 4486POPC   C4A58158  26.607  25.247   7.317
 4486POPC   C1B58159  27.136  25.298   6.165
 4486POPC   C2B58160  27.050  25.140   6.602
 4486POPC   C3B58161  27.216  25.170   7.033
 4486POPC   C4B58162  27.121  25.257   7.462
 4487POPC   NC358163   3.336  21.636   5.351
 4487POPC   PO458164   3.306  21.110   5.665
 4487POPC   GL158165   3.561  21.275   5.939
 4487POPC   GL258166   3.616  21.550   5.765
 4487POPC   C1A58167   3.532  21.428   6.359
 4487POPC   D2A58168   3.315  21.321   6.738
 4487POPC   C3A58169   3.680  21.266   7.011
 4487POPC   C4A58170   3.897  21.530   7.227
 4487POPC   C1B58171   3.542  21.852   6.061
 4487POPC   C2B58172   3.673  21.939   6.463
 4487POPC   C3B58173   3.612  21.746   6.847
 4487POPC   C4B58174   3.512  21.865   7.273
 4488POPC   NC358175  35.258  36.583   4.995
 4488POPC   PO458176  35.556  36.086   5.391
 4488POPC   GL158177  35.391  36.089   5.777
 4488POPC   GL258178  35.736  36.101   5.908
 4488POPC   C1A58179  35.114  35.998   6.137
 4488POPC   D2A58180  35.025  36.261   6.492
 4488POPC   C3A58181  34.942  36.044   6.879
 4488POPC   C4A58182  35.144  36.198   7.246
 4488POPC   C1B58183  35.577  36.129   6.320
 4488POPC   C2B58184  35.446  36.075   6.754
 4488POPC   C3B58185  35.685  36.076   7.143
 4488POPC   C4B58186  35.576  35.968   7.552
 4489POPC   NC358187  26.027  39.668   5.396
 4489POPC   PO458188  26.265  40.314   5.422
 4489POPC   GL158189  26.156  40.188   5.838
 4489POPC   GL258190  25.955  39.893   5.865
 4489POPC   C1A58191  25.855  40.242   6.213
 4489POPC   D2A58192  25.796  39.942   6.537
 4489POPC   C3A58193  25.834  40.142   6.897
 4489POPC   C4A58194  25.913  40.044   7.320
 4489POPC   C1B58195  26.243  39.918   6.242
 4489POPC   C2B58196  26.250  39.715   6.630
 4489POPC   C3B58197  26.238  39.857   6.981
 4489POPC   C4B58198  26.465  40.222   7.095
 4490POPC   NC358199   3.748  22.369   5.121
 4490POPC   PO458200   3.112  22.030   5.284
 4490POPC   GL158201   3.430  22.195   5.635
 4490POPC   GL258202   3.331  22.518   5.763
 4490POPC   C1A58203   3.756  22.312   6.022
 4490POPC   D2A58204   3.850  22.446   6.484
 4490POPC   C3A58205   3.730  22.242   6.895
 4490POPC   C4A58206   3.991  22.024   7.185
 4490POPC   C1B58207   3.255  22.304   6.148
 4490POPC   C2B58208   3.332  22.301   6.569
 4490POPC   C3B58209   3.174  22.392   6.952
 4490POPC   C4B58210   3.376  22.372   7.321
 4491POPC   NC358211   0.529  44.397   5.441
 4491POPC   PO458212   0.041  44.751   5.486
 4491POPC   GL158213   0.219  44.517   5.837
 4491POPC   GL258214   0.596  44.471   5.944
 4491POPC   C1A58215   0.214  44.707   6.243
 4491POPC   D2A58216   0.011  44.803   6.619
 4491POPC   C3A58217   0.244  44.625   6.934
 4491POPC   C4A58218   0.092  44.712   7.316
 4491POPC   C1B58219   0.725  44.842   6.210
 4491POPC   C2B58220   0.510  44.963   6.607
 4491POPC   C3B58221   0.588  44.977   7.044
 4491POPC   C4B58222   0.590  44.753   7.440
 4492POPC   NC358223  44.254  25.442   5.499
 4492POPC   PO458224  44.946  25.281   5.439
 4492POPC   GL158225  44.837  25.099   5.823
 4492POPC   GL258226  44.485  25.139   5.858
 4492POPC   C1A58227  44.996  25.143   6.249
 4492POPC   D2A58228  44.714  25.158   6.621
 4492POPC   C3A58229  44.796  25.315   7.021
 4492POPC   C4A58230  44.857  25.072   7.397
 4492POPC   C1B58231  44.330  25.209   6.272
 4492POPC   C2B58232  44.146  25.348   6.651
 4492POPC   C3B58233  44.257  25.504   7.052
 4492POPC   C4B58234  44.474  25.412   7.409
 4493POPC   NC358235  42.821  36.885   5.144
 4493POPC   PO458236  43.410  36.676   5.459
 4493POPC   GL158237  43.123  36.970   5.709
 4493POPC   GL258238  43.382  37.143   5.806
 4493POPC   C1A58239  42.936  37.043   6.138
 4493POPC   D2A58240  42.799  36.849   6.553
 4493POPC   C3A58241  43.056  36.745   6.882
 4493POPC   C4A58242  43.092  36.827   7.319
 4493POPC   C1B58243  43.409  36.858   6.189
 4493POPC   C2B58244  43.539  36.727   6.619
 4493POPC   C3B58245  43.520  36.645   7.084
 4493POPC   C4B58246  43.414  36.524   7.554
 4494POPC   NC358247  11.578  26.454   5.509
 4494POPC   PO458248  10.900  26.716   5.490
 4494POPC   GL158249  11.197  26.689   5.796
 4494POPC   GL258250  11.127  26.320   5.832
 4494POPC   C1A58251  11.440  26.953   6.123
 4494POPC   D2A58252  11.607  27.085   6.560
 4494POPC   C3A58253  11.305  26.982   6.920
 4494POPC   C4A58254  11.313  26.716   7.319
 4494POPC   C1B58255  11.389  26.412   6.172
 4494POPC   C2B58256  11.382  26.623   6.546
 4494POPC   C3B58257  11.233  26.416   6.905
 4494POPC   C4B58258  11.212  26.194   7.246
 4495POPC   NC358259  38.134  16.355   5.231
 4495POPC   PO458260  38.720  16.034   5.316
 4495POPC   GL158261  38.486  16.100   5.718
 4495POPC   GL258262  38.169  16.319   5.746
 4495POPC   C1A58263  38.429  16.033   6.175
 4495POPC   D2A58264  38.166  16.210   6.515
 4495POPC   C3A58265  38.250  15.984   6.917
 4495POPC   C4A58266  38.522  15.683   7.151
 4495POPC   C1B58267  38.316  16.527   6.125
 4495POPC   C2B58268  38.656  16.459   6.398
 4495POPC   C3B58269  38.549  16.395   6.806
 4495POPC   C4B58270  38.500  16.490   7.209
 4496POPC   NC358271  42.601  24.642   4.898
 4496POPC   PO458272  43.232  24.533   5.216
 4496POPC   GL158273  43.178  24.468   5.669
 4496POPC   GL258274  43.529  24.455   5.695
 4496POPC   C1A58275  43.004  24.540   6.114
 4496POPC   D2A58276  42.828  24.773   6.525
 4496POPC   C3A58277  42.734  24.579   6.954
 4496POPC   C4A58278  42.886  24.450   7.372
 4496POPC   C1B58279  43.611  24.666   6.090
 4496POPC   C2B58280  43.361  24.702   6.459
 4496POPC   C3B58281  43.222  24.757   6.888
 4496POPC   C4B58282  43.368  24.546   7.260
 4497POPC   NC358283  18.755  34.021   5.439
 4497POPC   PO458284  19.205  33.490   5.402
 4497POPC   GL158285  18.958  33.594   5.763
 4497POPC   GL258286  18.997  33.950   5.868
 4497POPC   C1A58287  19.078  33.608   6.201
 4497POPC   D2A58288  19.018  33.852   6.568
 4497POPC   C3A58289  18.879  33.599   6.922
 4497POPC   C4A58290  19.048  33.498   7.300
 4497POPC   C1B58291  18.730  34.115   6.194
 4497POPC   C2B58292  18.617  34.191   6.581
 4497POPC   C3B58293  18.802  34.112   6.994
 4497POPC   C4B58294  18.640  34.281   7.370
 4498POPC   NC358295  18.627   7.021   5.569
 4498POPC   PO458296  18.076   7.301   5.429
 4498POPC   GL158297  18.212   7.300   5.891
 4498POPC   GL258298  18.385   7.023   5.988
 4498POPC   C1A58299  18.121   7.199   6.356
 4498POPC   D2A58300  18.409   7.320   6.684
 4498POPC   C3A58301  18.276   7.449   7.069
 4498POPC   C4A58302  18.088   7.739   7.268
 4498POPC   C1B58303  18.663   7.143   6.277
 4498POPC   C2B58304  18.822   7.006   6.661
 4498POPC   C3B58305  18.738   7.124   7.066
 4498POPC   C4B58306  18.398   7.048   7.340
 4499POPC   NC358307  21.414  16.603   5.360
 4499POPC   PO458308  21.025  17.131   5.395
 4499POPC   GL158309  21.145  16.821   5.740
 4499POPC   GL258310  21.512  16.749   5.833
 4499POPC   C1A58311  21.129  16.655   6.165
 4499POPC   D2A58312  21.202  16.831   6.547
 4499POPC   C3A58313  21.095  16.588   6.875
 4499POPC   C4A58314  21.271  16.567   7.246
 4499POPC   C1B58315  21.664  16.566   6.220
 4499POPC   C2B58316  21.551  16.427   6.624
 4499POPC   C3B58317  21.594  16.749   6.911
 4499POPC   C4B58318  21.785  16.716   7.270
 4500POPC   NC358319  37.365  32.245   5.545
 4500POPC   PO458320  36.812  32.102   5.175
 4500POPC   GL158321  36.905  32.036   5.624
 4500POPC   GL258322  36.942  32.391   5.801
 4500POPC   C1A58323  36.797  31.977   6.071
 4500POPC   D2A58324  36.907  32.116   6.487
 4500POPC   C3A58325  36.770  32.046   6.913
 4500POPC   C4A58326  36.906  32.030   7.314
 4500POPC   C1B58327  36.722  32.484   6.200
 4500POPC   C2B58328  36.767  32.574   6.667
 4500POPC   C3B58329  36.873  32.539   7.128
 4500POPC   C4B58330  36.754  32.757   7.543
 4501POPC   NC358331  35.657  29.419   5.366
 4501POPC   PO458332  35.021  29.151   5.342
 4501POPC   GL158333  35.309  29.163   5.648
 4501POPC   GL258334  35.346  28.849   5.794
 4501POPC   C1A58335  35.384  29.342   6.040
 4501POPC   D2A58336  35.277  29.363   6.482
 4501POPC   C3A58337  35.476  29.403   6.905
 4501POPC   C4A58338  35.291  29.329   7.322
 4501POPC   C1B58339  35.422  28.847   6.233
 4501POPC   C2B58340  35.563  28.936   6.642
 4501POPC   C3B58341  35.505  28.888   7.084
 4501POPC   C4B58342  35.125  28.848   7.349
 4502POPC   NC358343  42.189  33.932   5.298
 4502POPC   PO458344  42.627  33.486   5.521
 4502POPC   GL158345  42.405  33.689   5.880
 4502POPC   GL258346  42.354  34.062   5.803
 4502POPC   C1A58347  42.390  33.710   6.351
 4502POPC   D2A58348  42.318  34.031   6.688
 4502POPC   C3A58349  42.219  33.875   7.097
 4502POPC   C4A58350  42.265  33.417   7.252
 4502POPC   C1B58351  42.002  33.926   6.080
 4502POPC   C2B58352  41.884  33.843   6.491
 4502POPC   C3B58353  41.785  33.995   6.897
 4502POPC   C4B58354  41.882  34.196   7.302
 4503POPC   NC358355  43.673   3.687   5.252
 4503POPC   PO458356  43.726   3.155   5.688
 4503POPC   GL158357  44.055   3.450   5.939
 4503POPC   GL258358  44.299   3.669   5.747
 4503POPC   C1A58359  44.017   3.581   6.389
 4503POPC   D2A58360  43.691   3.391   6.661
 4503POPC   C3A58361  43.849   3.105   6.972
 4503POPC   C4A58362  43.693   3.202   7.354
 4503POPC   C1B58363  44.154   3.989   6.070
 4503POPC   C2B58364  44.080   4.110   6.525
 4503POPC   C3B58365  43.787   3.893   6.818
 4503POPC   C4B58366  43.810   3.750   7.247
 4504POPC   NC358367  39.704  23.821   5.450
 4504POPC   PO458368  40.087  23.244   5.386
 4504POPC   GL158369  39.985  23.495   5.769
 4504POPC   GL258370  39.672  23.482   5.865
 4504POPC   C1A58371  40.061  23.700   6.183
 4504POPC   D2A58372  39.900  23.793   6.603
 4504POPC   C3A58373  40.098  23.611   6.997
 4504POPC   C4A58374  40.332  23.830   7.357
 4504POPC   C1B58375  39.602  23.910   6.101
 4504POPC   C2B58376  39.445  24.029   6.543
 4504POPC   C3B58377  39.564  23.861   6.983
 4504POPC   C4B58378  39.882  24.009   7.240
 4505POPC   NC358379   1.736  39.462   5.390
 4505POPC   PO458380   2.237  39.039   5.202
 4505POPC   GL158381   2.121  39.118   5.649
 4505POPC   GL258382   2.274  38.898   5.910
 4505POPC   C1A58383   1.916  39.243   6.059
 4505POPC   D2A58384   1.998  39.381   6.489
 4505POPC   C3A58385   1.732  39.278   6.832
 4505POPC   C4A58386   1.953  39.460   7.165
 4505POPC   C1B58387   2.437  39.097   6.299
 4505POPC   C2B58388   2.481  39.230   6.728
 4505POPC   C3B58389   2.236  39.023   7.010
 4505POPC   C4B58390   1.853  38.963   7.221
 4506POPC   NC358391  41.355   5.916   5.413
 4506POPC   PO458392  42.023   5.921   5.355
 4506POPC   GL158393  41.785   6.068   5.749
 4506POPC   GL258394  41.495   5.857   5.902
 4506POPC   C1A58395  41.738   6.189   6.201
 4506POPC   D2A58396  41.512   5.924   6.496
 4506POPC   C3A58397  41.585   5.921   6.952
 4506POPC   C4A58398  41.828   5.576   7.126
 4506POPC   C1B58399  41.197   5.634   6.186
 4506POPC   C2B58400  41.074   5.645   6.636
 4506POPC   C3B58401  41.196   5.599   7.071
 4506POPC   C4B58402  41.186   5.908   7.405
 4507POPC   NC358403  22.248   0.426   5.316
 4507POPC   PO458404  21.629   0.542   5.604
 4507POPC   GL158405  22.028   0.662   5.830
 4507POPC   GL258406  22.297   0.416   5.835
 4507POPC   C1A58407  22.183   0.731   6.277
 4507POPC   D2A58408  21.985   0.514   6.644
 4507POPC   C3A58409  22.215   0.532   7.034
 4507POPC   C4A58410  22.121   0.554   7.455
 4507POPC   C1B58411  22.110   0.226   6.186
 4507POPC   C2B58412  22.238   0.048   6.549
 4507POPC   C3B58413  22.121   0.022   6.931
 4507POPC   C4B58414  22.216   0.070   7.327
 4508POPC   NC358415   6.264   8.966   5.358
 4508POPC   PO458416   6.879   8.703   5.368
 4508POPC   GL158417   6.739   8.911   5.788
 4508POPC   GL258418   6.865   9.209   5.836
 4508POPC   C1A58419   6.586   9.099   6.240
 4508POPC   D2A58420   6.728   9.189   6.684
 4508POPC   C3A58421   6.497   9.049   7.084
 4508POPC   C4A58422   6.646   9.228   7.543
 4508POPC   C1B58423   7.098   9.050   6.178
 4508POPC   C2B58424   7.118   8.805   6.542
 4508POPC   C3B58425   6.917   8.744   6.914
 4508POPC   C4B58426   6.965   9.013   7.223
 4509POPC   NC358427  34.761   3.813   5.377
 4509POPC   PO458428  34.483   3.305   5.488
 4509POPC   GL158429  34.564   3.613   5.801
 4509POPC   GL258430  34.423   3.959   5.779
 4509POPC   C1A58431  34.769   3.768   6.157
 4509POPC   D2A58432  34.595   3.689   6.561
 4509POPC   C3A58433  34.852   3.636   6.907
 4509POPC   C4A58434  34.702   3.564   7.277
 4509POPC   C1B58435  34.236   3.768   6.178
 4509POPC   C2B58436  34.119   3.862   6.617
 4509POPC   C3B58437  34.308   3.827   7.043
 4509POPC   C4B58438  34.325   3.834   7.527
 4510POPC   NC358439  43.180  16.599   5.303
 4510POPC   PO458440  43.527  17.112   5.600
 4510POPC   GL158441  43.285  16.798   5.758
 4510POPC   GL258442  42.935  16.780   5.749
 4510POPC   C1A58443  43.301  16.553   6.095
 4510POPC   D2A58444  43.381  16.478   6.500
 4510POPC   C3A58445  43.352  16.764   6.815
 4510POPC   C4A58446  43.609  16.581   7.106
 4510POPC   C1B58447  42.791  16.639   6.145
 4510POPC   C2B58448  42.907  16.300   6.405
 4510POPC   C3B58449  42.971  16.393   6.831
 4510POPC   C4B58450  43.115  16.550   7.224
 4511POPC   NC358451   9.499  32.193   5.481
 4511POPC   PO458452   9.966  32.553   5.714
 4511POPC   GL158453   9.729  32.309   5.941
 4511POPC   GL258454   9.771  31.966   5.842
 4511POPC   C1A58455   9.825  32.108   6.331
 4511POPC   D2A58456   9.763  32.110   6.730
 4511POPC   C3A58457   9.948  32.439   6.967
 4511POPC   C4A58458   9.763  32.289   7.307
 4511POPC   C1B58459   9.384  31.977   6.129
 4511POPC   C2B58460   9.268  32.094   6.585
 4511POPC   C3B58461   9.371  31.962   7.035
 4511POPC   C4B58462   9.354  32.029   7.494
 4512POPC   NC358463  36.278  34.217   5.147
 4512POPC   PO458464  35.925  34.625   5.461
 4512POPC   GL158465  36.204  34.596   5.754
 4512POPC   GL258466  36.393  34.300   5.660
 4512POPC   C1A58467  36.039  34.597   6.157
 4512POPC   D2A58468  35.816  34.594   6.538
 4512POPC   C3A58469  36.073  34.645   6.898
 4512POPC   C4A58470  35.942  34.710   7.307
 4512POPC   C1B58471  36.324  34.153   6.086
 4512POPC   C2B58472  36.260  34.304   6.518
 4512POPC   C3B58473  36.337  34.148   6.928
 4512POPC   C4B58474  36.356  34.404   7.283
 4513POPC   NC358475  28.888  20.010   5.005
 4513POPC   PO458476  29.348  19.674   5.410
 4513POPC   GL158477  29.265  19.838   5.885
 4513POPC   GL258478  28.926  20.056   5.981
 4513POPC   C1A58479  29.256  19.784   6.327
 4513POPC   D2A58480  29.495  19.907   6.653
 4513POPC   C3A58481  29.445  19.731   7.044
 4513POPC   C4A58482  29.190  19.761   7.413
 4513POPC   C1B58483  28.785  19.680   6.144
 4513POPC   C2B58484  28.816  19.557   6.566
 4513POPC   C3B58485  28.936  19.776   6.916
 4513POPC   C4B58486  28.711  19.826   7.277
 4514POPC   NC358487  39.385  31.944   5.415
 4514POPC   PO458488  39.334  31.259   5.487
 4514POPC   GL158489  39.254  31.595   5.800
 4514POPC   GL258490  38.911  31.726   5.770
 4514POPC   C1A58491  39.124  31.561   6.230
 4514POPC   D2A58492  39.149  31.354   6.625
 4514POPC   C3A58493  39.254  31.603   6.967
 4514POPC   C4A58494  39.652  31.804   7.010
 4514POPC   C1B58495  38.823  31.971   6.168
 4514POPC   C2B58496  39.036  31.920   6.576
 4514POPC   C3B58497  38.843  31.978   6.952
 4514POPC   C4B58498  38.807  31.738   7.342
 4515POPC   NC358499   3.507  14.903   5.571
 4515POPC   PO458500   3.652  15.563   5.453
 4515POPC   GL158501   3.765  15.315   5.820
 4515POPC   GL258502   3.391  15.320   5.846
 4515POPC   C1A58503   3.693  15.009   6.196
 4515POPC   D2A58504   3.456  14.953   6.581
 4515POPC   C3A58505   3.533  14.834   7.008
 4515POPC   C4A58506   3.840  14.927   7.307
 4515POPC   C1B58507   3.444  15.462   6.226
 4515POPC   C2B58508   3.267  15.424   6.571
 4515POPC   C3B58509   3.413  15.402   6.952
 4515POPC   C4B58510   3.431  15.236   7.335
 4516POPC   NC358511  21.123  25.491   5.519
 4516POPC   PO458512  21.785  25.340   5.347
 4516POPC   GL158513  21.533  25.185   5.701
 4516POPC   GL258514  21.218  24.981   5.705
 4516POPC   C1A58515  21.522  25.305   6.125
 4516POPC   D2A58516  21.663  25.157   6.504
 4516POPC   C3A58517  21.673  25.465   6.816
 4516POPC   C4A58518  21.715  25.361   7.208
 4516POPC   C1B58519  21.034  25.106   6.152
 4516POPC   C2B58520  21.031  25.104   6.653
 4516POPC   C3B58521  21.038  25.203   7.150
 4516POPC   C4B58522  21.054  25.006   7.603
 4517POPC   NC358523  37.009  28.243   5.342
 4517POPC   PO458524  36.738  28.789   5.162
 4517POPC   GL158525  36.988  28.651   5.638
 4517POPC   GL258526  36.818  28.315   5.798
 4517POPC   C1A58527  37.036  28.611   6.139
 4517POPC   D2A58528  36.809  28.752   6.529
 4517POPC   C3A58529  36.995  28.621   6.931
 4517POPC   C4A58530  37.274  28.369   7.168
 4517POPC   C1B58531  36.539  28.298   6.184
 4517POPC   C2B58532  36.587  28.273   6.602
 4517POPC   C3B58533  36.702  28.024   6.904
 4517POPC   C4B58534  36.794  28.196   7.246
 4518POPC   NC358535  38.023  17.231   5.573
 4518POPC   PO458536  38.646  17.317   5.476
 4518POPC   GL158537  38.488  17.366   5.838
 4518POPC   GL258538  38.275  17.675   5.737
 4518POPC   C1A58539  38.670  17.351   6.271
 4518POPC   D2A58540  38.643  17.663   6.575
 4518POPC   C3A58541  38.575  17.554   6.997
 4518POPC   C4A58542  38.547  17.313   7.362
 4518POPC   C1B58543  38.258  17.640   6.188
 4518POPC   C2B58544  38.183  17.391   6.570
 4518POPC   C3B58545  38.050  17.530   6.985
 4518POPC   C4B58546  38.167  17.636   7.406
 4519POPC   NC358547   8.265  42.660   5.227
 4519POPC   PO458548   8.204  43.361   5.384
 4519POPC   GL158549   8.306  43.209   5.790
 4519POPC   GL258550   8.663  43.159   5.857
 4519POPC   C1A58551   8.127  43.110   6.193
 4519POPC   D2A58552   7.790  43.125   6.519
 4519POPC   C3A58553   8.015  43.170   6.893
 4519POPC   C4A58554   7.927  43.352   7.266
 4519POPC   C1B58555   8.620  42.890   6.242
 4519POPC   C2B58556   8.353  42.848   6.590
 4519POPC   C3B58557   8.399  42.747   7.005
 4519POPC   C4B58558   8.245  42.934   7.339
 4520POPC   NC358559  20.044  20.111   5.438
 4520POPC   PO458560  19.846  19.485   5.408
 4520POPC   GL158561  19.797  19.525   5.825
 4520POPC   GL258562  19.474  19.656   5.820
 4520POPC   C1A58563  19.883  19.800   6.197
 4520POPC   D2A58564  19.959  20.084   6.562
 4520POPC   C3A58565  20.016  19.918   6.990
 4520POPC   C4A58566  19.930  19.804   7.420
 4520POPC   C1B58567  19.483  19.483   6.260
 4520POPC   C2B58568  19.736  19.598   6.658
 4520POPC   C3B58569  19.624  19.571   7.091
 4520POPC   C4B58570  19.247  19.445   7.289
 4521POPC   NC358571  35.947   9.673   5.283
 4521POPC   PO458572  35.313   9.921   5.320
 4521POPC   GL158573  35.306   9.699   5.716
 4521POPC   GL258574  35.656   9.552   5.740
 4521POPC   C1A58575  35.366   9.680   6.171
 4521POPC   D2A58576  35.541   9.686   6.570
 4521POPC   C3A58577  35.311   9.804   6.937
 4521POPC   C4A58578  35.186   9.709   7.335
 4521POPC   C1B58579  35.702   9.992   5.928
 4521POPC   C2B58580  35.544  10.154   6.330
 4521POPC   C3B58581  35.524  10.225   6.779
 4521POPC   C4B58582  35.648  10.096   7.229
 4522POPC   NC358583  35.080  38.453   5.448
 4522POPC   PO458584  35.734  38.571   5.514
 4522POPC   GL158585  35.411  38.552   5.831
 4522POPC   GL258586  35.278  38.239   5.871
 4522POPC   C1A58587  35.427  38.469   6.293
 4522POPC   D2A58588  35.418  38.273   6.664
 4522POPC   C3A58589  35.423  38.537   6.990
 4522POPC   C4A58590  35.687  38.920   7.110
 4522POPC   C1B58591  35.106  38.062   6.246
 4522POPC   C2B58592  34.926  38.146   6.655
 4522POPC   C3B58593  35.061  38.149   7.083
 4522POPC   C4B58594  35.043  38.258   7.519
 4523POPC   NC358595  41.118  28.883   5.392
 4523POPC   PO458596  40.523  29.304   5.460
 4523POPC   GL158597  40.583  29.093   5.818
 4523POPC   GL258598  40.724  29.405   5.952
 4523POPC   C1A58599  40.684  28.932   6.218
 4523POPC   D2A58600  41.052  28.937   6.484
 4523POPC   C3A58601  40.893  29.158   6.847
 4523POPC   C4A58602  40.749  28.981   7.210
 4523POPC   C1B58603  40.800  29.411   6.377
 4523POPC   C2B58604  40.467  29.499   6.624
 4523POPC   C3B58605  40.370  29.581   7.013
 4523POPC   C4B58606  40.729  29.486   7.226
 4524POPC   NC358607  17.676  35.430   5.392
 4524POPC   PO458608  17.313  34.988   5.555
 4524POPC   GL158609  17.453  35.271   5.868
 4524POPC   GL258610  17.202  35.539   5.916
 4524POPC   C1A58611  17.497  35.098   6.308
 4524POPC   D2A58612  17.792  35.038   6.651
 4524POPC   C3A58613  17.534  35.064   7.029
 4524POPC   C4A58614  17.456  35.166   7.491
 4524POPC   C1B58615  17.481  35.593   6.270
 4524POPC   C2B58616  17.491  35.467   6.696
 4524POPC   C3B58617  17.441  35.566   7.127
 4524POPC   C4B58618  17.752  35.577   7.436
 4525POPC   NC358619   7.311   0.965   5.464
 4525POPC   PO458620   7.530   1.590   5.557
 4525POPC   GL158621   7.322   1.281   5.887
 4525POPC   GL258622   7.386   0.894   5.952
 4525POPC   C1A58623   7.298   1.219   6.350
 4525POPC   D2A58624   7.585   1.221   6.687
 4525POPC   C3A58625   7.414   1.450   7.025
 4525POPC   C4A58626   7.311   1.283   7.462
 4525POPC   C1B58627   7.199   0.708   6.314
 4525POPC   C2B58628   7.112   0.826   6.740
 4525POPC   C3B58629   7.403   0.949   7.081
 4525POPC   C4B58630   7.649   0.908   7.466
 4526POPC   NC358631  11.021  32.630   5.370
 4526POPC   PO458632  11.468  33.175   5.488
 4526POPC   GL158633  11.243  32.948   5.809
 4526POPC   GL258634  10.898  32.989   5.737
 4526POPC   C1A58635  11.311  32.872   6.262
 4526POPC   D2A58636  11.445  33.044   6.667
 4526POPC   C3A58637  11.439  32.919   7.086
 4526POPC   C4A58638  11.777  33.156   7.232
 4526POPC   C1B58639  10.809  32.970   6.155
 4526POPC   C2B58640  10.958  33.124   6.547
 4526POPC   C3B58641  11.022  33.212   6.962
 4526POPC   C4B58642  10.852  33.110   7.363
 4527POPC   NC358643  24.805  11.249   5.353
 4527POPC   PO458644  24.209  11.523   5.405
 4527POPC   GL158645  24.425  11.395   5.765
 4527POPC   GL258646  24.413  11.041   5.659
 4527POPC   C1A58647  24.586  11.507   6.183
 4527POPC   D2A58648  24.848  11.532   6.550
 4527POPC   C3A58649  24.683  11.613   6.964
 4527POPC   C4A58650  24.621  11.331   7.308
 4527POPC   C1B58651  24.137  11.033   6.023
 4527POPC   C2B58652  24.309  11.124   6.413
 4527POPC   C3B58653  24.404  11.113   6.840
 4527POPC   C4B58654  24.253  10.984   7.236
 4528POPC   NC358655  41.938  39.509   5.224
 4528POPC   PO458656  41.626  39.014   5.334
 4528POPC   GL158657  41.663  39.245   5.715
 4528POPC   GL258658  41.562  38.940   5.877
 4528POPC   C1A58659  41.747  39.315   6.158
 4528POPC   D2A58660  41.933  39.132   6.507
 4528POPC   C3A58661  41.795  39.307   6.894
 4528POPC   C4A58662  41.708  39.560   7.285
 4528POPC   C1B58663  41.277  39.151   6.160
 4528POPC   C2B58664  41.406  39.122   6.577
 4528POPC   C3B58665  41.299  39.328   6.945
 4528POPC   C4B58666  41.008  39.236   7.235
 4529POPC   NC358667  41.002  41.814   5.534
 4529POPC   PO458668  40.717  41.264   5.277
 4529POPC   GL158669  40.696  41.449   5.713
 4529POPC   GL258670  41.052  41.314   5.745
 4529POPC   C1A58671  40.694  41.727   6.128
 4529POPC   D2A58672  40.774  41.627   6.554
 4529POPC   C3A58673  40.761  41.786   6.967
 4529POPC   C4A58674  40.480  42.003   7.250
 4529POPC   C1B58675  40.871  41.257   6.165
 4529POPC   C2B58676  40.844  41.127   6.586
 4529POPC   C3B58677  40.694  41.263   6.960
 4529POPC   C4B58678  40.887  41.401   7.337
 4530POPC   NC358679  22.644  10.100   5.465
 4530POPC   PO458680  23.064   9.613   5.497
 4530POPC   GL158681  23.072   9.933   5.786
 4530POPC   GL258682  22.787   9.889   5.948
 4530POPC   C1A58683  23.180  10.110   6.185
 4530POPC   D2A58684  22.893   9.941   6.502
 4530POPC   C3A58685  23.083   9.953   6.904
 4530POPC   C4A58686  22.888  10.036   7.336
 4530POPC   C1B58687  23.154   9.598   6.148
 4530POPC   C2B58688  23.231   9.549   6.568
 4530POPC   C3B58689  22.849   9.507   6.781
 4530POPC   C4B58690  22.867   9.576   7.147
 4531POPC   NC358691  42.547  32.051   5.265
 4531POPC   PO458692  42.258  31.427   5.235
 4531POPC   GL158693  42.244  31.450   5.714
 4531POPC   GL258694  41.986  31.735   5.759
 4531POPC   C1A58695  42.409  31.213   6.112
 4531POPC   D2A58696  42.612  31.127   6.527
 4531POPC   C3A58697  42.614  31.396   6.897
 4531POPC   C4A58698  42.327  31.388   7.206
 4531POPC   C1B58699  42.032  31.563   6.168
 4531POPC   C2B58700  42.317  31.614   6.485
 4531POPC   C3B58701  42.151  31.728   6.869
 4531POPC   C4B58702  42.326  31.891   7.219
 4532POPC   NC358703   4.822   6.573   5.397
 4532POPC   PO458704   5.464   6.494   5.618
 4532POPC   GL158705   5.183   6.729   5.832
 4532POPC   GL258706   4.819   6.761   5.857
 4532POPC   C1A58707   5.154   6.730   6.266
 4532POPC   D2A58708   5.277   7.022   6.560
 4532POPC   C3A58709   5.078   6.812   6.872
 4532POPC   C4A58710   5.078   6.474   7.134
 4532POPC   C1B58711   4.681   6.428   6.129
 4532POPC   C2B58712   4.761   6.495   6.567
 4532POPC   C3B58713   4.660   6.269   6.951
 4532POPC   C4B58714   4.515   6.290   7.362
 4533POPC   NC358715  27.816  38.652   5.507
 4533POPC   PO458716  27.281  38.185   5.419
 4533POPC   GL158717  27.563  38.194   5.795
 4533POPC   GL258718  27.933  38.143   5.772
 4533POPC   C1A58719  27.444  38.341   6.219
 4533POPC   D2A58720  27.489  38.670   6.548
 4533POPC   C3A58721  27.292  38.654   6.956
 4533POPC   C4A58722  27.597  38.653   7.264
 4533POPC   C1B58723  27.962  38.343   6.191
 4533POPC   C2B58724  27.775  38.232   6.604
 4533POPC   C3B58725  27.597  38.209   7.012
 4533POPC   C4B58726  27.885  38.198   7.360
 4534POPC   NC358727  39.465   2.367   5.599
 4534POPC   PO458728  39.146   1.984   5.121
 4534POPC   GL158729  39.144   1.941   5.640
 4534POPC   GL258730  39.075   2.238   5.868
 4534POPC   C1A58731  39.226   1.828   6.151
 4534POPC   D2A58732  39.396   1.977   6.611
 4534POPC   C3A58733  39.470   1.781   7.034
 4534POPC   C4A58734  39.238   1.938   7.424
 4534POPC   C1B58735  39.292   2.335   6.242
 4534POPC   C2B58736  39.225   2.472   6.659
 4534POPC   C3B58737  39.313   2.266   7.050
 4534POPC   C4B58738  39.529   2.341   7.489
 4535POPC   NC358739  19.439  22.240   5.302
 4535POPC   PO458740  20.126  22.215   5.579
 4535POPC   GL158741  19.720  22.376   5.725
 4535POPC   GL258742  19.554  22.059   5.761
 4535POPC   C1A58743  19.579  22.389   6.155
 4535POPC   D2A58744  19.490  22.144   6.524
 4535POPC   C3A58745  19.642  22.282   6.916
 4535POPC   C4A58746  19.820  22.433   7.311
 4535POPC   C1B58747  19.809  21.924   6.143
 4535POPC   C2B58748  19.978  21.914   6.598
 4535POPC   C3B58749  20.105  22.053   7.037
 4535POPC   C4B58750  20.313  22.081   7.442
 4536POPC   NC358751  25.405  22.080   5.204
 4536POPC   PO458752  24.807  21.764   5.381
 4536POPC   GL158753  25.140  22.006   5.738
 4536POPC   GL258754  25.319  21.783   5.941
 4536POPC   C1A58755  25.289  22.229   6.173
 4536POPC   D2A58756  25.097  22.290   6.602
 4536POPC   C3A58757  25.294  22.473   6.988
 4536POPC   C4A58758  25.182  22.276   7.403
 4536POPC   C1B58759  25.610  21.798   6.253
 4536POPC   C2B58760  25.367  21.800   6.586
 4536POPC   C3B58761  25.330  21.973   6.966
 4536POPC   C4B58762  25.573  21.901   7.298
 4537POPC   NC358763   8.503  22.223   5.412
 4537POPC   PO458764   7.981  21.819   5.453
 4537POPC   GL158765   8.073  22.094   5.830
 4537POPC   GL258766   8.399  22.068   5.889
 4537POPC   C1A58767   8.146  22.422   6.159
 4537POPC   D2A58768   8.465  22.582   6.471
 4537POPC   C3A58769   8.418  22.441   6.913
 4537POPC   C4A58770   8.099  22.280   7.210
 4537POPC   C1B58771   8.317  21.907   6.281
 4537POPC   C2B58772   8.384  21.674   6.630
 4537POPC   C3B58773   8.324  21.857   7.016
 4537POPC   C4B58774   8.466  21.942   7.443
 4538POPC   NC358775   8.698  33.445   5.372
 4538POPC   PO458776   9.376  33.316   5.449
 4538POPC   GL158777   9.094  33.039   5.691
 4538POPC   GL258778   8.784  33.113   5.811
 4538POPC   C1A58779   9.138  32.938   6.140
 4538POPC   D2A58780   9.203  32.918   6.585
 4538POPC   C3A58781   9.191  33.257   6.895
 4538POPC   C4A58782   9.038  33.140   7.307
 4538POPC   C1B58783   8.618  32.883   6.198
 4538POPC   C2B58784   8.523  32.751   6.656
 4538POPC   C3B58785   8.433  32.901   7.093
 4538POPC   C4B58786   8.564  33.138   7.497
 4539POPC   NC358787  11.101  10.000   5.246
 4539POPC   PO458788  10.476   9.768   5.350
 4539POPC   GL158789  10.643   9.669   5.741
 4539POPC   GL258790  10.634   9.990   5.841
 4539POPC   C1A58791  10.605   9.584   6.207
 4539POPC   D2A58792  10.412   9.402   6.561
 4539POPC   C3A58793  10.480   9.644   6.913
 4539POPC   C4A58794  10.629   9.566   7.310
 4539POPC   C1B58795  10.277   9.942   6.124
 4539POPC   C2B58796  10.160   9.866   6.545
 4539POPC   C3B58797  10.156  10.053   6.936
 4539POPC   C4B58798  10.404  10.090   7.310
 4540POPC   NC358799   3.668  11.025   5.411
 4540POPC   PO458800   3.275  11.537   5.416
 4540POPC   GL158801   3.459  11.344   5.761
 4540POPC   GL258802   3.227  11.087   5.749
 4540POPC   C1A58803   3.681  11.443   6.181
 4540POPC   D2A58804   3.889  11.331   6.579
 4540POPC   C3A58805   3.620  11.269   6.951
 4540POPC   C4A58806   3.342  11.513   7.248
 4540POPC   C1B58807   3.486  10.981   6.108
 4540POPC   C2B58808   3.436  11.016   6.520
 4540POPC   C3B58809   3.375  10.814   6.883
 4540POPC   C4B58810   3.318  11.001   7.275
 4541POPC   NC358811  22.587  30.862   5.497
 4541POPC   PO458812  21.932  30.713   5.234
 4541POPC   GL158813  22.071  30.619   5.677
 4541POPC   GL258814  22.364  30.460   5.796
 4541POPC   C1A58815  22.070  30.614   6.164
 4541POPC   D2A58816  21.882  30.535   6.589
 4541POPC   C3A58817  22.105  30.668   6.952
 4541POPC   C4A58818  22.166  30.341   7.255
 4541POPC   C1B58819  22.580  30.560   6.163
 4541POPC   C2B58820  22.427  30.565   6.544
 4541POPC   C3B58821  22.539  30.327   6.894
 4541POPC   C4B58822  22.660  30.457   7.301
 4542POPC   NC358823  16.028  25.422   5.171
 4542POPC   PO458824  15.427  25.056   5.281
 4542POPC   GL158825  15.691  25.172   5.695
 4542POPC   GL258826  16.056  25.219   5.646
 4542POPC   C1A58827  15.832  25.142   6.174
 4542POPC   D2A58828  16.111  25.161   6.570
 4542POPC   C3A58829  15.940  25.276   6.974
 4542POPC   C4A58830  15.547  25.222   7.144
 4542POPC   C1B58831  16.211  25.446   6.032
 4542POPC   C2B58832  16.243  25.636   6.466
 4542POPC   C3B58833  16.362  25.546   6.906
 4542POPC   C4B58834  16.300  25.336   7.338
 4543POPC   NC358835  30.637  22.458   5.665
 4543POPC   PO458836  30.920  22.956   5.237
 4543POPC   GL158837  30.965  22.883   5.739
 4543POPC   GL258838  30.717  23.056   5.964
 4543POPC   C1A58839  30.961  22.663   6.222
 4543POPC   D2A58840  30.906  22.370   6.628
 4543POPC   C3A58841  30.907  22.517   7.122
 4543POPC   C4A58842  30.714  22.670   7.531
 4543POPC   C1B58843  30.472  22.791   6.276
 4543POPC   C2B58844  30.531  22.712   6.711
 4543POPC   C3B58845  30.537  22.899   7.097
 4543POPC   C4B58846  30.265  23.183   7.319
 4544POPC   NC358847  21.759  10.067   5.114
 4544POPC   PO458848  21.200   9.813   5.362
 4544POPC   GL158849  21.369   9.911   5.764
 4544POPC   GL258850  21.454   9.569   5.816
 4544POPC   C1A58851  21.229  10.122   6.139
 4544POPC   D2A58852  21.135   9.931   6.531
 4544POPC   C3A58853  21.378   9.873   6.907
 4544POPC   C4A58854  21.109   9.906   7.269
 4544POPC   C1B58855  21.453   9.647   6.254
 4544POPC   C2B58856  21.783   9.525   6.529
 4544POPC   C3B58857  21.853   9.556   6.958
 4544POPC   C4B58858  21.617   9.596   7.315
 4545POPC   NC358859  33.615  40.673   5.391
 4545POPC   PO458860  33.865  41.201   5.472
 4545POPC   GL158861  33.794  40.931   5.797
 4545POPC   GL258862  34.011  40.622   5.700
 4545POPC   C1A58863  33.544  40.767   6.129
 4545POPC   D2A58864  33.381  40.910   6.539
 4545POPC   C3A58865  33.540  40.654   6.862
 4545POPC   C4A58866  33.731  40.752   7.233
 4545POPC   C1B58867  34.098  40.681   6.135
 4545POPC   C2B58868  33.930  40.803   6.530
 4545POPC   C3B58869  34.112  40.900   6.941
 4545POPC   C4B58870  34.208  40.608   7.303
 4546POPC   NC358871  10.573  25.503   5.117
 4546POPC   PO458872  10.445  26.162   5.368
 4546POPC   GL158873  10.615  26.146   5.792
 4546POPC   GL258874  10.456  25.846   5.799
 4546POPC   C1A58875  10.782  26.252   6.226
 4546POPC   D2A58876  10.888  26.145   6.645
 4546POPC   C3A58877  10.741  26.266   7.053
 4546POPC   C4A58878  10.392  26.379   7.305
 4546POPC   C1B58879  10.333  25.989   6.207
 4546POPC   C2B58880  10.420  25.862   6.624
 4546POPC   C3B58881  10.387  25.899   7.073
 4546POPC   C4B58882  10.183  25.785   7.433
 4547POPC   NC358883  16.224  28.326   4.932
 4547POPC   PO458884  15.873  28.315   5.429
 4547POPC   GL158885  15.897  28.460   5.868
 4547POPC   GL258886  16.230  28.500   5.935
 4547POPC   C1A58887  15.911  28.260   6.317
 4547POPC   D2A58888  15.970  27.931   6.661
 4547POPC   C3A58889  15.830  28.118   7.079
 4547POPC   C4A58890  15.598  28.330   7.462
 4547POPC   C1B58891  16.343  28.554   6.370
 4547POPC   C2B58892  16.215  28.354   6.748
 4547POPC   C3B58893  16.320  28.195   7.172
 4547POPC   C4B58894  16.090  28.448   7.466
 4548POPC   NC358895  39.027  24.758   5.557
 4548POPC   PO458896  39.507  24.254   5.474
 4548POPC   GL158897  39.379  24.492   5.803
 4548POPC   GL258898  39.025  24.361   5.898
 4548POPC   C1A58899  39.318  24.752   6.157
 4548POPC   D2A58900  39.248  24.560   6.533
 4548POPC   C3A58901  39.437  24.677   6.911
 4548POPC   C4A58902  39.474  24.331   7.212
 4548POPC   C1B58903  38.693  24.175   6.187
 4548POPC   C2B58904  38.732  24.168   6.631
 4548POPC   C3B58905  39.014  24.396   6.952
 4548POPC   C4B58906  39.063  24.662   7.292
 4549POPC   NC358907  33.386  33.111   5.540
 4549POPC   PO458908  33.979  32.769   5.429
 4549POPC   GL158909  33.818  32.961   5.783
 4549POPC   GL258910  33.848  33.298   5.680
 4549POPC   C1A58911  33.572  32.877   6.146
 4549POPC   D2A58912  33.365  32.878   6.550
 4549POPC   C3A58913  33.666  32.881   6.886
 4549POPC   C4A58914  33.783  33.041   7.283
 4549POPC   C1B58915  33.673  33.406   6.100
 4549POPC   C2B58916  33.790  33.217   6.494
 4549POPC   C3B58917  33.779  33.393   6.906
 4549POPC   C4B58918  33.518  33.484   7.260
 4550POPC   NC358919  31.903   7.155   5.437
 4550POPC   PO458920  32.521   7.480   5.334
 4550POPC   GL158921  32.390   7.434   5.755
 4550POPC   GL258922  32.018   7.470   5.801
 4550POPC   C1A58923  32.344   7.584   6.171
 4550POPC   D2A58924  32.059   7.506   6.489
 4550POPC   C3A58925  32.197   7.651   6.880
 4550POPC   C4A58926  32.128   7.473   7.261
 4550POPC   C1B58927  32.100   7.112   6.085
 4550POPC   C2B58928  31.918   6.995   6.482
 4550POPC   C3B58929  32.077   7.143   6.869
 4550POPC   C4B58930  32.062   6.974   7.277
 4551POPC   NC358931  39.818  40.506   5.357
 4551POPC   PO458932  40.023  41.052   5.431
 4551POPC   GL158933  40.146  40.840   5.820
 4551POPC   GL258934  40.123  40.447   5.769
 4551POPC   C1A58935  40.011  41.014   6.240
 4551POPC   D2A58936  39.787  41.016   6.642
 4551POPC   C3A58937  40.035  41.074   7.020
 4551POPC   C4A58938  39.905  40.841   7.398
 4551POPC   C1B58939  40.021  40.491   6.201
 4551POPC   C2B58940  40.084  40.624   6.608
 4551POPC   C3B58941  39.890  40.581   6.957
 4551POPC   C4B58942  39.980  40.296   7.246
 4552POPC   NC358943   2.737   0.736   5.345
 4552POPC   PO458944   2.651  44.986   5.369
 4552POPC   GL158945   2.791   0.355   5.710
 4552POPC   GL258946   2.713   0.732   5.837
 4552POPC   C1A58947   2.758   0.338   6.172
 4552POPC   D2A58948   2.640   0.077   6.520
 4552POPC   C3A58949   2.747   0.230   6.910
 4552POPC   C4A58950   2.822   0.276   7.299
 4552POPC   C1B58951   2.485   0.776   6.199
 4552POPC   C2B58952   2.635   0.643   6.607
 4552POPC   C3B58953   2.591   0.848   7.014
 4552POPC   C4B58954   2.607   0.812   7.481
 4553POPC   NC358955  24.678   8.154   5.336
 4553POPC   PO458956  24.678   8.768   5.662
 4553POPC   GL158957  24.627   8.463   5.993
 4553POPC   GL258958  24.532   8.113   5.857
 4553POPC   C1A58959  24.739   8.381   6.423
 4553POPC   D2A58960  24.747   8.142   6.778
 4553POPC   C3A58961  24.654   8.378   7.136
 4553POPC   C4A58962  24.501   8.263   7.539
 4553POPC   C1B58963  24.439   7.962   6.302
 4553POPC   C2B58964  24.359   7.815   6.744
 4553POPC   C3B58965  24.262   8.020   7.145
 4553POPC   C4B58966  23.970   8.075   7.521
 4554POPC   NC358967  15.348  39.393   5.330
 4554POPC   PO458968  15.300  38.726   5.305
 4554POPC   GL158969  15.292  38.992   5.702
 4554POPC   GL258970  15.336  39.357   5.837
 4554POPC   C1A58971  15.026  39.026   6.070
 4554POPC   D2A58972  15.087  39.213   6.473
 4554POPC   C3A58973  15.401  39.181   6.810
 4554POPC   C4A58974  15.249  39.032   7.215
 4554POPC   C1B58975  14.995  39.558   6.098
 4554POPC   C2B58976  14.818  39.671   6.497
 4554POPC   C3B58977  14.983  39.493   6.894
 4554POPC   C4B58978  15.161  39.526   7.311
 4555POPC   NC358979  23.815   8.529   5.400
 4555POPC   PO458980  23.423   7.965   5.284
 4555POPC   GL158981  23.664   8.105   5.674
 4555POPC   GL258982  23.533   7.812   5.820
 4555POPC   C1A58983  23.735   8.379   6.065
 4555POPC   D2A58984  24.025   8.268   6.422
 4555POPC   C3A58985  23.908   8.255   6.855
 4555POPC   C4A58986  23.643   8.312   7.178
 4555POPC   C1B58987  23.774   7.892   6.195
 4555POPC   C2B58988  23.863   7.802   6.622
 4555POPC   C3B58989  23.831   7.779   7.082
 4555POPC   C4B58990  23.513   7.772   7.367
 4556POPC   NC358991  42.937   4.082   5.437
 4556POPC   PO458992  43.274   4.706   5.450
 4556POPC   GL158993  43.184   4.341   5.835
 4556POPC   GL258994  42.887   4.061   5.943
 4556POPC   C1A58995  43.256   4.121   6.270
 4556POPC   D2A58996  43.091   4.204   6.675
 4556POPC   C3A58997  43.346   4.082   7.026
 4556POPC   C4A58998  43.376   4.312   7.409
 4556POPC   C1B58999  42.814   4.422   6.229
 4556POPC   C2B59000  42.729   4.575   6.656
 4556POPC   C3B59001  42.907   4.454   7.093
 4556POPC   C4B59002  42.942   4.080   7.336
 4557POPC   NC359003  10.177  37.723   5.643
 4557POPC   PO459004   9.633  37.948   5.316
 4557POPC   GL159005   9.614  37.739   5.698
 4557POPC   GL259006   9.291  37.557   5.787
 4557POPC   C1A59007   9.705  37.506   6.103
 4557POPC   D2A59008   9.876  37.328   6.500
 4557POPC   C3A59009   9.689  37.537   6.869
 4557POPC   C4A59010   9.841  37.680   7.278
 4557POPC   C1B59011   9.348  37.922   6.084
 4557POPC   C2B59012   9.295  38.040   6.533
 4557POPC   C3B59013   9.489  38.027   6.974
 4557POPC   C4B59014   9.706  38.173   7.344
 4558POPC   NC359015  30.310  38.427   5.664
 4558POPC   PO459016  29.642  38.618   5.456
 4558POPC   GL159017  29.830  38.532   5.813
 4558POPC   GL259018  29.850  38.177   5.880
 4558POPC   C1A59019  29.990  38.576   6.220
 4558POPC   D2A59020  29.724  38.464   6.531
 4558POPC   C3A59021  29.777  38.664   6.912
 4558POPC   C4A59022  29.905  38.625   7.319
 4558POPC   C1B59023  30.002  38.060   6.296
 4558POPC   C2B59024  30.011  38.132   6.773
 4558POPC   C3B59025  30.074  38.159   7.225
 4558POPC   C4B59026  30.265  38.398   7.602
 4559POPC   NC359027  31.855  43.362   5.397
 4559POPC   PO459028  32.493  43.372   5.281
 4559POPC   GL159029  32.441  43.273   5.724
 4559POPC   GL259030  32.122  43.100   5.760
 4559POPC   C1A59031  32.493  43.145   6.179
 4559POPC   D2A59032  32.608  43.076   6.609
 4559POPC   C3A59033  32.327  43.098   6.957
 4559POPC   C4A59034  32.389  43.342   7.332
 4559POPC   C1B59035  32.035  42.934   6.154
 4559POPC   C2B59036  31.843  42.910   6.533
 4559POPC   C3B59037  31.877  42.829   6.964
 4559POPC   C4B59038  31.935  43.086   7.303
 4560POPC   NC359039  13.190  14.533   5.484
 4560POPC   PO459040  13.829  14.425   5.342
 4560POPC   GL159041  13.643  14.369   5.736
 4560POPC   GL259042  13.444  14.096   5.686
 4560POPC   C1A59043  13.669  14.203   6.160
 4560POPC   D2A59044  13.779  14.381   6.546
 4560POPC   C3A59045  13.944  14.232   6.910
 4560POPC   C4A59046  13.598  14.346   7.152
 4560POPC   C1B59047  13.272  13.935   6.065
 4560POPC   C2B59048  13.401  13.889   6.481
 4560POPC   C3B59049  13.595  13.855   6.829
 4560POPC   C4B59050  13.543  13.845   7.237
 4561POPC   NC359051  23.023  10.873   5.528
 4561POPC   PO459052  23.274  11.484   5.273
 4561POPC   GL159053  23.222  11.337   5.732
 4561POPC   GL259054  22.961  11.565   5.924
 4561POPC   C1A59055  23.121  11.148   6.142
 4561POPC   D2A59056  22.853  11.103   6.490
 4561POPC   C3A59057  23.048  11.233   6.807
 4561POPC   C4A59058  23.216  11.223   7.185
 4561POPC   C1B59059  22.603  11.336   6.089
 4561POPC   C2B59060  22.406  11.381   6.472
 4561POPC   C3B59061  22.580  11.539   6.810
 4561POPC   C4B59062  22.711  11.343   7.183
 4562POPC   NC359063   4.108   6.370   5.466
 4562POPC   PO459064   3.983   6.972   5.479
 4562POPC   GL159065   4.282   6.789   5.786
 4562POPC   GL259066   4.189   6.468   5.958
 4562POPC   C1A59067   4.425   6.851   6.218
 4562POPC   D2A59068   4.273   6.753   6.611
 4562POPC   C3A59069   4.538   6.755   6.961
 4562POPC   C4A59070   4.377   6.769   7.349
 4562POPC   C1B59071   3.899   6.521   6.312
 4562POPC   C2B59072   3.887   6.438   6.753
 4562POPC   C3B59073   3.974   6.552   7.154
 4562POPC   C4B59074   3.811   6.592   7.573
 4563POPC   NC359075  34.894  16.213   5.112
 4563POPC   PO459076  34.375  15.929   5.440
 4563POPC   GL159077  34.578  15.896   5.834
 4563POPC   GL259078  34.362  16.149   5.911
 4563POPC   C1A59079  34.670  15.928   6.295
 4563POPC   D2A59080  34.496  16.037   6.721
 4563POPC   C3A59081  34.803  16.010   7.040
 4563POPC   C4A59082  35.044  15.739   7.269
 4563POPC   C1B59083  34.185  16.132   6.316
 4563POPC   C2B59084  34.094  16.366   6.697
 4563POPC   C3B59085  34.131  16.190   7.126
 4563POPC   C4B59086  34.150  16.283   7.603
 4564POPC   NC359087   2.646  39.194   5.075
 4564POPC   PO459088   2.986  39.106   5.588
 4564POPC   GL159089   2.766  39.109   5.918
 4564POPC   GL259090   2.816  38.737   5.921
 4564POPC   C1A59091   2.916  39.364   6.301
 4564POPC   D2A59092   3.235  39.426   6.650
 4564POPC   C3A59093   3.023  39.371   7.039
 4564POPC   C4A59094   2.678  39.196   7.252
 4564POPC   C1B59095   3.013  38.858   6.274
 4564POPC   C2B59096   2.940  38.987   6.673
 4564POPC   C3B59097   2.872  38.800   7.028
 4564POPC   C4B59098   2.969  38.817   7.437
 4565POPC   NC359099  14.094  20.819   5.290
 4565POPC   PO459100  14.566  20.565   5.404
 4565POPC   GL159101  14.520  20.408   5.829
 4565POPC   GL259102  14.833  20.283   5.963
 4565POPC   C1A59103  14.183  20.390   6.160
 4565POPC   D2A59104  14.160  20.405   6.636
 4565POPC   C3A59105  13.989  20.784   6.808
 4565POPC   C4A59106  13.876  20.942   7.184
 4565POPC   C1B59107  14.633  20.385   6.378
 4565POPC   C2B59108  14.623  20.617   6.779
 4565POPC   C3B59109  14.467  20.983   7.011
 4565POPC   C4B59110  14.451  21.059   7.448
 4566POPC   NC359111  11.611  19.176   5.396
 4566POPC   PO459112  10.995  18.871   5.387
 4566POPC   GL159113  11.300  18.959   5.742
 4566POPC   GL259114  11.665  18.788   5.750
 4566POPC   C1A59115  11.263  19.182   6.143
 4566POPC   D2A59116  11.386  19.212   6.574
 4566POPC   C3A59117  11.148  19.121   6.931
 4566POPC   C4A59118  11.390  19.186   7.260
 4566POPC   C1B59119  11.496  18.723   6.176
 4566POPC   C2B59120  11.642  18.742   6.597
 4566POPC   C3B59121  11.526  18.765   7.027
 4566POPC   C4B59122  11.606  18.783   7.504
 4567POPC   NC359123   4.852  30.756   5.410
 4567POPC   PO459124   5.541  30.580   5.453
 4567POPC   GL159125   5.331  30.807   5.809
 4567POPC   GL259126   4.948  30.788   5.907
 4567POPC   C1A59127   5.337  30.694   6.224
 4567POPC   D2A59128   5.027  30.673   6.575
 4567POPC   C3A59129   5.202  30.511   6.919
 4567POPC   C4A59130   5.174  30.576   7.328
 4567POPC   C1B59131   5.013  31.075   6.258
 4567POPC   C2B59132   5.015  31.224   6.664
 4567POPC   C3B59133   5.012  30.970   7.040
 4567POPC   C4B59134   4.692  30.840   7.344
 4568POPC   NC359135  25.963  38.673   5.324
 4568POPC   PO459136  26.401  38.296   5.610
 4568POPC   GL159137  25.972  38.456   5.785
 4568POPC   GL259138  25.968  38.845   5.801
 4568POPC   C1A59139  25.862  38.539   6.214
 4568POPC   D2A59140  25.913  38.424   6.696
 4568POPC   C3A59141  25.883  38.580   7.155
 4568POPC   C4A59142  26.124  38.405   7.519
 4568POPC   C1B59143  26.168  39.035   6.165
 4568POPC   C2B59144  26.112  38.865   6.537
 4568POPC   C3B59145  26.190  38.911   6.943
 4568POPC   C4B59146  26.296  38.884   7.361
 4569POPC   NC359147   2.924  32.176   5.627
 4569POPC   PO459148   2.340  32.354   5.865
 4569POPC   GL159149   2.746  32.276   6.106
 4569POPC   GL259150   3.101  32.063   6.071
 4569POPC   C1A59151   2.731  32.236   6.557
 4569POPC   D2A59152   2.479  32.038   6.877
 4569POPC   C3A59153   2.442  32.217   7.274
 4569POPC   C4A59154   2.762  32.217   7.612
 4569POPC   C1B59155   3.190  32.458   6.277
 4569POPC   C2B59156   3.089  32.560   6.698
 4569POPC   C3B59157   2.915  32.326   7.042
 4569POPC   C4B59158   2.868  31.918   7.207
 4570POPC   NC359159  25.863  40.521   5.630
 4570POPC   PO459160  25.274  40.438   5.379
 4570POPC   GL159161  25.342  40.653   5.758
 4570POPC   GL259162  25.251  41.003   5.655
 4570POPC   C1A59163  25.435  40.533   6.217
 4570POPC   D2A59164  25.609  40.608   6.660
 4570POPC   C3A59165  25.232  40.622   6.949
 4570POPC   C4A59166  25.202  40.505   7.395
 4570POPC   C1B59167  25.391  41.018   6.085
 4570POPC   C2B59168  25.332  41.023   6.493
 4570POPC   C3B59169  25.466  41.071   6.879
 4570POPC   C4B59170  25.405  40.953   7.308
 4571POPC   NC359171  10.354  13.854   5.623
 4571POPC   PO459172  10.588  13.224   5.461
 4571POPC   GL159173  10.453  13.389   5.858
 4571POPC   GL259174  10.719  13.618   5.982
 4571POPC   C1A59175  10.300  13.523   6.271
 4571POPC   D2A59176  10.533  13.783   6.542
 4571POPC   C3A59177  10.624  13.696   6.980
 4571POPC   C4A59178  10.779  14.022   7.203
 4571POPC   C1B59179  10.768  13.281   6.275
 4571POPC   C2B59180  10.639  13.227   6.709
 4571POPC   C3B59181  10.937  13.282   7.057
 4571POPC   C4B59182  10.953  13.481   7.440
 4572POPC   NC359183  35.699   7.997   5.425
 4572POPC   PO459184  35.014   7.854   5.376
 4572POPC   GL159185  35.288   7.799   5.721
 4572POPC   GL259186  35.092   7.614   5.940
 4572POPC   C1A59187  35.434   7.959   6.132
 4572POPC   D2A59188  35.303   8.277   6.447
 4572POPC   C3A59189  35.474   8.223   6.873
 4572POPC   C4A59190  35.318   8.331   7.261
 4572POPC   C1B59191  35.039   7.762   6.375
 4572POPC   C2B59192  35.062   7.954   6.767
 4572POPC   C3B59193  35.136   7.873   7.186
 4572POPC   C4B59194  35.386   7.969   7.601
 4573POPC   NC359195  11.845  21.520   5.387
 4573POPC   PO459196  12.334  21.082   5.534
 4573POPC   GL159197  12.062  21.331   5.800
 4573POPC   GL259198  11.836  21.088   5.774
 4573POPC   C1A59199  12.116  21.619   6.177
 4573POPC   D2A59200  12.311  21.768   6.567
 4573POPC   C3A59201  12.105  21.546   6.907
 4573POPC   C4A59202  12.114  21.278   7.275
 4573POPC   C1B59203  12.029  21.094   6.241
 4573POPC   C2B59204  12.027  21.029   6.702
 4573POPC   C3B59205  12.129  20.815   7.086
 4573POPC   C4B59206  12.099  20.836   7.548
 4574POPC   NC359207  43.084   7.715   5.535
 4574POPC   PO459208  43.244   7.092   5.256
 4574POPC   GL159209  43.354   7.281   5.674
 4574POPC   GL259210  43.651   7.514   5.647
 4574POPC   C1A59211  43.252   7.447   6.122
 4574POPC   D2A59212  43.131   7.425   6.582
 4574POPC   C3A59213  42.727   7.299   6.798
 4574POPC   C4A59214  42.742   7.109   7.207
 4574POPC   C1B59215  43.697   7.716   6.079
 4574POPC   C2B59216  43.447   7.834   6.460
 4574POPC   C3B59217  43.472   7.672   6.888
 4574POPC   C4B59218  43.141   7.428   7.105
 4575POPC   NC359219  38.027  27.090   5.381
 4575POPC   PO459220  38.586  26.632   5.394
 4575POPC   GL159221  38.407  26.930   5.685
 4575POPC   GL259222  38.216  26.718   5.867
 4575POPC   C1A59223  38.447  27.093   6.126
 4575POPC   D2A59224  38.710  27.055   6.507
 4575POPC   C3A59225  38.527  27.028   6.917
 4575POPC   C4A59226  38.677  26.828   7.290
 4575POPC   C1B59227  38.116  26.404   6.184
 4575POPC   C2B59228  38.191  26.299   6.632
 4575POPC   C3B59229  38.197  26.580   7.027
 4575POPC   C4B59230  38.114  26.500   7.481
 4576POPC   NC359231  38.190  22.565   5.507
 4576POPC   PO459232  38.548  22.000   5.452
 4576POPC   GL159233  38.526  22.269   5.804
 4576POPC   GL259234  38.512  21.939   5.947
 4576POPC   C1A59235  38.375  22.401   6.245
 4576POPC   D2A59236  38.112  22.315   6.647
 4576POPC   C3A59237  38.327  22.372   7.055
 4576POPC   C4A59238  38.495  22.239   7.474
 4576POPC   C1B59239  38.310  21.892   6.312
 4576POPC   C2B59240  38.530  22.003   6.664
 4576POPC   C3B59241  38.624  21.948   7.071
 4576POPC   C4B59242  38.289  21.800   7.311
 4577POPC   NC359243  39.103  43.801   5.320
 4577POPC   PO459244  39.794  43.716   5.228
 4577POPC   GL159245  39.424  43.850   5.695
 4577POPC   GL259246  39.084  43.727   5.812
 4577POPC   C1A59247  39.406  43.552   6.142
 4577POPC   D2A59248  39.118  43.594   6.480
 4577POPC   C3A59249  39.358  43.802   6.800
 4577POPC   C4A59250  39.357  43.814   7.238
 4577POPC   C1B59251  39.205  44.016   6.164
 4577POPC   C2B59252  39.038  44.141   6.563
 4577POPC   C3B59253  38.929  44.055   6.996
 4577POPC   C4B59254  39.080  44.235   7.387
 4578POPC   NC359255  15.530  13.435   5.118
 4578POPC   PO459256  14.981  13.800   5.305
 4578POPC   GL159257  15.131  13.553   5.681
 4578POPC   GL259258  15.498  13.586   5.665
 4578POPC   C1A59259  15.208  13.424   6.141
 4578POPC   D2A59260  15.343  13.437   6.568
 4578POPC   C3A59261  15.280  13.637   6.957
 4578POPC   C4A59262  15.618  13.539   7.222
 4578POPC   C1B59263  15.348  13.895   6.002
 4578POPC   C2B59264  15.400  13.942   6.444
 4578POPC   C3B59265  15.269  14.173   6.809
 4578POPC   C4B59266  15.307  14.142   7.255
 4579POPC   NC359267  32.491   3.064   5.351
 4579POPC   PO459268  32.008   2.625   5.558
 4579POPC   GL159269  32.053   2.920   5.846
 4579POPC   GL259270  32.402   3.013   5.849
 4579POPC   C1A59271  32.007   2.862   6.261
 4579POPC   D2A59272  32.127   2.926   6.663
 4579POPC   C3A59273  31.991   2.715   7.007
 4579POPC   C4A59274  32.109   2.702   7.407
 4579POPC   C1B59275  32.507   2.980   6.304
 4579POPC   C2B59276  32.619   3.028   6.741
 4579POPC   C3B59277  32.475   2.961   7.185
 4579POPC   C4B59278  32.503   2.923   7.662
 4580POPC   NC359279  22.517  28.284   5.502
 4580POPC   PO459280  23.055  28.533   5.082
 4580POPC   GL159281  23.025  28.368   5.553
 4580POPC   GL259282  23.348  28.272   5.704
 4580POPC   C1A59283  22.851  28.392   6.038
 4580POPC   D2A59284  22.945  28.523   6.508
 4580POPC   C3A59285  22.725  28.487   6.953
 4580POPC   C4A59286  22.859  28.339   7.400
 4580POPC   C1B59287  23.342  28.384   6.131
 4580POPC   C2B59288  23.361  28.217   6.533
 4580POPC   C3B59289  23.224  28.398   6.926
 4580POPC   C4B59290  23.349  28.373   7.335
 4581POPC   NC359291  16.979   6.704   5.480
 4581POPC   PO459292  16.397   6.779   5.700
 4581POPC   GL159293  16.626   6.439   5.956
 4581POPC   GL259294  16.972   6.407   5.893
 4581POPC   C1A59295  16.757   6.453   6.405
 4581POPC   D2A59296  16.830   6.758   6.735
 4581POPC   C3A59297  16.671   6.698   7.162
 4581POPC   C4A59298  16.379   6.869   7.483
 4581POPC   C1B59299  17.233   6.398   6.217
 4581POPC   C2B59300  17.298   6.580   6.620
 4581POPC   C3B59301  17.102   6.437   7.020
 4581POPC   C4B59302  16.864   6.318   7.444
 4582POPC   NC359303  31.934  34.793   5.583
 4582POPC   PO459304  32.343  34.371   5.332
 4582POPC   GL159305  32.264  34.420   5.801
 4582POPC   GL259306  32.357  34.057   5.909
 4582POPC   C1A59307  32.288  34.725   6.226
 4582POPC   D2A59308  32.588  34.726   6.615
 4582POPC   C3A59309  32.427  34.929   7.011
 4582POPC   C4A59310  32.059  34.748   7.236
 4582POPC   C1B59311  32.098  34.250   6.264
 4582POPC   C2B59312  32.146  34.415   6.702
 4582POPC   C3B59313  31.939  34.278   7.087
 4582POPC   C4B59314  31.637  34.459   7.388
 4583POPC   NC359315  33.483  23.480   5.181
 4583POPC   PO459316  34.046  23.459   5.353
 4583POPC   GL159317  33.885  23.485   5.761
 4583POPC   GL259318  33.514  23.485   5.723
 4583POPC   C1A59319  34.038  23.718   6.138
 4583POPC   D2A59320  33.994  23.550   6.551
 4583POPC   C3A59321  33.869  23.725   6.958
 4583POPC   C4A59322  33.556  23.915   7.244
 4583POPC   C1B59323  33.559  23.524   6.207
 4583POPC   C2B59324  33.484  23.431   6.675
 4583POPC   C3B59325  33.434  23.406   7.149
 4583POPC   C4B59326  33.240  23.579   7.535
 4584POPC   NC359327  21.355  28.689   5.419
 4584POPC   PO459328  21.662  28.152   5.489
 4584POPC   GL159329  21.410  28.301   5.795
 4584POPC   GL259330  21.547  28.591   5.883
 4584POPC   C1A59331  21.367  28.168   6.222
 4584POPC   D2A59332  21.590  28.058   6.598
 4584POPC   C3A59333  21.469  28.366   6.850
 4584POPC   C4A59334  21.433  28.413   7.270
 4584POPC   C1B59335  21.196  28.681   6.152
 4584POPC   C2B59336  21.070  28.588   6.578
 4584POPC   C3B59337  21.144  28.741   6.992
 4584POPC   C4B59338  21.020  28.622   7.439
 4585POPC   NC359339  16.119  15.751   5.363
 4585POPC   PO459340  15.670  16.172   5.444
 4585POPC   GL159341  15.802  15.870   5.745
 4585POPC   GL259342  16.154  15.997   5.815
 4585POPC   C1A59343  15.830  15.679   6.131
 4585POPC   D2A59344  15.656  15.816   6.513
 4585POPC   C3A59345  15.799  15.692   6.884
 4585POPC   C4A59346  15.759  15.886   7.269
 4585POPC   C1B59347  16.374  15.796   6.142
 4585POPC   C2B59348  16.175  15.733   6.527
 4585POPC   C3B59349  16.325  15.738   6.936
 4585POPC   C4B59350  16.263  15.944   7.307
 4586POPC   NC359351   9.660  10.626   5.414
 4586POPC   PO459352  10.279  10.701   5.652
 4586POPC   GL159353   9.890  10.561   5.861
 4586POPC   GL259354   9.941  10.247   5.908
 4586POPC   C1A59355   9.594  10.426   6.239
 4586POPC   D2A59356   9.373  10.457   6.677
 4586POPC   C3A59357   9.559  10.277   7.065
 4586POPC   C4A59358   9.922  10.288   7.329
 4586POPC   C1B59359  10.119  10.395   6.291
 4586POPC   C2B59360   9.909  10.431   6.654
 4586POPC   C3B59361   9.897  10.672   6.967
 4586POPC   C4B59362   9.890  10.813   7.327
 4587POPC   NC359363  16.324  32.083   5.559
 4587POPC   PO459364  16.920  32.347   5.411
 4587POPC   GL159365  16.806  32.335   5.812
 4587POPC   GL259366  16.529  32.532   5.750
 4587POPC   C1A59367  16.792  32.346   6.276
 4587POPC   D2A59368  16.557  32.420   6.644
 4587POPC   C3A59369  16.737  32.128   6.950
 4587POPC   C4A59370  16.913  32.162   7.343
 4587POPC   C1B59371  16.456  32.728   6.122
 4587POPC   C2B59372  16.389  32.914   6.527
 4587POPC   C3B59373  16.353  32.791   6.940
 4587POPC   C4B59374  16.512  32.504   7.216
 4588POPC   NC359375   1.939   4.619   5.435
 4588POPC   PO459376   1.929   3.926   5.441
 4588POPC   GL159377   1.789   4.191   5.829
 4588POPC   GL259378   1.831   4.562   5.915
 4588POPC   C1A59379   1.939   4.233   6.273
 4588POPC   D2A59380   2.147   4.421   6.598
 4588POPC   C3A59381   2.087   4.299   7.006
 4588POPC   C4A59382   1.733   4.418   7.242
 4588POPC   C1B59383   2.216   4.658   6.136
 4588POPC   C2B59384   2.310   4.902   6.502
 4588POPC   C3B59385   2.338   4.805   6.917
 4588POPC   C4B59386   2.249   4.702   7.309
 4589POPC   NC359387  24.537  35.893   5.115
 4589POPC   PO459388  25.291  36.074   5.278
 4589POPC   GL159389  25.360  35.948   5.690
 4589POPC   GL259390  25.199  36.244   5.820
 4589POPC   C1A59391  25.226  35.865   6.145
 4589POPC   D2A59392  25.080  36.046   6.511
 4589POPC   C3A59393  25.284  35.968   6.889
 4589POPC   C4A59394  25.062  35.971   7.263
 4589POPC   C1B59395  25.249  36.453   6.203
 4589POPC   C2B59396  25.350  36.467   6.637
 4589POPC   C3B59397  25.216  36.519   7.064
 4589POPC   C4B59398  25.156  36.431   7.501
 4590POPC   NC359399  22.212  15.259   5.254
 4590POPC   PO459400  21.723  14.894   5.544
 4590POPC   GL159401  22.133  15.052   5.761
 4590POPC   GL259402  22.183  15.434   5.754
 4590POPC   C1A59403  22.435  15.059   6.139
 4590POPC   D2A59404  22.491  15.302   6.539
 4590POPC   C3A59405  22.251  15.260   6.888
 4590POPC   C4A59406  22.240  14.906   7.040
 4590POPC   C1B59407  22.061  15.411   6.203
 4590POPC   C2B59408  21.925  15.074   6.499
 4590POPC   C3B59409  21.763  14.969   6.913
 4590POPC   C4B59410  21.887  15.224   7.254
 4591POPC   NC359411  22.299  16.612   5.450
 4591POPC   PO459412  21.710  16.972   5.341
 4591POPC   GL159413  21.988  16.951   5.731
 4591POPC   GL259414  22.004  16.577   5.849
 4591POPC   C1A59415  22.150  16.941   6.172
 4591POPC   D2A59416  21.985  16.787   6.583
 4591POPC   C3A59417  22.171  16.919   6.997
 4591POPC   C4A59418  22.211  16.851   7.473
 4591POPC   C1B59419  22.179  16.420   6.254
 4591POPC   C2B59420  22.069  16.275   6.689
 4591POPC   C3B59421  22.182  16.408   7.123
 4591POPC   C4B59422  22.452  16.395   7.478
 4592POPC   NC359423  26.435  39.106   5.014
 4592POPC   PO459424  25.903  39.131   5.375
 4592POPC   GL159425  26.024  39.354   5.800
 4592POPC   GL259426  26.295  39.526   5.812
 4592POPC   C1A59427  25.923  39.497   6.246
 4592POPC   D2A59428  25.911  39.324   6.693
 4592POPC   C3A59429  25.781  39.596   7.061
 4592POPC   C4A59430  25.772  39.563   7.552
 4592POPC   C1B59431  26.444  39.463   6.248
 4592POPC   C2B59432  26.458  39.235   6.635
 4592POPC   C3B59433  26.525  39.274   7.063
 4592POPC   C4B59434  26.213  39.436   7.293
 4593POPC   NC359435  12.974  26.325   5.613
 4593POPC   PO459436  12.879  26.911   5.300
 4593POPC   GL159437  12.800  26.831   5.729
 4593POPC   GL259438  12.561  26.544   5.794
 4593POPC   C1A59439  13.053  26.781   6.120
 4593POPC   D2A59440  13.100  26.982   6.525
 4593POPC   C3A59441  12.985  26.720   6.840
 4593POPC   C4A59442  12.929  26.798   7.245
 4593POPC   C1B59443  12.510  26.825   6.148
 4593POPC   C2B59444  12.559  27.042   6.526
 4593POPC   C3B59445  12.489  26.887   6.925
 4593POPC   C4B59446  12.477  26.964   7.350
 4594POPC   NC359447  30.016  38.637   5.179
 4594POPC   PO459448  29.879  39.320   5.238
 4594POPC   GL159449  29.810  39.059   5.651
 4594POPC   GL259450  30.122  38.954   5.810
 4594POPC   C1A59451  29.701  38.995   6.123
 4594POPC   D2A59452  29.582  39.277   6.498
 4594POPC   C3A59453  29.828  39.406   6.872
 4594POPC   C4A59454  29.894  39.113   7.182
 4594POPC   C1B59455  30.253  39.038   6.257
 4594POPC   C2B59456  30.165  39.032   6.717
 4594POPC   C3B59457  30.317  38.844   7.097
 4594POPC   C4B59458  30.207  38.939   7.546
 4595POPC   NC359459  17.910   1.158   5.477
 4595POPC   PO459460  17.460   1.614   5.523
 4595POPC   GL159461  17.553   1.334   5.807
 4595POPC   GL259462  17.307   1.079   5.792
 4595POPC   C1A59463  17.653   1.136   6.195
 4595POPC   D2A59464  17.427   1.015   6.570
 4595POPC   C3A59465  17.557   1.263   6.924
 4595POPC   C4A59466  17.752   1.253   7.320
 4595POPC   C1B59467  17.177   1.360   6.168
 4595POPC   C2B59468  17.168   1.468   6.628
 4595POPC   C3B59469  17.032   1.245   7.018
 4595POPC   C4B59470  17.279   1.023   7.316
 4596POPC   NC359471  23.622  23.117   5.411
 4596POPC   PO459472  24.080  22.671   5.506
 4596POPC   GL159473  24.131  22.967   5.876
 4596POPC   GL259474  23.851  23.133   5.861
 4596POPC   C1A59475  24.128  23.211   6.278
 4596POPC   D2A59476  23.863  23.004   6.573
 4596POPC   C3A59477  23.832  23.025   7.017
 4596POPC   C4A59478  23.951  22.671   7.291
 4596POPC   C1B59479  23.527  23.008   6.154
 4596POPC   C2B59480  23.369  23.149   6.557
 4596POPC   C3B59481  23.297  22.900   6.910
 4596POPC   C4B59482  23.410  22.907   7.315
 4597POPC   NC359483  38.911  42.765   5.525
 4597POPC   PO459484  39.196  43.339   5.466
 4597POPC   GL159485  39.059  43.182   5.849
 4597POPC   GL259486  38.685  43.122   5.830
 4597POPC   C1A59487  39.287  43.021   6.222
 4597POPC   D2A59488  39.287  43.140   6.656
 4597POPC   C3A59489  39.533  42.951   6.966
 4597POPC   C4A59490  39.579  43.073   7.408
 4597POPC   C1B59491  38.783  43.104   6.280
 4597POPC   C2B59492  38.823  42.907   6.672
 4597POPC   C3B59493  39.022  42.906   7.046
 4597POPC   C4B59494  39.180  43.318   7.187
 4598POPC   NC359495  40.461   5.370   5.078
 4598POPC   PO459496  40.637   4.760   5.342
 4598POPC   GL159497  40.696   4.901   5.755
 4598POPC   GL259498  40.628   5.264   5.665
 4598POPC   C1A59499  40.702   4.863   6.218
 4598POPC   D2A59500  40.582   4.752   6.639
 4598POPC   C3A59501  40.694   4.893   7.077
 4598POPC   C4A59502  40.992   5.165   7.303
 4598POPC   C1B59503  40.593   5.363   6.112
 4598POPC   C2B59504  40.716   5.282   6.535
 4598POPC   C3B59505  40.683   5.413   6.950
 4598POPC   C4B59506  40.358   5.346   7.293
 4599POPC   NC359507  38.022   1.894   5.514
 4599POPC   PO459508  37.364   1.918   5.514
 4599POPC   GL159509  37.613   1.985   5.842
 4599POPC   GL259510  37.818   2.305   5.778
 4599POPC   C1A59511  37.640   1.700   6.201
 4599POPC   D2A59512  37.392   1.660   6.603
 4599POPC   C3A59513  37.475   1.922   6.983
 4599POPC   C4A59514  37.606   1.819   7.397
 4599POPC   C1B59515  37.925   2.168   6.184
 4599POPC   C2B59516  37.836   1.979   6.580
 4599POPC   C3B59517  37.970   1.948   6.977
 4599POPC   C4B59518  37.909   2.215   7.328
 4600POPC   NC359519   3.181  43.142   5.495
 4600POPC   PO459520   3.835  43.366   5.434
 4600POPC   GL159521   3.603  43.292   5.793
 4600POPC   GL259522   3.773  43.020   5.932
 4600POPC   C1A59523   3.489  43.384   6.215
 4600POPC   D2A59524   3.695  43.572   6.552
 4600POPC   C3A59525   3.664  43.297   6.880
 4600POPC   C4A59526   3.718  43.440   7.261
 4600POPC   C1B59527   3.387  42.839   6.131
 4600POPC   C2B59528   3.226  42.553   6.471
 4600POPC   C3B59529   3.114  42.822   6.835
 4600POPC   C4B59530   3.301  42.960   7.247
 4601POPC   NC359531  26.449  10.867   4.988
 4601POPC   PO459532  26.157  10.454   5.470
 4601POPC   GL159533  26.103  10.649   5.866
 4601POPC   GL259534  26.057  10.311   5.950
 4601POPC   C1A59535  25.837  10.706   6.225
 4601POPC   D2A59536  26.034  10.838   6.580
 4601POPC   C3A59537  26.144  10.607   6.928
 4601POPC   C4A59538  26.068  10.789   7.336
 4601POPC   C1B59539  25.989  10.218   6.363
 4601POPC   C2B59540  25.733  10.343   6.671
 4601POPC   C3B59541  25.658  10.548   7.040
 4601POPC   C4B59542  25.923  10.258   7.252
 4602POPC   NC359543  43.043  30.403   5.381
 4602POPC   PO459544  43.069  31.052   5.489
 4602POPC   GL159545  43.151  30.897   5.857
 4602POPC   GL259546  43.182  30.554   5.853
 4602POPC   C1A59547  43.319  30.819   6.276
 4602POPC   D2A59548  43.113  30.883   6.653
 4602POPC   C3A59549  43.152  30.737   7.105
 4602POPC   C4A59550  43.289  30.847   7.498
 4602POPC   C1B59551  43.048  30.356   6.245
 4602POPC   C2B59552  42.902  30.175   6.646
 4602POPC   C3B59553  42.965  30.281   7.084
 4602POPC   C4B59554  43.083  30.384   7.553
 4603POPC   NC359555  30.815  30.865   5.349
 4603POPC   PO459556  30.473  30.358   5.296
 4603POPC   GL159557  30.614  30.564   5.712
 4603POPC   GL259558  30.983  30.671   5.789
 4603POPC   C1A59559  30.539  30.731   6.128
 4603POPC   D2A59560  30.396  30.838   6.577
 4603POPC   C3A59561  30.400  30.444   6.843
 4603POPC   C4A59562  30.404  30.364   7.282
 4603POPC   C1B59563  31.042  30.820   6.217
 4603POPC   C2B59564  31.029  30.919   6.665
 4603POPC   C3B59565  30.758  30.800   7.017
 4603POPC   C4B59566  30.908  30.433   7.224
 4604POPC   NC359567   2.245  44.704   5.520
 4604POPC   PO459568   1.597  44.364   5.485
 4604POPC   GL159569   1.890  44.468   5.838
 4604POPC   GL259570   2.190  44.307   5.832
 4604POPC   C1A59571   1.887  44.588   6.287
 4604POPC   D2A59572   1.937  44.976   6.561
 4604POPC   C3A59573   1.945  44.865   7.013
 4604POPC   C4A59574   1.692  44.514   7.285
 4604POPC   C1B59575   2.343  44.299   6.205
 4604POPC   C2B59576   2.136  44.151   6.541
 4604POPC   C3B59577   2.017  44.342   6.902
 4604POPC   C4B59578   2.225  44.514   7.258
 4605POPC   NC359579  33.512  38.181   5.386
 4605POPC   PO459580  33.934  38.757   5.410
 4605POPC   GL159581  33.899  38.506   5.762
 4605POPC   GL259582  33.551  38.465   5.802
 4605POPC   C1A59583  33.822  38.420   6.217
 4605POPC   D2A59584  34.040  38.456   6.593
 4605POPC   C3A59585  34.004  38.147   6.907
 4605POPC   C4A59586  33.949  38.336   7.291
 4605POPC   C1B59587  33.529  38.832   6.081
 4605POPC   C2B59588  33.667  38.950   6.506
 4605POPC   C3B59589  33.658  38.762   6.924
 4605POPC   C4B59590  33.440  38.746   7.330
 4606POPC   NC359591  13.968  38.520   5.478
 4606POPC   PO459592  13.321  38.292   5.707
 4606POPC   GL159593  13.530  38.604   5.889
 4606POPC   GL259594  13.868  38.526   5.978
 4606POPC   C1A59595  13.462  38.687   6.322
 4606POPC   D2A59596  13.216  38.922   6.610
 4606POPC   C3A59597  13.353  38.786   6.981
 4606POPC   C4A59598  13.509  38.444   7.197
 4606POPC   C1B59599  13.772  38.282   6.334
 4606POPC   C2B59600  13.772  38.330   6.774
 4606POPC   C3B59601  13.836  38.063   7.132
 4606POPC   C4B59602  14.164  38.000   7.434
 4607POPC   NC359603  23.924  10.779   5.409
 4607POPC   PO459604  23.403  10.340   5.277
 4607POPC   GL159605  23.614  10.478   5.681
 4607POPC   GL259606  23.978  10.377   5.746
 4607POPC   C1A59607  23.656  10.726   6.065
 4607POPC   D2A59608  23.893  10.816   6.456
 4607POPC   C3A59609  23.820  10.680   6.902
 4607POPC   C4A59610  23.864  10.703   7.369
 4607POPC   C1B59611  23.983  10.364   6.192
 4607POPC   C2B59612  23.602  10.373   6.468
 4607POPC   C3B59613  23.429  10.338   6.880
 4607POPC   C4B59614  23.394  10.142   7.264
 4608POPC   NC359615  27.275   4.547   5.517
 4608POPC   PO459616  26.561   4.506   5.355
 4608POPC   GL159617  26.835   4.395   5.724
 4608POPC   GL259618  26.892   4.725   5.850
 4608POPC   C1A59619  27.075   4.320   6.158
 4608POPC   D2A59620  27.204   4.128   6.588
 4608POPC   C3A59621  26.967   4.230   6.964
 4608POPC   C4A59622  26.907   4.528   7.309
 4608POPC   C1B59623  26.587   4.526   6.146
 4608POPC   C2B59624  26.687   4.364   6.540
 4608POPC   C3B59625  26.563   4.536   6.922
 4608POPC   C4B59626  26.373   4.411   7.271
 4609POPC   NC359627  38.773   3.983   5.473
 4609POPC   PO459628  38.199   4.347   5.395
 4609POPC   GL159629  38.506   4.333   5.753
 4609POPC   GL259630  38.638   4.027   5.944
 4609POPC   C1A59631  38.440   4.438   6.184
 4609POPC   D2A59632  38.570   4.601   6.569
 4609POPC   C3A59633  38.447   4.312   6.871
 4609POPC   C4A59634  38.338   4.330   7.286
 4609POPC   C1B59635  38.803   4.088   6.312
 4609POPC   C2B59636  39.010   4.318   6.565
 4609POPC   C3B59637  38.907   4.097   6.890
 4609POPC   C4B59638  38.852   4.173   7.292
 4610POPC   NC359639   7.301  21.652   5.053
 4610POPC   PO459640   7.370  21.050   5.268
 4610POPC   GL159641   7.386  21.331   5.672
 4610POPC   GL259642   7.667  21.300   5.892
 4610POPC   C1A59643   7.284  21.597   6.098
 4610POPC   D2A59644   7.421  21.750   6.545
 4610POPC   C3A59645   7.319  21.617   7.012
 4610POPC   C4A59646   7.018  21.341   7.270
 4610POPC   C1B59647   7.466  21.174   6.299
 4610POPC   C2B59648   7.548  21.247   6.723
 4610POPC   C3B59649   7.480  21.153   7.160
 4610POPC   C4B59650   7.452  21.332   7.579
 4611POPC   NC359651   5.628  32.273   5.608
 4611POPC   PO459652   5.047  32.165   5.426
 4611POPC   GL159653   5.137  32.281   5.837
 4611POPC   GL259654   5.357  32.039   5.983
 4611POPC   C1A59655   5.034  32.338   6.274
 4611POPC   D2A59656   5.261  32.168   6.617
 4611POPC   C3A59657   5.044  32.064   7.005
 4611POPC   C4A59658   5.190  31.803   7.314
 4611POPC   C1B59659   5.566  32.392   6.246
 4611POPC   C2B59660   5.625  32.535   6.680
 4611POPC   C3B59661   5.329  32.468   7.033
 4611POPC   C4B59662   5.432  32.255   7.434
 4612POPC   NC359663  24.956   5.844   5.421
 4612POPC   PO459664  24.367   5.478   5.324
 4612POPC   GL159665  24.286   5.679   5.754
 4612POPC   GL259666  24.627   5.723   5.920
 4612POPC   C1A59667  24.248   6.008   6.102
 4612POPC   D2A59668  24.491   5.967   6.475
 4612POPC   C3A59669  24.310   6.040   6.879
 4612POPC   C4A59670  24.559   5.932   7.219
 4612POPC   C1B59671  24.322   5.514   6.255
 4612POPC   C2B59672  24.312   5.521   6.730
 4612POPC   C3B59673  24.435   5.438   7.159
 4612POPC   C4B59674  24.384   5.633   7.616
 4613POPC   NC359675  22.709   1.051   5.395
 4613POPC   PO459676  23.324   1.227   5.328
 4613POPC   GL159677  23.076   1.299   5.682
 4613POPC   GL259678  22.948   0.974   5.840
 4613POPC   C1A59679  23.065   1.379   6.135
 4613POPC   D2A59680  23.132   1.056   6.489
 4613POPC   C3A59681  23.007   1.184   6.909
 4613POPC   C4A59682  22.989   1.451   7.268
 4613POPC   C1B59683  22.738   0.801   6.232
 4613POPC   C2B59684  22.632   0.914   6.675
 4613POPC   C3B59685  22.646   0.845   7.126
 4613POPC   C4B59686  22.945   0.989   7.457
 4614POPC   NC359687   8.457  16.217   5.460
 4614POPC   PO459688   7.913  15.830   5.425
 4614POPC   GL159689   8.101  16.001   5.769
 4614POPC   GL259690   8.234  15.738   5.881
 4614POPC   C1A59691   8.230  16.124   6.200
 4614POPC   D2A59692   8.463  16.126   6.580
 4614POPC   C3A59693   8.295  16.092   6.970
 4614POPC   C4A59694   7.936  15.857   7.033
 4614POPC   C1B59695   8.406  15.636   6.265
 4614POPC   C2B59696   8.226  15.678   6.641
 4614POPC   C3B59697   8.362  15.550   7.020
 4614POPC   C4B59698   8.641  15.739   7.250
 4615POPC   NC359699  33.447  14.787   5.426
 4615POPC   PO459700  33.028  15.339   5.207
 4615POPC   GL159701  33.024  15.267   5.672
 4615POPC   GL259702  33.271  15.055   5.803
 4615POPC   C1A59703  32.851  15.055   6.115
 4615POPC   D2A59704  32.589  15.056   6.550
 4615POPC   C3A59705  32.536  15.359   6.931
 4615POPC   C4A59706  32.700  15.318   7.367
 4615POPC   C1B59707  33.294  15.318   6.157
 4615POPC   C2B59708  33.070  15.315   6.553
 4615POPC   C3B59709  33.037  15.465   6.957
 4615POPC   C4B59710  33.208  15.385   7.335
 4616POPC   NC359711  38.717  15.569   5.432
 4616POPC   PO459712  39.042  14.945   5.318
 4616POPC   GL159713  38.641  15.044   5.614
 4616POPC   GL259714  38.333  14.821   5.644
 4616POPC   C1A59715  38.479  15.223   6.010
 4616POPC   D2A59716  38.619  15.480   6.372
 4616POPC   C3A59717  38.445  15.363   6.765
 4616POPC   C4A59718  38.162  15.333   7.120
 4616POPC   C1B59719  38.317  14.745   6.069
 4616POPC   C2B59720  38.405  14.945   6.451
 4616POPC   C3B59721  38.244  14.901   6.850
 4616POPC   C4B59722  38.288  14.771   7.236
 4617POPC   NC359723   5.587  15.406   5.423
 4617POPC   PO459724   6.091  14.991   5.412
 4617POPC   GL159725   5.948  14.932   5.834
 4617POPC   GL259726   5.894  15.253   5.940
 4617POPC   C1A59727   5.781  14.863   6.270
 4617POPC   D2A59728   5.814  15.047   6.688
 4617POPC   C3A59729   6.071  15.237   7.030
 4617POPC   C4A59730   5.708  15.280   7.175
 4617POPC   C1B59731   6.061  15.343   6.370
 4617POPC   C2B59732   5.847  15.576   6.734
 4617POPC   C3B59733   5.847  15.763   7.167
 4617POPC   C4B59734   6.149  15.863   7.516
 4618POPC   NC359735  19.480  23.824   5.631
 4618POPC   PO459736  19.990  23.489   5.304
 4618POPC   GL159737  19.974  23.499   5.832
 4618POPC   GL259738  19.876  23.837   5.966
 4618POPC   C1A59739  20.105  23.578   6.317
 4618POPC   D2A59740  20.051  23.961   6.580
 4618POPC   C3A59741  19.787  23.940   6.929
 4618POPC   C4A59742  19.780  23.650   7.271
 4618POPC   C1B59743  19.609  23.653   6.321
 4618POPC   C2B59744  19.563  23.521   6.750
 4618POPC   C3B59745  19.322  23.656   7.054
 4618POPC   C4B59746  19.381  24.029   7.227
 4619POPC   NC359747  31.288  10.278   5.391
 4619POPC   PO459748  30.774  10.674   5.447
 4619POPC   GL159749  31.102  10.601   5.775
 4619POPC   GL259750  31.500  10.578   5.744
 4619POPC   C1A59751  31.222  10.301   6.098
 4619POPC   D2A59752  31.423  10.273   6.503
 4619POPC   C3A59753  31.253  10.232   6.944
 4619POPC   C4A59754  31.302  10.399   7.392
 4619POPC   C1B59755  31.401  10.802   6.152
 4619POPC   C2B59756  31.444  10.780   6.595
 4619POPC   C3B59757  31.387  10.731   7.013
 4619POPC   C4B59758  31.213  10.953   7.330
 4620POPC   NC359759  43.716  26.239   5.226
 4620POPC   PO459760  43.944  25.780   5.602
 4620POPC   GL159761  44.055  25.912   5.935
 4620POPC   GL259762  44.264  25.622   5.997
 4620POPC   C1A59763  43.730  26.039   6.215
 4620POPC   D2A59764  43.488  26.019   6.560
 4620POPC   C3A59765  43.534  26.288   6.887
 4620POPC   C4A59766  43.667  26.192   7.295
 4620POPC   C1B59767  44.167  25.804   6.412
 4620POPC   C2B59768  44.017  26.124   6.649
 4620POPC   C3B59769  44.092  26.062   7.051
 4620POPC   C4B59770  44.280  25.906   7.374
 4621POPC   NC359771  29.854  26.229   5.180
 4621POPC   PO459772  30.138  25.812   5.529
 4621POPC   GL159773  29.954  25.951   5.918
 4621POPC   GL259774  29.617  25.941   5.879
 4621POPC   C1A59775  29.982  25.975   6.395
 4621POPC   D2A59776  30.129  25.802   6.798
 4621POPC   C3A59777  29.956  25.952   7.184
 4621POPC   C4A59778  30.147  26.270   7.471
 4621POPC   C1B59779  29.495  25.858   6.317
 4621POPC   C2B59780  29.600  25.905   6.773
 4621POPC   C3B59781  29.448  25.916   7.206
 4621POPC   C4B59782  29.285  25.860   7.613
 4622POPC   NC359783  14.607   0.896   5.349
 4622POPC   PO459784  14.247   1.502   5.604
 4622POPC   GL159785  14.456   1.311   5.889
 4622POPC   GL259786  14.344   0.996   5.784
 4622POPC   C1A59787  14.579   1.389   6.308
 4622POPC   D2A59788  14.816   1.154   6.619
 4622POPC   C3A59789  14.604   1.119   7.023
 4622POPC   C4A59790  14.355   1.495   7.203
 4622POPC   C1B59791  14.262   0.986   6.240
 4622POPC   C2B59792  14.267   1.106   6.656
 4622POPC   C3B59793  14.098   1.065   7.096
 4622POPC   C4B59794  13.995   1.266   7.468
 4623POPC   NC359795  42.254  40.135   5.336
 4623POPC   PO459796  42.837  39.814   5.418
 4623POPC   GL159797  42.481  39.889   5.727
 4623POPC   GL259798  42.475  40.257   5.778
 4623POPC   C1A59799  42.250  39.913   6.162
 4623POPC   D2A59800  41.968  39.675   6.495
 4623POPC   C3A59801  42.045  39.763   6.944
 4623POPC   C4A59802  42.361  39.719   7.240
 4623POPC   C1B59803  42.262  40.428   6.141
 4623POPC   C2B59804  42.411  40.478   6.567
 4623POPC   C3B59805  42.431  40.180   6.907
 4623POPC   C4B59806  42.417  40.226   7.325
 4624POPC   NC359807  34.382  34.039   5.522
 4624POPC   PO459808  34.810  33.669   5.537
 4624POPC   GL159809  34.655  33.762   5.920
 4624POPC   GL259810  34.745  34.120   5.917
 4624POPC   C1A59811  34.674  33.676   6.366
 4624POPC   D2A59812  34.853  33.855   6.733
 4624POPC   C3A59813  34.752  33.590   7.077
 4624POPC   C4A59814  34.555  33.681   7.478
 4624POPC   C1B59815  34.378  34.078   6.214
 4624POPC   C2B59816  34.315  33.937   6.648
 4624POPC   C3B59817  34.467  34.042   7.066
 4624POPC   C4B59818  34.238  34.159   7.418
 4625POPC   NC359819   6.568  26.356   5.135
 4625POPC   PO459820   6.359  25.808   5.504
 4625POPC   GL159821   6.574  26.056   5.788
 4625POPC   GL259822   6.440  26.370   5.685
 4625POPC   C1A59823   6.866  26.080   6.165
 4625POPC   D2A59824   7.028  26.265   6.571
 4625POPC   C3A59825   6.838  26.006   6.904
 4625POPC   C4A59826   6.799  25.717   7.251
 4625POPC   C1B59827   6.501  26.449   6.132
 4625POPC   C2B59828   6.510  26.262   6.550
 4625POPC   C3B59829   6.590  26.457   6.942
 4625POPC   C4B59830   6.992  26.495   7.143
 4626POPC   NC359831  43.451  29.762   5.390
 4626POPC   PO459832  42.772  30.024   5.413
 4626POPC   GL159833  42.996  30.064   5.806
 4626POPC   GL259834  43.374  30.090   5.777
 4626POPC   C1A59835  42.889  29.857   6.213
 4626POPC   D2A59836  43.087  29.705   6.604
 4626POPC   C3A59837  42.859  29.787   7.030
 4626POPC   C4A59838  43.099  29.884   7.402
 4626POPC   C1B59839  43.414  29.876   6.174
 4626POPC   C2B59840  43.597  29.898   6.580
 4626POPC   C3B59841  43.414  29.891   6.968
 4626POPC   C4B59842  43.443  30.228   7.244
 4627POPC   NC359843  12.537  34.833   5.309
 4627POPC   PO459844  12.808  34.265   5.405
 4627POPC   GL159845  13.018  34.360   5.803
 4627POPC   GL259846  13.189  34.685   5.767
 4627POPC   C1A59847  13.092  34.457   6.259
 4627POPC   D2A59848  12.900  34.599   6.656
 4627POPC   C3A59849  12.952  34.288   7.001
 4627POPC   C4A59850  13.338  34.276   7.263
 4627POPC   C1B59851  13.105  34.991   6.092
 4627POPC   C2B59852  13.147  35.278   6.437
 4627POPC   C3B59853  13.098  35.112   6.847
 4627POPC   C4B59854  12.967  34.793   7.151
 4628POPC   NC359855  35.172  40.943   5.083
 4628POPC   PO459856  35.542  40.509   5.414
 4628POPC   GL159857  35.339  40.611   5.815
 4628POPC   GL259858  35.189  40.946   5.789
 4628POPC   C1A59859  35.225  40.715   6.255
 4628POPC   D2A59860  35.336  40.755   6.679
 4628POPC   C3A59861  35.141  40.485   6.982
 4628POPC   C4A59862  35.210  40.560   7.408
 4628POPC   C1B59863  35.480  41.150   6.102
 4628POPC   C2B59864  35.661  41.188   6.535
 4628POPC   C3B59865  35.495  41.184   6.965
 4628POPC   C4B59866  35.582  41.244   7.409
 4629POPC   NC359867  15.544  42.825   5.482
 4629POPC   PO459868  15.169  43.449   5.352
 4629POPC   GL159869  15.176  43.154   5.749
 4629POPC   GL259870  15.515  43.121   5.928
 4629POPC   C1A59871  15.024  43.049   6.200
 4629POPC   D2A59872  15.081  43.234   6.643
 4629POPC   C3A59873  14.931  43.053   7.040
 4629POPC   C4A59874  14.980  42.610   7.167
 4629POPC   C1B59875  15.345  43.439   6.231
 4629POPC   C2B59876  15.381  43.648   6.651
 4629POPC   C3B59877  15.247  43.514   7.080
 4629POPC   C4B59878  14.997  43.456   7.465
 4630POPC   NC359879  31.694  39.173   5.336
 4630POPC   PO459880  31.005  39.317   5.335
 4630POPC   GL159881  31.339  39.166   5.678
 4630POPC   GL259882  31.332  38.904   5.907
 4630POPC   C1A59883  31.725  39.170   6.006
 4630POPC   D2A59884  31.613  38.928   6.398
 4630POPC   C3A59885  31.596  39.188   6.768
 4630POPC   C4A59886  31.693  39.263   7.196
 4630POPC   C1B59887  31.260  39.250   6.224
 4630POPC   C2B59888  31.096  39.329   6.664
 4630POPC   C3B59889  31.129  39.232   7.102
 4630POPC   C4B59890  31.354  38.877   7.175
 4631POPC   NC359891  24.864  17.490   5.053
 4631POPC   PO459892  24.309  17.664   5.448
 4631POPC   GL159893  24.610  17.617   5.875
 4631POPC   GL259894  24.858  17.303   5.922
 4631POPC   C1A59895  24.530  17.454   6.287
 4631POPC   D2A59896  24.158  17.444   6.543
 4631POPC   C3A59897  24.323  17.477   6.945
 4631POPC   C4A59898  24.631  17.695   7.198
 4631POPC   C1B59899  24.973  17.183   6.346
 4631POPC   C2B59900  24.898  17.466   6.695
 4631POPC   C3B59901  24.914  17.297   7.097
 4631POPC   C4B59902  24.534  17.169   7.311
 4632POPC   NC359903   0.119  41.573   5.281
 4632POPC   PO459904   0.771  41.558   5.341
 4632POPC   GL159905   0.520  41.593   5.691
 4632POPC   GL259906   0.609  41.938   5.787
 4632POPC   C1A59907   0.323  41.457   6.065
 4632POPC   D2A59908   0.511  41.354   6.455
 4632POPC   C3A59909   0.314  41.489   6.813
 4632POPC   C4A59910   0.372  41.360   7.218
 4632POPC   C1B59911   0.379  41.947   6.184
 4632POPC   C2B59912   0.528  41.980   6.595
 4632POPC   C3B59913   0.449  41.904   7.026
 4632POPC   C4B59914   0.407  41.886   7.444
 4633POPC   NC359915  32.819  14.284   5.483
 4633POPC   PO459916  32.368  13.933   5.670
 4633POPC   GL159917  32.401  14.368   5.875
 4633POPC   GL259918  32.670  14.617   5.858
 4633POPC   C1A59919  32.411  14.616   6.304
 4633POPC   D2A59920  32.460  14.564   6.766
 4633POPC   C3A59921  32.087  14.398   7.035
 4633POPC   C4A59922  31.816  14.433   7.426
 4633POPC   C1B59923  32.795  14.310   6.189
 4633POPC   C2B59924  32.692  14.064   6.595
 4633POPC   C3B59925  32.618  14.090   7.064
 4633POPC   C4B59926  32.527  14.479   7.266
 4634POPC   NC359927   7.758  37.744   5.267
 4634POPC   PO459928   7.250  37.358   5.371
 4634POPC   GL159929   7.513  37.498   5.733
 4634POPC   GL259930   7.804  37.366   5.784
 4634POPC   C1A59931   7.638  37.733   6.140
 4634POPC   D2A59932   7.450  37.958   6.526
 4634POPC   C3A59933   7.396  37.770   6.931
 4634POPC   C4A59934   7.513  37.965   7.304
 4634POPC   C1B59935   7.785  37.233   6.205
 4634POPC   C2B59936   7.694  37.429   6.598
 4634POPC   C3B59937   7.661  37.319   7.037
 4634POPC   C4B59938   7.255  37.330   7.235
 4635POPC   NC359939  20.678  28.663   5.320
 4635POPC   PO459940  20.287  29.078   5.489
 4635POPC   GL159941  20.690  29.137   5.820
 4635POPC   GL259942  20.967  29.422   5.752
 4635POPC   C1A59943  20.741  29.302   6.260
 4635POPC   D2A59944  20.532  29.475   6.634
 4635POPC   C3A59945  20.403  29.163   6.978
 4635POPC   C4A59946  20.347  29.106   7.435
 4635POPC   C1B59947  21.227  29.362   6.124
 4635POPC   C2B59948  21.209  29.137   6.507
 4635POPC   C3B59949  20.885  29.116   6.775
 4635POPC   C4B59950  20.838  29.053   7.237
 4636POPC   NC359951  13.479  32.435   5.445
 4636POPC   PO459952  13.815  31.847   5.685
 4636POPC   GL159953  13.787  32.238   5.792
 4636POPC   GL259954  13.448  32.182   5.887
 4636POPC   C1A59955  13.822  32.388   6.191
 4636POPC   D2A59956  13.785  32.173   6.568
 4636POPC   C3A59957  13.834  32.418   6.918
 4636POPC   C4A59958  13.821  32.342   7.312
 4636POPC   C1B59959  13.284  32.247   6.289
 4636POPC   C2B59960  13.378  32.468   6.671
 4636POPC   C3B59961  13.362  32.458   7.114
 4636POPC   C4B59962  13.332  32.428   7.551
 4637POPC   NC359963   6.056   7.070   5.391
 4637POPC   PO459964   5.656   7.559   5.308
 4637POPC   GL159965   5.879   7.463   5.696
 4637POPC   GL259966   6.051   7.757   5.751
 4637POPC   C1A59967   5.952   7.402   6.148
 4637POPC   D2A59968   5.699   7.338   6.488
 4637POPC   C3A59969   5.820   7.165   6.830
 4637POPC   C4A59970   5.583   7.242   7.137
 4637POPC   C1B59971   6.206   7.882   6.147
 4637POPC   C2B59972   6.332   7.796   6.585
 4637POPC   C3B59973   6.099   7.601   6.885
 4637POPC   C4B59974   5.945   7.782   7.222
 4638POPC   NC359975  25.390  30.129   5.121
 4638POPC   PO459976  24.873  29.881   5.457
 4638POPC   GL159977  25.222  29.889   5.693
 4638POPC   GL259978  25.206  29.560   5.849
 4638POPC   C1A59979  25.249  30.078   6.095
 4638POPC   D2A59980  25.360  30.193   6.546
 4638POPC   C3A59981  25.469  30.043   6.986
 4638POPC   C4A59982  25.206  29.978   7.379
 4638POPC   C1B59983  25.043  29.648   6.290
 4638POPC   C2B59984  25.147  29.736   6.724
 4638POPC   C3B59985  25.328  29.556   7.101
 4638POPC   C4B59986  25.138  29.493   7.524
 4639POPC   NC359987  13.758   2.153   5.430
 4639POPC   PO459988  13.528   1.551   5.492
 4639POPC   GL159989  13.689   1.872   5.869
 4639POPC   GL259990  13.535   2.242   5.877
 4639POPC   C1A59991  13.791   2.100   6.313
 4639POPC   D2A59992  13.935   2.151   6.783
 4639POPC   C3A59993  13.905   1.777   7.105
 4639POPC   C4A59994  13.674   1.686   7.489
 4639POPC   C1B59995  13.622   2.587   6.182
 4639POPC   C2B59996  13.394   2.658   6.578
 4639POPC   C3B59997  13.379   2.298   6.843
 4639POPC   C4B59998  13.599   2.180   7.192
 4640POPC   NC359999  20.804  32.964   5.317
 4640POPC   PO460000  20.189  33.094   5.359
 4640POPC   GL160001  20.399  32.972   5.731
 4640POPC   GL260002  20.722  33.109   5.772
 4640POPC   C1A60003  20.398  33.200   6.147
 4640POPC   D2A60004  20.536  33.383   6.525
 4640POPC   C3A60005  20.331  33.151   6.889
 4640POPC   C4A60006  20.511  32.974   7.280
 4640POPC   C1B60007  20.799  32.828   6.089
 4640POPC   C2B60008  20.675  32.878   6.521
 4640POPC   C3B60009  20.759  32.732   6.932
 4640POPC   C4B60010  20.997  32.755   7.351
 4641POPC   NC360011  42.255  21.828   5.102
 4641POPC   PO460012  42.371  22.462   5.441
 4641POPC   GL160013  42.274  22.307   5.812
 4641POPC   GL260014  42.446  22.013   5.694
 4641POPC   C1A60015  42.209  22.325   6.260
 4641POPC   D2A60016  42.065  22.255   6.688
 4641POPC   C3A60017  42.370  22.093   7.001
 4641POPC   C4A60018  42.424  22.126   7.498
 4641POPC   C1B60019  42.241  21.851   6.055
 4641POPC   C2B60020  42.234  21.771   6.496
 4641POPC   C3B60021  41.973  21.742   6.849
 4641POPC   C4B60022  42.022  21.866   7.263
 4642POPC   NC360023  35.555  12.695   5.454
 4642POPC   PO460024  35.030  13.114   5.465
 4642POPC   GL160025  35.174  12.842   5.797
 4642POPC   GL260026  35.522  12.950   5.901
 4642POPC   C1A60027  35.121  12.916   6.225
 4642POPC   D2A60028  35.377  13.034   6.558
 4642POPC   C3A60029  35.399  12.801   6.901
 4642POPC   C4A60030  35.070  12.876   7.163
 4642POPC   C1B60031  35.469  12.527   6.139
 4642POPC   C2B60032  35.609  12.333   6.549
 4642POPC   C3B60033  35.644  12.360   7.003
 4642POPC   C4B60034  35.407  12.533   7.334
 4643POPC   NC360035  15.258  42.320   5.012
 4643POPC   PO460036  15.105  42.799   5.336
 4643POPC   GL160037  15.226  42.460   5.642
 4643POPC   GL260038  15.295  42.665   5.936
 4643POPC   C1A60039  15.281  42.168   6.026
 4643POPC   D2A60040  15.370  42.060   6.474
 4643POPC   C3A60041  15.191  42.271   6.839
 4643POPC   C4A60042  15.047  42.114   7.244
 4643POPC   C1B60043  15.461  42.830   6.350
 4643POPC   C2B60044  15.608  42.691   6.767
 4643POPC   C3B60045  15.447  42.824   7.159
 4643POPC   C4B60046  15.345  42.632   7.563
 4644POPC   NC360047  21.546  31.832   5.467
 4644POPC   PO460048  21.504  31.269   5.193
 4644POPC   GL160049  21.477  31.337   5.675
 4644POPC   GL260050  21.748  31.508   5.812
 4644POPC   C1A60051  21.444  31.277   6.160
 4644POPC   D2A60052  21.455  31.490   6.608
 4644POPC   C3A60053  21.108  31.389   6.897
 4644POPC   C4A60054  21.090  31.076   7.246
 4644POPC   C1B60055  21.545  31.775   6.160
 4644POPC   C2B60056  21.770  31.932   6.506
 4644POPC   C3B60057  21.735  31.793   6.936
 4644POPC   C4B60058  21.496  31.536   7.210
 4645POPC   NC360059  17.835  22.919   5.376
 4645POPC   PO460060  18.476  22.911   5.345
 4645POPC   GL160061  18.594  23.094   5.759
 4645POPC   GL260062  18.607  22.780   5.857
 4645POPC   C1A60063  18.457  23.138   6.226
 4645POPC   D2A60064  18.140  23.208   6.539
 4645POPC   C3A60065  18.236  23.120   6.986
 4645POPC   C4A60066  18.068  22.891   7.339
 4645POPC   C1B60067  18.582  22.613   6.252
 4645POPC   C2B60068  18.400  22.749   6.631
 4645POPC   C3B60069  18.376  22.609   7.042
 4645POPC   C4B60070  18.545  22.764   7.434
 4646POPC   NC360071  30.202  31.228   5.429
 4646POPC   PO460072  29.891  31.729   5.718
 4646POPC   GL160073  30.044  31.346   5.909
 4646POPC   GL260074  29.776  31.119   5.779
 4646POPC   C1A60075  30.212  31.313   6.349
 4646POPC   D2A60076  30.437  31.431   6.736
 4646POPC   C3A60077  30.124  31.516   7.094
 4646POPC   C4A60078  29.858  31.617   7.487
 4646POPC   C1B60079  29.663  31.224   6.228
 4646POPC   C2B60080  29.799  31.375   6.661
 4646POPC   C3B60081  29.768  31.148   7.037
 4646POPC   C4B60082  29.429  30.876   7.051
 4647POPC   NC360083  23.015  35.746   5.499
 4647POPC   PO460084  23.290  35.213   5.192
 4647POPC   GL160085  23.032  35.151   5.654
 4647POPC   GL260086  22.758  35.380   5.736
 4647POPC   C1A60087  22.925  35.166   6.159
 4647POPC   D2A60088  23.073  35.434   6.533
 4647POPC   C3A60089  22.928  35.267   6.920
 4647POPC   C4A60090  23.100  34.970   7.155
 4647POPC   C1B60091  22.744  35.666   6.137
 4647POPC   C2B60092  22.677  35.857   6.567
 4647POPC   C3B60093  22.665  35.700   6.984
 4647POPC   C4B60094  22.576  35.400   7.289
 4648POPC   NC360095  43.699  36.336   5.326
 4648POPC   PO460096  43.739  35.734   5.512
 4648POPC   GL160097  43.657  36.106   5.789
 4648POPC   GL260098  43.972  36.262   5.791
 4648POPC   C1A60099  43.661  36.394   6.192
 4648POPC   D2A60100  43.813  36.292   6.617
 4648POPC   C3A60101  43.701  36.173   7.050
 4648POPC   C4A60102  43.485  36.033   7.415
 4648POPC   C1B60103  44.127  36.145   6.219
 4648POPC   C2B60104  44.278  36.089   6.657
 4648POPC   C3B60105  44.247  36.292   7.078
 4648POPC   C4B60106  44.369  36.298   7.543
 4649POPC   NC360107   3.426  41.297   5.414
 4649POPC   PO460108   3.217  41.924   5.646
 4649POPC   GL160109   3.384  41.601   5.866
 4649POPC   GL260110   3.705  41.659   5.692
 4649POPC   C1A60111   3.378  41.472   6.309
 4649POPC   D2A60112   3.628  41.698   6.627
 4649POPC   C3A60113   3.511  41.532   6.992
 4649POPC   C4A60114   3.138  41.642   7.202
 4649POPC   C1B60115   3.826  41.600   6.134
 4649POPC   C2B60116   3.903  41.308   6.506
 4649POPC   C3B60117   4.029  41.446   6.916
 4649POPC   C4B60118   3.934  41.875   7.055
 4650POPC   NC360119  11.511  22.613   5.442
 4650POPC   PO460120  11.006  22.981   5.484
 4650POPC   GL160121  11.246  22.958   5.832
 4650POPC   GL260122  11.223  23.339   5.838
 4650POPC   C1A60123  11.338  22.705   6.222
 4650POPC   D2A60124  11.337  22.484   6.630
 4650POPC   C3A60125  11.441  22.819   6.935
 4650POPC   C4A60126  11.451  23.266   7.124
 4650POPC   C1B60127  11.129  23.221   6.253
 4650POPC   C2B60128  11.268  23.226   6.655
 4650POPC   C3B60129  10.962  23.174   7.002
 4650POPC   C4B60130  10.875  23.068   7.413
 4651POPC   NC360131  21.191   2.015   5.407
 4651POPC   PO460132  21.715   2.495   5.169
 4651POPC   GL160133  21.613   2.252   5.631
 4651POPC   GL260134  21.568   1.871   5.715
 4651POPC   C1A60135  21.362   2.204   6.078
 4651POPC   D2A60136  21.315   2.003   6.510
 4651POPC   C3A60137  21.222   2.199   6.904
 4651POPC   C4A60138  21.443   2.123   7.278
 4651POPC   C1B60139  21.482   1.682   6.144
 4651POPC   C2B60140  21.373   1.488   6.602
 4651POPC   C3B60141  21.304   1.666   7.045
 4651POPC   C4B60142  21.241   1.732   7.529
 4652POPC   NC360143  42.319  30.185   5.375
 4652POPC   PO460144  42.200  29.448   5.479
 4652POPC   GL160145  42.407  29.703   5.815
 4652POPC   GL260146  42.479  30.079   5.837
 4652POPC   C1A60147  42.370  29.831   6.258
 4652POPC   D2A60148  42.563  29.716   6.621
 4652POPC   C3A60149  42.321  29.835   6.983
 4652POPC   C4A60150  41.858  29.905   7.047
 4652POPC   C1B60151  42.528  30.309   6.219
 4652POPC   C2B60152  42.364  30.239   6.637
 4652POPC   C3B60153  42.452  30.341   7.075
 4652POPC   C4B60154  42.644  30.143   7.446
 4653POPC   NC360155  21.135  44.390   5.471
 4653POPC   PO460156  21.715  44.083   5.500
 4653POPC   GL160157  21.405  44.016   5.804
 4653POPC   GL260158  21.399  44.327   5.908
 4653POPC   C1A60159  21.496  43.918   6.231
 4653POPC   D2A60160  21.818  43.887   6.559
 4653POPC   C3A60161  21.730  43.750   7.006
 4653POPC   C4A60162  21.366  43.843   7.243
 4653POPC   C1B60163  21.136  44.344   6.267
 4653POPC   C2B60164  21.117  44.092   6.636
 4653POPC   C3B60165  21.042  44.168   7.049
 4653POPC   C4B60166  21.030  44.209   7.513
 4654POPC   NC360167  15.539  24.699   5.602
 4654POPC   PO460168  15.181  24.177   5.268
 4654POPC   GL160169  15.200  24.251   5.763
 4654POPC   GL260170  15.175  24.588   5.967
 4654POPC   C1A60171  15.076  24.140   6.209
 4654POPC   D2A60172  15.342  24.248   6.596
 4654POPC   C3A60173  15.104  24.474   6.915
 4654POPC   C4A60174  14.982  24.299   7.291
 4654POPC   C1B60175  15.503  24.744   6.257
 4654POPC   C2B60176  15.684  24.726   6.653
 4654POPC   C3B60177  15.603  24.500   7.018
 4654POPC   C4B60178  15.524  24.747   7.333
 4655POPC   NC360179  28.028  37.132   5.389
 4655POPC   PO460180  28.592  36.746   5.619
 4655POPC   GL160181  28.335  36.964   5.902
 4655POPC   GL260182  28.348  37.284   5.771
 4655POPC   C1A60183  28.480  37.121   6.323
 4655POPC   D2A60184  28.628  37.207   6.771
 4655POPC   C3A60185  28.509  36.926   7.111
 4655POPC   C4A60186  28.548  36.504   7.308
 4655POPC   C1B60187  28.052  37.384   6.111
 4655POPC   C2B60188  28.002  37.228   6.540
 4655POPC   C3B60189  28.142  37.353   6.949
 4655POPC   C4B60190  28.152  37.218   7.381
 4656POPC   NC360191   9.221  36.596   5.033
 4656POPC   PO460192   8.849  36.355   5.646
 4656POPC   GL160193   9.021  36.121   5.969
 4656POPC   GL260194   9.211  35.833   5.858
 4656POPC   C1A60195   8.961  36.145   6.410
 4656POPC   D2A60196   9.014  36.480   6.681
 4656POPC   C3A60197   9.027  36.429   7.134
 4656POPC   C4A60198   9.284  36.482   7.532
 4656POPC   C1B60199   9.451  35.960   6.232
 4656POPC   C2B60200   9.400  35.994   6.680
 4656POPC   C3B60201   9.286  35.975   7.092
 4656POPC   C4B60202   8.896  35.888   7.311
 4657POPC   NC360203  44.526   6.816   5.209
 4657POPC   PO460204  44.950   7.004   5.625
 4657POPC   GL160205  44.838   6.719   5.870
 4657POPC   GL260206  44.533   6.644   5.706
 4657POPC   C1A60207   0.023   6.650   6.239
 4657POPC   D2A60208   0.133   6.761   6.632
 4657POPC   C3A60209  44.893   6.653   6.977
 4657POPC   C4A60210  44.659   6.452   7.350
 4657POPC   C1B60211  44.439   6.616   6.145
 4657POPC   C2B60212  44.595   6.687   6.545
 4657POPC   C3B60213  44.391   6.581   6.906
 4657POPC   C4B60214  44.199   6.620   7.281
 4658POPC   NC360215   1.035  39.586   5.171
 4658POPC   PO460216   1.391  40.151   5.138
 4658POPC   GL160217   1.194  40.053   5.550
 4658POPC   GL260218   1.431  39.824   5.667
 4658POPC   C1A60219   1.017  40.106   5.987
 4658POPC   D2A60220   1.209  40.049   6.427
 4658POPC   C3A60221   1.096  39.940   6.853
 4658POPC   C4A60222   1.166  40.025   7.296
 4658POPC   C1B60223   1.647  39.770   6.074
 4658POPC   C2B60224   1.523  39.631   6.504
 4658POPC   C3B60225   1.613  39.798   6.927
 4658POPC   C4B60226   1.542  39.665   7.360
 4659POPC   NC360227  37.191   8.136   5.447
 4659POPC   PO460228  36.500   8.262   5.326
 4659POPC   GL160229  36.785   8.434   5.643
 4659POPC   GL260230  36.830   8.106   5.804
 4659POPC   C1A60231  36.756   8.496   6.109
 4659POPC   D2A60232  36.656   8.312   6.501
 4659POPC   C3A60233  36.920   8.164   6.808
 4659POPC   C4A60234  36.906   8.470   7.133
 4659POPC   C1B60235  36.916   7.941   6.236
 4659POPC   C2B60236  37.198   7.780   6.486
 4659POPC   C3B60237  37.262   7.790   6.894
 4659POPC   C4B60238  37.131   7.982   7.263
 4660POPC   NC360239  37.320  13.009   5.555
 4660POPC   PO460240  36.649  13.118   5.462
 4660POPC   GL160241  36.696  12.884   5.835
 4660POPC   GL260242  36.989  12.648   5.817
 4660POPC   C1A60243  36.740  12.818   6.270
 4660POPC   D2A60244  36.817  12.554   6.630
 4660POPC   C3A60245  36.554  12.675   6.963
 4660POPC   C4A60246  36.693  13.034   7.197
 4660POPC   C1B60247  37.183  12.429   6.186
 4660POPC   C2B60248  37.349  12.522   6.607
 4660POPC   C3B60249  37.184  12.577   7.023
 4660POPC   C4B60250  37.184  12.289   7.372
 4661POPC   NC360251   5.975  14.548   5.485
 4661POPC   PO460252   5.360  14.328   5.569
 4661POPC   GL160253   5.717  14.148   5.725
 4661POPC   GL260254   5.716  14.466   5.929
 4661POPC   C1A60255   5.796  13.982   6.126
 4661POPC   D2A60256   5.746  14.206   6.538
 4661POPC   C3A60257   5.786  14.044   6.965
 4661POPC   C4A60258   5.961  14.319   7.271
 4661POPC   C1B60259   6.068  14.412   6.182
 4661POPC   C2B60260   6.140  14.546   6.609
 4661POPC   C3B60261   6.062  14.735   7.000
 4661POPC   C4B60262   5.852  14.842   7.370
 4662POPC   NC360263  31.383   5.381   5.460
 4662POPC   PO460264  31.102   4.762   5.401
 4662POPC   GL160265  31.360   4.941   5.792
 4662POPC   GL260266  31.743   4.898   5.854
 4662POPC   C1A60267  31.477   4.889   6.261
 4662POPC   D2A60268  31.526   4.630   6.574
 4662POPC   C3A60269  31.494   4.872   6.929
 4662POPC   C4A60270  31.418   4.820   7.349
 4662POPC   C1B60271  31.651   5.324   6.054
 4662POPC   C2B60272  31.569   5.384   6.484
 4662POPC   C3B60273  31.746   5.360   6.893
 4662POPC   C4B60274  31.823   5.488   7.296
 4663POPC   NC360275  14.742  34.047   5.145
 4663POPC   PO460276  14.251  33.609   5.416
 4663POPC   GL160277  14.358  33.729   5.819
 4663POPC   GL260278  14.685  33.520   5.815
 4663POPC   C1A60279  14.258  34.035   6.185
 4663POPC   D2A60280  14.145  34.051   6.645
 4663POPC   C3A60281  14.431  33.782   6.930
 4663POPC   C4A60282  14.452  33.830   7.372
 4663POPC   C1B60283  14.528  33.536   6.252
 4663POPC   C2B60284  14.789  33.472   6.587
 4663POPC   C3B60285  15.006  33.362   6.922
 4663POPC   C4B60286  14.756  33.428   7.269
 4664POPC   NC360287  17.808  23.870   5.182
 4664POPC   PO460288  18.326  24.097   5.322
 4664POPC   GL160289  18.162  24.027   5.733
 4664POPC   GL260290  17.860  24.174   5.806
 4664POPC   C1A60291  18.182  23.860   6.160
 4664POPC   D2A60292  18.420  23.681   6.509
 4664POPC   C3A60293  18.124  23.622   6.836
 4664POPC   C4A60294  18.026  23.529   7.253
 4664POPC   C1B60295  17.976  24.335   6.248
 4664POPC   C2B60296  18.169  24.146   6.649
 4664POPC   C3B60297  18.042  24.072   7.087
 4664POPC   C4B60298  17.674  24.187   7.304
 4665POPC   NC360299   7.876   5.099   5.419
 4665POPC   PO460300   7.230   5.306   5.546
 4665POPC   GL160301   7.461   5.156   5.900
 4665POPC   GL260302   7.483   4.801   5.843
 4665POPC   C1A60303   7.426   5.257   6.343
 4665POPC   D2A60304   7.170   5.494   6.598
 4665POPC   C3A60305   7.120   5.230   6.933
 4665POPC   C4A60306   7.435   4.956   7.082
 4665POPC   C1B60307   7.683   4.827   6.270
 4665POPC   C2B60308   7.761   5.053   6.692
 4665POPC   C3B60309   7.925   4.833   7.086
 4665POPC   C4B60310   7.723   4.706   7.469
 4666POPC   NC360311  12.964  17.907   5.465
 4666POPC   PO460312  12.634  17.294   5.424
 4666POPC   GL160313  12.685  17.393   5.851
 4666POPC   GL260314  12.686  17.732   5.880
 4666POPC   C1A60315  12.812  17.265   6.255
 4666POPC   D2A60316  13.002  17.092   6.609
 4666POPC   C3A60317  13.053  17.416   6.865
 4666POPC   C4A60318  12.877  17.556   7.252
 4666POPC   C1B60319  12.529  17.682   6.334
 4666POPC   C2B60320  12.611  17.662   6.808
 4666POPC   C3B60321  12.431  17.768   7.214
 4666POPC   C4B60322  12.356  17.713   7.703
 4667POPC   NC360323  14.010   0.216   5.385
 4667POPC   PO460324  14.702   0.419   5.343
 4667POPC   GL160325  14.687   0.336   5.778
 4667POPC   GL260326  14.376   0.470   5.820
 4667POPC   C1A60327  14.576   0.201   6.228
 4667POPC   D2A60328  14.348   0.180   6.634
 4667POPC   C3A60329  14.558   0.193   7.027
 4667POPC   C4A60330  14.684   0.566   7.265
 4667POPC   C1B60331  14.656   0.724   6.098
 4667POPC   C2B60332  14.624   0.683   6.555
 4667POPC   C3B60333  14.333   0.652   6.903
 4667POPC   C4B60334  14.094   0.438   7.227
 4668POPC   NC360335  40.262  29.702   5.447
 4668POPC   PO460336  39.826  30.137   5.497
 4668POPC   GL160337  40.086  30.126   5.869
 4668POPC   GL260338  40.133  29.779   5.966
 4668POPC   C1A60339  40.092  30.142   6.327
 4668POPC   D2A60340  40.253  29.966   6.691
 4668POPC   C3A60341  39.924  29.838   6.992
 4668POPC   C4A60342  40.023  29.719   7.420
 4668POPC   C1B60343  39.872  29.640   6.316
 4668POPC   C2B60344  39.959  29.411   6.698
 4668POPC   C3B60345  39.908  29.314   7.133
 4668POPC   C4B60346  39.673  29.355   7.534
 4669POPC   NC360347  28.993  10.019   5.376
 4669POPC   PO460348  29.198   9.381   5.408
 4669POPC   GL160349  29.053   9.664   5.749
 4669POPC   GL260350  29.318   9.915   5.752
 4669POPC   C1A60351  28.873   9.880   6.118
 4669POPC   D2A60352  28.865   9.990   6.577
 4669POPC   C3A60353  29.080   9.883   6.988
 4669POPC   C4A60354  28.992   9.823   7.401
 4669POPC   C1B60355  29.389   9.822   6.169
 4669POPC   C2B60356  29.406   9.986   6.618
 4669POPC   C3B60357  29.574  10.024   7.063
 4669POPC   C4B60358  29.484   9.711   7.438
 4670POPC   NC360359  20.218  16.216   5.296
 4670POPC   PO460360  20.487  15.577   5.395
 4670POPC   GL160361  20.518  15.897   5.708
 4670POPC   GL260362  20.352  15.704   5.934
 4670POPC   C1A60363  20.776  15.937   6.109
 4670POPC   D2A60364  20.734  15.718   6.506
 4670POPC   C3A60365  20.650  15.956   6.869
 4670POPC   C4A60366  20.803  15.941   7.287
 4670POPC   C1B60367  20.286  15.900   6.333
 4670POPC   C2B60368  20.223  15.688   6.734
 4670POPC   C3B60369  20.292  15.748   7.187
 4670POPC   C4B60370  20.519  15.635   7.592
 4671POPC   NC360371  22.967  34.149   5.481
 4671POPC   PO460372  23.123  33.511   5.414
 4671POPC   GL160373  23.168  33.598   5.848
 4671POPC   GL260374  23.099  33.951   5.924
 4671POPC   C1A60375  22.854  33.583   6.182
 4671POPC   D2A60376  22.654  33.592   6.578
 4671POPC   C3A60377  22.887  33.630   6.954
 4671POPC   C4A60378  22.775  33.791   7.357
 4671POPC   C1B60379  23.114  34.002   6.353
 4671POPC   C2B60380  23.227  33.984   6.779
 4671POPC   C3B60381  23.154  34.086   7.202
 4671POPC   C4B60382  23.037  34.108   7.653
 4672POPC   NC360383  37.317   5.600   4.948
 4672POPC   PO460384  37.836   5.711   5.339
 4672POPC   GL160385  37.591   5.746   5.729
 4672POPC   GL260386  37.367   6.015   5.817
 4672POPC   C1A60387  37.800   5.941   6.091
 4672POPC   D2A60388  37.934   5.774   6.476
 4672POPC   C3A60389  37.800   5.870   6.866
 4672POPC   C4A60390  38.083   5.794   7.157
 4672POPC   C1B60391  37.335   5.807   6.230
 4672POPC   C2B60392  37.334   5.700   6.666
 4672POPC   C3B60393  37.325   5.962   7.021
 4672POPC   C4B60394  37.426   6.222   7.333
 4673POPC   NC360395   7.691  11.746   5.537
 4673POPC   PO460396   7.762  12.344   5.370
 4673POPC   GL160397   7.610  12.216   5.803
 4673POPC   GL260398   7.665  11.913   6.022
 4673POPC   C1A60399   7.418  12.336   6.208
 4673POPC   D2A60400   7.179  12.139   6.515
 4673POPC   C3A60401   7.394  12.090   6.875
 4673POPC   C4A60402   7.345  12.259   7.239
 4673POPC   C1B60403   7.204  11.875   6.051
 4673POPC   C2B60404   6.893  11.737   6.366
 4673POPC   C3B60405   7.062  11.712   6.802
 4673POPC   C4B60406   7.209  11.768   7.231
 4674POPC   NC360407   5.068   1.168   5.478
 4674POPC   PO460408   5.736   1.177   5.608
 4674POPC   GL160409   5.348   0.999   5.865
 4674POPC   GL260410   4.961   0.884   5.903
 4674POPC   C1A60411   5.163   1.177   6.259
 4674POPC   D2A60412   4.896   1.202   6.618
 4674POPC   C3A60413   4.904   1.506   6.947
 4674POPC   C4A60414   5.181   1.595   7.288
 4674POPC   C1B60415   4.847   0.727   6.335
 4674POPC   C2B60416   4.706   0.772   6.789
 4674POPC   C3B60417   4.848   1.044   7.143
 4674POPC   C4B60418   4.751   0.972   7.656
 4675POPC   NC360419   7.478   6.525   5.540
 4675POPC   PO460420   7.731   7.160   5.509
 4675POPC   GL160421   7.690   6.924   5.835
 4675POPC   GL260422   7.332   6.964   5.810
 4675POPC   C1A60423   7.720   6.705   6.231
 4675POPC   D2A60424   7.764   6.533   6.648
 4675POPC   C3A60425   7.552   6.688   7.015
 4675POPC   C4A60426   7.394   6.638   7.432
 4675POPC   C1B60427   7.205   6.743   6.200
 4675POPC   C2B60428   7.188   6.826   6.661
 4675POPC   C3B60429   7.059   6.889   7.132
 4675POPC   C4B60430   6.911   6.915   7.613
 4676POPC   NC360431  24.602  21.538   5.034
 4676POPC   PO460432  24.695  21.022   5.359
 4676POPC   GL160433  24.463  21.369   5.639
 4676POPC   GL260434  24.158  21.448   5.866
 4676POPC   C1A60435  24.568  21.378   6.109
 4676POPC   D2A60436  24.285  21.354   6.464
 4676POPC   C3A60437  24.538  21.400   6.823
 4676POPC   C4A60438  24.490  21.334   7.247
 4676POPC   C1B60439  24.263  21.775   6.179
 4676POPC   C2B60440  24.283  21.848   6.622
 4676POPC   C3B60441  24.209  21.728   7.056
 4676POPC   C4B60442  24.406  21.808   7.434
 4677POPC   NC360443  42.347  12.605   5.596
 4677POPC   PO460444  42.117  12.110   5.148
 4677POPC   GL160445  42.363  12.089   5.568
 4677POPC   GL260446  42.075  12.176   5.764
 4677POPC   C1A60447  42.546  12.007   6.028
 4677POPC   D2A60448  42.580  12.181   6.489
 4677POPC   C3A60449  42.521  11.896   6.859
 4677POPC   C4A60450  42.638  11.907   7.294
 4677POPC   C1B60451  42.151  12.277   6.194
 4677POPC   C2B60452  42.072  12.082   6.624
 4677POPC   C3B60453  42.007  12.038   7.086
 4677POPC   C4B60454  42.243  12.188   7.446
 4678POPC   NC360455  13.931  11.422   5.216
 4678POPC   PO460456  14.520  11.737   5.194
 4678POPC   GL160457  14.440  11.488   5.690
 4678POPC   GL260458  14.262  11.248   5.925
 4678POPC   C1A60459  14.675  11.516   6.131
 4678POPC   D2A60460  14.718  11.566   6.608
 4678POPC   C3A60461  14.538  11.319   6.985
 4678POPC   C4A60462  14.474  11.222   7.454
 4678POPC   C1B60463  14.372  11.213   6.392
 4678POPC   C2B60464  14.207  10.994   6.740
 4678POPC   C3B60465  14.336  10.826   7.146
 4678POPC   C4B60466  14.148  10.846   7.570
 4679POPC   NC360467  44.453   1.071   5.340
 4679POPC   PO460468  44.989   1.373   5.329
 4679POPC   GL160469  44.911   1.122   5.728
 4679POPC   GL260470  44.566   1.051   5.862
 4679POPC   C1A60471   0.030   1.180   6.202
 4679POPC   D2A60472  44.901   1.368   6.632
 4679POPC   C3A60473   0.002   1.117   7.026
 4679POPC   C4A60474  44.934   1.120   7.517
 4679POPC   C1B60475  44.555   1.070   6.347
 4679POPC   C2B60476  44.515   1.079   6.793
 4679POPC   C3B60477  44.525   0.972   7.221
 4679POPC   C4B60478  44.445   1.071   7.660
 4680POPC   NC360479   2.038  18.684   5.538
 4680POPC   PO460480   1.984  17.989   5.432
 4680POPC   GL160481   2.125  18.208   5.773
 4680POPC   GL260482   1.880  18.421   5.933
 4680POPC   C1A60483   2.209  18.160   6.199
 4680POPC   D2A60484   1.863  18.145   6.479
 4680POPC   C3A60485   1.884  18.185   6.936
 4680POPC   C4A60486   2.238  18.208   7.216
 4680POPC   C1B60487   1.646  18.640   6.240
 4680POPC   C2B60488   1.464  18.457   6.582
 4680POPC   C3B60489   1.437  18.613   6.970
 4680POPC   C4B60490   1.727  18.619   7.275
 4681POPC   NC360491  21.535   3.834   5.309
 4681POPC   PO460492  21.307   3.195   5.316
 4681POPC   GL160493  21.399   3.479   5.711
 4681POPC   GL260494  21.349   3.838   5.778
 4681POPC   C1A60495  21.337   3.499   6.199
 4681POPC   D2A60496  21.082   3.467   6.621
 4681POPC   C3A60497  21.238   3.319   7.017
 4681POPC   C4A60498  21.586   3.418   7.261
 4681POPC   C1B60499  21.312   4.001   6.178
 4681POPC   C2B60500  21.448   3.833   6.576
 4681POPC   C3B60501  21.303   3.831   7.006
 4681POPC   C4B60502  21.191   3.716   7.433
 4682POPC   NC360503  23.574  33.502   5.499
 4682POPC   PO460504  23.430  34.139   5.570
 4682POPC   GL160505  23.612  33.882   5.911
 4682POPC   GL260506  23.859  33.611   5.896
 4682POPC   C1A60507  23.629  33.956   6.353
 4682POPC   D2A60508  23.837  34.004   6.743
 4682POPC   C3A60509  23.619  33.870   7.116
 4682POPC   C4A60510  23.293  33.581   7.263
 4682POPC   C1B60511  23.541  33.456   6.203
 4682POPC   C2B60512  23.487  33.544   6.654
 4682POPC   C3B60513  23.700  33.376   7.012
 4682POPC   C4B60514  23.755  33.438   7.453
 4683POPC   NC360515  26.212  34.197   5.704
 4683POPC   PO460516  25.823  33.723   5.358
 4683POPC   GL160517  26.031  33.718   5.756
 4683POPC   GL260518  25.736  33.769   5.940
 4683POPC   C1A60519  26.134  33.841   6.231
 4683POPC   D2A60520  25.966  33.882   6.637
 4683POPC   C3A60521  26.204  33.868   7.026
 4683POPC   C4A60522  26.040  34.120   7.380
 4683POPC   C1B60523  25.775  33.459   6.328
 4683POPC   C2B60524  25.665  33.508   6.765
 4683POPC   C3B60525  25.709  33.789   7.129
 4683POPC   C4B60526  25.752  33.732   7.584
 4684POPC   NC360527  33.234  14.205   4.984
 4684POPC   PO460528  32.968  14.718   5.356
 4684POPC   GL160529  33.148  14.545   5.741
 4684POPC   GL260530  33.313  14.235   5.585
 4684POPC   C1A60531  33.215  14.641   6.182
 4684POPC   D2A60532  32.992  14.735   6.571
 4684POPC   C3A60533  32.936  14.488   6.943
 4684POPC   C4A60534  33.011  14.616   7.397
 4684POPC   C1B60535  33.255  14.136   6.030
 4684POPC   C2B60536  33.180  14.193   6.479
 4684POPC   C3B60537  33.110  14.028   6.884
 4684POPC   C4B60538  33.117  14.134   7.283
 4685POPC   NC360539   8.210  32.630   5.401
 4685POPC   PO460540   7.936  32.022   5.560
 4685POPC   GL160541   8.126  32.168   5.859
 4685POPC   GL260542   8.506  32.102   5.776
 4685POPC   C1A60543   7.913  32.132   6.273
 4685POPC   D2A60544   7.828  31.887   6.641
 4685POPC   C3A60545   7.950  32.097   7.011
 4685POPC   C4A60546   8.140  32.475   7.151
 4685POPC   C1B60547   8.427  32.088   6.241
 4685POPC   C2B60548   8.306  32.221   6.657
 4685POPC   C3B60549   8.461  32.073   7.065
 4685POPC   C4B60550   8.336  32.125   7.504
 4686POPC   NC360551  24.289   3.734   5.501
 4686POPC   PO460552  24.701   3.199   5.355
 4686POPC   GL160553  24.582   3.391   5.736
 4686POPC   GL260554  24.232   3.253   5.681
 4686POPC   C1A60555  24.435   3.605   6.133
 4686POPC   D2A60556  24.219   3.685   6.538
 4686POPC   C3A60557  24.418   3.659   6.954
 4686POPC   C4A60558  24.276   3.943   7.285
 4686POPC   C1B60559  24.317   3.081   6.091
 4686POPC   C2B60560  24.492   3.244   6.477
 4686POPC   C3B60561  24.450   3.143   6.872
 4686POPC   C4B60562  24.186   3.244   7.189
 4687POPC   NC360563  40.507  16.542   5.541
 4687POPC   PO460564  41.053  16.974   5.483
 4687POPC   GL160565  40.921  16.669   5.816
 4687POPC   GL260566  41.221  16.534   5.962
 4687POPC   C1A60567  40.663  16.574   6.224
 4687POPC   D2A60568  40.378  16.680   6.601
 4687POPC   C3A60569  40.571  16.694   7.035
 4687POPC   C4A60570  40.503  16.555   7.490
 4687POPC   C1B60571  41.094  16.911   6.224
 4687POPC   C2B60572  40.876  16.883   6.631
 4687POPC   C3B60573  41.066  16.898   7.043
 4687POPC   C4B60574  41.186  16.547   7.234
 4688POPC   NC360575  29.326  42.851   5.327
 4688POPC   PO460576  29.016  43.527   5.518
 4688POPC   GL160577  29.281  43.292   5.810
 4688POPC   GL260578  29.343  42.915   5.820
 4688POPC   C1A60579  29.145  43.139   6.219
 4688POPC   D2A60580  29.020  43.330   6.580
 4688POPC   C3A60581  29.146  43.205   6.965
 4688POPC   C4A60582  28.929  43.324   7.294
 4688POPC   C1B60583  29.577  42.814   6.191
 4688POPC   C2B60584  29.641  42.554   6.548
 4688POPC   C3B60585  29.550  42.715   6.929
 4688POPC   C4B60586  29.438  42.915   7.291
 4689POPC   NC360587  20.663  26.337   5.392
 4689POPC   PO460588  20.743  25.701   5.340
 4689POPC   GL160589  20.585  25.919   5.721
 4689POPC   GL260590  20.296  26.126   5.681
 4689POPC   C1A60591  20.475  25.889   6.172
 4689POPC   D2A60592  20.217  25.784   6.532
 4689POPC   C3A60593  20.433  25.813   6.941
 4689POPC   C4A60594  20.812  25.797   7.188
 4689POPC   C1B60595  20.417  26.378   6.032
 4689POPC   C2B60596  20.497  26.396   6.473
 4689POPC   C3B60597  20.655  26.314   6.878
 4689POPC   C4B60598  20.519  26.216   7.270
 4690POPC   NC360599  21.711  21.113   5.376
 4690POPC   PO460600  21.192  21.516   5.453
 4690POPC   GL160601  21.541  21.497   5.728
 4690POPC   GL260602  21.550  21.171   5.867
 4690POPC   C1A60603  21.590  21.618   6.159
 4690POPC   D2A60604  21.378  21.533   6.534
 4690POPC   C3A60605  21.604  21.571   6.891
 4690POPC   C4A60606  21.426  21.633   7.285
 4690POPC   C1B60607  21.206  21.240   6.132
 4690POPC   C2B60608  21.174  21.064   6.536
 4690POPC   C3B60609  21.222  21.230   6.928
 4690POPC   C4B60610  21.412  21.120   7.305
 4691POPC   NC360611  18.165  14.588   5.342
 4691POPC   PO460612  18.509  14.051   5.529
 4691POPC   GL160613  18.513  14.336   5.871
 4691POPC   GL260614  18.213  14.574   5.850
 4691POPC   C1A60615  18.468  14.325   6.328
 4691POPC   D2A60616  18.413  14.709   6.573
 4691POPC   C3A60617  18.124  14.718   6.902
 4691POPC   C4A60618  17.982  14.714   7.301
 4691POPC   C1B60619  17.998  14.287   6.121
 4691POPC   C2B60620  18.017  14.304   6.580
 4691POPC   C3B60621  18.230  14.232   6.983
 4691POPC   C4B60622  17.935  14.158   7.308
 4692POPC   NC360623   4.967   2.675   4.961
 4692POPC   PO460624   5.168   2.268   5.377
 4692POPC   GL160625   5.091   2.505   5.771
 4692POPC   GL260626   5.343   2.769   5.827
 4692POPC   C1A60627   5.194   2.469   6.221
 4692POPC   D2A60628   5.233   2.692   6.607
 4692POPC   C3A60629   5.170   2.491   6.968
 4692POPC   C4A60630   5.329   2.578   7.343
 4692POPC   C1B60631   5.160   2.997   6.200
 4692POPC   C2B60632   5.344   3.189   6.591
 4692POPC   C3B60633   5.208   3.198   7.008
 4692POPC   C4B60634   5.075   3.009   7.392
 4693POPC   NC360635  24.699  27.964   5.056
 4693POPC   PO460636  24.279  27.549   5.448
 4693POPC   GL160637  24.510  27.484   5.895
 4693POPC   GL260638  24.649  27.770   6.056
 4693POPC   C1A60639  24.489  27.395   6.346
 4693POPC   D2A60640  24.396  27.604   6.723
 4693POPC   C3A60641  24.558  27.394   7.081
 4693POPC   C4A60642  24.794  27.536   7.445
 4693POPC   C1B60643  24.239  27.851   6.233
 4693POPC   C2B60644  24.119  28.034   6.620
 4693POPC   C3B60645  24.142  27.929   7.033
 4693POPC   C4B60646  24.479  27.874   7.272
 4694POPC   NC360647  44.941  19.042   5.476
 4694POPC   PO460648  44.422  18.659   5.512
 4694POPC   GL160649  44.565  18.917   5.860
 4694POPC   GL260650  44.586  19.268   5.769
 4694POPC   C1A60651  44.404  19.005   6.288
 4694POPC   D2A60652  44.172  18.797   6.623
 4694POPC   C3A60653  44.337  18.765   7.048
 4694POPC   C4A60654  44.742  18.736   7.143
 4694POPC   C1B60655  44.612  19.464   6.172
 4694POPC   C2B60656  44.584  19.384   6.597
 4694POPC   C3B60657  44.692  19.269   7.002
 4694POPC   C4B60658  44.552  19.169   7.393
 4695POPC   NC360659  43.520  19.879   5.415
 4695POPC   PO460660  44.155  20.109   5.521
 4695POPC   GL160661  43.876  19.868   5.785
 4695POPC   GL260662  43.595  20.105   5.880
 4695POPC   C1A60663  43.683  19.679   6.160
 4695POPC   D2A60664  43.632  19.847   6.564
 4695POPC   C3A60665  43.826  19.737   6.939
 4695POPC   C4A60666  43.742  19.496   7.261
 4695POPC   C1B60667  43.906  20.179   6.239
 4695POPC   C2B60668  43.977  20.406   6.645
 4695POPC   C3B60669  44.009  20.222   7.049
 4695POPC   C4B60670  43.932  19.980   7.404
 4696POPC   NC360671  44.463  29.711   5.518
 4696POPC   PO460672  44.362  30.384   5.527
 4696POPC   GL160673  44.570  30.094   5.855
 4696POPC   GL260674  44.748  29.729   5.928
 4696POPC   C1A60675  44.567  30.018   6.298
 4696POPC   D2A60676  44.945  29.890   6.508
 4696POPC   C3A60677  44.921  29.958   6.936
 4696POPC   C4A60678  44.608  30.045   7.243
 4696POPC   C1B60679  44.888  29.397   6.214
 4696POPC   C2B60680  44.861  29.406   6.661
 4696POPC   C3B60681   0.096  29.471   7.000
 4696POPC   C4B60682  44.968  29.656   7.355
 4697POPC   NC360683  44.914  43.613   5.358
 4697POPC   PO460684  44.370  44.025   5.338
 4697POPC   GL160685  44.644  43.924   5.675
 4697POPC   GL260686  44.485  43.621   5.759
 4697POPC   C1A60687  44.820  43.863   6.097
 4697POPC   D2A60688  44.623  44.000   6.478
 4697POPC   C3A60689  44.850  43.927   6.842
 4697POPC   C4A60690  44.746  43.954   7.230
 4697POPC   C1B60691  44.555  43.433   6.141
 4697POPC   C2B60692  44.739  43.504   6.539
 4697POPC   C3B60693  44.539  43.560   6.934
 4697POPC   C4B60694  44.529  43.519   7.369
 4698POPC   NC360695  10.237  32.582   5.350
 4698POPC   PO460696  10.790  32.207   5.251
 4698POPC   GL160697  10.602  32.213   5.670
 4698POPC   GL260698  10.285  32.017   5.760
 4698POPC   C1A60699  10.507  32.367   6.094
 4698POPC   D2A60700  10.567  32.224   6.521
 4698POPC   C3A60701  10.524  32.352   6.951
 4698POPC   C4A60702  10.836  32.120   7.157
 4698POPC   C1B60703  10.202  31.779   6.158
 4698POPC   C2B60704  10.212  31.858   6.616
 4698POPC   C3B60705  10.112  31.945   7.048
 4698POPC   C4B60706  10.275  32.129   7.376
 4699POPC   NC360707  19.619  22.864   5.389
 4699POPC   PO460708  20.283  22.946   5.459
 4699POPC   GL160709  20.032  22.791   5.793
 4699POPC   GL260710  19.754  23.037   5.853
 4699POPC   C1A60711  19.946  22.790   6.250
 4699POPC   D2A60712  19.794  23.153   6.478
 4699POPC   C3A60713  19.908  23.194   6.936
 4699POPC   C4A60714  19.983  22.924   7.294
 4699POPC   C1B60715  19.446  22.871   6.140
 4699POPC   C2B60716  19.430  22.699   6.586
 4699POPC   C3B60717  19.521  22.823   7.030
 4699POPC   C4B60718  19.513  23.210   7.282
 4700POPC   NC360719  37.125  15.890   5.428
 4700POPC   PO460720  37.727  16.142   5.269
 4700POPC   GL160721  37.588  16.103   5.691
 4700POPC   GL260722  37.449  15.790   5.821
 4700POPC   C1A60723  37.792  16.092   6.104
 4700POPC   D2A60724  37.602  16.333   6.444
 4700POPC   C3A60725  37.764  16.250   6.838
 4700POPC   C4A60726  37.790  15.957   7.167
 4700POPC   C1B60727  37.352  15.893   6.284
 4700POPC   C2B60728  37.373  15.942   6.767
 4700POPC   C3B60729  37.273  15.947   7.211
 4700POPC   C4B60730  37.502  15.768   7.568
 4701POPC   NC360731  32.739  21.781   5.523
 4701POPC   PO460732  33.270  22.183   5.364
 4701POPC   GL160733  33.051  22.162   5.743
 4701POPC   GL260734  32.878  22.465   5.806
 4701POPC   C1A60735  33.020  22.107   6.188
 4701POPC   D2A60736  33.107  22.225   6.606
 4701POPC   C3A60737  33.171  21.862   6.881
 4701POPC   C4A60738  33.313  21.898   7.245
 4701POPC   C1B60739  32.758  22.536   6.256
 4701POPC   C2B60740  32.633  22.451   6.710
 4701POPC   C3B60741  32.748  22.657   7.118
 4701POPC   C4B60742  32.975  22.615   7.521
 4702POPC   NC360743  36.513  16.413   5.565
 4702POPC   PO460744  36.684  15.796   5.414
 4702POPC   GL160745  36.774  15.963   5.790
 4702POPC   GL260746  37.059  16.174   5.868
 4702POPC   C1A60747  36.866  15.785   6.177
 4702POPC   D2A60748  36.924  15.985   6.557
 4702POPC   C3A60749  36.871  15.755   6.914
 4702POPC   C4A60750  36.721  15.848   7.319
 4702POPC   C1B60751  36.731  16.315   6.196
 4702POPC   C2B60752  36.620  16.383   6.670
 4702POPC   C3B60753  36.889  16.248   7.039
 4702POPC   C4B60754  36.962  16.255   7.528
 4703POPC   NC360755  25.047   3.533   5.434
 4703POPC   PO460756  25.701   3.909   5.414
 4703POPC   GL160757  25.588   3.613   5.796
 4703POPC   GL260758  25.271   3.410   5.873
 4703POPC   C1A60759  25.590   3.510   6.246
 4703POPC   D2A60760  25.370   3.793   6.550
 4703POPC   C3A60761  25.497   3.682   6.963
 4703POPC   C4A60762  25.125   3.498   7.119
 4703POPC   C1B60763  24.963   3.659   6.123
 4703POPC   C2B60764  24.780   3.770   6.535
 4703POPC   C3B60765  24.903   3.935   6.937
 4703POPC   C4B60766  24.785   3.848   7.310
 4704POPC   NC360767   5.898  41.524   5.328
 4704POPC   PO460768   5.533  42.049   5.487
 4704POPC   GL160769   5.761  41.801   5.810
 4704POPC   GL260770   5.779  41.418   5.811
 4704POPC   C1A60771   5.992  41.773   6.207
 4704POPC   D2A60772   6.085  41.640   6.654
 4704POPC   C3A60773   5.798  41.706   7.014
 4704POPC   C4A60774   6.023  41.649   7.361
 4704POPC   C1B60775   5.863  41.298   6.253
 4704POPC   C2B60776   5.718  41.309   6.700
 4704POPC   C3B60777   5.811  41.204   7.147
 4704POPC   C4B60778   5.688  41.296   7.576
 4705POPC   NC360779   3.242  30.637   5.265
 4705POPC   PO460780   3.728  30.960   5.575
 4705POPC   GL160781   3.400  30.884   5.858
 4705POPC   GL260782   3.404  30.537   5.791
 4705POPC   C1A60783   3.453  30.685   6.277
 4705POPC   D2A60784   3.771  30.595   6.593
 4705POPC   C3A60785   3.722  30.902   6.932
 4705POPC   C4A60786   3.372  31.027   7.194
 4705POPC   C1B60787   3.158  30.253   6.113
 4705POPC   C2B60788   3.157  30.384   6.587
 4705POPC   C3B60789   3.426  30.483   6.971
 4705POPC   C4B60790   3.491  30.274   7.347
 4706POPC   NC360791  41.310   7.691   5.419
 4706POPC   PO460792  41.980   7.696   5.448
 4706POPC   GL160793  41.814   7.458   5.812
 4706POPC   GL260794  41.570   7.160   5.796
 4706POPC   C1A60795  41.527   7.540   6.149
 4706POPC   D2A60796  41.390   7.602   6.578
 4706POPC   C3A60797  41.614   7.560   6.931
 4706POPC   C4A60798  41.471   7.720   7.274
 4706POPC   C1B60799  41.342   7.065   6.220
 4706POPC   C2B60800  41.497   7.077   6.685
 4706POPC   C3B60801  41.288   7.222   7.091
 4706POPC   C4B60802  40.876   7.294   7.336
 4707POPC   NC360803  12.327  24.883   5.582
 4707POPC   PO460804  11.987  25.402   5.350
 4707POPC   GL160805  12.082  25.280   5.780
 4707POPC   GL260806  11.919  24.958   5.887
 4707POPC   C1A60807  12.320  25.310   6.169
 4707POPC   D2A60808  12.192  25.477   6.587
 4707POPC   C3A60809  12.349  25.387   6.995
 4707POPC   C4A60810  12.216  25.298   7.419
 4707POPC   C1B60811  12.171  24.844   6.279
 4707POPC   C2B60812  12.365  24.977   6.696
 4707POPC   C3B60813  12.112  24.877   7.117
 4707POPC   C4B60814  12.095  24.862   7.617
 4708POPC   NC360815  37.453  22.857   5.558
 4708POPC   PO460816  37.418  23.435   5.331
 4708POPC   GL160817  37.653  23.283   5.772
 4708POPC   GL260818  37.903  22.957   5.776
 4708POPC   C1A60819  37.562  23.047   6.191
 4708POPC   D2A60820  37.269  23.024   6.559
 4708POPC   C3A60821  37.490  22.964   6.953
 4708POPC   C4A60822  37.730  23.196   7.192
 4708POPC   C1B60823  38.006  22.772   6.186
 4708POPC   C2B60824  37.812  22.762   6.612
 4708POPC   C3B60825  37.968  22.752   7.074
 4708POPC   C4B60826  37.945  22.419   7.411
 4709POPC   NC360827   6.695  35.101   4.897
 4709POPC   PO460828   6.786  35.484   5.407
 4709POPC   GL160829   6.632  35.506   5.822
 4709POPC   GL260830   6.972  35.569   5.910
 4709POPC   C1A60831   6.600  35.219   6.178
 4709POPC   D2A60832   6.562  35.009   6.602
 4709POPC   C3A60833   6.403  35.260   6.966
 4709POPC   C4A60834   6.403  35.709   7.144
 4709POPC   C1B60835   6.865  35.623   6.312
 4709POPC   C2B60836   6.638  35.745   6.655
 4709POPC   C3B60837   6.846  35.514   6.941
 4709POPC   C4B60838   7.009  35.490   7.304
 4710POPC   NC360839  37.897   8.508   5.119
 4710POPC   PO460840  37.398   8.636   5.556
 4710POPC   GL160841  37.552   8.294   5.834
 4710POPC   GL260842  37.317   8.026   5.923
 4710POPC   C1A60843  37.821   8.356   6.233
 4710POPC   D2A60844  38.026   8.474   6.617
 4710POPC   C3A60845  37.931   8.261   6.999
 4710POPC   C4A60846  37.664   7.937   7.213
 4710POPC   C1B60847  37.315   8.264   6.287
 4710POPC   C2B60848  37.557   8.168   6.629
 4710POPC   C3B60849  37.405   8.318   6.956
 4710POPC   C4B60850  37.355   8.449   7.325
 4711POPC   NC360851   3.665   5.014   5.366
 4711POPC   PO460852   3.131   4.864   5.677
 4711POPC   GL160853   3.451   5.138   5.855
 4711POPC   GL260854   3.775   5.002   5.893
 4711POPC   C1A60855   3.380   5.288   6.254
 4711POPC   D2A60856   3.305   5.023   6.614
 4711POPC   C3A60857   3.390   5.156   7.026
 4711POPC   C4A60858   3.765   5.235   7.232
 4711POPC   C1B60859   3.789   4.979   6.341
 4711POPC   C2B60860   3.811   4.939   6.799
 4711POPC   C3B60861   3.680   4.712   7.200
 4711POPC   C4B60862   3.897   4.778   7.646
 4712POPC   NC360863  20.506  11.655   5.071
 4712POPC   PO460864  20.748  11.087   5.397
 4712POPC   GL160865  20.845  11.110   5.820
 4712POPC   GL260866  20.852  11.447   5.902
 4712POPC   C1A60867  20.686  10.991   6.229
 4712POPC   D2A60868  20.656  10.805   6.638
 4712POPC   C3A60869  20.766  11.088   6.968
 4712POPC   C4A60870  20.546  11.211   7.336
 4712POPC   C1B60871  20.518  11.475   6.211
 4712POPC   C2B60872  20.610  11.476   6.648
 4712POPC   C3B60873  20.555  11.635   7.050
 4712POPC   C4B60874  20.199  11.628   7.350
 4713POPC   NC360875  37.939  28.821   5.407
 4713POPC   PO460876  37.399  28.486   5.302
 4713POPC   GL160877  37.537  28.190   5.620
 4713POPC   GL260878  37.881  28.269   5.749
 4713POPC   C1A60879  37.482  28.274   6.075
 4713POPC   D2A60880  37.607  28.616   6.375
 4713POPC   C3A60881  37.573  28.608   6.823
 4713POPC   C4A60882  37.768  28.510   7.221
 4713POPC   C1B60883  38.037  28.430   6.150
 4713POPC   C2B60884  38.108  28.326   6.569
 4713POPC   C3B60885  38.238  28.479   6.968
 4713POPC   C4B60886  38.224  28.283   7.347
 4714POPC   NC360887  16.284   1.363   5.111
 4714POPC   PO460888  16.890   1.129   5.242
 4714POPC   GL160889  16.797   1.149   5.681
 4714POPC   GL260890  16.543   0.898   5.748
 4714POPC   C1A60891  16.688   1.215   6.119
 4714POPC   D2A60892  16.807   1.118   6.527
 4714POPC   C3A60893  16.646   1.464   6.761
 4714POPC   C4A60894  16.615   1.530   7.210
 4714POPC   C1B60895  16.377   0.795   6.174
 4714POPC   C2B60896  16.306   0.997   6.584
 4714POPC   C3B60897  16.522   1.012   6.971
 4714POPC   C4B60898  16.269   0.874   7.272
 4715POPC   NC360899   2.101  41.823   5.407
 4715POPC   PO460900   2.253  41.238   5.477
 4715POPC   GL160901   2.181  41.472   5.810
 4715POPC   GL260902   2.458  41.690   5.816
 4715POPC   C1A60903   2.108  41.510   6.255
 4715POPC   D2A60904   2.434  41.480   6.606
 4715POPC   C3A60905   2.226  41.333   6.981
 4715POPC   C4A60906   1.774  41.165   6.985
 4715POPC   C1B60907   2.447  41.880   6.244
 4715POPC   C2B60908   2.300  42.001   6.664
 4715POPC   C3B60909   2.155  41.837   7.064
 4715POPC   C4B60910   1.780  41.616   7.198
 4716POPC   NC360911   9.070  22.374   5.488
 4716POPC   PO460912   9.115  21.764   5.308
 4716POPC   GL160913   8.977  21.986   5.789
 4716POPC   GL260914   9.211  22.186   5.964
 4716POPC   C1A60915   8.761  22.241   6.176
 4716POPC   D2A60916   8.698  22.121   6.628
 4716POPC   C3A60917   9.055  22.128   6.948
 4716POPC   C4A60918   9.177  21.985   7.385
 4716POPC   C1B60919   9.206  22.236   6.426
 4716POPC   C2B60920   8.985  22.575   6.628
 4716POPC   C3B60921   8.946  22.649   7.048
 4716POPC   C4B60922   9.275  22.479   7.293
 4717POPC   NC360923  18.968  39.801   5.489
 4717POPC   PO460924  19.120  40.449   5.507
 4717POPC   GL160925  18.931  40.274   5.906
 4717POPC   GL260926  18.616  40.084   5.866
 4717POPC   C1A60927  19.150  40.204   6.344
 4717POPC   D2A60928  19.263  39.818   6.621
 4717POPC   C3A60929  19.121  39.879   7.091
 4717POPC   C4A60930  19.181  39.981   7.546
 4717POPC   C1B60931  18.820  39.858   6.202
 4717POPC   C2B60932  18.783  39.960   6.656
 4717POPC   C3B60933  18.625  39.787   7.054
 4717POPC   C4B60934  18.691  39.989   7.441
 4718POPC   NC360935   3.311  17.560   5.336
 4718POPC   PO460936   3.705  18.015   5.363
 4718POPC   GL160937   3.614  17.755   5.687
 4718POPC   GL260938   3.283  17.897   5.730
 4718POPC   C1A60939   3.509  17.434   5.985
 4718POPC   D2A60940   3.362  17.487   6.402
 4718POPC   C3A60941   3.608  17.609   6.737
 4718POPC   C4A60942   3.529  17.313   7.060
 4718POPC   C1B60943   3.052  17.668   6.041
 4718POPC   C2B60944   2.907  17.684   6.474
 4718POPC   C3B60945   3.041  17.467   6.852
 4718POPC   C4B60946   3.053  17.231   7.247
 4719POPC   NC360947   1.028  38.614   5.114
 4719POPC   PO460948   1.391  38.965   5.564
 4719POPC   GL160949   1.196  38.523   5.624
 4719POPC   GL260950   1.387  38.198   5.668
 4719POPC   C1A60951   1.012  38.427   6.014
 4719POPC   D2A60952   1.163  38.595   6.465
 4719POPC   C3A60953   0.936  38.547   6.886
 4719POPC   C4A60954   1.005  38.755   7.287
 4719POPC   C1B60955   1.511  38.369   6.083
 4719POPC   C2B60956   1.631  38.331   6.533
 4719POPC   C3B60957   1.458  38.503   6.927
 4719POPC   C4B60958   1.224  38.310   7.255
 4720POPC   NC360959   4.009   9.793   5.328
 4720POPC   PO460960   4.516   9.452   5.397
 4720POPC   GL160961   4.243   9.676   5.760
 4720POPC   GL260962   3.959   9.954   5.802
 4720POPC   C1A60963   3.998   9.593   6.142
 4720POPC   D2A60964   3.970   9.434   6.550
 4720POPC   C3A60965   4.312   9.510   6.833
 4720POPC   C4A60966   4.266   9.593   7.264
 4720POPC   C1B60967   3.996  10.107   6.214
 4720POPC   C2B60968   4.150   9.934   6.581
 4720POPC   C3B60969   4.313  10.021   6.983
 4720POPC   C4B60970   4.153  10.173   7.363
 4721POPC   NC360971  37.018  42.773   5.512
 4721POPC   PO460972  36.771  43.333   5.484
 4721POPC   GL160973  36.807  43.113   5.871
 4721POPC   GL260974  37.167  43.135   5.860
 4721POPC   C1A60975  36.902  43.101   6.330
 4721POPC   D2A60976  36.759  42.891   6.719
 4721POPC   C3A60977  36.724  43.210   7.057
 4721POPC   C4A60978  37.076  43.499   7.182
 4721POPC   C1B60979  37.295  42.807   6.163
 4721POPC   C2B60980  37.388  42.942   6.553
 4721POPC   C3B60981  37.234  43.068   6.941
 4721POPC   C4B60982  36.978  42.803   7.181
 4722POPC   NC360983  44.041  14.259   5.363
 4722POPC   PO460984  43.556  14.530   5.764
 4722POPC   GL160985  43.944  14.578   5.910
 4722POPC   GL260986  44.073  14.283   5.877
 4722POPC   C1A60987  44.034  14.726   6.329
 4722POPC   D2A60988  44.294  14.549   6.667
 4722POPC   C3A60989  44.160  14.394   7.054
 4722POPC   C4A60990  44.264  13.933   7.071
 4722POPC   C1B60991  43.828  14.250   6.274
 4722POPC   C2B60992  43.787  14.377   6.660
 4722POPC   C3B60993  43.775  14.074   6.944
 4722POPC   C4B60994  43.854  14.106   7.361
 4723POPC   NC360995   6.806  37.563   5.461
 4723POPC   PO460996   6.102  37.473   5.337
 4723POPC   GL160997   6.287  37.588   5.731
 4723POPC   GL260998   6.473  37.921   5.750
 4723POPC   C1A60999   6.411  37.603   6.161
 4723POPC   D2A61000   6.419  37.825   6.542
 4723POPC   C3A61001   6.560  37.600   6.891
 4723POPC   C4A61002   6.656  37.596   7.316
 4723POPC   C1B61003   6.717  38.048   6.154
 4723POPC   C2B61004   6.916  37.922   6.581
 4723POPC   C3B61005   6.912  37.962   7.039
 4723POPC   C4B61006   7.050  37.882   7.479
 4724POPC   NC361007  18.772   1.930   5.490
 4724POPC   PO461008  19.459   1.682   5.663
 4724POPC   GL161009  19.105   1.799   5.876
 4724POPC   GL261010  19.200   2.139   5.847
 4724POPC   C1A61011  18.933   1.949   6.264
 4724POPC   D2A61012  19.062   2.032   6.663
 4724POPC   C3A61013  18.898   1.796   7.023
 4724POPC   C4A61014  18.989   1.803   7.469
 4724POPC   C1B61015  19.477   2.149   6.241
 4724POPC   C2B61016  19.470   2.321   6.679
 4724POPC   C3B61017  19.312   2.104   7.087
 4724POPC   C4B61018  19.360   2.138   7.518
 4725POPC   NC361019  19.531  42.790   5.111
 4725POPC   PO461020  20.045  42.516   5.480
 4725POPC   GL161021  19.911  42.388   5.845
 4725POPC   GL261022  19.620  42.172   5.761
 4725POPC   C1A61023  19.928  42.402   6.276
 4725POPC   D2A61024  19.773  42.193   6.634
 4725POPC   C3A61025  19.915  42.211   7.068
 4725POPC   C4A61026  19.998  42.581   7.249
 4725POPC   C1B61027  19.437  42.221   6.174
 4725POPC   C2B61028  19.268  42.016   6.550
 4725POPC   C3B61029  19.406  42.126   6.970
 4725POPC   C4B61030  19.537  41.866   7.304
 4726POPC   NC361031  35.810  19.309   5.422
 4726POPC   PO461032  35.129  19.179   5.328
 4726POPC   GL161033  35.395  19.140   5.703
 4726POPC   GL261034  35.553  18.839   5.833
 4726POPC   C1A61035  35.397  19.205   6.154
 4726POPC   D2A61036  35.475  19.055   6.559
 4726POPC   C3A61037  35.421  19.361   6.875
 4726POPC   C4A61038  35.456  19.381   7.294
 4726POPC   C1B61039  35.256  18.677   6.185
 4726POPC   C2B61040  35.063  18.726   6.627
 4726POPC   C3B61041  35.316  18.856   7.005
 4726POPC   C4B61042  35.186  18.953   7.434
 4727POPC   NC361043  22.000  23.376   5.437
 4727POPC   PO461044  22.498  23.751   5.383
 4727POPC   GL161045  22.353  23.563   5.765
 4727POPC   GL261046  22.083  23.772   5.793
 4727POPC   C1A61047  22.368  23.662   6.225
 4727POPC   D2A61048  22.471  23.546   6.656
 4727POPC   C3A61049  22.216  23.659   7.012
 4727POPC   C4A61050  22.245  23.622   7.463
 4727POPC   C1B61051  21.985  24.015   6.186
 4727POPC   C2B61052  22.108  23.976   6.604
 4727POPC   C3B61053  21.868  24.057   6.970
 4727POPC   C4B61054  22.091  24.088   7.339
 4728POPC   NC361055  36.932  42.029   5.375
 4728POPC   PO461056  36.593  42.595   5.369
 4728POPC   GL161057  36.599  42.544   5.788
 4728POPC   GL261058  36.513  42.182   5.782
 4728POPC   C1A61059  36.804  42.602   6.197
 4728POPC   D2A61060  37.098  42.479   6.524
 4728POPC   C3A61061  36.930  42.350   6.915
 4728POPC   C4A61062  36.585  42.510   7.125
 4728POPC   C1B61063  36.453  41.955   6.169
 4728POPC   C2B61064  36.713  42.008   6.533
 4728POPC   C3B61065  36.736  41.862   6.943
 4728POPC   C4B61066  36.630  42.043   7.322
 4729POPC   NC361067  33.478  15.271   5.254
 4729POPC   PO461068  33.956  14.867   5.397
 4729POPC   GL161069  33.791  14.989   5.762
 4729POPC   GL261070  33.723  15.312   5.755
 4729POPC   C1A61071  33.650  14.932   6.172
 4729POPC   D2A61072  33.461  14.985   6.561
 4729POPC   C3A61073  33.748  14.842   6.889
 4729POPC   C4A61074  33.941  14.961   7.257
 4729POPC   C1B61075  33.766  15.511   6.172
 4729POPC   C2B61076  33.580  15.509   6.561
 4729POPC   C3B61077  33.557  15.324   6.931
 4729POPC   C4B61078  33.714  15.411   7.287
 4730POPC   NC361079   3.156  19.906   5.420
 4730POPC   PO461080   2.500  19.892   5.288
 4730POPC   GL161081   2.682  19.860   5.702
 4730POPC   GL261082   2.416  19.770   5.880
 4730POPC   C1A61083   2.917  19.859   6.107
 4730POPC   D2A61084   3.152  19.653   6.459
 4730POPC   C3A61085   3.008  19.742   6.887
 4730POPC   C4A61086   2.696  19.545   7.074
 4730POPC   C1B61087   2.445  19.953   6.272
 4730POPC   C2B61088   2.561  19.897   6.682
 4730POPC   C3B61089   2.553  20.038   7.090
 4730POPC   C4B61090   2.459  19.823   7.452
 4731POPC   NC361091  41.138  15.742   5.445
 4731POPC   PO461092  41.632  16.164   5.388
 4731POPC   GL161093  41.483  16.002   5.783
 4731POPC   GL261094  41.459  15.628   5.866
 4731POPC   C1A61095  41.461  15.984   6.229
 4731POPC   D2A61096  41.516  16.179   6.595
 4731POPC   C3A61097  41.692  15.921   6.902
 4731POPC   C4A61098  41.760  15.793   7.296
 4731POPC   C1B61099  41.204  15.551   6.284
 4731POPC   C2B61100  41.274  15.645   6.740
 4731POPC   C3B61101  41.237  15.613   7.211
 4731POPC   C4B61102  41.284  15.668   7.695
 4732POPC   NC361103  14.932  38.492   5.450
 4732POPC   PO461104  15.537  38.383   5.754
 4732POPC   GL161105  15.197  38.539   5.945
 4732POPC   GL261106  15.007  38.257   5.894
 4732POPC   C1A61107  15.189  38.673   6.381
 4732POPC   D2A61108  15.154  38.723   6.799
 4732POPC   C3A61109  15.431  38.446   7.027
 4732POPC   C4A61110  15.404  38.584   7.432
 4732POPC   C1B61111  15.088  38.167   6.328
 4732POPC   C2B61112  15.043  38.218   6.763
 4732POPC   C3B61113  14.929  38.401   7.179
 4732POPC   C4B61114  15.070  38.276   7.639
 4733POPC   NC361115  37.682  41.378   5.264
 4733POPC   PO461116  37.542  40.795   5.406
 4733POPC   GL161117  37.750  41.129   5.760
 4733POPC   GL261118  37.786  41.534   5.732
 4733POPC   C1A61119  37.670  41.376   6.193
 4733POPC   D2A61120  37.548  41.601   6.574
 4733POPC   C3A61121  37.665  41.426   6.982
 4733POPC   C4A61122  37.421  41.328   7.330
 4733POPC   C1B61123  37.821  41.867   6.077
 4733POPC   C2B61124  37.879  42.005   6.519
 4733POPC   C3B61125  38.021  41.782   6.893
 4733POPC   C4B61126  38.098  41.948   7.306
 4734POPC   NC361127   4.647  25.442   5.381
 4734POPC   PO461128   4.155  24.903   5.458
 4734POPC   GL161129   4.298  25.217   5.710
 4734POPC   GL261130   4.553  25.044   5.829
 4734POPC   C1A61131   4.332  25.414   6.130
 4734POPC   D2A61132   4.080  25.460   6.503
 4734POPC   C3A61133   4.256  25.441   6.916
 4734POPC   C4A61134   4.112  25.503   7.334
 4734POPC   C1B61135   4.732  25.037   6.227
 4734POPC   C2B61136   4.906  24.973   6.630
 4734POPC   C3B61137   4.915  25.172   7.019
 4734POPC   C4B61138   4.601  25.291   7.296
 4735POPC   NC361139  35.794   2.749   5.217
 4735POPC   PO461140  35.160   2.744   5.225
 4735POPC   GL161141  35.213   2.631   5.725
 4735POPC   GL261142  35.529   2.438   5.843
 4735POPC   C1A61143  35.364   2.796   6.183
 4735POPC   D2A61144  35.177   2.867   6.580
 4735POPC   C3A61145  35.370   2.896   6.976
 4735POPC   C4A61146  35.139   2.890   7.399
 4735POPC   C1B61147  35.661   2.312   6.237
 4735POPC   C2B61148  35.450   2.394   6.615
 4735POPC   C3B61149  35.605   2.421   7.007
 4735POPC   C4B61150  35.592   2.659   7.363
 4736POPC   NC361151  23.002   7.699   5.245
 4736POPC   PO461152  23.101   7.023   5.191
 4736POPC   GL161153  23.022   7.228   5.600
 4736POPC   GL261154  22.646   7.236   5.678
 4736POPC   C1A61155  23.175   7.237   6.055
 4736POPC   D2A61156  23.020   7.275   6.504
 4736POPC   C3A61157  23.131   7.129   6.910
 4736POPC   C4A61158  22.853   7.251   7.256
 4736POPC   C1B61159  22.665   7.299   6.128
 4736POPC   C2B61160  22.624   7.614   6.468
 4736POPC   C3B61161  22.817   7.584   6.865
 4736POPC   C4B61162  22.772   7.746   7.260
 4737POPC   NC361163  42.477   7.876   5.463
 4737POPC   PO461164  42.292   8.506   5.313
 4737POPC   GL161165  42.402   8.373   5.718
 4737POPC   GL261166  42.115   8.130   5.758
 4737POPC   C1A61167  42.496   8.103   6.099
 4737POPC   D2A61168  42.226   8.148   6.420
 4737POPC   C3A61169  42.266   8.187   6.850
 4737POPC   C4A61170  42.427   8.177   7.266
 4737POPC   C1B61171  41.994   8.447   6.077
 4737POPC   C2B61172  41.770   8.486   6.481
 4737POPC   C3B61173  41.885   8.580   6.901
 4737POPC   C4B61174  41.989   8.419   7.276
 4738POPC   NC361175  43.068  40.207   5.391
 4738POPC   PO461176  43.313  39.584   5.459
 4738POPC   GL161177  43.242  39.872   5.837
 4738POPC   GL261178  42.941  40.033   5.877
 4738POPC   C1A61179  43.206  39.934   6.325
 4738POPC   D2A61180  43.456  40.042   6.723
 4738POPC   C3A61181  43.224  40.078   7.127
 4738POPC   C4A61182  42.823  39.918   7.221
 4738POPC   C1B61183  42.805  40.276   6.245
 4738POPC   C2B61184  42.928  40.249   6.704
 4738POPC   C3B61185  42.844  40.441   7.103
 4738POPC   C4B61186  42.903  40.312   7.547
 4739POPC   NC361187  26.440  31.154   5.510
 4739POPC   PO461188  25.833  31.546   5.311
 4739POPC   GL161189  26.040  31.410   5.665
 4739POPC   GL261190  26.135  31.704   5.776
 4739POPC   C1A61191  26.072  31.252   6.096
 4739POPC   D2A61192  26.143  31.455   6.491
 4739POPC   C3A61193  26.132  31.201   6.845
 4739POPC   C4A61194  25.935  31.322   7.220
 4739POPC   C1B61195  26.374  31.821   6.143
 4739POPC   C2B61196  26.576  31.708   6.545
 4739POPC   C3B61197  26.454  31.587   6.957
 4739POPC   C4B61198  26.356  31.920   7.224
 4740POPC   NC361199  37.965  44.720   5.555
 4740POPC   PO461200  37.376  44.991   5.554
 4740POPC   GL161201  37.520  44.717   5.868
 4740POPC   GL261202  37.611  44.381   5.775
 4740POPC   C1A61203  37.668  44.813   6.278
 4740POPC   D2A61204  37.817  44.983   6.658
 4740POPC   C3A61205  37.655  44.799   7.018
 4740POPC   C4A61206  37.481  44.988   7.354
 4740POPC   C1B61207  37.523  44.320   6.235
 4740POPC   C2B61208  37.709  44.432   6.641
 4740POPC   C3B61209  37.822  44.300   7.066
 4740POPC   C4B61210  37.801  44.391   7.508
 4741POPC   NC361211  26.251   5.857   5.342
 4741POPC   PO461212  25.732   6.281   5.407
 4741POPC   GL161213  25.991   6.082   5.744
 4741POPC   GL261214  26.357   6.125   5.793
 4741POPC   C1A61215  26.050   5.850   6.153
 4741POPC   D2A61216  26.218   5.672   6.563
 4741POPC   C3A61217  26.152   5.783   7.014
 4741POPC   C4A61218  25.875   5.613   7.354
 4741POPC   C1B61219  26.510   6.053   6.238
 4741POPC   C2B61220  26.593   6.021   6.705
 4741POPC   C3B61221  26.388   6.273   7.067
 4741POPC   C4B61222  26.115   6.102   7.424
 4742POPC   NC361223   2.370   7.460   5.478
 4742POPC   PO461224   3.002   7.158   5.430
 4742POPC   GL161225   2.815   7.284   5.858
 4742POPC   GL261226   2.646   7.614   5.875
 4742POPC   C1A61227   2.902   7.491   6.286
 4742POPC   D2A61228   2.672   7.612   6.652
 4742POPC   C3A61229   2.823   7.454   7.019
 4742POPC   C4A61230   3.184   7.701   7.120
 4742POPC   C1B61231   2.383   7.449   6.241
 4742POPC   C2B61232   2.394   7.184   6.635
 4742POPC   C3B61233   2.365   7.166   7.076
 4742POPC   C4B61234   2.319   7.497   7.401
 4743POPC   NC361235  11.377  15.516   5.222
 4743POPC   PO461236  11.073  14.925   5.406
 4743POPC   GL161237  11.152  15.209   5.747
 4743POPC   GL261238  11.082  15.573   5.638
 4743POPC   C1A61239  11.064  15.007   6.160
 4743POPC   D2A61240  11.213  15.018   6.558
 4743POPC   C3A61241  10.996  14.989   6.903
 4743POPC   C4A61242  11.189  15.101   7.249
 4743POPC   C1B61243  11.282  15.691   6.026
 4743POPC   C2B61244  11.275  15.516   6.429
 4743POPC   C3B61245  11.246  15.447   6.851
 4743POPC   C4B61246  11.407  15.573   7.243
 4744POPC   NC361247   4.872  33.927   5.240
 4744POPC   PO461248   5.314  33.502   5.382
 4744POPC   GL161249   5.231  33.842   5.728
 4744POPC   GL261250   4.912  34.070   5.743
 4744POPC   C1A61251   5.253  33.773   6.206
 4744POPC   D2A61252   5.401  33.626   6.636
 4744POPC   C3A61253   5.186  33.632   7.038
 4744POPC   C4A61254   4.807  33.480   7.203
 4744POPC   C1B61255   5.031  34.226   6.178
 4744POPC   C2B61256   5.025  34.034   6.629
 4744POPC   C3B61257   4.819  33.993   7.040
 4744POPC   C4B61258   4.974  34.089   7.422
 4745POPC   NC361259  18.441   5.248   5.479
 4745POPC   PO461260  18.499   4.695   5.796
 4745POPC   GL161261  18.161   4.964   5.950
 4745POPC   GL261262  18.226   5.313   5.933
 4745POPC   C1A61263  18.185   5.054   6.389
 4745POPC   D2A61264  18.530   4.827   6.623
 4745POPC   C3A61265  18.398   4.825   7.048
 4745POPC   C4A61266  17.978   5.002   7.097
 4745POPC   C1B61267  18.569   5.381   6.231
 4745POPC   C2B61268  18.593   5.326   6.689
 4745POPC   C3B61269  18.419   5.370   7.114
 4745POPC   C4B61270  18.401   5.685   7.493
 4746POPC   NC361271  37.950  13.223   5.527
 4746POPC   PO461272  37.493  12.586   5.523
 4746POPC   GL161273  37.582  12.695   5.947
 4746POPC   GL261274  37.784  12.962   5.920
 4746POPC   C1A61275  37.812  12.618   6.373
 4746POPC   D2A61276  37.937  12.757   6.849
 4746POPC   C3A61277  37.601  12.902   7.157
 4746POPC   C4A61278  37.453  13.118   7.556
 4746POPC   C1B61279  37.955  13.266   6.207
 4746POPC   C2B61280  37.892  13.240   6.649
 4746POPC   C3B61281  38.148  13.265   6.986
 4746POPC   C4B61282  38.058  13.194   7.385
 4747POPC   NC361283  43.135  44.681   4.943
 4747POPC   PO461284  43.176  44.949   5.559
 4747POPC   GL161285  43.325  44.760   5.897
 4747POPC   GL261286  43.018  44.586   5.972
 4747POPC   C1A61287  43.375  44.830   6.302
 4747POPC   D2A61288  43.310  44.609   6.651
 4747POPC   C3A61289  43.462  44.793   6.956
 4747POPC   C4A61290  43.129  44.841   7.209
 4747POPC   C1B61291  42.818  44.300   6.252
 4747POPC   C2B61292  42.993  44.168   6.634
 4747POPC   C3B61293  42.904  44.449   6.954
 4747POPC   C4B61294  42.971  44.405   7.402
 4748POPC   NC361295   2.257   8.178   5.426
 4748POPC   PO461296   2.962   8.131   5.417
 4748POPC   GL161297   2.874   8.072   5.854
 4748POPC   GL261298   2.564   8.202   5.828
 4748POPC   C1A61299   2.594   7.961   6.266
 4748POPC   D2A61300   2.382   8.038   6.683
 4748POPC   C3A61301   2.690   7.982   7.040
 4748POPC   C4A61302   2.969   8.172   7.348
 4748POPC   C1B61303   2.723   8.457   6.163
 4748POPC   C2B61304   2.559   8.504   6.563
 4748POPC   C3B61305   2.728   8.496   6.960
 4748POPC   C4B61306   2.578   8.475   7.363
 4749POPC   NC361307   7.574  27.948   5.324
 4749POPC   PO461308   6.907  27.666   5.328
 4749POPC   GL161309   7.113  27.829   5.727
 4749POPC   GL261310   7.020  28.202   5.768
 4749POPC   C1A61311   7.418  27.616   6.061
 4749POPC   D2A61312   7.623  27.475   6.492
 4749POPC   C3A61313   7.654  27.797   6.859
 4749POPC   C4A61314   7.564  27.632   7.258
 4749POPC   C1B61315   7.218  28.095   6.163
 4749POPC   C2B61316   7.263  27.837   6.507
 4749POPC   C3B61317   7.172  27.721   6.918
 4749POPC   C4B61318   7.156  27.962   7.295
 4750POPC   NC361319  14.308  35.171   5.145
 4750POPC   PO461320  14.364  35.657   5.550
 4750POPC   GL161321  14.340  35.305   5.827
 4750POPC   GL261322  14.628  35.097   5.820
 4750POPC   C1A61323  14.385  35.318   6.281
 4750POPC   D2A61324  14.258  35.513   6.676
 4750POPC   C3A61325  14.358  35.352   7.082
 4750POPC   C4A61326  13.977  35.369   7.335
 4750POPC   C1B61327  14.569  34.864   6.194
 4750POPC   C2B61328  14.324  34.901   6.582
 4750POPC   C3B61329  14.535  34.777   6.914
 4750POPC   C4B61330  14.675  34.959   7.241
 4751POPC   NC361331   3.798  40.222   5.743
 4751POPC   PO461332   3.483  40.744   5.448
 4751POPC   GL161333   3.460  40.582   5.864
 4751POPC   GL261334   3.792  40.670   5.991
 4751POPC   C1A61335   3.475  40.374   6.296
 4751POPC   D2A61336   3.390  40.260   6.723
 4751POPC   C3A61337   3.466  40.612   6.949
 4751POPC   C4A61338   3.193  40.924   7.143
 4751POPC   C1B61339   3.506  40.937   6.267
 4751POPC   C2B61340   3.461  41.097   6.708
 4751POPC   C3B61341   3.743  41.019   7.085
 4751POPC   C4B61342   3.909  40.612   7.266
 4752POPC   NC361343  12.047  42.491   5.422
 4752POPC   PO461344  12.554  42.862   5.541
 4752POPC   GL161345  12.184  42.833   5.817
 4752POPC   GL261346  12.245  43.211   5.849
 4752POPC   C1A61347  11.914  42.782   6.223
 4752POPC   D2A61348  12.024  42.986   6.653
 4752POPC   C3A61349  12.220  42.818   6.997
 4752POPC   C4A61350  12.203  42.850   7.407
 4752POPC   C1B61351  12.448  43.505   6.179
 4752POPC   C2B61352  12.375  43.642   6.593
 4752POPC   C3B61353  12.001  43.503   6.827
 4752POPC   C4B61354  11.916  43.259   7.221
 4753POPC   NC361355  11.761  10.265   5.493
 4753POPC   PO461356  11.462   9.632   5.250
 4753POPC   GL161357  11.309   9.607   5.673
 4753POPC   GL261358  11.041   9.324   5.720
 4753POPC   C1A61359  11.525   9.597   6.055
 4753POPC   D2A61360  11.481   9.444   6.486
 4753POPC   C3A61361  11.440   9.764   6.762
 4753POPC   C4A61362  11.473   9.686   7.165
 4753POPC   C1B61363  11.078   9.415   6.160
 4753POPC   C2B61364  10.940   9.418   6.602
 4753POPC   C3B61365  10.998   9.628   6.979
 4753POPC   C4B61366  10.817  10.041   7.029
 4754POPC   NC361367   9.510  27.137   5.442
 4754POPC   PO461368   9.728  27.812   5.519
 4754POPC   GL161369   9.562  27.542   5.815
 4754POPC   GL261370   9.856  27.352   5.837
 4754POPC   C1A61371   9.532  27.675   6.243
 4754POPC   D2A61372   9.638  27.525   6.642
 4754POPC   C3A61373   9.465  27.681   7.028
 4754POPC   C4A61374   9.705  27.901   7.343
 4754POPC   C1B61375   9.769  27.201   6.238
 4754POPC   C2B61376   9.930  27.097   6.618
 4754POPC   C3B61377   9.984  27.285   7.012
 4754POPC   C4B61378  10.105  27.120   7.406
 4755POPC   NC361379  20.477  18.009   4.972
 4755POPC   PO461380  20.668  18.042   5.596
 4755POPC   GL161381  20.609  18.253   5.917
 4755POPC   GL261382  20.308  18.129   5.937
 4755POPC   C1A61383  20.824  18.322   6.282
 4755POPC   D2A61384  20.785  18.500   6.667
 4755POPC   C3A61385  20.729  18.288   7.051
 4755POPC   C4A61386  20.329  18.289   7.264
 4755POPC   C1B61387  20.442  17.970   6.298
 4755POPC   C2B61388  20.390  18.152   6.667
 4755POPC   C3B61389  20.409  17.881   6.965
 4755POPC   C4B61390  20.538  17.814   7.366
 4756POPC   NC361391  20.874   6.953   5.614
 4756POPC   PO461392  20.770   6.307   5.485
 4756POPC   GL161393  20.635   6.519   5.847
 4756POPC   GL261394  20.373   6.793   5.797
 4756POPC   C1A61395  20.828   6.448   6.250
 4756POPC   D2A61396  20.769   6.277   6.641
 4756POPC   C3A61397  20.633   6.487   6.993
 4756POPC   C4A61398  20.831   6.591   7.390
 4756POPC   C1B61399  20.583   6.885   6.211
 4756POPC   C2B61400  20.797   6.823   6.614
 4756POPC   C3B61401  20.721   6.982   7.025
 4756POPC   C4B61402  20.426   6.865   7.331
 4757POPC   NC361403  40.247  39.637   5.111
 4757POPC   PO461404  39.810  40.042   5.404
 4757POPC   GL161405  39.984  39.929   5.797
 4757POPC   GL261406  40.133  39.667   5.644
 4757POPC   C1A61407  39.993  39.981   6.268
 4757POPC   D2A61408  40.011  40.027   6.723
 4757POPC   C3A61409  39.833  39.763   7.010
 4757POPC   C4A61410  39.751  39.892   7.415
 4757POPC   C1B61411  40.313  39.626   6.066
 4757POPC   C2B61412  40.448  39.726   6.487
 4757POPC   C3B61413  40.343  39.673   6.912
 4757POPC   C4B61414  40.223  39.792   7.318
 4758POPC   NC361415  23.617  14.354   5.195
 4758POPC   PO461416  23.635  13.905   5.632
 4758POPC   GL161417  23.779  14.261   5.860
 4758POPC   GL261418  23.600  14.536   5.807
 4758POPC   C1A61419  23.767  14.332   6.296
 4758POPC   D2A61420  23.731  14.097   6.693
 4758POPC   C3A61421  23.486  14.205   7.017
 4758POPC   C4A61422  23.811  14.458   7.163
 4758POPC   C1B61423  23.457  14.737   6.207
 4758POPC   C2B61424  23.462  14.577   6.650
 4758POPC   C3B61425  23.356  14.684   7.089
 4758POPC   C4B61426  23.323  14.584   7.551
 4759POPC   NC361427   3.175   8.536   5.545
 4759POPC   PO461428   2.882   9.117   5.273
 4759POPC   GL161429   2.753   9.012   5.709
 4759POPC   GL261430   2.566   8.702   5.694
 4759POPC   C1A61431   2.863   9.014   6.165
 4759POPC   D2A61432   2.721   8.985   6.605
 4759POPC   C3A61433   3.060   9.047   6.913
 4759POPC   C4A61434   3.120   8.720   7.239
 4759POPC   C1B61435   2.390   8.840   6.110
 4759POPC   C2B61436   2.175   8.877   6.480
 4759POPC   C3B61437   2.302   8.807   6.908
 4759POPC   C4B61438   2.631   8.977   7.161
 4760POPC   NC361439  44.261  11.612   5.562
 4760POPC   PO461440  44.934  11.371   5.571
 4760POPC   GL161441  44.652  11.407   5.914
 4760POPC   GL261442  44.605  11.046   6.006
 4760POPC   C1A61443  44.549  11.430   6.356
 4760POPC   D2A61444  44.353  11.329   6.743
 4760POPC   C3A61445  44.639  11.494   7.009
 4760POPC   C4A61446  44.751  11.415   7.435
 4760POPC   C1B61447  44.444  10.910   6.396
 4760POPC   C2B61448  44.408  10.823   6.823
 4760POPC   C3B61449  44.592  10.996   7.135
 4760POPC   C4B61450  44.534  10.955   7.547
 4761POPC   NC361451  17.177  37.992   5.352
 4761POPC   PO461452  17.476  37.369   5.345
 4761POPC   GL161453  17.447  37.637   5.662
 4761POPC   GL261454  17.772  37.621   5.686
 4761POPC   C1A61455  17.313  37.570   6.086
 4761POPC   D2A61456  17.024  37.656   6.390
 4761POPC   C3A61457  17.163  37.654   6.804
 4761POPC   C4A61458  17.177  37.738   7.218
 4761POPC   C1B61459  17.822  37.528   6.137
 4761POPC   C2B61460  17.611  37.663   6.519
 4761POPC   C3B61461  17.643  37.496   6.934
 4761POPC   C4B61462  17.607  37.474   7.368
 4762POPC   NC361463   4.508  38.119   4.990
 4762POPC   PO461464   4.262  37.580   5.292
 4762POPC   GL161465   4.321  37.560   5.710
 4762POPC   GL261466   3.970  37.534   5.793
 4762POPC   C1A61467   4.430  37.598   6.150
 4762POPC   D2A61468   4.400  37.847   6.544
 4762POPC   C3A61469   4.561  37.611   6.907
 4762POPC   C4A61470   4.434  37.454   7.317
 4762POPC   C1B61471   3.966  37.806   6.153
 4762POPC   C2B61472   3.903  37.695   6.583
 4762POPC   C3B61473   4.085  37.834   6.954
 4762POPC   C4B61474   3.973  37.749   7.343
 4763POPC   NC361475  38.312   7.031   5.410
 4763POPC   PO461476  38.529   6.416   5.488
 4763POPC   GL161477  38.371   6.721   5.828
 4763POPC   GL261478  38.096   6.986   5.882
 4763POPC   C1A61479  38.352   6.676   6.257
 4763POPC   D2A61480  38.536   6.434   6.559
 4763POPC   C3A61481  38.504   6.654   6.910
 4763POPC   C4A61482  38.572   6.783   7.310
 4763POPC   C1B61483  37.861   6.860   6.284
 4763POPC   C2B61484  38.037   6.718   6.695
 4763POPC   C3B61485  38.061   6.719   7.152
 4763POPC   C4B61486  37.988   6.958   7.537
 4764POPC   NC361487  22.645  24.185   5.464
 4764POPC   PO461488  23.123  24.686   5.443
 4764POPC   GL161489  22.915  24.583   5.823
 4764POPC   GL261490  22.909  24.235   5.928
 4764POPC   C1A61491  22.768  24.655   6.220
 4764POPC   D2A61492  22.787  24.514   6.614
 4764POPC   C3A61493  23.025  24.664   6.947
 4764POPC   C4A61494  22.742  24.461   7.166
 4764POPC   C1B61495  23.175  24.325   6.324
 4764POPC   C2B61496  23.156  24.192   6.771
 4764POPC   C3B61497  23.235  24.266   7.217
 4764POPC   C4B61498  23.324  24.122   7.682
 4765POPC   NC361499   4.814  41.220   5.511
 4765POPC   PO461500   4.686  41.825   5.547
 4765POPC   GL161501   5.084  41.609   5.763
 4765POPC   GL261502   4.997  41.318   5.984
 4765POPC   C1A61503   5.396  41.565   6.133
 4765POPC   D2A61504   5.222  41.321   6.509
 4765POPC   C3A61505   5.276  41.482   6.951
 4765POPC   C4A61506   5.276  41.596   7.403
 4765POPC   C1B61507   4.832  41.642   6.223
 4765POPC   C2B61508   4.827  41.798   6.632
 4765POPC   C3B61509   4.889  41.813   7.098
 4765POPC   C4B61510   4.805  41.770   7.564
 4766POPC   NC361511  32.012  38.638   5.446
 4766POPC   PO461512  32.388  38.121   5.171
 4766POPC   GL161513  32.322  38.280   5.616
 4766POPC   GL261514  32.525  38.580   5.775
 4766POPC   C1A61515  32.161  38.341   6.058
 4766POPC   D2A61516  32.341  38.454   6.478
 4766POPC   C3A61517  32.166  38.422   6.916
 4766POPC   C4A61518  32.137  38.123   7.264
 4766POPC   C1B61519  32.696  38.754   6.209
 4766POPC   C2B61520  32.672  38.800   6.681
 4766POPC   C3B61521  32.598  38.663   7.091
 4766POPC   C4B61522  32.256  38.643   7.405
 4767POPC   NC361523   9.449  40.477   5.287
 4767POPC   PO461524   9.875  40.037   5.550
 4767POPC   GL161525   9.762  39.774   5.900
 4767POPC   GL261526  10.023  39.549   5.924
 4767POPC   C1A61527   9.617  39.953   6.307
 4767POPC   D2A61528   9.872  40.267   6.526
 4767POPC   C3A61529   9.795  40.407   6.919
 4767POPC   C4A61530   9.588  40.152   7.128
 4767POPC   C1B61531   9.980  39.621   6.375
 4767POPC   C2B61532   9.863  39.776   6.793
 4767POPC   C3B61533   9.952  39.557   7.185
 4767POPC   C4B61534  10.042  39.415   7.612
 4768POPC   NC361535  32.956  29.392   5.383
 4768POPC   PO461536  33.343  28.878   5.476
 4768POPC   GL161537  33.081  29.080   5.815
 4768POPC   GL261538  32.870  29.360   5.870
 4768POPC   C1A61539  32.856  28.995   6.215
 4768POPC   D2A61540  32.713  28.782   6.586
 4768POPC   C3A61541  32.969  28.893   6.927
 4768POPC   C4A61542  33.051  29.005   7.335
 4768POPC   C1B61543  33.044  29.528   6.227
 4768POPC   C2B61544  33.000  29.654   6.643
 4768POPC   C3B61545  32.977  29.425   7.058
 4768POPC   C4B61546  32.660  29.374   7.421
 4769POPC   NC361547  15.177  34.945   5.211
 4769POPC   PO461548  15.639  34.506   5.435
 4769POPC   GL161549  15.430  34.791   5.713
 4769POPC   GL261550  15.430  34.498   5.962
 4769POPC   C1A61551  15.068  34.836   6.009
 4769POPC   D2A61552  15.172  34.631   6.404
 4769POPC   C3A61553  15.030  34.748   6.792
 4769POPC   C4A61554  15.272  34.823   7.175
 4769POPC   C1B61555  15.217  34.133   6.172
 4769POPC   C2B61556  15.002  34.183   6.584
 4769POPC   C3B61557  15.188  34.312   6.984
 4769POPC   C4B61558  14.891  34.502   7.228
 4770POPC   NC361559  39.769   8.370   5.479
 4770POPC   PO461560  40.258   7.938   5.570
 4770POPC   GL161561  40.118   8.224   5.899
 4770POPC   GL261562  39.754   8.225   5.965
 4770POPC   C1A61563  40.083   8.090   6.349
 4770POPC   D2A61564  39.839   8.224   6.706
 4770POPC   C3A61565  40.077   8.261   7.081
 4770POPC   C4A61566  39.968   8.297   7.548
 4770POPC   C1B61567  39.542   8.601   6.101
 4770POPC   C2B61568  39.520   8.776   6.505
 4770POPC   C3B61569  39.701   8.693   6.904
 4770POPC   C4B61570  39.690   8.729   7.350
 4771POPC   NC361571  13.252  44.566   5.435
 4771POPC   PO461572  12.640  44.605   5.401
 4771POPC   GL161573  12.863  44.404   5.789
 4771POPC   GL261574  13.222  44.299   5.883
 4771POPC   C1A61575  12.846  44.462   6.267
 4771POPC   D2A61576  12.673  44.578   6.713
 4771POPC   C3A61577  12.846  44.845   7.077
 4771POPC   C4A61578  12.915  44.709   7.518
 4771POPC   C1B61579  13.299  44.254   6.358
 4771POPC   C2B61580  13.197  44.548   6.687
 4771POPC   C3B61581  13.256  44.535   7.128
 4771POPC   C4B61582  13.143  44.240   7.447
 4772POPC   NC361583  22.767  29.889   5.357
 4772POPC   PO461584  23.266  30.327   5.450
 4772POPC   GL161585  23.195  30.098   5.827
 4772POPC   GL261586  23.010  29.810   5.791
 4772POPC   C1A61587  23.195  29.926   6.251
 4772POPC   D2A61588  23.106  30.061   6.666
 4772POPC   C3A61589  23.381  30.186   7.009
 4772POPC   C4A61590  23.047  30.122   7.293
 4772POPC   C1B61591  22.720  30.045   6.072
 4772POPC   C2B61592  22.642  29.900   6.498
 4772POPC   C3B61593  22.752  29.854   6.947
 4772POPC   C4B61594  22.484  29.934   7.247
 4773POPC   NC361595  44.557  11.100   5.501
 4773POPC   PO461596  44.752  10.513   5.294
 4773POPC   GL161597  44.867  10.644   5.725
 4773POPC   GL261598  44.542  10.578   5.798
 4773POPC   C1A61599  44.851  10.632   6.209
 4773POPC   D2A61600  44.967  10.404   6.585
 4773POPC   C3A61601  44.799  10.489   6.976
 4773POPC   C4A61602  44.950  10.686   7.309
 4773POPC   C1B61603  44.440  10.303   6.148
 4773POPC   C2B61604  44.451  10.392   6.569
 4773POPC   C3B61605  44.372  10.203   6.967
 4773POPC   C4B61606  44.584   9.939   7.251
 4774POPC   NC361607  14.553   2.603   5.355
 4774POPC   PO461608  14.166   3.149   5.252
 4774POPC   GL161609  14.180   2.875   5.613
 4774POPC   GL261610  14.494   2.953   5.770
 4774POPC   C1A61611  14.199   2.605   6.027
 4774POPC   D2A61612  14.437   2.413   6.419
 4774POPC   C3A61613  14.293   2.574   6.844
 4774POPC   C4A61614  14.244   2.878   7.193
 4774POPC   C1B61615  14.714   2.798   6.149
 4774POPC   C2B61616  14.723   2.838   6.605
 4774POPC   C3B61617  14.804   2.628   6.987
 4774POPC   C4B61618  14.729   2.696   7.415
 4775POPC   NC361619  34.502  37.861   5.436
 4775POPC   PO461620  34.348  37.198   5.339
 4775POPC   GL161621  34.488  37.405   5.709
 4775POPC   GL261622  34.824  37.489   5.660
 4775POPC   C1A61623  34.371  37.398   6.153
 4775POPC   D2A61624  34.252  37.625   6.519
 4775POPC   C3A61625  34.434  37.502   6.899
 4775POPC   C4A61626  34.342  37.806   7.196
 4775POPC   C1B61627  34.772  37.723   6.048
 4775POPC   C2B61628  34.860  37.650   6.494
 4775POPC   C3B61629  34.930  37.685   6.943
 4775POPC   C4B61630  34.840  37.782   7.403
 4776POPC   NC361631  37.652  41.973   5.415
 4776POPC   PO461632  37.448  42.599   5.534
 4776POPC   GL161633  37.517  42.304   5.864
 4776POPC   GL261634  37.861  42.314   5.822
 4776POPC   C1A61635  37.410  42.106   6.288
 4776POPC   D2A61636  37.364  42.078   6.750
 4776POPC   C3A61637  37.722  42.191   7.003
 4776POPC   C4A61638  37.804  42.325   7.436
 4776POPC   C1B61639  37.816  42.591   6.182
 4776POPC   C2B61640  37.627  42.486   6.568
 4776POPC   C3B61641  37.405  42.588   6.925
 4776POPC   C4B61642  37.348  42.502   7.320
 4777POPC   NC361643  33.239  20.229   5.353
 4777POPC   PO461644  33.042  19.599   5.365
 4777POPC   GL161645  33.165  19.825   5.703
 4777POPC   GL261646  32.893  20.101   5.741
 4777POPC   C1A61647  33.024  19.748   6.103
 4777POPC   D2A61648  32.880  19.944   6.425
 4777POPC   C3A61649  33.019  19.840   6.830
 4777POPC   C4A61650  33.061  19.572   7.174
 4777POPC   C1B61651  33.231  20.214   6.062
 4777POPC   C2B61652  33.367  20.100   6.482
 4777POPC   C3B61653  33.377  20.194   6.902
 4777POPC   C4B61654  33.215  20.030   7.283
 4778POPC   NC361655  33.925  12.433   5.462
 4778POPC   PO461656  33.535  11.929   5.395
 4778POPC   GL161657  33.859  11.876   5.728
 4778POPC   GL261658  33.897  12.176   5.899
 4778POPC   C1A61659  33.751  11.762   6.151
 4778POPC   D2A61660  33.570  11.931   6.520
 4778POPC   C3A61661  33.789  11.882   6.958
 4778POPC   C4A61662  33.728  11.978   7.405
 4778POPC   C1B61663  33.930  12.359   6.284
 4778POPC   C2B61664  33.661  12.437   6.605
 4778POPC   C3B61665  33.748  12.393   7.017
 4778POPC   C4B61666  33.544  12.438   7.347
 4779POPC   NC361667  38.625  44.295   5.448
 4779POPC   PO461668  38.401  44.978   5.519
 4779POPC   GL161669  38.627  44.737   5.801
 4779POPC   GL261670  38.338  44.509   5.836
 4779POPC   C1A61671  38.559  44.785   6.246
 4779POPC   D2A61672  38.156  44.616   6.415
 4779POPC   C3A61673  38.141  44.629   6.856
 4779POPC   C4A61674  38.361  44.885   7.157
 4779POPC   C1B61675  38.542  44.294   6.139
 4779POPC   C2B61676  38.573  44.345   6.559
 4779POPC   C3B61677  38.612  44.478   6.946
 4779POPC   C4B61678  38.566  44.266   7.327
 4780POPC   NC361679   8.552  40.137   5.248
 4780POPC   PO461680   8.078  39.815   5.109
 4780POPC   GL161681   8.264  40.091   5.646
 4780POPC   GL261682   8.560  40.336   5.709
 4780POPC   C1A61683   8.044  40.092   6.104
 4780POPC   D2A61684   8.131  39.722   6.385
 4780POPC   C3A61685   8.051  39.829   6.806
 4780POPC   C4A61686   8.107  39.840   7.228
 4780POPC   C1B61687   8.543  40.098   6.110
 4780POPC   C2B61688   8.384  40.180   6.555
 4780POPC   C3B61689   8.439  40.173   7.028
 4780POPC   C4B61690   8.256  40.335   7.448
 4781POPC   NC361691  44.064  10.772   5.262
 4781POPC   PO461692  44.195  11.202   5.760
 4781POPC   GL161693  44.069  10.775   5.795
 4781POPC   GL261694  44.067  10.421   5.705
 4781POPC   C1A61695  44.069  10.638   6.190
 4781POPC   D2A61696  43.961  10.744   6.578
 4781POPC   C3A61697  43.778  10.508   6.881
 4781POPC   C4A61698  43.884  10.288   7.239
 4781POPC   C1B61699  43.890  10.192   6.069
 4781POPC   C2B61700  43.993  10.198   6.478
 4781POPC   C3B61701  43.933   9.997   6.840
 4781POPC   C4B61702  44.079   9.802   7.250
 4782POPC   NC361703  27.160  44.567   5.273
 4782POPC   PO461704  26.438  44.465   5.318
 4782POPC   GL161705  26.761  44.668   5.571
 4782POPC   GL261706  26.856  44.360   5.667
 4782POPC   C1A61707  26.824  44.808   6.005
 4782POPC   D2A61708  26.520  44.858   6.346
 4782POPC   C3A61709  26.693  44.905   6.746
 4782POPC   C4A61710  26.679  44.908   7.188
 4782POPC   C1B61711  26.968  44.314   6.117
 4782POPC   C2B61712  26.928  44.479   6.541
 4782POPC   C3B61713  26.758  44.380   6.959
 4782POPC   C4B61714  26.872  44.463   7.393
 4783POPC   NC361715  23.030  17.159   5.407
 4783POPC   PO461716  22.750  16.524   5.507
 4783POPC   GL161717  22.901  16.849   5.800
 4783POPC   GL261718  22.562  16.986   5.830
 4783POPC   C1A61719  23.160  16.824   6.198
 4783POPC   D2A61720  23.067  16.568   6.577
 4783POPC   C3A61721  23.117  16.740   7.003
 4783POPC   C4A61722  23.104  16.887   7.444
 4783POPC   C1B61723  22.625  16.752   6.234
 4783POPC   C2B61724  22.494  16.644   6.665
 4783POPC   C3B61725  22.696  16.379   6.967
 4783POPC   C4B61726  22.943  16.395   7.353
 4784POPC   NC361727  16.306  39.342   5.441
 4784POPC   PO461728  17.005  39.498   5.386
 4784POPC   GL161729  16.865  39.387   5.795
 4784POPC   GL261730  16.523  39.331   5.898
 4784POPC   C1A61731  16.984  39.157   6.168
 4784POPC   D2A61732  16.834  38.964   6.525
 4784POPC   C3A61733  16.818  39.202   6.878
 4784POPC   C4A61734  16.909  39.424   7.214
 4784POPC   C1B61735  16.354  39.001   6.180
 4784POPC   C2B61736  16.339  38.794   6.572
 4784POPC   C3B61737  16.264  38.964   6.966
 4784POPC   C4B61738  16.488  39.123   7.290
 4785POPC   NC361739  40.188  34.508   5.399
 4785POPC   PO461740  39.930  33.960   5.649
 4785POPC   GL161741  39.984  34.394   5.864
 4785POPC   GL261742  39.985  34.762   5.847
 4785POPC   C1A61743  40.244  34.497   6.214
 4785POPC   D2A61744  40.343  34.226   6.548
 4785POPC   C3A61745  40.261  34.497   6.888
 4785POPC   C4A61746  40.099  34.385   7.278
 4785POPC   C1B61747  39.763  34.985   6.195
 4785POPC   C2B61748  39.694  34.929   6.680
 4785POPC   C3B61749  39.847  34.865   7.144
 4785POPC   C4B61750  39.794  34.654   7.573
 4786POPC   NC361751  10.277  30.020   5.328
 4786POPC   PO461752  10.618  29.510   5.474
 4786POPC   GL161753  10.406  29.798   5.792
 4786POPC   GL261754  10.216  30.170   5.796
 4786POPC   C1A61755  10.554  29.700   6.205
 4786POPC   D2A61756  10.835  29.591   6.529
 4786POPC   C3A61757  10.640  29.791   6.886
 4786POPC   C4A61758  10.811  29.896   7.279
 4786POPC   C1B61759  10.419  30.216   6.178
 4786POPC   C2B61760  10.301  30.002   6.547
 4786POPC   C3B61761  10.230  30.118   6.932
 4786POPC   C4B61762  10.458  30.249   7.282
 4787POPC   NC361763  28.655   4.723   5.541
 4787POPC   PO461764  29.348   4.512   5.309
 4787POPC   GL161765  29.265   4.357   5.735
 4787POPC   GL261766  29.105   4.655   5.786
 4787POPC   C1A61767  29.132   4.227   6.195
 4787POPC   D2A61768  29.313   4.172   6.632
 4787POPC   C3A61769  29.077   4.226   7.032
 4787POPC   C4A61770  29.154   4.155   7.493
 4787POPC   C1B61771  29.087   4.738   6.204
 4787POPC   C2B61772  28.977   4.588   6.618
 4787POPC   C3B61773  29.045   4.761   7.017
 4787POPC   C4B61774  28.888   4.555   7.394
 4788POPC   NC361775   2.182  13.415   5.395
 4788POPC   PO461776   1.728  13.904   5.479
 4788POPC   GL161777   1.885  13.669   5.811
 4788POPC   GL261778   1.781  13.343   5.703
 4788POPC   C1A61779   2.141  13.640   6.195
 4788POPC   D2A61780   2.267  13.579   6.595
 4788POPC   C3A61781   2.010  13.689   6.924
 4788POPC   C4A61782   1.949  13.544   7.340
 4788POPC   C1B61783   1.803  13.260   6.131
 4788POPC   C2B61784   1.777  13.418   6.547
 4788POPC   C3B61785   1.742  13.225   6.958
 4788POPC   C4B61786   1.552  13.232   7.367
 4789POPC   NC361787  37.490  38.301   5.221
 4789POPC   PO461788  38.026  38.666   5.456
 4789POPC   GL161789  37.647  38.615   5.673
 4789POPC   GL261790  37.617  38.290   5.775
 4789POPC   C1A61791  37.592  38.688   6.112
 4789POPC   D2A61792  37.480  38.409   6.477
 4789POPC   C3A61793  37.748  38.502   6.843
 4789POPC   C4A61794  37.638  38.688   7.242
 4789POPC   C1B61795  37.872  38.255   6.196
 4789POPC   C2B61796  37.862  38.028   6.626
 4789POPC   C3B61797  37.920  38.044   7.098
 4789POPC   C4B61798  38.070  38.059   7.544
 4790POPC   NC361799  19.291   3.616   5.474
 4790POPC   PO461800  18.791   3.179   5.496
 4790POPC   GL161801  18.994   3.430   5.855
 4790POPC   GL261802  18.909   3.782   5.834
 4790POPC   C1A61803  19.235   3.423   6.274
 4790POPC   D2A61804  19.606   3.364   6.556
 4790POPC   C3A61805  19.475   3.346   7.000
 4790POPC   C4A61806  19.191   3.468   7.326
 4790POPC   C1B61807  19.087   3.944   6.253
 4790POPC   C2B61808  19.057   3.834   6.717
 4790POPC   C3B61809  18.890   3.865   7.173
 4790POPC   C4B61810  19.134   3.918   7.568
 4791POPC   NC361811  33.753  24.775   5.517
 4791POPC   PO461812  33.997  25.356   5.462
 4791POPC   GL161813  34.052  25.386   5.900
 4791POPC   GL261814  33.712  25.297   5.944
 4791POPC   C1A61815  34.034  25.270   6.338
 4791POPC   D2A61816  33.831  25.159   6.721
 4791POPC   C3A61817  34.085  25.067   7.055
 4791POPC   C4A61818  34.273  25.273   7.344
 4791POPC   C1B61819  33.502  25.350   6.363
 4791POPC   C2B61820  33.355  25.347   6.820
 4791POPC   C3B61821  33.389  25.379   7.266
 4791POPC   C4B61822  33.619  25.645   7.539
 4792POPC   NC361823  17.200  42.806   5.618
 4792POPC   PO461824  17.593  43.335   5.458
 4792POPC   GL161825  17.807  43.329   5.826
 4792POPC   GL261826  17.838  42.990   5.905
 4792POPC   C1A61827  17.739  43.376   6.251
 4792POPC   D2A61828  17.811  43.090   6.597
 4792POPC   C3A61829  17.791  43.297   6.987
 4792POPC   C4A61830  17.597  43.345   7.369
 4792POPC   C1B61831  17.505  42.907   6.212
 4792POPC   C2B61832  17.390  42.803   6.640
 4792POPC   C3B61833  17.366  42.976   7.048
 4792POPC   C4B61834  17.144  42.987   7.415
 4793POPC   NC361835  30.238  18.665   5.615
 4793POPC   PO461836  29.654  18.754   5.357
 4793POPC   GL161837  29.714  18.929   5.765
 4793POPC   GL261838  29.888  18.726   5.982
 4793POPC   C1A61839  29.927  19.239   6.071
 4793POPC   D2A61840  29.753  19.560   6.367
 4793POPC   C3A61841  29.825  19.475   6.796
 4793POPC   C4A61842  29.635  19.283   7.172
 4793POPC   C1B61843  30.263  18.835   6.238
 4793POPC   C2B61844  30.119  19.100   6.566
 4793POPC   C3B61845  29.878  18.926   6.904
 4793POPC   C4B61846  30.039  18.785   7.312
 4794POPC   NC361847  24.955  21.358   5.543
 4794POPC   PO461848  25.428  21.696   5.465
 4794POPC   GL161849  25.420  21.321   5.765
 4794POPC   GL261850  25.232  20.978   5.729
 4794POPC   C1A61851  25.391  21.311   6.211
 4794POPC   D2A61852  25.468  21.144   6.612
 4794POPC   C3A61853  25.549  21.473   6.941
 4794POPC   C4A61854  25.186  21.560   7.234
 4794POPC   C1B61855  24.953  21.058   6.114
 4794POPC   C2B61856  24.944  21.347   6.467
 4794POPC   C3B61857  25.044  21.261   6.864
 4794POPC   C4B61858  24.932  21.083   7.235
 4795POPC   NC361859  33.963  43.245   5.361
 4795POPC   PO461860  33.368  42.903   5.399
 4795POPC   GL161861  33.638  43.057   5.777
 4795POPC   GL261862  33.897  42.805   5.858
 4795POPC   C1A61863  33.586  43.241   6.225
 4795POPC   D2A61864  33.870  43.421   6.576
 4795POPC   C3A61865  33.905  43.147   6.946
 4795POPC   C4A61866  33.529  43.083   7.186
 4795POPC   C1B61867  33.657  42.719   6.265
 4795POPC   C2B61868  33.572  42.813   6.734
 4795POPC   C3B61869  33.568  42.568   7.160
 4795POPC   C4B61870  33.524  42.647   7.626
 4796POPC   NC361871  21.317   0.184   5.686
 4796POPC   PO461872  20.999   0.596   5.333
 4796POPC   GL161873  21.058   0.567   5.848
 4796POPC   GL261874  21.396   0.660   6.029
 4796POPC   C1A61875  21.062   0.500   6.354
 4796POPC   D2A61876  21.390   0.512   6.710
 4796POPC   C3A61877  21.300   0.518   7.173
 4796POPC   C4A61878  21.617   0.735   7.428
 4796POPC   C1B61879  21.593   0.280   6.276
 4796POPC   C2B61880  21.682   0.078   6.689
 4796POPC   C3B61881  21.756   0.307   7.109
 4796POPC   C4B61882  21.746   0.229   7.560
 4797POPC   NC361883  34.220  44.064   5.404
 4797POPC   PO461884  33.583  43.864   5.223
 4797POPC   GL161885  33.813  43.782   5.654
 4797POPC   GL261886  34.030  44.011   5.859
 4797POPC   C1A61887  33.728  43.735   6.144
 4797POPC   D2A61888  33.546  43.831   6.574
 4797POPC   C3A61889  33.523  43.551   6.938
 4797POPC   C4A61890  33.811  43.536   7.268
 4797POPC   C1B61891  33.999  44.266   6.236
 4797POPC   C2B61892  33.885  44.205   6.664
 4797POPC   C3B61893  33.798  44.076   7.099
 4797POPC   C4B61894  33.997  44.323   7.480
 4798POPC   NC361895   8.874  35.104   5.370
 4798POPC   PO461896   9.178  35.634   5.266
 4798POPC   GL161897   9.222  35.352   5.650
 4798POPC   GL261898   8.895  35.237   5.864
 4798POPC   C1A61899   9.338  35.365   6.102
 4798POPC   D2A61900   9.250  35.195   6.520
 4798POPC   C3A61901   9.261  35.497   6.868
 4798POPC   C4A61902   9.288  35.495   7.309
 4798POPC   C1B61903   8.670  34.993   6.218
 4798POPC   C2B61904   8.595  35.047   6.698
 4798POPC   C3B61905   8.623  34.856   7.135
 4798POPC   C4B61906   8.752  34.864   7.616
 4799POPC   NC361907   7.230  23.148   5.437
 4799POPC   PO461908   7.747  22.735   5.358
 4799POPC   GL161909   7.646  22.908   5.762
 4799POPC   GL261910   7.736  23.261   5.766
 4799POPC   C1A61911   7.652  22.794   6.238
 4799POPC   D2A61912   7.713  22.829   6.708
 4799POPC   C3A61913   7.334  22.868   6.949
 4799POPC   C4A61914   7.226  22.608   7.264
 4799POPC   C1B61915   7.579  23.322   6.214
 4799POPC   C2B61916   7.523  23.317   6.701
 4799POPC   C3B61917   7.662  23.186   7.155
 4799POPC   C4B61918   7.654  23.294   7.600
 4800POPC   NC361919  38.297   5.713   5.404
 4800POPC   PO461920  38.886   5.897   5.191
 4800POPC   GL161921  38.784   5.917   5.677
 4800POPC   GL261922  38.485   5.759   5.869
 4800POPC   C1A61923  38.827   5.969   6.153
 4800POPC   D2A61924  38.488   5.928   6.493
 4800POPC   C3A61925  38.588   5.830   6.936
 4800POPC   C4A61926  38.502   5.550   7.311
 4800POPC   C1B61927  38.288   6.154   6.061
 4800POPC   C2B61928  38.035   6.286   6.418
 4800POPC   C3B61929  38.175   6.220   6.843
 4800POPC   C4B61930  38.420   6.227   7.216
 4801POPC   NC361931  12.329  11.879   5.492
 4801POPC   PO461932  11.661  12.099   5.436
 4801POPC   GL161933  11.916  12.012   5.836
 4801POPC   GL261934  12.142  12.308   5.822
 4801POPC   C1A61935  12.185  12.036   6.252
 4801POPC   D2A61936  12.359  12.173   6.679
 4801POPC   C3A61937  12.268  11.898   7.037
 4801POPC   C4A61938  11.846  11.792   7.185
 4801POPC   C1B61939  11.764  12.423   6.119
 4801POPC   C2B61940  11.496  12.507   6.495
 4801POPC   C3B61941  11.619  12.518   6.935
 4801POPC   C4B61942  11.956  12.292   7.099
 4802POPC   NC361943  15.720  38.736   5.508
 4802POPC   PO461944  16.126  38.170   5.380
 4802POPC   GL161945  16.051  38.415   5.775
 4802POPC   GL261946  16.220  38.696   5.788
 4802POPC   C1A61947  15.935  38.658   6.193
 4802POPC   D2A61948  15.675  38.548   6.524
 4802POPC   C3A61949  15.921  38.582   6.873
 4802POPC   C4A61950  15.723  38.865   7.118
 4802POPC   C1B61951  16.402  38.451   6.162
 4802POPC   C2B61952  16.295  38.291   6.602
 4802POPC   C3B61953  16.430  38.419   7.009
 4802POPC   C4B61954  16.269  38.623   7.338
 4803POPC   NC361955   9.248  11.657   5.266
 4803POPC   PO461956   8.672  11.261   5.260
 4803POPC   GL161957   8.939  11.299   5.673
 4803POPC   GL261958   9.347  11.341   5.666
 4803POPC   C1A61959   8.834  11.287   6.150
 4803POPC   D2A61960   8.672  11.579   6.501
 4803POPC   C3A61961   8.830  11.531   6.927
 4803POPC   C4A61962   8.954  11.579   7.351
 4803POPC   C1B61963   9.334  11.485   6.112
 4803POPC   C2B61964   9.185  11.405   6.548
 4803POPC   C3B61965   9.335  11.553   6.934
 4803POPC   C4B61966   9.442  11.451   7.326
 4804POPC   NC361967   2.612  14.754   5.689
 4804POPC   PO461968   2.325  15.339   5.369
 4804POPC   GL161969   2.566  15.270   5.791
 4804POPC   GL261970   2.909  15.148   5.810
 4804POPC   C1A61971   2.547  15.109   6.236
 4804POPC   D2A61972   2.462  14.979   6.661
 4804POPC   C3A61973   2.562  15.211   7.046
 4804POPC   C4A61974   2.645  15.196   7.510
 4804POPC   C1B61975   3.078  15.047   6.230
 4804POPC   C2B61976   2.961  14.907   6.654
 4804POPC   C3B61977   3.040  15.036   7.064
 4804POPC   C4B61978   2.968  15.457   7.239
 4805POPC   NC361979  28.700   0.988   5.361
 4805POPC   PO461980  28.112   1.151   5.520
 4805POPC   GL161981  28.342   1.254   5.809
 4805POPC   GL261982  28.184   1.559   5.860
 4805POPC   C1A61983  28.330   1.150   6.202
 4805POPC   D2A61984  28.593   1.270   6.464
 4805POPC   C3A61985  28.647   1.028   6.822
 4805POPC   C4A61986  28.537   1.038   7.258
 4805POPC   C1B61987  28.209   1.640   6.290
 4805POPC   C2B61988  28.093   1.389   6.620
 4805POPC   C3B61989  28.129   1.129   6.930
 4805POPC   C4B61990  28.080   1.252   7.337
 4806POPC   NC361991   4.210   7.364   5.437
 4806POPC   PO461992   4.497   7.909   5.425
 4806POPC   GL161993   4.431   7.686   5.793
 4806POPC   GL261994   4.077   7.647   5.826
 4806POPC   C1A61995   4.447   7.347   6.106
 4806POPC   D2A61996   4.357   7.388   6.549
 4806POPC   C3A61997   4.254   7.175   6.912
 4806POPC   C4A61998   4.421   7.256   7.330
 4806POPC   C1B61999   4.120   7.706   6.247
 4806POPC   C2B62000   3.960   7.727   6.657
 4806POPC   C3B62001   4.021   7.598   7.097
 4806POPC   C4B62002   4.017   7.481   7.528
 4807POPC   NC362003  21.865   6.788   5.447
 4807POPC   PO462004  21.273   7.195   5.539
 4807POPC   GL162005  21.355   7.010   5.924
 4807POPC   GL262006  21.540   6.705   5.840
 4807POPC   C1A62007  21.273   6.722   6.287
 4807POPC   D2A62008  21.294   6.330   6.550
 4807POPC   C3A62009  21.174   6.410   6.979
 4807POPC   C4A62010  21.197   6.824   7.131
 4807POPC   C1B62011  21.669   6.400   6.174
 4807POPC   C2B62012  21.847   6.280   6.578
 4807POPC   C3B62013  21.733   6.506   6.917
 4807POPC   C4B62014  21.606   6.592   7.304
 4808POPC   NC362015   0.784  19.290   5.373
 4808POPC   PO462016   0.334  18.820   5.393
 4808POPC   GL162017   0.384  18.999   5.805
 4808POPC   GL262018   0.719  19.153   5.864
 4808POPC   C1A62019   0.218  18.975   6.242
 4808POPC   D2A62020  44.979  19.034   6.632
 4808POPC   C3A62021   0.174  18.970   7.045
 4808POPC   C4A62022   0.016  18.959   7.509
 4808POPC   C1B62023   0.555  19.355   6.221
 4808POPC   C2B62024   0.587  19.177   6.600
 4808POPC   C3B62025   0.704  19.323   6.971
 4808POPC   C4B62026   0.541  19.171   7.335
 4809POPC   NC362027  44.083   7.988   5.501
 4809POPC   PO462028  43.349   8.072   5.653
 4809POPC   GL162029  43.672   8.237   5.933
 4809POPC   GL262030  44.048   8.307   5.912
 4809POPC   C1A62031  43.779   8.218   6.360
 4809POPC   D2A62032  44.002   8.382   6.687
 4809POPC   C3A62033  43.769   8.418   7.059
 4809POPC   C4A62034  43.747   7.982   7.225
 4809POPC   C1B62035  44.164   7.953   6.156
 4809POPC   C2B62036  44.339   7.978   6.535
 4809POPC   C3B62037  44.308   7.929   6.958
 4809POPC   C4B62038  44.203   8.243   7.229
 4810POPC   NC362039  20.285  15.091   5.582
 4810POPC   PO462040  20.589  15.132   4.934
 4810POPC   GL162041  20.772  15.156   5.481
 4810POPC   GL262042  20.777  14.853   5.720
 4810POPC   C1A62043  20.723  15.311   6.007
 4810POPC   D2A62044  20.868  15.230   6.476
 4810POPC   C3A62045  20.635  15.330   6.895
 4810POPC   C4A62046  20.856  15.361   7.307
 4810POPC   C1B62047  20.623  14.825   6.179
 4810POPC   C2B62048  20.467  14.915   6.590
 4810POPC   C3B62049  20.342  14.856   7.013
 4810POPC   C4B62050  20.610  14.888   7.349
 4811POPC   NC362051  18.479  12.729   5.047
 4811POPC   PO462052  18.608  12.876   5.672
 4811POPC   GL162053  18.401  12.937   6.036
 4811POPC   GL262054  18.247  12.664   6.052
 4811POPC   C1A62055  18.177  13.260   6.272
 4811POPC   D2A62056  18.009  13.392   6.690
 4811POPC   C3A62057  18.121  13.097   7.033
 4811POPC   C4A62058  18.234  13.028   7.499
 4811POPC   C1B62059  17.961  12.573   6.338
 4811POPC   C2B62060  18.066  12.663   6.739
 4811POPC   C3B62061  17.923  12.459   7.083
 4811POPC   C4B62062  17.537  12.438   7.255
 4812POPC   NC362063  21.842  27.718   5.445
 4812POPC   PO462064  21.222  27.324   5.387
 4812POPC   GL162065  21.455  27.445   5.722
 4812POPC   GL262066  21.332  27.786   5.786
 4812POPC   C1A62067  21.350  27.406   6.145
 4812POPC   D2A62068  21.312  27.628   6.504
 4812POPC   C3A62069  21.500  27.512   6.827
 4812POPC   C4A62070  21.426  27.472   7.248
 4812POPC   C1B62071  21.007  27.812   6.145
 4812POPC   C2B62072  21.018  28.023   6.595
 4812POPC   C3B62073  21.257  27.913   7.008
 4812POPC   C4B62074  21.651  27.942   7.261
 4813POPC   NC362075  15.391  37.171   5.295
 4813POPC   PO462076  15.028  37.764   5.325
 4813POPC   GL162077  15.262  37.831   5.748
 4813POPC   GL262078  15.038  37.750   6.036
 4813POPC   C1A62079  15.502  37.857   6.171
 4813POPC   D2A62080  15.288  37.729   6.554
 4813POPC   C3A62081  15.450  37.914   6.921
 4813POPC   C4A62082  15.203  37.995   7.233
 4813POPC   C1B62083  15.256  37.359   6.163
 4813POPC   C2B62084  15.166  37.188   6.566
 4813POPC   C3B62085  14.938  37.411   6.902
 4813POPC   C4B62086  14.990  37.552   7.350
 4814POPC   NC362087  21.194  21.969   5.383
 4814POPC   PO462088  21.753  22.245   5.391
 4814POPC   GL162089  21.611  22.348   5.810
 4814POPC   GL262090  21.435  22.021   5.857
 4814POPC   C1A62091  21.552  22.278   6.281
 4814POPC   D2A62092  21.684  21.959   6.565
 4814POPC   C3A62093  21.479  22.058   6.969
 4814POPC   C4A62094  21.584  22.437   7.128
 4814POPC   C1B62095  21.107  22.316   6.035
 4814POPC   C2B62096  20.966  22.448   6.464
 4814POPC   C3B62097  21.113  22.450   6.911
 4814POPC   C4B62098  21.165  22.301   7.354
 4815POPC   NC362099  22.456  20.960   5.319
 4815POPC   PO462100  22.388  20.331   5.485
 4815POPC   GL162101  22.275  20.430   5.896
 4815POPC   GL262102  21.951  20.326   5.828
 4815POPC   C1A62103  22.259  20.593   6.337
 4815POPC   D2A62104  22.179  20.964   6.632
 4815POPC   C3A62105  22.173  20.908   7.086
 4815POPC   C4A62106  22.452  20.840   7.408
 4815POPC   C1B62107  21.793  20.419   6.217
 4815POPC   C2B62108  21.767  20.639   6.596
 4815POPC   C3B62109  21.809  20.562   7.029
 4815POPC   C4B62110  21.875  20.644   7.456
 4816POPC   NC362111  34.649  27.959   5.393
 4816POPC   PO462112  34.862  28.568   5.257
 4816POPC   GL162113  34.540  28.465   5.590
 4816POPC   GL262114  34.708  28.223   5.800
 4816POPC   C1A62115  34.437  28.580   6.033
 4816POPC   D2A62116  34.635  28.621   6.425
 4816POPC   C3A62117  34.520  28.538   6.846
 4816POPC   C4A62118  34.346  28.345   7.208
 4816POPC   C1B62119  34.684  28.149   6.210
 4816POPC   C2B62120  34.736  28.133   6.624
 4816POPC   C3B62121  34.678  27.976   7.045
 4816POPC   C4B62122  34.646  27.955   7.496
 4817POPC   NC362123  42.164   7.172   5.410
 4817POPC   PO462124  42.682   7.495   5.625
 4817POPC   GL162125  42.338   7.349   5.912
 4817POPC   GL262126  42.119   7.061   5.947
 4817POPC   C1A62127  42.352   7.462   6.361
 4817POPC   D2A62128  42.523   7.786   6.648
 4817POPC   C3A62129  42.475   7.694   7.082
 4817POPC   C4A62130  42.331   7.340   7.350
 4817POPC   C1B62131  41.847   7.087   6.252
 4817POPC   C2B62132  41.873   7.397   6.512
 4817POPC   C3B62133  42.096   7.395   6.879
 4817POPC   C4B62134  41.843   7.093   7.097
 4818POPC   NC362135   2.992  25.086   5.367
 4818POPC   PO462136   2.329  25.222   5.478
 4818POPC   GL162137   2.623  25.096   5.803
 4818POPC   GL262138   2.873  25.375   5.808
 4818POPC   C1A62139   2.550  25.072   6.279
 4818POPC   D2A62140   2.363  25.271   6.657
 4818POPC   C3A62141   2.663  25.311   7.003
 4818POPC   C4A62142   2.765  25.355   7.432
 4818POPC   C1B62143   3.008  25.341   6.266
 4818POPC   C2B62144   3.084  25.368   6.731
 4818POPC   C3B62145   3.146  25.136   7.153
 4818POPC   C4B62146   3.216  25.312   7.649
 4819POPC   NC362147  42.053  27.766   5.066
 4819POPC   PO462148  41.426  27.752   5.402
 4819POPC   GL162149  41.610  27.664   5.824
 4819POPC   GL262150  41.402  27.382   5.873
 4819POPC   C1A62151  41.655  27.744   6.315
 4819POPC   D2A62152  41.437  27.739   6.742
 4819POPC   C3A62153  41.667  27.731   7.144
 4819POPC   C4A62154  42.005  27.729   7.474
 4819POPC   C1B62155  41.238  27.449   6.275
 4819POPC   C2B62156  41.323  27.216   6.633
 4819POPC   C3B62157  41.306  27.311   7.065
 4819POPC   C4B62158  41.167  27.629   7.340
 4820POPC   NC362159  12.794  37.157   5.440
 4820POPC   PO462160  13.085  36.579   5.291
 4820POPC   GL162161  13.102  36.818   5.685
 4820POPC   GL262162  12.856  36.631   5.871
 4820POPC   C1A62163  13.191  36.920   6.137
 4820POPC   D2A62164  13.007  37.133   6.506
 4820POPC   C3A62165  13.167  36.966   6.880
 4820POPC   C4A62166  13.042  37.043   7.296
 4820POPC   C1B62167  12.700  36.719   6.264
 4820POPC   C2B62168  12.882  36.617   6.649
 4820POPC   C3B62169  12.769  36.671   7.071
 4820POPC   C4B62170  12.585  36.851   7.432
 4821POPC   NC362171   0.082   6.581   5.448
 4821POPC   PO462172   0.675   6.738   5.480
 4821POPC   GL162173   0.417   6.570   5.850
 4821POPC   GL262174   0.141   6.296   5.885
 4821POPC   C1A62175   0.532   6.711   6.282
 4821POPC   D2A62176   0.720   6.841   6.673
 4821POPC   C3A62177   0.443   6.873   7.021
 4821POPC   C4A62178   0.609   6.536   7.182
 4821POPC   C1B62179   0.376   6.216   6.261
 4821POPC   C2B62180   0.437   6.367   6.683
 4821POPC   C3B62181   0.321   6.141   7.034
 4821POPC   C4B62182   0.141   6.359   7.300
 4822POPC   NC362183  22.839  11.499   5.436
 4822POPC   PO462184  22.823  12.139   5.263
 4822POPC   GL162185  22.833  12.003   5.706
 4822POPC   GL262186  22.507  11.886   5.857
 4822POPC   C1A62187  23.071  12.050   6.134
 4822POPC   D2A62188  23.154  12.071   6.598
 4822POPC   C3A62189  22.788  12.158   6.849
 4822POPC   C4A62190  22.739  12.375   7.239
 4822POPC   C1B62191  22.632  11.811   6.286
 4822POPC   C2B62192  22.988  11.613   6.482
 4822POPC   C3B62193  23.043  11.709   6.961
 4822POPC   C4B62194  22.657  11.839   7.226
 4823POPC   NC362195   6.360  34.352   5.280
 4823POPC   PO462196   5.716  34.262   5.353
 4823POPC   GL162197   5.834  34.554   5.725
 4823POPC   GL262198   6.169  34.729   5.752
 4823POPC   C1A62199   5.999  34.417   6.141
 4823POPC   D2A62200   6.028  34.225   6.549
 4823POPC   C3A62201   5.756  34.430   6.819
 4823POPC   C4A62202   5.701  34.439   7.236
 4823POPC   C1B62203   6.273  34.831   6.212
 4823POPC   C2B62204   6.104  34.789   6.663
 4823POPC   C3B62205   6.208  34.546   7.053
 4823POPC   C4B62206   6.116  34.535   7.508
 4824POPC   NC362207  20.713   2.513   5.448
 4824POPC   PO462208  20.325   3.006   5.287
 4824POPC   GL162209  20.572   3.008   5.703
 4824POPC   GL262210  20.909   3.103   5.733
 4824POPC   C1A62211  20.588   2.830   6.151
 4824POPC   D2A62212  20.417   2.652   6.560
 4824POPC   C3A62213  20.358   2.866   6.960
 4824POPC   C4A62214  20.426   2.734   7.400
 4824POPC   C1B62215  20.951   3.181   6.186
 4824POPC   C2B62216  20.808   3.031   6.600
 4824POPC   C3B62217  20.787   3.099   7.047
 4824POPC   C4B62218  20.926   2.949   7.439
 4825POPC   NC362219  13.492  31.100   5.457
 4825POPC   PO462220  13.566  30.455   5.529
 4825POPC   GL162221  13.827  30.777   5.703
 4825POPC   GL262222  13.547  30.865   5.898
 4825POPC   C1A62223  13.978  30.800   6.125
 4825POPC   D2A62224  13.999  30.544   6.499
 4825POPC   C3A62225  13.826  30.693   6.902
 4825POPC   C4A62226  13.706  30.479   7.273
 4825POPC   C1B62227  13.386  30.549   6.176
 4825POPC   C2B62228  13.500  30.401   6.580
 4825POPC   C3B62229  13.286  30.533   6.959
 4825POPC   C4B62230  13.125  30.448   7.380
 4826POPC   NC362231  36.927  39.126   5.177
 4826POPC   PO462232  36.333  39.498   5.535
 4826POPC   GL162233  36.665  39.351   5.812
 4826POPC   GL262234  36.948  39.524   5.662
 4826POPC   C1A62235  36.752  39.192   6.262
 4826POPC   D2A62236  36.506  39.142   6.681
 4826POPC   C3A62237  36.749  39.120   7.089
 4826POPC   C4A62238  36.775  38.941   7.518
 4826POPC   C1B62239  36.989  39.644   6.115
 4826POPC   C2B62240  37.234  39.524   6.488
 4826POPC   C3B62241  37.203  39.477   6.930
 4826POPC   C4B62242  36.895  39.605   7.204
 4827POPC   NC362243  14.714   5.821   5.611
 4827POPC   PO462244  14.179   5.504   5.606
 4827POPC   GL162245  14.234   5.870   5.837
 4827POPC   GL262246  14.090   5.662   6.058
 4827POPC   C1A62247  14.435   5.980   6.234
 4827POPC   D2A62248  14.363   6.137   6.604
 4827POPC   C3A62249  14.547   5.967   6.936
 4827POPC   C4A62250  14.414   5.995   7.306
 4827POPC   C1B62251  14.286   5.458   6.359
 4827POPC   C2B62252  14.275   5.580   6.753
 4827POPC   C3B62253  14.327   5.512   7.166
 4827POPC   C4B62254  14.043   5.695   7.469
 4828POPC   NC362255   2.668  27.398   5.388
 4828POPC   PO462256   3.224  27.788   5.482
 4828POPC   GL162257   2.980  27.588   5.824
 4828POPC   GL262258   2.885  27.202   5.816
 4828POPC   C1A62259   2.858  27.771   6.232
 4828POPC   D2A62260   2.656  27.639   6.607
 4828POPC   C3A62261   2.956  27.393   6.819
 4828POPC   C4A62262   3.155  27.519   7.172
 4828POPC   C1B62263   2.591  27.311   6.165
 4828POPC   C2B62264   2.413  27.169   6.570
 4828POPC   C3B62265   2.474  27.326   6.992
 4828POPC   C4B62266   2.460  27.725   7.215
 4829POPC   NC362267   3.717  44.226   5.291
 4829POPC   PO462268   3.475  44.918   5.258
 4829POPC   GL162269   3.520  44.636   5.608
 4829POPC   GL262270   3.870  44.701   5.709
 4829POPC   C1A62271   3.490  44.574   6.077
 4829POPC   D2A62272   3.383  44.438   6.520
 4829POPC   C3A62273   3.481  44.634   6.950
 4829POPC   C4A62274   3.399  44.420   7.381
 4829POPC   C1B62275   3.989  44.741   6.176
 4829POPC   C2B62276   3.918  44.581   6.617
 4829POPC   C3B62277   4.028  44.621   7.057
 4829POPC   C4B62278   3.924  44.423   7.424
 4830POPC   NC362279   1.871  42.359   5.646
 4830POPC   PO462280   1.265  42.544   5.393
 4830POPC   GL162281   1.358  42.352   5.794
 4830POPC   GL262282   1.104  42.128   5.879
 4830POPC   C1A62283   1.249  42.484   6.237
 4830POPC   D2A62284   1.402  42.565   6.661
 4830POPC   C3A62285   1.273  42.401   7.086
 4830POPC   C4A62286   1.025  42.426   7.482
 4830POPC   C1B62287   1.209  41.966   6.254
 4830POPC   C2B62288   1.238  42.077   6.665
 4830POPC   C3B62289   0.912  42.072   6.970
 4830POPC   C4B62290   0.929  41.932   7.414
 4831POPC   NC362291  15.933  30.980   5.458
 4831POPC   PO462292  15.817  30.363   5.654
 4831POPC   GL162293  16.069  30.658   5.846
 4831POPC   GL262294  15.961  30.974   5.957
 4831POPC   C1A62295  16.221  30.707   6.272
 4831POPC   D2A62296  16.149  31.030   6.596
 4831POPC   C3A62297  16.141  30.859   7.034
 4831POPC   C4A62298  16.228  30.418   7.203
 4831POPC   C1B62299  15.713  30.695   6.242
 4831POPC   C2B62300  15.802  30.658   6.691
 4831POPC   C3B62301  15.723  30.498   7.104
 4831POPC   C4B62302  15.733  30.066   7.251
 4832POPC   NC362303   7.652  37.055   5.401
 4832POPC   PO462304   7.222  36.468   5.293
 4832POPC   GL162305   7.308  36.694   5.690
 4832POPC   GL262306   7.604  36.596   5.890
 4832POPC   C1A62307   7.352  37.014   6.040
 4832POPC   D2A62308   7.442  36.984   6.516
 4832POPC   C3A62309   7.311  36.871   6.951
 4832POPC   C4A62310   7.624  36.846   7.256
 4832POPC   C1B62311   7.769  36.668   6.291
 4832POPC   C2B62312   7.716  36.571   6.757
 4832POPC   C3B62313   7.867  36.399   7.182
 4832POPC   C4B62314   7.822  36.557   7.629
 4833POPC   NC362315  26.423  10.839   5.516
 4833POPC   PO462316  27.034  10.908   5.313
 4833POPC   GL162317  26.932  10.595   5.692
 4833POPC   GL262318  26.583  10.439   5.793
 4833POPC   C1A62319  26.932  10.557   6.166
 4833POPC   D2A62320  26.933  10.258   6.526
 4833POPC   C3A62321  26.997  10.447   6.932
 4833POPC   C4A62322  26.927  10.465   7.354
 4833POPC   C1B62323  26.431  10.473   6.245
 4833POPC   C2B62324  26.578  10.628   6.643
 4833POPC   C3B62325  26.606  10.756   7.089
 4833POPC   C4B62326  26.535  10.750   7.565
 4834POPC   NC362327  36.561  26.478   5.415
 4834POPC   PO462328  36.857  27.117   5.318
 4834POPC   GL162329  36.659  26.939   5.680
 4834POPC   GL262330  36.909  26.706   5.783
 4834POPC   C1A62331  36.579  26.988   6.138
 4834POPC   D2A62332  36.660  27.193   6.550
 4834POPC   C3A62333  36.816  26.960   6.943
 4834POPC   C4A62334  36.764  26.931   7.402
 4834POPC   C1B62335  36.781  26.501   6.181
 4834POPC   C2B62336  36.789  26.257   6.600
 4834POPC   C3B62337  37.116  26.328   6.905
 4834POPC   C4B62338  37.130  26.614   7.239
 4835POPC   NC362339  43.518  14.251   5.413
 4835POPC   PO462340  42.891  14.531   5.372
 4835POPC   GL162341  43.032  14.491   5.792
 4835POPC   GL262342  43.200  14.157   5.830
 4835POPC   C1A62343  42.931  14.631   6.200
 4835POPC   D2A62344  42.865  14.408   6.570
 4835POPC   C3A62345  42.944  14.506   6.954
 4835POPC   C4A62346  43.124  14.814   7.165
 4835POPC   C1B62347  43.267  14.248   6.283
 4835POPC   C2B62348  43.300  14.211   6.743
 4835POPC   C3B62349  43.435  14.391   7.123
 4835POPC   C4B62350  43.655  14.736   7.276
 4836POPC   NC362351  24.058  19.038   5.535
 4836POPC   PO462352  24.643  19.308   5.107
 4836POPC   GL162353  24.565  19.201   5.568
 4836POPC   GL262354  24.788  19.392   5.786
 4836POPC   C1A62355  24.512  19.007   6.032
 4836POPC   D2A62356  24.257  19.151   6.432
 4836POPC   C3A62357  24.341  19.049   6.894
 4836POPC   C4A62358  24.364  18.680   7.188
 4836POPC   C1B62359  24.609  19.493   6.182
 4836POPC   C2B62360  24.782  19.318   6.542
 4836POPC   C3B62361  24.805  19.310   6.977
 4836POPC   C4B62362  24.604  19.161   7.347
 4837POPC   NC362363   5.840  27.851   5.449
 4837POPC   PO462364   5.573  27.148   5.562
 4837POPC   GL162365   5.886  27.387   5.835
 4837POPC   GL262366   5.764  27.658   5.898
 4837POPC   C1A62367   6.063  27.429   6.254
 4837POPC   D2A62368   6.220  27.586   6.635
 4837POPC   C3A62369   6.056  27.421   7.036
 4837POPC   C4A62370   5.935  27.586   7.463
 4837POPC   C1B62371   5.562  27.585   6.263
 4837POPC   C2B62372   5.701  27.633   6.657
 4837POPC   C3B62373   5.548  27.513   7.021
 4837POPC   C4B62374   5.437  27.666   7.372
 4838POPC   NC362375   1.266  22.018   5.390
 4838POPC   PO462376   1.738  22.475   5.356
 4838POPC   GL162377   1.504  22.326   5.733
 4838POPC   GL262378   1.118  22.350   5.737
 4838POPC   C1A62379   1.377  22.078   6.100
 4838POPC   D2A62380   1.189  22.139   6.509
 4838POPC   C3A62381   1.334  22.019   6.908
 4838POPC   C4A62382   1.301  22.313   7.248
 4838POPC   C1B62383   1.033  22.487   6.167
 4838POPC   C2B62384   0.915  22.591   6.578
 4838POPC   C3B62385   0.928  22.722   7.005
 4838POPC   C4B62386   0.874  22.577   7.415
 4839POPC   NC362387  31.443  22.086   5.204
 4839POPC   PO462388  31.766  22.677   5.406
 4839POPC   GL162389  31.440  22.352   5.659
 4839POPC   GL262390  31.353  21.945   5.719
 4839POPC   C1A62391  31.319  22.306   6.119
 4839POPC   D2A62392  31.383  22.544   6.517
 4839POPC   C3A62393  31.393  22.426   6.961
 4839POPC   C4A62394  31.747  22.296   7.258
 4839POPC   C1B62395  31.258  21.814   6.182
 4839POPC   C2B62396  31.348  22.020   6.594
 4839POPC   C3B62397  31.465  21.932   7.022
 4839POPC   C4B62398  31.246  21.811   7.355
 4840POPC   NC362399   9.731  16.112   5.288
 4840POPC   PO462400   9.677  16.781   5.321
 4840POPC   GL162401   9.823  16.740   5.796
 4840POPC   GL262402  10.128  16.520   5.893
 4840POPC   C1A62403   9.588  16.925   6.197
 4840POPC   D2A62404   9.514  17.175   6.591
 4840POPC   C3A62405   9.531  16.964   6.971
 4840POPC   C4A62406   9.660  16.555   7.075
 4840POPC   C1B62407  10.077  16.790   6.263
 4840POPC   C2B62408   9.907  16.817   6.664
 4840POPC   C3B62409  10.121  16.750   7.054
 4840POPC   C4B62410  10.245  16.380   7.221
 4841POPC   NC362411   6.178  29.642   5.431
 4841POPC   PO462412   5.705  30.044   5.135
 4841POPC   GL162413   5.781  29.954   5.588
 4841POPC   GL262414   5.683  30.236   5.785
 4841POPC   C1A62415   5.805  29.799   6.046
 4841POPC   D2A62416   5.517  29.685   6.422
 4841POPC   C3A62417   5.711  29.729   6.840
 4841POPC   C4A62418   5.979  29.904   7.163
 4841POPC   C1B62419   5.486  30.200   6.181
 4841POPC   C2B62420   5.583  30.420   6.567
 4841POPC   C3B62421   5.840  30.284   6.844
 4841POPC   C4B62422   5.553  30.211   7.159
 4842POPC   NC362423  23.266  10.700   5.022
 4842POPC   PO462424  22.648  10.591   5.425
 4842POPC   GL162425  22.775  10.446   5.812
 4842POPC   GL262426  23.110  10.417   5.719
 4842POPC   C1A62427  22.726  10.345   6.234
 4842POPC   D2A62428  23.020  10.423   6.575
 4842POPC   C3A62429  22.842  10.388   6.967
 4842POPC   C4A62430  22.893  10.550   7.387
 4842POPC   C1B62431  23.157  10.629   6.124
 4842POPC   C2B62432  23.337  10.834   6.492
 4842POPC   C3B62433  23.207  10.777   6.910
 4842POPC   C4B62434  23.376  10.729   7.291
 4843POPC   NC362435  19.485   6.762   5.371
 4843POPC   PO462436  18.800   6.612   5.417
 4843POPC   GL162437  18.947   6.712   5.825
 4843POPC   GL262438  19.286   6.823   5.821
 4843POPC   C1A62439  19.044   6.791   6.257
 4843POPC   D2A62440  19.222   6.662   6.624
 4843POPC   C3A62441  18.994   6.635   7.008
 4843POPC   C4A62442  18.970   6.501   7.432
 4843POPC   C1B62443  19.556   6.932   6.150
 4843POPC   C2B62444  19.528   7.090   6.564
 4843POPC   C3B62445  19.257   7.096   6.914
 4843POPC   C4B62446  19.305   6.892   7.311
 4844POPC   NC362447  28.876  37.102   5.539
 4844POPC   PO462448  29.529  37.084   5.534
 4844POPC   GL162449  29.439  37.027   5.935
 4844POPC   GL262450  29.408  36.692   5.975
 4844POPC   C1A62451  29.475  37.047   6.374
 4844POPC   D2A62452  29.122  37.194   6.611
 4844POPC   C3A62453  29.052  37.043   7.028
 4844POPC   C4A62454  28.996  36.747   7.326
 4844POPC   C1B62455  29.051  36.755   6.329
 4844POPC   C2B62456  29.066  36.584   6.784
 4844POPC   C3B62457  28.987  36.265   7.116
 4844POPC   C4B62458  29.100  36.133   7.555
 4845POPC   NC362459  34.479  21.489   5.320
 4845POPC   PO462460  34.960  21.873   5.726
 4845POPC   GL162461  34.744  21.547   5.972
 4845POPC   GL262462  34.548  21.321   5.812
 4845POPC   C1A62463  34.434  21.425   6.301
 4845POPC   D2A62464  34.372  21.662   6.654
 4845POPC   C3A62465  34.559  21.393   6.976
 4845POPC   C4A62466  34.439  21.378   7.424
 4845POPC   C1B62467  34.377  20.977   6.053
 4845POPC   C2B62468  34.428  20.870   6.467
 4845POPC   C3B62469  34.346  20.917   6.888
 4845POPC   C4B62470  34.636  20.916   7.217
 4846POPC   NC362471  22.305  41.956   5.315
 4846POPC   PO462472  22.061  41.469   5.229
 4846POPC   GL162473  22.103  41.481   5.720
 4846POPC   GL262474  22.405  41.675   5.844
 4846POPC   C1A62475  22.060  41.468   6.217
 4846POPC   D2A62476  22.200  41.530   6.688
 4846POPC   C3A62477  21.995  41.544   7.124
 4846POPC   C4A62478  21.781  41.276   7.452
 4846POPC   C1B62479  22.411  41.841   6.290
 4846POPC   C2B62480  22.132  42.041   6.631
 4846POPC   C3B62481  22.085  42.051   7.087
 4846POPC   C4B62482  22.314  41.853   7.449
 4847POPC   NC362483  31.556  38.014   5.445
 4847POPC   PO462484  31.560  38.720   5.460
 4847POPC   GL162485  31.493  38.424   5.770
 4847POPC   GL262486  31.272  38.132   5.840
 4847POPC   C1A62487  31.439  38.471   6.198
 4847POPC   D2A62488  31.337  38.370   6.607
 4847POPC   C3A62489  31.627  38.600   6.847
 4847POPC   C4A62490  31.696  38.368   7.194
 4847POPC   C1B62491  31.048  38.128   6.244
 4847POPC   C2B62492  30.939  37.860   6.594
 4847POPC   C3B62493  30.922  38.018   7.010
 4847POPC   C4B62494  31.168  38.389   7.158
 4848POPC   NC362495  18.375  17.677   5.432
 4848POPC   PO462496  18.502  17.090   5.728
 4848POPC   GL162497  18.369  17.455   5.901
 4848POPC   GL262498  18.662  17.694   5.887
 4848POPC   C1A62499  18.029  17.566   6.189
 4848POPC   D2A62500  17.882  17.605   6.602
 4848POPC   C3A62501  18.196  17.498   6.879
 4848POPC   C4A62502  18.059  17.521   7.242
 4848POPC   C1B62503  18.460  17.851   6.255
 4848POPC   C2B62504  18.312  17.960   6.642
 4848POPC   C3B62505  18.243  17.981   7.063
 4848POPC   C4B62506  18.500  17.808   7.346
 4849POPC   NC362507  15.373  24.613   5.131
 4849POPC   PO462508  16.005  24.707   5.465
 4849POPC   GL162509  15.981  24.756   5.886
 4849POPC   GL262510  15.827  24.463   5.965
 4849POPC   C1A62511  16.135  24.732   6.310
 4849POPC   D2A62512  16.160  24.566   6.760
 4849POPC   C3A62513  15.988  24.799   7.095
 4849POPC   C4A62514  15.923  25.035   7.485
 4849POPC   C1B62515  15.848  24.312   6.389
 4849POPC   C2B62516  15.836  24.114   6.781
 4849POPC   C3B62517  15.894  24.106   7.215
 4849POPC   C4B62518  15.993  24.026   7.647
 4850POPC   NC362519  13.491  34.839   5.384
 4850POPC   PO462520  14.046  34.445   5.470
 4850POPC   GL162521  13.763  34.610   5.756
 4850POPC   GL262522  13.554  34.302   5.828
 4850POPC   C1A62523  13.542  34.687   6.142
 4850POPC   D2A62524  13.386  34.841   6.512
 4850POPC   C3A62525  13.373  34.625   6.868
 4850POPC   C4A62526  13.671  34.636   7.161
 4850POPC   C1B62527  13.690  34.200   6.289
 4850POPC   C2B62528  13.660  34.196   6.790
 4850POPC   C3B62529  13.875  34.162   7.211
 4850POPC   C4B62530  14.100  34.110   7.615
 4851POPC   NC362531  31.230  40.516   5.373
 4851POPC   PO462532  31.592  40.973   5.120
 4851POPC   GL162533  31.412  40.963   5.620
 4851POPC   GL262534  31.297  40.641   5.854
 4851POPC   C1A62535  31.421  41.050   6.121
 4851POPC   D2A62536  31.379  40.874   6.563
 4851POPC   C3A62537  31.554  40.995   6.977
 4851POPC   C4A62538  31.362  40.968   7.384
 4851POPC   C1B62539  31.641  40.561   6.146
 4851POPC   C2B62540  31.817  40.600   6.559
 4851POPC   C3B62541  31.664  40.502   6.940
 4851POPC   C4B62542  31.289  40.537   7.139
 4852POPC   NC362543  29.396  20.701   5.414
 4852POPC   PO462544  30.073  20.529   5.227
 4852POPC   GL162545  30.170  20.386   5.664
 4852POPC   GL262546  29.882  20.527   5.793
 4852POPC   C1A62547  30.207  20.301   6.139
 4852POPC   D2A62548  30.114  20.592   6.482
 4852POPC   C3A62549  30.157  20.501   6.916
 4852POPC   C4A62550  30.121  20.858   7.205
 4852POPC   C1B62551  29.668  20.597   6.176
 4852POPC   C2B62552  29.589  20.472   6.594
 4852POPC   C3B62553  29.694  20.711   6.927
 4852POPC   C4B62554  29.756  20.535   7.329
 4853POPC   NC362555  12.272   3.845   5.434
 4853POPC   PO462556  11.990   3.287   5.519
 4853POPC   GL162557  11.863   3.609   5.730
 4853POPC   GL262558  12.152   3.643   5.878
 4853POPC   C1A62559  11.729   3.706   6.162
 4853POPC   D2A62560  11.740   3.484   6.575
 4853POPC   C3A62561  11.702   3.751   6.940
 4853POPC   C4A62562  11.863   3.815   7.331
 4853POPC   C1B62563  12.268   3.521   6.241
 4853POPC   C2B62564  12.484   3.684   6.547
 4853POPC   C3B62565  12.439   3.555   6.958
 4853POPC   C4B62566  12.069   3.394   7.107
 4854POPC   NC362567  10.065   5.152   5.199
 4854POPC   PO462568  10.770   5.161   5.401
 4854POPC   GL162569  10.487   5.020   5.722
 4854POPC   GL262570  10.230   4.831   5.794
 4854POPC   C1A62571  10.451   5.183   6.135
 4854POPC   D2A62572  10.752   5.373   6.384
 4854POPC   C3A62573  10.634   5.319   6.786
 4854POPC   C4A62574  10.789   5.264   7.168
 4854POPC   C1B62575  10.296   4.725   6.242
 4854POPC   C2B62576  10.314   4.911   6.657
 4854POPC   C3B62577  10.378   4.986   7.092
 4854POPC   C4B62578  10.539   5.018   7.542
 4855POPC   NC362579  32.671   6.097   4.870
 4855POPC   PO462580  32.632   5.932   5.531
 4855POPC   GL162581  32.823   5.774   5.919
 4855POPC   GL262582  32.902   5.401   5.900
 4855POPC   C1A62583  33.148   5.881   6.219
 4855POPC   D2A62584  33.324   6.038   6.610
 4855POPC   C3A62585  33.189   5.852   7.000
 4855POPC   C4A62586  33.109   5.844   7.451
 4855POPC   C1B62587  32.698   5.460   6.300
 4855POPC   C2B62588  32.717   5.663   6.716
 4855POPC   C3B62589  32.791   5.576   7.151
 4855POPC   C4B62590  32.775   5.419   7.581
 4856POPC   NC362591   6.172  10.743   5.053
 4856POPC   PO462592   5.827  10.259   5.218
 4856POPC   GL162593   5.906  10.375   5.663
 4856POPC   GL262594   5.691  10.679   5.725
 4856POPC   C1A62595   6.009  10.222   6.107
 4856POPC   D2A62596   6.238  10.095   6.505
 4856POPC   C3A62597   6.064  10.395   6.785
 4856POPC   C4A62598   5.845  10.547   7.159
 4856POPC   C1B62599   5.609  10.918   6.091
 4856POPC   C2B62600   5.895  10.864   6.440
 4856POPC   C3B62601   5.999  10.920   6.859
 4856POPC   C4B62602   5.718  11.053   7.203
 4857POPC   NC362603  28.713  30.697   5.111
 4857POPC   PO462604  28.247  30.233   5.195
 4857POPC   GL162605  28.423  30.555   5.539
 4857POPC   GL262606  28.160  30.569   5.796
 4857POPC   C1A62607  28.602  30.681   6.024
 4857POPC   D2A62608  28.661  30.663   6.519
 4857POPC   C3A62609  28.467  30.844   6.925
 4857POPC   C4A62610  28.469  31.216   7.241
 4857POPC   C1B62611  28.207  30.464   6.261
 4857POPC   C2B62612  28.143  30.468   6.717
 4857POPC   C3B62613  28.174  30.438   7.154
 4857POPC   C4B62614  28.194  30.809   7.378
 4858POPC   NC362615  25.155  28.681   5.400
 4858POPC   PO462616  25.659  28.212   5.453
 4858POPC   GL162617  25.263  28.244   5.682
 4858POPC   GL262618  25.270  28.547   5.873
 4858POPC   C1A62619  25.075  28.103   6.055
 4858POPC   D2A62620  25.199  28.237   6.460
 4858POPC   C3A62621  25.393  28.067   6.835
 4858POPC   C4A62622  25.218  28.230   7.191
 4858POPC   C1B62623  24.954  28.608   6.161
 4858POPC   C2B62624  24.806  28.538   6.572
 4858POPC   C3B62625  24.905  28.687   7.003
 4858POPC   C4B62626  25.060  28.648   7.434
 4859POPC   NC362627  16.867  23.069   5.558
 4859POPC   PO462628  17.431  22.820   5.556
 4859POPC   GL162629  17.369  23.006   5.980
 4859POPC   GL262630  17.005  22.985   6.036
 4859POPC   C1A62631  17.637  23.032   6.380
 4859POPC   D2A62632  17.878  22.805   6.724
 4859POPC   C3A62633  17.633  22.886   7.099
 4859POPC   C4A62634  17.338  22.931   7.444
 4859POPC   C1B62635  17.105  23.089   6.448
 4859POPC   C2B62636  17.199  23.088   6.873
 4859POPC   C3B62637  16.930  23.170   7.227
 4859POPC   C4B62638  16.885  23.079   7.700
 4860POPC   NC362639   5.102  39.316   5.415
 4860POPC   PO462640   4.826  39.861   5.410
 4860POPC   GL162641   4.902  39.569   5.791
 4860POPC   GL262642   5.286  39.679   5.753
 4860POPC   C1A62643   4.866  39.295   6.202
 4860POPC   D2A62644   5.196  39.050   6.469
 4860POPC   C3A62645   5.127  39.086   6.931
 4860POPC   C4A62646   4.837  39.335   7.197
 4860POPC   C1B62647   5.305  39.522   6.156
 4860POPC   C2B62648   5.174  39.553   6.617
 4860POPC   C3B62649   5.235  39.610   7.076
 4860POPC   C4B62650   5.383  39.548   7.502
 4861POPC   NC362651   8.109   8.662   5.353
 4861POPC   PO462652   7.787   8.153   5.619
 4861POPC   GL162653   8.125   8.129   5.865
 4861POPC   GL262654   8.233   8.440   5.782
 4861POPC   C1A62655   8.142   8.023   6.285
 4861POPC   D2A62656   8.021   7.737   6.608
 4861POPC   C3A62657   8.006   8.066   6.882
 4861POPC   C4A62658   8.060   8.162   7.291
 4861POPC   C1B62659   8.385   8.472   6.173
 4861POPC   C2B62660   8.568   8.452   6.563
 4861POPC   C3B62661   8.551   8.630   6.948
 4861POPC   C4B62662   8.434   8.504   7.322
 4862POPC   NC362663  13.961  16.986   5.436
 4862POPC   PO462664  13.476  16.776   5.046
 4862POPC   GL162665  13.488  16.894   5.576
 4862POPC   GL262666  13.723  16.655   5.746
 4862POPC   C1A62667  13.459  16.900   6.093
 4862POPC   D2A62668  13.514  17.042   6.542
 4862POPC   C3A62669  13.329  16.800   6.879
 4862POPC   C4A62670  13.458  16.781   7.292
 4862POPC   C1B62671  13.992  16.766   6.100
 4862POPC   C2B62672  14.023  16.906   6.522
 4862POPC   C3B62673  13.851  16.897   6.934
 4862POPC   C4B62674  13.987  16.818   7.370
 4863POPC   NC362675   9.305  24.221   5.440
 4863POPC   PO462676   8.655  24.460   5.447
 4863POPC   GL162677   8.823  24.478   5.840
 4863POPC   GL262678   9.135  24.565   5.790
 4863POPC   C1A62679   8.992  24.392   6.256
 4863POPC   D2A62680   8.894  24.580   6.634
 4863POPC   C3A62681   9.103  24.447   6.982
 4863POPC   C4A62682   8.889  24.506   7.377
 4863POPC   C1B62683   9.332  24.755   6.146
 4863POPC   C2B62684   9.404  24.639   6.571
 4863POPC   C3B62685   9.467  24.842   6.975
 4863POPC   C4B62686   9.377  24.653   7.356
 4864POPC   NC362687  39.596  13.117   5.310
 4864POPC   PO462688  40.010  12.539   5.458
 4864POPC   GL162689  39.865  12.872   5.714
 4864POPC   GL262690  39.716  12.618   5.865
 4864POPC   C1A62691  39.977  12.951   6.173
 4864POPC   D2A62692  40.226  13.038   6.539
 4864POPC   C3A62693  40.030  13.221   6.854
 4864POPC   C4A62694  39.813  12.968   7.114
 4864POPC   C1B62695  39.534  12.353   6.175
 4864POPC   C2B62696  39.545  12.209   6.594
 4864POPC   C3B62697  39.542  12.494   6.955
 4864POPC   C4B62698  39.804  12.488   7.311
 4865POPC   NC362699  41.142  41.705   4.910
 4865POPC   PO462700  41.627  41.378   5.281
 4865POPC   GL162701  41.501  41.583   5.674
 4865POPC   GL262702  41.793  41.676   5.870
 4865POPC   C1A62703  41.282  41.616   6.090
 4865POPC   D2A62704  41.286  41.366   6.459
 4865POPC   C3A62705  41.166  41.480   6.848
 4865POPC   C4A62706  41.369  41.479   7.226
 4865POPC   C1B62707  41.739  41.614   6.317
 4865POPC   C2B62708  41.687  41.650   6.725
 4865POPC   C3B62709  41.835  41.602   7.099
 4865POPC   C4B62710  41.667  41.847   7.429
 4866POPC   NC362711  32.813  35.023   5.629
 4866POPC   PO462712  33.038  35.636   5.510
 4866POPC   GL162713  33.142  35.357   5.829
 4866POPC   GL262714  33.396  35.119   5.734
 4866POPC   C1A62715  32.992  35.169   6.236
 4866POPC   D2A62716  33.061  35.377   6.597
 4866POPC   C3A62717  32.896  35.223   6.953
 4866POPC   C4A62718  32.881  35.530   7.242
 4866POPC   C1B62719  33.492  35.268   6.180
 4866POPC   C2B62720  33.540  35.205   6.634
 4866POPC   C3B62721  33.413  35.415   7.009
 4866POPC   C4B62722  33.332  35.267   7.415
 4867POPC   NC362723  27.303  36.625   5.469
 4867POPC   PO462724  27.484  37.258   5.347
 4867POPC   GL162725  27.653  37.118   5.721
 4867POPC   GL262726  27.357  36.993   5.845
 4867POPC   C1A62727  27.799  36.935   6.117
 4867POPC   D2A62728  27.554  36.990   6.485
 4867POPC   C3A62729  27.706  36.889   6.890
 4867POPC   C4A62730  27.366  36.887   7.159
 4867POPC   C1B62731  27.484  37.358   6.134
 4867POPC   C2B62732  27.437  37.514   6.540
 4867POPC   C3B62733  27.417  37.338   6.906
 4867POPC   C4B62734  27.688  37.305   7.213
 4868POPC   NC362735  32.459   4.722   5.506
 4868POPC   PO462736  31.895   5.156   5.423
 4868POPC   GL162737  32.116   5.238   5.806
 4868POPC   GL262738  32.454   5.180   5.795
 4868POPC   C1A62739  32.073   5.094   6.232
 4868POPC   D2A62740  31.900   4.984   6.612
 4868POPC   C3A62741  32.177   5.099   6.974
 4868POPC   C4A62742  32.528   5.151   7.221
 4868POPC   C1B62743  32.593   4.955   6.171
 4868POPC   C2B62744  32.378   4.814   6.546
 4868POPC   C3B62745  32.522   4.696   6.964
 4868POPC   C4B62746  32.798   4.728   7.350
 4869POPC   NC362747  23.860  18.605   5.205
 4869POPC   PO462748  23.695  19.303   5.426
 4869POPC   GL162749  23.526  19.110   5.799
 4869POPC   GL262750  23.523  18.755   5.910
 4869POPC   C1A62751  23.676  19.110   6.215
 4869POPC   D2A62752  23.623  18.910   6.565
 4869POPC   C3A62753  23.845  19.217   6.773
 4869POPC   C4A62754  23.612  19.214   7.112
 4869POPC   C1B62755  23.940  18.674   6.169
 4869POPC   C2B62756  24.076  18.690   6.619
 4869POPC   C3B62757  23.883  18.782   7.036
 4869POPC   C4B62758  23.605  18.832   7.420
 4870POPC   NC362759  22.085  35.595   5.631
 4870POPC   PO462760  22.367  35.177   5.125
 4870POPC   GL162761  22.332  35.142   5.606
 4870POPC   GL262762  22.065  35.054   5.827
 4870POPC   C1A62763  22.411  35.271   6.095
 4870POPC   D2A62764  22.582  35.346   6.506
 4870POPC   C3A62765  22.392  35.219   6.851
 4870POPC   C4A62766  22.122  35.176   7.192
 4870POPC   C1B62767  22.022  34.887   6.266
 4870POPC   C2B62768  21.995  34.913   6.728
 4870POPC   C3B62769  21.695  34.945   7.088
 4870POPC   C4B62770  21.821  34.878   7.513
 4871POPC   NC362771   6.023  37.935   5.450
 4871POPC   PO462772   5.440  37.611   5.439
 4871POPC   GL162773   5.759  37.577   5.758
 4871POPC   GL262774   5.880  37.241   5.839
 4871POPC   C1A62775   5.801  37.868   6.120
 4871POPC   D2A62776   5.943  37.978   6.535
 4871POPC   C3A62777   5.882  37.907   6.954
 4871POPC   C4A62778   6.233  37.856   7.220
 4871POPC   C1B62779   5.956  37.389   6.264
 4871POPC   C2B62780   6.091  37.476   6.711
 4871POPC   C3B62781   6.157  37.322   7.150
 4871POPC   C4B62782   5.828  37.276   7.477
 4872POPC   NC362783  33.438  30.927   5.368
 4872POPC   PO462784  34.123  31.009   5.427
 4872POPC   GL162785  33.935  30.647   5.674
 4872POPC   GL262786  33.648  30.486   5.528
 4872POPC   C1A62787  33.709  30.711   6.072
 4872POPC   D2A62788  33.520  30.859   6.471
 4872POPC   C3A62789  33.779  30.800   6.827
 4872POPC   C4A62790  33.797  30.590   7.209
 4872POPC   C1B62791  33.505  30.271   5.924
 4872POPC   C2B62792  33.600  30.314   6.396
 4872POPC   C3B62793  33.723  30.227   6.822
 4872POPC   C4B62794  33.721  30.065   7.223
 4873POPC   NC362795   3.986  22.888   5.385
 4873POPC   PO462796   4.452  23.289   5.611
 4873POPC   GL162797   4.137  23.134   5.837
 4873POPC   GL262798   3.880  23.376   5.860
 4873POPC   C1A62799   4.267  22.884   6.179
 4873POPC   D2A62800   4.497  22.687   6.516
 4873POPC   C3A62801   4.416  22.833   6.903
 4873POPC   C4A62802   4.515  22.932   7.300
 4873POPC   C1B62803   3.956  23.276   6.290
 4873POPC   C2B62804   3.983  22.941   6.596
 4873POPC   C3B62805   3.944  23.025   7.000
 4873POPC   C4B62806   3.994  23.046   7.440
 4874POPC   NC362807  34.734  43.215   5.524
 4874POPC   PO462808  34.217  42.834   5.349
 4874POPC   GL162809  34.313  43.082   5.762
 4874POPC   GL262810  34.105  43.388   5.841
 4874POPC   C1A62811  34.604  43.151   6.166
 4874POPC   D2A62812  34.921  43.244   6.506
 4874POPC   C3A62813  34.748  43.228   6.920
 4874POPC   C4A62814  34.507  42.883   7.116
 4874POPC   C1B62815  34.093  43.140   6.217
 4874POPC   C2B62816  34.327  43.184   6.619
 4874POPC   C3B62817  34.294  43.486   6.973
 4874POPC   C4B62818  34.257  43.313   7.371
 4875POPC   NC362819   5.859  43.209   5.280
 4875POPC   PO462820   6.201  42.790   5.551
 4875POPC   GL162821   5.919  43.095   5.780
 4875POPC   GL262822   6.004  43.480   5.732
 4875POPC   C1A62823   5.941  42.969   6.203
 4875POPC   D2A62824   6.204  42.932   6.561
 4875POPC   C3A62825   5.876  42.926   6.860
 4875POPC   C4A62826   5.848  42.802   7.252
 4875POPC   C1B62827   5.894  43.490   6.158
 4875POPC   C2B62828   5.841  43.342   6.556
 4875POPC   C3B62829   5.667  43.404   6.942
 4875POPC   C4B62830   5.893  43.597   7.250
 4876POPC   NC362831  30.670  12.825   5.364
 4876POPC   PO462832  31.038  12.317   5.459
 4876POPC   GL162833  30.820  12.586   5.840
 4876POPC   GL262834  30.472  12.698   5.826
 4876POPC   C1A62835  30.794  12.651   6.335
 4876POPC   D2A62836  30.814  12.593   6.816
 4876POPC   C3A62837  31.103  12.839   7.114
 4876POPC   C4A62838  31.257  13.047   7.538
 4876POPC   C1B62839  30.298  12.674   6.251
 4876POPC   C2B62840  30.433  12.891   6.634
 4876POPC   C3B62841  30.578  13.014   7.040
 4876POPC   C4B62842  30.344  12.952   7.469
 4877POPC   NC362843   7.911  29.406   5.482
 4877POPC   PO462844   8.334  28.847   5.431
 4877POPC   GL162845   8.135  29.036   5.780
 4877POPC   GL262846   8.301  29.379   5.825
 4877POPC   C1A62847   7.955  28.828   6.162
 4877POPC   D2A62848   7.797  28.676   6.574
 4877POPC   C3A62849   7.976  28.782   6.981
 4877POPC   C4A62850   7.961  29.187   7.142
 4877POPC   C1B62851   8.290  29.212   6.226
 4877POPC   C2B62852   8.157  29.089   6.606
 4877POPC   C3B62853   8.431  29.151   6.928
 4877POPC   C4B62854   8.510  29.406   7.305
 4878POPC   NC362855  20.175   6.899   5.304
 4878POPC   PO462856  19.777   6.398   5.411
 4878POPC   GL162857  19.772   6.579   5.807
 4878POPC   GL262858  19.792   6.231   5.911
 4878POPC   C1A62859  20.030   6.704   6.203
 4878POPC   D2A62860  20.318   6.603   6.582
 4878POPC   C3A62861  20.108   6.546   6.997
 4878POPC   C4A62862  19.772   6.844   7.111
 4878POPC   C1B62863  19.571   6.437   6.257
 4878POPC   C2B62864  19.712   6.589   6.650
 4878POPC   C3B62865  19.499   6.425   7.028
 4878POPC   C4B62866  19.792   6.247   7.306
 4879POPC   NC362867   2.132  22.233   5.429
 4879POPC   PO462868   2.243  21.639   5.572
 4879POPC   GL162869   2.182  21.920   5.878
 4879POPC   GL262870   2.426  22.131   5.900
 4879POPC   C1A62871   1.899  22.210   6.090
 4879POPC   D2A62872   1.696  22.155   6.488
 4879POPC   C3A62873   1.785  22.280   6.910
 4879POPC   C4A62874   1.727  22.015   7.237
 4879POPC   C1B62875   2.340  22.173   6.362
 4879POPC   C2B62876   2.237  22.004   6.773
 4879POPC   C3B62877   2.250  22.129   7.216
 4879POPC   C4B62878   2.195  22.234   7.634
 4880POPC   NC362879   5.591  22.503   5.435
 4880POPC   PO462880   6.036  22.941   5.522
 4880POPC   GL162881   5.818  22.817   5.867
 4880POPC   GL262882   5.490  22.913   5.796
 4880POPC   C1A62883   5.813  23.016   6.282
 4880POPC   D2A62884   5.917  22.885   6.713
 4880POPC   C3A62885   5.979  23.189   7.051
 4880POPC   C4A62886   5.922  23.212   7.474
 4880POPC   C1B62887   5.308  23.094   6.209
 4880POPC   C2B62888   5.484  23.186   6.644
 4880POPC   C3B62889   5.508  23.032   7.065
 4880POPC   C4B62890   5.459  23.025   7.540
 4881POPC   NC362891   3.916  30.508   5.581
 4881POPC   PO462892   4.400  30.928   5.423
 4881POPC   GL162893   4.285  30.781   5.814
 4881POPC   GL262894   4.509  30.496   5.875
 4881POPC   C1A62895   4.232  30.945   6.224
 4881POPC   D2A62896   4.554  30.904   6.560
 4881POPC   C3A62897   4.389  30.724   6.941
 4881POPC   C4A62898   4.138  30.947   7.220
 4881POPC   C1B62899   4.203  30.423   6.251
 4881POPC   C2B62900   4.180  30.314   6.721
 4881POPC   C3B62901   3.952  30.419   7.093
 4881POPC   C4B62902   3.963  30.261   7.537
 4882POPC   NC362903   0.771  14.388   5.386
 4882POPC   PO462904   0.104  14.541   5.443
 4882POPC   GL162905   0.155  14.516   5.861
 4882POPC   GL262906   0.396  14.230   5.863
 4882POPC   C1A62907   0.405  14.600   6.221
 4882POPC   D2A62908   0.747  14.593   6.487
 4882POPC   C3A62909   0.587  14.598   6.914
 4882POPC   C4A62910   0.195  14.522   7.179
 4882POPC   C1B62911   0.669  14.135   6.235
 4882POPC   C2B62912   0.670  14.101   6.675
 4882POPC   C3B62913   0.807  14.165   7.089
 4882POPC   C4B62914   0.652  13.992   7.452
 4883POPC   NC362915   1.791  27.862   5.258
 4883POPC   PO462916   1.900  28.486   5.300
 4883POPC   GL162917   1.830  28.527   5.718
 4883POPC   GL262918   1.610  28.819   5.747
 4883POPC   C1A62919   1.911  28.235   6.066
 4883POPC   D2A62920   2.180  28.163   6.440
 4883POPC   C3A62921   1.998  28.376   6.822
 4883POPC   C4A62922   2.093  28.293   7.253
 4883POPC   C1B62923   1.693  28.688   6.184
 4883POPC   C2B62924   1.576  28.593   6.605
 4883POPC   C3B62925   1.621  28.696   7.034
 4883POPC   C4B62926   1.687  28.548   7.473
 4884POPC   NC362927  42.738  20.096   5.395
 4884POPC   PO462928  43.191  19.549   5.363
 4884POPC   GL162929  43.229  19.722   5.789
 4884POPC   GL262930  42.919  19.872   5.809
 4884POPC   C1A62931  43.234  19.907   6.214
 4884POPC   D2A62932  43.145  19.640   6.570
 4884POPC   C3A62933  43.309  19.781   6.992
 4884POPC   C4A62934  43.478  20.125   7.226
 4884POPC   C1B62935  42.793  19.650   6.171
 4884POPC   C2B62936  42.633  19.777   6.575
 4884POPC   C3B62937  42.800  19.679   6.973
 4884POPC   C4B62938  42.755  19.314   7.228
 4885POPC   NC362939  44.445   4.062   5.431
 4885POPC   PO462940  44.917   4.572   5.337
 4885POPC   GL162941  44.639   4.452   5.700
 4885POPC   GL262942  44.462   4.757   5.781
 4885POPC   C1A62943  44.614   4.206   6.147
 4885POPC   D2A62944  44.801   4.139   6.581
 4885POPC   C3A62945  44.583   4.151   6.965
 4885POPC   C4A62946  44.215   3.996   7.091
 4885POPC   C1B62947  44.796   4.676   6.123
 4885POPC   C2B62948  44.879   4.794   6.546
 4885POPC   C3B62949  44.903   4.558   6.922
 4885POPC   C4B62950  44.655   4.564   7.305
 4886POPC   NC362951  25.268  35.371   5.343
 4886POPC   PO462952  24.976  34.802   5.556
 4886POPC   GL162953  25.275  35.135   5.810
 4886POPC   GL262954  25.128  35.493   5.804
 4886POPC   C1A62955  25.514  35.448   6.141
 4886POPC   D2A62956  25.405  35.566   6.576
 4886POPC   C3A62957  25.559  35.429   7.009
 4886POPC   C4A62958  25.483  35.688   7.329
 4886POPC   C1B62959  25.025  35.384   6.223
 4886POPC   C2B62960  24.889  35.573   6.584
 4886POPC   C3B62961  25.054  35.510   6.986
 4886POPC   C4B62962  25.063  35.192   7.268
 4887POPC   NC362963   2.643  30.467   5.320
 4887POPC   PO462964   2.996  31.022   5.346
 4887POPC   GL162965   2.941  30.683   5.677
 4887POPC   GL262966   2.640  30.704   5.764
 4887POPC   C1A62967   2.949  30.696   6.151
 4887POPC   D2A62968   2.875  30.851   6.540
 4887POPC   C3A62969   3.013  30.764   6.931
 4887POPC   C4A62970   2.755  30.734   7.279
 4887POPC   C1B62971   2.472  30.502   6.097
 4887POPC   C2B62972   2.652  30.288   6.440
 4887POPC   C3B62973   2.694  30.373   6.864
 4887POPC   C4B62974   2.999  30.285   7.192
 4888POPC   NC362975  25.105   1.036   5.486
 4888POPC   PO462976  25.172   0.323   5.376
 4888POPC   GL162977  25.266   0.446   5.810
 4888POPC   GL262978  25.584   0.243   5.818
 4888POPC   C1A62979  25.097   0.627   6.190
 4888POPC   D2A62980  24.968   0.374   6.531
 4888POPC   C3A62981  25.034   0.555   6.908
 4888POPC   C4A62982  25.325   0.644   7.220
 4888POPC   C1B62983  25.366   0.160   6.235
 4888POPC   C2B62984  25.383   0.073   6.680
 4888POPC   C3B62985  25.582   0.224   7.031
 4888POPC   C4B62986  25.792   0.427   7.338
 4889POPC   NC362987   7.947  34.066   5.599
 4889POPC   PO462988   8.303  34.548   5.187
 4889POPC   GL162989   8.240  34.523   5.661
 4889POPC   GL262990   8.449  34.238   5.778
 4889POPC   C1A62991   8.086  34.744   6.067
 4889POPC   D2A62992   7.998  34.626   6.521
 4889POPC   C3A62993   8.164  34.827   6.891
 4889POPC   C4A62994   8.166  34.797   7.348
 4889POPC   C1B62995   8.232  34.277   6.205
 4889POPC   C2B62996   8.340  34.212   6.634
 4889POPC   C3B62997   8.285  34.340   7.048
 4889POPC   C4B62998   8.091  34.152   7.383
 4890POPC   NC362999   5.249  25.661   5.604
 4890POPC   PO463000   4.934  25.061   5.459
 4890POPC   GL163001   5.089  25.165   5.855
 4890POPC   GL263002   4.867  25.438   5.877
 4890POPC   C1A63003   5.193  25.282   6.292
 4890POPC   D2A63004   5.492  25.402   6.578
 4890POPC   C3A63005   5.443  25.462   7.032
 4890POPC   C4A63006   5.279  25.194   7.380
 4890POPC   C1B63007   4.789  25.567   6.296
 4890POPC   C2B63008   4.674  25.440   6.634
 4890POPC   C3B63009   4.712  25.662   6.977
 4890POPC   C4B63010   5.015  25.637   7.257
 4891POPC   NC363011  32.509  37.721   5.408
 4891POPC   PO463012  31.865  37.762   5.199
 4891POPC   GL163013  32.004  37.853   5.671
 4891POPC   GL263014  32.339  37.847   5.886
 4891POPC   C1A63015  31.852  37.723   6.120
 4891POPC   D2A63016  31.818  37.482   6.543
 4891POPC   C3A63017  31.864  37.719   6.955
 4891POPC   C4A63018  32.071  37.618   7.347
 4891POPC   C1B63019  32.295  37.930   6.351
 4891POPC   C2B63020  32.340  37.907   6.819
 4891POPC   C3B63021  32.540  37.760   7.220
 4891POPC   C4B63022  32.596  37.844   7.695
 4892POPC   NC363023  15.925  31.654   5.396
 4892POPC   PO463024  15.463  31.236   5.415
 4892POPC   GL163025  15.733  31.395   5.792
 4892POPC   GL263026  15.990  31.693   5.895
 4892POPC   C1A63027  15.856  31.356   6.259
 4892POPC   D2A63028  15.786  31.400   6.662
 4892POPC   C3A63029  15.926  31.548   7.041
 4892POPC   C4A63030  15.933  31.254   7.371
 4892POPC   C1B63031  16.280  31.592   6.215
 4892POPC   C2B63032  16.284  31.516   6.639
 4892POPC   C3B63033  16.388  31.323   7.033
 4892POPC   C4B63034  16.436  31.409   7.478
 4893POPC   NC363035  31.051  39.791   5.485
 4893POPC   PO463036  31.640  40.055   5.512
 4893POPC   GL163037  31.393  39.967   5.845
 4893POPC   GL263038  31.454  39.630   5.828
 4893POPC   C1A63039  31.400  40.103   6.248
 4893POPC   D2A63040  31.338  40.360   6.576
 4893POPC   C3A63041  31.230  40.108   6.904
 4893POPC   C4A63042  31.157  40.081   7.367
 4893POPC   C1B63043  31.631  39.630   6.223
 4893POPC   C2B63044  31.445  39.696   6.584
 4893POPC   C3B63045  31.401  39.643   6.992
 4893POPC   C4B63046  31.604  39.906   7.256
 4894POPC   NC363047   4.752  13.720   5.277
 4894POPC   PO463048   5.260  13.336   5.459
 4894POPC   GL163049   5.008  13.424   5.828
 4894POPC   GL263050   4.936  13.785   5.865
 4894POPC   C1A63051   5.034  13.446   6.301
 4894POPC   D2A63052   5.175  13.208   6.667
 4894POPC   C3A63053   5.093  13.450   7.018
 4894POPC   C4A63054   5.019  13.588   7.440
 4894POPC   C1B63055   5.302  13.863   6.196
 4894POPC   C2B63056   5.450  13.783   6.657
 4894POPC   C3B63057   5.292  13.914   7.100
 4894POPC   C4B63058   4.839  13.998   7.118
 4895POPC   NC363059  40.387  30.488   5.335
 4895POPC   PO463060  40.127  30.911   5.785
 4895POPC   GL163061  39.804  30.922   6.039
 4895POPC   GL263062  39.726  30.577   5.933
 4895POPC   C1A63063  39.903  31.155   6.386
 4895POPC   D2A63064  40.244  30.994   6.617
 4895POPC   C3A63065  40.081  30.815   6.952
 4895POPC   C4A63066  40.202  30.785   7.368
 4895POPC   C1B63067  39.826  30.590   6.409
 4895POPC   C2B63068  39.918  30.355   6.780
 4895POPC   C3B63069  40.189  30.288   7.097
 4895POPC   C4B63070  39.891  30.217   7.351
 4896POPC   NC363071  40.961   9.850   5.320
 4896POPC   PO463072  40.385   9.534   5.401
 4896POPC   GL163073  40.590   9.782   5.719
 4896POPC   GL263074  40.954   9.764   5.815
 4896POPC   C1A63075  40.590   9.914   6.158
 4896POPC   D2A63076  40.802   9.977   6.550
 4896POPC   C3A63077  40.581   9.795   6.876
 4896POPC   C4A63078  40.588   9.925   7.278
 4896POPC   C1B63079  41.107   9.703   6.223
 4896POPC   C2B63080  41.301   9.846   6.591
 4896POPC   C3B63081  41.098   9.829   7.010
 4896POPC   C4B63082  41.140   9.531   7.354
 4897POPC   NC363083  36.766  10.240   5.366
 4897POPC   PO463084  37.167   9.598   5.410
 4897POPC   GL163085  37.062   9.821   5.769
 4897POPC   GL263086  36.897   9.491   5.859
 4897POPC   C1A63087  36.919   9.915   6.193
 4897POPC   D2A63088  36.956   9.629   6.558
 4897POPC   C3A63089  36.995   9.839   6.971
 4897POPC   C4A63090  37.285   9.800   7.316
 4897POPC   C1B63091  36.585   9.504   6.193
 4897POPC   C2B63092  36.493   9.389   6.594
 4897POPC   C3B63093  36.693   9.431   6.963
 4897POPC   C4B63094  36.523   9.588   7.317
 4898POPC   NC363095   1.756   0.586   5.472
 4898POPC   PO463096   1.871  44.956   5.708
 4898POPC   GL163097   1.908   0.364   5.896
 4898POPC   GL263098   2.250   0.482   5.854
 4898POPC   C1A63099   1.901   0.670   6.201
 4898POPC   D2A63100   1.798   0.489   6.609
 4898POPC   C3A63101   1.906   0.694   7.005
 4898POPC   C4A63102   1.726   1.026   7.239
 4898POPC   C1B63103   2.249   0.334   6.323
 4898POPC   C2B63104   2.251   0.327   6.793
 4898POPC   C3B63105   2.343   0.454   7.215
 4898POPC   C4B63106   2.428   0.311   7.664
 4899POPC   NC363107  42.247   6.361   5.495
 4899POPC   PO463108  42.419   6.841   5.169
 4899POPC   GL163109  42.498   6.849   5.667
 4899POPC   GL263110  42.647   6.554   5.755
 4899POPC   C1A63111  42.518   6.850   6.164
 4899POPC   D2A63112  42.318   6.997   6.579
 4899POPC   C3A63113  42.280   6.775   6.986
 4899POPC   C4A63114  41.927   6.607   7.237
 4899POPC   C1B63115  42.460   6.336   6.105
 4899POPC   C2B63116  42.465   6.385   6.536
 4899POPC   C3B63117  42.700   6.490   6.878
 4899POPC   C4B63118  42.617   6.473   7.287
 4900POPC   NC363119  32.317  30.156   5.471
 4900POPC   PO463120  32.255  30.809   5.423
 4900POPC   GL163121  32.043  30.749   5.798
 4900POPC   GL263122  32.346  30.634   5.904
 4900POPC   C1A63123  31.997  30.750   6.250
 4900POPC   D2A63124  32.290  30.813   6.553
 4900POPC   C3A63125  32.121  30.772   6.922
 4900POPC   C4A63126  31.868  30.758   7.228
 4900POPC   C1B63127  32.393  30.340   6.219
 4900POPC   C2B63128  32.592  30.387   6.610
 4900POPC   C3B63129  32.432  30.375   6.996
 4900POPC   C4B63130  32.595  30.200   7.402
 4901POPC   NC363131  14.649   1.700   5.432
 4901POPC   PO463132  14.219   2.269   5.407
 4901POPC   GL163133  14.203   1.984   5.816
 4901POPC   GL263134  14.539   1.830   5.900
 4901POPC   C1A63135  14.192   1.756   6.258
 4901POPC   D2A63136  14.328   1.632   6.694
 4901POPC   C3A63137  14.375   1.970   6.996
 4901POPC   C4A63138  14.463   2.304   7.259
 4901POPC   C1B63139  14.765   1.908   6.261
 4901POPC   C2B63140  14.870   1.724   6.639
 4901POPC   C3B63141  14.880   1.885   7.067
 4901POPC   C4B63142  14.606   1.864   7.478
 4902POPC   NC363143  33.587  18.407   5.279
 4902POPC   PO463144  34.000  17.967   5.337
 4902POPC   GL163145  33.729  18.116   5.715
 4902POPC   GL263146  33.624  18.467   5.766
 4902POPC   C1A63147  33.873  18.274   6.152
 4902POPC   D2A63148  33.878  18.153   6.576
 4902POPC   C3A63149  34.129  18.338   6.877
 4902POPC   C4A63150  33.955  18.307   7.257
 4902POPC   C1B63151  33.489  18.608   6.135
 4902POPC   C2B63152  33.610  18.600   6.533
 4902POPC   C3B63153  33.585  18.456   6.921
 4902POPC   C4B63154  33.351  18.438   7.268
 4903POPC   NC363155  12.493  18.551   5.569
 4903POPC   PO463156  12.047  19.007   5.335
 4903POPC   GL163157  12.027  19.174   5.742
 4903POPC   GL263158  12.239  18.898   5.868
 4903POPC   C1A63159  11.868  19.121   6.174
 4903POPC   D2A63160  12.091  19.002   6.550
 4903POPC   C3A63161  12.087  19.286   6.889
 4903POPC   C4A63162  11.884  19.091   7.224
 4903POPC   C1B63163  12.489  18.655   6.198
 4903POPC   C2B63164  12.408  18.608   6.618
 4903POPC   C3B63165  12.391  18.828   6.993
 4903POPC   C4B63166  12.235  18.699   7.358
 4904POPC   NC363167  37.794  30.378   5.437
 4904POPC   PO463168  37.413  30.906   5.412
 4904POPC   GL163169  37.759  30.825   5.689
 4904POPC   GL263170  37.521  30.713   5.898
 4904POPC   C1A63171  37.952  30.880   6.111
 4904POPC   D2A63172  37.770  31.083   6.490
 4904POPC   C3A63173  37.961  30.893   6.861
 4904POPC   C4A63174  37.850  30.562   7.177
 4904POPC   C1B63175  37.285  30.619   6.247
 4904POPC   C2B63176  37.276  30.828   6.578
 4904POPC   C3B63177  37.472  30.818   6.922
 4904POPC   C4B63178  37.371  30.752   7.305
 4905POPC   NC363179  19.534   0.243   5.580
 4905POPC   PO463180  20.001   0.589   5.291
 4905POPC   GL163181  20.025   0.405   5.743
 4905POPC   GL263182  19.724   0.464   5.960
 4905POPC   C1A63183  20.128   0.493   6.224
 4905POPC   D2A63184  20.124   0.308   6.635
 4905POPC   C3A63185  19.750   0.331   6.866
 4905POPC   C4A63186  19.988   0.487   7.178
 4905POPC   C1B63187  19.670   0.793   6.201
 4905POPC   C2B63188  19.611   0.811   6.606
 4905POPC   C3B63189  19.632   0.813   7.008
 4905POPC   C4B63190  19.474   0.532   7.304
 4906POPC   NC363191  31.826  44.055   5.046
 4906POPC   PO463192  31.236  43.736   5.229
 4906POPC   GL163193  31.347  43.709   5.713
 4906POPC   GL263194  31.230  44.038   5.893
 4906POPC   C1A63195  31.643  43.768   6.090
 4906POPC   D2A63196  31.904  43.815   6.494
 4906POPC   C3A63197  31.626  43.826   6.887
 4906POPC   C4A63198  31.503  43.798   7.333
 4906POPC   C1B63199  31.047  44.056   6.325
 4906POPC   C2B63200  31.147  43.827   6.712
 4906POPC   C3B63201  31.097  44.021   7.110
 4906POPC   C4B63202  31.274  44.231   7.478
 4907POPC   NC363203  14.756  43.078   5.430
 4907POPC   PO463204  14.167  43.346   5.345
 4907POPC   GL163205  14.364  43.393   5.746
 4907POPC   GL263206  14.627  43.167   5.915
 4907POPC   C1A63207  14.318  43.444   6.200
 4907POPC   D2A63208  14.585  43.251   6.520
 4907POPC   C3A63209  14.415  43.217   6.932
 4907POPC   C4A63210  14.551  43.302   7.340
 4907POPC   C1B63211  14.570  42.815   6.227
 4907POPC   C2B63212  14.804  42.689   6.587
 4907POPC   C3B63213  14.541  42.700   6.929
 4907POPC   C4B63214  14.397  42.834   7.312
 4908POPC   NC363215   9.014  31.622   5.330
 4908POPC   PO463216   9.041  32.254   5.425
 4908POPC   GL163217   9.027  31.949   5.771
 4908POPC   GL263218   8.846  31.611   5.798
 4908POPC   C1A63219   8.901  31.873   6.222
 4908POPC   D2A63220   8.754  31.975   6.613
 4908POPC   C3A63221   8.743  31.658   6.912
 4908POPC   C4A63222   8.945  31.778   7.277
 4908POPC   C1B63223   9.196  31.471   6.072
 4908POPC   C2B63224   9.200  31.254   6.487
 4908POPC   C3B63225   9.255  31.380   6.942
 4908POPC   C4B63226   9.222  31.115   7.314
 4909POPC   NC363227  11.184  16.492   5.318
 4909POPC   PO463228  11.043  15.854   5.183
 4909POPC   GL163229  11.004  16.076   5.583
 4909POPC   GL263230  11.357  16.119   5.664
 4909POPC   C1A63231  10.964  16.080   6.040
 4909POPC   D2A63232  10.881  15.854   6.427
 4909POPC   C3A63233  11.055  15.907   6.838
 4909POPC   C4A63234  10.991  15.903   7.257
 4909POPC   C1B63235  11.460  16.237   6.076
 4909POPC   C2B63236  11.392  16.030   6.466
 4909POPC   C3B63237  11.579  15.925   6.887
 4909POPC   C4B63238  11.501  16.128   7.290
 4910POPC   NC363239  29.494  30.747   5.081
 4910POPC   PO463240  28.969  30.614   5.483
 4910POPC   GL163241  29.174  30.572   5.864
 4910POPC   GL263242  29.308  30.908   5.958
 4910POPC   C1A63243  29.127  30.529   6.288
 4910POPC   D2A63244  29.022  30.296   6.606
 4910POPC   C3A63245  29.060  30.566   6.917
 4910POPC   C4A63246  29.087  30.346   7.262
 4910POPC   C1B63247  28.952  31.009   6.240
 4910POPC   C2B63248  28.837  31.128   6.683
 4910POPC   C3B63249  28.943  31.050   7.122
 4910POPC   C4B63250  28.856  31.099   7.577
 4911POPC   NC363251  18.700  37.040   5.430
 4911POPC   PO463252  18.420  36.463   5.296
 4911POPC   GL163253  18.464  36.663   5.705
 4911POPC   GL263254  18.108  36.796   5.799
 4911POPC   C1A63255  18.446  36.693   6.154
 4911POPC   D2A63256  18.196  36.666   6.543
 4911POPC   C3A63257  18.451  36.761   6.899
 4911POPC   C4A63258  18.335  36.818   7.304
 4911POPC   C1B63259  18.147  37.111   6.167
 4911POPC   C2B63260  18.019  37.287   6.575
 4911POPC   C3B63261  18.120  37.238   7.012
 4911POPC   C4B63262  18.025  37.184   7.443
 4912POPC   NC363263  12.113   4.660   5.439
 4912POPC   PO463264  11.845   4.042   5.400
 4912POPC   GL163265  12.005   4.125   5.791
 4912POPC   GL263266  12.335   4.299   5.759
 4912POPC   C1A63267  12.223   4.044   6.197
 4912POPC   D2A63268  12.021   3.909   6.563
 4912POPC   C3A63269  12.187   3.991   6.952
 4912POPC   C4A63270  12.106   4.253   7.274
 4912POPC   C1B63271  12.042   4.525   6.082
 4912POPC   C2B63272  11.842   4.685   6.461
 4912POPC   C3B63273  11.841   4.693   6.921
 4912POPC   C4B63274  11.816   4.667   7.362
 4913POPC   NC363275  23.257  11.974   5.161
 4913POPC   PO463276  23.837  12.188   5.323
 4913POPC   GL163277  23.761  11.918   5.648
 4913POPC   GL263278  23.413  11.807   5.656
 4913POPC   C1A63279  23.785  12.016   6.072
 4913POPC   D2A63280  23.578  12.280   6.410
 4913POPC   C3A63281  23.611  12.145   6.857
 4913POPC   C4A63282  23.564  12.211   7.294
 4913POPC   C1B63283  23.422  11.662   6.095
 4913POPC   C2B63284  23.602  11.754   6.496
 4913POPC   C3B63285  23.682  11.642   6.929
 4913POPC   C4B63286  23.462  11.688   7.290
 4914POPC   NC363287   3.947  33.890   5.466
 4914POPC   PO463288   3.795  33.279   5.428
 4914POPC   GL163289   3.747  33.551   5.797
 4914POPC   GL263290   3.568  33.881   5.818
 4914POPC   C1A63291   3.696  33.551   6.250
 4914POPC   D2A63292   3.708  33.891   6.569
 4914POPC   C3A63293   3.903  33.852   6.954
 4914POPC   C4A63294   3.805  33.663   7.338
 4914POPC   C1B63295   3.341  33.906   6.217
 4914POPC   C2B63296   3.286  33.620   6.581
 4914POPC   C3B63297   3.435  33.533   6.992
 4914POPC   C4B63298   3.280  33.675   7.391
 4915POPC   NC363299  27.452  37.738   5.330
 4915POPC   PO463300  28.081  37.585   5.433
 4915POPC   GL163301  27.739  37.659   5.774
 4915POPC   GL263302  27.352  37.719   5.805
 4915POPC   C1A63303  27.668  37.852   6.198
 4915POPC   D2A63304  27.892  37.719   6.559
 4915POPC   C3A63305  27.754  37.730   6.933
 4915POPC   C4A63306  27.990  37.702   7.319
 4915POPC   C1B63307  27.159  37.901   6.170
 4915POPC   C2B63308  27.301  38.011   6.600
 4915POPC   C3B63309  27.234  37.811   6.989
 4915POPC   C4B63310  27.487  37.809   7.358
 4916POPC   NC363311  39.119  35.735   5.529
 4916POPC   PO463312  39.336  35.054   5.516
 4916POPC   GL163313  39.186  35.088   5.905
 4916POPC   GL263314  39.122  35.445   5.961
 4916POPC   C1A63315  39.269  35.107   6.325
 4916POPC   D2A63316  39.181  35.416   6.572
 4916POPC   C3A63317  39.037  35.199   6.898
 4916POPC   C4A63318  39.310  35.038   7.180
 4916POPC   C1B63319  38.799  35.566   6.279
 4916POPC   C2B63320  38.735  35.610   6.741
 4916POPC   C3B63321  38.805  35.503   7.210
 4916POPC   C4B63322  38.794  35.705   7.644
 4917POPC   NC363323  17.703   3.033   5.691
 4917POPC   PO463324  17.741   2.422   5.547
 4917POPC   GL163325  17.461   2.609   5.849
 4917POPC   GL263326  17.198   2.869   5.748
 4917POPC   C1A63327  17.442   2.820   6.264
 4917POPC   D2A63328  17.454   3.146   6.587
 4917POPC   C3A63329  17.313   2.916   6.933
 4917POPC   C4A63330  17.610   2.688   7.173
 4917POPC   C1B63331  16.999   2.611   6.091
 4917POPC   C2B63332  17.094   2.446   6.497
 4917POPC   C3B63333  17.230   2.386   6.916
 4917POPC   C4B63334  17.141   2.537   7.294
 4918POPC   NC363335  37.769  33.910   5.561
 4918POPC   PO463336  37.899  33.258   5.531
 4918POPC   GL163337  37.784  33.485   5.886
 4918POPC   GL263338  37.449  33.636   5.840
 4918POPC   C1A63339  37.933  33.657   6.279
 4918POPC   D2A63340  38.160  33.671   6.704
 4918POPC   C3A63341  37.861  33.656   6.989
 4918POPC   C4A63342  37.623  33.773   7.301
 4918POPC   C1B63343  37.402  33.530   6.243
 4918POPC   C2B63344  37.587  33.451   6.607
 4918POPC   C3B63345  37.354  33.417   6.976
 4918POPC   C4B63346  37.436  33.308   7.392
 4919POPC   NC363347   6.441  28.843   5.113
 4919POPC   PO463348   5.977  29.158   5.509
 4919POPC   GL163349   5.821  29.028   5.881
 4919POPC   GL263350   5.555  28.806   5.821
 4919POPC   C1A63351   5.859  29.308   6.217
 4919POPC   D2A63352   6.074  29.496   6.547
 4919POPC   C3A63353   6.000  29.308   6.938
 4919POPC   C4A63354   6.109  29.044   7.270
 4919POPC   C1B63355   5.435  28.998   6.226
 4919POPC   C2B63356   5.589  29.175   6.636
 4919POPC   C3B63357   5.487  29.199   7.076
 4919POPC   C4B63358   5.618  29.032   7.465
 4920POPC   NC363359  16.264  44.992   5.443
 4920POPC   PO463360  15.667   0.166   5.396
 4920POPC   GL163361  15.888   0.284   5.758
 4920POPC   GL263362  15.910   0.666   5.784
 4920POPC   C1A63363  15.990   0.242   6.193
 4920POPC   D2A63364  15.843   0.039   6.594
 4920POPC   C3A63365  16.045   0.236   6.998
 4920POPC   C4A63366  16.228   0.297   7.447
 4920POPC   C1B63367  15.862   0.793   6.218
 4920POPC   C2B63368  15.923   0.576   6.610
 4920POPC   C3B63369  15.774   0.670   7.015
 4920POPC   C4B63370  15.811   1.055   7.223
 4921POPC   NC363371  43.803   5.469   5.393
 4921POPC   PO463372  44.134   4.893   5.347
 4921POPC   GL163373  44.001   5.028   5.743
 4921POPC   GL263374  44.156   5.358   5.771
 4921POPC   C1A63375  43.797   4.926   6.148
 4921POPC   D2A63376  43.957   4.737   6.530
 4921POPC   C3A63377  43.888   4.914   6.918
 4921POPC   C4A63378  43.715   5.287   7.185
 4921POPC   C1B63379  44.105   5.323   6.208
 4921POPC   C2B63380  43.931   5.293   6.603
 4921POPC   C3B63381  44.192   5.316   7.008
 4921POPC   C4B63382  44.201   5.363   7.451
 4922POPC   NC363383  42.408  13.519   5.196
 4922POPC   PO463384  42.084  14.015   5.524
 4922POPC   GL163385  42.344  13.866   5.805
 4922POPC   GL263386  42.387  13.513   5.753
 4922POPC   C1A63387  42.378  13.824   6.220
 4922POPC   D2A63388  42.182  13.844   6.612
 4922POPC   C3A63389  42.408  13.578   6.863
 4922POPC   C4A63390  42.426  13.553   7.292
 4922POPC   C1B63391  42.315  13.319   6.194
 4922POPC   C2B63392  42.345  13.118   6.618
 4922POPC   C3B63393  42.545  13.098   7.060
 4922POPC   C4B63394  42.550  13.145   7.550
 4923POPC   NC363395  14.613  12.197   5.196
 4923POPC   PO463396  14.142  11.866   5.573
 4923POPC   GL163397  14.419  12.191   5.703
 4923POPC   GL263398  14.528  11.954   5.939
 4923POPC   C1A63399  14.480  12.411   6.128
 4923POPC   D2A63400  14.417  12.148   6.517
 4923POPC   C3A63401  14.520  12.359   6.898
 4923POPC   C4A63402  14.682  12.177   7.251
 4923POPC   C1B63403  14.217  11.729   6.241
 4923POPC   C2B63404  14.187  11.613   6.678
 4923POPC   C3B63405  14.461  11.831   6.950
 4923POPC   C4B63406  14.578  11.706   7.355
 4924POPC   NC363407  31.258  11.262   5.214
 4924POPC   PO463408  31.745  10.844   5.313
 4924POPC   GL163409  31.484  11.083   5.650
 4924POPC   GL263410  31.768  11.017   5.829
 4924POPC   C1A63411  31.468  11.334   6.066
 4924POPC   D2A63412  31.328  11.274   6.508
 4924POPC   C3A63413  31.513  11.242   6.887
 4924POPC   C4A63414  31.588  11.436   7.250
 4924POPC   C1B63415  31.919  10.887   6.173
 4924POPC   C2B63416  31.867  11.070   6.543
 4924POPC   C3B63417  31.863  10.854   6.908
 4924POPC   C4B63418  31.801  10.963   7.308
 4925POPC   NC363419  13.872  28.193   5.262
 4925POPC   PO463420  13.306  28.468   5.361
 4925POPC   GL163421  13.536  28.447   5.723
 4925POPC   GL263422  13.721  28.728   5.702
 4925POPC   C1A63423  13.630  28.226   6.122
 4925POPC   D2A63424  13.759  28.046   6.526
 4925POPC   C3A63425  13.477  28.065   6.866
 4925POPC   C4A63426  13.559  28.193   7.249
 4925POPC   C1B63427  13.683  28.750   6.140
 4925POPC   C2B63428  13.604  28.550   6.539
 4925POPC   C3B63429  13.727  28.565   6.952
 4925POPC   C4B63430  14.004  28.648   7.285
 4926POPC   NC363431  35.631  31.011   5.528
 4926POPC   PO463432  34.986  30.876   5.493
 4926POPC   GL163433  35.262  30.739   5.855
 4926POPC   GL263434  35.540  30.930   6.014
 4926POPC   C1A63435  35.313  30.559   6.266
 4926POPC   D2A63436  35.346  30.853   6.603
 4926POPC   C3A63437  35.522  30.640   6.961
 4926POPC   C4A63438  35.673  30.308   7.218
 4926POPC   C1B63439  35.131  31.129   6.153
 4926POPC   C2B63440  35.048  31.418   6.480
 4926POPC   C3B63441  35.137  31.240   6.875
 4926POPC   C4B63442  35.186  30.943   7.192
 4927POPC   NC363443   0.006   2.512   5.496
 4927POPC   PO463444   0.497   3.003   5.443
 4927POPC   GL163445   0.608   2.892   5.873
 4927POPC   GL263446   0.342   2.643   5.906
 4927POPC   C1A63447   0.563   2.821   6.337
 4927POPC   D2A63448   0.484   2.504   6.651
 4927POPC   C3A63449   0.631   2.637   7.057
 4927POPC   C4A63450   0.431   2.738   7.448
 4927POPC   C1B63451   0.081   2.928   6.129
 4927POPC   C2B63452   0.054   3.078   6.563
 4927POPC   C3B63453   0.167   2.855   6.924
 4927POPC   C4B63454  44.939   2.798   7.276
 4928POPC   NC363455  12.952  42.902   5.302
 4928POPC   PO463456  13.247  42.413   5.610
 4928POPC   GL163457  13.043  42.802   5.814
 4928POPC   GL263458  13.038  43.156   5.734
 4928POPC   C1A63459  12.912  42.877   6.206
 4928POPC   D2A63460  13.153  42.858   6.586
 4928POPC   C3A63461  13.016  43.121   6.894
 4928POPC   C4A63462  13.163  43.316   7.219
 4928POPC   C1B63463  12.954  43.402   6.109
 4928POPC   C2B63464  12.771  43.284   6.488
 4928POPC   C3B63465  12.500  43.225   6.852
 4928POPC   C4B63466  12.635  43.041   7.232
 4929POPC   NC363467  23.327  26.716   5.362
 4929POPC   PO463468  22.752  27.070   5.359
 4929POPC   GL163469  22.950  26.909   5.718
 4929POPC   GL263470  22.635  26.759   5.841
 4929POPC   C1A63471  23.059  27.148   6.109
 4929POPC   D2A63472  23.049  27.259   6.565
 4929POPC   C3A63473  22.959  26.999   6.905
 4929POPC   C4A63474  22.636  27.105   7.184
 4929POPC   C1B63475  22.768  26.521   6.230
 4929POPC   C2B63476  22.646  26.293   6.637
 4929POPC   C3B63477  22.631  26.335   7.104
 4929POPC   C4B63478  22.384  26.538   7.452
 4930POPC   NC363479  26.883  30.638   5.241
 4930POPC   PO463480  26.864  31.061   5.724
 4930POPC   GL163481  26.595  30.816   5.897
 4930POPC   GL263482  26.698  30.511   5.719
 4930POPC   C1A63483  26.583  30.815   6.343
 4930POPC   D2A63484  26.951  30.695   6.585
 4930POPC   C3A63485  26.926  30.821   7.005
 4930POPC   C4A63486  26.542  30.976   7.166
 4930POPC   C1B63487  26.807  30.401   6.151
 4930POPC   C2B63488  26.573  30.327   6.542
 4930POPC   C3B63489  26.613  30.395   6.993
 4930POPC   C4B63490  26.903  30.347   7.316
 4931POPC   NC363491  23.614  37.868   5.495
 4931POPC   PO463492  24.019  37.376   5.378
 4931POPC   GL163493  23.743  37.382   5.758
 4931POPC   GL263494  23.691  37.681   5.940
 4931POPC   C1A63495  23.599  37.257   6.177
 4931POPC   D2A63496  23.736  37.533   6.482
 4931POPC   C3A63497  23.790  37.426   6.880
 4931POPC   C4A63498  23.480  37.516   7.189
 4931POPC   C1B63499  23.942  37.922   6.146
 4931POPC   C2B63500  23.957  37.986   6.554
 4931POPC   C3B63501  23.746  37.929   6.917
 4931POPC   C4B63502  23.883  38.122   7.233
 4932POPC   NC363503  42.059   4.559   5.405
 4932POPC   PO463504  42.512   4.159   5.612
 4932POPC   GL163505  42.306   4.165   5.992
 4932POPC   GL263506  41.955   4.271   5.832
 4932POPC   C1A63507  42.451   3.816   6.284
 4932POPC   D2A63508  42.708   3.827   6.659
 4932POPC   C3A63509  42.522   4.172   6.940
 4932POPC   C4A63510  42.362   4.616   7.046
 4932POPC   C1B63511  42.045   4.628   6.094
 4932POPC   C2B63512  42.110   4.687   6.546
 4932POPC   C3B63513  41.980   4.359   6.836
 4932POPC   C4B63514  42.009   4.285   7.253
 4933POPC   NC363515  44.862  16.755   5.365
 4933POPC   PO463516  44.430  16.271   5.488
 4933POPC   GL163517  44.520  16.523   5.850
 4933POPC   GL263518  44.710  16.835   5.842
 4933POPC   C1A63519  44.647  16.387   6.250
 4933POPC   D2A63520  44.948  16.519   6.538
 4933POPC   C3A63521  44.749  16.766   6.836
 4933POPC   C4A63522  44.886  16.610   7.181
 4933POPC   C1B63523  44.763  16.901   6.277
 4933POPC   C2B63524   0.065  17.058   6.582
 4933POPC   C3B63525   0.163  17.175   7.006
 4933POPC   C4B63526  44.951  17.068   7.394
 4934POPC   NC363527   9.653  26.462   5.165
 4934POPC   PO463528   9.967  27.039   5.332
 4934POPC   GL163529   9.948  26.799   5.726
 4934POPC   GL263530   9.669  26.887   5.857
 4934POPC   C1A63531   9.957  26.661   6.214
 4934POPC   D2A63532  10.077  26.598   6.684
 4934POPC   C3A63533   9.845  26.782   7.019
 4934POPC   C4A63534   9.663  26.655   7.368
 4934POPC   C1B63535   9.455  26.779   6.238
 4934POPC   C2B63536   9.558  26.608   6.611
 4934POPC   C3B63537   9.340  26.650   6.972
 4934POPC   C4B63538   9.217  26.451   7.412
 4935POPC   NC363539   9.005  28.679   5.233
 4935POPC   PO463540   8.752  27.992   5.393
 4935POPC   GL163541   8.743  28.202   5.783
 4935POPC   GL263542   9.069  28.267   5.839
 4935POPC   C1A63543   8.778  28.397   6.207
 4935POPC   D2A63544   9.110  28.586   6.453
 4935POPC   C3A63545   9.022  28.614   6.869
 4935POPC   C4A63546   8.972  28.528   7.293
 4935POPC   C1B63547   9.305  28.155   6.195
 4935POPC   C2B63548   9.441  28.049   6.605
 4935POPC   C3B63549   9.315  28.193   7.002
 4935POPC   C4B63550   9.393  28.282   7.420
 4936POPC   NC363551  25.538  14.962   5.257
 4936POPC   PO463552  24.891  14.914   5.195
 4936POPC   GL163553  25.179  15.201   5.528
 4936POPC   GL263554  25.358  14.945   5.733
 4936POPC   C1A63555  25.370  15.382   5.960
 4936POPC   D2A63556  25.618  15.298   6.359
 4936POPC   C3A63557  25.344  15.182   6.705
 4936POPC   C4A63558  25.111  15.343   7.057
 4936POPC   C1B63559  25.255  14.911   6.199
 4936POPC   C2B63560  25.138  14.693   6.595
 4936POPC   C3B63561  25.238  14.786   7.045
 4936POPC   C4B63562  25.011  14.983   7.404
 4937POPC   NC363563  18.167   8.073   5.340
 4937POPC   PO463564  18.371   8.579   5.771
 4937POPC   GL163565  18.397   8.157   5.940
 4937POPC   GL263566  18.217   7.828   5.831
 4937POPC   C1A63567  18.354   8.178   6.382
 4937POPC   D2A63568  17.977   8.083   6.638
 4937POPC   C3A63569  17.984   8.165   7.021
 4937POPC   C4A63570  18.109   8.521   7.212
 4937POPC   C1B63571  18.308   7.682   6.287
 4937POPC   C2B63572  18.421   7.835   6.750
 4937POPC   C3B63573  18.468   8.085   7.170
 4937POPC   C4B63574  18.430   7.893   7.596
 4938POPC   NC363575  11.525  38.114   5.666
 4938POPC   PO463576  11.842  37.837   5.215
 4938POPC   GL163577  11.668  37.613   5.661
 4938POPC   GL263578  11.285  37.638   5.723
 4938POPC   C1A63579  11.638  37.686   6.166
 4938POPC   D2A63580  11.317  37.701   6.526
 4938POPC   C3A63581  11.347  37.804   6.972
 4938POPC   C4A63582  11.086  37.624   7.298
 4938POPC   C1B63583  11.345  37.296   6.018
 4938POPC   C2B63584  11.269  37.178   6.456
 4938POPC   C3B63585  11.292  37.315   6.893
 4938POPC   C4B63586  11.489  37.291   7.304
 4939POPC   NC363587  24.155  28.690   5.425
 4939POPC   PO463588  23.532  28.745   5.461
 4939POPC   GL163589  23.844  28.991   5.713
 4939POPC   GL263590  23.596  29.176   5.820
 4939POPC   C1A63591  24.002  29.126   6.135
 4939POPC   D2A63592  24.169  29.218   6.547
 4939POPC   C3A63593  24.031  28.949   6.866
 4939POPC   C4A63594  23.926  29.111   7.278
 4939POPC   C1B63595  23.427  29.166   6.234
 4939POPC   C2B63596  23.649  29.181   6.603
 4939POPC   C3B63597  23.521  29.251   7.010
 4939POPC   C4B63598  23.240  29.274   7.326
 4940POPC   NC363599  24.944  26.228   5.178
 4940POPC   PO463600  24.286  25.973   5.303
 4940POPC   GL163601  24.529  25.969   5.695
 4940POPC   GL263602  24.390  26.313   5.722
 4940POPC   C1A63603  24.707  25.871   6.151
 4940POPC   D2A63604  24.703  26.022   6.617
 4940POPC   C3A63605  24.514  25.828   7.023
 4940POPC   C4A63606  24.606  26.101   7.409
 4940POPC   C1B63607  24.351  26.269   6.187
 4940POPC   C2B63608  24.172  26.154   6.606
 4940POPC   C3B63609  24.299  26.282   7.028
 4940POPC   C4B63610  24.092  26.342   7.428
 4941POPC   NC363611  10.730  17.609   5.439
 4941POPC   PO463612  10.150  17.284   5.426
 4941POPC   GL163613  10.392  17.498   5.815
 4941POPC   GL263614  10.707  17.319   5.869
 4941POPC   C1A63615  10.314  17.685   6.253
 4941POPC   D2A63616  10.480  17.546   6.676
 4941POPC   C3A63617  10.605  17.797   7.045
 4941POPC   C4A63618  10.626  17.762   7.513
 4941POPC   C1B63619  10.826  17.623   6.213
 4941POPC   C2B63620  10.997  17.645   6.654
 4941POPC   C3B63621  10.923  17.394   7.047
 4941POPC   C4B63622  10.802  17.239   7.490
 4942POPC   NC363623  15.867  23.050   5.512
 4942POPC   PO463624  16.425  23.025   5.530
 4942POPC   GL163625  16.213  22.840   5.900
 4942POPC   GL263626  15.899  22.657   5.860
 4942POPC   C1A63627  15.941  22.966   6.264
 4942POPC   D2A63628  15.741  22.777   6.649
 4942POPC   C3A63629  15.896  22.982   7.024
 4942POPC   C4A63630  16.334  23.056   7.143
 4942POPC   C1B63631  15.975  22.460   6.284
 4942POPC   C2B63632  15.877  22.268   6.688
 4942POPC   C3B63633  15.714  22.402   7.109
 4942POPC   C4B63634  15.958  22.620   7.457
 4943POPC   NC363635   0.841   0.463   5.088
 4943POPC   PO463636   1.369   0.335   5.420
 4943POPC   GL163637   1.352   0.248   5.833
 4943POPC   GL263638   1.020   0.129   5.795
 4943POPC   C1A63639   1.462   0.408   6.216
 4943POPC   D2A63640   1.282   0.624   6.561
 4943POPC   C3A63641   1.433   0.507   6.969
 4943POPC   C4A63642   1.360   0.364   7.352
 4943POPC   C1B63643   0.957   0.337   6.174
 4943POPC   C2B63644   0.909   0.267   6.580
 4943POPC   C3B63645   1.035   0.184   6.976
 4943POPC   C4B63646   0.989   0.053   7.394
 4944POPC   NC363647  34.267  36.333   5.459
 4944POPC   PO463648  34.913  36.465   5.268
 4944POPC   GL163649  34.873  36.202   5.678
 4944POPC   GL263650  34.775  35.837   5.790
 4944POPC   C1A63651  34.663  36.275   6.091
 4944POPC   D2A63652  34.570  36.035   6.462
 4944POPC   C3A63653  34.440  36.187   6.847
 4944POPC   C4A63654  34.675  36.438   7.129
 4944POPC   C1B63655  34.371  35.790   6.048
 4944POPC   C2B63656  34.196  35.708   6.483
 4944POPC   C3B63657  34.428  35.677   6.889
 4944POPC   C4B63658  34.620  35.927   7.273
 4945POPC   NC363659  15.888  26.963   5.482
 4945POPC   PO463660  15.494  26.440   5.656
 4945POPC   GL163661  15.939  26.511   5.805
 4945POPC   GL263662  16.134  26.835   5.908
 4945POPC   C1A63663  15.960  26.536   6.272
 4945POPC   D2A63664  15.754  26.462   6.666
 4945POPC   C3A63665  15.739  26.726   7.022
 4945POPC   C4A63666  15.679  27.136   7.192
 4945POPC   C1B63667  16.026  27.067   6.255
 4945POPC   C2B63668  16.077  26.893   6.651
 4945POPC   C3B63669  16.213  26.915   7.045
 4945POPC   C4B63670  16.491  26.667   7.276
 4946POPC   NC363671   7.884  40.177   5.355
 4946POPC   PO463672   7.255  39.808   5.369
 4946POPC   GL163673   7.308  40.101   5.714
 4946POPC   GL263674   7.632  40.015   5.764
 4946POPC   C1A63675   7.465  40.227   6.169
 4946POPC   D2A63676   7.362  40.041   6.567
 4946POPC   C3A63677   7.437  40.286   6.949
 4946POPC   C4A63678   7.242  40.399   7.332
 4946POPC   C1B63679   7.631  39.748   6.164
 4946POPC   C2B63680   7.643  39.595   6.578
 4946POPC   C3B63681   7.557  39.769   6.995
 4946POPC   C4B63682   7.658  39.918   7.416
 4947POPC   NC363683  34.476  23.564   5.268
 4947POPC   PO463684  34.942  24.005   5.403
 4947POPC   GL163685  34.780  23.709   5.729
 4947POPC   GL263686  34.414  23.576   5.789
 4947POPC   C1A63687  34.756  23.815   6.157
 4947POPC   D2A63688  34.582  23.632   6.503
 4947POPC   C3A63689  34.738  23.783   6.876
 4947POPC   C4A63690  34.534  23.818   7.281
 4947POPC   C1B63691  34.229  23.245   6.092
 4947POPC   C2B63692  34.339  23.180   6.542
 4947POPC   C3B63693  34.326  23.453   6.931
 4947POPC   C4B63694  34.155  23.443   7.323
 4948POPC   NC363695  42.587  43.982   5.403
 4948POPC   PO463696  41.943  44.063   5.521
 4948POPC   GL163697  42.260  44.065   5.821
 4948POPC   GL263698  42.419  43.770   5.830
 4948POPC   C1A63699  42.256  44.060   6.269
 4948POPC   D2A63700  42.474  44.082   6.663
 4948POPC   C3A63701  42.221  43.853   6.984
 4948POPC   C4A63702  42.149  43.908   7.451
 4948POPC   C1B63703  42.687  43.811   6.195
 4948POPC   C2B63704  42.828  43.677   6.578
 4948POPC   C3B63705  42.745  43.751   6.977
 4948POPC   C4B63706  42.594  44.123   7.175
 4949POPC   NC363707   4.587  26.376   5.642
 4949POPC   PO463708   4.405  25.840   5.335
 4949POPC   GL163709   4.198  26.063   5.771
 4949POPC   GL263710   3.882  26.275   5.819
 4949POPC   C1A63711   4.246  26.157   6.236
 4949POPC   D2A63712   4.394  25.884   6.599
 4949POPC   C3A63713   4.296  25.944   7.057
 4949POPC   C4A63714   4.524  25.778   7.432
 4949POPC   C1B63715   3.799  26.425   6.221
 4949POPC   C2B63716   3.853  26.552   6.652
 4949POPC   C3B63717   4.073  26.495   7.043
 4949POPC   C4B63718   4.111  26.219   7.445
 4950POPC   NC363719  10.216  27.425   5.495
 4950POPC   PO463720  10.702  27.971   5.456
 4950POPC   GL163721  10.455  27.762   5.817
 4950POPC   GL263722  10.106  27.820   5.874
 4950POPC   C1A63723  10.616  27.743   6.261
 4950POPC   D2A63724  10.903  27.937   6.591
 4950POPC   C3A63725  10.741  28.056   6.979
 4950POPC   C4A63726  10.631  27.762   7.274
 4950POPC   C1B63727  10.079  27.636   6.304
 4950POPC   C2B63728  10.331  27.523   6.702
 4950POPC   C3B63729  10.503  27.308   7.102
 4950POPC   C4B63730  10.534  27.345   7.572
 4951POPC   NC363731  44.571   7.473   5.478
 4951POPC   PO463732   0.189   7.355   5.301
 4951POPC   GL163733  44.928   7.455   5.824
 4951POPC   GL263734  44.593   7.208   5.916
 4951POPC   C1A63735  44.605   7.624   6.204
 4951POPC   D2A63736  44.429   7.497   6.646
 4951POPC   C3A63737  44.680   7.551   7.026
 4951POPC   C4A63738   0.047   7.266   7.135
 4951POPC   C1B63739  44.887   7.167   6.279
 4951POPC   C2B63740  44.807   7.139   6.713
 4951POPC   C3B63741  44.550   7.034   7.074
 4951POPC   C4B63742  44.183   7.134   7.318
 4952POPC   NC363743  22.547  22.599   5.507
 4952POPC   PO463744  23.148  22.951   5.276
 4952POPC   GL163745  23.047  23.073   5.765
 4952POPC   GL263746  22.712  23.217   5.916
 4952POPC   C1A63747  23.005  22.946   6.230
 4952POPC   D2A63748  22.678  23.025   6.546
 4952POPC   C3A63749  22.837  23.121   6.932
 4952POPC   C4A63750  22.887  22.843   7.290
 4952POPC   C1B63751  22.515  22.834   6.107
 4952POPC   C2B63752  22.545  22.542   6.438
 4952POPC   C3B63753  22.656  22.601   6.883
 4952POPC   C4B63754  22.392  22.735   7.219
 4953POPC   NC363755   1.452  44.832   5.566
 4953POPC   PO463756   0.964  44.362   5.583
 4953POPC   GL163757   1.109  44.635   5.885
 4953POPC   GL263758   1.405  44.479   5.994
 4953POPC   C1A63759   1.256  44.923   6.243
 4953POPC   D2A63760   1.426   0.103   6.649
 4953POPC   C3A63761   1.437  44.918   7.105
 4953POPC   C4A63762   1.495  44.940   7.583
 4953POPC   C1B63763   1.081  44.447   6.339
 4953POPC   C2B63764   0.990  44.750   6.670
 4953POPC   C3B63765   0.975  44.646   7.094
 4953POPC   C4B63766   1.165  44.570   7.490
 4954POPC   NC363767   2.388  23.562   5.447
 4954POPC   PO463768   2.989  23.907   5.348
 4954POPC   GL163769   2.871  23.594   5.692
 4954POPC   GL263770   2.568  23.683   5.907
 4954POPC   C1A63771   2.968  23.351   6.089
 4954POPC   D2A63772   2.982  23.266   6.559
 4954POPC   C3A63773   2.872  23.681   6.801
 4954POPC   C4A63774   2.926  23.904   7.202
 4954POPC   C1B63775   2.554  24.062   6.176
 4954POPC   C2B63776   2.480  24.109   6.604
 4954POPC   C3B63777   2.449  23.922   7.014
 4954POPC   C4B63778   2.483  24.033   7.447
 4955POPC   NC363779  35.015  19.640   5.415
 4955POPC   PO463780  34.517  20.081   5.409
 4955POPC   GL163781  34.676  19.930   5.780
 4955POPC   GL263782  34.492  19.614   5.757
 4955POPC   C1A63783  34.523  19.997   6.201
 4955POPC   D2A63784  34.325  20.002   6.607
 4955POPC   C3A63785  34.635  20.057   6.912
 4955POPC   C4A63786  34.735  19.897   7.312
 4955POPC   C1B63787  34.630  19.512   6.193
 4955POPC   C2B63788  34.741  19.676   6.579
 4955POPC   C3B63789  34.583  19.551   6.965
 4955POPC   C4B63790  34.425  19.468   7.364
 4956POPC   NC363791  29.336  18.428   5.255
 4956POPC   PO463792  28.831  17.974   5.483
 4956POPC   GL163793  29.046  18.273   5.831
 4956POPC   GL263794  28.880  18.550   5.949
 4956POPC   C1A63795  29.078  18.331   6.333
 4956POPC   D2A63796  29.033  18.129   6.691
 4956POPC   C3A63797  29.138  18.372   7.044
 4956POPC   C4A63798  29.268  18.228   7.480
 4956POPC   C1B63799  28.634  18.678   6.274
 4956POPC   C2B63800  28.655  18.541   6.678
 4956POPC   C3B63801  28.787  18.757   7.028
 4956POPC   C4B63802  28.839  18.532   7.398
 4957POPC   NC363803   1.082  11.079   5.203
 4957POPC   PO463804   1.058  11.702   5.365
 4957POPC   GL163805   1.163  11.414   5.724
 4957POPC   GL263806   1.237  11.033   5.679
 4957POPC   C1A63807   1.129  11.553   6.159
 4957POPC   D2A63808   0.832  11.590   6.497
 4957POPC   C3A63809   0.974  11.710   6.916
 4957POPC   C4A63810   1.243  11.531   7.255
 4957POPC   C1B63811   1.150  10.955   6.107
 4957POPC   C2B63812   1.145  11.149   6.505
 4957POPC   C3B63813   1.014  11.181   6.926
 4957POPC   C4B63814   0.925  10.991   7.319
 4958POPC   NC363815   3.334   2.219   5.431
 4958POPC   PO463816   3.725   1.618   5.395
 4958POPC   GL163817   3.729   1.926   5.776
 4958POPC   GL263818   3.642   2.292   5.820
 4958POPC   C1A63819   3.789   2.041   6.248
 4958POPC   D2A63820   3.563   1.853   6.595
 4958POPC   C3A63821   3.546   1.854   7.030
 4958POPC   C4A63822   3.512   1.460   7.224
 4958POPC   C1B63823   3.439   2.472   6.191
 4958POPC   C2B63824   3.423   2.366   6.635
 4958POPC   C3B63825   3.458   2.426   7.070
 4958POPC   C4B63826   3.766   2.233   7.294
 4959POPC   NC363827  37.521  10.360   5.483
 4959POPC   PO463828  37.508  11.018   5.447
 4959POPC   GL163829  37.432  10.769   5.855
 4959POPC   GL263830  37.689  10.471   5.947
 4959POPC   C1A63831  37.517  10.762   6.320
 4959POPC   D2A63832  37.640  10.372   6.476
 4959POPC   C3A63833  37.832  10.338   6.831
 4959POPC   C4A63834  37.770  10.610   7.123
 4959POPC   C1B63835  37.420  10.102   6.100
 4959POPC   C2B63836  37.339   9.968   6.556
 4959POPC   C3B63837  37.359  10.205   6.967
 4959POPC   C4B63838  37.543  10.238   7.388
 4960POPC   NC363839  44.150  43.589   5.362
 4960POPC   PO463840  43.625  44.080   5.353
 4960POPC   GL163841  43.892  44.029   5.729
 4960POPC   GL263842  43.954  43.655   5.828
 4960POPC   C1A63843  43.745  43.978   6.175
 4960POPC   D2A63844  43.738  43.580   6.399
 4960POPC   C3A63845  43.771  43.573   6.856
 4960POPC   C4A63846  43.754  43.966   7.087
 4960POPC   C1B63847  44.241  43.876   6.127
 4960POPC   C2B63848  44.152  44.212   6.441
 4960POPC   C3B63849  44.311  44.177   6.864
 4960POPC   C4B63850  44.237  43.882   7.190
 4961POPC   NC363851  33.132  11.730   5.297
 4961POPC   PO463852  32.737  12.210   5.273
 4961POPC   GL163853  33.102  12.044   5.692
 4961POPC   GL263854  33.355  11.808   5.846
 4961POPC   C1A63855  33.375  12.233   6.101
 4961POPC   D2A63856  33.181  12.278   6.523
 4961POPC   C3A63857  33.320  12.111   6.926
 4961POPC   C4A63858  33.091  12.241   7.251
 4961POPC   C1B63859  33.018  11.862   6.184
 4961POPC   C2B63860  32.964  11.644   6.612
 4961POPC   C3B63861  32.937  11.737   7.075
 4961POPC   C4B63862  33.282  11.771   7.346
 4962POPC   NC363863  25.319  23.878   5.362
 4962POPC   PO463864  25.548  23.204   5.339
 4962POPC   GL163865  25.398  23.455   5.700
 4962POPC   GL263866  25.120  23.309   5.891
 4962POPC   C1A63867  25.435  23.723   6.091
 4962POPC   D2A63868  25.273  23.940   6.455
 4962POPC   C3A63869  25.234  23.693   6.843
 4962POPC   C4A63870  25.471  23.842   7.207
 4962POPC   C1B63871  25.094  23.432   6.346
 4962POPC   C2B63872  24.853  23.308   6.709
 4962POPC   C3B63873  24.821  23.435   7.116
 4962POPC   C4B63874  24.971  23.821   7.275
 4963POPC   NC363875  24.467  33.488   5.204
 4963POPC   PO463876  24.311  34.054   5.557
 4963POPC   GL163877  24.439  34.123   5.955
 4963POPC   GL263878  24.114  34.011   6.124
 4963POPC   C1A63879  24.805  34.039   6.229
 4963POPC   D2A63880  24.987  33.907   6.655
 4963POPC   C3A63881  24.739  33.842   7.065
 4963POPC   C4A63882  24.496  33.586   7.368
 4963POPC   C1B63883  24.019  33.597   6.365
 4963POPC   C2B63884  24.135  33.397   6.737
 4963POPC   C3B63885  24.108  33.694   7.071
 4963POPC   C4B63886  24.015  33.863   7.460
 4964POPC   NC363887  22.742  14.441   5.292
 4964POPC   PO463888  23.400  14.753   5.314
 4964POPC   GL163889  23.170  14.389   5.588
 4964POPC   GL263890  22.825  14.444   5.794
 4964POPC   C1A63891  23.229  14.292   6.057
 4964POPC   D2A63892  22.984  14.391   6.444
 4964POPC   C3A63893  22.976  14.360   6.900
 4964POPC   C4A63894  22.886  14.633   7.264
 4964POPC   C1B63895  22.568  14.536   6.184
 4964POPC   C2B63896  22.577  14.705   6.628
 4964POPC   C3B63897  22.468  14.480   7.031
 4964POPC   C4B63898  22.400  14.604   7.484
 4965POPC   NC363899  16.124  44.192   4.860
 4965POPC   PO463900  16.143  44.544   5.463
 4965POPC   GL163901  15.992  44.746   5.809
 4965POPC   GL263902  15.769  44.475   5.896
 4965POPC   C1A63903  16.133  44.742   6.221
 4965POPC   D2A63904  16.166  44.506   6.579
 4965POPC   C3A63905  16.091  44.740   6.948
 4965POPC   C4A63906  15.918  44.872   7.358
 4965POPC   C1B63907  15.679  44.532   6.339
 4965POPC   C2B63908  15.625  44.595   6.781
 4965POPC   C3B63909  15.626  44.487   7.210
 4965POPC   C4B63910  15.613  44.533   7.671
 4966POPC   NC363911  23.678  38.987   5.523
 4966POPC   PO463912  23.643  38.300   5.307
 4966POPC   GL163913  23.741  38.330   5.758
 4966POPC   GL263914  23.978  38.611   5.739
 4966POPC   C1A63915  23.654  38.339   6.225
 4966POPC   D2A63916  23.653  38.389   6.677
 4966POPC   C3A63917  23.461  38.347   7.074
 4966POPC   C4A63918  23.708  38.551   7.415
 4966POPC   C1B63919  23.978  38.735   6.156
 4966POPC   C2B63920  24.120  38.447   6.450
 4966POPC   C3B63921  24.156  38.358   6.870
 4966POPC   C4B63922  24.184  38.614   7.228
 4967POPC   NC363923   4.787  23.837   5.240
 4967POPC   PO463924   5.389  23.611   5.358
 4967POPC   GL163925   5.062  23.561   5.640
 4967POPC   GL263926   5.097  23.901   5.723
 4967POPC   C1A63927   4.940  23.471   6.082
 4967POPC   D2A63928   5.127  23.505   6.488
 4967POPC   C3A63929   5.063  23.625   6.930
 4967POPC   C4A63930   5.207  23.366   7.272
 4967POPC   C1B63931   5.254  23.908   6.163
 4967POPC   C2B63932   5.113  24.000   6.573
 4967POPC   C3B63933   4.810  24.069   6.904
 4967POPC   C4B63934   4.915  23.978   7.337
 4968POPC   NC363935  18.859  36.384   5.378
 4968POPC   PO463936  19.491  36.125   5.366
 4968POPC   GL163937  19.257  36.251   5.753
 4968POPC   GL263938  18.921  36.417   5.874
 4968POPC   C1A63939  19.098  35.980   6.087
 4968POPC   D2A63940  18.964  35.860   6.498
 4968POPC   C3A63941  19.228  35.864   6.862
 4968POPC   C4A63942  19.037  35.883   7.290
 4968POPC   C1B63943  18.757  36.307   6.249
 4968POPC   C2B63944  18.597  36.279   6.626
 4968POPC   C3B63945  18.708  36.120   6.982
 4968POPC   C4B63946  18.728  36.462   7.255
 4969POPC   NC363947  14.395  25.811   5.311
 4969POPC   PO463948  14.576  26.418   5.611
 4969POPC   GL163949  14.333  26.100   5.771
 4969POPC   GL263950  14.476  25.754   5.802
 4969POPC   C1A63951  14.159  26.009   6.185
 4969POPC   D2A63952  14.392  26.091   6.583
 4969POPC   C3A63953  14.220  26.076   6.989
 4969POPC   C4A63954  14.273  26.239   7.431
 4969POPC   C1B63955  14.661  25.829   6.199
 4969POPC   C2B63956  14.632  25.624   6.603
 4969POPC   C3B63957  14.677  25.796   7.011
 4969POPC   C4B63958  14.448  25.778   7.419
 4970POPC   NC363959  21.955  31.151   5.079
 4970POPC   PO463960  22.279  31.534   5.466
 4970POPC   GL163961  22.143  31.146   5.705
 4970POPC   GL263962  22.385  30.972   5.942
 4970POPC   C1A63963  21.957  31.158   6.124
 4970POPC   D2A63964  21.939  31.458   6.438
 4970POPC   C3A63965  21.989  31.367   6.865
 4970POPC   C4A63966  22.067  31.567   7.278
 4970POPC   C1B63967  22.383  31.065   6.398
 4970POPC   C2B63968  22.476  31.344   6.743
 4970POPC   C3B63969  22.414  31.236   7.166
 4970POPC   C4B63970  22.344  30.860   7.376
 4971POPC   NC363971  40.496  44.866   5.249
 4971POPC   PO463972  40.630  44.260   5.293
 4971POPC   GL163973  40.561  44.331   5.765
 4971POPC   GL263974  40.193  44.314   5.865
 4971POPC   C1A63975  40.547  44.572   6.188
 4971POPC   D2A63976  40.574  44.952   6.501
 4971POPC   C3A63977  40.614  44.813   6.942
 4971POPC   C4A63978  40.976  44.748   7.196
 4971POPC   C1B63979  40.388  44.055   6.178
 4971POPC   C2B63980  40.569  44.163   6.550
 4971POPC   C3B63981  40.480  44.311   6.961
 4971POPC   C4B63982  40.599  44.412   7.393
 4972POPC   NC363983  39.615  36.832   5.617
 4972POPC   PO463984  40.289  36.802   5.395
 4972POPC   GL163985  40.118  36.818   5.814
 4972POPC   GL263986  39.989  37.125   5.845
 4972POPC   C1A63987  40.021  36.564   6.203
 4972POPC   D2A63988  39.997  36.388   6.616
 4972POPC   C3A63989  40.103  36.768   6.832
 4972POPC   C4A63990  39.946  36.991   7.191
 4972POPC   C1B63991  40.114  37.069   6.281
 4972POPC   C2B63992  40.010  37.260   6.672
 4972POPC   C3B63993  40.198  37.425   7.020
 4972POPC   C4B63994  40.348  37.229   7.360
 4973POPC   NC363995  25.723  10.576   5.549
 4973POPC   PO463996  25.153  10.936   5.388
 4973POPC   GL163997  25.328  10.843   5.754
 4973POPC   GL263998  25.291  10.487   5.810
 4973POPC   C1A63999  25.294  10.862   6.185
 4973POPC   D2A64000  25.429  10.720   6.572
 4973POPC   C3A64001  25.142  10.618   6.879
 4973POPC   C4A64002  25.216  10.687   7.300
 4973POPC   C1B64003  25.449  10.356   6.203
 4973POPC   C2B64004  25.239  10.222   6.576
 4973POPC   C3B64005  25.328  10.177   7.023
 4973POPC   C4B64006  25.308  10.190   7.446
 4974POPC   NC364007  15.148  40.007   5.297
 4974POPC   PO464008  14.685  40.409   5.434
 4974POPC   GL164009  14.962  40.226   5.757
 4974POPC   GL264010  15.340  40.119   5.755
 4974POPC   C1A64011  14.984  40.076   6.169
 4974POPC   D2A64012  15.204  40.152   6.534
 4974POPC   C3A64013  14.998  40.001   6.870
 4974POPC   C4A64014  15.126  40.030   7.261
 4974POPC   C1B64015  15.423  39.812   6.095
 4974POPC   C2B64016  15.364  39.654   6.536
 4974POPC   C3B64017  15.480  39.747   6.979
 4974POPC   C4B64018  15.603  39.833   7.445
 4975POPC   NC364019   7.678   4.120   5.467
 4975POPC   PO464020   7.192   4.513   5.487
 4975POPC   GL164021   7.346   4.296   5.844
 4975POPC   GL264022   7.728   4.336   5.929
 4975POPC   C1A64023   7.360   4.393   6.267
 4975POPC   D2A64024   7.483   4.249   6.665
 4975POPC   C3A64025   7.257   4.330   7.008
 4975POPC   C4A64026   7.276   4.544   7.307
 4975POPC   C1B64027   7.717   3.983   6.249
 4975POPC   C2B64028   7.789   3.847   6.704
 4975POPC   C3B64029   7.541   3.916   7.082
 4975POPC   C4B64030   7.645   4.206   7.420
 4976POPC   NC364031  26.530  44.021   5.386
 4976POPC   PO464032  27.169  44.107   5.311
 4976POPC   GL164033  26.983  43.871   5.693
 4976POPC   GL264034  27.158  43.624   5.888
 4976POPC   C1A64035  26.736  43.864   6.112
 4976POPC   D2A64036  26.791  43.981   6.579
 4976POPC   C3A64037  26.550  43.879   6.965
 4976POPC   C4A64038  26.520  44.094   7.374
 4976POPC   C1B64039  27.276  43.364   6.224
 4976POPC   C2B64040  27.159  43.286   6.646
 4976POPC   C3B64041  27.071  43.639   6.926
 4976POPC   C4B64042  26.990  43.951   7.235
 4977POPC   NC364043  13.726  17.726   5.373
 4977POPC   PO464044  13.159  17.504   5.632
 4977POPC   GL164045  13.387  17.373   5.938
 4977POPC   GL264046  13.721  17.325   5.768
 4977POPC   C1A64047  13.278  17.470   6.365
 4977POPC   D2A64048  13.507  17.577   6.713
 4977POPC   C3A64049  13.508  17.269   7.019
 4977POPC   C4A64050  13.370  17.565   7.254
 4977POPC   C1B64051  13.833  17.293   6.229
 4977POPC   C2B64052  13.955  17.368   6.705
 4977POPC   C3B64053  13.977  17.314   7.190
 4977POPC   C4B64054  14.092  17.295   7.585
 4978POPC   NC364055  20.158   8.306   5.205
 4978POPC   PO464056  19.610   7.943   5.447
 4978POPC   GL164057  19.948   8.214   5.700
 4978POPC   GL264058  20.205   8.031   5.710
 4978POPC   C1A64059  20.006   8.371   6.149
 4978POPC   D2A64060  20.195   8.292   6.576
 4978POPC   C3A64061  20.016   8.495   6.940
 4978POPC   C4A64062  19.845   8.286   7.289
 4978POPC   C1B64063  19.893   7.880   6.073
 4978POPC   C2B64064  19.826   7.935   6.458
 4978POPC   C3B64065  19.874   7.971   6.868
 4978POPC   C4B64066  19.744   7.779   7.231
 4979POPC   NC364067   0.981  29.009   5.362
 4979POPC   PO464068   1.495  29.391   5.430
 4979POPC   GL164069   1.224  29.192   5.766
 4979POPC   GL264070   0.911  28.946   5.854
 4979POPC   C1A64071   1.077  29.349   6.156
 4979POPC   D2A64072   1.221  29.517   6.521
 4979POPC   C3A64073   1.009  29.526   6.897
 4979POPC   C4A64074   1.207  29.438   7.271
 4979POPC   C1B64075   1.221  28.866   6.155
 4979POPC   C2B64076   1.123  28.840   6.560
 4979POPC   C3B64077   0.991  29.002   6.928
 4979POPC   C4B64078   1.180  28.922   7.277
 4980POPC   NC364079  39.959  16.712   5.019
 4980POPC   PO464080  40.210  16.909   5.589
 4980POPC   GL164081  39.958  16.947   5.885
 4980POPC   GL264082  39.769  16.647   5.796
 4980POPC   C1A64083  40.094  17.038   6.286
 4980POPC   D2A64084  39.917  17.125   6.657
 4980POPC   C3A64085  40.157  17.008   7.031
 4980POPC   C4A64086  40.098  16.585   7.200
 4980POPC   C1B64087  40.010  16.544   6.174
 4980POPC   C2B64088  39.977  16.350   6.556
 4980POPC   C3B64089  39.767  16.302   6.941
 4980POPC   C4B64090  39.651  16.223   7.348
 4981POPC   NC364091  43.557  42.784   5.403
 4981POPC   PO464092  43.164  42.156   5.428
 4981POPC   GL164093  43.147  42.211   5.846
 4981POPC   GL264094  43.241  42.565   5.770
 4981POPC   C1A64095  43.364  42.054   6.240
 4981POPC   D2A64096  43.275  41.842   6.650
 4981POPC   C3A64097  43.127  42.017   7.044
 4981POPC   C4A64098  43.015  41.947   7.492
 4981POPC   C1B64099  43.311  42.564   6.185
 4981POPC   C2B64100  43.155  42.431   6.562
 4981POPC   C3B64101  42.974  42.497   6.942
 4981POPC   C4B64102  43.029  42.425   7.361
 4982POPC   NC364103   8.477  12.299   5.381
 4982POPC   PO464104   9.072  12.132   5.145
 4982POPC   GL164105   8.961  12.009   5.602
 4982POPC   GL264106   8.675  12.179   5.825
 4982POPC   C1A64107   9.084  11.995   6.068
 4982POPC   D2A64108   8.782  12.122   6.362
 4982POPC   C3A64109   8.884  11.994   6.752
 4982POPC   C4A64110   9.136  12.014   7.126
 4982POPC   C1B64111   8.464  12.461   6.128
 4982POPC   C2B64112   8.560  12.623   6.544
 4982POPC   C3B64113   8.673  12.410   6.935
 4982POPC   C4B64114   8.843  12.389   7.348
 4983POPC   NC364115  42.564  35.920   5.195
 4983POPC   PO464116  42.553  36.583   5.375
 4983POPC   GL164117  42.578  36.241   5.694
 4983POPC   GL264118  42.354  35.988   5.679
 4983POPC   C1A64119  42.710  36.118   6.134
 4983POPC   D2A64120  42.696  35.869   6.520
 4983POPC   C3A64121  42.799  36.109   6.857
 4983POPC   C4A64122  42.648  36.114   7.277
 4983POPC   C1B64123  42.196  36.041   6.096
 4983POPC   C2B64124  42.324  36.251   6.489
 4983POPC   C3B64125  42.288  36.145   6.906
 4983POPC   C4B64126  42.166  36.304   7.277
 4984POPC   NC364127  14.242  29.173   5.384
 4984POPC   PO464128  14.793  28.802   5.507
 4984POPC   GL164129  14.494  28.957   5.838
 4984POPC   GL264130  14.118  28.998   5.852
 4984POPC   C1A64131  14.378  28.852   6.279
 4984POPC   D2A64132  14.455  29.078   6.622
 4984POPC   C3A64133  14.326  28.894   6.968
 4984POPC   C4A64134  14.373  29.054   7.342
 4984POPC   C1B64135  14.153  29.302   6.163
 4984POPC   C2B64136  14.112  29.442   6.575
 4984POPC   C3B64137  14.317  29.429   6.992
 4984POPC   C4B64138  14.087  29.476   7.374
 4985POPC   NC364139  24.589  37.702   5.350
 4985POPC   PO464140  24.681  37.080   5.234
 4985POPC   GL164141  24.538  37.351   5.696
 4985POPC   GL264142  24.248  37.625   5.743
 4985POPC   C1A64143  24.583  37.610   6.127
 4985POPC   D2A64144  24.805  37.656   6.537
 4985POPC   C3A64145  24.821  37.457   6.929
 4985POPC   C4A64146  24.675  37.737   7.239
 4985POPC   C1B64147  24.101  37.435   6.130
 4985POPC   C2B64148  24.263  37.576   6.550
 4985POPC   C3B64149  24.239  37.801   6.953
 4985POPC   C4B64150  24.031  37.631   7.308
 4986POPC   NC364151   6.250  11.467   5.341
 4986POPC   PO464152   5.858  10.966   5.341
 4986POPC   GL164153   5.886  11.200   5.733
 4986POPC   GL264154   5.577  11.405   5.756
 4986POPC   C1A64155   5.904  11.356   6.178
 4986POPC   D2A64156   6.060  11.619   6.529
 4986POPC   C3A64157   6.031  11.424   6.948
 4986POPC   C4A64158   6.184  11.172   7.280
 4986POPC   C1B64159   5.402  11.389   6.179
 4986POPC   C2B64160   5.588  11.276   6.609
 4986POPC   C3B64161   5.458  11.450   7.008
 4986POPC   C4B64162   5.472  11.486   7.465
 4987POPC   NC364163  28.174   2.392   5.527
 4987POPC   PO464164  28.079   3.065   5.560
 4987POPC   GL164165  28.418   2.863   5.837
 4987POPC   GL264166  28.401   2.515   5.985
 4987POPC   C1A64167  28.536   2.956   6.277
 4987POPC   D2A64168  28.346   3.117   6.665
 4987POPC   C3A64169  28.375   3.015   7.123
 4987POPC   C4A64170  28.223   3.110   7.545
 4987POPC   C1B64171  28.129   2.645   6.359
 4987POPC   C2B64172  28.091   2.697   6.802
 4987POPC   C3B64173  28.391   2.511   7.076
 4987POPC   C4B64174  28.829   2.576   7.262
 4988POPC   NC364175   7.487  43.487   5.050
 4988POPC   PO464176   7.268  43.570   5.665
 4988POPC   GL164177   7.575  43.715   5.953
 4988POPC   GL264178   7.528  44.029   5.795
 4988POPC   C1A64179   7.640  43.733   6.399
 4988POPC   D2A64180   7.313  43.885   6.662
 4988POPC   C3A64181   7.477  43.899   7.030
 4988POPC   C4A64182   7.552  43.680   7.373
 4988POPC   C1B64183   7.272  44.070   6.184
 4988POPC   C2B64184   7.089  44.342   6.538
 4988POPC   C3B64185   7.006  44.255   7.002
 4988POPC   C4B64186   7.245  44.147   7.396
 4989POPC   NC364187  11.154  14.422   5.428
 4989POPC   PO464188  11.815  14.570   5.514
 4989POPC   GL164189  11.490  14.432   5.819
 4989POPC   GL264190  11.378  14.759   5.814
 4989POPC   C1A64191  11.132  14.361   6.159
 4989POPC   D2A64192  10.925  14.178   6.568
 4989POPC   C3A64193  11.168  14.259   6.956
 4989POPC   C4A64194  11.610  14.168   7.035
 4989POPC   C1B64195  11.493  14.725   6.248
 4989POPC   C2B64196  11.426  14.563   6.645
 4989POPC   C3B64197  11.463  14.687   7.077
 4989POPC   C4B64198  11.795  14.558   7.351
 4990POPC   NC364199  36.359  11.831   5.386
 4990POPC   PO464200  35.939  12.417   5.532
 4990POPC   GL164201  36.137  12.075   5.773
 4990POPC   GL264202  35.867  11.925   6.006
 4990POPC   C1A64203  36.373  11.844   6.074
 4990POPC   D2A64204  36.261  11.870   6.493
 4990POPC   C3A64205  36.443  11.848   6.908
 4990POPC   C4A64206  36.274  11.782   7.324
 4990POPC   C1B64207  36.033  12.262   6.260
 4990POPC   C2B64208  36.173  12.333   6.701
 4990POPC   C3B64209  36.134  12.240   7.161
 4990POPC   C4B64210  35.829  12.303   7.514
 4991POPC   NC364211  36.251   8.638   5.513
 4991POPC   PO464212  36.009   9.257   5.476
 4991POPC   GL164213  36.114   9.033   5.826
 4991POPC   GL264214  35.895   8.723   5.866
 4991POPC   C1A64215  36.172   9.168   6.254
 4991POPC   D2A64216  35.984   9.412   6.606
 4991POPC   C3A64217  36.172   9.358   7.009
 4991POPC   C4A64218  36.117   8.960   7.183
 4991POPC   C1B64219  36.257   8.660   6.182
 4991POPC   C2B64220  36.408   8.750   6.613
 4991POPC   C3B64221  36.400   8.553   7.045
 4991POPC   C4B64222  36.102   8.498   7.419
 4992POPC   NC364223   7.390   8.314   5.473
 4992POPC   PO464224   6.916   7.767   5.547
 4992POPC   GL164225   7.091   7.999   5.852
 4992POPC   GL264226   7.413   7.975   5.875
 4992POPC   C1A64227   7.172   8.093   6.306
 4992POPC   D2A64228   7.072   8.314   6.666
 4992POPC   C3A64229   7.283   8.379   7.019
 4992POPC   C4A64230   7.610   8.439   7.301
 4992POPC   C1B64231   7.647   7.899   6.258
 4992POPC   C2B64232   7.520   7.973   6.688
 4992POPC   C3B64233   7.570   7.976   7.115
 4992POPC   C4B64234   7.678   7.975   7.564
 4993POPC   NC364235   6.493  22.991   5.568
 4993POPC   PO464236   7.051  22.656   5.393
 4993POPC   GL164237   6.727  22.583   5.770
 4993POPC   GL264238   6.319  22.527   5.774
 4993POPC   C1A64239   6.626  22.795   6.184
 4993POPC   D2A64240   6.323  23.085   6.406
 4993POPC   C3A64241   6.421  23.084   6.828
 4993POPC   C4A64242   6.822  23.006   7.079
 4993POPC   C1B64243   6.154  22.635   6.219
 4993POPC   C2B64244   6.345  22.596   6.646
 4993POPC   C3B64245   6.407  22.647   7.114
 4993POPC   C4B64246   6.317  22.563   7.556
 4994POPC   NC364247  33.359  41.561   5.396
 4994POPC   PO464248  32.681  41.442   5.460
 4994POPC   GL164249  32.996  41.555   5.791
 4994POPC   GL264250  33.236  41.297   5.806
 4994POPC   C1A64251  33.071  41.664   6.247
 4994POPC   D2A64252  32.789  41.763   6.613
 4994POPC   C3A64253  32.815  41.469   6.953
 4994POPC   C4A64254  33.035  41.705   7.315
 4994POPC   C1B64255  33.444  41.279   6.172
 4994POPC   C2B64256  33.550  41.529   6.511
 4994POPC   C3B64257  33.309  41.538   6.889
 4994POPC   C4B64258  33.209  41.225   7.235
 4995POPC   NC364259  33.940  33.856   5.168
 4995POPC   PO464260  33.386  33.573   5.469
 4995POPC   GL164261  33.697  33.814   5.752
 4995POPC   GL264262  34.042  33.757   5.743
 4995POPC   C1A64263  33.880  34.027   6.139
 4995POPC   D2A64264  33.832  33.753   6.515
 4995POPC   C3A64265  33.833  33.931   6.926
 4995POPC   C4A64266  33.868  33.822   7.365
 4995POPC   C1B64267  34.169  33.584   6.153
 4995POPC   C2B64268  34.263  33.419   6.587
 4995POPC   C3B64269  34.244  33.556   7.036
 4995POPC   C4B64270  34.117  33.385   7.437
 4996POPC   NC364271  19.929  10.122   5.120
 4996POPC   PO464272  19.498   9.673   5.321
 4996POPC   GL164273  19.742   9.686   5.710
 4996POPC   GL264274  19.670   9.390   5.916
 4996POPC   C1A64275  19.991   9.982   5.980
 4996POPC   D2A64276  20.175  10.105   6.403
 4996POPC   C3A64277  20.057   9.783   6.717
 4996POPC   C4A64278  19.959   9.792   7.139
 4996POPC   C1B64279  19.580   9.736   6.222
 4996POPC   C2B64280  19.381   9.811   6.615
 4996POPC   C3B64281  19.558   9.593   6.930
 4996POPC   C4B64282  19.532   9.654   7.389
 4997POPC   NC364283  32.178  29.862   4.965
 4997POPC   PO464284  31.786  29.500   5.370
 4997POPC   GL164285  32.040  29.813   5.729
 4997POPC   GL264286  32.013  30.200   5.859
 4997POPC   C1A64287  32.142  29.830   6.217
 4997POPC   D2A64288  31.987  29.830   6.692
 4997POPC   C3A64289  32.292  29.904   7.065
 4997POPC   C4A64290  32.344  29.783   7.512
 4997POPC   C1B64291  31.864  30.250   6.254
 4997POPC   C2B64292  32.064  30.337   6.613
 4997POPC   C3B64293  31.932  30.267   6.997
 4997POPC   C4B64294  32.067  30.261   7.397
 4998POPC   NC364295  35.708   0.140   5.431
 4998POPC   PO464296  36.361   0.229   5.531
 4998POPC   GL164297  36.317   0.385   5.874
 4998POPC   GL264298  35.953   0.385   5.840
 4998POPC   C1A64299  36.411   0.323   6.278
 4998POPC   D2A64300  36.111   0.322   6.592
 4998POPC   C3A64301  36.339   0.264   6.937
 4998POPC   C4A64302  36.369   0.411   7.330
 4998POPC   C1B64303  35.936   0.637   6.201
 4998POPC   C2B64304  35.719   0.666   6.581
 4998POPC   C3B64305  35.683   0.383   6.896
 4998POPC   C4B64306  35.867   0.329   7.291
 4999POPC   NC364307  41.968  24.603   5.471
 4999POPC   PO464308  42.561  24.297   5.192
 4999POPC   GL164309  42.546  24.489   5.657
 4999POPC   GL264310  42.267  24.328   5.835
 4999POPC   C1A64311  42.486  24.633   6.151
 4999POPC   D2A64312  42.419  24.402   6.572
 4999POPC   C3A64313  42.213  24.568   6.976
 4999POPC   C4A64314  42.419  24.721   7.384
 4999POPC   C1B64315  42.116  24.100   6.226
 4999POPC   C2B64316  41.959  24.182   6.647
 4999POPC   C3B64317  41.952  24.129   7.081
 4999POPC   C4B64318  41.999  24.371   7.449
 5000POPC   NC364319  32.924  28.664   5.480
 5000POPC   PO464320  33.276  28.125   5.345
 5000POPC   GL164321  33.254  28.255   5.789
 5000POPC   GL264322  33.235  28.597   5.901
 5000POPC   C1A64323  33.319  28.243   6.259
 5000POPC   D2A64324  33.180  28.558   6.578
 5000POPC   C3A64325  33.115  28.376   6.980
 5000POPC   C4A64326  33.345  28.070   7.193
 5000POPC   C1B64327  32.864  28.465   6.166
 5000POPC   C2B64328  32.715  28.283   6.580
 5000POPC   C3B64329  32.619  28.477   6.989
 5000POPC   C4B64330  32.817  28.564   7.349
 5001POPC   NC364331  18.606  42.924   5.372
 5001POPC   PO464332  19.256  43.020   5.416
 5001POPC   GL164333  19.139  43.052   5.850
 5001POPC   GL264334  18.803  43.153   5.801
 5001POPC   C1A64335  19.100  43.166   6.303
 5001POPC   D2A64336  19.031  42.906   6.711
 5001POPC   C3A64337  19.179  42.986   7.154
 5001POPC   C4A64338  19.001  43.144   7.562
 5001POPC   C1B64339  18.650  43.438   6.104
 5001POPC   C2B64340  18.739  43.425   6.544
 5001POPC   C3B64341  18.705  43.268   6.953
 5001POPC   C4B64342  18.572  43.336   7.377
 5002POPC   NC364343  14.037  13.011   5.264
 5002POPC   PO464344  14.564  12.686   5.259
 5002POPC   GL164345  14.263  12.675   5.605
 5002POPC   GL264346  14.534  12.820   5.782
 5002POPC   C1A64347  14.100  12.758   6.045
 5002POPC   D2A64348  14.080  12.922   6.490
 5002POPC   C3A64349  14.230  12.826   6.921
 5002POPC   C4A64350  14.359  13.138   7.181
 5002POPC   C1B64351  14.568  12.958   6.195
 5002POPC   C2B64352  14.586  12.750   6.553
 5002POPC   C3B64353  14.734  12.870   6.929
 5002POPC   C4B64354  14.826  12.653   7.246
 5003POPC   NC364355   3.799  32.152   5.332
 5003POPC   PO464356   3.256  32.510   5.525
 5003POPC   GL164357   3.558  32.299   5.802
 5003POPC   GL264358   3.519  31.945   5.749
 5003POPC   C1A64359   3.700  32.385   6.242
 5003POPC   D2A64360   3.582  32.659   6.597
 5003POPC   C3A64361   3.474  32.419   6.996
 5003POPC   C4A64362   3.807  32.307   7.268
 5003POPC   C1B64363   3.684  31.867   6.160
 5003POPC   C2B64364   3.907  31.957   6.539
 5003POPC   C3B64365   3.870  31.889   6.978
 5003POPC   C4B64366   3.650  31.832   7.376
 5004POPC   NC364367  35.100  35.784   5.385
 5004POPC   PO464368  35.276  35.097   5.459
 5004POPC   GL164369  35.194  35.392   5.748
 5004POPC   GL264370  35.499  35.593   5.623
 5004POPC   C1A64371  35.268  35.231   6.184
 5004POPC   D2A64372  35.209  35.268   6.619
 5004POPC   C3A64373  35.345  35.282   7.024
 5004POPC   C4A64374  35.262  35.707   7.189
 5004POPC   C1B64375  35.516  35.666   6.055
 5004POPC   C2B64376  35.554  35.625   6.480
 5004POPC   C3B64377  35.669  35.632   6.885
 5004POPC   C4B64378  35.741  35.562   7.304
 5005POPC   NC364379   9.117   6.418   5.444
 5005POPC   PO464380   8.691   6.914   5.447
 5005POPC   GL164381   8.681   6.579   5.737
 5005POPC   GL264382   9.013   6.663   5.877
 5005POPC   C1A64383   8.657   6.517   6.203
 5005POPC   D2A64384   9.006   6.492   6.496
 5005POPC   C3A64385   8.918   6.352   6.902
 5005POPC   C4A64386   8.602   6.599   7.093
 5005POPC   C1B64387   9.363   6.586   6.131
 5005POPC   C2B64388   9.450   6.732   6.543
 5005POPC   C3B64389   9.155   6.815   6.886
 5005POPC   C4B64390   9.203   6.691   7.306
 5006POPC   NC364391  38.194  34.484   5.340
 5006POPC   PO464392  37.539  34.684   5.367
 5006POPC   GL164393  37.447  34.603   5.793
 5006POPC   GL264394  37.468  34.256   5.818
 5006POPC   C1A64395  37.651  34.556   6.212
 5006POPC   D2A64396  37.842  34.515   6.624
 5006POPC   C3A64397  37.634  34.762   6.960
 5006POPC   C4A64398  37.277  34.764   7.301
 5006POPC   C1B64399  37.555  34.026   6.197
 5006POPC   C2B64400  37.743  34.004   6.604
 5006POPC   C3B64401  37.620  34.174   6.979
 5006POPC   C4B64402  37.802  34.427   7.284
 5007POPC   NC364403  30.512  33.664   5.422
 5007POPC   PO464404  30.979  34.077   5.313
 5007POPC   GL164405  30.897  33.826   5.765
 5007POPC   GL264406  30.602  33.600   5.910
 5007POPC   C1A64407  30.904  33.822   6.256
 5007POPC   D2A64408  30.690  33.854   6.667
 5007POPC   C3A64409  30.917  33.693   7.020
 5007POPC   C4A64410  30.890  33.756   7.439
 5007POPC   C1B64411  30.376  33.634   6.309
 5007POPC   C2B64412  30.206  33.623   6.728
 5007POPC   C3B64413  30.376  33.448   7.077
 5007POPC   C4B64414  30.702  33.284   7.327
 5008POPC   NC364415  22.072   2.219   5.244
 5008POPC   PO464416  22.409   1.627   5.270
 5008POPC   GL164417  22.278   1.653   5.708
 5008POPC   GL264418  22.100   1.980   5.709
 5008POPC   C1A64419  22.162   1.650   6.164
 5008POPC   D2A64420  21.851   1.606   6.496
 5008POPC   C3A64421  21.942   1.470   6.925
 5008POPC   C4A64422  22.225   1.695   7.205
 5008POPC   C1B64423  21.860   2.067   6.076
 5008POPC   C2B64424  21.818   2.138   6.493
 5008POPC   C3B64425  21.750   1.985   6.893
 5008POPC   C4B64426  21.965   2.198   7.234
 5009POPC   NC364427  20.846   7.624   5.004
 5009POPC   PO464428  20.583   8.223   5.363
 5009POPC   GL164429  20.816   8.406   5.729
 5009POPC   GL264430  20.502   8.393   5.955
 5009POPC   C1A64431  20.972   8.345   6.146
 5009POPC   D2A64432  20.697   8.291   6.477
 5009POPC   C3A64433  20.748   8.270   6.923
 5009POPC   C4A64434  20.452   8.423   7.227
 5009POPC   C1B64435  20.379   7.991   6.189
 5009POPC   C2B64436  20.303   7.750   6.555
 5009POPC   C3B64437  20.367   7.935   6.960
 5009POPC   C4B64438  20.230   7.785   7.349
 5010POPC   NC364439  37.229  19.597   5.308
 5010POPC   PO464440  37.901  19.733   5.447
 5010POPC   GL164441  37.709  19.822   5.871
 5010POPC   GL264442  37.417  20.080   5.899
 5010POPC   C1A64443  37.785  19.615   6.270
 5010POPC   D2A64444  38.003  19.447   6.635
 5010POPC   C3A64445  37.851  19.593   7.035
 5010POPC   C4A64446  37.426  19.577   7.200
 5010POPC   C1B64447  37.643  20.130   6.280
 5010POPC   C2B64448  37.649  19.931   6.678
 5010POPC   C3B64449  37.572  20.099   7.067
 5010POPC   C4B64450  37.350  20.434   7.270
 5011POPC   NC364451   5.650  13.092   5.378
 5011POPC   PO464452   6.285  12.950   5.476
 5011POPC   GL164453   5.927  13.057   5.815
 5011POPC   GL264454   5.509  13.039   5.846
 5011POPC   C1A64455   5.835  12.790   6.175
 5011POPC   D2A64456   6.030  12.649   6.557
 5011POPC   C3A64457   6.044  12.973   6.876
 5011POPC   C4A64458   5.983  13.196   7.276
 5011POPC   C1B64459   5.311  12.927   6.212
 5011POPC   C2B64460   5.524  12.815   6.606
 5011POPC   C3B64461   5.558  12.883   7.054
 5011POPC   C4B64462   5.348  13.132   7.332
 5012POPC   NC364463  13.424  43.656   5.214
 5012POPC   PO464464  14.010  43.971   5.111
 5012POPC   GL164465  13.865  43.760   5.520
 5012POPC   GL264466  13.692  43.412   5.581
 5012POPC   C1A64467  13.806  43.701   5.986
 5012POPC   D2A64468  13.617  43.810   6.417
 5012POPC   C3A64469  13.860  43.782   6.775
 5012POPC   C4A64470  13.803  43.935   7.188
 5012POPC   C1B64471  13.458  43.328   6.012
 5012POPC   C2B64472  13.327  43.361   6.485
 5012POPC   C3B64473  13.356  43.650   6.873
 5012POPC   C4B64474  13.349  43.799   7.323
 5013POPC   NC364475  36.374  43.023   5.389
 5013POPC   PO464476  36.107  43.687   5.400
 5013POPC   GL164477  36.053  43.422   5.791
 5013POPC   GL264478  36.164  43.068   5.840
 5013POPC   C1A64479  36.264  43.434   6.201
 5013POPC   D2A64480  36.509  43.362   6.584
 5013POPC   C3A64481  36.250  43.368   6.956
 5013POPC   C4A64482  36.269  43.215   7.366
 5013POPC   C1B64483  36.410  42.948   6.200
 5013POPC   C2B64484  36.239  42.929   6.610
 5013POPC   C3B64485  36.192  42.816   7.032
 5013POPC   C4B64486  35.962  42.756   7.402
 5014POPC   NC364487  38.745  28.653   5.451
 5014POPC   PO464488  38.238  28.193   5.393
 5014POPC   GL164489  38.413  28.355   5.767
 5014POPC   GL264490  38.275  28.678   5.781
 5014POPC   C1A64491  38.513  28.188   6.179
 5014POPC   D2A64492  38.507  27.962   6.564
 5014POPC   C3A64493  38.642  28.142   6.936
 5014POPC   C4A64494  38.675  27.925   7.318
 5014POPC   C1B64495  38.503  28.717   6.163
 5014POPC   C2B64496  38.597  28.556   6.566
 5014POPC   C3B64497  38.840  28.612   6.923
 5014POPC   C4B64498  38.702  28.468   7.350
 5015POPC   NC364499  14.410  37.063   5.364
 5015POPC   PO464500  13.984  36.575   5.467
 5015POPC   GL164501  14.155  36.861   5.802
 5015POPC   GL264502  14.141  37.239   5.792
 5015POPC   C1A64503  14.392  36.799   6.210
 5015POPC   D2A64504  14.233  36.787   6.652
 5015POPC   C3A64505  14.469  36.774   7.040
 5015POPC   C4A64506  14.720  37.106   7.262
 5015POPC   C1B64507  14.471  37.302   6.123
 5015POPC   C2B64508  14.631  37.178   6.540
 5015POPC   C3B64509  14.388  37.260   6.910
 5015POPC   C4B64510  14.057  37.110   7.194
 5016POPC   NC364511  25.259   7.277   5.396
 5016POPC   PO464512  25.116   7.889   5.472
 5016POPC   GL164513  25.259   7.603   5.799
 5016POPC   GL264514  25.008   7.305   5.836
 5016POPC   C1A64515  25.195   7.630   6.233
 5016POPC   D2A64516  24.895   7.719   6.532
 5016POPC   C3A64517  25.133   7.734   6.883
 5016POPC   C4A64518  25.182   7.669   7.310
 5016POPC   C1B64519  25.236   7.134   6.195
 5016POPC   C2B64520  25.187   7.267   6.613
 5016POPC   C3B64521  25.161   7.226   7.043
 5016POPC   C4B64522  25.571   7.329   7.128
 5017POPC   NC364523  35.706  27.015   5.441
 5017POPC   PO464524  36.067  26.443   5.400
 5017POPC   GL164525  36.207  26.634   5.781
 5017POPC   GL264526  35.877  26.731   5.862
 5017POPC   C1A64527  36.270  26.585   6.239
 5017POPC   D2A64528  36.498  26.678   6.630
 5017POPC   C3A64529  36.389  26.707   7.099
 5017POPC   C4A64530  36.265  27.011   7.474
 5017POPC   C1B64531  35.749  26.554   6.266
 5017POPC   C2B64532  35.958  26.574   6.665
 5017POPC   C3B64533  35.901  26.778   7.038
 5017POPC   C4B64534  35.986  26.601   7.441
 5018POPC   NC364535   7.342  15.399   5.414
 5018POPC   PO464536   7.290  14.734   5.329
 5018POPC   GL164537   7.356  14.947   5.775
 5018POPC   GL264538   7.663  15.146   5.759
 5018POPC   C1A64539   7.144  14.951   6.220
 5018POPC   D2A64540   7.196  14.710   6.617
 5018POPC   C3A64541   7.148  14.948   6.994
 5018POPC   C4A64542   7.297  14.993   7.417
 5018POPC   C1B64543   7.517  15.353   6.189
 5018POPC   C2B64544   7.393  15.226   6.621
 5018POPC   C3B64545   7.392  15.390   7.056
 5018POPC   C4B64546   7.499  15.747   7.236
 5019POPC   NC364547  36.201  11.065   5.400
 5019POPC   PO464548  35.839  11.621   5.445
 5019POPC   GL164549  36.069  11.504   5.787
 5019POPC   GL264550  35.937  11.178   5.816
 5019POPC   C1A64551  35.988  11.482   6.253
 5019POPC   D2A64552  36.206  11.414   6.684
 5019POPC   C3A64553  35.954  11.475   7.007
 5019POPC   C4A64554  35.978  11.392   7.413
 5019POPC   C1B64555  36.118  10.957   6.187
 5019POPC   C2B64556  36.304  10.913   6.607
 5019POPC   C3B64557  36.115  10.965   7.030
 5019POPC   C4B64558  36.275  10.974   7.467
 5020POPC   NC364559  36.071   4.670   5.402
 5020POPC   PO464560  36.430   4.158   5.221
 5020POPC   GL164561  36.296   4.286   5.684
 5020POPC   GL264562  35.944   4.285   5.845
 5020POPC   C1A64563  36.337   4.506   6.116
 5020POPC   D2A64564  36.420   4.334   6.543
 5020POPC   C3A64565  36.190   4.479   6.906
 5020POPC   C4A64566  36.308   4.722   7.271
 5020POPC   C1B64567  36.005   4.056   6.277
 5020POPC   C2B64568  35.997   3.988   6.733
 5020POPC   C3B64569  35.880   4.130   7.132
 5020POPC   C4B64570  36.104   4.097   7.539
 5021POPC   NC364571  15.573  44.728   5.499
 5021POPC   PO464572  15.040  44.972   5.767
 5021POPC   GL164573  15.301  44.709   5.936
 5021POPC   GL264574  15.562  44.958   5.999
 5021POPC   C1A64575  15.161  44.454   6.256
 5021POPC   D2A64576  14.952  44.339   6.621
 5021POPC   C3A64577  15.168  44.367   6.998
 5021POPC   C4A64578  15.151  44.623   7.342
 5021POPC   C1B64579  15.339  44.926   6.403
 5021POPC   C2B64580  15.176  44.842   6.801
 5021POPC   C3B64581  15.046   0.095   7.141
 5021POPC   C4B64582  14.957   0.247   7.563
 5022POPC   NC364583  28.085  44.881   5.486
 5022POPC   PO464584  28.608  44.525   5.371
 5022POPC   GL164585  28.555  44.451   5.814
 5022POPC   GL264586  28.729  44.735   5.972
 5022POPC   C1A64587  28.513  44.391   6.262
 5022POPC   D2A64588  28.572  44.707   6.564
 5022POPC   C3A64589  28.617  44.599   6.975
 5022POPC   C4A64590  28.339  44.367   7.199
 5022POPC   C1B64591  28.311  44.849   6.132
 5022POPC   C2B64592  28.098  44.896   6.520
 5022POPC   C3B64593  28.243  44.951   6.919
 5022POPC   C4B64594  28.066   0.211   7.194
 5023POPC   NC364595  22.681  25.005   5.415
 5023POPC   PO464596  23.154  25.523   5.482
 5023POPC   GL164597  23.050  25.473   5.885
 5023POPC   GL264598  22.965  25.114   5.842
 5023POPC   C1A64599  22.919  25.373   6.280
 5023POPC   D2A64600  22.948  25.018   6.561
 5023POPC   C3A64601  22.990  25.172   6.982
 5023POPC   C4A64602  23.059  25.082   7.424
 5023POPC   C1B64603  22.557  25.092   6.059
 5023POPC   C2B64604  22.426  24.969   6.470
 5023POPC   C3B64605  22.539  24.877   6.900
 5023POPC   C4B64606  22.600  24.920   7.343
 5024POPC   NC364607  38.865  22.384   5.396
 5024POPC   PO464608  39.026  21.892   5.109
 5024POPC   GL164609  39.023  22.017   5.681
 5024POPC   GL264610  39.314  22.214   5.749
 5024POPC   C1A64611  38.930  22.236   6.124
 5024POPC   D2A64612  39.136  22.455   6.516
 5024POPC   C3A64613  39.210  22.262   6.951
 5024POPC   C4A64614  39.036  22.076   7.348
 5024POPC   C1B64615  39.343  21.936   6.132
 5024POPC   C2B64616  39.579  21.967   6.528
 5024POPC   C3B64617  39.692  21.827   6.925
 5024POPC   C4B64618  39.466  21.784   7.288
 5025POPC   NC364619  18.026  27.037   5.551
 5025POPC   PO464620  17.541  26.610   5.532
 5025POPC   GL164621  17.623  26.779   5.935
 5025POPC   GL264622  17.263  26.756   6.033
 5025POPC   C1A64623  17.634  26.834   6.400
 5025POPC   D2A64624  17.393  26.773   6.800
 5025POPC   C3A64625  17.620  26.734   7.196
 5025POPC   C4A64626  17.725  26.501   7.565
 5025POPC   C1B64627  17.079  27.053   6.346
 5025POPC   C2B64628  17.019  27.147   6.784
 5025POPC   C3B64629  17.272  27.142   7.168
 5025POPC   C4B64630  17.610  27.256   7.459
 5026POPC   NC364631   5.057  22.225   5.146
 5026POPC   PO464632   4.766  21.700   5.411
 5026POPC   GL164633   4.846  22.111   5.634
 5026POPC   GL264634   5.215  22.206   5.656
 5026POPC   C1A64635   4.785  22.290   6.079
 5026POPC   D2A64636   4.945  22.438   6.493
 5026POPC   C3A64637   4.762  22.418   6.912
 5026POPC   C4A64638   5.101  22.364   7.192
 5026POPC   C1B64639   5.133  21.921   6.009
 5026POPC   C2B64640   5.018  21.939   6.436
 5026POPC   C3B64641   4.981  21.949   6.880
 5026POPC   C4B64642   5.279  21.749   7.168
 5027POPC   NC364643  20.460   8.700   5.521
 5027POPC   PO464644  20.856   9.187   5.431
 5027POPC   GL164645  20.736   9.007   5.844
 5027POPC   GL264646  20.362   8.909   5.965
 5027POPC   C1A64647  20.608   9.313   6.159
 5027POPC   D2A64648  20.293   9.396   6.445
 5027POPC   C3A64649  20.498   9.227   6.790
 5027POPC   C4A64650  20.345   8.954   7.128
 5027POPC   C1B64651  20.640   8.778   6.300
 5027POPC   C2B64652  20.617   8.731   6.748
 5027POPC   C3B64653  20.880   8.724   7.116
 5027POPC   C4B64654  20.958   8.395   7.426
 5028POPC   NC364655  44.768  40.735   5.419
 5028POPC   PO464656  44.758  40.085   5.343
 5028POPC   GL164657  44.742  40.032   5.798
 5028POPC   GL264658   0.002  40.300   5.783
 5028POPC   C1A64659  44.529  39.894   6.249
 5028POPC   D2A64660  44.435  39.893   6.748
 5028POPC   C3A64661  44.634  39.810   7.163
 5028POPC   C4A64662  44.488  39.733   7.613
 5028POPC   C1B64663  44.782  40.346   6.181
 5028POPC   C2B64664  44.873  40.131   6.546
 5028POPC   C3B64665  44.897  40.195   6.931
 5028POPC   C4B64666  44.653  40.301   7.241
 5029POPC   NC364667   4.958  28.177   5.433
 5029POPC   PO464668   5.066  28.818   5.274
 5029POPC   GL164669   5.106  28.584   5.704
 5029POPC   GL264670   5.394  28.327   5.709
 5029POPC   C1A64671   5.059  28.324   6.108
 5029POPC   D2A64672   4.822  28.241   6.492
 5029POPC   C3A64673   5.047  28.315   6.858
 5029POPC   C4A64674   5.088  28.336   7.302
 5029POPC   C1B64675   5.472  28.043   6.053
 5029POPC   C2B64676   5.437  28.073   6.481
 5029POPC   C3B64677   5.458  28.017   6.923
 5029POPC   C4B64678   5.554  28.158   7.278
 5030POPC   NC364679   0.812   3.364   5.435
 5030POPC   PO464680   0.174   3.654   5.177
 5030POPC   GL164681   0.287   3.640   5.644
 5030POPC   GL264682   0.308   3.314   5.806
 5030POPC   C1A64683   0.358   3.808   6.084
 5030POPC   D2A64684   0.642   3.806   6.476
 5030POPC   C3A64685   0.495   3.726   6.917
 5030POPC   C4A64686   0.567   3.612   7.339
 5030POPC   C1B64687   0.507   3.319   6.198
 5030POPC   C2B64688   0.537   3.283   6.627
 5030POPC   C3B64689   0.535   3.180   7.042
 5030POPC   C4B64690   0.204   3.218   7.314
 5031POPC   NC364691   1.351   5.141   5.379
 5031POPC   PO464692   0.687   5.208   5.290
 5031POPC   GL164693   0.954   5.215   5.742
 5031POPC   GL264694   1.280   5.044   5.857
 5031POPC   C1A64695   0.916   5.088   6.218
 5031POPC   D2A64696   0.849   4.850   6.605
 5031POPC   C3A64697   0.938   4.990   7.016
 5031POPC   C4A64698   0.978   5.378   7.260
 5031POPC   C1B64699   1.390   5.299   6.204
 5031POPC   C2B64700   1.263   5.212   6.624
 5031POPC   C3B64701   1.427   5.175   7.033
 5031POPC   C4B64702   1.467   5.493   7.308
 5032POPC   NC364703  13.025  24.729   5.259
 5032POPC   PO464704  12.750  24.146   5.204
 5032POPC   GL164705  12.873  24.363   5.604
 5032POPC   GL264706  13.236  24.433   5.634
 5032POPC   C1A64707  12.797  24.497   6.050
 5032POPC   D2A64708  12.719  24.342   6.464
 5032POPC   C3A64709  12.752  24.611   6.793
 5032POPC   C4A64710  12.775  24.488   7.201
 5032POPC   C1B64711  13.305  24.530   6.054
 5032POPC   C2B64712  13.255  24.383   6.463
 5032POPC   C3B64713  13.213  24.348   6.884
 5032POPC   C4B64714  13.289  24.489   7.291
 5033POPC   NC364715   2.844  18.853   5.834
 5033POPC   PO464716   2.607  19.355   5.613
 5033POPC   GL164717   2.652  19.321   6.026
 5033POPC   GL264718   3.016  19.361   6.025
 5033POPC   C1A64719   2.468  19.074   6.357
 5033POPC   D2A64720   2.416  18.860   6.715
 5033POPC   C3A64721   2.616  19.020   7.060
 5033POPC   C4A64722   2.379  19.250   7.322
 5033POPC   C1B64723   2.967  19.143   6.431
 5033POPC   C2B64724   2.908  18.745   6.662
 5033POPC   C3B64725   3.061  18.781   7.090
 5033POPC   C4B64726   3.099  19.237   7.209
 5034POPC   NC364727  41.068  12.486   5.453
 5034POPC   PO464728  41.794  12.498   5.480
 5034POPC   GL164729  41.635  12.792   5.849
 5034POPC   GL264730  41.425  13.111   5.750
 5034POPC   C1A64731  41.584  12.805   6.324
 5034POPC   D2A64732  41.835  12.953   6.656
 5034POPC   C3A64733  41.626  12.980   7.047
 5034POPC   C4A64734  41.247  12.733   7.155
 5034POPC   C1B64735  41.543  13.273   6.160
 5034POPC   C2B64736  41.443  13.300   6.627
 5034POPC   C3B64737  41.157  13.219   6.987
 5034POPC   C4B64738  41.280  13.170   7.447
 5035POPC   NC364739  33.925   0.017   5.472
 5035POPC   PO464740  33.848  44.356   5.531
 5035POPC   GL164741  33.747  44.615   5.892
 5035POPC   GL264742  33.472  44.867   5.818
 5035POPC   C1A64743  34.041  44.780   6.223
 5035POPC   D2A64744  34.255  44.592   6.597
 5035POPC   C3A64745  34.045  44.539   7.011
 5035POPC   C4A64746  33.600  44.544   7.113
 5035POPC   C1B64747  33.455  44.824   6.278
 5035POPC   C2B64748  33.724  44.714   6.617
 5035POPC   C3B64749  34.002  44.999   6.833
 5035POPC   C4B64750  33.726   0.048   7.160
 5036POPC   NC364751  39.320  41.878   5.311
 5036POPC   PO464752  38.931  42.378   5.286
 5036POPC   GL164753  39.147  42.188   5.684
 5036POPC   GL264754  38.947  41.911   5.796
 5036POPC   C1A64755  39.305  42.277   6.123
 5036POPC   D2A64756  39.156  42.558   6.482
 5036POPC   C3A64757  39.259  42.457   6.916
 5036POPC   C4A64758  39.408  42.601   7.303
 5036POPC   C1B64759  38.835  42.091   6.222
 5036POPC   C2B64760  38.977  42.083   6.675
 5036POPC   C3B64761  39.010  42.046   7.143
 5036POPC   C4B64762  39.066  42.042   7.635
 5037POPC   NC364763   7.025   3.444   5.120
 5037POPC   PO464764   7.641   3.719   5.249
 5037POPC   GL164765   7.581   3.565   5.666
 5037POPC   GL264766   7.225   3.471   5.655
 5037POPC   C1A64767   7.537   3.481   6.111
 5037POPC   D2A64768   7.225   3.353   6.416
 5037POPC   C3A64769   7.367   3.506   6.807
 5037POPC   C4A64770   7.484   3.412   7.220
 5037POPC   C1B64771   7.190   3.819   5.968
 5037POPC   C2B64772   7.222   3.883   6.420
 5037POPC   C3B64773   7.067   3.903   6.836
 5037POPC   C4B64774   7.016   3.620   7.176
 5038POPC   NC364775  10.512  20.244   5.295
 5038POPC   PO464776  10.615  20.856   5.603
 5038POPC   GL164777  10.410  20.545   5.802
 5038POPC   GL264778  10.703  20.342   5.777
 5038POPC   C1A64779  10.211  20.621   6.226
 5038POPC   D2A64780  10.028  20.632   6.650
 5038POPC   C3A64781  10.331  20.697   7.007
 5038POPC   C4A64782  10.531  20.807   7.419
 5038POPC   C1B64783  10.734  20.450   6.241
 5038POPC   C2B64784  10.674  20.399   6.713
 5038POPC   C3B64785  10.794  20.464   7.150
 5038POPC   C4B64786  10.877  20.451   7.596
 5039POPC   NC364787  29.829  27.960   5.474
 5039POPC   PO464788  29.544  27.362   5.537
 5039POPC   GL164789  29.625  27.676   5.891
 5039POPC   GL264790  29.491  28.038   5.843
 5039POPC   C1A64791  29.790  27.576   6.338
 5039POPC   D2A64792  29.657  27.341   6.747
 5039POPC   C3A64793  29.863  27.357   7.152
 5039POPC   C4A64794  29.969  27.692   7.456
 5039POPC   C1B64795  29.833  28.057   6.158
 5039POPC   C2B64796  30.059  27.972   6.539
 5039POPC   C3B64797  29.932  27.853   6.933
 5039POPC   C4B64798  29.806  28.122   7.242
 5040POPC   NC364799  39.530  12.514   5.178
 5040POPC   PO464800  39.138  13.028   5.441
 5040POPC   GL164801  38.993  12.967   5.821
 5040POPC   GL264802  39.212  12.677   5.831
 5040POPC   C1A64803  38.952  12.827   6.242
 5040POPC   D2A64804  39.230  12.610   6.514
 5040POPC   C3A64805  39.064  12.733   6.880
 5040POPC   C4A64806  38.904  13.101   7.087
 5040POPC   C1B64807  39.460  12.931   6.136
 5040POPC   C2B64808  39.621  12.996   6.559
 5040POPC   C3B64809  39.389  13.135   6.894
 5040POPC   C4B64810  39.339  12.894   7.271
 5041POPC   NC364811  31.280   3.735   5.261
 5041POPC   PO464812  31.873   3.501   5.465
 5041POPC   GL164813  31.562   3.670   5.797
 5041POPC   GL264814  31.211   3.584   5.759
 5041POPC   C1A64815  31.520   3.702   6.270
 5041POPC   D2A64816  31.407   3.838   6.692
 5041POPC   C3A64817  31.498   3.600   7.024
 5041POPC   C4A64818  31.827   3.624   7.251
 5041POPC   C1B64819  31.134   3.371   6.171
 5041POPC   C2B64820  31.301   3.338   6.604
 5041POPC   C3B64821  31.205   3.164   7.024
 5041POPC   C4B64822  31.295   3.080   7.490
 5042POPC   NC364823  11.459   4.290   5.425
 5042POPC   PO464824  10.812   4.168   5.508
 5042POPC   GL164825  11.152   4.349   5.827
 5042POPC   GL264826  11.552   4.370   5.908
 5042POPC   C1A64827  11.219   4.538   6.241
 5042POPC   D2A64828  11.087   4.347   6.588
 5042POPC   C3A64829  11.191   4.472   6.980
 5042POPC   C4A64830  10.925   4.253   7.272
 5042POPC   C1B64831  11.693   4.207   6.291
 5042POPC   C2B64832  11.635   4.261   6.732
 5042POPC   C3B64833  11.608   4.238   7.171
 5042POPC   C4B64834  11.694   4.201   7.617
 5043POPC   NC364835  13.688  16.435   5.294
 5043POPC   PO464836  13.981  15.809   5.337
 5043POPC   GL164837  13.821  15.875   5.752
 5043POPC   GL264838  13.594  16.137   5.725
 5043POPC   C1A64839  13.869  15.798   6.214
 5043POPC   D2A64840  13.852  16.015   6.663
 5043POPC   C3A64841  13.755  15.865   7.135
 5043POPC   C4A64842  13.572  15.548   7.476
 5043POPC   C1B64843  13.759  16.299   6.120
 5043POPC   C2B64844  13.685  16.532   6.508
 5043POPC   C3B64845  13.675  16.419   6.937
 5043POPC   C4B64846  13.296  16.297   7.148
 5044POPC   NC364847   5.519  35.562   5.463
 5044POPC   PO464848   5.022  35.117   5.432
 5044POPC   GL164849   5.064  35.416   5.775
 5044POPC   GL264850   5.356  35.293   5.886
 5044POPC   C1A64851   5.039  35.572   6.236
 5044POPC   D2A64852   4.854  35.384   6.639
 5044POPC   C3A64853   4.907  35.350   7.085
 5044POPC   C4A64854   4.846  35.659   7.396
 5044POPC   C1B64855   5.428  35.255   6.306
 5044POPC   C2B64856   5.329  35.236   6.727
 5044POPC   C3B64857   5.430  35.335   7.121
 5044POPC   C4B64858   5.321  35.027   7.404
 5045POPC   NC364859   0.376  42.868   4.877
 5045POPC   PO464860   0.305  43.338   5.359
 5045POPC   GL164861   0.526  43.254   5.751
 5045POPC   GL264862   0.736  42.967   5.725
 5045POPC   C1A64863   0.390  43.274   6.198
 5045POPC   D2A64864   0.197  43.292   6.600
 5045POPC   C3A64865   0.465  43.412   6.919
 5045POPC   C4A64866   0.401  43.002   7.090
 5045POPC   C1B64867   0.590  42.808   6.151
 5045POPC   C2B64868   0.578  42.858   6.621
 5045POPC   C3B64869   0.855  42.764   7.025
 5045POPC   C4B64870   0.691  42.792   7.470
 5046POPC   NC364871  28.323  37.967   5.348
 5046POPC   PO464872  28.601  37.378   5.304
 5046POPC   GL164873  28.660  37.685   5.677
 5046POPC   GL264874  28.334  37.798   5.812
 5046POPC   C1A64875  28.653  37.661   6.164
 5046POPC   D2A64876  28.391  37.582   6.518
 5046POPC   C3A64877  28.540  37.698   6.904
 5046POPC   C4A64878  28.608  37.414   7.267
 5046POPC   C1B64879  28.168  37.877   6.167
 5046POPC   C2B64880  28.251  38.063   6.546
 5046POPC   C3B64881  28.161  38.037   6.968
 5046POPC   C4B64882  28.431  37.938   7.339
 5047POPC   NC364883  16.577  14.639   5.104
 5047POPC   PO464884  17.025  14.223   5.430
 5047POPC   GL164885  16.778  14.383   5.757
 5047POPC   GL264886  16.515  14.574   5.628
 5047POPC   C1A64887  16.627  14.438   6.177
 5047POPC   D2A64888  16.728  14.591   6.575
 5047POPC   C3A64889  16.638  14.355   6.918
 5047POPC   C4A64890  16.756  14.241   7.287
 5047POPC   C1B64891  16.383  14.851   5.985
 5047POPC   C2B64892  16.268  14.807   6.441
 5047POPC   C3B64893  16.364  14.802   6.899
 5047POPC   C4B64894  16.274  14.525   7.260
 5048POPC   NC364895  37.074  31.683   5.151
 5048POPC   PO464896  36.662  31.351   5.485
 5048POPC   GL164897  36.872  31.357   5.864
 5048POPC   GL264898  37.109  31.629   5.903
 5048POPC   C1A64899  36.778  31.505   6.272
 5048POPC   D2A64900  36.560  31.689   6.605
 5048POPC   C3A64901  36.736  31.522   6.997
 5048POPC   C4A64902  36.565  31.319   7.367
 5048POPC   C1B64903  37.246  31.802   6.257
 5048POPC   C2B64904  37.089  31.689   6.655
 5048POPC   C3B64905  37.208  31.698   7.073
 5048POPC   C4B64906  37.000  31.540   7.454
 5049POPC   NC364907   5.701  33.780   5.402
 5049POPC   PO464908   6.287  33.453   5.217
 5049POPC   GL164909   6.245  33.756   5.636
 5049POPC   GL264910   6.046  34.080   5.681
 5049POPC   C1A64911   6.164  33.902   6.120
 5049POPC   D2A64912   5.869  33.711   6.421
 5049POPC   C3A64913   5.952  33.703   6.855
 5049POPC   C4A64914   5.996  34.018   7.196
 5049POPC   C1B64915   5.673  34.041   6.028
 5049POPC   C2B64916   5.534  34.099   6.488
 5049POPC   C3B64917   5.534  34.000   6.949
 5049POPC   C4B64918   5.479  34.006   7.392
 5050POPC   NC364919  13.100  38.070   5.373
 5050POPC   PO464920  12.547  37.654   5.288
 5050POPC   GL164921  12.712  37.655   5.724
 5050POPC   GL264922  12.952  37.920   5.853
 5050POPC   C1A64923  12.778  37.470   6.161
 5050POPC   D2A64924  12.593  37.519   6.597
 5050POPC   C3A64925  12.659  37.192   6.929
 5050POPC   C4A64926  12.609  37.349   7.358
 5050POPC   C1B64927  12.910  37.929   6.332
 5050POPC   C2B64928  13.066  37.682   6.675
 5050POPC   C3B64929  12.870  37.685   7.067
 5050POPC   C4B64930  12.833  37.967   7.424
 5051POPC   NC364931  11.454  38.470   5.163
 5051POPC   PO464932  11.046  38.082   5.571
 5051POPC   GL164933  11.198  38.496   5.804
 5051POPC   GL264934  11.532  38.667   5.812
 5051POPC   C1A64935  11.324  38.475   6.235
 5051POPC   D2A64936  11.132  38.192   6.496
 5051POPC   C3A64937  11.269  38.297   6.858
 5051POPC   C4A64938  11.223  38.200   7.269
 5051POPC   C1B64939  11.797  38.718   6.212
 5051POPC   C2B64940  11.767  38.592   6.666
 5051POPC   C3B64941  11.584  38.679   7.093
 5051POPC   C4B64942  11.732  38.755   7.542
 5052POPC   NC364943  31.789  42.448   5.429
 5052POPC   PO464944  31.201  42.820   5.519
 5052POPC   GL164945  31.373  42.395   5.746
 5052POPC   GL264946  31.695  42.128   5.795
 5052POPC   C1A64947  31.350  42.250   6.172
 5052POPC   D2A64948  31.204  42.356   6.603
 5052POPC   C3A64949  31.434  42.264   6.949
 5052POPC   C4A64950  31.198  42.255   7.301
 5052POPC   C1B64951  31.935  41.994   6.166
 5052POPC   C2B64952  31.771  41.909   6.572
 5052POPC   C3B64953  31.826  41.908   6.990
 5052POPC   C4B64954  31.664  41.943   7.375
 5053POPC   NC364955  38.329  24.058   5.579
 5053POPC   PO464956  38.812  23.642   5.407
 5053POPC   GL164957  38.690  23.730   5.841
 5053POPC   GL264958  38.320  23.705   5.945
 5053POPC   C1A64959  38.700  23.472   6.217
 5053POPC   D2A64960  38.577  23.348   6.617
 5053POPC   C3A64961  38.624  23.636   6.927
 5053POPC   C4A64962  38.577  23.539   7.366
 5053POPC   C1B64963  38.341  23.805   6.387
 5053POPC   C2B64964  38.126  23.734   6.770
 5053POPC   C3B64965  38.232  23.879   7.168
 5053POPC   C4B64966  38.296  24.230   7.467
 5054POPC   NC364967  32.812  36.770   5.340
 5054POPC   PO464968  33.434  37.004   5.222
 5054POPC   GL164969  33.178  36.853   5.683
 5054POPC   GL264970  33.090  37.193   5.939
 5054POPC   C1A64971  32.846  36.780   6.031
 5054POPC   D2A64972  32.629  36.835   6.448
 5054POPC   C3A64973  32.755  36.756   6.862
 5054POPC   C4A64974  32.573  37.045   7.130
 5054POPC   C1B64975  33.109  37.076   6.372
 5054POPC   C2B64976  33.239  36.854   6.725
 5054POPC   C3B64977  33.145  36.943   7.143
 5054POPC   C4B64978  33.324  37.209   7.471
 5055POPC   NC364979   6.247  12.496   5.494
 5055POPC   PO464980   6.185  11.912   5.347
 5055POPC   GL164981   6.141  12.064   5.750
 5055POPC   GL264982   5.786  12.187   5.717
 5055POPC   C1A64983   6.045  12.298   6.132
 5055POPC   D2A64984   5.861  12.176   6.518
 5055POPC   C3A64985   6.019  12.298   6.941
 5055POPC   C4A64986   6.251  11.962   7.090
 5055POPC   C1B64987   5.718  11.853   6.063
 5055POPC   C2B64988   5.560  11.766   6.493
 5055POPC   C3B64989   5.758  11.845   6.892
 5055POPC   C4B64990   5.666  11.929   7.289
 5056POPC   NC364991   5.522   3.605   5.513
 5056POPC   PO464992   4.873   3.762   5.495
 5056POPC   GL164993   5.006   3.543   5.819
 5056POPC   GL264994   5.219   3.272   5.772
 5056POPC   C1A64995   4.820   3.404   6.213
 5056POPC   D2A64996   4.853   3.332   6.639
 5056POPC   C3A64997   4.795   3.617   6.968
 5056POPC   C4A64998   4.886   3.473   7.349
 5056POPC   C1B64999   5.331   3.496   6.191
 5056POPC   C2B65000   5.242   3.700   6.617
 5056POPC   C3B65001   5.283   3.693   7.092
 5056POPC   C4B65002   5.404   3.396   7.457
 5057POPC   NC365003  36.460  31.800   5.447
 5057POPC   PO465004  35.948  31.332   5.429
 5057POPC   GL165005  36.195  31.455   5.776
 5057POPC   GL265006  36.134  31.794   5.835
 5057POPC   C1A65007  36.256  31.450   6.220
 5057POPC   D2A65008  36.390  31.176   6.554
 5057POPC   C3A65009  36.255  31.384   6.922
 5057POPC   C4A65010  36.030  31.339   7.273
 5057POPC   C1B65011  35.896  31.856   6.188
 5057POPC   C2B65012  36.031  31.782   6.594
 5057POPC   C3B65013  35.791  31.670   6.943
 5057POPC   C4B65014  35.902  31.895   7.285
 5058POPC   NC365015   2.899  12.499   5.522
 5058POPC   PO465016   2.909  13.146   5.481
 5058POPC   GL165017   2.852  12.883   5.854
 5058POPC   GL265018   2.558  12.654   5.884
 5058POPC   C1A65019   2.765  12.954   6.282
 5058POPC   D2A65020   2.644  13.247   6.572
 5058POPC   C3A65021   2.821  13.145   6.931
 5058POPC   C4A65022   2.718  12.967   7.296
 5058POPC   C1B65023   2.335  12.664   6.283
 5058POPC   C2B65024   2.510  12.718   6.718
 5058POPC   C3B65025   2.641  12.514   7.122
 5058POPC   C4B65026   3.002  12.547   7.466
 5059POPC   NC365027  14.777  44.610   5.595
 5059POPC   PO465028  14.233  44.838   5.192
 5059POPC   GL165029  14.127  44.742   5.640
 5059POPC   GL265030  14.400  44.892   5.830
 5059POPC   C1A65031  14.079  44.550   6.080
 5059POPC   D2A65032  14.143  44.705   6.511
 5059POPC   C3A65033  14.239  44.746   6.949
 5059POPC   C4A65034  14.332  44.464   7.288
 5059POPC   C1B65035  14.573  44.666   6.213
 5059POPC   C2B65036  14.680  44.784   6.614
 5059POPC   C3B65037  14.743  44.675   7.015
 5059POPC   C4B65038  14.683  44.827   7.400
 5060POPC   NC365039  23.785  15.702   5.309
 5060POPC   PO465040  24.164  16.277   5.347
 5060POPC   GL165041  24.011  16.167   5.755
 5060POPC   GL265042  23.799  15.873   5.793
 5060POPC   C1A65043  23.902  16.280   6.163
 5060POPC   D2A65044  23.980  16.146   6.575
 5060POPC   C3A65045  23.687  16.152   6.885
 5060POPC   C4A65046  23.914  16.205   7.262
 5060POPC   C1B65047  23.895  15.769   6.220
 5060POPC   C2B65048  23.750  15.696   6.642
 5060POPC   C3B65049  23.886  15.735   7.061
 5060POPC   C4B65050  23.509  15.864   7.311
 5061POPC   NC365051  39.017  20.456   5.356
 5061POPC   PO465052  39.094  21.164   5.359
 5061POPC   GL165053  39.195  20.930   5.739
 5061POPC   GL265054  39.445  20.675   5.646
 5061POPC   C1A65055  39.168  20.700   6.168
 5061POPC   D2A65056  39.037  20.441   6.548
 5061POPC   C3A65057  39.022  20.631   6.952
 5061POPC   C4A65058  39.288  20.799   7.257
 5061POPC   C1B65059  39.608  20.476   6.029
 5061POPC   C2B65060  39.568  20.415   6.459
 5061POPC   C3B65061  39.551  20.513   6.889
 5061POPC   C4B65062  39.526  20.309   7.268
 5062POPC   NC365063  13.737   5.612   5.572
 5062POPC   PO465064  13.477   6.149   5.303
 5062POPC   GL165065  13.446   6.178   5.799
 5062POPC   GL265066  13.650   5.895   6.006
 5062POPC   C1A65067  13.431   6.263   6.261
 5062POPC   D2A65068  13.469   6.001   6.642
 5062POPC   C3A65069  13.350   6.205   7.014
 5062POPC   C4A65070  13.280   6.065   7.442
 5062POPC   C1B65071  13.928   5.915   6.438
 5062POPC   C2B65072  13.986   5.978   6.901
 5062POPC   C3B65073  13.671   5.853   7.175
 5062POPC   C4B65074  13.501   5.492   7.349
 5063POPC   NC365075   6.948  10.835   5.679
 5063POPC   PO465076   6.442  11.044   5.285
 5063POPC   GL165077   6.437  11.216   5.756
 5063POPC   GL265078   6.555  10.937   5.980
 5063POPC   C1A65079   6.405  11.345   6.217
 5063POPC   D2A65080   6.409  11.028   6.535
 5063POPC   C3A65081   6.542  11.082   6.959
 5063POPC   C4A65082   6.522  11.527   7.150
 5063POPC   C1B65083   6.881  11.196   6.216
 5063POPC   C2B65084   6.893  11.265   6.652
 5063POPC   C3B65085   6.980  11.308   7.132
 5063POPC   C4B65086   6.978  11.133   7.571
 5064POPC   NC365087   4.649  24.661   5.521
 5064POPC   PO465088   4.235  24.115   5.416
 5064POPC   GL165089   4.395  24.255   5.801
 5064POPC   GL265090   4.234  24.581   5.856
 5064POPC   C1A65091   4.463  24.325   6.262
 5064POPC   D2A65092   4.526  24.538   6.643
 5064POPC   C3A65093   4.137  24.545   6.880
 5064POPC   C4A65094   4.312  24.379   7.242
 5064POPC   C1B65095   4.205  24.904   6.202
 5064POPC   C2B65096   4.377  25.028   6.618
 5064POPC   C3B65097   4.467  24.888   7.043
 5064POPC   C4B65098   4.379  24.855   7.503
 5065POPC   NC365099  36.151  25.417   5.269
 5065POPC   PO465100  36.293  24.737   5.443
 5065POPC   GL165101  36.152  25.095   5.729
 5065POPC   GL265102  36.318  25.449   5.761
 5065POPC   C1A65103  35.992  25.178   6.180
 5065POPC   D2A65104  35.819  25.042   6.603
 5065POPC   C3A65105  35.922  25.296   6.970
 5065POPC   C4A65106  35.834  25.359   7.423
 5065POPC   C1B65107  36.216  25.661   6.196
 5065POPC   C2B65108  36.015  25.699   6.653
 5065POPC   C3B65109  35.954  25.793   7.124
 5065POPC   C4B65110  36.129  25.733   7.565
 5066POPC   NC365111  24.895  42.055   5.573
 5066POPC   PO465112  24.440  42.285   5.219
 5066POPC   GL165113  24.473  42.320   5.709
 5066POPC   GL265114  24.469  41.965   5.827
 5066POPC   C1A65115  24.254  42.317   6.146
 5066POPC   D2A65116  24.015  42.356   6.545
 5066POPC   C3A65117  24.325  42.382   6.875
 5066POPC   C4A65118  24.556  42.371   7.254
 5066POPC   C1B65119  24.691  42.032   6.232
 5066POPC   C2B65120  24.765  42.147   6.696
 5066POPC   C3B65121  24.780  41.932   7.081
 5066POPC   C4B65122  24.529  41.879   7.451
 5067POPC   NC365123   5.804   1.575   5.414
 5067POPC   PO465124   6.190   1.059   5.116
 5067POPC   GL165125   6.182   0.995   5.693
 5067POPC   GL265126   5.865   0.803   5.912
 5067POPC   C1A65127   6.284   0.901   6.173
 5067POPC   D2A65128   5.982   0.787   6.549
 5067POPC   C3A65129   6.065   1.022   6.924
 5067POPC   C4A65130   6.011   1.410   7.155
 5067POPC   C1B65131   5.658   1.031   6.257
 5067POPC   C2B65132   5.608   1.138   6.691
 5067POPC   C3B65133   5.514   1.188   7.119
 5067POPC   C4B65134   5.613   1.379   7.492
 5068POPC   NC365135  31.149   8.746   5.425
 5068POPC   PO465136  31.660   9.222   5.376
 5068POPC   GL165137  31.588   9.046   5.744
 5068POPC   GL265138  31.270   9.103   5.790
 5068POPC   C1A65139  31.704   9.073   6.171
 5068POPC   D2A65140  31.613   8.845   6.529
 5068POPC   C3A65141  31.658   9.049   6.895
 5068POPC   C4A65142  31.591   8.897   7.295
 5068POPC   C1B65143  31.317   8.753   6.108
 5068POPC   C2B65144  31.102   8.759   6.498
 5068POPC   C3B65145  31.211   8.798   6.899
 5068POPC   C4B65146  31.177   8.524   7.214
 5069POPC   NC365147   6.761  16.757   5.253
 5069POPC   PO465148   6.561  16.386   5.411
 5069POPC   GL165149   6.811  16.554   5.738
 5069POPC   GL265150   6.647  16.864   5.803
 5069POPC   C1A65151   6.824  16.551   6.200
 5069POPC   D2A65152   6.585  16.552   6.587
 5069POPC   C3A65153   6.809  16.483   6.985
 5069POPC   C4A65154   6.904  16.579   7.420
 5069POPC   C1B65155   6.470  16.931   6.243
 5069POPC   C2B65156   6.602  17.070   6.673
 5069POPC   C3B65157   6.791  17.019   7.109
 5069POPC   C4B65158   6.856  17.166   7.570
 5070POPC   NC365159  10.893  26.263   5.382
 5070POPC   PO465160  11.568  25.990   5.441
 5070POPC   GL165161  11.326  25.840   5.767
 5070POPC   GL265162  10.974  25.798   5.629
 5070POPC   C1A65163  11.483  25.895   6.203
 5070POPC   D2A65164  11.599  26.169   6.590
 5070POPC   C3A65165  11.592  25.965   7.000
 5070POPC   C4A65166  11.605  25.916   7.465
 5070POPC   C1B65167  10.920  25.776   6.085
 5070POPC   C2B65168  11.102  25.703   6.507
 5070POPC   C3B65169  11.101  25.786   6.948
 5070POPC   C4B65170  10.825  25.696   7.282
 5071POPC   NC365171  26.276   2.282   5.316
 5071POPC   PO465172  25.633   2.218   5.571
 5071POPC   GL165173  25.936   2.090   5.850
 5071POPC   GL265174  26.304   2.116   5.793
 5071POPC   C1A65175  26.063   2.172   6.251
 5071POPC   D2A65176  26.037   2.050   6.647
 5071POPC   C3A65177  25.814   2.285   6.891
 5071POPC   C4A65178  26.023   2.232   7.250
 5071POPC   C1B65179  26.456   1.866   6.144
 5071POPC   C2B65180  26.395   1.706   6.575
 5071POPC   C3B65181  26.172   1.689   6.993
 5071POPC   C4B65182  26.265   1.814   7.421
 5072POPC   NC365183  29.971   8.580   5.242
 5072POPC   PO465184  29.895   9.195   5.422
 5072POPC   GL165185  29.870   9.030   5.835
 5072POPC   GL265186  29.765   8.699   5.761
 5072POPC   C1A65187  29.975   9.090   6.280
 5072POPC   D2A65188  29.878   9.184   6.707
 5072POPC   C3A65189  30.209   9.039   6.960
 5072POPC   C4A65190  30.083   8.922   7.354
 5072POPC   C1B65191  29.884   8.598   6.177
 5072POPC   C2B65192  30.013   8.686   6.602
 5072POPC   C3B65193  29.805   8.698   6.994
 5072POPC   C4B65194  29.801   8.495   7.398
 5073POPC   NC365195  12.804  40.426   5.425
 5073POPC   PO465196  13.197  39.766   5.434
 5073POPC   GL165197  13.116  40.019   5.815
 5073POPC   GL265198  13.183  40.351   5.757
 5073POPC   C1A65199  12.857  40.148   6.199
 5073POPC   D2A65200  12.711  39.991   6.611
 5073POPC   C3A65201  13.021  39.940   6.934
 5073POPC   C4A65202  13.163  39.627   7.220
 5073POPC   C1B65203  13.306  40.409   6.196
 5073POPC   C2B65204  13.180  40.345   6.635
 5073POPC   C3B65205  13.341  40.422   7.019
 5073POPC   C4B65206  13.078  40.364   7.331
 5074POPC   NC365207   0.482  30.307   5.423
 5074POPC   PO465208  44.964  29.917   5.505
 5074POPC   GL165209   0.157  30.065   5.868
 5074POPC   GL265210   0.539  30.089   5.876
 5074POPC   C1A65211   0.288  29.736   6.145
 5074POPC   D2A65212   0.344  29.546   6.524
 5074POPC   C3A65213   0.438  29.844   6.838
 5074POPC   C4A65214   0.484  29.735   7.252
 5074POPC   C1B65215   0.620  30.194   6.308
 5074POPC   C2B65216   0.878  30.201   6.688
 5074POPC   C3B65217   0.851  30.376   7.131
 5074POPC   C4B65218   0.594  30.243   7.537
 5075POPC   NC365219  37.458  16.631   5.319
 5075POPC   PO465220  37.280  17.321   5.184
 5075POPC   GL165221  37.286  16.969   5.639
 5075POPC   GL265222  37.364  16.592   5.803
 5075POPC   C1A65223  37.494  16.969   6.121
 5075POPC   D2A65224  37.428  16.840   6.549
 5075POPC   C3A65225  37.603  16.730   6.940
 5075POPC   C4A65226  37.808  17.083   7.107
 5075POPC   C1B65227  37.802  16.589   6.005
 5075POPC   C2B65228  37.947  16.712   6.443
 5075POPC   C3B65229  38.103  16.640   6.865
 5075POPC   C4B65230  37.988  16.434   7.245
 5076POPC   NC365231  17.681   7.536   5.457
 5076POPC   PO465232  17.323   7.014   5.401
 5076POPC   GL165233  17.400   7.218   5.771
 5076POPC   GL265234  17.732   7.177   5.836
 5076POPC   C1A65235  17.335   7.366   6.180
 5076POPC   D2A65236  17.418   7.592   6.569
 5076POPC   C3A65237  17.212   7.516   6.964
 5076POPC   C4A65238  17.378   7.386   7.361
 5076POPC   C1B65239  17.814   7.543   6.157
 5076POPC   C2B65240  17.937   7.573   6.628
 5076POPC   C3B65241  17.722   7.538   6.996
 5076POPC   C4B65242  17.589   7.866   7.307
 5077POPC   NC365243   3.302   7.803   5.365
 5077POPC   PO465244   3.636   8.417   5.452
 5077POPC   GL165245   3.423   8.150   5.769
 5077POPC   GL265246   3.617   7.859   5.769
 5077POPC   C1A65247   3.229   8.167   6.203
 5077POPC   D2A65248   2.962   8.143   6.595
 5077POPC   C3A65249   3.228   8.296   6.935
 5077POPC   C4A65250   3.573   8.424   7.212
 5077POPC   C1B65251   3.750   8.056   6.166
 5077POPC   C2B65252   3.613   8.145   6.592
 5077POPC   C3B65253   3.637   7.952   7.002
 5077POPC   C4B65254   3.741   7.904   7.432
 5078POPC   NC365255  41.920   9.898   5.632
 5078POPC   PO465256  41.376   9.663   5.391
 5078POPC   GL165257  41.415   9.512   5.811
 5078POPC   GL265258  41.486   9.834   5.912
 5078POPC   C1A65259  41.601   9.465   6.240
 5078POPC   D2A65260  41.862   9.545   6.603
 5078POPC   C3A65261  41.607   9.637   6.939
 5078POPC   C4A65262  41.661   9.528   7.338
 5078POPC   C1B65263  41.367  10.168   6.181
 5078POPC   C2B65264  41.524  10.355   6.551
 5078POPC   C3B65265  41.459  10.195   6.943
 5078POPC   C4B65266  41.496   9.986   7.305
 5079POPC   NC365267  12.377  11.052   5.462
 5079POPC   PO465268  11.774  11.428   5.376
 5079POPC   GL165269  12.052  11.517   5.728
 5079POPC   GL265270  12.350  11.349   5.875
 5079POPC   C1A65271  11.964  11.546   6.163
 5079POPC   D2A65272  12.117  11.361   6.541
 5079POPC   C3A65273  11.882  11.350   6.922
 5079POPC   C4A65274  11.746  11.324   7.355
 5079POPC   C1B65275  12.494  11.597   6.212
 5079POPC   C2B65276  12.550  11.654   6.658
 5079POPC   C3B65277  12.404  11.393   6.965
 5079POPC   C4B65278  12.231  11.453   7.313
 5080POPC   NC365279  14.143  41.497   5.311
 5080POPC   PO465280  14.705  41.883   5.355
 5080POPC   GL165281  14.581  41.535   5.646
 5080POPC   GL265282  14.233  41.496   5.795
 5080POPC   C1A65283  14.637  41.539   6.117
 5080POPC   D2A65284  14.443  41.754   6.488
 5080POPC   C3A65285  14.553  41.605   6.892
 5080POPC   C4A65286  14.618  41.797   7.278
 5080POPC   C1B65287  14.138  41.414   6.195
 5080POPC   C2B65288  14.102  41.383   6.606
 5080POPC   C3B65289  14.049  41.617   6.956
 5080POPC   C4B65290  14.182  41.523   7.344
 5081POPC   NC365291  35.806  13.517   5.395
 5081POPC   PO465292  36.353  13.949   5.402
 5081POPC   GL165293  36.219  13.774   5.791
 5081POPC   GL265294  35.839  13.839   5.787
 5081POPC   C1A65295  36.389  13.749   6.220
 5081POPC   D2A65296  36.219  13.626   6.654
 5081POPC   C3A65297  36.415  13.542   7.080
 5081POPC   C4A65298  36.453  13.429   7.555
 5081POPC   C1B65299  35.897  13.652   6.197
 5081POPC   C2B65300  35.820  13.922   6.558
 5081POPC   C3B65301  35.746  13.845   6.957
 5081POPC   C4B65302  35.933  13.548   7.253
 5082POPC   NC365303  23.184   4.430   5.009
 5082POPC   PO465304  23.287   4.493   5.653
 5082POPC   GL165305  22.882   4.334   5.833
 5082POPC   GL265306  23.131   4.152   6.015
 5082POPC   C1A65307  22.691   4.264   6.260
 5082POPC   D2A65308  22.975   4.259   6.619
 5082POPC   C3A65309  22.798   4.336   7.026
 5082POPC   C4A65310  22.959   4.626   7.347
 5082POPC   C1B65311  23.251   3.772   6.191
 5082POPC   C2B65312  23.169   3.681   6.601
 5082POPC   C3B65313  23.334   3.991   6.879
 5082POPC   C4B65314  23.306   4.018   7.315
 5083POPC   NC365315  25.539   4.343   5.529
 5083POPC   PO465316  25.098   4.801   5.411
 5083POPC   GL165317  25.121   4.501   5.786
 5083POPC   GL265318  24.823   4.378   5.873
 5083POPC   C1A65319  25.252   4.252   6.186
 5083POPC   D2A65320  25.126   4.255   6.626
 5083POPC   C3A65321  25.381   4.177   7.030
 5083POPC   C4A65322  25.291   3.892   7.396
 5083POPC   C1B65323  24.871   4.621   6.265
 5083POPC   C2B65324  24.755   4.619   6.707
 5083POPC   C3B65325  25.020   4.565   7.038
 5083POPC   C4B65326  25.043   4.326   7.431
 5084POPC   NC365327  13.408  13.313   5.331
 5084POPC   PO465328  13.743  12.693   5.377
 5084POPC   GL165329  13.706  13.039   5.699
 5084POPC   GL265330  13.343  13.062   5.777
 5084POPC   C1A65331  13.663  12.991   6.174
 5084POPC   D2A65332  13.620  12.689   6.532
 5084POPC   C3A65333  13.724  12.797   6.971
 5084POPC   C4A65334  13.797  12.511   7.325
 5084POPC   C1B65335  13.160  13.168   6.185
 5084POPC   C2B65336  13.416  13.155   6.595
 5084POPC   C3B65337  13.262  13.017   6.999
 5084POPC   C4B65338  13.417  12.847   7.408
 5085POPC   NC365339   6.519  14.879   5.302
 5085POPC   PO465340   6.975  15.193   5.612
 5085POPC   GL165341   6.576  15.092   5.837
 5085POPC   GL265342   6.422  14.747   5.787
 5085POPC   C1A65343   6.596  15.259   6.279
 5085POPC   D2A65344   6.854  15.154   6.641
 5085POPC   C3A65345   6.880  15.391   7.041
 5085POPC   C4A65346   7.059  15.467   7.469
 5085POPC   C1B65347   6.285  14.870   6.208
 5085POPC   C2B65348   6.339  15.003   6.638
 5085POPC   C3B65349   6.524  15.015   7.024
 5085POPC   C4B65350   6.338  14.973   7.421
 5086POPC   NC365351  12.653  36.380   5.232
 5086POPC   PO465352  13.047  35.888   5.578
 5086POPC   GL165353  12.809  36.070   5.871
 5086POPC   GL265354  12.560  36.239   5.711
 5086POPC   C1A65355  12.916  36.264   6.247
 5086POPC   D2A65356  12.784  36.111   6.602
 5086POPC   C3A65357  13.132  35.935   6.812
 5086POPC   C4A65358  12.947  36.187   7.114
 5086POPC   C1B65359  12.400  36.297   6.135
 5086POPC   C2B65360  12.252  36.237   6.565
 5086POPC   C3B65361  12.459  36.262   6.983
 5086POPC   C4B65362  12.484  36.365   7.442
 5087POPC   NC365363   6.496  23.934   5.455
 5087POPC   PO465364   6.814  23.334   5.540
 5087POPC   GL165365   6.831  23.606   5.867
 5087POPC   GL265366   6.882  23.962   5.826
 5087POPC   C1A65367   6.651  23.451   6.238
 5087POPC   D2A65368   6.467  23.605   6.599
 5087POPC   C3A65369   6.629  23.498   7.013
 5087POPC   C4A65370   6.411  23.647   7.353
 5087POPC   C1B65371   6.533  23.948   6.131
 5087POPC   C2B65372   6.536  24.126   6.510
 5087POPC   C3B65373   6.697  23.977   6.885
 5087POPC   C4B65374   6.896  23.861   7.296
 5088POPC   NC365375  42.984  25.833   5.468
 5088POPC   PO465376  43.240  26.474   5.529
 5088POPC   GL165377  43.200  26.119   5.844
 5088POPC   GL265378  43.438  25.831   5.761
 5088POPC   C1A65379  42.897  25.943   6.162
 5088POPC   D2A65380  42.946  26.089   6.587
 5088POPC   C3A65381  42.822  25.859   6.951
 5088POPC   C4A65382  42.954  25.980   7.348
 5088POPC   C1B65383  43.327  25.677   6.188
 5088POPC   C2B65384  43.169  25.646   6.638
 5088POPC   C3B65385  43.344  25.832   7.040
 5088POPC   C4B65386  43.395  25.813   7.520
 5089POPC   NC365387  10.639   3.722   5.462
 5089POPC   PO465388  10.179   3.158   5.406
 5089POPC   GL165389  10.381   3.419   5.787
 5089POPC   GL265390  10.735   3.533   5.921
 5089POPC   C1A65391  10.300   3.607   6.203
 5089POPC   D2A65392  10.501   3.524   6.580
 5089POPC   C3A65393  10.378   3.561   6.979
 5089POPC   C4A65394  10.542   3.338   7.368
 5089POPC   C1B65395  10.781   3.817   6.280
 5089POPC   C2B65396  10.778   3.957   6.723
 5089POPC   C3B65397  10.825   3.740   7.134
 5089POPC   C4B65398  10.824   3.755   7.577
 5090POPC   NC365399  31.420  20.827   5.592
 5090POPC   PO465400  31.804  20.414   5.204
 5090POPC   GL165401  31.687  20.411   5.726
 5090POPC   GL265402  31.806  20.629   6.013
 5090POPC   C1A65403  31.350  20.534   6.156
 5090POPC   D2A65404  31.552  20.641   6.528
 5090POPC   C3A65405  31.340  20.622   6.897
 5090POPC   C4A65406  31.421  20.521   7.311
 5090POPC   C1B65407  31.706  21.023   6.222
 5090POPC   C2B65408  31.600  21.128   6.647
 5090POPC   C3B65409  31.701  20.947   7.039
 5090POPC   C4B65410  31.414  21.026   7.347
 5091POPC   NC365411  27.815  41.101   5.575
 5091POPC   PO465412  27.094  41.153   5.643
 5091POPC   GL165413  27.402  40.995   5.901
 5091POPC   GL265414  27.473  40.686   5.800
 5091POPC   C1A65415  27.709  41.126   6.221
 5091POPC   D2A65416  27.854  40.929   6.579
 5091POPC   C3A65417  27.595  40.791   6.881
 5091POPC   C4A65418  27.462  41.006   7.223
 5091POPC   C1B65419  27.619  40.630   6.216
 5091POPC   C2B65420  27.860  40.394   6.478
 5091POPC   C3B65421  27.895  40.387   6.913
 5091POPC   C4B65422  27.714  40.495   7.326
 5092POPC   NC365423   2.504  31.294   5.394
 5092POPC   PO465424   3.048  31.698   5.630
 5092POPC   GL165425   2.844  31.452   5.961
 5092POPC   GL265426   2.931  31.142   5.883
 5092POPC   C1A65427   2.742  31.344   6.412
 5092POPC   D2A65428   2.812  31.630   6.776
 5092POPC   C3A65429   2.497  31.588   7.126
 5092POPC   C4A65430   2.460  31.782   7.558
 5092POPC   C1B65431   3.188  31.143   6.270
 5092POPC   C2B65432   3.172  31.251   6.730
 5092POPC   C3B65433   2.879  31.217   7.109
 5092POPC   C4B65434   3.039  31.153   7.551
 5093POPC   NC365435  12.767  42.456   5.604
 5093POPC   PO465436  13.090  42.189   5.092
 5093POPC   GL165437  12.980  42.009   5.647
 5093POPC   GL265438  12.667  41.880   5.768
 5093POPC   C1A65439  12.913  42.265   6.173
 5093POPC   D2A65440  12.685  42.309   6.619
 5093POPC   C3A65441  12.774  42.571   7.023
 5093POPC   C4A65442  13.070  42.807   7.307
 5093POPC   C1B65443  12.602  41.886   6.234
 5093POPC   C2B65444  12.688  41.806   6.689
 5093POPC   C3B65445  12.703  42.013   7.140
 5093POPC   C4B65446  12.579  41.978   7.651
 5094POPC   NC365447  20.901  17.640   5.498
 5094POPC   PO465448  20.222  17.370   5.366
 5094POPC   GL165449  20.469  17.310   5.745
 5094POPC   GL265450  20.500  17.645   5.864
 5094POPC   C1A65451  20.374  17.296   6.208
 5094POPC   D2A65452  20.514  17.526   6.578
 5094POPC   C3A65453  20.446  17.371   6.991
 5094POPC   C4A65454  20.728  17.319   7.335
 5094POPC   C1B65455  20.841  17.636   6.170
 5094POPC   C2B65456  20.899  17.874   6.551
 5094POPC   C3B65457  20.892  17.678   6.943
 5094POPC   C4B65458  21.020  17.748   7.333
 5095POPC   NC365459   8.311  15.573   5.406
 5095POPC   PO465460   7.993  14.908   5.377
 5095POPC   GL165461   8.253  14.931   5.756
 5095POPC   GL265462   8.434  15.251   5.771
 5095POPC   C1A65463   8.418  14.990   6.203
 5095POPC   D2A65464   8.485  15.229   6.597
 5095POPC   C3A65465   8.222  15.064   6.935
 5095POPC   C4A65466   8.284  14.998   7.379
 5095POPC   C1B65467   8.049  15.302   6.044
 5095POPC   C2B65468   7.965  15.227   6.457
 5095POPC   C3B65469   7.842  15.407   6.816
 5095POPC   C4B65470   7.931  15.380   7.242
 5096POPC   NC365471  44.937  20.808   5.570
 5096POPC   PO465472   0.328  21.392   5.443
 5096POPC   GL165473   0.430  21.341   5.878
 5096POPC   GL265474   0.479  21.677   5.891
 5096POPC   C1A65475   0.329  21.223   6.315
 5096POPC   D2A65476   0.163  21.272   6.721
 5096POPC   C3A65477   0.321  21.229   7.106
 5096POPC   C4A65478   0.431  21.224   7.526
 5096POPC   C1B65479   0.606  21.648   6.295
 5096POPC   C2B65480   0.450  21.716   6.674
 5096POPC   C3B65481   0.604  21.634   7.083
 5096POPC   C4B65482   0.476  21.783   7.474
 5097POPC   NC365483  25.819   3.453   5.377
 5097POPC   PO465484  26.427   3.719   5.301
 5097POPC   GL165485  26.142   3.707   5.713
 5097POPC   GL265486  26.037   3.343   5.829
 5097POPC   C1A65487  26.081   3.696   6.195
 5097POPC   D2A65488  25.872   3.761   6.599
 5097POPC   C3A65489  26.064   3.683   6.973
 5097POPC   C4A65490  26.446   3.524   7.098
 5097POPC   C1B65491  26.073   3.180   6.260
 5097POPC   C2B65492  25.993   3.239   6.699
 5097POPC   C3B65493  25.862   3.219   7.120
 5097POPC   C4B65494  25.804   3.043   7.566
 5098POPC   NC365495   9.715  17.183   5.549
 5098POPC   PO465496   9.439  17.700   5.139
 5098POPC   GL165497   9.728  17.835   5.665
 5098POPC   GL265498   9.901  17.590   5.780
 5098POPC   C1A65499   9.624  17.816   6.144
 5098POPC   D2A65500   9.344  17.661   6.485
 5098POPC   C3A65501   9.584  17.602   6.888
 5098POPC   C4A65502   9.587  17.369   7.281
 5098POPC   C1B65503   9.947  17.315   6.137
 5098POPC   C2B65504   9.991  17.355   6.560
 5098POPC   C3B65505   9.981  17.257   6.986
 5098POPC   C4B65506  10.172  17.522   7.310
 5099POPC   NC365507  10.171  11.938   5.459
 5099POPC   PO465508   9.487  11.937   5.566
 5099POPC   GL165509   9.680  12.179   5.882
 5099POPC   GL265510   9.935  11.933   5.909
 5099POPC   C1A65511   9.588  12.238   6.322
 5099POPC   D2A65512   9.393  12.035   6.674
 5099POPC   C3A65513   9.660  11.942   7.033
 5099POPC   C4A65514   9.988  11.836   7.375
 5099POPC   C1B65515  10.027  11.979   6.331
 5099POPC   C2B65516  10.084  11.905   6.760
 5099POPC   C3B65517  10.189  12.207   7.094
 5099POPC   C4B65518  10.251  12.308   7.543
 5100POPC   NC365519  35.128  14.189   5.447
 5100POPC   PO465520  35.628  14.634   5.330
 5100POPC   GL165521  35.582  14.354   5.752
 5100POPC   GL265522  35.223  14.387   5.895
 5100POPC   C1A65523  35.607  14.467   6.231
 5100POPC   D2A65524  35.260  14.702   6.523
 5100POPC   C3A65525  35.318  14.665   6.971
 5100POPC   C4A65526  35.604  14.390   7.180
 5100POPC   C1B65527  35.136  14.251   6.312
 5100POPC   C2B65528  35.443  14.250   6.662
 5100POPC   C3B65529  35.196  14.166   6.951
 5100POPC   C4B65530  34.916  14.311   7.193
 5101POPC   NC365531  22.407   7.840   5.582
 5101POPC   PO465532  22.162   7.231   5.389
 5101POPC   GL165533  22.136   7.359   5.780
 5101POPC   GL265534  21.850   7.162   5.847
 5101POPC   C1A65535  22.207   7.560   6.162
 5101POPC   D2A65536  22.101   7.498   6.586
 5101POPC   C3A65537  22.314   7.683   6.934
 5101POPC   C4A65538  22.371   7.431   7.310
 5101POPC   C1B65539  21.769   6.930   6.228
 5101POPC   C2B65540  21.789   6.960   6.655
 5101POPC   C3B65541  21.651   7.034   7.057
 5101POPC   C4B65542  21.857   7.123   7.447
 5102POPC   NC365543  35.890  18.513   5.587
 5102POPC   PO465544  36.564  18.505   5.412
 5102POPC   GL165545  36.412  18.448   5.820
 5102POPC   GL265546  36.195  18.153   5.790
 5102POPC   C1A65547  36.209  18.480   6.233
 5102POPC   D2A65548  36.227  18.456   6.688
 5102POPC   C3A65549  35.875  18.439   6.980
 5102POPC   C4A65550  35.897  18.228   7.365
 5102POPC   C1B65551  36.438  17.931   6.070
 5102POPC   C2B65552  36.407  17.997   6.496
 5102POPC   C3B65553  36.355  18.022   6.945
 5102POPC   C4B65554  36.354  18.407   7.187
 5103POPC   NC365555  10.727  22.604   5.494
 5103POPC   PO465556  10.162  22.249   5.400
 5103POPC   GL165557  10.443  22.194   5.734
 5103POPC   GL265558  10.727  22.017   5.579
 5103POPC   C1A65559  10.578  22.361   6.157
 5103POPC   D2A65560  10.798  22.363   6.567
 5103POPC   C3A65561  10.532  22.411   6.938
 5103POPC   C4A65562  10.555  22.168   7.296
 5103POPC   C1B65563  10.781  21.920   6.033
 5103POPC   C2B65564  10.573  21.925   6.456
 5103POPC   C3B65565  10.660  21.919   6.874
 5103POPC   C4B65566  10.846  21.711   7.209
 5104POPC   NC365567  10.273  14.224   5.152
 5104POPC   PO465568  10.783  13.994   5.628
 5104POPC   GL165569  10.723  14.399   5.742
 5104POPC   GL265570  10.389  14.388   5.637
 5104POPC   C1A65571  10.691  14.643   6.113
 5104POPC   D2A65572  10.800  14.699   6.539
 5104POPC   C3A65573  10.709  14.489   6.949
 5104POPC   C4A65574  10.990  14.632   7.287
 5104POPC   C1B65575  10.268  14.363   6.070
 5104POPC   C2B65576  10.425  14.322   6.492
 5104POPC   C3B65577  10.297  14.117   6.861
 5104POPC   C4B65578  10.265  14.089   7.275
 5105POPC   NC365579  15.404   3.127   5.389
 5105POPC   PO465580  14.998   2.596   5.248
 5105POPC   GL165581  15.235   2.706   5.605
 5105POPC   GL265582  15.013   2.961   5.725
 5105POPC   C1A65583  15.386   2.759   6.035
 5105POPC   D2A65584  15.208   2.733   6.455
 5105POPC   C3A65585  15.340   2.782   6.879
 5105POPC   C4A65586  15.147   2.921   7.262
 5105POPC   C1B65587  15.075   3.168   6.114
 5105POPC   C2B65588  15.172   3.258   6.524
 5105POPC   C3B65589  15.221   3.312   6.948
 5105POPC   C4B65590  15.059   3.412   7.339
 5106POPC   NC365591   3.878  15.972   5.482
 5106POPC   PO465592   4.496  15.750   5.428
 5106POPC   GL165593   4.307  15.691   5.861
 5106POPC   GL265594   4.092  15.976   5.942
 5106POPC   C1A65595   4.391  15.874   6.320
 5106POPC   D2A65596   4.269  16.012   6.750
 5106POPC   C3A65597   4.569  16.022   7.115
 5106POPC   C4A65598   4.438  16.234   7.483
 5106POPC   C1B65599   3.943  15.612   6.220
 5106POPC   C2B65600   3.816  15.350   6.586
 5106POPC   C3B65601   3.906  15.528   6.999
 5106POPC   C4B65602   4.092  15.885   7.237
 5107POPC   NC365603  44.270   0.278   5.304
 5107POPC   PO465604  44.776   0.702   5.326
 5107POPC   GL165605  44.620   0.534   5.756
 5107POPC   GL265606  44.566   0.156   5.768
 5107POPC   C1A65607  44.636   0.548   6.265
 5107POPC   D2A65608  44.768   0.629   6.738
 5107POPC   C3A65609  44.521   0.462   7.105
 5107POPC   C4A65610  44.480   0.557   7.542
 5107POPC   C1B65611  44.697   0.011   6.218
 5107POPC   C2B65612  44.623   0.122   6.675
 5107POPC   C3B65613  44.904   0.127   7.045
 5107POPC   C4B65614  44.831   0.198   7.521
 5108POPC   NC365615  32.007   5.608   5.436
 5108POPC   PO465616  32.254   6.133   5.131
 5108POPC   GL165617  32.155   6.051   5.645
 5108POPC   GL265618  32.300   5.732   5.833
 5108POPC   C1A65619  32.071   6.102   6.093
 5108POPC   D2A65620  32.315   6.017   6.475
 5108POPC   C3A65621  32.151   6.130   6.894
 5108POPC   C4A65622  32.284   6.088   7.328
 5108POPC   C1B65623  32.152   5.587   6.195
 5108POPC   C2B65624  32.263   5.418   6.589
 5108POPC   C3B65625  32.228   5.622   6.984
 5108POPC   C4B65626  32.340   5.591   7.396
 5109POPC   NC365627  19.650  11.139   5.088
 5109POPC   PO465628  20.228  11.161   5.331
 5109POPC   GL165629  20.030  11.446   5.720
 5109POPC   GL265630  19.743  11.268   5.802
 5109POPC   C1A65631  19.907  11.520   6.218
 5109POPC   D2A65632  19.561  11.326   6.481
 5109POPC   C3A65633  19.585  11.296   6.955
 5109POPC   C4A65634  19.667  11.474   7.355
 5109POPC   C1B65635  20.110  11.083   6.100
 5109POPC   C2B65636  20.264  11.121   6.518
 5109POPC   C3B65637  20.156  11.316   6.907
 5109POPC   C4B65638  20.031  11.138   7.291
 5110POPC   NC365639  39.368  19.513   5.327
 5110POPC   PO465640  39.418  20.218   5.338
 5110POPC   GL165641  39.198  20.122   5.713
 5110POPC   GL265642  39.148  19.760   5.752
 5110POPC   C1A65643  39.193  20.169   6.140
 5110POPC   D2A65644  39.291  19.978   6.526
 5110POPC   C3A65645  39.191  20.123   6.932
 5110POPC   C4A65646  39.176  19.866   7.290
 5110POPC   C1B65647  39.372  19.603   6.112
 5110POPC   C2B65648  39.471  19.512   6.557
 5110POPC   C3B65649  39.143  19.557   6.842
 5110POPC   C4B65650  38.788  19.591   7.078
 5111POPC   NC365651  18.392  25.435   5.547
 5111POPC   PO465652  17.897  24.996   5.414
 5111POPC   GL165653  18.170  25.028   5.766
 5111POPC   GL265654  18.549  24.960   5.737
 5111POPC   C1A65655  18.165  25.251   6.153
 5111POPC   D2A65656  18.120  25.522   6.486
 5111POPC   C3A65657  18.162  25.371   6.914
 5111POPC   C4A65658  18.137  25.573   7.313
 5111POPC   C1B65659  18.672  25.141   6.146
 5111POPC   C2B65660  18.509  25.198   6.555
 5111POPC   C3B65661  18.665  25.203   6.972
 5111POPC   C4B65662  18.565  25.257   7.399
 5112POPC   NC365663  40.542  42.986   5.525
 5112POPC   PO465664  41.212  42.838   5.331
 5112POPC   GL165665  41.044  43.093   5.668
 5112POPC   GL265666  40.954  42.807   5.828
 5112POPC   C1A65667  40.989  43.270   6.104
 5112POPC   D2A65668  40.941  43.120   6.547
 5112POPC   C3A65669  40.732  43.282   6.928
 5112POPC   C4A65670  40.952  43.172   7.327
 5112POPC   C1B65671  40.957  42.681   6.261
 5112POPC   C2B65672  40.680  42.674   6.637
 5112POPC   C3B65673  40.687  42.789   7.074
 5112POPC   C4B65674  40.475  43.038   7.379
 5113POPC   NC365675   7.648   2.749   5.453
 5113POPC   PO465676   7.026   2.970   5.198
 5113POPC   GL165677   7.193   2.947   5.661
 5113POPC   GL265678   7.530   3.057   5.839
 5113POPC   C1A65679   7.179   2.707   6.065
 5113POPC   D2A65680   7.163   2.714   6.528
 5113POPC   C3A65681   7.409   2.527   6.861
 5113POPC   C4A65682   7.143   2.607   7.200
 5113POPC   C1B65683   7.565   2.967   6.310
 5113POPC   C2B65684   7.499   3.022   6.783
 5113POPC   C3B65685   7.575   2.900   7.215
 5113POPC   C4B65686   7.852   2.804   7.553
 5114POPC   NC365687  25.849  24.912   5.405
 5114POPC   PO465688  26.220  25.523   5.422
 5114POPC   GL165689  26.159  25.184   5.744
 5114POPC   GL265690  25.823  25.183   5.826
 5114POPC   C1A65691  26.149  24.975   6.175
 5114POPC   D2A65692  26.423  24.996   6.571
 5114POPC   C3A65693  26.179  25.146   6.925
 5114POPC   C4A65694  25.927  25.113   7.287
 5114POPC   C1B65695  25.740  25.358   6.193
 5114POPC   C2B65696  25.674  25.294   6.616
 5114POPC   C3B65697  25.824  25.576   6.899
 5114POPC   C4B65698  25.801  25.613   7.323
 5115POPC   NC365699  11.850  32.078   5.462
 5115POPC   PO465700  11.275  31.683   5.244
 5115POPC   GL165701  11.271  31.519   5.690
 5115POPC   GL265702  11.488  31.744   5.872
 5115POPC   C1A65703  11.104  31.463   6.148
 5115POPC   D2A65704  11.217  31.518   6.609
 5115POPC   C3A65705  11.056  31.554   7.044
 5115POPC   C4A65706  11.056  31.694   7.483
 5115POPC   C1B65707  11.596  31.489   6.261
 5115POPC   C2B65708  11.666  31.266   6.636
 5115POPC   C3B65709  11.563  31.354   7.066
 5115POPC   C4B65710  11.713  31.486   7.478
 5116POPC   NC365711  33.797   5.402   5.382
 5116POPC   PO465712  34.058   4.808   5.349
 5116POPC   GL165713  33.826   4.990   5.727
 5116POPC   GL265714  33.980   5.300   5.834
 5116POPC   C1A65715  33.717   5.079   6.194
 5116POPC   D2A65716  33.481   5.013   6.582
 5116POPC   C3A65717  33.768   5.014   6.887
 5116POPC   C4A65718  33.753   5.159   7.299
 5116POPC   C1B65719  34.237   5.318   6.182
 5116POPC   C2B65720  34.205   5.523   6.572
 5116POPC   C3B65721  34.065   5.462   6.985
 5116POPC   C4B65722  34.307   5.256   7.273
 5117POPC   NC365723   4.109  31.314   5.492
 5117POPC   PO465724   4.590  31.844   5.729
 5117POPC   GL165725   4.296  31.563   5.894
 5117POPC   GL265726   4.511  31.249   5.820
 5117POPC   C1A65727   4.077  31.480   6.280
 5117POPC   D2A65728   4.045  31.200   6.648
 5117POPC   C3A65729   4.131  31.441   7.015
 5117POPC   C4A65730   4.137  31.690   7.376
 5117POPC   C1B65731   4.570  31.327   6.243
 5117POPC   C2B65732   4.518  31.412   6.637
 5117POPC   C3B65733   4.560  31.198   7.011
 5117POPC   C4B65734   4.437  31.291   7.440
 5118POPC   NC365735  40.507   4.372   5.100
 5118POPC   PO465736  39.965   4.138   5.504
 5118POPC   GL165737  39.909   4.221   5.920
 5118POPC   GL265738  39.931   4.546   5.918
 5118POPC   C1A65739  39.804   4.323   6.364
 5118POPC   D2A65740  39.797   4.160   6.799
 5118POPC   C3A65741  39.825   4.390   7.199
 5118POPC   C4A65742  40.081   4.224   7.536
 5118POPC   C1B65743  40.232   4.585   6.246
 5118POPC   C2B65744  40.054   4.670   6.659
 5118POPC   C3B65745  40.273   4.563   7.004
 5118POPC   C4B65746  40.331   4.669   7.400
 5119POPC   NC365747  18.721  43.690   5.316
 5119POPC   PO465748  19.239  44.076   5.386
 5119POPC   GL165749  19.001  43.963   5.743
 5119POPC   GL265750  19.042  43.599   5.736
 5119POPC   C1A65751  19.083  43.948   6.202
 5119POPC   D2A65752  19.021  43.840   6.641
 5119POPC   C3A65753  18.802  44.036   6.966
 5119POPC   C4A65754  18.830  43.917   7.382
 5119POPC   C1B65755  19.415  43.605   5.999
 5119POPC   C2B65756  19.428  43.575   6.448
 5119POPC   C3B65757  19.215  43.395   6.812
 5119POPC   C4B65758  19.074  43.512   7.226
 5120POPC   NC365759   5.945  30.375   5.338
 5120POPC   PO465760   6.178  30.981   5.439
 5120POPC   GL165761   5.942  30.741   5.759
 5120POPC   GL265762   5.778  31.021   5.960
 5120POPC   C1A65763   5.866  30.588   6.185
 5120POPC   D2A65764   5.962  30.867   6.556
 5120POPC   C3A65765   6.169  30.704   6.940
 5120POPC   C4A65766   6.042  30.394   7.302
 5120POPC   C1B65767   5.539  31.140   6.346
 5120POPC   C2B65768   5.451  30.917   6.696
 5120POPC   C3B65769   5.658  30.734   7.023
 5120POPC   C4B65770   5.488  30.950   7.311
 5121POPC   NC365771  41.290   3.920   5.420
 5121POPC   PO465772  41.612   4.608   5.495
 5121POPC   GL165773  41.425   4.324   5.738
 5121POPC   GL265774  41.506   4.531   6.009
 5121POPC   C1A65775  41.326   4.044   6.080
 5121POPC   D2A65776  41.067   3.953   6.451
 5121POPC   C3A65777  41.213   4.141   6.842
 5121POPC   C4A65778  41.516   4.347   7.096
 5121POPC   C1B65779  41.627   4.823   6.331
 5121POPC   C2B65780  41.650   4.769   6.771
 5121POPC   C3B65781  41.818   4.766   7.182
 5121POPC   C4B65782  41.735   4.952   7.591
 5122POPC   NC365783   8.638  14.640   5.560
 5122POPC   PO465784   9.222  14.214   5.399
 5122POPC   GL165785   9.059  14.398   5.738
 5122POPC   GL265786   8.801  14.178   5.736
 5122POPC   C1A65787   9.143  14.621   6.119
 5122POPC   D2A65788   8.944  14.537   6.525
 5122POPC   C3A65789   9.061  14.697   6.910
 5122POPC   C4A65790   9.027  14.677   7.354
 5122POPC   C1B65791   8.913  14.163   6.176
 5122POPC   C2B65792   9.007  13.951   6.526
 5122POPC   C3B65793   9.005  14.177   6.879
 5122POPC   C4B65794   8.788  14.232   7.222
 5123POPC   NC365795  26.239  11.663   5.377
 5123POPC   PO465796  25.982  10.966   5.395
 5123POPC   GL165797  26.103  11.248   5.700
 5123POPC   GL265798  25.822  11.478   5.709
 5123POPC   C1A65799  26.181  11.377   6.139
 5123POPC   D2A65800  26.201  11.630   6.537
 5123POPC   C3A65801  25.864  11.551   6.842
 5123POPC   C4A65802  25.962  11.344   7.211
 5123POPC   C1B65803  25.683  11.177   6.023
 5123POPC   C2B65804  25.644  11.173   6.470
 5123POPC   C3B65805  25.677  11.041   6.903
 5123POPC   C4B65806  25.589  11.037   7.342
 5124POPC   NC365807  18.179  13.785   5.341
 5124POPC   PO465808  18.320  13.115   5.233
 5124POPC   GL165809  18.276  13.310   5.706
 5124POPC   GL265810  18.133  13.620   5.820
 5124POPC   C1A65811  18.570  13.535   6.070
 5124POPC   D2A65812  18.755  13.589   6.527
 5124POPC   C3A65813  18.611  13.761   6.952
 5124POPC   C4A65814  18.473  13.415   7.199
 5124POPC   C1B65815  18.131  13.801   6.218
 5124POPC   C2B65816  18.257  13.846   6.619
 5124POPC   C3B65817  18.105  13.746   7.055
 5124POPC   C4B65818  18.355  13.873   7.447
 5125POPC   NC365819  15.774  14.845   5.328
 5125POPC   PO465820  15.728  15.488   5.350
 5125POPC   GL165821  15.891  15.338   5.727
 5125POPC   GL265822  16.219  15.469   5.783
 5125POPC   C1A65823  15.731  15.154   6.111
 5125POPC   D2A65824  15.793  15.320   6.527
 5125POPC   C3A65825  15.603  15.120   6.894
 5125POPC   C4A65826  15.767  15.052   7.309
 5125POPC   C1B65827  16.213  15.303   6.203
 5125POPC   C2B65828  16.376  15.273   6.615
 5125POPC   C3B65829  16.092  15.241   6.931
 5125POPC   C4B65830  16.039  15.478   7.271
 5126POPC   NC365831  24.717  31.979   5.344
 5126POPC   PO465832  24.115  32.320   5.425
 5126POPC   GL165833  24.435  32.237   5.695
 5126POPC   GL265834  24.715  32.448   5.611
 5126POPC   C1A65835  24.463  32.142   6.118
 5126POPC   D2A65836  24.179  32.067   6.475
 5126POPC   C3A65837  24.327  31.931   6.874
 5126POPC   C4A65838  24.258  32.238   7.169
 5126POPC   C1B65839  24.749  32.598   6.034
 5126POPC   C2B65840  24.707  32.440   6.448
 5126POPC   C3B65841  24.775  32.524   6.873
 5126POPC   C4B65842  24.782  32.191   7.139
 5127POPC   NC365843   6.623  32.303   5.149
 5127POPC   PO465844   6.721  32.996   5.266
 5127POPC   GL165845   6.610  33.000   5.742
 5127POPC   GL265846   6.364  33.259   5.760
 5127POPC   C1A65847   6.678  33.195   6.192
 5127POPC   D2A65848   6.698  33.429   6.620
 5127POPC   C3A65849   6.827  33.127   6.986
 5127POPC   C4A65850   6.903  33.167   7.433
 5127POPC   C1B65851   6.182  33.398   6.133
 5127POPC   C2B65852   6.183  33.314   6.565
 5127POPC   C3B65853   6.355  33.279   6.950
 5127POPC   C4B65854   6.406  33.095   7.368
 5128POPC   NC365855  41.944  37.821   5.405
 5128POPC   PO465856  42.597  37.946   5.406
 5128POPC   GL165857  42.498  37.643   5.736
 5128POPC   GL265858  42.165  37.806   5.887
 5128POPC   C1A65859  42.452  37.497   6.186
 5128POPC   D2A65860  42.097  37.693   6.423
 5128POPC   C3A65861  42.162  37.635   6.860
 5128POPC   C4A65862  42.540  37.542   7.095
 5128POPC   C1B65863  42.565  37.987   6.106
 5128POPC   C2B65864  42.705  38.182   6.504
 5128POPC   C3B65865  42.643  38.055   6.958
 5128POPC   C4B65866  42.250  38.017   7.201
 5129POPC   NC365867  40.824   8.377   5.357
 5129POPC   PO465868  41.016   7.861   5.727
 5129POPC   GL165869  40.923   8.261   5.867
 5129POPC   GL265870  40.604   8.435   5.804
 5129POPC   C1A65871  40.955   8.229   6.288
 5129POPC   D2A65872  40.949   7.974   6.602
 5129POPC   C3A65873  41.053   8.263   6.894
 5129POPC   C4A65874  41.090   8.020   7.207
 5129POPC   C1B65875  40.486   8.390   6.222
 5129POPC   C2B65876  40.518   8.247   6.625
 5129POPC   C3B65877  40.576   8.436   7.011
 5129POPC   C4B65878  40.457   8.346   7.415
 5130POPC   NC365879  24.229  41.269   5.450
 5130POPC   PO465880  24.411  40.627   5.433
 5130POPC   GL165881  24.436  40.913   5.786
 5130POPC   GL265882  24.776  40.968   5.853
 5130POPC   C1A65883  24.440  40.981   6.247
 5130POPC   D2A65884  24.342  40.695   6.608
 5130POPC   C3A65885  24.120  40.913   6.931
 5130POPC   C4A65886  24.266  41.035   7.336
 5130POPC   C1B65887  24.940  40.786   6.210
 5130POPC   C2B65888  24.823  40.967   6.589
 5130POPC   C3B65889  24.622  41.008   6.947
 5130POPC   C4B65890  24.854  40.876   7.280
 5131POPC   NC365891  41.092  31.946   5.456
 5131POPC   PO465892  40.677  32.426   5.192
 5131POPC   GL165893  40.710  32.460   5.697
 5131POPC   GL265894  40.389  32.527   5.903
 5131POPC   C1A65895  40.827  32.523   6.167
 5131POPC   D2A65896  40.705  32.453   6.608
 5131POPC   C3A65897  40.983  32.227   6.893
 5131POPC   C4A65898  41.015  32.280   7.334
 5131POPC   C1B65899  40.355  32.244   6.279
 5131POPC   C2B65900  40.467  31.993   6.673
 5131POPC   C3B65901  40.551  32.011   7.118
 5131POPC   C4B65902  40.606  32.016   7.574
 5132POPC   NC365903   8.502   2.711   5.467
 5132POPC   PO465904   7.968   3.074   5.517
 5132POPC   GL165905   8.076   2.765   5.815
 5132POPC   GL265906   8.411   2.809   5.942
 5132POPC   C1A65907   8.016   2.663   6.259
 5132POPC   D2A65908   7.993   2.927   6.630
 5132POPC   C3A65909   8.052   2.780   7.053
 5132POPC   C4A65910   8.254   2.561   7.413
 5132POPC   C1B65911   8.433   2.952   6.328
 5132POPC   C2B65912   8.429   2.671   6.655
 5132POPC   C3B65913   8.563   2.723   7.046
 5132POPC   C4B65914   8.774   3.054   7.157
 5133POPC   NC365915  37.283  17.665   5.516
 5133POPC   PO465916  36.594  17.506   5.428
 5133POPC   GL165917  36.811  17.627   5.785
 5133POPC   GL265918  37.029  17.356   5.827
 5133POPC   C1A65919  36.912  17.774   6.215
 5133POPC   D2A65920  36.869  17.899   6.641
 5133POPC   C3A65921  37.070  17.613   6.869
 5133POPC   C4A65922  37.055  17.498   7.278
 5133POPC   C1B65923  36.759  17.275   6.167
 5133POPC   C2B65924  36.570  17.481   6.504
 5133POPC   C3B65925  36.650  17.339   6.901
 5133POPC   C4B65926  36.824  17.054   7.195
 5134POPC   NC365927  20.741   5.254   5.422
 5134POPC   PO465928  20.583   4.675   5.214
 5134POPC   GL165929  20.558   4.824   5.662
 5134POPC   GL265930  20.343   5.115   5.794
 5134POPC   C1A65931  20.779   4.958   6.075
 5134POPC   D2A65932  20.782   5.219   6.445
 5134POPC   C3A65933  20.886   4.997   6.804
 5134POPC   C4A65934  20.707   5.033   7.170
 5134POPC   C1B65935  20.292   5.001   6.239
 5134POPC   C2B65936  20.356   5.053   6.707
 5134POPC   C3B65937  20.196   4.968   7.108
 5134POPC   C4B65938  20.353   4.773   7.457
 5135POPC   NC365939  42.554  14.148   5.416
 5135POPC   PO465940  42.228  14.754   5.504
 5135POPC   GL165941  42.178  14.441   5.773
 5135POPC   GL265942  42.519  14.378   5.864
 5135POPC   C1A65943  42.102  14.252   6.158
 5135POPC   D2A65944  42.388  14.296   6.472
 5135POPC   C3A65945  42.233  14.494   6.841
 5135POPC   C4A65946  42.017  14.417   7.215
 5135POPC   C1B65947  42.777  14.124   6.126
 5135POPC   C2B65948  42.758  13.920   6.533
 5135POPC   C3B65949  42.581  14.067   6.916
 5135POPC   C4B65950  42.537  14.361   7.238
 5136POPC   NC365951  23.512  41.619   5.264
 5136POPC   PO465952  24.152  41.741   5.491
 5136POPC   GL165953  23.800  41.642   5.784
 5136POPC   GL265954  23.450  41.528   5.778
 5136POPC   C1A65955  23.684  41.669   6.237
 5136POPC   D2A65956  23.841  41.834   6.635
 5136POPC   C3A65957  23.717  41.734   7.071
 5136POPC   C4A65958  23.580  41.555   7.490
 5136POPC   C1B65959  23.313  41.347   6.212
 5136POPC   C2B65960  23.389  41.536   6.639
 5136POPC   C3B65961  23.297  41.438   7.080
 5136POPC   C4B65962  23.067  41.494   7.491
 5137POPC   NC365963  30.883   2.959   5.397
 5137POPC   PO465964  30.162   3.040   5.535
 5137POPC   GL165965  30.506   2.842   5.856
 5137POPC   GL265966  30.903   2.692   5.841
 5137POPC   C1A65967  30.776   2.969   6.231
 5137POPC   D2A65968  31.070   2.873   6.568
 5137POPC   C3A65969  30.858   2.785   6.958
 5137POPC   C4A65970  30.660   2.840   7.350
 5137POPC   C1B65971  30.744   2.469   6.240
 5137POPC   C2B65972  30.549   2.504   6.633
 5137POPC   C3B65973  30.476   2.447   7.069
 5137POPC   C4B65974  30.628   2.350   7.508
 5138POPC   NC365975  21.993  33.987   5.322
 5138POPC   PO465976  22.589  33.834   5.492
 5138POPC   GL165977  22.264  33.888   5.827
 5138POPC   GL265978  21.920  34.066   5.813
 5138POPC   C1A65979  22.300  33.708   6.237
 5138POPC   D2A65980  22.130  33.635   6.647
 5138POPC   C3A65981  22.380  33.742   7.000
 5138POPC   C4A65982  22.225  33.993   7.306
 5138POPC   C1B65983  21.818  33.833   6.147
 5138POPC   C2B65984  21.750  33.964   6.532
 5138POPC   C3B65985  21.880  33.990   6.946
 5138POPC   C4B65986  21.738  33.624   7.174
 5139POPC   NC365987  43.446  19.136   5.344
 5139POPC   PO465988  42.812  18.878   5.338
 5139POPC   GL165989  43.003  19.171   5.675
 5139POPC   GL265990  43.201  18.915   5.741
 5139POPC   C1A65991  43.263  19.308   6.084
 5139POPC   D2A65992  43.513  19.284   6.495
 5139POPC   C3A65993  43.245  19.250   6.878
 5139POPC   C4A65994  43.251  19.345   7.286
 5139POPC   C1B65995  42.968  18.858   6.094
 5139POPC   C2B65996  43.121  18.925   6.491
 5139POPC   C3B65997  43.276  18.734   6.860
 5139POPC   C4B65998  43.046  18.855   7.211
 5140POPC   NC365999  37.408  29.666   5.357
 5140POPC   PO466000  38.048  29.979   5.480
 5140POPC   GL166001  37.657  29.944   5.712
 5140POPC   GL266002  37.440  30.226   5.804
 5140POPC   C1A66003  37.457  29.767   6.065
 5140POPC   D2A66004  37.275  29.669   6.484
 5140POPC   C3A66005  37.434  29.787   6.904
 5140POPC   C4A66006  37.736  29.603   7.208
 5140POPC   C1B66007  37.641  30.245   6.213
 5140POPC   C2B66008  37.607  30.365   6.676
 5140POPC   C3B66009  37.423  30.284   7.097
 5140POPC   C4B66010  37.433  30.318   7.584
 5141POPC   NC366011  20.456   0.593   5.375
 5141POPC   PO466012  20.800   0.084   5.616
 5141POPC   GL166013  20.544   0.337   5.890
 5141POPC   GL266014  20.573   0.708   5.848
 5141POPC   C1A66015  20.409   0.080   6.247
 5141POPC   D2A66016  20.421  44.858   6.629
 5141POPC   C3A66017  20.698   0.049   6.921
 5141POPC   C4A66018  20.927   0.158   7.282
 5141POPC   C1B66019  20.593   0.699   6.272
 5141POPC   C2B66020  20.599   0.478   6.615
 5141POPC   C3B66021  20.502   0.601   7.002
 5141POPC   C4B66022  20.780   0.649   7.297
 5142POPC   NC366023  35.046  44.618   5.137
 5142POPC   PO466024  35.424  44.027   5.327
 5142POPC   GL166025  35.538  43.993   5.784
 5142POPC   GL266026  35.709  44.309   5.858
 5142POPC   C1A66027  35.320  43.833   6.190
 5142POPC   D2A66028  35.094  43.726   6.588
 5142POPC   C3A66029  35.249  43.867   6.999
 5142POPC   C4A66030  35.392  43.576   7.300
 5142POPC   C1B66031  35.673  44.217   6.253
 5142POPC   C2B66032  35.851  44.183   6.632
 5142POPC   C3B66033  35.702  44.146   7.029
 5142POPC   C4B66034  35.648  44.021   7.457
 5143POPC   NC366035  44.804  44.356   5.413
 5143POPC   PO466036  44.537  44.923   5.262
 5143POPC   GL166037  44.391  44.676   5.633
 5143POPC   GL266038  44.695  44.648   5.835
 5143POPC   C1A66039  44.285  44.645   6.121
 5143POPC   D2A66040  44.537  44.562   6.513
 5143POPC   C3A66041  44.348  44.704   6.883
 5143POPC   C4A66042  44.485  44.924   7.238
 5143POPC   C1B66043  44.837  44.366   6.146
 5143POPC   C2B66044   0.018  44.309   6.565
 5143POPC   C3B66045  44.784  44.421   6.968
 5143POPC   C4B66046  44.475  44.395   7.297
 5144POPC   NC366047  27.924  28.487   5.401
 5144POPC   PO466048  28.530  28.787   5.415
 5144POPC   GL166049  28.380  28.543   5.730
 5144POPC   GL266050  28.590  28.272   5.721
 5144POPC   C1A66051  28.392  28.587   6.190
 5144POPC   D2A66052  28.282  28.800   6.600
 5144POPC   C3A66053  28.416  28.729   7.054
 5144POPC   C4A66054  28.526  28.505   7.451
 5144POPC   C1B66055  28.280  28.098   6.010
 5144POPC   C2B66056  28.111  28.192   6.434
 5144POPC   C3B66057  28.258  28.256   6.867
 5144POPC   C4B66058  28.170  28.187   7.301
 5145POPC   NC366059  44.215   1.889   5.273
 5145POPC   PO466060  44.826   2.095   5.425
 5145POPC   GL166061  44.495   1.885   5.702
 5145POPC   GL266062  44.480   1.523   5.619
 5145POPC   C1A66063  44.427   1.996   6.143
 5145POPC   D2A66064  44.754   2.027   6.483
 5145POPC   C3A66065  44.528   2.114   6.853
 5145POPC   C4A66066  44.338   1.991   7.241
 5145POPC   C1B66067  44.614   1.517   6.074
 5145POPC   C2B66068  44.440   1.598   6.504
 5145POPC   C3B66069  44.312   1.545   6.937
 5145POPC   C4B66070  44.678   1.473   7.193
 5146POPC   NC366071  32.252  20.344   5.333
 5146POPC   PO466072  31.888  20.945   5.599
 5146POPC   GL166073  32.208  20.644   5.730
 5146POPC   GL266074  32.189  20.289   5.831
 5146POPC   C1A66075  32.300  20.630   6.189
 5146POPC   D2A66076  32.053  20.803   6.543
 5146POPC   C3A66077  32.161  20.746   6.972
 5146POPC   C4A66078  31.885  20.432   7.130
 5146POPC   C1B66079  32.198  20.128   6.264
 5146POPC   C2B66080  32.278  20.332   6.664
 5146POPC   C3B66081  32.373  20.288   7.113
 5146POPC   C4B66082  32.318  20.568   7.463
 5147POPC   NC366083  43.818  13.323   5.632
 5147POPC   PO466084  43.718  13.865   5.241
 5147POPC   GL166085  43.878  13.833   5.703
 5147POPC   GL266086  43.665  13.910   5.948
 5147POPC   C1A66087  44.154  13.856   6.125
 5147POPC   D2A66088  44.100  13.930   6.562
 5147POPC   C3A66089  43.916  13.593   6.794
 5147POPC   C4A66090  43.781  13.638   7.209
 5147POPC   C1B66091  43.804  13.519   6.238
 5147POPC   C2B66092  43.537  13.316   6.537
 5147POPC   C3B66093  43.503  13.251   6.942
 5147POPC   C4B66094  43.416  13.339   7.362
 5148POPC   NC366095  42.226   8.967   5.430
 5148POPC   PO466096  42.901   8.947   5.469
 5148POPC   GL166097  42.609   8.910   5.778
 5148POPC   GL266098  42.566   9.257   5.848
 5148POPC   C1A66099  42.330   8.886   6.153
 5148POPC   D2A66100  42.259   8.637   6.527
 5148POPC   C3A66101  42.438   8.641   6.943
 5148POPC   C4A66102  42.209   8.896   7.186
 5148POPC   C1B66103  42.495   9.356   6.293
 5148POPC   C2B66104  42.321   9.308   6.725
 5148POPC   C3B66105  42.302   9.398   7.176
 5148POPC   C4B66106  42.486   9.132   7.543
 5149POPC   NC366107   8.217  11.405   5.276
 5149POPC   PO466108   8.274  10.835   5.683
 5149POPC   GL166109   8.392  11.252   5.772
 5149POPC   GL266110   8.090  11.491   5.766
 5149POPC   C1A66111   8.313  11.344   6.210
 5149POPC   D2A66112   8.140  11.514   6.576
 5149POPC   C3A66113   8.376  11.331   6.882
 5149POPC   C4A66114   8.596  11.216   7.271
 5149POPC   C1B66115   7.804  11.419   6.113
 5149POPC   C2B66116   7.755  11.189   6.482
 5149POPC   C3B66117   7.887  11.141   6.904
 5149POPC   C4B66118   8.023  11.427   7.210
 5150POPC   NC366119  31.393  29.754   5.307
 5150POPC   PO466120  31.926  30.171   5.222
 5150POPC   GL166121  31.599  30.086   5.612
 5150POPC   GL266122  31.551  29.735   5.792
 5150POPC   C1A66123  31.398  30.128   6.063
 5150POPC   D2A66124  31.438  30.150   6.544
 5150POPC   C3A66125  31.497  29.922   6.946
 5150POPC   C4A66126  31.826  29.806   7.217
 5150POPC   C1B66127  31.614  29.698   6.264
 5150POPC   C2B66128  31.421  29.516   6.636
 5150POPC   C3B66129  31.390  29.392   7.040
 5150POPC   C4B66130  31.658  29.253   7.377
 5151POPC   NC366131   4.037  24.498   5.269
 5151POPC   PO466132   3.360  24.594   5.350
 5151POPC   GL166133   3.412  24.584   5.796
 5151POPC   GL266134   3.721  24.718   5.927
 5151POPC   C1A66135   3.496  24.270   6.142
 5151POPC   D2A66136   3.648  24.081   6.522
 5151POPC   C3A66137   3.491  24.239   6.877
 5151POPC   C4A66138   3.855  24.167   7.156
 5151POPC   C1B66139   3.381  24.773   6.277
 5151POPC   C2B66140   3.363  24.901   6.719
 5151POPC   C3B66141   3.640  24.702   7.027
 5151POPC   C4B66142   3.901  24.638   7.368
 5152POPC   NC366143  36.457  35.055   5.342
 5152POPC   PO466144  37.075  35.435   5.436
 5152POPC   GL166145  36.778  35.319   5.726
 5152POPC   GL266146  36.728  35.649   5.880
 5152POPC   C1A66147  36.810  35.086   6.105
 5152POPC   D2A66148  36.719  34.934   6.511
 5152POPC   C3A66149  36.882  35.140   6.839
 5152POPC   C4A66150  36.861  35.185   7.244
 5152POPC   C1B66151  36.461  35.529   6.186
 5152POPC   C2B66152  36.569  35.433   6.571
 5152POPC   C3B66153  36.586  35.564   6.999
 5152POPC   C4B66154  36.619  35.588   7.449
 5153POPC   NC366155  33.904   7.031   5.410
 5153POPC   PO466156  34.022   7.730   5.341
 5153POPC   GL166157  33.826   7.456   5.698
 5153POPC   GL266158  33.745   7.730   5.925
 5153POPC   C1A66159  33.771   7.271   6.128
 5153POPC   D2A66160  33.677   7.612   6.456
 5153POPC   C3A66161  33.786   7.547   6.876
 5153POPC   C4A66162  33.735   7.210   7.186
 5153POPC   C1B66163  34.096   7.714   6.173
 5153POPC   C2B66164  34.181   7.833   6.602
 5153POPC   C3B66165  34.207   7.873   7.041
 5153POPC   C4B66166  34.026   7.615   7.326
 5154POPC   NC366167  33.625  36.615   5.484
 5154POPC   PO466168  33.959  35.993   5.355
 5154POPC   GL166169  33.922  36.098   5.809
 5154POPC   GL266170  33.740  36.397   5.932
 5154POPC   C1A66171  34.112  36.204   6.232
 5154POPC   D2A66172  33.900  36.230   6.622
 5154POPC   C3A66173  33.983  36.322   7.043
 5154POPC   C4A66174  34.103  35.950   7.151
 5154POPC   C1B66175  33.547  36.126   6.237
 5154POPC   C2B66176  33.392  36.176   6.669
 5154POPC   C3B66177  33.600  35.979   7.019
 5154POPC   C4B66178  33.720  36.094   7.449
 5155POPC   NC366179  28.320  19.246   5.312
 5155POPC   PO466180  28.740  18.925   5.669
 5155POPC   GL166181  28.350  19.045   5.826
 5155POPC   GL266182  28.531  19.380   5.799
 5155POPC   C1A66183  28.143  18.910   6.248
 5155POPC   D2A66184  28.175  18.761   6.705
 5155POPC   C3A66185  28.114  19.094   7.017
 5155POPC   C4A66186  27.776  19.411   7.086
 5155POPC   C1B66187  28.564  19.230   6.238
 5155POPC   C2B66188  28.372  19.281   6.613
 5155POPC   C3B66189  28.617  19.261   6.993
 5155POPC   C4B66190  28.462  19.079   7.380
 5156POPC   NC366191  39.851  17.867   5.160
 5156POPC   PO466192  40.140  17.290   5.225
 5156POPC   GL166193  40.063  17.492   5.700
 5156POPC   GL266194  40.314  17.332   5.873
 5156POPC   C1A66195  39.759  17.373   6.113
 5156POPC   D2A66196  39.657  17.593   6.538
 5156POPC   C3A66197  39.797  17.480   6.991
 5156POPC   C4A66198  39.792  17.203   7.351
 5156POPC   C1B66199  40.278  17.554   6.239
 5156POPC   C2B66200  40.158  17.635   6.651
 5156POPC   C3B66201  40.346  17.827   7.007
 5156POPC   C4B66202  40.499  17.557   7.299
 5157POPC   NC366203  19.330  16.070   5.118
 5157POPC   PO466204  18.908  15.613   5.380
 5157POPC   GL166205  19.068  15.951   5.686
 5157POPC   GL266206  19.363  15.895   5.906
 5157POPC   C1A66207  18.938  16.052   6.114
 5157POPC   D2A66208  18.723  16.078   6.496
 5157POPC   C3A66209  18.825  15.907   6.885
 5157POPC   C4A66210  18.929  16.074   7.256
 5157POPC   C1B66211  19.438  16.127   6.249
 5157POPC   C2B66212  19.265  15.996   6.623
 5157POPC   C3B66213  19.385  16.095   7.044
 5157POPC   C4B66214  19.385  15.818   7.425
 5158POPC   NC366215  23.918  14.721   5.447
 5158POPC   PO466216  23.640  15.283   5.108
 5158POPC   GL166217  23.742  15.302   5.613
 5158POPC   GL266218  23.612  15.024   5.735
 5158POPC   C1A66219  23.710  15.319   6.117
 5158POPC   D2A66220  23.984  15.273   6.511
 5158POPC   C3A66221  23.760  15.257   6.920
 5158POPC   C4A66222  23.739  15.393   7.384
 5158POPC   C1B66223  23.937  14.864   6.071
 5158POPC   C2B66224  23.965  14.768   6.505
 5158POPC   C3B66225  24.159  14.897   6.887
 5158POPC   C4B66226  23.940  14.945   7.269
 5159POPC   NC366227  23.396  20.741   5.055
 5159POPC   PO466228  23.907  20.435   5.182
 5159POPC   GL166229  23.959  20.654   5.640
 5159POPC   GL266230  24.235  20.502   5.834
 5159POPC   C1A66231  23.785  20.576   6.069
 5159POPC   D2A66232  23.662  20.668   6.477
 5159POPC   C3A66233  23.538  20.439   6.839
 5159POPC   C4A66234  23.459  20.588   7.250
 5159POPC   C1B66235  24.223  20.401   6.277
 5159POPC   C2B66236  24.040  20.384   6.684
 5159POPC   C3B66237  23.986  20.555   7.123
 5159POPC   C4B66238  24.000  20.364   7.557
 5160POPC   NC366239  31.165  31.338   5.184
 5160POPC   PO466240  31.559  31.870   5.388
 5160POPC   GL166241  31.692  31.752   5.819
 5160POPC   GL266242  31.582  31.408   5.775
 5160POPC   C1A66243  31.661  31.608   6.266
 5160POPC   D2A66244  31.402  31.760   6.609
 5160POPC   C3A66245  31.313  31.644   6.992
 5160POPC   C4A66246  31.341  31.373   7.326
 5160POPC   C1B66247  31.917  31.211   6.032
 5160POPC   C2B66248  31.951  31.223   6.505
 5160POPC   C3B66249  31.806  31.428   6.919
 5160POPC   C4B66250  31.851  31.272   7.331
 5161POPC   NC366251   9.943  15.121   5.296
 5161POPC   PO466252   9.317  15.092   5.486
 5161POPC   GL166253   9.674  15.003   5.742
 5161POPC   GL266254   9.829  15.332   5.782
 5161POPC   C1A66255   9.671  14.971   6.190
 5161POPC   D2A66256   9.552  15.276   6.512
 5161POPC   C3A66257   9.789  15.188   6.879
 5161POPC   C4A66258   9.685  15.191   7.306
 5161POPC   C1B66259   9.993  15.388   6.228
 5161POPC   C2B66260  10.251  15.338   6.616
 5161POPC   C3B66261  10.244  15.345   7.071
 5161POPC   C4B66262  10.133  14.981   7.314
 5162POPC   NC366263  35.710  20.143   5.499
 5162POPC   PO466264  35.980  19.650   5.103
 5162POPC   GL166265  36.157  19.628   5.585
 5162POPC   GL266266  36.496  19.518   5.726
 5162POPC   C1A66267  36.054  19.795   6.013
 5162POPC   D2A66268  36.241  20.045   6.374
 5162POPC   C3A66269  36.074  20.039   6.821
 5162POPC   C4A66270  36.246  19.873   7.206
 5162POPC   C1B66271  36.409  19.488   6.209
 5162POPC   C2B66272  36.316  19.596   6.650
 5162POPC   C3B66273  36.382  19.407   7.091
 5162POPC   C4B66274  36.434  19.456   7.554
 5163POPC   NC366275  28.055  11.362   5.544
 5163POPC   PO466276  28.323  10.749   5.572
 5163POPC   GL166277  28.411  11.095   5.861
 5163POPC   GL266278  28.493  11.476   5.834
 5163POPC   C1A66279  28.212  11.070   6.248
 5163POPC   D2A66280  27.941  11.210   6.599
 5163POPC   C3A66281  28.099  11.079   6.981
 5163POPC   C4A66282  28.126  11.277   7.348
 5163POPC   C1B66283  28.627  11.356   6.251
 5163POPC   C2B66284  28.454  11.291   6.660
 5163POPC   C3B66285  28.566  11.402   7.091
 5163POPC   C4B66286  28.612  11.248   7.536
 5164POPC   NC366287  38.023  19.191   5.521
 5164POPC   PO466288  37.351  18.956   5.470
 5164POPC   GL166289  37.479  19.036   5.861
 5164POPC   GL266290  37.772  18.836   5.869
 5164POPC   C1A66291  37.364  19.237   6.256
 5164POPC   D2A66292  37.476  19.439   6.658
 5164POPC   C3A66293  37.576  19.110   6.967
 5164POPC   C4A66294  37.561  18.815   7.366
 5164POPC   C1B66295  37.844  19.002   6.289
 5164POPC   C2B66296  38.056  18.924   6.690
 5164POPC   C3B66297  38.042  18.992   7.132
 5164POPC   C4B66298  38.149  18.993   7.585
 5165POPC   NC366299  22.247  13.372   5.540
 5165POPC   PO466300  21.862  13.904   5.500
 5165POPC   GL166301  22.049  13.683   5.889
 5165POPC   GL266302  22.406  13.666   5.911
 5165POPC   C1A66303  22.182  13.444   6.297
 5165POPC   D2A66304  22.260  13.693   6.676
 5165POPC   C3A66305  21.965  13.696   6.993
 5165POPC   C4A66306  21.609  13.965   7.086
 5165POPC   C1B66307  22.585  13.796   6.300
 5165POPC   C2B66308  22.787  13.657   6.697
 5165POPC   C3B66309  22.517  13.445   7.033
 5165POPC   C4B66310  22.325  13.704   7.361
 5166POPC   NC366311   4.310  14.574   5.552
 5166POPC   PO466312   4.490  13.962   5.568
 5166POPC   GL166313   4.421  14.183   5.891
 5166POPC   GL266314   4.083  14.258   5.896
 5166POPC   C1A66315   4.517  14.361   6.273
 5166POPC   D2A66316   4.355  14.463   6.652
 5166POPC   C3A66317   4.604  14.460   7.001
 5166POPC   C4A66318   4.497  14.393   7.412
 5166POPC   C1B66319   4.105  14.655   6.205
 5166POPC   C2B66320   3.925  14.711   6.667
 5166POPC   C3B66321   4.077  14.519   7.110
 5166POPC   C4B66322   4.055  14.587   7.616
 5167POPC   NC366323  37.436  35.123   5.468
 5167POPC   PO466324  37.896  35.617   5.414
 5167POPC   GL166325  37.780  35.361   5.798
 5167POPC   GL266326  37.805  34.979   5.819
 5167POPC   C1A66327  37.883  35.295   6.245
 5167POPC   D2A66328  37.746  35.357   6.687
 5167POPC   C3A66329  37.972  35.201   7.036
 5167POPC   C4A66330  38.020  35.322   7.439
 5167POPC   C1B66331  37.446  35.021   6.139
 5167POPC   C2B66332  37.314  34.951   6.594
 5167POPC   C3B66333  37.354  35.181   7.017
 5167POPC   C4B66334  37.565  35.491   7.204
 5168POPC   NC366335  27.487  39.468   5.380
 5168POPC   PO466336  27.201  38.842   5.363
 5168POPC   GL166337  27.371  39.057   5.758
 5168POPC   GL266338  27.472  39.417   5.873
 5168POPC   C1A66339  27.552  39.048   6.197
 5168POPC   D2A66340  27.479  39.331   6.542
 5168POPC   C3A66341  27.551  39.079   6.890
 5168POPC   C4A66342  27.356  39.122   7.292
 5168POPC   C1B66343  27.394  39.719   6.210
 5168POPC   C2B66344  27.220  39.866   6.583
 5168POPC   C3B66345  27.315  39.637   6.926
 5168POPC   C4B66346  27.716  39.487   7.120
 5169POPC   NC366347  24.016  42.263   5.475
 5169POPC   PO466348  23.400  42.060   5.234
 5169POPC   GL166349  23.568  42.111   5.662
 5169POPC   GL266350  23.581  42.489   5.733
 5169POPC   C1A66351  23.749  42.150   6.097
 5169POPC   D2A66352  23.488  42.186   6.471
 5169POPC   C3A66353  23.643  42.228   6.915
 5169POPC   C4A66354  23.957  42.260   7.221
 5169POPC   C1B66355  23.592  42.634   6.187
 5169POPC   C2B66356  23.612  42.674   6.654
 5169POPC   C3B66357  23.495  42.687   7.116
 5169POPC   C4B66358  23.633  42.528   7.537
 5170POPC   NC366359  26.794   3.930   5.490
 5170POPC   PO466360  27.066   3.254   5.357
 5170POPC   GL166361  26.885   3.457   5.719
 5170POPC   GL266362  27.210   3.617   5.721
 5170POPC   C1A66363  26.570   3.513   6.096
 5170POPC   D2A66364  26.449   3.488   6.570
 5170POPC   C3A66365  26.787   3.242   6.840
 5170POPC   C4A66366  27.041   3.311   7.226
 5170POPC   C1B66367  27.088   3.802   6.116
 5170POPC   C2B66368  26.798   3.859   6.440
 5170POPC   C3B66369  26.886   3.738   6.837
 5170POPC   C4B66370  26.830   3.815   7.247
 5171POPC   NC366371  26.519  37.874   5.486
 5171POPC   PO466372  26.094  37.355   5.528
 5171POPC   GL166373  26.284  37.545   5.867
 5171POPC   GL266374  26.220  37.917   5.945
 5171POPC   C1A66375  26.229  37.500   6.309
 5171POPC   D2A66376  26.396  37.692   6.647
 5171POPC   C3A66377  26.133  37.656   6.971
 5171POPC   C4A66378  26.095  37.414   7.322
 5171POPC   C1B66379  25.928  37.932   6.331
 5171POPC   C2B66380  25.751  37.930   6.753
 5171POPC   C3B66381  25.945  38.094   7.120
 5171POPC   C4B66382  26.034  37.908   7.503
 5172POPC   NC366383  21.541  18.251   5.252
 5172POPC   PO466384  20.932  17.999   5.050
 5172POPC   GL166385  21.149  18.129   5.555
 5172POPC   GL266386  21.077  18.436   5.812
 5172POPC   C1A66387  21.192  18.012   6.059
 5172POPC   D2A66388  21.398  18.015   6.507
 5172POPC   C3A66389  21.254  18.142   6.983
 5172POPC   C4A66390  21.316  18.103   7.481
 5172POPC   C1B66391  21.345  18.499   6.216
 5172POPC   C2B66392  21.528  18.487   6.647
 5172POPC   C3B66393  21.551  18.664   7.075
 5172POPC   C4B66394  21.678  18.445   7.465
 5173POPC   NC366395  37.196  12.020   5.476
 5173POPC   PO466396  36.556  12.265   5.390
 5173POPC   GL166397  36.637  12.238   5.820
 5173POPC   GL266398  36.866  11.940   5.868
 5173POPC   C1A66399  36.696  12.213   6.265
 5173POPC   D2A66400  37.020  12.085   6.557
 5173POPC   C3A66401  36.867  12.159   6.986
 5173POPC   C4A66402  36.733  11.992   7.391
 5173POPC   C1B66403  37.253  11.871   6.135
 5173POPC   C2B66404  37.307  11.622   6.515
 5173POPC   C3B66405  37.025  11.652   6.848
 5173POPC   C4B66406  37.142  11.772   7.231
 5174POPC   NC366407  16.052  40.247   5.633
 5174POPC   PO466408  15.565  39.816   5.288
 5174POPC   GL166409  15.794  39.820   5.730
 5174POPC   GL266410  16.170  39.756   5.844
 5174POPC   C1A66411  15.891  39.932   6.224
 5174POPC   D2A66412  15.967  39.755   6.656
 5174POPC   C3A66413  15.937  39.983   7.050
 5174POPC   C4A66414  15.578  40.276   7.204
 5174POPC   C1B66415  16.375  40.099   6.150
 5174POPC   C2B66416  16.170  40.276   6.523
 5174POPC   C3B66417  16.061  40.483   6.905
 5174POPC   C4B66418  16.072  40.390   7.321
 5175POPC   NC366419   3.340  24.159   5.511
 5175POPC   PO466420   3.642  23.597   5.421
 5175POPC   GL166421   3.723  23.874   5.761
 5175POPC   GL266422   3.833  24.237   5.722
 5175POPC   C1A66423   3.640  23.718   6.177
 5175POPC   D2A66424   3.297  23.689   6.500
 5175POPC   C3A66425   3.380  23.738   6.959
 5175POPC   C4A66426   3.400  24.030   7.324
 5175POPC   C1B66427   4.024  24.074   6.125
 5175POPC   C2B66428   4.081  23.746   6.457
 5175POPC   C3B66429   3.933  23.688   6.900
 5175POPC   C4B66430   3.712  23.426   7.208
 5176POPC   NC366431  35.123  23.100   5.450
 5176POPC   PO466432  34.527  23.100   5.314
 5176POPC   GL166433  34.649  23.119   5.713
 5176POPC   GL266434  34.433  22.850   5.808
 5176POPC   C1A66435  34.734  23.296   6.125
 5176POPC   D2A66436  34.945  23.270   6.522
 5176POPC   C3A66437  34.769  23.228   6.867
 5176POPC   C4A66438  34.834  23.425   7.219
 5176POPC   C1B66439  34.739  22.784   6.098
 5176POPC   C2B66440  34.687  22.813   6.535
 5176POPC   C3B66441  34.576  22.776   6.978
 5176POPC   C4B66442  34.500  23.079   7.308
 5177POPC   NC366443  39.705   1.552   5.433
 5177POPC   PO466444  40.346   1.733   5.420
 5177POPC   GL166445  40.120   1.898   5.791
 5177POPC   GL266446  39.749   1.966   5.774
 5177POPC   C1A66447  40.206   2.160   6.156
 5177POPC   D2A66448  40.426   2.315   6.516
 5177POPC   C3A66449  40.417   2.047   6.874
 5177POPC   C4A66450  40.268   1.912   7.292
 5177POPC   C1B66451  39.722   2.037   6.227
 5177POPC   C2B66452  39.925   2.108   6.648
 5177POPC   C3B66453  39.850   2.162   7.107
 5177POPC   C4B66454  39.774   1.855   7.455
 5178POPC   NC366455  12.253  37.886   5.020
 5178POPC   PO466456  12.177  37.692   5.736
 5178POPC   GL166457  12.314  37.360   5.978
 5178POPC   GL266458  12.156  37.534   6.250
 5178POPC   C1A66459  12.415  37.122   6.345
 5178POPC   D2A66460  12.169  37.142   6.720
 5178POPC   C3A66461  12.213  37.496   6.980
 5178POPC   C4A66462  11.817  37.662   7.149
 5178POPC   C1B66463  12.364  37.932   6.349
 5178POPC   C2B66464  12.176  38.125   6.703
 5178POPC   C3B66465  12.209  37.990   7.123
 5178POPC   C4B66466  12.218  38.093   7.552
 5179POPC   NC366467  19.524  33.506   5.060
 5179POPC   PO466468  19.963  33.758   5.542
 5179POPC   GL166469  19.814  33.967   5.895
 5179POPC   GL266470  19.484  34.116   5.796
 5179POPC   C1A66471  19.946  33.996   6.336
 5179POPC   D2A66472  19.953  34.233   6.691
 5179POPC   C3A66473  19.831  34.009   7.041
 5179POPC   C4A66474  20.200  33.912   7.292
 5179POPC   C1B66475  19.434  33.981   6.242
 5179POPC   C2B66476  19.568  33.751   6.604
 5179POPC   C3B66477  19.433  33.667   7.008
 5179POPC   C4B66478  19.306  33.913   7.374
 5180POPC   NC366479  38.395  43.429   5.491
 5180POPC   PO466480  38.436  42.742   5.480
 5180POPC   GL166481  38.297  42.762   5.861
 5180POPC   GL266482  38.162  43.107   5.837
 5180POPC   C1A66483  38.333  42.835   6.262
 5180POPC   D2A66484  38.348  43.065   6.593
 5180POPC   C3A66485  38.372  42.846   6.933
 5180POPC   C4A66486  38.167  43.071   7.269
 5180POPC   C1B66487  38.348  43.362   6.181
 5180POPC   C2B66488  38.616  43.480   6.611
 5180POPC   C3B66489  38.660  43.272   7.045
 5180POPC   C4B66490  38.751  43.335   7.517
 5181POPC   NC366491   9.497  24.033   4.983
 5181POPC   PO466492   9.552  24.644   5.426
 5181POPC   GL166493   9.609  24.442   5.814
 5181POPC   GL266494   9.777  24.718   5.901
 5181POPC   C1A66495   9.490  24.225   6.163
 5181POPC   D2A66496   9.614  24.120   6.582
 5181POPC   C3A66497   9.784  24.429   6.871
 5181POPC   C4A66498   9.893  24.438   7.316
 5181POPC   C1B66499   9.843  24.586   6.305
 5181POPC   C2B66500   9.868  24.876   6.621
 5181POPC   C3B66501   9.990  24.874   7.048
 5181POPC   C4B66502   9.805  24.921   7.452
 5182POPC   NC366503  32.521  13.525   5.530
 5182POPC   PO466504  33.044  13.906   5.289
 5182POPC   GL166505  32.982  13.802   5.715
 5182POPC   GL266506  33.267  13.588   5.885
 5182POPC   C1A66507  32.887  13.789   6.168
 5182POPC   D2A66508  33.138  13.677   6.514
 5182POPC   C3A66509  32.985  13.547   6.919
 5182POPC   C4A66510  33.053  13.617   7.340
 5182POPC   C1B66511  33.432  13.335   6.269
 5182POPC   C2B66512  33.489  13.371   6.744
 5182POPC   C3B66513  33.280  13.197   7.129
 5182POPC   C4B66514  33.313  13.230   7.610
 5183POPC   NC366515  32.872  10.996   5.504
 5183POPC   PO466516  33.332  11.336   5.211
 5183POPC   GL166517  33.046  11.452   5.707
 5183POPC   GL266518  32.772  11.271   5.919
 5183POPC   C1A66519  33.248  11.423   6.196
 5183POPC   D2A66520  33.344  11.150   6.591
 5183POPC   C3A66521  33.295  11.362   6.984
 5183POPC   C4A66522  33.156  11.287   7.405
 5183POPC   C1B66523  32.896  11.089   6.336
 5183POPC   C2B66524  32.830  11.157   6.793
 5183POPC   C3B66525  32.577  11.360   7.132
 5183POPC   C4B66526  32.663  11.454   7.570
 5184POPC   NC366527  20.334  42.885   5.431
 5184POPC   PO466528  20.109  43.507   5.603
 5184POPC   GL166529  20.398  43.230   5.827
 5184POPC   GL266530  20.671  42.953   5.823
 5184POPC   C1A66531  20.500  43.241   6.245
 5184POPC   D2A66532  20.234  43.275   6.545
 5184POPC   C3A66533  20.436  43.459   6.870
 5184POPC   C4A66534  20.631  43.266   7.222
 5184POPC   C1B66535  20.954  43.037   6.176
 5184POPC   C2B66536  21.038  43.169   6.578
 5184POPC   C3B66537  20.687  43.023   6.780
 5184POPC   C4B66538  20.688  42.750   7.127
 5185POPC   NC366539  24.533  27.180   5.510
 5185POPC   PO466540  24.772  26.647   5.357
 5185POPC   GL166541  24.622  26.760   5.791
 5185POPC   GL266542  24.263  26.888   5.825
 5185POPC   C1A66543  24.718  26.661   6.229
 5185POPC   D2A66544  24.497  26.557   6.615
 5185POPC   C3A66545  24.678  26.758   7.003
 5185POPC   C4A66546  24.532  26.595   7.380
 5185POPC   C1B66547  24.277  26.931   6.273
 5185POPC   C2B66548  24.359  27.032   6.692
 5185POPC   C3B66549  24.173  26.766   6.975
 5185POPC   C4B66550  24.241  27.005   7.251
 5186POPC   NC366551  36.938  37.462   5.383
 5186POPC   PO466552  37.391  37.892   5.449
 5186POPC   GL166553  37.178  37.653   5.808
 5186POPC   GL266554  36.842  37.804   5.748
 5186POPC   C1A66555  36.834  37.478   6.126
 5186POPC   D2A66556  36.682  37.460   6.550
 5186POPC   C3A66557  36.978  37.613   6.826
 5186POPC   C4A66558  36.999  37.667   7.238
 5186POPC   C1B66559  36.904  37.991   6.164
 5186POPC   C2B66560  36.738  38.043   6.600
 5186POPC   C3B66561  37.027  38.119   6.933
 5186POPC   C4B66562  37.148  38.173   7.345
 5187POPC   NC366563   0.410   5.530   5.126
 5187POPC   PO466564   0.352   6.132   5.471
 5187POPC   GL166565   0.534   5.938   5.840
 5187POPC   GL266566   0.262   5.764   5.973
 5187POPC   C1A66567   0.693   5.788   6.268
 5187POPC   D2A66568   0.551   5.878   6.668
 5187POPC   C3A66569   0.701   5.775   7.079
 5187POPC   C4A66570   0.644   5.938   7.461
 5187POPC   C1B66571   0.023   5.813   6.328
 5187POPC   C2B66572   0.033   5.794   6.759
 5187POPC   C3B66573   0.221   5.628   7.106
 5187POPC   C4B66574   0.098   5.398   7.438
 5188POPC   NC366575  25.030  13.704   5.382
 5188POPC   PO466576  25.699  13.616   5.369
 5188POPC   GL166577  25.444  13.431   5.705
 5188POPC   GL266578  25.109  13.496   5.838
 5188POPC   C1A66579  25.480  13.406   6.163
 5188POPC   D2A66580  25.386  13.664   6.547
 5188POPC   C3A66581  25.364  13.476   6.948
 5188POPC   C4A66582  25.209  13.481   7.394
 5188POPC   C1B66583  24.935  13.731   6.198
 5188POPC   C2B66584  24.854  13.714   6.652
 5188POPC   C3B66585  25.019  13.845   7.066
 5188POPC   C4B66586  24.960  13.914   7.532
 5189POPC   NC366587  29.701   9.623   5.324
 5189POPC   PO466588  30.236   9.863   5.679
 5189POPC   GL166589  29.920   9.575   5.840
 5189POPC   GL266590  29.560   9.457   5.768
 5189POPC   C1A66591  29.968   9.597   6.287
 5189POPC   D2A66592  29.906   9.859   6.654
 5189POPC   C3A66593  30.028   9.772   7.072
 5189POPC   C4A66594  29.987   9.750   7.532
 5189POPC   C1B66595  29.551   9.310   6.141
 5189POPC   C2B66596  29.534   9.508   6.529
 5189POPC   C3B66597  29.505   9.519   6.949
 5189POPC   C4B66598  29.806   9.346   7.226
 5190POPC   NC366599   6.644  27.983   5.064
 5190POPC   PO466600   6.260  27.610   5.456
 5190POPC   GL166601   6.411  27.465   5.818
 5190POPC   GL266602   6.329  27.773   5.972
 5190POPC   C1A66603   6.587  27.365   6.227
 5190POPC   D2A66604   6.578  27.195   6.638
 5190POPC   C3A66605   6.569  27.450   6.991
 5190POPC   C4A66606   6.891  27.521   7.284
 5190POPC   C1B66607   6.736  27.857   6.193
 5190POPC   C2B66608   6.772  27.707   6.599
 5190POPC   C3B66609   6.724  27.930   6.998
 5190POPC   C4B66610   6.424  27.880   7.309
 5191POPC   NC366611  41.119  19.976   5.542
 5191POPC   PO466612  40.629  19.547   5.484
 5191POPC   GL166613  40.549  19.666   5.883
 5191POPC   GL266614  40.901  19.697   5.943
 5191POPC   C1A66615  40.565  19.473   6.298
 5191POPC   D2A66616  40.524  19.440   6.740
 5191POPC   C3A66617  40.743  19.800   6.923
 5191POPC   C4A66618  40.642  19.894   7.347
 5191POPC   C1B66619  41.092  20.020   6.199
 5191POPC   C2B66620  41.047  20.287   6.577
 5191POPC   C3B66621  41.054  20.194   7.022
 5191POPC   C4B66622  41.122  19.990   7.430
 5192POPC   NC366623  25.636  43.000   5.459
 5192POPC   PO466624  25.003  42.791   5.320
 5192POPC   GL166625  25.153  43.044   5.684
 5192POPC   GL266626  25.077  43.399   5.783
 5192POPC   C1A66627  25.088  43.033   6.146
 5192POPC   D2A66628  25.313  43.095   6.521
 5192POPC   C3A66629  25.082  43.095   6.863
 5192POPC   C4A66630  25.306  43.056   7.207
 5192POPC   C1B66631  25.386  43.478   6.139
 5192POPC   C2B66632  25.545  43.558   6.575
 5192POPC   C3B66633  25.339  43.520   7.001
 5192POPC   C4B66634  24.922  43.558   7.148
 5193POPC   NC366635  12.399   9.500   5.576
 5193POPC   PO466636  12.864   9.896   5.630
 5193POPC   GL166637  12.642   9.923   5.971
 5193POPC   GL266638  12.320   9.931   5.902
 5193POPC   C1A66639  12.763   9.856   6.372
 5193POPC   D2A66640  12.931   9.589   6.694
 5193POPC   C3A66641  12.927   9.692   7.128
 5193POPC   C4A66642  13.236   9.685   7.426
 5193POPC   C1B66643  12.313   9.645   6.253
 5193POPC   C2B66644  12.405   9.614   6.691
 5193POPC   C3B66645  12.421   9.697   7.112
 5193POPC   C4B66646  12.633  10.070   7.267
 5194POPC   NC366647  13.298  38.592   5.357
 5194POPC   PO466648  12.705  38.260   5.218
 5194POPC   GL166649  12.763  38.373   5.651
 5194POPC   GL266650  12.947  38.680   5.718
 5194POPC   C1A66651  12.780  38.363   6.098
 5194POPC   D2A66652  12.954  38.441   6.500
 5194POPC   C3A66653  12.711  38.188   6.831
 5194POPC   C4A66654  12.519  38.366   7.234
 5194POPC   C1B66655  12.963  38.848   6.130
 5194POPC   C2B66656  12.723  38.944   6.496
 5194POPC   C3B66657  12.753  38.711   6.876
 5194POPC   C4B66658  13.000  38.456   7.160
 5195POPC   NC366659  40.658  26.593   5.298
 5195POPC   PO466660  41.163  27.077   5.392
 5195POPC   GL166661  40.789  26.937   5.636
 5195POPC   GL266662  40.502  27.152   5.586
 5195POPC   C1A66663  40.710  26.631   5.995
 5195POPC   D2A66664  40.686  26.452   6.415
 5195POPC   C3A66665  40.603  26.720   6.780
 5195POPC   C4A66666  40.849  26.694   7.135
 5195POPC   C1B66667  40.518  27.110   6.069
 5195POPC   C2B66668  40.442  27.231   6.524
 5195POPC   C3B66669  40.372  27.293   6.989
 5195POPC   C4B66670  40.327  27.140   7.429
 5196POPC   NC366671  20.452  13.310   5.316
 5196POPC   PO466672  21.150  13.155   5.312
 5196POPC   GL166673  20.909  13.340   5.736
 5196POPC   GL266674  20.547  13.503   5.768
 5196POPC   C1A66675  20.808  13.573   6.177
 5196POPC   D2A66676  20.921  13.660   6.615
 5196POPC   C3A66677  20.834  13.419   6.976
 5196POPC   C4A66678  20.685  13.695   7.286
 5196POPC   C1B66679  20.260  13.342   6.063
 5196POPC   C2B66680  20.277  13.269   6.504
 5196POPC   C3B66681  20.352  13.472   6.895
 5196POPC   C4B66682  20.289  13.381   7.312
 5197POPC   NC366683   2.300  28.321   5.503
 5197POPC   PO466684   2.897  28.518   5.220
 5197POPC   GL166685   2.814  28.275   5.671
 5197POPC   GL266686   3.100  28.110   5.868
 5197POPC   C1A66687   2.676  28.253   6.142
 5197POPC   D2A66688   2.747  28.163   6.610
 5197POPC   C3A66689   2.801  28.523   6.935
 5197POPC   C4A66690   2.539  28.590   7.308
 5197POPC   C1B66691   3.190  28.216   6.314
 5197POPC   C2B66692   3.234  28.243   6.771
 5197POPC   C3B66693   3.000  28.064   7.125
 5197POPC   C4B66694   2.974  28.277   7.510
 5198POPC   NC366695  27.414  25.512   5.543
 5198POPC   PO466696  27.980  25.348   5.219
 5198POPC   GL166697  27.887  25.329   5.728
 5198POPC   GL266698  27.575  25.104   5.810
 5198POPC   C1A66699  27.671  25.460   6.166
 5198POPC   D2A66700  27.468  25.416   6.556
 5198POPC   C3A66701  27.627  25.484   6.981
 5198POPC   C4A66702  27.689  25.307   7.392
 5198POPC   C1B66703  27.521  24.969   6.249
 5198POPC   C2B66704  27.452  24.830   6.656
 5198POPC   C3B66705  27.627  24.866   7.066
 5198POPC   C4B66706  27.434  24.859   7.451
 5199POPC   NC366707  27.639   3.187   5.495
 5199POPC   PO466708  27.716   2.499   5.441
 5199POPC   GL166709  27.600   2.749   5.775
 5199POPC   GL266710  27.922   2.745   5.917
 5199POPC   C1A66711  27.522   2.935   6.179
 5199POPC   D2A66712  27.363   2.782   6.554
 5199POPC   C3A66713  27.543   2.680   6.938
 5199POPC   C4A66714  27.390   2.917   7.292
 5199POPC   C1B66715  27.998   3.117   6.242
 5199POPC   C2B66716  27.803   3.112   6.658
 5199POPC   C3B66717  27.856   3.058   7.113
 5199POPC   C4B66718  27.938   2.675   7.305
 5200POPC   NC366719  12.395  41.360   5.580
 5200POPC   PO466720  11.713  41.633   5.440
 5200POPC   GL166721  11.912  41.504   5.744
 5200POPC   GL266722  12.147  41.800   5.706
 5200POPC   C1A66723  11.997  41.378   6.138
 5200POPC   D2A66724  12.316  41.492   6.451
 5200POPC   C3A66725  12.175  41.297   6.811
 5200POPC   C4A66726  12.045  41.423   7.202
 5200POPC   C1B66727  12.113  41.871   6.122
 5200POPC   C2B66728  12.194  42.003   6.526
 5200POPC   C3B66729  12.194  41.812   6.879
 5200POPC   C4B66730  12.225  41.899   7.290
 5201POPC   NC366731  41.970  29.031   5.561
 5201POPC   PO466732  41.320  29.347   5.476
 5201POPC   GL166733  41.490  29.074   5.755
 5201POPC   GL266734  41.729  29.310   5.895
 5201POPC   C1A66735  41.529  28.951   6.188
 5201POPC   D2A66736  41.751  29.168   6.518
 5201POPC   C3A66737  41.622  29.059   6.948
 5201POPC   C4A66738  41.954  29.014   7.217
 5201POPC   C1B66739  42.003  29.492   6.175
 5201POPC   C2B66740  42.017  29.652   6.589
 5201POPC   C3B66741  41.991  29.431   6.951
 5201POPC   C4B66742  41.909  29.521   7.395
 5202POPC   NC366743  43.827  21.702   5.421
 5202POPC   PO466744  44.009  22.362   5.273
 5202POPC   GL166745  43.797  22.229   5.685
 5202POPC   GL266746  44.040  22.007   5.798
 5202POPC   C1A66747  43.849  22.340   6.161
 5202POPC   D2A66748  44.108  22.391   6.564
 5202POPC   C3A66749  43.853  22.338   6.945
 5202POPC   C4A66750  43.647  22.580   7.241
 5202POPC   C1B66751  44.271  22.041   6.202
 5202POPC   C2B66752  44.398  21.924   6.624
 5202POPC   C3B66753  44.268  22.056   7.017
 5202POPC   C4B66754  44.192  21.842   7.395
 5203POPC   NC366755  14.220  14.636   5.453
 5203POPC   PO466756  14.376  14.006   5.457
 5203POPC   GL166757  14.154  14.223   5.749
 5203POPC   GL266758  14.491  14.377   5.825
 5203POPC   C1A66759  14.153  14.289   6.173
 5203POPC   D2A66760  14.480  14.092   6.387
 5203POPC   C3A66761  14.436  14.025   6.810
 5203POPC   C4A66762  14.456  14.164   7.221
 5203POPC   C1B66763  14.581  14.581   6.217
 5203POPC   C2B66764  14.299  14.554   6.575
 5203POPC   C3B66765  14.302  14.592   6.962
 5203POPC   C4B66766  14.482  14.677   7.301
 5204POPC   NC366767   1.596  35.200   5.326
 5204POPC   PO466768   1.748  35.717   5.439
 5204POPC   GL166769   1.868  35.703   5.849
 5204POPC   GL266770   2.167  35.895   5.920
 5204POPC   C1A66771   2.018  35.445   6.210
 5204POPC   D2A66772   2.224  35.563   6.608
 5204POPC   C3A66773   2.117  35.411   7.042
 5204POPC   C4A66774   2.241  35.536   7.484
 5204POPC   C1B66775   1.881  35.928   6.324
 5204POPC   C2B66776   1.799  35.800   6.777
 5204POPC   C3B66777   1.888  35.848   7.229
 5204POPC   C4B66778   1.898  35.863   7.693
 5205POPC   NC366779  29.455  11.425   5.207
 5205POPC   PO466780  28.860  11.273   5.537
 5205POPC   GL166781  29.019  11.326   5.908
 5205POPC   GL266782  29.373  11.383   5.867
 5205POPC   C1A66783  29.159  11.116   6.276
 5205POPC   D2A66784  29.371  11.119   6.662
 5205POPC   C3A66785  29.128  11.287   6.984
 5205POPC   C4A66786  29.071  11.222   7.364
 5205POPC   C1B66787  29.520  11.471   6.309
 5205POPC   C2B66788  29.414  11.633   6.751
 5205POPC   C3B66789  29.410  11.655   7.239
 5205POPC   C4B66790  29.668  11.795   7.659
 5206POPC   NC366791   9.476  20.640   5.514
 5206POPC   PO466792  10.041  20.308   5.278
 5206POPC   GL166793   9.906  20.423   5.712
 5206POPC   GL266794   9.915  20.773   5.807
 5206POPC   C1A66795   9.811  20.312   6.149
 5206POPC   D2A66796   9.549  20.401   6.505
 5206POPC   C3A66797   9.727  20.310   6.906
 5206POPC   C4A66798   9.670  20.555   7.258
 5206POPC   C1B66799   9.704  20.822   6.239
 5206POPC   C2B66800   9.584  20.903   6.687
 5206POPC   C3B66801   9.575  21.041   7.139
 5206POPC   C4B66802   9.923  20.961   7.490
 5207POPC   NC366803  30.770   8.001   5.079
 5207POPC   PO466804  31.017   8.360   5.658
 5207POPC   GL166805  30.821   8.133   5.927
 5207POPC   GL266806  30.536   8.013   5.739
 5207POPC   C1A66807  30.940   8.125   6.352
 5207POPC   D2A66808  30.627   8.187   6.640
 5207POPC   C3A66809  30.838   8.165   7.012
 5207POPC   C4A66810  30.772   8.273   7.430
 5207POPC   C1B66811  30.210   7.793   6.021
 5207POPC   C2B66812  30.223   7.681   6.478
 5207POPC   C3B66813  30.308   7.849   6.898
 5207POPC   C4B66814  30.373   7.696   7.312
 5208POPC   NC366815  10.329  29.141   5.413
 5208POPC   PO466816  10.989  28.927   5.392
 5208POPC   GL166817  10.788  29.138   5.809
 5208POPC   GL266818  10.419  29.278   5.879
 5208POPC   C1A66819  10.689  29.154   6.284
 5208POPC   D2A66820  10.445  28.888   6.612
 5208POPC   C3A66821  10.473  29.000   7.054
 5208POPC   C4A66822  10.663  29.385   7.221
 5208POPC   C1B66823  10.189  29.311   6.239
 5208POPC   C2B66824  10.350  29.410   6.637
 5208POPC   C3B66825  10.163  29.598   6.972
 5208POPC   C4B66826  10.325  29.761   7.308
 5209POPC   NC366827   9.761   3.318   5.205
 5209POPC   PO466828   9.738   2.699   5.329
 5209POPC   GL166829   9.738   2.932   5.734
 5209POPC   GL266830  10.067   2.980   5.879
 5209POPC   C1A66831   9.685   2.821   6.206
 5209POPC   D2A66832   9.458   2.592   6.582
 5209POPC   C3A66833   9.675   2.608   7.029
 5209POPC   C4A66834   9.618   2.826   7.462
 5209POPC   C1B66835  10.056   3.172   6.304
 5209POPC   C2B66836  10.187   3.144   6.740
 5209POPC   C3B66837  10.292   2.951   7.116
 5209POPC   C4B66838  10.118   2.597   7.295
 5210POPC   NC366839  10.832  10.961   5.310
 5210POPC   PO466840  10.484  11.583   5.415
 5210POPC   GL166841  10.706  11.367   5.707
 5210POPC   GL266842  10.433  11.184   5.862
 5210POPC   C1A66843  10.820  11.396   6.141
 5210POPC   D2A66844  10.958  11.299   6.554
 5210POPC   C3A66845  10.780  11.383   6.940
 5210POPC   C4A66846  10.869  11.567   7.330
 5210POPC   C1B66847  10.300  11.245   6.290
 5210POPC   C2B66848  10.318  11.337   6.715
 5210POPC   C3B66849  10.271  11.044   7.037
 5210POPC   C4B66850  10.312  11.052   7.491
 5211POPC   NC366851  11.823  13.347   5.368
 5211POPC   PO466852  12.301  13.859   5.067
 5211POPC   GL166853  12.161  13.681   5.543
 5211POPC   GL266854  12.311  13.372   5.709
 5211POPC   C1A66855  12.005  13.643   6.046
 5211POPC   D2A66856  12.126  13.801   6.516
 5211POPC   C3A66857  11.915  13.730   6.953
 5211POPC   C4A66858  12.134  13.746   7.381
 5211POPC   C1B66859  12.205  13.182   6.143
 5211POPC   C2B66860  12.075  13.259   6.565
 5211POPC   C3B66861  12.185  13.292   7.003
 5211POPC   C4B66862  12.175  13.111   7.410
 5212POPC   NC366863  19.635  21.262   5.382
 5212POPC   PO466864  19.784  20.512   5.374
 5212POPC   GL166865  19.875  20.584   5.785
 5212POPC   GL266866  19.853  20.959   5.775
 5212POPC   C1A66867  20.063  20.461   6.198
 5212POPC   D2A66868  20.286  20.495   6.594
 5212POPC   C3A66869  20.005  20.426   6.960
 5212POPC   C4A66870  19.737  20.244   7.273
 5212POPC   C1B66871  19.712  20.854   6.188
 5212POPC   C2B66872  19.872  20.796   6.592
 5212POPC   C3B66873  19.836  20.900   7.028
 5212POPC   C4B66874  19.663  21.116   7.348
 5213POPC   NC366875  17.111   2.318   5.318
 5213POPC   PO466876  16.501   1.874   5.413
 5213POPC   GL166877  16.800   1.979   5.692
 5213POPC   GL266878  16.769   1.644   5.841
 5213POPC   C1A66879  16.886   2.108   6.112
 5213POPC   D2A66880  17.065   1.936   6.462
 5213POPC   C3A66881  16.858   2.055   6.840
 5213POPC   C4A66882  16.942   1.957   7.258
 5213POPC   C1B66883  16.472   1.723   6.128
 5213POPC   C2B66884  16.505   1.897   6.503
 5213POPC   C3B66885  16.385   1.874   6.921
 5213POPC   C4B66886  16.406   2.021   7.326
 5214POPC   NC366887  30.768  32.720   5.577
 5214POPC   PO466888  30.508  33.220   5.517
 5214POPC   GL166889  30.630  33.088   5.929
 5214POPC   GL266890  30.348  33.145   6.145
 5214POPC   C1A66891  30.809  33.314   6.284
 5214POPC   D2A66892  30.707  33.333   6.711
 5214POPC   C3A66893  31.063  33.191   6.993
 5214POPC   C4A66894  31.146  32.923   7.349
 5214POPC   C1B66895  30.621  32.867   6.442
 5214POPC   C2B66896  30.531  32.496   6.703
 5214POPC   C3B66897  30.351  32.469   7.134
 5214POPC   C4B66898  30.390  32.635   7.585
 5215POPC   NC366899  11.955  14.996   5.597
 5215POPC   PO466900  11.846  15.562   5.278
 5215POPC   GL166901  11.943  15.481   5.735
 5215POPC   GL266902  11.605  15.436   5.723
 5215POPC   C1A66903  12.062  15.333   6.218
 5215POPC   D2A66904  12.204  15.161   6.658
 5215POPC   C3A66905  12.385  15.304   7.060
 5215POPC   C4A66906  12.293  15.213   7.504
 5215POPC   C1B66907  11.553  15.221   6.107
 5215POPC   C2B66908  11.684  15.186   6.533
 5215POPC   C3B66909  11.659  15.190   6.954
 5215POPC   C4B66910  11.682  15.093   7.358
 5216POPC   NC366911   9.518  35.887   5.458
 5216POPC   PO466912   9.669  36.477   5.087
 5216POPC   GL166913   9.723  36.349   5.530
 5216POPC   GL266914   9.377  36.390   5.657
 5216POPC   C1A66915   9.778  36.327   6.026
 5216POPC   D2A66916   9.975  36.199   6.462
 5216POPC   C3A66917   9.846  36.111   6.913
 5216POPC   C4A66918   9.667  36.229   7.314
 5216POPC   C1B66919   9.308  36.547   6.091
 5216POPC   C2B66920   9.499  36.441   6.463
 5216POPC   C3B66921   9.489  36.492   6.901
 5216POPC   C4B66922   9.610  36.727   7.242
 5217POPC   NC366923   4.238   2.526   5.333
 5217POPC   PO466924   4.331   3.182   5.233
 5217POPC   GL166925   4.327   2.964   5.675
 5217POPC   GL266926   4.689   2.876   5.718
 5217POPC   C1A66927   4.227   2.838   6.130
 5217POPC   D2A66928   4.260   2.970   6.593
 5217POPC   C3A66929   4.267   2.764   7.003
 5217POPC   C4A66930   4.216   3.009   7.419
 5217POPC   C1B66931   4.716   2.666   6.123
 5217POPC   C2B66932   4.747   2.841   6.520
 5217POPC   C3B66933   4.816   2.862   6.952
 5217POPC   C4B66934   4.631   2.761   7.351
 5218POPC   NC366935  30.502  10.178   5.447
 5218POPC   PO466936  30.187  10.790   5.591
 5218POPC   GL166937  30.519  10.488   5.875
 5218POPC   GL266938  30.775  10.188   5.866
 5218POPC   C1A66939  30.770  10.498   6.281
 5218POPC   D2A66940  30.648  10.591   6.738
 5218POPC   C3A66941  30.896  10.560   7.123
 5218POPC   C4A66942  30.886  10.641   7.558
 5218POPC   C1B66943  30.511  10.053   6.241
 5218POPC   C2B66944  30.439   9.946   6.691
 5218POPC   C3B66945  30.542  10.190   7.067
 5218POPC   C4B66946  30.391  10.628   7.197
 5219POPC   NC366947  39.791   6.897   5.541
 5219POPC   PO466948  40.335   6.475   5.415
 5219POPC   GL166949  40.112   6.503   5.786
 5219POPC   GL266950  39.778   6.400   5.818
 5219POPC   C1A66951  40.138   6.285   6.216
 5219POPC   D2A66952  40.231   6.336   6.680
 5219POPC   C3A66953  39.933   6.442   7.041
 5219POPC   C4A66954  39.979   6.337   7.477
 5219POPC   C1B66955  39.886   6.728   6.176
 5219POPC   C2B66956  39.936   6.765   6.619
 5219POPC   C3B66957  39.646   6.846   6.942
 5219POPC   C4B66958  39.674   6.738   7.386
 5220POPC   NC366959  23.838  16.574   5.462
 5220POPC   PO466960  23.524  17.062   5.304
 5220POPC   GL166961  23.447  16.869   5.724
 5220POPC   GL266962  23.323  16.523   5.747
 5220POPC   C1A66963  23.714  16.782   6.106
 5220POPC   D2A66964  23.808  17.022   6.495
 5220POPC   C3A66965  23.455  17.040   6.752
 5220POPC   C4A66966  23.513  17.062   7.190
 5220POPC   C1B66967  23.396  16.368   6.183
 5220POPC   C2B66968  23.602  16.543   6.552
 5220POPC   C3B66969  23.728  16.644   6.978
 5220POPC   C4B66970  23.442  16.402   7.260
 5221POPC   NC366971  26.793  35.783   5.390
 5221POPC   PO466972  26.524  35.207   5.379
 5221POPC   GL166973  26.698  35.159   5.798
 5221POPC   GL266974  26.827  35.479   5.795
 5221POPC   C1A66975  26.862  35.087   6.232
 5221POPC   D2A66976  26.834  34.925   6.683
 5221POPC   C3A66977  26.969  35.022   7.125
 5221POPC   C4A66978  26.901  35.050   7.599
 5221POPC   C1B66979  26.692  35.567   6.187
 5221POPC   C2B66980  26.878  35.502   6.561
 5221POPC   C3B66981  26.686  35.407   6.907
 5221POPC   C4B66982  26.749  35.444   7.314
 5222POPC   NC366983  15.307   1.331   5.321
 5222POPC   PO466984  14.635   1.329   5.167
 5222POPC   GL166985  14.916   1.360   5.679
 5222POPC   GL266986  15.271   1.196   5.815
 5222POPC   C1A66987  15.054   1.486   6.150
 5222POPC   D2A66988  15.296   1.342   6.535
 5222POPC   C3A66989  15.109   1.412   6.958
 5222POPC   C4A66990  14.849   1.449   7.305
 5222POPC   C1B66991  15.339   0.912   6.186
 5222POPC   C2B66992  15.432   0.812   6.607
 5222POPC   C3B66993  15.357   0.974   6.999
 5222POPC   C4B66994  15.016   0.965   7.278
 5223POPC   NC366995   5.470  26.677   5.579
 5223POPC   PO466996   4.803  26.791   5.424
 5223POPC   GL166997   5.028  26.837   5.809
 5223POPC   GL266998   5.029  26.494   5.876
 5223POPC   C1A66999   5.161  26.805   6.251
 5223POPC   D2A67000   4.920  26.920   6.593
 5223POPC   C3A67001   5.181  26.889   6.922
 5223POPC   C4A67002   5.088  26.973   7.329
 5223POPC   C1B67003   5.299  26.303   6.174
 5223POPC   C2B67004   5.498  26.312   6.558
 5223POPC   C3B67005   5.525  26.524   6.919
 5223POPC   C4B67006   5.234  26.484   7.250
 5224POPC   NC367007  11.968   5.354   5.317
 5224POPC   PO467008  12.271   4.885   5.064
 5224POPC   GL167009  12.358   5.107   5.535
 5224POPC   GL267010  12.057   5.026   5.776
 5224POPC   C1A67011  12.375   5.357   5.971
 5224POPC   D2A67012  12.286   5.176   6.419
 5224POPC   C3A67013  12.239   5.378   6.837
 5224POPC   C4A67014  12.036   5.118   7.128
 5224POPC   C1B67015  12.432   4.843   6.047
 5224POPC   C2B67016  12.383   4.649   6.463
 5224POPC   C3B67017  12.411   4.827   6.879
 5224POPC   C4B67018  12.326   4.708   7.287
 5225POPC   NC367019  17.841  40.311   5.067
 5225POPC   PO467020  18.449  39.962   5.386
 5225POPC   GL167021  18.156  40.187   5.614
 5225POPC   GL267022  17.962  39.896   5.766
 5225POPC   C1A67023  18.153  40.258   6.065
 5225POPC   D2A67024  18.360  40.016   6.350
 5225POPC   C3A67025  18.300  40.057   6.770
 5225POPC   C4A67026  18.286  40.149   7.215
 5225POPC   C1B67027  17.869  39.885   6.242
 5225POPC   C2B67028  17.799  40.111   6.619
 5225POPC   C3B67029  17.816  40.075   7.060
 5225POPC   C4B67030  17.856  40.327   7.401
 5226POPC   NC367031   6.886  41.683   5.332
 5226POPC   PO467032   6.286  41.378   5.529
 5226POPC   GL167033   6.409  41.592   5.885
 5226POPC   GL267034   6.784  41.624   5.891
 5226POPC   C1A67035   6.440  41.529   6.319
 5226POPC   D2A67036   6.630  41.358   6.681
 5226POPC   C3A67037   6.478  41.514   7.063
 5226POPC   C4A67038   6.717  41.362   7.405
 5226POPC   C1B67039   6.855  41.815   6.306
 5226POPC   C2B67040   6.679  41.890   6.712
 5226POPC   C3B67041   6.893  41.847   7.116
 5226POPC   C4B67042   6.872  41.882   7.560
 5227POPC   NC367043  37.822   4.399   5.112
 5227POPC   PO467044  37.312   3.993   5.400
 5227POPC   GL167045  37.258   4.170   5.802
 5227POPC   GL267046  37.523   4.394   5.852
 5227POPC   C1A67047  37.329   4.132   6.260
 5227POPC   D2A67048  37.682   4.003   6.525
 5227POPC   C3A67049  37.533   4.013   6.972
 5227POPC   C4A67050  37.743   4.090   7.369
 5227POPC   C1B67051  37.897   4.364   6.130
 5227POPC   C2B67052  38.049   4.393   6.550
 5227POPC   C3B67053  37.914   4.399   6.982
 5227POPC   C4B67054  37.904   4.609   7.400
 5228POPC   NC367055  11.128  35.261   5.403
 5228POPC   PO467056  11.568  35.757   5.323
 5228POPC   GL167057  11.376  35.560   5.730
 5228POPC   GL267058  11.449  35.189   5.840
 5228POPC   C1A67059  11.172  35.499   6.153
 5228POPC   D2A67060  11.304  35.626   6.562
 5228POPC   C3A67061  11.286  35.368   6.905
 5228POPC   C4A67062  11.190  35.571   7.271
 5228POPC   C1B67063  11.608  34.949   6.254
 5228POPC   C2B67064  11.549  34.944   6.733
 5228POPC   C3B67065  11.168  34.847   6.979
 5228POPC   C4B67066  10.881  35.096   7.221
 5229POPC   NC367067  20.200  37.249   5.536
 5229POPC   PO467068  19.625  37.482   5.489
 5229POPC   GL167069  19.827  37.429   5.874
 5229POPC   GL267070  20.134  37.629   5.889
 5229POPC   C1A67071  19.784  37.541   6.299
 5229POPC   D2A67072  19.862  37.848   6.616
 5229POPC   C3A67073  19.681  37.699   7.016
 5229POPC   C4A67074  19.680  37.875   7.442
 5229POPC   C1B67075  20.283  37.477   6.301
 5229POPC   C2B67076  20.075  37.380   6.709
 5229POPC   C3B67077  20.146  37.492   7.157
 5229POPC   C4B67078  20.363  37.731   7.464
 5230POPC   NC367079  12.584  12.699   5.397
 5230POPC   PO467080  12.966  13.193   5.406
 5230POPC   GL167081  12.864  12.895   5.770
 5230POPC   GL267082  12.521  12.914   5.853
 5230POPC   C1A67083  13.076  12.659   6.098
 5230POPC   D2A67084  13.084  12.782   6.526
 5230POPC   C3A67085  12.858  12.553   6.803
 5230POPC   C4A67086  12.992  12.578   7.213
 5230POPC   C1B67087  12.649  12.900   6.286
 5230POPC   C2B67088  12.533  12.964   6.729
 5230POPC   C3B67089  12.611  12.930   7.200
 5230POPC   C4B67090  12.637  13.078   7.649
 5231POPC   NC367091   9.907  31.307   5.260
 5231POPC   PO467092   9.449  31.735   5.460
 5231POPC   GL167093   9.645  31.480   5.747
 5231POPC   GL267094  10.006  31.500   5.738
 5231POPC   C1A67095   9.721  31.594   6.186
 5231POPC   D2A67096   9.503  31.663   6.534
 5231POPC   C3A67097   9.717  31.626   6.883
 5231POPC   C4A67098   9.707  31.594   7.346
 5231POPC   C1B67099  10.094  31.257   6.125
 5231POPC   C2B67100  10.177  31.354   6.581
 5231POPC   C3B67101  10.137  31.442   7.052
 5231POPC   C4B67102  10.036  31.152   7.380
 5232POPC   NC367103  12.371  34.088   5.376
 5232POPC   PO467104  11.688  34.058   5.348
 5232POPC   GL167105  11.989  34.031   5.717
 5232POPC   GL267106  12.234  33.752   5.744
 5232POPC   C1A67107  11.997  33.993   6.173
 5232POPC   D2A67108  11.725  33.864   6.516
 5232POPC   C3A67109  11.904  33.849   6.940
 5232POPC   C4A67110  11.820  33.655   7.355
 5232POPC   C1B67111  12.444  33.728   6.142
 5232POPC   C2B67112  12.292  33.816   6.577
 5232POPC   C3B67113  12.331  34.143   6.892
 5232POPC   C4B67114  12.069  34.179   7.294
 5233POPC   NC367115  12.262  23.361   5.331
 5233POPC   PO467116  11.976  22.695   5.443
 5233POPC   GL167117  12.197  22.803   5.822
 5233POPC   GL267118  12.280  23.149   5.822
 5233POPC   C1A67119  12.250  22.682   6.254
 5233POPC   D2A67120  12.336  22.858   6.667
 5233POPC   C3A67121  11.952  23.016   6.856
 5233POPC   C4A67122  11.819  22.963   7.260
 5233POPC   C1B67123  12.398  23.226   6.259
 5233POPC   C2B67124  12.266  23.395   6.662
 5233POPC   C3B67125  12.373  23.222   7.079
 5233POPC   C4B67126  12.225  23.150   7.523
 5234POPC   NC367127  31.157   7.087   5.197
 5234POPC   PO467128  31.668   7.564   5.404
 5234POPC   GL167129  31.501   7.421   5.752
 5234POPC   GL267130  31.490   7.760   5.853
 5234POPC   C1A67131  31.662   7.373   6.164
 5234POPC   D2A67132  31.519   7.334   6.564
 5234POPC   C3A67133  31.718   7.499   6.898
 5234POPC   C4A67134  31.660   7.291   7.304
 5234POPC   C1B67135  31.278   7.735   6.249
 5234POPC   C2B67136  31.223   7.743   6.698
 5234POPC   C3B67137  31.293   7.592   7.134
 5234POPC   C4B67138  31.320   7.588   7.588
 5235POPC   NC367139  19.846  14.475   5.564
 5235POPC   PO467140  19.763  15.106   5.496
 5235POPC   GL167141  19.874  14.847   5.917
 5235POPC   GL267142  19.707  14.475   6.041
 5235POPC   C1A67143  20.125  14.626   6.280
 5235POPC   D2A67144  19.982  14.227   6.501
 5235POPC   C3A67145  19.953  14.287   6.968
 5235POPC   C4A67146  19.604  14.305   7.226
 5235POPC   C1B67147  19.410  14.769   6.158
 5235POPC   C2B67148  19.423  14.915   6.576
 5235POPC   C3B67149  19.615  14.756   6.987
 5235POPC   C4B67150  19.478  14.764   7.428
 5236POPC   NC367151  15.882  29.179   5.327
 5236POPC   PO467152  15.926  29.805   5.440
 5236POPC   GL167153  15.757  29.431   5.767
 5236POPC   GL267154  15.913  29.060   5.836
 5236POPC   C1A67155  15.743  29.339   6.249
 5236POPC   D2A67156  15.683  29.140   6.668
 5236POPC   C3A67157  15.646  29.322   7.085
 5236POPC   C4A67158  15.791  29.550   7.465
 5236POPC   C1B67159  15.906  28.828   6.249
 5236POPC   C2B67160  16.098  28.876   6.684
 5236POPC   C3B67161  16.122  29.144   7.097
 5236POPC   C4B67162  16.230  28.952   7.517
 5237POPC   NC367163  43.220  35.429   5.144
 5237POPC   PO467164  43.659  35.142   5.603
 5237POPC   GL167165  43.732  35.447   5.965
 5237POPC   GL267166  43.982  35.716   5.958
 5237POPC   C1A67167  43.896  35.443   6.381
 5237POPC   D2A67168  43.806  35.279   6.782
 5237POPC   C3A67169  44.092  35.230   7.129
 5237POPC   C4A67170  44.031  34.936   7.486
 5237POPC   C1B67171  43.675  35.884   6.267
 5237POPC   C2B67172  43.694  35.788   6.723
 5237POPC   C3B67173  43.716  35.618   7.156
 5237POPC   C4B67174  43.619  35.183   7.347
 5238POPC   NC367175  41.031  27.519   5.333
 5238POPC   PO467176  40.431  27.751   5.299
 5238POPC   GL167177  40.634  27.656   5.754
 5238POPC   GL267178  40.898  27.409   5.804
 5238POPC   C1A67179  40.722  27.567   6.245
 5238POPC   D2A67180  40.936  27.630   6.664
 5238POPC   C3A67181  40.734  27.630   7.066
 5238POPC   C4A67182  40.688  27.576   7.553
 5238POPC   C1B67183  41.021  27.057   6.057
 5238POPC   C2B67184  40.893  26.978   6.443
 5238POPC   C3B67185  40.862  27.151   6.850
 5238POPC   C4B67186  40.802  27.170   7.277
 5239POPC   NC367187  37.219  20.596   5.337
 5239POPC   PO467188  36.812  20.205   5.081
 5239POPC   GL167189  36.833  20.345   5.598
 5239POPC   GL267190  36.930  20.691   5.751
 5239POPC   C1A67191  36.976  20.312   6.075
 5239POPC   D2A67192  36.909  20.529   6.502
 5239POPC   C3A67193  36.928  20.322   6.926
 5239POPC   C4A67194  36.627  20.230   7.281
 5239POPC   C1B67195  37.197  20.794   6.128
 5239POPC   C2B67196  37.326  20.815   6.579
 5239POPC   C3B67197  37.116  20.835   6.987
 5239POPC   C4B67198  36.901  20.656   7.348
 5240POPC   NC367199   2.225  19.546   5.462
 5240POPC   PO467200   1.689  20.026   5.417
 5240POPC   GL167201   1.948  19.916   5.739
 5240POPC   GL267202   1.895  19.574   5.883
 5240POPC   C1A67203   1.929  19.980   6.180
 5240POPC   D2A67204   2.030  19.855   6.584
 5240POPC   C3A67205   1.920  20.119   6.894
 5240POPC   C4A67206   2.047  20.069   7.288
 5240POPC   C1B67207   2.204  19.505   6.244
 5240POPC   C2B67208   2.340  19.432   6.692
 5240POPC   C3B67209   2.192  19.649   7.040
 5240POPC   C4B67210   2.008  19.574   7.454
 5241POPC   NC367211   8.400   6.161   5.403
 5241POPC   PO467212   8.142   5.493   5.387
 5241POPC   GL167213   8.070   5.649   5.835
 5241POPC   GL267214   8.154   6.015   5.825
 5241POPC   C1A67215   8.008   5.858   6.264
 5241POPC   D2A67216   7.963   6.064   6.642
 5241POPC   C3A67217   8.045   5.777   6.978
 5241POPC   C4A67218   8.357   5.622   7.264
 5241POPC   C1B67219   8.492   6.016   6.179
 5241POPC   C2B67220   8.461   5.957   6.647
 5241POPC   C3B67221   8.509   6.081   7.103
 5241POPC   C4B67222   8.533   5.983   7.580
 5242POPC   NC367223  26.987  21.092   4.918
 5242POPC   PO467224  26.551  21.400   5.319
 5242POPC   GL167225  26.711  21.514   5.745
 5242POPC   GL267226  27.056  21.426   5.823
 5242POPC   C1A67227  26.755  21.668   6.213
 5242POPC   D2A67228  26.513  21.745   6.621
 5242POPC   C3A67229  26.801  21.688   6.981
 5242POPC   C4A67230  26.831  21.595   7.431
 5242POPC   C1B67231  26.930  21.191   6.165
 5242POPC   C2B67232  27.036  21.334   6.568
 5242POPC   C3B67233  27.155  21.184   6.950
 5242POPC   C4B67234  26.951  21.109   7.292
 5243POPC   NC367235   3.667  35.638   5.489
 5243POPC   PO467236   3.519  36.300   5.403
 5243POPC   GL167237   3.695  36.154   5.761
 5243POPC   GL267238   3.445  35.941   5.841
 5243POPC   C1A67239   3.629  36.250   6.213
 5243POPC   D2A67240   3.880  36.285   6.577
 5243POPC   C3A67241   3.721  36.304   6.990
 5243POPC   C4A67242   3.312  36.332   7.193
 5243POPC   C1B67243   3.837  35.800   6.104
 5243POPC   C2B67244   3.964  35.771   6.537
 5243POPC   C3B67245   3.789  35.796   6.967
 5243POPC   C4B67246   3.638  35.969   7.384
 5244POPC   NC367247  44.862  12.366   5.295
 5244POPC   PO467248  44.230  12.076   5.487
 5244POPC   GL167249  44.580  11.980   5.750
 5244POPC   GL267250  44.642  12.318   5.833
 5244POPC   C1A67251  44.807  11.863   6.143
 5244POPC   D2A67252  44.693  11.898   6.586
 5244POPC   C3A67253  44.686  12.002   7.025
 5244POPC   C4A67254   0.031  12.266   7.159
 5244POPC   C1B67255  44.466  12.341   6.261
 5244POPC   C2B67256  44.471  12.398   6.708
 5244POPC   C3B67257  44.422  12.407   7.132
 5244POPC   C4B67258  44.586  12.271   7.488
 5245POPC   NC367259   5.828  36.304   5.398
 5245POPC   PO467260   6.153  35.670   5.454
 5245POPC   GL167261   5.955  35.872   5.846
 5245POPC   GL267262   5.799  36.194   5.888
 5245POPC   C1A67263   6.070  35.975   6.292
 5245POPC   D2A67264   6.046  35.867   6.748
 5245POPC   C3A67265   5.652  36.013   6.933
 5245POPC   C4A67266   5.472  36.388   7.108
 5245POPC   C1B67267   5.655  36.427   6.238
 5245POPC   C2B67268   5.727  36.524   6.677
 5245POPC   C3B67269   5.989  36.372   7.046
 5245POPC   C4B67270   5.986  36.344   7.500
 5246POPC   NC367271  14.862  37.494   5.649
 5246POPC   PO467272  14.263  37.503   5.340
 5246POPC   GL167273  14.389  37.707   5.743
 5246POPC   GL267274  14.659  37.963   5.665
 5246POPC   C1A67275  14.165  37.784   6.170
 5246POPC   D2A67276  14.110  37.971   6.614
 5246POPC   C3A67277  14.243  37.747   6.992
 5246POPC   C4A67278  14.465  37.542   7.354
 5246POPC   C1B67279  14.625  38.011   6.131
 5246POPC   C2B67280  14.726  37.803   6.533
 5246POPC   C3B67281  14.741  37.876   6.985
 5246POPC   C4B67282  14.692  37.994   7.395
 5247POPC   NC367283   7.271   0.184   5.204
 5247POPC   PO467284   7.621   0.646   5.342
 5247POPC   GL167285   7.252   0.473   5.635
 5247POPC   GL267286   7.533   0.381   5.815
 5247POPC   C1A67287   7.115   0.249   6.052
 5247POPC   D2A67288   7.359   0.218   6.451
 5247POPC   C3A67289   7.238   0.298   6.838
 5247POPC   C4A67290   7.221   0.508   7.202
 5247POPC   C1B67291   7.684   0.528   6.223
 5247POPC   C2B67292   7.595   0.651   6.671
 5247POPC   C3B67293   7.710   0.517   7.089
 5247POPC   C4B67294   8.060   0.598   7.422
 5248POPC   NC367295  21.223  33.453   5.066
 5248POPC   PO467296  21.243  32.925   5.509
 5248POPC   GL167297  21.237  33.055   5.871
 5248POPC   GL267298  21.160  33.371   5.770
 5248POPC   C1A67299  21.295  32.851   6.238
 5248POPC   D2A67300  21.495  32.975   6.580
 5248POPC   C3A67301  21.291  32.974   6.977
 5248POPC   C4A67302  21.475  33.174   7.335
 5248POPC   C1B67303  20.932  33.331   6.173
 5248POPC   C2B67304  21.049  33.245   6.578
 5248POPC   C3B67305  20.824  33.249   6.949
 5248POPC   C4B67306  20.941  33.264   7.359
 5249POPC   NC367307  28.405   5.528   5.326
 5249POPC   PO467308  28.438   4.900   5.165
 5249POPC   GL167309  28.180   4.885   5.614
 5249POPC   GL267310  27.988   5.164   5.752
 5249POPC   C1A67311  28.286   4.811   6.092
 5249POPC   D2A67312  28.637   4.968   6.382
 5249POPC   C3A67313  28.602   4.962   6.832
 5249POPC   C4A67314  28.661   4.989   7.285
 5249POPC   C1B67315  28.166   5.308   6.179
 5249POPC   C2B67316  28.182   5.177   6.639
 5249POPC   C3B67317  28.251   5.238   7.112
 5249POPC   C4B67318  28.224   5.030   7.541
 5250POPC   NC367319  26.654   1.868   5.460
 5250POPC   PO467320  27.162   1.729   5.125
 5250POPC   GL167321  27.105   1.999   5.643
 5250POPC   GL267322  26.836   2.089   5.870
 5250POPC   C1A67323  27.232   2.050   6.166
 5250POPC   D2A67324  27.262   2.279   6.600
 5250POPC   C3A67325  27.000   2.132   6.979
 5250POPC   C4A67326  26.774   1.827   7.282
 5250POPC   C1B67327  26.617   2.379   6.122
 5250POPC   C2B67328  26.459   2.312   6.541
 5250POPC   C3B67329  26.464   2.111   6.957
 5250POPC   C4B67330  26.609   2.323   7.324
 5251POPC   NC367331  29.055   3.943   5.460
 5251POPC   PO467332  29.049   3.275   5.436
 5251POPC   GL167333  29.053   3.555   5.799
 5251POPC   GL267334  29.297   3.838   5.890
 5251POPC   C1A67335  29.027   3.523   6.229
 5251POPC   D2A67336  29.288   3.391   6.563
 5251POPC   C3A67337  29.137   3.713   6.813
 5251POPC   C4A67338  29.006   3.734   7.215
 5251POPC   C1B67339  29.493   3.785   6.301
 5251POPC   C2B67340  29.660   3.780   6.734
 5251POPC   C3B67341  29.497   3.941   7.132
 5251POPC   C4B67342  29.431   3.734   7.537
 5252POPC   NC367343   6.033  27.153   5.418
 5252POPC   PO467344   5.754  26.538   5.246
 5252POPC   GL167345   6.005  26.614   5.601
 5252POPC   GL267346   5.898  26.872   5.829
 5252POPC   C1A67347   6.003  26.439   6.040
 5252POPC   D2A67348   5.889  26.617   6.439
 5252POPC   C3A67349   6.059  26.445   6.829
 5252POPC   C4A67350   5.930  26.615   7.235
 5252POPC   C1B67351   5.696  27.061   6.212
 5252POPC   C2B67352   5.840  27.127   6.640
 5252POPC   C3B67353   5.685  27.022   7.050
 5252POPC   C4B67354   5.581  27.168   7.459
 5253POPC   NC367355  28.755  37.777   5.153
 5253POPC   PO467356  29.378  37.746   5.229
 5253POPC   GL167357  29.229  37.701   5.673
 5253POPC   GL267358  29.354  38.040   5.771
 5253POPC   C1A67359  29.156  37.498   6.114
 5253POPC   D2A67360  29.033  37.701   6.532
 5253POPC   C3A67361  29.032  37.565   6.969
 5253POPC   C4A67362  29.397  37.410   7.139
 5253POPC   C1B67363  29.028  38.010   6.091
 5253POPC   C2B67364  28.762  38.114   6.471
 5253POPC   C3B67365  28.919  38.079   6.899
 5253POPC   C4B67366  29.096  38.073   7.311
 5254POPC   NC367367  37.171  11.134   5.167
 5254POPC   PO467368  36.579  11.382   5.371
 5254POPC   GL167369  36.611  11.489   5.785
 5254POPC   GL267370  36.459  11.163   5.856
 5254POPC   C1A67371  36.944  11.459   6.148
 5254POPC   D2A67372  37.142  11.113   6.391
 5254POPC   C3A67373  37.122  11.152   6.838
 5254POPC   C4A67374  37.119  11.215   7.247
 5254POPC   C1B67375  36.463  11.351   6.246
 5254POPC   C2B67376  36.693  11.283   6.594
 5254POPC   C3B67377  36.618  11.156   6.998
 5254POPC   C4B67378  36.693  11.507   7.220
 5255POPC   NC367379  10.286  10.244   5.537
 5255POPC   PO467380  10.466  10.744   5.133
 5255POPC   GL167381  10.745  10.545   5.583
 5255POPC   GL267382  10.851  10.859   5.814
 5255POPC   C1A67383  10.709  10.427   6.082
 5255POPC   D2A67384  10.556  10.217   6.510
 5255POPC   C3A67385  10.376  10.499   6.838
 5255POPC   C4A67386  10.364  10.596   7.274
 5255POPC   C1B67387  10.688  10.916   6.255
 5255POPC   C2B67388  10.680  10.901   6.715
 5255POPC   C3B67389  10.859  10.564   6.959
 5255POPC   C4B67390  10.827  10.421   7.386
 5256POPC   NC367391  43.301   3.036   5.501
 5256POPC   PO467392  43.207   3.719   5.308
 5256POPC   GL167393  43.182   3.490   5.725
 5256POPC   GL267394  42.880   3.249   5.718
 5256POPC   C1A67395  43.350   3.525   6.193
 5256POPC   D2A67396  43.254   3.709   6.634
 5256POPC   C3A67397  43.379   3.567   7.067
 5256POPC   C4A67398  43.374   3.814   7.500
 5256POPC   C1B67399  42.834   3.447   6.112
 5256POPC   C2B67400  43.007   3.269   6.473
 5256POPC   C3B67401  42.916   3.346   6.854
 5256POPC   C4B67402  42.981   3.313   7.244
 5257POPC   NC367403  29.187   1.846   5.198
 5257POPC   PO467404  28.688   2.273   5.511
 5257POPC   GL167405  28.876   2.080   5.852
 5257POPC   GL267406  29.105   1.916   5.708
 5257POPC   C1A67407  28.857   2.206   6.271
 5257POPC   D2A67408  29.177   2.167   6.587
 5257POPC   C3A67409  29.048   1.852   6.877
 5257POPC   C4A67410  28.972   1.966   7.291
 5257POPC   C1B67411  29.221   1.850   6.152
 5257POPC   C2B67412  29.437   1.721   6.529
 5257POPC   C3B67413  29.473   1.490   6.882
 5257POPC   C4B67414  29.387   1.682   7.212
 5258POPC   NC367415   4.402  27.059   5.387
 5258POPC   PO467416   4.142  26.463   5.446
 5258POPC   GL167417   4.183  26.717   5.813
 5258POPC   GL267418   4.511  26.882   5.860
 5258POPC   C1A67419   4.188  26.787   6.273
 5258POPC   D2A67420   4.411  27.073   6.567
 5258POPC   C3A67421   4.336  26.964   7.003
 5258POPC   C4A67422   4.583  26.973   7.410
 5258POPC   C1B67423   4.667  26.651   6.225
 5258POPC   C2B67424   4.517  26.570   6.641
 5258POPC   C3B67425   4.743  26.656   7.020
 5258POPC   C4B67426   4.504  26.481   7.289
 5259POPC   NC367427  36.640  29.823   5.295
 5259POPC   PO467428  37.292  30.141   5.335
 5259POPC   GL167429  37.066  29.889   5.679
 5259POPC   GL267430  36.861  30.146   5.814
 5259POPC   C1A67431  36.944  29.661   6.079
 5259POPC   D2A67432  36.790  29.845   6.493
 5259POPC   C3A67433  36.921  29.634   6.872
 5259POPC   C4A67434  36.749  29.605   7.289
 5259POPC   C1B67435  37.127  30.124   6.190
 5259POPC   C2B67436  37.106  30.259   6.606
 5259POPC   C3B67437  36.913  30.121   6.971
 5259POPC   C4B67438  37.133  29.922   7.308
 5260POPC   NC367439  18.128  39.597   5.348
 5260POPC   PO467440  18.135  38.974   5.264
 5260POPC   GL167441  17.998  39.022   5.711
 5260POPC   GL267442  17.870  39.361   5.738
 5260POPC   C1A67443  17.981  39.057   6.165
 5260POPC   D2A67444  17.863  39.156   6.612
 5260POPC   C3A67445  18.206  39.184   6.944
 5260POPC   C4A67446  18.258  39.112   7.416
 5260POPC   C1B67447  18.171  39.521   6.089
 5260POPC   C2B67448  18.155  39.601   6.571
 5260POPC   C3B67449  18.109  39.666   7.028
 5260POPC   C4B67450  17.816  39.398   7.198
 5261POPC   NC367451  12.926   8.679   5.449
 5261POPC   PO467452  12.350   9.089   5.342
 5261POPC   GL167453  12.703   9.072   5.680
 5261POPC   GL267454  13.086   9.046   5.782
 5261POPC   C1A67455  12.726   8.868   6.090
 5261POPC   D2A67456  12.902   9.060   6.454
 5261POPC   C3A67457  12.658   9.166   6.784
 5261POPC   C4A67458  12.744   9.134   7.191
 5261POPC   C1B67459  13.229   8.748   6.139
 5261POPC   C2B67460  13.110   8.600   6.562
 5261POPC   C3B67461  13.088   8.856   6.919
 5261POPC   C4B67462  13.195   9.288   7.021
 5262POPC   NC367463   2.443  18.054   5.386
 5262POPC   PO467464   2.497  18.710   5.515
 5262POPC   GL167465   2.589  18.408   5.846
 5262POPC   GL267466   2.877  18.221   5.716
 5262POPC   C1A67467   2.591  18.475   6.310
 5262POPC   D2A67468   2.341  18.345   6.681
 5262POPC   C3A67469   2.615  18.471   6.989
 5262POPC   C4A67470   2.671  18.564   7.386
 5262POPC   C1B67471   2.955  18.143   6.177
 5262POPC   C2B67472   2.814  18.147   6.637
 5262POPC   C3B67473   2.693  17.933   7.028
 5262POPC   C4B67474   2.941  17.736   7.402
 5263POPC   NC367475  31.988   8.845   5.420
 5263POPC   PO467476  32.389   9.326   5.378
 5263POPC   GL167477  32.301   9.132   5.727
 5263POPC   GL267478  32.014   9.319   5.791
 5263POPC   C1A67479  32.211   8.982   6.145
 5263POPC   D2A67480  32.076   9.090   6.563
 5263POPC   C3A67481  32.195   8.775   6.869
 5263POPC   C4A67482  32.571   8.649   7.138
 5263POPC   C1B67483  31.885   9.542   6.158
 5263POPC   C2B67484  31.740   9.478   6.550
 5263POPC   C3B67485  31.940   9.462   6.921
 5263POPC   C4B67486  32.066   9.133   7.202
 5264POPC   NC367487  18.509   3.548   5.400
 5264POPC   PO467488  18.098   3.069   5.467
 5264POPC   GL167489  18.262   3.316   5.792
 5264POPC   GL267490  18.140   3.680   5.790
 5264POPC   C1A67491  18.209   3.399   6.224
 5264POPC   D2A67492  17.923   3.400   6.562
 5264POPC   C3A67493  18.108   3.355   6.979
 5264POPC   C4A67494  18.512   3.231   7.178
 5264POPC   C1B67495  17.959   3.861   6.205
 5264POPC   C2B67496  18.013   4.014   6.665
 5264POPC   C3B67497  18.020   3.848   7.102
 5264POPC   C4B67498  18.390   3.699   7.337
 5265POPC   NC367499   4.426  39.950   5.194
 5265POPC   PO467500   3.961  40.398   5.354
 5265POPC   GL167501   4.284  40.113   5.666
 5265POPC   GL267502   4.421  39.788   5.717
 5265POPC   C1A67503   4.517  40.146   6.088
 5265POPC   D2A67504   4.606  40.119   6.546
 5265POPC   C3A67505   4.278  40.121   6.871
 5265POPC   C4A67506   4.172  40.085   7.313
 5265POPC   C1B67507   4.401  39.652   6.157
 5265POPC   C2B67508   4.150  39.700   6.558
 5265POPC   C3B67509   4.287  39.631   6.994
 5265POPC   C4B67510   4.460  39.664   7.392
 5266POPC   NC367511  16.131   3.714   5.230
 5266POPC   PO467512  15.652   3.868   5.601
 5266POPC   GL167513  15.865   3.592   5.891
 5266POPC   GL267514  16.113   3.374   5.725
 5266POPC   C1A67515  15.914   3.636   6.356
 5266POPC   D2A67516  16.197   3.878   6.615
 5266POPC   C3A67517  16.156   3.744   7.035
 5266POPC   C4A67518  15.878   3.659   7.428
 5266POPC   C1B67519  16.185   3.230   6.191
 5266POPC   C2B67520  16.136   3.279   6.679
 5266POPC   C3B67521  16.091   3.259   7.148
 5266POPC   C4B67522  16.360   3.460   7.433
 5267POPC   NC367523   2.796  41.896   5.470
 5267POPC   PO467524   2.973  42.541   5.383
 5267POPC   GL167525   2.715  42.383   5.724
 5267POPC   GL267526   2.807  42.100   5.932
 5267POPC   C1A67527   2.541  42.519   6.122
 5267POPC   D2A67528   2.738  42.750   6.461
 5267POPC   C3A67529   2.582  42.770   6.866
 5267POPC   C4A67530   2.820  42.626   7.191
 5267POPC   C1B67531   2.848  42.161   6.377
 5267POPC   C2B67532   2.850  42.321   6.782
 5267POPC   C3B67533   2.963  42.135   7.192
 5267POPC   C4B67534   2.944  41.935   7.575
 5268POPC   NC367535  23.853  27.432   5.054
 5268POPC   PO467536  23.784  26.789   5.285
 5268POPC   GL167537  23.660  26.815   5.736
 5268POPC   GL267538  23.520  26.502   5.819
 5268POPC   C1A67539  23.720  26.950   6.171
 5268POPC   D2A67540  23.863  26.839   6.582
 5268POPC   C3A67541  23.726  27.034   6.965
 5268POPC   C4A67542  23.782  26.763   7.320
 5268POPC   C1B67543  23.268  26.687   6.120
 5268POPC   C2B67544  23.342  26.830   6.533
 5268POPC   C3B67545  23.381  26.654   6.933
 5268POPC   C4B67546  23.058  26.590   7.205
 5269POPC   NC367547  41.699  42.628   5.345
 5269POPC   PO467548  41.298  42.064   5.289
 5269POPC   GL167549  41.492  42.098   5.730
 5269POPC   GL267550  41.844  42.226   5.704
 5269POPC   C1A67551  41.662  42.104   6.185
 5269POPC   D2A67552  41.478  42.415   6.492
 5269POPC   C3A67553  41.397  42.435   6.955
 5269POPC   C4A67554  41.205  42.720   7.279
 5269POPC   C1B67555  41.773  42.580   6.008
 5269POPC   C2B67556  41.938  42.662   6.432
 5269POPC   C3B67557  41.784  42.767   6.839
 5269POPC   C4B67558  41.730  42.702   7.284
 5270POPC   NC367559  29.384  16.952   5.418
 5270POPC   PO467560  29.067  16.474   5.723
 5270POPC   GL167561  29.037  16.913   5.864
 5270POPC   GL267562  29.390  17.056   5.910
 5270POPC   C1A67563  28.863  17.131   6.240
 5270POPC   D2A67564  28.753  17.044   6.689
 5270POPC   C3A67565  28.831  16.694   6.910
 5270POPC   C4A67566  29.080  16.883   7.204
 5270POPC   C1B67567  29.336  16.946   6.321
 5270POPC   C2B67568  29.265  16.981   6.743
 5270POPC   C3B67569  29.579  16.960   7.081
 5270POPC   C4B67570  29.738  16.710   7.445
 5271POPC   NC367571  30.095   1.340   5.300
 5271POPC   PO467572  29.501   1.688   5.507
 5271POPC   GL167573  29.802   1.505   5.813
 5271POPC   GL267574  30.179   1.463   5.786
 5271POPC   C1A67575  29.873   1.209   6.152
 5271POPC   D2A67576  29.982   0.862   6.417
 5271POPC   C3A67577  29.989   0.988   6.836
 5271POPC   C4A67578  29.855   1.292   7.134
 5271POPC   C1B67579  30.149   1.648   6.196
 5271POPC   C2B67580  29.927   1.551   6.576
 5271POPC   C3B67581  30.168   1.632   6.919
 5271POPC   C4B67582  30.333   1.530   7.303
 5272POPC   NC367583  10.647  33.482   5.502
 5272POPC   PO467584  10.602  32.867   5.345
 5272POPC   GL167585  10.386  32.878   5.764
 5272POPC   GL267586  10.421  33.214   5.866
 5272POPC   C1A67587  10.314  32.879   6.241
 5272POPC   D2A67588  10.600  32.749   6.590
 5272POPC   C3A67589  10.530  32.889   7.017
 5272POPC   C4A67590  10.131  32.917   7.227
 5272POPC   C1B67591  10.520  33.400   6.244
 5272POPC   C2B67592  10.493  33.267   6.662
 5272POPC   C3B67593  10.552  33.420   7.071
 5272POPC   C4B67594  10.421  33.427   7.517
 5273POPC   NC367595   1.709   2.903   5.619
 5273POPC   PO467596   2.191   2.514   5.416
 5273POPC   GL167597   2.176   2.748   5.791
 5273POPC   GL267598   1.949   2.513   5.873
 5273POPC   C1A67599   2.131   2.866   6.214
 5273POPC   D2A67600   1.866   2.872   6.561
 5273POPC   C3A67601   2.024   2.699   6.899
 5273POPC   C4A67602   1.928   2.928   7.221
 5273POPC   C1B67603   1.781   2.435   6.272
 5273POPC   C2B67604   1.499   2.518   6.600
 5273POPC   C3B67605   1.583   2.473   6.998
 5273POPC   C4B67606   1.749   2.286   7.330
 5274POPC   NC367607  36.201  15.498   5.346
 5274POPC   PO467608  36.550  14.951   5.595
 5274POPC   GL167609  36.212  15.185   5.789
 5274POPC   GL267610  35.857  15.128   5.718
 5274POPC   C1A67611  36.064  15.140   6.207
 5274POPC   D2A67612  36.202  15.272   6.582
 5274POPC   C3A67613  36.231  14.938   6.852
 5274POPC   C4A67614  36.293  15.075   7.234
 5274POPC   C1B67615  35.682  15.413   6.039
 5274POPC   C2B67616  35.648  15.405   6.515
 5274POPC   C3B67617  35.846  15.367   6.941
 5274POPC   C4B67618  35.820  15.283   7.390
 5275POPC   NC367619  11.476  33.647   5.436
 5275POPC   PO467620  10.768  33.939   5.461
 5275POPC   GL167621  11.063  33.807   5.764
 5275POPC   GL267622  11.097  33.463   5.734
 5275POPC   C1A67623  11.310  33.899   6.146
 5275POPC   D2A67624  11.164  34.027   6.558
 5275POPC   C3A67625  11.428  34.017   6.911
 5275POPC   C4A67626  11.525  34.070   7.329
 5275POPC   C1B67627  11.063  33.426   6.156
 5275POPC   C2B67628  11.330  33.521   6.511
 5275POPC   C3B67629  11.514  33.503   6.903
 5275POPC   C4B67630  11.357  33.453   7.281
 5276POPC   NC367631  38.501  42.428   5.146
 5276POPC   PO467632  38.106  41.932   5.368
 5276POPC   GL167633  38.329  42.257   5.658
 5276POPC   GL267634  38.660  42.351   5.734
 5276POPC   C1A67635  38.304  42.317   6.136
 5276POPC   D2A67636  38.135  42.467   6.552
 5276POPC   C3A67637  38.254  42.255   6.903
 5276POPC   C4A67638  38.317  42.443   7.295
 5276POPC   C1B67639  38.761  42.588   6.128
 5276POPC   C2B67640  38.637  42.461   6.541
 5276POPC   C3B67641  38.732  42.469   6.975
 5276POPC   C4B67642  38.934  42.477   7.368
 5277POPC   NC367643  28.240   4.488   5.263
 5277POPC   PO467644  28.774   4.278   5.584
 5277POPC   GL167645  28.519   4.333   5.868
 5277POPC   GL267646  28.188   4.390   5.782
 5277POPC   C1A67647  28.640   4.456   6.250
 5277POPC   D2A67648  28.446   4.516   6.601
 5277POPC   C3A67649  28.610   4.478   6.979
 5277POPC   C4A67650  28.373   4.541   7.340
 5277POPC   C1B67651  28.157   4.185   6.188
 5277POPC   C2B67652  28.279   4.021   6.582
 5277POPC   C3B67653  28.159   4.238   6.946
 5277POPC   C4B67654  27.913   4.331   7.293
 5278POPC   NC367655  31.616  16.972   5.157
 5278POPC   PO467656  31.149  16.918   5.495
 5278POPC   GL167657  31.470  17.191   5.730
 5278POPC   GL267658  31.243  17.364   5.945
 5278POPC   C1A67659  31.737  17.047   6.125
 5278POPC   D2A67660  31.591  16.739   6.460
 5278POPC   C3A67661  31.730  16.722   6.907
 5278POPC   C4A67662  31.778  16.385   7.240
 5278POPC   C1B67663  31.265  17.136   6.352
 5278POPC   C2B67664  31.249  16.952   6.774
 5278POPC   C3B67665  31.277  16.748   7.156
 5278POPC   C4B67666  30.981  16.777   7.472
 5279POPC   NC367667   3.241  39.495   5.635
 5279POPC   PO467668   3.503  39.084   5.121
 5279POPC   GL167669   3.560  39.084   5.611
 5279POPC   GL267670   3.695  39.406   5.817
 5279POPC   C1A67671   3.473  38.993   6.071
 5279POPC   D2A67672   3.441  38.933   6.552
 5279POPC   C3A67673   3.477  39.094   7.013
 5279POPC   C4A67674   3.886  39.051   7.326
 5279POPC   C1B67675   3.594  39.442   6.269
 5279POPC   C2B67676   3.795  39.296   6.639
 5279POPC   C3B67677   3.823  39.458   7.050
 5279POPC   C4B67678   3.795  39.743   7.358
 5280POPC   NC367679  18.476  19.195   5.234
 5280POPC   PO467680  18.016  18.743   5.294
 5280POPC   GL167681  18.247  18.790   5.732
 5280POPC   GL267682  18.551  19.027   5.803
 5280POPC   C1A67683  18.227  18.893   6.192
 5280POPC   D2A67684  18.458  18.940   6.596
 5280POPC   C3A67685  18.174  18.919   6.951
 5280POPC   C4A67686  18.190  18.772   7.372
 5280POPC   C1B67687  18.458  19.336   6.133
 5280POPC   C2B67688  18.167  19.353   6.469
 5280POPC   C3B67689  18.324  19.410   6.872
 5280POPC   C4B67690  18.324  19.311   7.286
 5281POPC   NC367691  17.890  31.583   5.432
 5281POPC   PO467692  17.288  31.255   5.479
 5281POPC   GL167693  17.461  31.537   5.806
 5281POPC   GL267694  17.809  31.516   5.944
 5281POPC   C1A67695  17.290  31.584   6.226
 5281POPC   D2A67696  17.150  31.315   6.568
 5281POPC   C3A67697  17.241  31.492   6.929
 5281POPC   C4A67698  17.651  31.559   7.052
 5281POPC   C1B67699  17.655  31.227   6.288
 5281POPC   C2B67700  17.794  31.140   6.727
 5281POPC   C3B67701  17.972  31.174   7.157
 5281POPC   C4B67702  17.789  31.139   7.581
 5282POPC   NC367703  20.444  23.330   5.276
 5282POPC   PO467704  20.905  22.781   5.462
 5282POPC   GL167705  20.677  22.924   5.825
 5282POPC   GL267706  20.595  23.272   5.769
 5282POPC   C1A67707  20.775  23.020   6.274
 5282POPC   D2A67708  20.827  23.229   6.697
 5282POPC   C3A67709  20.896  22.921   7.045
 5282POPC   C4A67710  20.795  22.642   7.385
 5282POPC   C1B67711  20.297  23.164   6.103
 5282POPC   C2B67712  20.311  23.181   6.574
 5282POPC   C3B67713  20.424  23.150   7.024
 5282POPC   C4B67714  20.458  23.001   7.445
 5283POPC   NC367715  40.889  34.700   5.424
 5283POPC   PO467716  40.284  34.957   5.491
 5283POPC   GL167717  40.494  34.664   5.788
 5283POPC   GL267718  40.794  34.459   5.876
 5283POPC   C1A67719  40.661  34.837   6.175
 5283POPC   D2A67720  40.668  34.600   6.534
 5283POPC   C3A67721  40.727  34.756   6.940
 5283POPC   C4A67722  40.545  34.633   7.310
 5283POPC   C1B67723  41.108  34.547   6.238
 5283POPC   C2B67724  41.126  34.501   6.692
 5283POPC   C3B67725  41.034  34.372   7.108
 5283POPC   C4B67726  41.197  34.781   7.201
 5284POPC   NC367727   7.926  34.789   5.328
 5284POPC   PO467728   7.523  34.338   5.534
 5284POPC   GL167729   7.543  34.680   5.839
 5284POPC   GL267730   7.262  34.439   5.975
 5284POPC   C1A67731   7.440  34.796   6.265
 5284POPC   D2A67732   7.500  34.563   6.625
 5284POPC   C3A67733   7.239  34.367   6.900
 5284POPC   C4A67734   7.281  34.651   7.232
 5284POPC   C1B67735   7.701  34.348   6.184
 5284POPC   C2B67736   7.811  34.127   6.566
 5284POPC   C3B67737   7.777  34.321   6.977
 5284POPC   C4B67738   7.746  34.497   7.359
 5285POPC   NC367739   3.033  22.589   5.357
 5285POPC   PO467740   2.713  23.236   5.332
 5285POPC   GL167741   2.689  23.082   5.731
 5285POPC   GL267742   3.012  22.944   5.738
 5285POPC   C1A67743   2.647  22.946   6.168
 5285POPC   D2A67744   2.498  22.721   6.532
 5285POPC   C3A67745   2.440  23.012   6.895
 5285POPC   C4A67746   2.373  23.402   7.156
 5285POPC   C1B67747   3.155  22.824   6.139
 5285POPC   C2B67748   2.998  22.693   6.543
 5285POPC   C3B67749   2.921  22.830   6.955
 5285POPC   C4B67750   2.945  22.682   7.373
 5286POPC   NC367751  10.308  41.338   5.485
 5286POPC   PO467752  10.857  41.770   5.513
 5286POPC   GL167753  10.564  41.609   5.859
 5286POPC   GL267754  10.234  41.430   5.966
 5286POPC   C1A67755  10.686  41.390   6.234
 5286POPC   D2A67756  10.848  41.558   6.593
 5286POPC   C3A67757  10.756  41.657   7.012
 5286POPC   C4A67758  10.756  41.297   7.225
 5286POPC   C1B67759  10.213  41.533   6.389
 5286POPC   C2B67760  10.295  41.609   6.811
 5286POPC   C3B67761  10.255  41.664   7.269
 5286POPC   C4B67762  10.237  41.810   7.724
 5287POPC   NC367763  29.425  19.190   5.364
 5287POPC   PO467764  29.002  18.737   5.161
 5287POPC   GL167765  29.221  18.762   5.626
 5287POPC   GL267766  29.200  19.101   5.810
 5287POPC   C1A67767  29.341  18.716   6.092
 5287POPC   D2A67768  29.100  18.820   6.488
 5287POPC   C3A67769  29.342  18.869   6.860
 5287POPC   C4A67770  29.230  18.856   7.269
 5287POPC   C1B67771  29.138  19.282   6.235
 5287POPC   C2B67772  29.295  19.381   6.677
 5287POPC   C3B67773  29.120  19.330   7.110
 5287POPC   C4B67774  29.245  19.282   7.552
 5288POPC   NC367775   3.294  13.363   5.681
 5288POPC   PO467776   2.968  13.969   5.470
 5288POPC   GL167777   2.805  13.743   5.865
 5288POPC   GL267778   2.842  13.389   5.947
 5288POPC   C1A67779   2.713  13.720   6.325
 5288POPC   D2A67780   2.880  13.980   6.674
 5288POPC   C3A67781   2.840  13.776   7.064
 5288POPC   C4A67782   2.506  13.526   7.036
 5288POPC   C1B67783   3.095  13.346   6.330
 5288POPC   C2B67784   3.156  13.514   6.740
 5288POPC   C3B67785   3.187  13.411   7.186
 5288POPC   C4B67786   2.812  13.441   7.453
 5289POPC   NC367787  21.939  44.509   5.570
 5289POPC   PO467788  22.387  44.968   5.295
 5289POPC   GL167789  22.252  44.903   5.753
 5289POPC   GL267790  21.878   0.010   5.788
 5289POPC   C1A67791  22.428  44.760   6.181
 5289POPC   D2A67792  22.562  44.541   6.579
 5289POPC   C3A67793  22.487  44.695   7.010
 5289POPC   C4A67794  22.300  44.532   7.412
 5289POPC   C1B67795  21.915  44.743   6.176
 5289POPC   C2B67796  22.019  44.615   6.587
 5289POPC   C3B67797  21.993  44.526   6.984
 5289POPC   C4B67798  21.839  44.739   7.305
 5290POPC   NC367799   6.545  42.497   5.431
 5290POPC   PO467800   7.161  42.092   5.320
 5290POPC   GL167801   6.928  42.112   5.734
 5290POPC   GL267802   6.575  42.075   5.730
 5290POPC   C1A67803   6.852  42.303   6.166
 5290POPC   D2A67804   6.628  42.430   6.520
 5290POPC   C3A67805   6.846  42.350   6.883
 5290POPC   C4A67806   6.620  42.440   7.189
 5290POPC   C1B67807   6.425  42.032   6.157
 5290POPC   C2B67808   6.221  42.113   6.541
 5290POPC   C3B67809   6.192  42.035   6.969
 5290POPC   C4B67810   6.439  41.972   7.284
 5291POPC   NC367811  23.493  44.178   5.430
 5291POPC   PO467812  23.760  43.602   5.594
 5291POPC   GL167813  23.599  43.869   5.878
 5291POPC   GL267814  23.858  44.082   5.902
 5291POPC   C1A67815  23.495  44.059   6.265
 5291POPC   D2A67816  23.518  43.894   6.651
 5291POPC   C3A67817  23.422  44.123   7.010
 5291POPC   C4A67818  23.620  43.858   7.318
 5291POPC   C1B67819  23.993  43.790   6.244
 5291POPC   C2B67820  24.012  43.724   6.694
 5291POPC   C3B67821  23.942  44.069   6.985
 5291POPC   C4B67822  23.767  44.339   7.343
 5292POPC   NC367823  26.856  38.373   5.509
 5292POPC   PO467824  26.956  37.736   5.361
 5292POPC   GL167825  26.803  37.580   5.785
 5292POPC   GL267826  27.015  37.369   5.930
 5292POPC   C1A67827  26.650  37.768   6.178
 5292POPC   D2A67828  26.798  37.999   6.545
 5292POPC   C3A67829  26.705  37.908   7.006
 5292POPC   C4A67830  26.560  37.597   7.248
 5292POPC   C1B67831  26.983  37.442   6.360
 5292POPC   C2B67832  26.878  37.491   6.779
 5292POPC   C3B67833  26.977  37.305   7.161
 5292POPC   C4B67834  27.280  37.320   7.503
 5293POPC   NC367835  33.847  25.742   5.272
 5293POPC   PO467836  33.797  26.273   5.116
 5293POPC   GL167837  33.798  26.146   5.595
 5293POPC   GL267838  33.739  25.796   5.768
 5293POPC   C1A67839  33.743  26.215   6.072
 5293POPC   D2A67840  33.913  26.141   6.518
 5293POPC   C3A67841  33.852  26.449   6.852
 5293POPC   C4A67842  34.009  26.470   7.277
 5293POPC   C1B67843  33.844  25.728   6.226
 5293POPC   C2B67844  33.723  25.686   6.684
 5293POPC   C3B67845  33.875  25.533   7.076
 5293POPC   C4B67846  34.090  25.750   7.382
 5294POPC   NC367847  29.702   6.359   5.566
 5294POPC   PO467848  30.104   6.814   5.345
 5294POPC   GL167849  29.953   6.766   5.809
 5294POPC   GL267850  30.000   6.433   5.981
 5294POPC   C1A67851  29.919   6.860   6.287
 5294POPC   D2A67852  30.155   6.727   6.663
 5294POPC   C3A67853  30.080   6.957   7.023
 5294POPC   C4A67854  29.712   7.054   7.167
 5294POPC   C1B67855  29.554   6.515   6.160
 5294POPC   C2B67856  29.370   6.585   6.563
 5294POPC   C3B67857  29.691   6.644   6.869
 5294POPC   C4B67858  30.052   6.412   7.080
 5295POPC   NC367859  22.960   8.253   5.311
 5295POPC   PO467860  22.849   7.705   5.676
 5295POPC   GL167861  22.835   8.097   5.791
 5295POPC   GL267862  23.168   8.171   5.758
 5295POPC   C1A67863  22.809   8.334   6.123
 5295POPC   D2A67864  22.744   8.443   6.553
 5295POPC   C3A67865  22.799   8.115   6.855
 5295POPC   C4A67866  22.657   8.221   7.262
 5295POPC   C1B67867  23.284   8.095   6.170
 5295POPC   C2B67868  23.505   8.196   6.525
 5295POPC   C3B67869  23.399   7.978   6.879
 5295POPC   C4B67870  23.159   8.109   7.227
 5296POPC   NC367871   6.913  27.213   5.473
 5296POPC   PO467872   6.470  26.767   5.337
 5296POPC   GL167873   6.436  26.919   5.752
 5296POPC   GL267874   6.783  26.791   5.805
 5296POPC   C1A67875   6.253  26.949   6.178
 5296POPC   D2A67876   6.367  26.749   6.556
 5296POPC   C3A67877   6.295  26.893   6.980
 5296POPC   C4A67878   6.407  26.650   7.398
 5296POPC   C1B67879   6.760  26.872   6.242
 5296POPC   C2B67880   6.896  26.775   6.642
 5296POPC   C3B67881   6.923  27.002   7.023
 5296POPC   C4B67882   6.624  27.088   7.318
 5297POPC   NC367883  35.333  15.001   5.313
 5297POPC   PO467884  35.736  15.492   5.383
 5297POPC   GL167885  35.344  15.393   5.667
 5297POPC   GL267886  35.345  15.045   5.825
 5297POPC   C1A67887  35.191  15.419   6.151
 5297POPC   D2A67888  35.163  15.215   6.598
 5297POPC   C3A67889  35.356  15.181   7.044
 5297POPC   C4A67890  35.264  15.338   7.483
 5297POPC   C1B67891  35.569  14.973   6.231
 5297POPC   C2B67892  35.710  14.920   6.671
 5297POPC   C3B67893  35.770  14.871   7.103
 5297POPC   C4B67894  35.513  14.873   7.496
 5298POPC   NC367895  16.048  33.127   5.190
 5298POPC   PO467896  16.117  32.507   5.428
 5298POPC   GL167897  16.022  32.854   5.733
 5298POPC   GL267898  15.889  33.208   5.669
 5298POPC   C1A67899  15.985  32.949   6.186
 5298POPC   D2A67900  15.819  33.165   6.545
 5298POPC   C3A67901  15.882  33.012   6.960
 5298POPC   C4A67902  15.937  32.572   7.158
 5298POPC   C1B67903  16.245  33.325   5.958
 5298POPC   C2B67904  16.267  33.407   6.421
 5298POPC   C3B67905  16.332  33.305   6.865
 5298POPC   C4B67906  16.126  33.351   7.258
 5299POPC   NC367907  10.607  24.117   5.301
 5299POPC   PO467908  10.321  23.699   5.608
 5299POPC   GL167909  10.595  23.726   5.892
 5299POPC   GL267910  10.680  24.080   5.833
 5299POPC   C1A67911  10.437  23.647   6.307
 5299POPC   D2A67912  10.471  23.838   6.717
 5299POPC   C3A67913  10.601  23.552   7.029
 5299POPC   C4A67914  10.234  23.495   7.258
 5299POPC   C1B67915  10.661  24.096   6.294
 5299POPC   C2B67916  10.938  24.036   6.632
 5299POPC   C3B67917  10.822  24.052   7.064
 5299POPC   C4B67918  10.386  23.986   7.219
 5300POPC   NC367919   4.860  13.001   5.460
 5300POPC   PO467920   5.482  12.620   5.419
 5300POPC   GL167921   5.174  12.531   5.776
 5300POPC   GL267922   4.872  12.751   5.880
 5300POPC   C1A67923   5.057  12.460   6.225
 5300POPC   D2A67924   4.931  12.788   6.512
 5300POPC   C3A67925   5.103  12.684   6.878
 5300POPC   C4A67926   5.047  12.722   7.282
 5300POPC   C1B67927   4.749  13.075   6.146
 5300POPC   C2B67928   4.647  13.204   6.612
 5300POPC   C3B67929   4.765  13.055   7.033
 5300POPC   C4B67930   4.857  13.122   7.510
 5301POPC   NC367931  13.868   1.254   5.521
 5301POPC   PO467932  13.988   0.664   5.539
 5301POPC   GL167933  13.853   0.962   5.943
 5301POPC   GL267934  13.959   1.344   6.013
 5301POPC   C1A67935  13.796   1.086   6.421
 5301POPC   D2A67936  13.862   1.395   6.768
 5301POPC   C3A67937  13.613   1.292   7.129
 5301POPC   C4A67938  13.329   0.943   7.247
 5301POPC   C1B67939  13.702   1.590   6.312
 5301POPC   C2B67940  13.556   1.813   6.703
 5301POPC   C3B67941  13.340   1.754   7.099
 5301POPC   C4B67942  13.160   1.429   7.364
 5302POPC   NC367943  44.246  29.188   5.189
 5302POPC   PO467944  44.117  28.584   5.525
 5302POPC   GL167945  44.076  28.954   5.789
 5302POPC   GL267946  43.829  29.228   5.690
 5302POPC   C1A67947  43.957  29.145   6.187
 5302POPC   D2A67948  43.830  28.981   6.558
 5302POPC   C3A67949  44.055  28.982   6.923
 5302POPC   C4A67950  44.113  29.320   7.170
 5302POPC   C1B67951  43.529  29.375   6.015
 5302POPC   C2B67952  43.500  29.403   6.463
 5302POPC   C3B67953  43.664  29.361   6.873
 5302POPC   C4B67954  43.601  29.283   7.300
 5303POPC   NC367955   8.321  18.260   5.494
 5303POPC   PO467956   7.796  18.136   5.644
 5303POPC   GL167957   8.164  17.976   5.918
 5303POPC   GL267958   8.506  18.114   5.938
 5303POPC   C1A67959   8.246  18.075   6.364
 5303POPC   D2A67960   8.196  18.450   6.645
 5303POPC   C3A67961   8.086  18.300   7.045
 5303POPC   C4A67962   8.086  17.995   7.374
 5303POPC   C1B67963   8.592  18.456   6.268
 5303POPC   C2B67964   8.705  18.656   6.693
 5303POPC   C3B67965   8.559  18.504   7.118
 5303POPC   C4B67966   8.283  18.528   7.460
 5304POPC   NC367967  43.720   4.682   5.337
 5304POPC   PO467968  44.000   4.031   5.291
 5304POPC   GL167969  44.102   4.392   5.646
 5304POPC   GL267970  43.803   4.529   5.809
 5304POPC   C1A67971  44.196   4.510   6.128
 5304POPC   D2A67972  44.438   4.532   6.541
 5304POPC   C3A67973  44.191   4.485   6.925
 5304POPC   C4A67974  43.815   4.329   7.140
 5304POPC   C1B67975  43.662   4.429   6.222
 5304POPC   C2B67976  43.598   4.357   6.649
 5304POPC   C3B67977  43.395   4.587   6.963
 5304POPC   C4B67978  43.585   4.796   7.278
 5305POPC   NC367979  28.919  23.022   5.561
 5305POPC   PO467980  29.433  22.640   5.370
 5305POPC   GL167981  29.309  22.757   5.767
 5305POPC   GL267982  29.348  23.140   5.803
 5305POPC   C1A67983  29.138  22.807   6.177
 5305POPC   D2A67984  28.918  22.988   6.519
 5305POPC   C3A67985  28.996  22.748   6.878
 5305POPC   C4A67986  29.302  22.912   7.111
 5305POPC   C1B67987  29.159  23.343   6.168
 5305POPC   C2B67988  29.329  23.278   6.552
 5305POPC   C3B67989  29.366  23.410   6.949
 5305POPC   C4B67990  29.543  23.296   7.350
 5306POPC   NC367991   3.919  29.513   5.680
 5306POPC   PO467992   3.274  29.426   5.403
 5306POPC   GL167993   3.484  29.245   5.789
 5306POPC   GL267994   3.760  28.987   5.783
 5306POPC   C1A67995   3.628  29.209   6.228
 5306POPC   D2A67996   3.745  29.165   6.673
 5306POPC   C3A67997   3.492  29.136   7.074
 5306POPC   C4A67998   3.320  29.179   7.488
 5306POPC   C1B67999   3.946  28.788   6.178
 5306POPC   C2B68000   3.858  28.639   6.591
 5306POPC   C3B68001   3.877  28.780   7.031
 5306POPC   C4B68002   3.710  28.830   7.445
 5307POPC   NC368003  24.605  17.297   5.486
 5307POPC   PO468004  24.541  16.740   5.145
 5307POPC   GL168005  24.428  16.651   5.582
 5307POPC   GL268006  24.640  16.861   5.742
 5307POPC   C1A68007  24.276  16.625   6.043
 5307POPC   D2A68008  24.113  16.626   6.482
 5307POPC   C3A68009  24.276  16.721   6.897
 5307POPC   C4A68010  24.413  16.407   7.171
 5307POPC   C1B68011  24.789  16.704   6.122
 5307POPC   C2B68012  24.642  16.566   6.518
 5307POPC   C3B68013  24.843  16.562   6.909
 5307POPC   C4B68014  24.964  16.823   7.233
 5308POPC   NC368015  36.811  23.364   5.406
 5308POPC   PO468016  37.044  22.668   5.482
 5308POPC   GL168017  37.028  22.972   5.809
 5308POPC   GL268018  36.690  22.979   5.776
 5308POPC   C1A68019  36.906  23.166   6.214
 5308POPC   D2A68020  36.687  23.006   6.601
 5308POPC   C3A68021  36.701  23.216   7.021
 5308POPC   C4A68022  36.825  23.175   7.472
 5308POPC   C1B68023  36.758  22.654   6.120
 5308POPC   C2B68024  36.671  22.478   6.528
 5308POPC   C3B68025  36.763  22.594   6.927
 5308POPC   C4B68026  37.054  22.844   7.153
 5309POPC   NC368027  34.304  40.081   5.517
 5309POPC   PO468028  34.915  39.893   5.161
 5309POPC   GL168029  34.840  40.012   5.624
 5309POPC   GL268030  34.885  40.322   5.818
 5309POPC   C1A68031  34.814  39.848   6.078
 5309POPC   D2A68032  34.869  39.704   6.543
 5309POPC   C3A68033  34.562  39.744   6.914
 5309POPC   C4A68034  34.689  39.986   7.306
 5309POPC   C1B68035  34.509  40.263   6.096
 5309POPC   C2B68036  34.533  40.085   6.475
 5309POPC   C3B68037  34.695  40.211   6.844
 5309POPC   C4B68038  34.288  40.175   7.074
 5310POPC   NC368039   0.167   1.779   5.449
 5310POPC   PO468040   0.441   2.346   5.506
 5310POPC   GL168041   0.345   2.110   5.859
 5310POPC   GL268042   0.657   1.913   5.813
 5310POPC   C1A68043   0.299   2.043   6.338
 5310POPC   D2A68044   0.239   1.767   6.694
 5310POPC   C3A68045   0.046   1.972   7.038
 5310POPC   C4A68046   0.184   2.373   7.169
 5310POPC   C1B68047   0.750   2.209   6.180
 5310POPC   C2B68048   0.843   2.130   6.631
 5310POPC   C3B68049   0.591   2.100   7.002
 5310POPC   C4B68050   0.682   2.264   7.414
 5311POPC   NC368051   7.664  25.539   5.421
 5311POPC   PO468052   7.456  24.936   5.454
 5311POPC   GL168053   7.553  25.097   5.898
 5311POPC   GL268054   7.549  25.454   5.903
 5311POPC   C1A68055   7.365  25.247   6.342
 5311POPC   D2A68056   7.232  25.563   6.688
 5311POPC   C3A68057   7.248  25.406   7.114
 5311POPC   C4A68058   7.189  25.073   7.452
 5311POPC   C1B68059   7.827  25.446   6.258
 5311POPC   C2B68060   7.800  25.295   6.677
 5311POPC   C3B68061   7.778  25.486   7.059
 5311POPC   C4B68062   7.602  25.792   7.281
 5312POPC   NC368063  37.277  32.566   4.969
 5312POPC   PO468064  37.023  33.070   5.312
 5312POPC   GL168065  37.009  32.926   5.744
 5312POPC   GL268066  37.154  33.215   5.919
 5312POPC   C1A68067  37.161  32.778   6.154
 5312POPC   D2A68068  37.244  33.067   6.504
 5312POPC   C3A68069  37.208  32.888   6.875
 5312POPC   C4A68070  37.055  33.007   7.235
 5312POPC   C1B68071  36.809  33.137   6.236
 5312POPC   C2B68072  36.658  33.078   6.680
 5312POPC   C3B68073  36.559  33.164   7.115
 5312POPC   C4B68074  36.538  33.223   7.580
 5313POPC   NC368075   9.447  35.299   5.109
 5313POPC   PO468076   9.931  35.574   5.427
 5313POPC   GL168077   9.736  35.343   5.714
 5313POPC   GL268078   9.632  35.006   5.562
 5313POPC   C1A68079   9.847  35.448   6.151
 5313POPC   D2A68080   9.652  35.557   6.544
 5313POPC   C3A68081   9.837  35.572   6.964
 5313POPC   C4A68082   9.744  35.734   7.373
 5313POPC   C1B68083   9.657  34.967   6.037
 5313POPC   C2B68084   9.749  35.052   6.458
 5313POPC   C3B68085   9.604  35.118   6.892
 5313POPC   C4B68086   9.706  35.190   7.345
 5314POPC   NC368087  13.053   6.199   5.141
 5314POPC   PO468088  12.676   5.663   5.316
 5314POPC   GL168089  12.846   5.922   5.670
 5314POPC   GL268090  13.196   5.762   5.660
 5314POPC   C1A68091  12.669   6.080   6.112
 5314POPC   D2A68092  12.585   5.929   6.572
 5314POPC   C3A68093  12.846   6.036   6.963
 5314POPC   C4A68094  12.774   6.063   7.432
 5314POPC   C1B68095  13.140   5.869   6.105
 5314POPC   C2B68096  13.067   5.714   6.520
 5314POPC   C3B68097  13.245   5.634   6.922
 5314POPC   C4B68098  13.026   5.653   7.281
 5315POPC   NC368099  24.936  25.319   5.370
 5315POPC   PO468100  25.617  25.305   5.377
 5315POPC   GL168101  25.313  25.297   5.748
 5315POPC   GL268102  25.020  25.053   5.796
 5315POPC   C1A68103  25.224  25.349   6.183
 5315POPC   D2A68104  25.031  25.602   6.498
 5315POPC   C3A68105  25.173  25.411   6.855
 5315POPC   C4A68106  25.472  25.277   7.118
 5315POPC   C1B68107  25.088  24.863   6.195
 5315POPC   C2B68108  25.262  24.966   6.598
 5315POPC   C3B68109  25.089  24.915   7.010
 5315POPC   C4B68110  25.077  25.120   7.404
 5316POPC   NC368111   5.201   7.637   5.328
 5316POPC   PO468112   4.952   7.024   5.317
 5316POPC   GL168113   5.177   7.229   5.663
 5316POPC   GL268114   4.963   7.528   5.789
 5316POPC   C1A68115   5.410   7.382   6.041
 5316POPC   D2A68116   5.294   7.637   6.424
 5316POPC   C3A68117   5.225   7.447   6.842
 5316POPC   C4A68118   4.970   7.621   7.186
 5316POPC   C1B68119   4.940   7.195   6.136
 5316POPC   C2B68120   4.761   7.074   6.537
 5316POPC   C3B68121   4.776   7.205   6.955
 5316POPC   C4B68122   4.876   6.970   7.312
 5317POPC   NC368123  38.946  26.328   5.492
 5317POPC   PO468124  39.401  25.848   5.343
 5317POPC   GL168125  39.292  26.000   5.747
 5317POPC   GL268126  39.531  25.805   5.935
 5317POPC   C1A68127  39.014  26.151   6.100
 5317POPC   D2A68128  38.966  26.230   6.520
 5317POPC   C3A68129  39.196  26.008   6.819
 5317POPC   C4A68130  39.073  25.975   7.212
 5317POPC   C1B68131  39.383  25.758   6.366
 5317POPC   C2B68132  39.391  25.508   6.767
 5317POPC   C3B68133  39.530  25.677   7.163
 5317POPC   C4B68134  39.563  26.139   7.226
 5318POPC   NC368135  44.246  19.732   5.276
 5318POPC   PO468136  44.943  19.504   5.410
 5318POPC   GL168137  44.789  19.742   5.741
 5318POPC   GL268138  44.424  19.763   5.789
 5318POPC   C1A68139  44.870  19.920   6.125
 5318POPC   D2A68140  44.662  19.886   6.490
 5318POPC   C3A68141  44.827  19.779   6.866
 5318POPC   C4A68142   0.037  19.948   7.180
 5318POPC   C1B68143  44.191  19.750   6.189
 5318POPC   C2B68144  44.170  19.915   6.604
 5318POPC   C3B68145  44.329  19.664   6.930
 5318POPC   C4B68146  44.235  19.577   7.345
 5319POPC   NC368147  34.107  19.231   5.504
 5319POPC   PO468148  33.583  18.850   5.400
 5319POPC   GL168149  33.827  18.925   5.794
 5319POPC   GL268150  33.815  19.256   5.938
 5319POPC   C1A68151  33.958  18.799   6.205
 5319POPC   D2A68152  34.019  18.996   6.592
 5319POPC   C3A68153  33.952  18.816   6.970
 5319POPC   C4A68154  33.958  19.170   7.219
 5319POPC   C1B68155  33.521  19.569   6.108
 5319POPC   C2B68156  33.333  19.583   6.498
 5319POPC   C3B68157  33.517  19.584   6.877
 5319POPC   C4B68158  33.538  19.442   7.272
 5320POPC   NC368159  18.095   6.146   5.262
 5320POPC   PO468160  18.535   5.695   5.579
 5320POPC   GL168161  18.149   5.811   5.830
 5320POPC   GL268162  18.012   6.164   5.767
 5320POPC   C1A68163  18.115   5.691   6.294
 5320POPC   D2A68164  17.911   5.897   6.663
 5320POPC   C3A68165  18.131   5.799   7.064
 5320POPC   C4A68166  18.584   5.895   7.063
 5320POPC   C1B68167  18.202   6.196   6.173
 5320POPC   C2B68168  18.231   6.305   6.608
 5320POPC   C3B68169  18.005   6.278   6.991
 5320POPC   C4B68170  17.868   6.274   7.420
 5321POPC   NC368171  19.568  40.358   5.462
 5321POPC   PO468172  19.416  39.736   5.503
 5321POPC   GL168173  19.322  39.894   5.931
 5321POPC   GL268174  19.423  40.201   5.899
 5321POPC   C1A68175  19.632  39.999   6.302
 5321POPC   D2A68176  19.901  39.750   6.546
 5321POPC   C3A68177  19.672  39.610   6.912
 5321POPC   C4A68178  19.601  39.872   7.307
 5321POPC   C1B68179  19.560  40.512   6.161
 5321POPC   C2B68180  19.561  40.439   6.586
 5321POPC   C3B68181  19.514  40.134   6.906
 5321POPC   C4B68182  19.547  40.341   7.406
 5322POPC   NC368183  14.900  29.276   5.491
 5322POPC   PO468184  15.467  29.007   5.254
 5322POPC   GL168185  15.444  28.874   5.759
 5322POPC   GL268186  15.124  28.728   5.876
 5322POPC   C1A68187  15.377  28.976   6.247
 5322POPC   D2A68188  15.262  29.362   6.510
 5322POPC   C3A68189  15.163  29.357   6.971
 5322POPC   C4A68190  15.272  29.261   7.438
 5322POPC   C1B68191  14.895  28.744   6.263
 5322POPC   C2B68192  14.950  28.971   6.642
 5322POPC   C3B68193  14.812  29.014   7.075
 5322POPC   C4B68194  14.870  28.939   7.545
 5323POPC   NC368195  13.881  13.953   5.386
 5323POPC   PO468196  13.245  13.757   5.368
 5323POPC   GL168197  13.325  13.565   5.760
 5323POPC   GL268198  13.669  13.590   5.714
 5323POPC   C1A68199  13.546  13.496   6.192
 5323POPC   D2A68200  13.865  13.414   6.525
 5323POPC   C3A68201  13.719  13.341   6.964
 5323POPC   C4A68202  13.549  13.334   7.364
 5323POPC   C1B68203  13.952  13.797   6.045
 5323POPC   C2B68204  13.997  13.907   6.498
 5323POPC   C3B68205  14.063  13.719   6.935
 5323POPC   C4B68206  14.018  13.939   7.338
 5324POPC   NC368207  31.250  29.236   5.347
 5324POPC   PO468208  31.308  28.636   5.527
 5324POPC   GL168209  31.533  29.033   5.739
 5324POPC   GL268210  31.326  29.285   5.872
 5324POPC   C1A68211  31.847  29.307   6.007
 5324POPC   D2A68212  32.019  29.382   6.439
 5324POPC   C3A68213  31.818  29.231   6.835
 5324POPC   C4A68214  31.960  28.905   7.165
 5324POPC   C1B68215  31.442  29.148   6.288
 5324POPC   C2B68216  31.391  28.973   6.707
 5324POPC   C3B68217  31.417  28.860   7.141
 5324POPC   C4B68218  31.410  28.847   7.595
 5325POPC   NC368219  30.450   7.139   5.391
 5325POPC   PO468220  29.817   7.466   5.330
 5325POPC   GL168221  29.803   7.532   5.780
 5325POPC   GL268222  29.460   7.620   5.808
 5325POPC   C1A68223  29.913   7.374   6.211
 5325POPC   D2A68224  29.896   7.254   6.666
 5325POPC   C3A68225  29.992   7.478   7.060
 5325POPC   C4A68226  30.101   7.261   7.453
 5325POPC   C1B68227  29.626   7.794   6.199
 5325POPC   C2B68228  29.723   7.756   6.644
 5325POPC   C3B68229  29.508   7.519   6.973
 5325POPC   C4B68230  29.595   7.453   7.419
 5326POPC   NC368231   5.718  23.305   5.466
 5326POPC   PO468232   6.021  23.939   5.460
 5326POPC   GL168233   5.928  23.686   5.798
 5326POPC   GL268234   5.577  23.703   5.816
 5326POPC   C1A68235   6.122  23.563   6.193
 5326POPC   D2A68236   5.976  23.418   6.593
 5326POPC   C3A68237   6.094  23.671   6.946
 5326POPC   C4A68238   5.903  23.681   7.330
 5326POPC   C1B68239   5.601  23.523   6.217
 5326POPC   C2B68240   5.579  23.747   6.591
 5326POPC   C3B68241   5.570  23.585   6.976
 5326POPC   C4B68242   5.403  23.822   7.333
 5327POPC   NC368243  35.681  12.038   5.552
 5327POPC   PO468244  35.153  12.348   5.473
 5327POPC   GL168245  35.222  12.097   5.832
 5327POPC   GL268246  35.027  11.804   5.844
 5327POPC   C1A68247  35.299  12.020   6.263
 5327POPC   D2A68248  35.626  11.787   6.453
 5327POPC   C3A68249  35.838  11.930   6.806
 5327POPC   C4A68250  35.721  11.881   7.234
 5327POPC   C1B68251  34.786  11.854   6.204
 5327POPC   C2B68252  34.889  12.030   6.585
 5327POPC   C3B68253  35.251  12.056   6.838
 5327POPC   C4B68254  35.245  12.064   7.282
 5328POPC   NC368255  24.371  23.121   5.473
 5328POPC   PO468256  24.798  22.664   5.386
 5328POPC   GL168257  24.558  22.680   5.758
 5328POPC   GL268258  24.728  22.969   5.836
 5328POPC   C1A68259  24.429  22.747   6.216
 5328POPC   D2A68260  24.423  22.981   6.620
 5328POPC   C3A68261  24.438  22.715   6.992
 5328POPC   C4A68262  24.804  22.526   7.158
 5328POPC   C1B68263  24.673  23.194   6.199
 5328POPC   C2B68264  24.527  23.552   6.397
 5328POPC   C3B68265  24.274  23.504   6.737
 5328POPC   C4B68266  24.317  23.203   7.070
 5329POPC   NC368267  38.128  32.874   5.395
 5329POPC   PO468268  38.765  33.195   5.442
 5329POPC   GL168269  38.686  32.905   5.808
 5329POPC   GL268270  38.340  32.986   5.842
 5329POPC   C1A68271  38.575  32.885   6.276
 5329POPC   D2A68272  38.589  32.722   6.685
 5329POPC   C3A68273  38.615  32.967   7.022
 5329POPC   C4A68274  38.685  32.781   7.394
 5329POPC   C1B68275  38.138  33.179   6.199
 5329POPC   C2B68276  38.226  33.110   6.637
 5329POPC   C3B68277  38.187  33.248   7.049
 5329POPC   C4B68278  37.963  33.383   7.410
 5330POPC   NC368279  43.080  33.594   5.523
 5330POPC   PO468280  43.255  34.263   5.502
 5330POPC   GL168281  43.190  33.989   5.854
 5330POPC   GL268282  42.866  33.846   5.886
 5330POPC   C1A68283  43.190  33.787   6.270
 5330POPC   D2A68284  43.246  33.662   6.696
 5330POPC   C3A68285  43.256  33.946   7.054
 5330POPC   C4A68286  43.465  34.113   7.446
 5330POPC   C1B68287  42.805  33.464   6.145
 5330POPC   C2B68288  42.810  33.401   6.562
 5330POPC   C3B68289  42.555  33.604   6.861
 5330POPC   C4B68290  42.645  33.768   7.321
 5331POPC   NC368291  32.149  19.370   5.571
 5331POPC   PO468292  32.443  19.909   5.433
 5331POPC   GL168293  32.306  19.777   5.847
 5331POPC   GL268294  31.936  19.844   5.779
 5331POPC   C1A68295  32.426  19.653   6.304
 5331POPC   D2A68296  32.494  19.878   6.731
 5331POPC   C3A68297  32.621  19.855   7.183
 5331POPC   C4A68298  32.465  20.045   7.589
 5331POPC   C1B68299  31.906  19.695   6.191
 5331POPC   C2B68300  31.999  19.732   6.628
 5331POPC   C3B68301  32.190  19.599   7.020
 5331POPC   C4B68302  32.158  19.522   7.448
 5332POPC   NC368303  25.075  38.149   5.159
 5332POPC   PO468304  25.524  38.599   5.224
 5332POPC   GL168305  25.300  38.548   5.616
 5332POPC   GL268306  25.463  38.771   5.806
 5332POPC   C1A68307  25.255  38.394   6.082
 5332POPC   D2A68308  25.487  38.260   6.450
 5332POPC   C3A68309  25.428  38.412   6.877
 5332POPC   C4A68310  25.107  38.347   7.165
 5332POPC   C1B68311  25.173  38.893   6.169
 5332POPC   C2B68312  25.083  38.696   6.580
 5332POPC   C3B68313  25.106  38.838   6.996
 5332POPC   C4B68314  25.401  38.753   7.319
 5333POPC   NC368315  17.350   4.619   5.612
 5333POPC   PO468316  17.866   4.199   5.574
 5333POPC   GL168317  17.689   4.358   5.935
 5333POPC   GL268318  17.732   4.679   6.026
 5333POPC   C1A68319  17.706   4.286   6.362
 5333POPC   D2A68320  17.571   4.459   6.719
 5333POPC   C3A68321  17.627   4.165   7.003
 5333POPC   C4A68322  17.773   4.237   7.418
 5333POPC   C1B68323  17.321   4.601   6.261
 5333POPC   C2B68324  17.183   4.778   6.640
 5333POPC   C3B68325  17.123   4.544   7.029
 5333POPC   C4B68326  17.269   4.239   7.359
 5334POPC   NC368327   5.351  40.769   5.269
 5334POPC   PO468328   4.782  40.778   5.548
 5334POPC   GL168329   5.103  40.856   5.792
 5334POPC   GL268330   5.321  41.137   5.639
 5334POPC   C1A68331   5.053  40.882   6.252
 5334POPC   D2A68332   5.098  40.674   6.634
 5334POPC   C3A68333   4.934  40.875   7.010
 5334POPC   C4A68334   4.920  40.557   7.304
 5334POPC   C1B68335   5.475  41.068   6.052
 5334POPC   C2B68336   5.544  40.900   6.473
 5334POPC   C3B68337   5.434  40.951   6.910
 5334POPC   C4B68338   5.302  41.093   7.310
 5335POPC   NC368339  29.036  22.454   5.226
 5335POPC   PO468340  28.862  21.818   5.379
 5335POPC   GL168341  29.087  22.167   5.684
 5335POPC   GL268342  28.878  22.464   5.803
 5335POPC   C1A68343  29.275  22.285   6.124
 5335POPC   D2A68344  29.188  22.424   6.542
 5335POPC   C3A68345  29.198  22.213   6.962
 5335POPC   C4A68346  29.289  21.954   7.342
 5335POPC   C1B68347  28.776  22.188   6.177
 5335POPC   C2B68348  28.700  22.213   6.628
 5335POPC   C3B68349  28.765  21.935   6.969
 5335POPC   C4B68350  28.754  21.986   7.405
 5336POPC   NC368351  38.888  31.084   5.395
 5336POPC   PO468352  38.197  30.668   5.394
 5336POPC   GL168353  38.354  30.805   5.762
 5336POPC   GL268354  38.707  30.750   5.738
 5336POPC   C1A68355  38.491  30.972   6.153
 5336POPC   D2A68356  38.729  31.109   6.506
 5336POPC   C3A68357  38.530  31.019   6.899
 5336POPC   C4A68358  38.355  30.703   7.126
 5336POPC   C1B68359  38.770  30.472   6.107
 5336POPC   C2B68360  38.631  30.265   6.515
 5336POPC   C3B68361  38.723  30.401   6.959
 5336POPC   C4B68362  38.882  30.765   7.186
 5337POPC   NC368363  27.889  12.135   5.433
 5337POPC   PO468364  27.285  11.844   5.259
 5337POPC   GL168365  27.433  11.980   5.663
 5337POPC   GL268366  27.449  12.339   5.637
 5337POPC   C1A68367  27.432  11.929   6.134
 5337POPC   D2A68368  27.711  11.828   6.501
 5337POPC   C3A68369  27.712  12.054   6.900
 5337POPC   C4A68370  27.759  12.105   7.377
 5337POPC   C1B68371  27.358  12.432   6.085
 5337POPC   C2B68372  27.408  12.374   6.521
 5337POPC   C3B68373  27.183  12.147   6.812
 5337POPC   C4B68374  27.297  11.952   7.179
 5338POPC   NC368375  27.454   2.146   5.314
 5338POPC   PO468376  27.326   1.569   5.698
 5338POPC   GL168377  27.601   1.881   5.826
 5338POPC   GL268378  27.542   2.227   5.819
 5338POPC   C1A68379  27.757   1.905   6.241
 5338POPC   D2A68380  27.925   1.875   6.651
 5338POPC   C3A68381  27.556   1.933   6.904
 5338POPC   C4A68382  27.273   1.726   7.157
 5338POPC   C1B68383  27.640   2.417   6.198
 5338POPC   C2B68384  27.782   2.350   6.593
 5338POPC   C3B68385  27.909   2.265   7.006
 5338POPC   C4B68386  27.566   2.310   7.311
 5339POPC   NC368387  20.818  14.248   5.504
 5339POPC   PO468388  20.272  14.630   5.608
 5339POPC   GL168389  20.553  14.397   5.916
 5339POPC   GL268390  20.719  14.046   5.940
 5339POPC   C1A68391  20.568  14.309   6.354
 5339POPC   D2A68392  20.389  14.424   6.723
 5339POPC   C3A68393  20.714  14.504   6.956
 5339POPC   C4A68394  20.885  14.452   7.337
 5339POPC   C1B68395  20.353  13.887   6.100
 5339POPC   C2B68396  20.355  13.821   6.523
 5339POPC   C3B68397  20.592  13.972   6.869
 5339POPC   C4B68398  20.444  14.158   7.235
 5340POPC   NC368399  27.771   1.477   5.547
 5340POPC   PO468400  27.560   0.830   5.308
 5340POPC   GL168401  27.625   1.017   5.759
 5340POPC   GL268402  27.940   0.933   5.956
 5340POPC   C1A68403  27.482   0.966   6.213
 5340POPC   D2A68404  27.693   1.020   6.632
 5340POPC   C3A68405  27.642   0.943   7.094
 5340POPC   C4A68406  27.749   0.926   7.556
 5340POPC   C1B68407  27.826   1.330   6.175
 5340POPC   C2B68408  27.582   1.505   6.522
 5340POPC   C3B68409  27.658   1.430   6.960
 5340POPC   C4B68410  27.565   1.359   7.399
 5341POPC   NC368411  24.104  31.017   5.399
 5341POPC   PO468412  24.472  31.596   5.327
 5341POPC   GL168413  24.517  31.728   5.780
 5341POPC   GL268414  24.839  31.907   5.818
 5341POPC   C1A68415  24.460  31.646   6.255
 5341POPC   D2A68416  24.714  31.468   6.629
 5341POPC   C3A68417  24.472  31.284   6.978
 5341POPC   C4A68418  24.120  31.475   7.099
 5341POPC   C1B68419  24.935  31.865   6.235
 5341POPC   C2B68420  24.892  31.987   6.646
 5341POPC   C3B68421  25.023  31.760   6.987
 5341POPC   C4B68422  24.667  31.686   7.224
 5342POPC   NC368423  12.923   5.212   5.241
 5342POPC   PO468424  12.619   4.673   5.445
 5342POPC   GL168425  12.966   4.897   5.694
 5342POPC   GL268426  13.103   5.253   5.728
 5342POPC   C1A68427  13.008   4.938   6.134
 5342POPC   D2A68428  12.771   4.973   6.502
 5342POPC   C3A68429  12.910   4.668   6.796
 5342POPC   C4A68430  12.862   4.744   7.227
 5342POPC   C1B68431  13.274   5.374   6.145
 5342POPC   C2B68432  13.210   5.224   6.592
 5342POPC   C3B68433  12.944   5.200   6.987
 5342POPC   C4B68434  13.069   5.177   7.442
 5343POPC   NC368435   9.710  18.862   5.477
 5343POPC   PO468436   9.564  19.508   5.383
 5343POPC   GL168437   9.849  19.299   5.723
 5343POPC   GL268438   9.575  19.151   5.905
 5343POPC   C1A68439  10.011  19.071   6.155
 5343POPC   D2A68440  10.069  19.186   6.616
 5343POPC   C3A68441   9.834  18.934   6.942
 5343POPC   C4A68442   9.778  18.860   7.389
 5343POPC   C1B68443   9.656  19.415   6.283
 5343POPC   C2B68444   9.605  19.474   6.710
 5343POPC   C3B68445   9.549  19.347   7.090
 5343POPC   C4B68446   9.367  18.997   7.157
 5344POPC   NC368447  43.866  12.648   5.203
 5344POPC   PO468448  44.212  13.070   5.592
 5344POPC   GL168449  44.057  12.941   5.917
 5344POPC   GL268450  43.789  12.746   5.786
 5344POPC   C1A68451  43.774  12.992   6.242
 5344POPC   D2A68452  43.742  12.805   6.644
 5344POPC   C3A68453  43.968  13.066   6.894
 5344POPC   C4A68454  43.942  13.182   7.288
 5344POPC   C1B68455  43.974  12.533   6.196
 5344POPC   C2B68456  43.997  12.274   6.543
 5344POPC   C3B68457  43.919  12.404   6.955
 5344POPC   C4B68458  44.045  12.695   7.250
 5345POPC   NC368459  28.287   6.494   5.280
 5345POPC   PO468460  28.812   6.165   5.578
 5345POPC   GL168461  28.510   6.352   5.854
 5345POPC   GL268462  28.187   6.496   5.767
 5345POPC   C1A68463  28.279   6.240   6.226
 5345POPC   D2A68464  28.426   6.151   6.669
 5345POPC   C3A68465  28.450   6.511   6.961
 5345POPC   C4A68466  28.202   6.520   7.325
 5345POPC   C1B68467  28.334   6.777   6.096
 5345POPC   C2B68468  28.261   6.683   6.522
 5345POPC   C3B68469  28.130   6.934   6.883
 5345POPC   C4B68470  27.934   6.942   7.280
 5346POPC   NC368471   3.994  35.355   4.973
 5346POPC   PO468472   3.464  35.248   5.379
 5346POPC   GL168473   3.649  35.224   5.813
 5346POPC   GL268474   3.446  35.458   6.001
 5346POPC   C1A68475   3.861  35.298   6.242
 5346POPC   D2A68476   3.596  35.436   6.616
 5346POPC   C3A68477   3.625  35.328   7.063
 5346POPC   C4A68478   3.525  35.460   7.491
 5346POPC   C1B68479   3.369  35.800   6.323
 5346POPC   C2B68480   3.365  35.975   6.748
 5346POPC   C3B68481   3.238  35.787   7.156
 5346POPC   C4B68482   3.208  35.833   7.646
 5347POPC   NC368483  37.233  44.542   5.458
 5347POPC   PO468484  36.846  44.992   5.263
 5347POPC   GL168485  36.912  44.798   5.745
 5347POPC   GL268486  36.689  44.536   5.884
 5347POPC   C1A68487  37.101  44.639   6.159
 5347POPC   D2A68488  37.266  44.660   6.588
 5347POPC   C3A68489  37.014  44.602   6.938
 5347POPC   C4A68490  36.992  44.769   7.327
 5347POPC   C1B68491  36.572  44.789   6.215
 5347POPC   C2B68492  36.729  44.926   6.616
 5347POPC   C3B68493  36.550  44.801   7.011
 5347POPC   C4B68494  36.524  44.521   7.355
 5348POPC   NC368495  29.706   3.182   5.536
 5348POPC   PO468496  29.872   3.842   5.448
 5348POPC   GL168497  29.782   3.598   5.873
 5348POPC   GL268498  29.495   3.368   5.964
 5348POPC   C1A68499  29.946   3.502   6.315
 5348POPC   D2A68500  30.326   3.529   6.599
 5348POPC   C3A68501  30.200   3.465   6.998
 5348POPC   C4A68502  29.861   3.599   7.190
 5348POPC   C1B68503  29.513   3.016   6.221
 5348POPC   C2B68504  29.808   3.043   6.537
 5348POPC   C3B68505  29.717   3.264   6.856
 5348POPC   C4B68506  29.396   3.410   7.131
 5349POPC   NC368507  39.147  21.524   4.883
 5349POPC   PO468508  39.404  21.740   5.491
 5349POPC   GL168509  39.202  21.480   5.817
 5349POPC   GL268510  38.898  21.592   5.931
 5349POPC   C1A68511  39.258  21.431   6.260
 5349POPC   D2A68512  39.449  21.449   6.644
 5349POPC   C3A68513  39.191  21.209   6.918
 5349POPC   C4A68514  39.278  21.309   7.320
 5349POPC   C1B68515  38.828  21.753   6.299
 5349POPC   C2B68516  39.059  21.928   6.587
 5349POPC   C3B68517  39.102  21.728   6.951
 5349POPC   C4B68518  38.837  21.506   7.222
 5350POPC   NC368519  43.181  17.224   5.314
 5350POPC   PO468520  43.150  17.937   5.374
 5350POPC   GL168521  43.168  17.617   5.737
 5350POPC   GL268522  43.080  17.268   5.810
 5350POPC   C1A68523  43.019  17.574   6.197
 5350POPC   D2A68524  42.918  17.430   6.606
 5350POPC   C3A68525  43.225  17.348   6.925
 5350POPC   C4A68526  43.118  17.430   7.380
 5350POPC   C1B68527  43.159  17.039   6.219
 5350POPC   C2B68528  42.915  16.871   6.581
 5350POPC   C3B68529  42.911  16.967   7.026
 5350POPC   C4B68530  43.334  16.999   7.274
 5351POPC   NC368531  12.526  31.348   5.384
 5351POPC   PO468532  13.146  31.318   5.247
 5351POPC   GL168533  12.953  31.551   5.625
 5351POPC   GL268534  12.814  31.295   5.835
 5351POPC   C1A68535  12.944  31.729   6.091
 5351POPC   D2A68536  12.779  31.810   6.552
 5351POPC   C3A68537  12.915  31.674   6.978
 5351POPC   C4A68538  12.759  31.676   7.409
 5351POPC   C1B68539  12.624  31.177   6.252
 5351POPC   C2B68540  12.618  31.312   6.704
 5351POPC   C3B68541  12.594  31.253   7.148
 5351POPC   C4B68542  12.518  31.018   7.524
 5352POPC   NC368543  41.282  17.370   5.514
 5352POPC   PO468544  41.932  17.499   5.569
 5352POPC   GL168545  41.578  17.687   5.822
 5352POPC   GL268546  41.746  17.996   5.951
 5352POPC   C1A68547  41.347  17.475   6.197
 5352POPC   D2A68548  41.078  17.334   6.556
 5352POPC   C3A68549  41.307  17.330   6.923
 5352POPC   C4A68550  41.463  17.353   7.314
 5352POPC   C1B68551  41.855  17.685   6.258
 5352POPC   C2B68552  41.719  17.490   6.633
 5352POPC   C3B68553  41.877  17.575   7.031
 5352POPC   C4B68554  41.988  18.005   7.157
 5353POPC   NC368555  31.270  36.306   5.539
 5353POPC   PO468556  31.690  35.798   5.342
 5353POPC   GL168557  31.657  36.064   5.734
 5353POPC   GL268558  31.948  35.940   5.774
 5353POPC   C1A68559  31.483  36.227   6.150
 5353POPC   D2A68560  31.203  36.127   6.513
 5353POPC   C3A68561  31.392  36.203   6.903
 5353POPC   C4A68562  31.356  36.418   7.277
 5353POPC   C1B68563  31.839  35.808   6.168
 5353POPC   C2B68564  31.713  35.939   6.554
 5353POPC   C3B68565  31.740  35.843   6.976
 5353POPC   C4B68566  31.600  35.942   7.388
 5354POPC   NC368567  36.910  11.117   5.602
 5354POPC   PO468568  37.118  10.540   5.310
 5354POPC   GL168569  37.061  10.411   5.777
 5354POPC   GL268570  36.869  10.688   5.888
 5354POPC   C1A68571  37.099  10.461   6.271
 5354POPC   D2A68572  36.917  10.228   6.611
 5354POPC   C3A68573  36.880  10.356   6.999
 5354POPC   C4A68574  36.995  10.224   7.376
 5354POPC   C1B68575  36.689  10.896   6.236
 5354POPC   C2B68576  36.825  10.770   6.634
 5354POPC   C3B68577  37.241  10.661   6.766
 5354POPC   C4B68578  37.272  10.682   7.215
 5355POPC   NC368579  23.066  18.687   5.398
 5355POPC   PO468580  22.887  19.306   5.569
 5355POPC   GL168581  23.017  18.964   5.833
 5355POPC   GL268582  22.718  18.730   5.779
 5355POPC   C1A68583  23.153  19.018   6.265
 5355POPC   D2A68584  22.888  19.033   6.649
 5355POPC   C3A68585  23.163  19.048   6.996
 5355POPC   C4A68586  23.185  19.268   7.406
 5355POPC   C1B68587  22.644  18.778   6.221
 5355POPC   C2B68588  22.541  18.593   6.621
 5355POPC   C3B68589  22.461  18.823   7.002
 5355POPC   C4B68590  22.720  19.074   7.244
 5356POPC   NC368591  28.875  25.996   5.287
 5356POPC   PO468592  29.507  25.979   5.317
 5356POPC   GL168593  29.194  26.117   5.671
 5356POPC   GL268594  29.032  25.807   5.784
 5356POPC   C1A68595  29.108  26.164   6.160
 5356POPC   D2A68596  29.103  25.993   6.617
 5356POPC   C3A68597  29.072  26.207   7.026
 5356POPC   C4A68598  28.880  26.101   7.420
 5356POPC   C1B68599  29.017  25.643   6.232
 5356POPC   C2B68600  28.836  25.575   6.676
 5356POPC   C3B68601  28.980  25.668   7.129
 5356POPC   C4B68602  29.221  25.390   7.407
 5357POPC   NC368603  38.343  14.048   5.323
 5357POPC   PO468604  38.459  13.354   5.410
 5357POPC   GL168605  38.391  13.689   5.709
 5357POPC   GL268606  38.697  13.891   5.776
 5357POPC   C1A68607  38.424  13.645   6.157
 5357POPC   D2A68608  38.363  13.403   6.519
 5357POPC   C3A68609  38.632  13.494   6.855
 5357POPC   C4A68610  38.559  13.452   7.275
 5357POPC   C1B68611  38.881  13.863   6.224
 5357POPC   C2B68612  38.746  13.991   6.666
 5357POPC   C3B68613  38.758  13.952   7.158
 5357POPC   C4B68614  38.518  13.924   7.580
 5358POPC   NC368615  25.228  44.650   5.229
 5358POPC   PO468616  25.317  44.016   5.127
 5358POPC   GL168617  25.185  44.291   5.581
 5358POPC   GL268618  25.201  44.688   5.729
 5358POPC   C1A68619  25.261  44.336   6.073
 5358POPC   D2A68620  25.454  44.613   6.422
 5358POPC   C3A68621  25.275  44.592   6.846
 5358POPC   C4A68622  25.365  44.814   7.226
 5358POPC   C1B68623  24.987  44.784   6.164
 5358POPC   C2B68624  24.902  44.871   6.614
 5358POPC   C3B68625  24.974   0.062   7.018
 5358POPC   C4B68626  24.852  44.950   7.448
 5359POPC   NC368627  37.440  35.891   5.438
 5359POPC   PO468628  37.904  36.374   5.376
 5359POPC   GL168629  37.830  36.229   5.762
 5359POPC   GL268630  37.489  36.317   5.794
 5359POPC   C1A68631  37.860  35.895   6.072
 5359POPC   D2A68632  38.003  35.883   6.507
 5359POPC   C3A68633  37.767  35.863   6.896
 5359POPC   C4A68634  37.918  35.825   7.313
 5359POPC   C1B68635  37.611  36.309   6.271
 5359POPC   C2B68636  37.554  36.322   6.745
 5359POPC   C3B68637  37.470  36.430   7.188
 5359POPC   C4B68638  37.382  36.411   7.666
 5360POPC   NC368639  33.147   4.583   5.470
 5360POPC   PO468640  32.566   4.302   5.316
 5360POPC   GL168641  32.753   4.269   5.740
 5360POPC   GL268642  33.078   4.110   5.788
 5360POPC   C1A68643  32.910   4.475   6.129
 5360POPC   D2A68644  32.798   4.540   6.563
 5360POPC   C3A68645  33.018   4.471   6.968
 5360POPC   C4A68646  32.941   4.231   7.393
 5360POPC   C1B68647  33.354   4.196   6.149
 5360POPC   C2B68648  33.310   4.510   6.486
 5360POPC   C3B68649  33.521   4.552   6.888
 5360POPC   C4B68650  33.436   4.311   7.248
 5361POPC   NC368651  25.072   2.647   5.303
 5361POPC   PO468652  25.427   3.206   5.410
 5361POPC   GL168653  25.194   2.927   5.726
 5361POPC   GL268654  25.410   2.651   5.734
 5361POPC   C1A68655  25.187   2.743   6.183
 5361POPC   D2A68656  24.971   2.464   6.508
 5361POPC   C3A68657  25.064   2.526   6.947
 5361POPC   C4A68658  24.902   2.529   7.355
 5361POPC   C1B68659  25.641   2.973   5.997
 5361POPC   C2B68660  25.601   3.005   6.438
 5361POPC   C3B68661  25.411   3.202   6.797
 5361POPC   C4B68662  25.380   3.079   7.241
 5362POPC   NC368663  23.251  38.197   5.084
 5362POPC   PO468664  23.257  37.549   5.369
 5362POPC   GL168665  23.210  37.523   5.812
 5362POPC   GL268666  22.926  37.758   5.908
 5362POPC   C1A68667  23.285  37.638   6.241
 5362POPC   D2A68668  23.437  37.953   6.501
 5362POPC   C3A68669  23.233  37.897   6.898
 5362POPC   C4A68670  22.988  37.609   7.146
 5362POPC   C1B68671  22.939  37.964   6.384
 5362POPC   C2B68672  22.725  37.810   6.761
 5362POPC   C3B68673  22.556  37.864   7.202
 5362POPC   C4B68674  22.657  38.068   7.645
 5363POPC   NC368675   3.427   3.964   5.423
 5363POPC   PO468676   3.377   4.534   5.081
 5363POPC   GL168677   3.414   4.451   5.616
 5363POPC   GL268678   3.323   4.157   5.874
 5363POPC   C1A68679   3.539   4.568   6.088
 5363POPC   D2A68680   3.548   4.548   6.552
 5363POPC   C3A68681   3.163   4.539   6.796
 5363POPC   C4A68682   3.250   4.351   7.180
 5363POPC   C1B68683   3.195   4.195   6.325
 5363POPC   C2B68684   3.336   4.042   6.721
 5363POPC   C3B68685   3.267   3.866   7.123
 5363POPC   C4B68686   3.278   3.965   7.578
 5364POPC   NC368687  38.433  30.261   5.429
 5364POPC   PO468688  38.584  29.704   5.116
 5364POPC   GL168689  38.534  29.809   5.632
 5364POPC   GL268690  38.326  29.597   5.855
 5364POPC   C1A68691  38.584  29.968   6.076
 5364POPC   D2A68692  38.443  29.743   6.459
 5364POPC   C3A68693  38.568  29.893   6.878
 5364POPC   C4A68694  38.695  29.970   7.304
 5364POPC   C1B68695  37.985  29.764   6.108
 5364POPC   C2B68696  37.776  29.843   6.512
 5364POPC   C3B68697  37.928  30.008   6.917
 5364POPC   C4B68698  38.271  30.214   7.152
 5365POPC   NC368699  22.421  21.774   5.616
 5365POPC   PO468700  22.387  22.315   5.156
 5365POPC   GL168701  22.164  22.243   5.656
 5365POPC   GL268702  22.332  22.376   5.994
 5365POPC   C1A68703  21.969  22.064   6.086
 5365POPC   D2A68704  22.078  22.308   6.487
 5365POPC   C3A68705  21.975  22.207   6.923
 5365POPC   C4A68706  21.816  22.054   7.364
 5365POPC   C1B68707  22.479  22.028   6.306
 5365POPC   C2B68708  22.421  21.971   6.761
 5365POPC   C3B68709  22.347  22.034   7.205
 5365POPC   C4B68710  22.176  21.723   7.458
 5366POPC   NC368711  37.678  23.677   5.030
 5366POPC   PO468712  37.902  23.940   5.694
 5366POPC   GL168713  37.669  23.784   5.990
 5366POPC   GL268714  37.361  23.934   5.962
 5366POPC   C1A68715  37.820  23.617   6.348
 5366POPC   D2A68716  37.683  23.329   6.634
 5366POPC   C3A68717  37.622  23.611   6.920
 5366POPC   C4A68718  37.793  23.702   7.280
 5366POPC   C1B68719  37.137  24.190   6.181
 5366POPC   C2B68720  37.382  23.996   6.495
 5366POPC   C3B68721  37.322  24.016   6.889
 5366POPC   C4B68722  37.319  23.875   7.275
 5367POPC   NC368723  30.637  37.094   5.088
 5367POPC   PO468724  30.932  36.528   5.329
 5367POPC   GL168725  30.693  36.912   5.569
 5367POPC   GL268726  30.579  36.667   5.731
 5367POPC   C1A68727  30.539  37.076   6.027
 5367POPC   D2A68728  30.696  37.001   6.477
 5367POPC   C3A68729  30.552  37.026   6.935
 5367POPC   C4A68730  30.687  37.144   7.378
 5367POPC   C1B68731  30.829  36.614   6.104
 5367POPC   C2B68732  30.833  36.496   6.524
 5367POPC   C3B68733  31.018  36.541   6.893
 5367POPC   C4B68734  30.894  36.680   7.286
 5368POPC   NC368735  41.742  29.557   5.435
 5368POPC   PO468736  41.792  30.223   5.383
 5368POPC   GL168737  41.689  29.986   5.778
 5368POPC   GL268738  41.420  29.718   5.824
 5368POPC   C1A68739  41.706  29.910   6.233
 5368POPC   D2A68740  41.525  29.846   6.635
 5368POPC   C3A68741  41.388  30.158   6.936
 5368POPC   C4A68742  41.504  30.113   7.357
 5368POPC   C1B68743  41.310  29.418   6.176
 5368POPC   C2B68744  41.301  29.383   6.637
 5368POPC   C3B68745  41.475  29.547   7.045
 5368POPC   C4B68746  41.442  29.628   7.486
 5369POPC   NC368747  17.756  34.770   5.451
 5369POPC   PO468748  17.201  34.555   5.185
 5369POPC   GL168749  17.415  34.504   5.701
 5369POPC   GL268750  17.577  34.776   5.920
 5369POPC   C1A68751  17.569  34.347   6.148
 5369POPC   D2A68752  17.448  34.620   6.515
 5369POPC   C3A68753  17.332  34.545   6.952
 5369POPC   C4A68754  17.141  34.826   7.241
 5369POPC   C1B68755  17.881  34.748   6.239
 5369POPC   C2B68756  17.925  34.474   6.603
 5369POPC   C3B68757  17.874  34.659   7.002
 5369POPC   C4B68758  17.623  34.695   7.379
 5370POPC   NC368759  20.481  22.524   5.526
 5370POPC   PO468760  20.701  21.843   5.348
 5370POPC   GL168761  20.628  22.042   5.731
 5370POPC   GL268762  20.932  21.888   5.816
 5370POPC   C1A68763  20.648  22.127   6.194
 5370POPC   D2A68764  20.679  21.964   6.638
 5370POPC   C3A68765  20.652  22.223   7.040
 5370POPC   C4A68766  20.346  22.566   7.140
 5370POPC   C1B68767  21.085  21.803   6.194
 5370POPC   C2B68768  21.174  21.990   6.565
 5370POPC   C3B68769  21.063  21.744   6.926
 5370POPC   C4B68770  20.939  21.872   7.316
 5371POPC   NC368771  37.572  24.639   5.281
 5371POPC   PO468772  37.797  24.083   5.183
 5371POPC   GL168773  37.583  24.325   5.674
 5371POPC   GL268774  37.569  24.687   5.801
 5371POPC   C1A68775  37.647  24.320   6.170
 5371POPC   D2A68776  37.966  24.170   6.501
 5371POPC   C3A68777  37.830  24.136   6.936
 5371POPC   C4A68778  37.544  24.433   7.082
 5371POPC   C1B68779  37.774  24.821   6.197
 5371POPC   C2B68780  37.671  24.730   6.621
 5371POPC   C3B68781  37.698  24.918   7.009
 5371POPC   C4B68782  37.292  24.879   7.161
 5372POPC   NC368783  34.456  17.865   5.245
 5372POPC   PO468784  35.092  17.602   5.429
 5372POPC   GL168785  34.814  17.646   5.750
 5372POPC   GL268786  34.494  17.549   5.673
 5372POPC   C1A68787  34.847  17.526   6.159
 5372POPC   D2A68788  34.722  17.708   6.526
 5372POPC   C3A68789  34.844  17.532   6.914
 5372POPC   C4A68790  34.716  17.693   7.323
 5372POPC   C1B68791  34.339  17.426   6.103
 5372POPC   C2B68792  34.409  17.294   6.565
 5372POPC   C3B68793  34.354  17.398   7.015
 5372POPC   C4B68794  34.335  17.270   7.452
 5373POPC   NC368795  44.210  38.817   5.067
 5373POPC   PO468796  44.188  38.210   5.385
 5373POPC   GL168797  43.811  38.344   5.660
 5373POPC   GL268798  44.044  38.476   5.866
 5373POPC   C1A68799  43.619  38.583   6.059
 5373POPC   D2A68800  43.818  38.457   6.444
 5373POPC   C3A68801  43.724  38.353   6.879
 5373POPC   C4A68802  43.924  38.504   7.238
 5373POPC   C1B68803  44.009  38.099   6.132
 5373POPC   C2B68804  44.010  38.004   6.588
 5373POPC   C3B68805  44.164  38.122   7.014
 5373POPC   C4B68806  44.300  38.189   7.466
 5374POPC   NC368807  16.907  35.223   5.617
 5374POPC   PO468808  16.385  35.132   5.209
 5374POPC   GL168809  16.387  35.470   5.666
 5374POPC   GL268810  16.580  35.762   5.704
 5374POPC   C1A68811  16.632  35.456   6.146
 5374POPC   D2A68812  17.031  35.364   6.432
 5374POPC   C3A68813  17.047  35.272   6.915
 5374POPC   C4A68814  16.970  35.313   7.383
 5374POPC   C1B68815  16.317  35.843   6.101
 5374POPC   C2B68816  16.275  35.621   6.491
 5374POPC   C3B68817  16.577  35.516   6.819
 5374POPC   C4B68818  16.540  35.633   7.244
 5375POPC   NC368819  35.307  44.412   5.562
 5375POPC   PO468820  35.266   0.021   5.265
 5375POPC   GL168821  35.334  44.906   5.725
 5375POPC   GL268822  35.048  44.695   5.898
 5375POPC   C1A68823  35.574  44.738   6.107
 5375POPC   D2A68824  35.681  44.664   6.554
 5375POPC   C3A68825  35.418  44.936   6.822
 5375POPC   C4A68826  35.431   0.063   7.239
 5375POPC   C1B68827  35.098  44.313   6.180
 5375POPC   C2B68828  35.286  44.208   6.585
 5375POPC   C3B68829  35.298  44.448   6.941
 5375POPC   C4B68830  35.223  44.393   7.359
 5376POPC   NC368831  20.497  11.469   5.547
 5376POPC   PO468832  20.803  11.995   5.169
 5376POPC   GL168833  20.904  11.913   5.640
 5376POPC   GL268834  20.577  11.895   5.882
 5376POPC   C1A68835  21.012  12.053   6.083
 5376POPC   D2A68836  20.726  11.938   6.419
 5376POPC   C3A68837  20.736  12.089   6.839
 5376POPC   C4A68838  20.893  12.055   7.250
 5376POPC   C1B68839  20.248  11.913   6.248
 5376POPC   C2B68840  20.251  11.881   6.719
 5376POPC   C3B68841  20.313  12.084   7.141
 5376POPC   C4B68842  20.469  12.016   7.573
 5377POPC   NC368843  41.305  16.527   5.426
 5377POPC   PO468844  41.980  16.761   5.301
 5377POPC   GL168845  41.931  16.711   5.739
 5377POPC   GL268846  41.683  16.511   5.752
 5377POPC   C1A68847  41.662  16.907   6.098
 5377POPC   D2A68848  41.496  17.029   6.534
 5377POPC   C3A68849  41.751  17.065   6.931
 5377POPC   C4A68850  41.579  16.864   7.306
 5377POPC   C1B68851  41.751  16.393   6.142
 5377POPC   C2B68852  41.799  16.599   6.504
 5377POPC   C3B68853  41.566  16.599   6.872
 5377POPC   C4B68854  41.649  16.366   7.227
 5378POPC   NC368855  15.788  40.949   5.398
 5378POPC   PO468856  16.378  40.500   5.437
 5378POPC   GL168857  16.127  40.722   5.778
 5378POPC   GL268858  15.840  40.934   5.906
 5378POPC   C1A68859  16.177  40.700   6.213
 5378POPC   D2A68860  16.147  41.057   6.460
 5378POPC   C3A68861  16.170  40.991   6.900
 5378POPC   C4A68862  15.931  41.000   7.267
 5378POPC   C1B68863  15.671  40.678   6.277
 5378POPC   C2B68864  15.597  40.477   6.684
 5378POPC   C3B68865  15.563  40.751   7.043
 5378POPC   C4B68866  15.505  40.830   7.511
 5379POPC   NC368867  42.350  10.746   5.378
 5379POPC   PO468868  41.966  10.171   5.266
 5379POPC   GL168869  42.171  10.345   5.704
 5379POPC   GL268870  42.551  10.467   5.765
 5379POPC   C1A68871  42.303  10.298   6.176
 5379POPC   D2A68872  42.594  10.433   6.520
 5379POPC   C3A68873  42.395  10.508   6.918
 5379POPC   C4A68874  42.242  10.310   7.289
 5379POPC   C1B68875  42.758  10.801   6.044
 5379POPC   C2B68876  42.811  10.944   6.459
 5379POPC   C3B68877  42.812  10.807   6.851
 5379POPC   C4B68878  42.589  10.868   7.227
 5380POPC   NC368879  27.903  21.438   5.120
 5380POPC   PO468880  27.344  21.218   5.425
 5380POPC   GL168881  27.563  21.437   5.772
 5380POPC   GL268882  27.900  21.566   5.712
 5380POPC   C1A68883  27.456  21.370   6.220
 5380POPC   D2A68884  27.723  21.126   6.538
 5380POPC   C3A68885  27.695  21.205   6.999
 5380POPC   C4A68886  27.753  21.395   7.414
 5380POPC   C1B68887  27.900  21.606   6.202
 5380POPC   C2B68888  27.798  21.618   6.671
 5380POPC   C3B68889  27.980  21.682   7.080
 5380POPC   C4B68890  28.030  21.829   7.526
 5381POPC   NC368891  11.292  41.796   5.283
 5381POPC   PO468892  11.125  42.425   5.268
 5381POPC   GL168893  11.140  42.353   5.724
 5381POPC   GL268894  11.202  42.034   5.819
 5381POPC   C1A68895  11.328  42.365   6.173
 5381POPC   D2A68896  11.555  42.568   6.566
 5381POPC   C3A68897  11.416  42.437   6.999
 5381POPC   C4A68898  11.092  42.612   7.263
 5381POPC   C1B68899  11.118  41.897   6.286
 5381POPC   C2B68900  11.180  41.893   6.773
 5381POPC   C3B68901  10.952  42.136   7.078
 5381POPC   C4B68902  10.999  42.154   7.511
 5382POPC   NC368903  27.387  27.078   5.652
 5382POPC   PO468904  27.760  26.585   5.307
 5382POPC   GL168905  27.667  26.616   5.776
 5382POPC   GL268906  27.330  26.633   5.944
 5382POPC   C1A68907  27.680  26.445   6.218
 5382POPC   D2A68908  27.506  26.416   6.632
 5382POPC   C3A68909  27.590  26.695   6.969
 5382POPC   C4A68910  27.711  26.523   7.361
 5382POPC   C1B68911  27.220  26.759   6.349
 5382POPC   C2B68912  27.414  27.046   6.623
 5382POPC   C3B68913  27.419  27.193   7.021
 5382POPC   C4B68914  27.438  27.131   7.457
 5383POPC   NC368915   0.720  17.759   5.237
 5383POPC   PO468916   0.226  17.187   5.326
 5383POPC   GL168917   0.379  17.118   5.759
 5383POPC   GL268918   0.776  17.117   5.746
 5383POPC   C1A68919   0.230  17.325   6.188
 5383POPC   D2A68920   0.187  17.562   6.634
 5383POPC   C3A68921   0.534  17.554   6.980
 5383POPC   C4A68922   0.647  17.704   7.393
 5383POPC   C1B68923   0.673  17.040   6.169
 5383POPC   C2B68924   0.575  17.227   6.585
 5383POPC   C3B68925   0.687  17.050   6.999
 5383POPC   C4B68926   0.821  17.146   7.416
 5384POPC   NC368927  44.160  16.641   5.493
 5384POPC   PO468928  43.594  16.464   5.458
 5384POPC   GL168929  43.788  16.728   5.817
 5384POPC   GL268930  44.009  17.059   5.769
 5384POPC   C1A68931  43.712  16.873   6.233
 5384POPC   D2A68932  43.825  16.747   6.645
 5384POPC   C3A68933  43.768  17.048   6.984
 5384POPC   C4A68934  43.935  16.904   7.379
 5384POPC   C1B68935  44.264  16.927   6.116
 5384POPC   C2B68936  44.319  16.734   6.511
 5384POPC   C3B68937  44.252  16.854   6.942
 5384POPC   C4B68938  44.386  16.556   7.250
 5385POPC   NC368939  13.102  30.383   5.499
 5385POPC   PO468940  12.724  30.906   5.233
 5385POPC   GL168941  12.754  30.794   5.704
 5385POPC   GL268942  13.089  30.876   5.701
 5385POPC   C1A68943  12.810  30.595   6.173
 5385POPC   D2A68944  12.624  30.432   6.573
 5385POPC   C3A68945  12.769  30.444   6.982
 5385POPC   C4A68946  12.810  30.790   7.191
 5385POPC   C1B68947  13.116  31.000   6.157
 5385POPC   C2B68948  12.936  30.904   6.587
 5385POPC   C3B68949  13.075  31.136   6.943
 5385POPC   C4B68950  13.304  30.933   7.269
 5386POPC   NC368951  13.800  24.170   5.459
 5386POPC   PO468952  13.487  24.754   5.235
 5386POPC   GL168953  13.560  24.831   5.703
 5386POPC   GL268954  13.798  24.572   5.839
 5386POPC   C1A68955  13.512  24.981   6.159
 5386POPC   D2A68956  13.644  24.733   6.503
 5386POPC   C3A68957  13.637  24.686   6.965
 5386POPC   C4A68958  13.783  24.524   7.440
 5386POPC   C1B68959  13.724  24.286   6.218
 5386POPC   C2B68960  13.728  24.267   6.676
 5386POPC   C3B68961  13.652  24.171   7.088
 5386POPC   C4B68962  13.986  24.044   7.365
 5387POPC   NC368963  30.768  42.794   5.682
 5387POPC   PO468964  30.610  43.400   5.327
 5387POPC   GL168965  30.692  43.282   5.773
 5387POPC   GL268966  31.051  43.216   5.825
 5387POPC   C1A68967  30.571  43.205   6.222
 5387POPC   D2A68968  30.465  43.208   6.669
 5387POPC   C3A68969  30.457  42.874   6.980
 5387POPC   C4A68970  30.531  43.154   7.310
 5387POPC   C1B68971  31.083  43.144   6.240
 5387POPC   C2B68972  31.084  43.287   6.646
 5387POPC   C3B68973  30.902  43.134   6.969
 5387POPC   C4B68974  31.068  43.033   7.337
 5388POPC   NC368975  25.073  39.966   5.371
 5388POPC   PO468976  25.785  40.092   5.406
 5388POPC   GL168977  25.502  40.152   5.790
 5388POPC   GL268978  25.112  40.202   5.825
 5388POPC   C1A68979  25.403  39.985   6.214
 5388POPC   D2A68980  25.314  40.199   6.639
 5388POPC   C3A68981  25.365  40.096   7.082
 5388POPC   C4A68982  25.364  39.743   7.332
 5388POPC   C1B68983  24.983  40.276   6.256
 5388POPC   C2B68984  24.834  40.453   6.677
 5388POPC   C3B68985  24.880  40.259   7.113
 5388POPC   C4B68986  25.013  40.059   7.512
 5389POPC   NC368987  36.633  36.709   5.447
 5389POPC   PO468988  37.238  37.119   5.378
 5389POPC   GL168989  37.015  37.120   5.826
 5389POPC   GL268990  36.774  36.846   5.906
 5389POPC   C1A68991  36.942  37.028   6.334
 5389POPC   D2A68992  36.701  36.971   6.728
 5389POPC   C3A68993  36.845  37.135   7.151
 5389POPC   C4A68994  36.761  36.963   7.582
 5389POPC   C1B68995  36.581  36.583   6.254
 5389POPC   C2B68996  36.566  36.468   6.721
 5389POPC   C3B68997  36.587  36.588   7.191
 5389POPC   C4B68998  36.405  36.600   7.658
 5390POPC   NC368999  30.195  20.996   5.213
 5390POPC   PO469000  29.770  21.500   5.188
 5390POPC   GL169001  29.845  21.297   5.609
 5390POPC   GL269002  30.086  21.032   5.704
 5390POPC   C1A69003  29.761  21.323   6.083
 5390POPC   D2A69004  29.603  21.533   6.490
 5390POPC   C3A69005  29.682  21.344   6.910
 5390POPC   C4A69006  29.490  21.475   7.276
 5390POPC   C1B69007  30.274  21.227   6.083
 5390POPC   C2B69008  30.117  21.162   6.522
 5390POPC   C3B69009  30.200  21.299   6.940
 5390POPC   C4B69010  30.025  21.383   7.332
 5391POPC   NC369011  24.583  16.281   5.142
 5391POPC   PO469012  24.463  15.717   5.473
 5391POPC   GL169013  24.306  15.731   5.869
 5391POPC   GL269014  24.639  15.648   5.962
 5391POPC   C1A69015  24.364  15.964   6.252
 5391POPC   D2A69016  24.280  15.710   6.570
 5391POPC   C3A69017  24.332  15.952   6.896
 5391POPC   C4A69018  24.340  15.920   7.290
 5391POPC   C1B69019  24.761  15.608   6.389
 5391POPC   C2B69020  24.737  15.626   6.839
 5391POPC   C3B69021  24.741  15.610   7.297
 5391POPC   C4B69022  24.903  15.787   7.709
 5392POPC   NC369023  42.703  41.053   5.005
 5392POPC   PO469024  42.252  40.601   5.220
 5392POPC   GL169025  42.287  40.764   5.701
 5392POPC   GL269026  42.231  41.152   5.724
 5392POPC   C1A69027  42.455  40.903   6.174
 5392POPC   D2A69028  42.555  41.083   6.603
 5392POPC   C3A69029  42.539  40.824   6.939
 5392POPC   C4A69030  42.187  40.632   7.063
 5392POPC   C1B69031  42.093  41.300   6.139
 5392POPC   C2B69032  42.131  41.385   6.612
 5392POPC   C3B69033  42.083  41.137   6.998
 5392POPC   C4B69034  42.118  41.013   7.448
 5393POPC   NC369035  30.471  29.374   5.383
 5393POPC   PO469036  30.648  28.710   5.350
 5393POPC   GL169037  30.517  28.980   5.691
 5393POPC   GL269038  30.840  29.145   5.689
 5393POPC   C1A69039  30.505  29.321   6.031
 5393POPC   D2A69040  30.479  29.424   6.482
 5393POPC   C3A69041  30.488  29.237   6.879
 5393POPC   C4A69042  30.545  29.397   7.274
 5393POPC   C1B69043  30.943  29.079   6.134
 5393POPC   C2B69044  30.945  29.183   6.570
 5393POPC   C3B69045  30.952  29.044   6.991
 5393POPC   C4B69046  31.024  29.278   7.346
 5394POPC   NC369047   3.161  13.408   5.191
 5394POPC   PO469048   3.720  13.593   5.570
 5394POPC   GL169049   3.669  13.937   5.803
 5394POPC   GL269050   3.317  13.851   5.836
 5394POPC   C1A69051   3.720  13.791   6.220
 5394POPC   D2A69052   3.586  13.426   6.468
 5394POPC   C3A69053   3.662  13.468   6.919
 5394POPC   C4A69054   3.806  13.853   7.151
 5394POPC   C1B69055   3.203  13.855   6.250
 5394POPC   C2B69056   3.434  13.960   6.606
 5394POPC   C3B69057   3.306  13.947   6.985
 5394POPC   C4B69058   3.339  13.868   7.368
 5395POPC   NC369059  16.404   3.025   5.319
 5395POPC   PO469060  15.803   2.926   5.303
 5395POPC   GL169061  15.808   2.937   5.767
 5395POPC   GL269062  16.165   2.866   5.771
 5395POPC   C1A69063  15.866   2.816   6.237
 5395POPC   D2A69064  15.998   2.634   6.653
 5395POPC   C3A69065  15.833   2.831   7.036
 5395POPC   C4A69066  15.552   2.657   7.359
 5395POPC   C1B69067  16.362   2.742   6.148
 5395POPC   C2B69068  16.445   2.883   6.546
 5395POPC   C3B69069  16.361   2.863   6.983
 5395POPC   C4B69070  16.403   2.943   7.421
 5396POPC   NC369071  23.254   0.768   5.290
 5396POPC   PO469072  22.642   0.601   5.508
 5396POPC   GL169073  22.998   0.470   5.748
 5396POPC   GL269074  22.792   0.229   5.878
 5396POPC   C1A69075  23.177   0.348   6.175
 5396POPC   D2A69076  23.018   0.364   6.595
 5396POPC   C3A69077  23.100   0.665   6.923
 5396POPC   C4A69078  23.118   0.535   7.347
 5396POPC   C1B69079  22.617   0.280   6.237
 5396POPC   C2B69080  22.506   0.452   6.588
 5396POPC   C3B69081  22.601   0.222   6.919
 5396POPC   C4B69082  22.632   0.354   7.317
 5397POPC   NC369083  10.781  37.702   5.457
 5397POPC   PO469084  10.317  38.172   5.563
 5397POPC   GL169085  10.614  37.955   5.879
 5397POPC   GL269086  10.584  37.558   5.932
 5397POPC   C1A69087  10.936  37.791   6.186
 5397POPC   D2A69088  10.848  37.465   6.504
 5397POPC   C3A69089  10.795  37.697   6.881
 5397POPC   C4A69090  10.564  37.737   7.283
 5397POPC   C1B69091  10.403  37.682   6.340
 5397POPC   C2B69092  10.268  37.704   6.797
 5397POPC   C3B69093  10.225  37.382   7.128
 5397POPC   C4B69094  10.267  37.389   7.590
 5398POPC   NC369095  25.959  33.283   5.388
 5398POPC   PO469096  26.208  32.606   5.421
 5398POPC   GL169097  26.058  32.936   5.747
 5398POPC   GL269098  25.884  33.248   5.876
 5398POPC   C1A69099  26.010  32.916   6.219
 5398POPC   D2A69100  25.969  33.063   6.619
 5398POPC   C3A69101  26.355  32.934   6.813
 5398POPC   C4A69102  26.427  32.555   7.090
 5398POPC   C1B69103  26.244  33.353   6.177
 5398POPC   C2B69104  26.262  33.469   6.627
 5398POPC   C3B69105  26.071  33.362   7.052
 5398POPC   C4B69106  26.029  33.281   7.512
 5399POPC   NC369107  37.332  25.995   5.518
 5399POPC   PO469108  37.971  25.844   5.340
 5399POPC   GL169109  37.941  26.003   5.759
 5399POPC   GL269110  37.701  26.275   5.797
 5399POPC   C1A69111  38.051  25.882   6.178
 5399POPC   D2A69112  37.838  25.685   6.521
 5399POPC   C3A69113  37.916  25.891   6.902
 5399POPC   C4A69114  37.802  26.118   7.293
 5399POPC   C1B69115  37.559  26.030   6.172
 5399POPC   C2B69116  37.507  26.080   6.625
 5399POPC   C3B69117  37.405  25.900   7.040
 5399POPC   C4B69118  37.272  26.146   7.389
 5400POPC   NC369119  29.731  10.600   5.400
 5400POPC   PO469120  29.966   9.981   5.182
 5400POPC   GL169121  29.782  10.105   5.667
 5400POPC   GL269122  29.579  10.399   5.871
 5400POPC   C1A69123  29.818  10.090   6.178
 5400POPC   D2A69124  29.738  10.364   6.572
 5400POPC   C3A69125  30.041  10.300   6.903
 5400POPC   C4A69126  30.106  10.204   7.315
 5400POPC   C1B69127  29.923  10.597   6.150
 5400POPC   C2B69128  30.177  10.657   6.538
 5400POPC   C3B69129  29.999  10.822   6.931
 5400POPC   C4B69130  30.112  11.048   7.329
 5401POPC   NC369131   1.409  11.966   5.526
 5401POPC   PO469132   1.077  12.537   5.254
 5401POPC   GL169133   0.992  12.267   5.717
 5401POPC   GL269134   1.271  12.107   5.978
 5401POPC   C1A69135   0.854  12.173   6.211
 5401POPC   D2A69136   1.172  11.973   6.501
 5401POPC   C3A69137   1.287  12.117   6.911
 5401POPC   C4A69138   1.387  12.015   7.323
 5401POPC   C1B69139   1.514  12.323   6.297
 5401POPC   C2B69140   1.738  12.255   6.673
 5401POPC   C3B69141   1.763  12.279   7.116
 5401POPC   C4B69142   1.713  12.296   7.591
 5402POPC   NC369143  35.759  16.660   5.338
 5402POPC   PO469144  36.435  16.809   5.337
 5402POPC   GL169145  36.135  16.815   5.678
 5402POPC   GL269146  35.925  17.093   5.817
 5402POPC   C1A69147  36.029  16.641   6.086
 5402POPC   D2A69148  36.214  16.660   6.496
 5402POPC   C3A69149  36.120  16.449   6.868
 5402POPC   C4A69150  36.063  16.577   7.281
 5402POPC   C1B69151  35.759  17.050   6.223
 5402POPC   C2B69152  35.745  16.806   6.592
 5402POPC   C3B69153  35.833  16.942   7.016
 5402POPC   C4B69154  35.889  17.017   7.472
 5403POPC   NC369155   5.136  26.272   5.114
 5403POPC   PO469156   4.990  26.040   5.655
 5403POPC   GL169157   5.012  25.910   5.985
 5403POPC   GL269158   4.627  25.901   5.983
 5403POPC   C1A69159   5.250  25.806   6.319
 5403POPC   D2A69160   5.115  25.748   6.697
 5403POPC   C3A69161   5.249  26.052   6.958
 5403POPC   C4A69162   5.351  25.996   7.353
 5403POPC   C1B69163   4.779  26.158   6.332
 5403POPC   C2B69164   4.990  26.381   6.620
 5403POPC   C3B69165   4.753  26.168   6.910
 5403POPC   C4B69166   4.863  26.140   7.303
 5404POPC   NC369167   7.776   7.722   5.449
 5404POPC   PO469168   8.327   7.399   5.245
 5404POPC   GL169169   8.439   7.352   5.729
 5404POPC   GL269170   8.104   7.344   5.804
 5404POPC   C1A69171   8.363   7.524   6.202
 5404POPC   D2A69172   8.386   7.318   6.621
 5404POPC   C3A69173   8.265   7.430   7.048
 5404POPC   C4A69174   7.919   7.640   7.232
 5404POPC   C1B69175   8.005   7.156   6.193
 5404POPC   C2B69176   8.138   6.881   6.502
 5404POPC   C3B69177   8.044   6.927   6.939
 5404POPC   C4B69178   7.872   7.138   7.342
 5405POPC   NC369179  38.347  19.899   5.404
 5405POPC   PO469180  38.474  19.320   5.456
 5405POPC   GL169181  38.536  19.613   5.817
 5405POPC   GL269182  38.681  19.967   5.802
 5405POPC   C1A69183  38.282  19.859   6.126
 5405POPC   D2A69184  38.132  19.944   6.538
 5405POPC   C3A69185  38.330  19.796   6.918
 5405POPC   C4A69186  38.409  19.755   7.369
 5405POPC   C1B69187  38.816  19.829   6.230
 5405POPC   C2B69188  38.782  19.942   6.683
 5405POPC   C3B69189  38.718  20.092   7.144
 5405POPC   C4B69190  38.792  19.971   7.617
 5406POPC   NC369191   8.349   4.293   5.062
 5406POPC   PO469192   8.096   4.059   5.630
 5406POPC   GL169193   8.188   4.094   6.035
 5406POPC   GL269194   8.528   4.035   6.095
 5406POPC   C1A69195   8.097   4.401   6.326
 5406POPC   D2A69196   7.885   4.551   6.660
 5406POPC   C3A69197   7.939   4.283   7.000
 5406POPC   C4A69198   8.117   4.375   7.388
 5406POPC   C1B69199   8.600   3.803   6.470
 5406POPC   C2B69200   8.367   4.100   6.719
 5406POPC   C3B69201   8.523   4.294   7.075
 5406POPC   C4B69202   8.463   3.994   7.392
 5407POPC   NC369203  14.325  39.286   5.477
 5407POPC   PO469204  14.888  39.634   5.382
 5407POPC   GL169205  14.765  39.309   5.734
 5407POPC   GL269206  14.601  38.942   5.773
 5407POPC   C1A69207  14.544  39.303   6.164
 5407POPC   D2A69208  14.233  39.233   6.522
 5407POPC   C3A69209  14.412  39.345   6.942
 5407POPC   C4A69210  14.739  39.174   7.215
 5407POPC   C1B69211  14.304  38.833   6.141
 5407POPC   C2B69212  13.988  38.749   6.495
 5407POPC   C3B69213  13.877  38.958   6.910
 5407POPC   C4B69214  14.146  39.022   7.273
 5408POPC   NC369215  28.980  19.974   5.499
 5408POPC   PO469216  28.398  19.705   5.145
 5408POPC   GL169217  28.201  19.707   5.582
 5408POPC   GL269218  28.483  19.911   5.720
 5408POPC   C1A69219  28.155  19.569   6.072
 5408POPC   D2A69220  28.110  19.764   6.512
 5408POPC   C3A69221  28.341  19.722   6.889
 5408POPC   C4A69222  28.279  19.535   7.242
 5408POPC   C1B69223  28.404  20.019   6.160
 5408POPC   C2B69224  28.585  20.041   6.584
 5408POPC   C3B69225  28.532  20.200   7.022
 5408POPC   C4B69226  28.568  20.294   7.505
 5409POPC   NC369227  31.642   4.677   5.423
 5409POPC   PO469228  31.599   4.062   5.223
 5409POPC   GL169229  31.445   4.207   5.635
 5409POPC   GL269230  31.100   4.086   5.599
 5409POPC   C1A69231  31.527   4.383   6.080
 5409POPC   D2A69232  31.713   4.170   6.464
 5409POPC   C3A69233  31.612   4.257   6.929
 5409POPC   C4A69234  31.861   4.255   7.338
 5409POPC   C1B69235  31.157   4.020   6.057
 5409POPC   C2B69236  31.189   4.235   6.464
 5409POPC   C3B69237  31.074   4.194   6.909
 5409POPC   C4B69238  31.271   4.060   7.269
 5410POPC   NC369239  31.073  31.903   5.520
 5410POPC   PO469240  30.731  31.322   5.358
 5410POPC   GL169241  30.689  31.125   5.788
 5410POPC   GL269242  31.049  31.199   5.856
 5410POPC   C1A69243  30.709  31.198   6.266
 5410POPC   D2A69244  30.958  31.423   6.577
 5410POPC   C3A69245  30.925  31.297   6.998
 5410POPC   C4A69246  30.542  31.235   7.222
 5410POPC   C1B69247  31.147  31.592   6.127
 5410POPC   C2B69248  30.945  31.911   6.436
 5410POPC   C3B69249  30.805  31.824   6.878
 5410POPC   C4B69250  30.903  31.696   7.318
 5411POPC   NC369251   2.771  15.437   5.339
 5411POPC   PO469252   2.862  16.130   5.479
 5411POPC   GL169253   2.665  15.899   5.799
 5411POPC   GL269254   2.929  15.662   5.795
 5411POPC   C1A69255   2.569  15.957   6.253
 5411POPC   D2A69256   2.664  16.178   6.660
 5411POPC   C3A69257   2.415  16.150   7.046
 5411POPC   C4A69258   2.774  15.990   7.251
 5411POPC   C1B69259   2.864  15.509   6.182
 5411POPC   C2B69260   2.769  15.417   6.606
 5411POPC   C3B69261   2.574  15.694   6.874
 5411POPC   C4B69262   2.362  15.651   7.255
 5412POPC   NC369263  37.606  18.575   5.384
 5412POPC   PO469264  37.871  17.930   5.328
 5412POPC   GL169265  37.623  18.165   5.723
 5412POPC   GL269266  37.378  18.482   5.818
 5412POPC   C1A69267  37.757  18.384   6.134
 5412POPC   D2A69268  37.583  18.382   6.563
 5412POPC   C3A69269  37.770  18.022   6.809
 5412POPC   C4A69270  37.826  17.973   7.240
 5412POPC   C1B69271  37.292  18.692   6.200
 5412POPC   C2B69272  37.222  18.878   6.598
 5412POPC   C3B69273  37.275  18.674   6.960
 5412POPC   C4B69274  37.634  18.423   7.074
 5413POPC   NC369275   3.352   6.102   5.316
 5413POPC   PO469276   3.532   5.467   5.405
 5413POPC   GL169277   3.409   5.669   5.790
 5413POPC   GL269278   3.708   5.913   5.823
 5413POPC   C1A69279   3.390   5.824   6.226
 5413POPC   D2A69280   3.578   6.104   6.511
 5413POPC   C3A69281   3.685   5.865   6.884
 5413POPC   C4A69282   3.415   5.651   7.191
 5413POPC   C1B69283   3.812   5.527   6.097
 5413POPC   C2B69284   3.772   5.446   6.565
 5413POPC   C3B69285   4.072   5.517   6.915
 5413POPC   C4B69286   3.998   5.680   7.319
 5414POPC   NC369287  26.457  42.430   5.498
 5414POPC   PO469288  27.061  42.100   5.324
 5414POPC   GL169289  26.979  42.380   5.673
 5414POPC   GL269290  26.689  42.347   5.934
 5414POPC   C1A69291  27.170  42.304   6.054
 5414POPC   D2A69292  26.949  42.111   6.388
 5414POPC   C3A69293  26.923  42.294   6.794
 5414POPC   C4A69294  26.825  42.235   7.229
 5414POPC   C1B69295  26.535  42.429   6.352
 5414POPC   C2B69296  26.590  42.675   6.680
 5414POPC   C3B69297  26.686  42.695   7.063
 5414POPC   C4B69298  26.701  42.723   7.490
 5415POPC   NC369299   8.017  21.355   5.514
 5415POPC   PO469300   8.595  21.782   5.535
 5415POPC   GL169301   8.406  21.542   5.834
 5415POPC   GL269302   8.101  21.601   5.938
 5415POPC   C1A69303   8.467  21.363   6.238
 5415POPC   D2A69304   8.618  21.183   6.619
 5415POPC   C3A69305   8.433  21.335   7.009
 5415POPC   C4A69306   8.510  21.228   7.400
 5415POPC   C1B69307   7.951  21.393   6.300
 5415POPC   C2B69308   8.069  21.231   6.661
 5415POPC   C3B69309   7.920  21.408   7.039
 5415POPC   C4B69310   8.064  21.620   7.380
 5416POPC   NC369311  32.344  23.219   5.525
 5416POPC   PO469312  32.367  23.774   5.392
 5416POPC   GL169313  32.268  23.734   5.846
 5416POPC   GL269314  32.189  23.404   5.971
 5416POPC   C1A69315  32.276  23.741   6.332
 5416POPC   D2A69316  32.034  23.597   6.708
 5416POPC   C3A69317  32.122  23.754   7.130
 5416POPC   C4A69318  32.135  24.056   7.477
 5416POPC   C1B69319  32.597  23.336   6.211
 5416POPC   C2B69320  32.724  23.196   6.658
 5416POPC   C3B69321  32.602  23.173   7.110
 5416POPC   C4B69322  32.355  23.360   7.448
 5417POPC   NC369323  19.130   7.885   5.531
 5417POPC   PO469324  18.656   8.107   5.313
 5417POPC   GL169325  18.837   8.345   5.710
 5417POPC   GL269326  19.191   8.404   5.806
 5417POPC   C1A69327  18.879   8.203   6.185
 5417POPC   D2A69328  19.030   8.030   6.616
 5417POPC   C3A69329  18.935   8.314   6.978
 5417POPC   C4A69330  18.612   8.611   7.124
 5417POPC   C1B69331  19.408   8.148   6.161
 5417POPC   C2B69332  19.495   8.266   6.603
 5417POPC   C3B69333  19.405   8.111   7.014
 5417POPC   C4B69334  19.272   7.893   7.392
 5418POPC   NC369335  34.325  25.070   5.606
 5418POPC   PO469336  34.937  25.014   5.457
 5418POPC   GL169337  34.766  25.114   5.862
 5418POPC   GL269338  34.601  25.443   5.855
 5418POPC   C1A69339  34.545  25.114   6.262
 5418POPC   D2A69340  34.394  25.198   6.682
 5418POPC   C3A69341  34.676  25.175   7.003
 5418POPC   C4A69342  34.710  25.046   7.393
 5418POPC   C1B69343  34.407  25.621   6.231
 5418POPC   C2B69344  34.232  25.677   6.637
 5418POPC   C3B69345  34.445  25.631   7.028
 5418POPC   C4B69346  34.574  25.644   7.475
 5419POPC   NC369347  44.032  15.272   5.418
 5419POPC   PO469348  43.760  14.641   5.278
 5419POPC   GL169349  43.747  14.984   5.685
 5419POPC   GL269350  44.118  15.060   5.872
 5419POPC   C1A69351  43.689  15.258   6.054
 5419POPC   D2A69352  43.677  15.182   6.498
 5419POPC   C3A69353  43.926  14.932   6.788
 5419POPC   C4A69354  43.953  15.150   7.178
 5419POPC   C1B69355  44.179  15.334   6.254
 5419POPC   C2B69356  44.128  15.400   6.709
 5419POPC   C3B69357  44.252  15.570   7.091
 5419POPC   C4B69358  44.139  15.525   7.513
 5420POPC   NC369359   1.675   3.508   5.366
 5420POPC   PO469360   1.042   3.767   5.556
 5420POPC   GL169361   1.106   3.357   5.833
 5420POPC   GL269362   1.421   3.267   5.911
 5420POPC   C1A69363   0.997   3.136   6.211
 5420POPC   D2A69364   1.011   3.453   6.524
 5420POPC   C3A69365   0.963   3.455   6.947
 5420POPC   C4A69366   1.319   3.394   7.196
 5420POPC   C1B69367   1.414   3.612   6.227
 5420POPC   C2B69368   1.385   3.842   6.632
 5420POPC   C3B69369   1.574   3.796   7.034
 5420POPC   C4B69370   1.837   3.450   7.190
 5421POPC   NC369371  22.728  16.068   5.538
 5421POPC   PO469372  23.362  15.732   5.512
 5421POPC   GL169373  23.023  15.765   5.857
 5421POPC   GL269374  22.644  15.672   5.829
 5421POPC   C1A69375  22.987  16.048   6.248
 5421POPC   D2A69376  23.237  16.082   6.643
 5421POPC   C3A69377  23.039  15.959   7.039
 5421POPC   C4A69378  22.651  15.969   7.266
 5421POPC   C1B69379  22.681  15.644   6.233
 5421POPC   C2B69380  22.637  15.826   6.647
 5421POPC   C3B69381  22.658  15.558   6.974
 5421POPC   C4B69382  22.902  15.501   7.309
 5422POPC   NC369383  20.948  15.834   5.434
 5422POPC   PO469384  21.567  16.192   5.265
 5422POPC   GL169385  21.449  16.235   5.726
 5422POPC   GL269386  21.431  15.890   5.775
 5422POPC   C1A69387  21.330  16.179   6.200
 5422POPC   D2A69388  21.061  16.128   6.586
 5422POPC   C3A69389  21.256  16.115   7.005
 5422POPC   C4A69390  21.681  16.238   7.153
 5422POPC   C1B69391  21.232  15.687   6.118
 5422POPC   C2B69392  21.242  15.635   6.529
 5422POPC   C3B69393  21.065  15.643   6.927
 5422POPC   C4B69394  21.280  15.689   7.324
 5423POPC   NC369395  26.100   1.093   5.400
 5423POPC   PO469396  26.197   1.813   5.376
 5423POPC   GL169397  26.103   1.620   5.795
 5423POPC   GL269398  25.956   1.281   5.860
 5423POPC   C1A69399  25.973   1.655   6.241
 5423POPC   D2A69400  26.064   1.305   6.510
 5423POPC   C3A69401  25.935   1.233   6.919
 5423POPC   C4A69402  26.131   1.270   7.330
 5423POPC   C1B69403  26.110   0.938   6.145
 5423POPC   C2B69404  26.111   0.787   6.578
 5423POPC   C3B69405  26.249   0.815   7.019
 5423POPC   C4B69406  26.209   0.724   7.451
 5424POPC   NC369407  38.228   0.379   5.356
 5424POPC   PO469408  37.683   0.527   5.150
 5424POPC   GL169409  37.649   0.612   5.626
 5424POPC   GL269410  37.961   0.760   5.722
 5424POPC   C1A69411  37.423   0.604   6.055
 5424POPC   D2A69412  37.524   0.679   6.509
 5424POPC   C3A69413  37.549   0.413   6.875
 5424POPC   C4A69414  37.397   0.487   7.307
 5424POPC   C1B69415  37.927   0.587   6.199
 5424POPC   C2B69416  38.046   0.460   6.661
 5424POPC   C3B69417  37.967   0.233   7.101
 5424POPC   C4B69418  37.835   0.337   7.542
 5425POPC   NC369419  15.867  13.121   5.512
 5425POPC   PO469420  15.924  13.745   5.386
 5425POPC   GL169421  16.005  13.569   5.774
 5425POPC   GL269422  16.299  13.346   5.718
 5425POPC   C1A69423  15.731  13.563   6.156
 5425POPC   D2A69424  15.837  13.563   6.601
 5425POPC   C3A69425  15.706  13.898   6.871
 5425POPC   C4A69426  15.799  14.058   7.273
 5425POPC   C1B69427  16.381  13.158   6.141
 5425POPC   C2B69428  16.176  13.107   6.548
 5425POPC   C3B69429  15.984  13.225   6.953
 5425POPC   C4B69430  16.090  13.630   7.121
 5426POPC   NC369431  20.014   1.061   5.263
 5426POPC   PO469432  19.444   0.720   5.466
 5426POPC   GL169433  19.791   0.927   5.725
 5426POPC   GL269434  20.128   0.884   5.701
 5426POPC   C1A69435  19.804   1.268   6.069
 5426POPC   D2A69436  19.593   1.307   6.473
 5426POPC   C3A69437  19.852   1.281   6.850
 5426POPC   C4A69438  19.947   1.467   7.249
 5426POPC   C1B69439  20.197   0.970   6.086
 5426POPC   C2B69440  20.065   0.999   6.448
 5426POPC   C3B69441  20.087   0.800   6.787
 5426POPC   C4B69442  20.198   1.014   7.129
 5427POPC   NC369443   4.216  41.906   5.489
 5427POPC   PO469444   3.932  41.278   5.380
 5427POPC   GL169445   4.179  41.466   5.779
 5427POPC   GL269446   4.520  41.447   5.841
 5427POPC   C1A69447   4.303  41.545   6.265
 5427POPC   D2A69448   4.132  41.856   6.548
 5427POPC   C3A69449   4.402  41.829   6.884
 5427POPC   C4A69450   4.387  41.657   7.264
 5427POPC   C1B69451   4.580  41.099   6.160
 5427POPC   C2B69452   4.703  41.103   6.580
 5427POPC   C3B69453   4.698  41.377   6.898
 5427POPC   C4B69454   4.844  41.333   7.292
 5428POPC   NC369455  11.434   9.190   5.404
 5428POPC   PO469456  11.596   8.573   5.239
 5428POPC   GL169457  11.432   8.792   5.709
 5428POPC   GL269458  11.087   8.843   5.910
 5428POPC   C1A69459  11.470   9.077   6.106
 5428POPC   D2A69460  11.180   8.999   6.473
 5428POPC   C3A69461  11.336   9.160   6.894
 5428POPC   C4A69462  11.448   8.951   7.300
 5428POPC   C1B69463  10.909   8.601   6.263
 5428POPC   C2B69464  10.851   8.467   6.709
 5428POPC   C3B69465  11.043   8.719   7.051
 5428POPC   C4B69466  10.912   8.763   7.516
 5429POPC   NC369467   4.477  12.260   5.344
 5429POPC   PO469468   4.097  11.787   5.568
 5429POPC   GL169469   4.353  11.831   5.915
 5429POPC   GL269470   4.245  12.179   5.996
 5429POPC   C1A69471   4.315  11.805   6.342
 5429POPC   D2A69472   4.280  12.180   6.536
 5429POPC   C3A69473   4.316  12.118   6.963
 5429POPC   C4A69474   4.134  11.932   7.327
 5429POPC   C1B69475   3.932  12.448   6.250
 5429POPC   C2B69476   3.907  12.492   6.673
 5429POPC   C3B69477   3.842  12.274   7.026
 5429POPC   C4B69478   3.846  12.377   7.470
 5430POPC   NC369479  40.138  42.144   5.390
 5430POPC   PO469480  40.516  42.553   5.676
 5430POPC   GL169481  40.188  42.249   5.879
 5430POPC   GL269482  39.798  42.155   5.794
 5430POPC   C1A69483  40.245  42.021   6.244
 5430POPC   D2A69484  40.436  42.055   6.678
 5430POPC   C3A69485  40.338  42.417   6.952
 5430POPC   C4A69486  40.303  42.557   7.390
 5430POPC   C1B69487  39.759  41.904   6.173
 5430POPC   C2B69488  39.912  41.963   6.619
 5430POPC   C3B69489  40.003  42.026   7.026
 5430POPC   C4B69490  39.852  42.415   7.163
 5431POPC   NC369491  44.205  41.209   5.559
 5431POPC   PO469492  44.663  41.629   5.262
 5431POPC   GL169493  44.682  41.420   5.662
 5431POPC   GL269494  44.399  41.616   5.824
 5431POPC   C1A69495  44.804  41.499   6.112
 5431POPC   D2A69496  44.709  41.458   6.555
 5431POPC   C3A69497  44.832  41.769   6.856
 5431POPC   C4A69498  44.990  41.676   7.245
 5431POPC   C1B69499  44.358  41.749   6.271
 5431POPC   C2B69500  44.308  41.716   6.722
 5431POPC   C3B69501  44.454  41.504   7.093
 5431POPC   C4B69502  44.220  41.598   7.471
 5432POPC   NC369503   7.886  38.656   5.400
 5432POPC   PO469504   8.469  38.928   5.357
 5432POPC   GL169505   8.350  38.727   5.775
 5432POPC   GL269506   8.154  38.412   5.767
 5432POPC   C1A69507   8.421  38.556   6.210
 5432POPC   D2A69508   8.310  38.292   6.547
 5432POPC   C3A69509   8.248  38.480   6.956
 5432POPC   C4A69510   7.988  38.239   7.221
 5432POPC   C1B69511   7.925  38.641   6.114
 5432POPC   C2B69512   8.005  38.722   6.546
 5432POPC   C3B69513   7.810  38.776   6.952
 5432POPC   C4B69514   7.944  38.803   7.351
 5433POPC   NC369515   2.437   5.203   5.452
 5433POPC   PO469516   1.760   5.360   5.421
 5433POPC   GL169517   1.787   5.062   5.744
 5433POPC   GL269518   2.123   5.005   5.790
 5433POPC   C1A69519   1.807   4.991   6.195
 5433POPC   D2A69520   1.790   5.150   6.606
 5433POPC   C3A69521   1.824   4.834   6.926
 5433POPC   C4A69522   1.801   4.922   7.353
 5433POPC   C1B69523   2.309   5.262   6.136
 5433POPC   C2B69524   2.549   5.364   6.520
 5433POPC   C3B69525   2.356   5.299   6.928
 5433POPC   C4B69526   1.911   5.369   7.067
 5434POPC   NC369527  21.922  30.183   5.329
 5434POPC   PO469528  22.332  29.725   5.260
 5434POPC   GL169529  22.339  29.963   5.640
 5434POPC   GL269530  22.501  29.683   5.786
 5434POPC   C1A69531  22.175  30.052   6.079
 5434POPC   D2A69532  22.191  30.134   6.532
 5434POPC   C3A69533  21.942  30.035   6.891
 5434POPC   C4A69534  21.998  29.790   7.260
 5434POPC   C1B69535  22.330  29.557   6.151
 5434POPC   C2B69536  22.135  29.634   6.505
 5434POPC   C3B69537  22.300  29.643   6.867
 5434POPC   C4B69538  22.270  29.359   7.180
 5435POPC   NC369539  42.340  35.034   5.408
 5435POPC   PO469540  42.153  35.719   5.291
 5435POPC   GL169541  42.455  35.488   5.649
 5435POPC   GL269542  42.414  35.168   5.884
 5435POPC   C1A69543  42.522  35.602   6.108
 5435POPC   D2A69544  42.450  35.404   6.535
 5435POPC   C3A69545  42.440  35.640   6.929
 5435POPC   C4A69546  42.433  35.490   7.360
 5435POPC   C1B69547  42.070  35.267   6.172
 5435POPC   C2B69548  41.864  35.262   6.593
 5435POPC   C3B69549  42.033  35.304   7.026
 5435POPC   C4B69550  42.042  35.132   7.435
 5436POPC   NC369551  27.414  24.515   5.495
 5436POPC   PO469552  27.991  24.834   5.638
 5436POPC   GL169553  27.720  24.618   5.942
 5436POPC   GL269554  27.635  24.251   5.920
 5436POPC   C1A69555  27.867  24.571   6.379
 5436POPC   D2A69556  28.200  24.293   6.553
 5436POPC   C3A69557  28.051  24.116   6.944
 5436POPC   C4A69558  27.671  24.353   7.130
 5436POPC   C1B69559  27.382  24.374   6.291
 5436POPC   C2B69560  27.319  24.354   6.739
 5436POPC   C3B69561  27.165  24.470   7.158
 5436POPC   C4B69562  27.303  24.163   7.460
 5437POPC   NC369563  13.636  19.938   5.407
 5437POPC   PO469564  13.821  19.337   5.455
 5437POPC   GL169565  13.614  19.629   5.802
 5437POPC   GL269566  13.250  19.579   5.938
 5437POPC   C1A69567  13.668  19.790   6.221
 5437POPC   D2A69568  13.439  19.764   6.634
 5437POPC   C3A69569  13.681  19.596   6.964
 5437POPC   C4A69570  13.940  19.887   7.217
 5437POPC   C1B69571  13.179  19.942   6.232
 5437POPC   C2B69572  13.114  20.172   6.625
 5437POPC   C3B69573  13.279  20.067   7.034
 5437POPC   C4B69574  13.329  20.253   7.447
 5438POPC   NC369575   4.454  43.881   5.393
 5438POPC   PO469576   3.876  43.798   5.124
 5438POPC   GL169577   3.983  43.808   5.610
 5438POPC   GL269578   4.242  43.921   5.843
 5438POPC   C1A69579   3.851  43.745   6.077
 5438POPC   D2A69580   4.152  43.845   6.441
 5438POPC   C3A69581   4.216  43.784   6.928
 5438POPC   C4A69582   4.204  43.562   7.368
 5438POPC   C1B69583   4.549  44.011   6.122
 5438POPC   C2B69584   4.640  43.931   6.575
 5438POPC   C3B69585   4.627  44.116   7.000
 5438POPC   C4B69586   4.551  43.940   7.408
 5439POPC   NC369587  15.583   5.410   5.539
 5439POPC   PO469588  15.781   5.997   5.309
 5439POPC   GL169589  16.049   5.990   5.703
 5439POPC   GL269590  16.021   5.643   5.774
 5439POPC   C1A69591  16.364   5.965   6.077
 5439POPC   D2A69592  16.492   5.990   6.539
 5439POPC   C3A69593  16.237   5.869   6.947
 5439POPC   C4A69594  15.877   6.054   7.196
 5439POPC   C1B69595  15.881   5.806   6.158
 5439POPC   C2B69596  15.974   5.684   6.534
 5439POPC   C3B69597  15.749   5.659   6.888
 5439POPC   C4B69598  15.916   5.529   7.254
 5440POPC   NC369599  12.810   7.173   5.356
 5440POPC   PO469600  13.033   6.597   5.357
 5440POPC   GL169601  12.784   6.708   5.743
 5440POPC   GL269602  12.494   6.979   5.760
 5440POPC   C1A69603  12.991   6.572   6.137
 5440POPC   D2A69604  13.227   6.693   6.509
 5440POPC   C3A69605  12.978   6.531   6.818
 5440POPC   C4A69606  12.988   6.484   7.237
 5440POPC   C1B69607  12.624   7.089   6.205
 5440POPC   C2B69608  12.584   6.895   6.635
 5440POPC   C3B69609  12.694   6.876   7.082
 5440POPC   C4B69610  12.665   6.827   7.529
 5441POPC   NC369611  15.189  34.389   5.522
 5441POPC   PO469612  15.104  33.768   5.272
 5441POPC   GL169613  15.182  33.688   5.720
 5441POPC   GL269614  15.445  33.475   5.722
 5441POPC   C1A69615  15.077  33.607   6.175
 5441POPC   D2A69616  15.223  33.736   6.614
 5441POPC   C3A69617  14.988  33.850   7.028
 5441POPC   C4A69618  15.165  33.680   7.440
 5441POPC   C1B69619  15.580  33.670   6.084
 5441POPC   C2B69620  15.715  33.672   6.476
 5441POPC   C3B69621  15.578  33.471   6.867
 5441POPC   C4B69622  15.632  33.529   7.270
 5442POPC   NC369623  35.895  44.152   5.387
 5442POPC   PO469624  36.570  44.283   5.477
 5442POPC   GL169625  36.412  44.054   5.843
 5442POPC   GL269626  36.063  43.948   5.840
 5442POPC   C1A69627  36.323  43.942   6.263
 5442POPC   D2A69628  36.139  43.741   6.600
 5442POPC   C3A69629  36.206  43.955   6.945
 5442POPC   C4A69630  36.221  43.748   7.312
 5442POPC   C1B69631  35.824  43.723   6.183
 5442POPC   C2B69632  35.616  43.734   6.621
 5442POPC   C3B69633  35.805  43.650   7.041
 5442POPC   C4B69634  35.831  43.541   7.534
 5443POPC   NC369635  12.015  39.692   5.285
 5443POPC   PO469636  12.337  40.276   5.418
 5443POPC   GL169637  12.165  39.973   5.727
 5443POPC   GL269638  11.798  39.951   5.728
 5443POPC   C1A69639  12.144  40.170   6.135
 5443POPC   D2A69640  12.017  40.320   6.525
 5443POPC   C3A69641  12.230  40.078   6.795
 5443POPC   C4A69642  12.298  39.972   7.195
 5443POPC   C1B69643  11.822  39.766   6.152
 5443POPC   C2B69644  11.779  39.869   6.602
 5443POPC   C3B69645  11.901  39.707   7.005
 5443POPC   C4B69646  12.127  39.454   7.268
 5444POPC   NC369647  39.768  17.172   5.476
 5444POPC   PO469648  39.257  16.703   5.366
 5444POPC   GL169649  39.172  16.822   5.799
 5444POPC   GL269650  39.437  17.039   5.838
 5444POPC   C1A69651  39.154  16.599   6.233
 5444POPC   D2A69652  39.097  16.382   6.670
 5444POPC   C3A69653  39.269  16.507   7.075
 5444POPC   C4A69654  39.199  16.586   7.509
 5444POPC   C1B69655  39.592  16.873   6.236
 5444POPC   C2B69656  39.549  16.666   6.622
 5444POPC   C3B69657  39.681  16.811   7.018
 5444POPC   C4B69658  39.671  16.718   7.456
 5445POPC   NC369659  14.906  16.659   5.410
 5445POPC   PO469660  14.175  16.567   5.396
 5445POPC   GL169661  14.477  16.528   5.728
 5445POPC   GL269662  14.612  16.858   5.790
 5445POPC   C1A69663  14.487  16.536   6.179
 5445POPC   D2A69664  14.487  16.749   6.575
 5445POPC   C3A69665  14.264  16.595   6.939
 5445POPC   C4A69666  14.449  16.506   7.323
 5445POPC   C1B69667  14.409  17.077   6.146
 5445POPC   C2B69668  14.435  17.248   6.564
 5445POPC   C3B69669  14.364  17.085   6.990
 5445POPC   C4B69670  14.474  16.979   7.468
 5446POPC   NC369671   4.593  29.790   5.423
 5446POPC   PO469672   3.881  29.973   5.513
 5446POPC   GL169673   4.282  30.033   5.751
 5446POPC   GL269674   4.370  29.688   5.864
 5446POPC   C1A69675   4.538  30.053   6.146
 5446POPC   D2A69676   4.381  29.898   6.507
 5446POPC   C3A69677   4.549  29.946   6.890
 5446POPC   C4A69678   4.307  30.066   7.205
 5446POPC   C1B69679   4.549  29.513   6.235
 5446POPC   C2B69680   4.462  29.426   6.708
 5446POPC   C3B69681   4.459  29.524   7.188
 5446POPC   C4B69682   4.572  29.474   7.666
 5447POPC   NC369683  39.524   0.881   5.258
 5447POPC   PO469684  39.357   0.251   5.414
 5447POPC   GL169685  39.251   0.562   5.703
 5447POPC   GL269686  39.583   0.697   5.749
 5447POPC   C1A69687  39.053   0.539   6.131
 5447POPC   D2A69688  39.063   0.265   6.503
 5447POPC   C3A69689  39.071   0.462   6.936
 5447POPC   C4A69690  39.277   0.438   7.376
 5447POPC   C1B69691  39.480   0.832   6.162
 5447POPC   C2B69692  39.287   0.786   6.560
 5447POPC   C3B69693  39.465   0.766   6.973
 5447POPC   C4B69694  39.612   0.864   7.334
 5448POPC   NC369695   6.350   2.217   5.479
 5448POPC   PO469696   6.907   2.017   5.037
 5448POPC   GL169697   6.747   1.855   5.509
 5448POPC   GL269698   6.976   1.615   5.682
 5448POPC   C1A69699   6.660   1.929   6.008
 5448POPC   D2A69700   6.696   2.179   6.430
 5448POPC   C3A69701   6.542   1.982   6.818
 5448POPC   C4A69702   6.408   2.180   7.189
 5448POPC   C1B69703   6.969   1.554   6.146
 5448POPC   C2B69704   7.115   1.689   6.567
 5448POPC   C3B69705   6.958   1.710   6.988
 5448POPC   C4B69706   7.188   1.758   7.353
 5449POPC   NC369707  36.534  18.025   5.413
 5449POPC   PO469708  37.193  18.295   5.391
 5449POPC   GL169709  36.886  18.224   5.733
 5449POPC   GL269710  37.103  18.039   5.830
 5449POPC   C1A69711  36.804  18.286   6.192
 5449POPC   D2A69712  37.058  18.380   6.575
 5449POPC   C3A69713  36.808  18.327   6.940
 5449POPC   C4A69714  36.805  17.937   7.177
 5449POPC   C1B69715  37.303  18.140   6.189
 5449POPC   C2B69716  37.358  17.899   6.543
 5449POPC   C3B69717  37.278  18.068   6.956
 5449POPC   C4B69718  37.168  18.328   7.304
 5450POPC   NC369719  22.081  18.570   5.270
 5450POPC   PO469720  22.087  17.892   5.423
 5450POPC   GL169721  22.060  18.240   5.721
 5450POPC   GL269722  22.421  18.284   5.792
 5450POPC   C1A69723  21.819  18.258   6.142
 5450POPC   D2A69724  21.915  18.115   6.581
 5450POPC   C3A69725  21.830  18.249   6.999
 5450POPC   C4A69726  22.112  18.553   7.251
 5450POPC   C1B69727  22.289  17.936   6.108
 5450POPC   C2B69728  22.305  17.770   6.555
 5450POPC   C3B69729  22.115  17.747   6.966
 5450POPC   C4B69730  22.239  18.065   7.222
 5451POPC   NC369731  19.748   2.133   5.573
 5451POPC   PO469732  20.012   1.515   5.350
 5451POPC   GL169733  19.947   1.696   5.790
 5451POPC   GL269734  20.093   2.010   5.941
 5451POPC   C1A69735  19.805   1.745   6.258
 5451POPC   D2A69736  19.623   1.802   6.680
 5451POPC   C3A69737  19.951   1.915   6.978
 5451POPC   C4A69738  19.870   2.010   7.389
 5451POPC   C1B69739  19.983   2.323   6.290
 5451POPC   C2B69740  19.968   2.366   6.717
 5451POPC   C3B69741  20.137   2.442   7.070
 5451POPC   C4B69742  20.378   2.234   7.270
 5452POPC   NC369743  26.529  19.710   5.466
 5452POPC   PO469744  25.902  19.908   5.401
 5452POPC   GL169745  25.976  20.040   5.798
 5452POPC   GL269746  26.342  20.070   5.803
 5452POPC   C1A69747  26.077  19.889   6.209
 5452POPC   D2A69748  25.956  19.764   6.597
 5452POPC   C3A69749  26.196  19.931   6.915
 5452POPC   C4A69750  26.104  19.734   7.272
 5452POPC   C1B69751  26.174  20.388   6.091
 5452POPC   C2B69752  26.077  20.414   6.469
 5452POPC   C3B69753  25.993  20.428   6.895
 5452POPC   C4B69754  25.885  20.193   7.281
 5453POPC   NC369755  23.984  21.540   5.406
 5453POPC   PO469756  23.614  21.035   5.346
 5453POPC   GL169757  23.749  21.161   5.726
 5453POPC   GL269758  23.647  21.483   5.816
 5453POPC   C1A69759  23.840  21.073   6.152
 5453POPC   D2A69760  23.662  21.163   6.546
 5453POPC   C3A69761  23.651  20.943   6.923
 5453POPC   C4A69762  23.643  21.178   7.293
 5453POPC   C1B69763  23.809  21.564   6.262
 5453POPC   C2B69764  23.846  21.588   6.729
 5453POPC   C3B69765  23.708  21.668   7.157
 5453POPC   C4B69766  23.936  21.650   7.520
 5454POPC   NC369767  14.538  28.218   5.387
 5454POPC   PO469768  13.935  28.664   5.245
 5454POPC   GL169769  14.223  28.557   5.615
 5454POPC   GL269770  14.047  28.404   5.880
 5454POPC   C1A69771  14.530  28.455   5.996
 5454POPC   D2A69772  14.617  28.314   6.410
 5454POPC   C3A69773  14.621  28.589   6.721
 5454POPC   C4A69774  14.435  28.414   7.125
 5454POPC   C1B69775  14.078  28.440   6.307
 5454POPC   C2B69776  14.139  28.423   6.712
 5454POPC   C3B69777  14.014  28.115   7.010
 5454POPC   C4B69778  13.967  27.965   7.429
 5455POPC   NC369779   8.620  29.339   5.408
 5455POPC   PO469780   9.265  29.055   5.130
 5455POPC   GL169781   9.147  29.010   5.609
 5455POPC   GL269782   8.976  29.297   5.775
 5455POPC   C1A69783   8.997  28.914   6.084
 5455POPC   D2A69784   8.948  29.115   6.522
 5455POPC   C3A69785   9.262  29.076   6.851
 5455POPC   C4A69786   9.309  29.197   7.285
 5455POPC   C1B69787   8.741  29.456   6.152
 5455POPC   C2B69788   8.722  29.583   6.608
 5455POPC   C3B69789   8.907  29.434   6.996
 5455POPC   C4B69790   8.845  29.012   7.174
 5456POPC   NC369791  17.812  41.965   5.684
 5456POPC   PO469792  17.438  42.464   5.427
 5456POPC   GL169793  17.503  42.365   5.840
 5456POPC   GL269794  17.351  42.038   5.820
 5456POPC   C1A69795  17.630  42.241   6.255
 5456POPC   D2A69796  17.424  42.173   6.629
 5456POPC   C3A69797  17.627  42.234   7.008
 5456POPC   C4A69798  17.782  42.667   7.099
 5456POPC   C1B69799  17.096  42.036   6.149
 5456POPC   C2B69800  17.047  41.866   6.515
 5456POPC   C3B69801  16.993  42.072   6.893
 5456POPC   C4B69802  17.179  42.084   7.265
 5457POPC   NC369803  44.636  24.920   5.360
 5457POPC   PO469804  44.410  24.233   5.434
 5457POPC   GL169805  44.653  24.288   5.818
 5457POPC   GL269806  44.802  24.597   5.875
 5457POPC   C1A69807  44.664  24.193   6.230
 5457POPC   D2A69808  44.463  24.363   6.561
 5457POPC   C3A69809  44.712  24.655   6.820
 5457POPC   C4A69810  44.748  24.609   7.233
 5457POPC   C1B69811  44.660  24.756   6.295
 5457POPC   C2B69812  44.293  24.858   6.640
 5457POPC   C3B69813  44.354  24.973   7.072
 5457POPC   C4B69814  44.295  24.734   7.459
 5458POPC   NC369815  35.887  39.340   5.591
 5458POPC   PO469816  36.340  39.158   5.156
 5458POPC   GL169817  36.268  39.017   5.695
 5458POPC   GL269818  36.158  39.308   5.996
 5458POPC   C1A69819  36.331  38.891   6.182
 5458POPC   D2A69820  35.991  39.090   6.443
 5458POPC   C3A69821  36.005  39.245   6.832
 5458POPC   C4A69822  36.171  39.101   7.218
 5458POPC   C1B69823  35.954  39.629   6.332
 5458POPC   C2B69824  35.881  39.752   6.814
 5458POPC   C3B69825  35.947  39.546   7.236
 5458POPC   C4B69826  35.996  39.636   7.684
 5459POPC   NC369827  36.061  30.262   5.575
 5459POPC   PO469828  36.230  29.620   5.387
 5459POPC   GL169829  36.219  29.611   5.812
 5459POPC   GL269830  36.544  29.745   5.794
 5459POPC   C1A69831  35.955  29.813   6.143
 5459POPC   D2A69832  35.915  30.217   6.435
 5459POPC   C3A69833  36.013  30.125   6.888
 5459POPC   C4A69834  35.980  29.668   7.006
 5459POPC   C1B69835  36.439  30.019   6.147
 5459POPC   C2B69836  36.268  29.862   6.542
 5459POPC   C3B69837  36.452  29.855   6.955
 5459POPC   C4B69838  36.501  30.056   7.336
 5460POPC   NC369839  41.783   2.202   5.003
 5460POPC   PO469840  41.619   2.795   5.301
 5460POPC   GL169841  41.806   2.831   5.698
 5460POPC   GL269842  41.472   2.730   5.799
 5460POPC   C1A69843  41.984   2.940   6.122
 5460POPC   D2A69844  42.129   2.999   6.582
 5460POPC   C3A69845  41.791   2.806   6.866
 5460POPC   C4A69846  41.568   2.814   7.243
 5460POPC   C1B69847  41.296   2.610   6.167
 5460POPC   C2B69848  41.347   2.756   6.541
 5460POPC   C3B69849  41.215   2.686   6.903
 5460POPC   C4B69850  41.050   2.870   7.246
 5461POPC   NC369851  13.609  21.691   5.359
 5461POPC   PO469852  13.692  21.047   5.339
 5461POPC   GL169853  13.714  21.378   5.752
 5461POPC   GL269854  13.434  21.586   5.819
 5461POPC   C1A69855  13.763  21.621   6.214
 5461POPC   D2A69856  13.596  21.428   6.634
 5461POPC   C3A69857  13.749  21.490   7.052
 5461POPC   C4A69858  14.105  21.405   7.275
 5461POPC   C1B69859  13.275  21.498   6.232
 5461POPC   C2B69860  13.168  21.174   6.557
 5461POPC   C3B69861  13.380  21.057   6.955
 5461POPC   C4B69862  13.254  21.453   7.110
 5462POPC   NC369863  43.435  32.424   5.536
 5462POPC   PO469864  42.864  32.210   5.558
 5462POPC   GL169865  43.004  32.207   5.934
 5462POPC   GL269866  43.290  32.037   5.872
 5462POPC   C1A69867  42.894  32.094   6.347
 5462POPC   D2A69868  42.725  32.278   6.707
 5462POPC   C3A69869  42.804  31.965   6.989
 5462POPC   C4A69870  43.001  32.106   7.322
 5462POPC   C1B69871  43.385  32.183   6.262
 5462POPC   C2B69872  43.477  32.270   6.619
 5462POPC   C3B69873  43.370  32.172   6.988
 5462POPC   C4B69874  43.513  32.067   7.360
 5463POPC   NC369875   1.359  19.675   5.389
 5463POPC   PO469876   1.044  20.162   5.161
 5463POPC   GL169877   1.212  20.077   5.668
 5463POPC   GL269878   1.440  19.867   5.850
 5463POPC   C1A69879   1.023  20.014   6.110
 5463POPC   D2A69880   0.748  20.094   6.473
 5463POPC   C3A69881   0.979  20.084   6.878
 5463POPC   C4A69882   0.997  19.973   7.343
 5463POPC   C1B69883   1.506  19.691   6.251
 5463POPC   C2B69884   1.506  19.818   6.674
 5463POPC   C3B69885   1.678  19.674   7.040
 5463POPC   C4B69886   1.534  19.427   7.367
 5464POPC   NC369887  24.106  22.244   5.342
 5464POPC   PO469888  23.565  21.814   5.433
 5464POPC   GL169889  23.709  22.142   5.679
 5464POPC   GL269890  23.909  21.929   5.851
 5464POPC   C1A69891  23.809  22.394   6.077
 5464POPC   D2A69892  23.767  22.467   6.536
 5464POPC   C3A69893  23.843  22.112   6.853
 5464POPC   C4A69894  23.938  22.111   7.315
 5464POPC   C1B69895  23.529  21.956   6.127
 5464POPC   C2B69896  23.430  21.819   6.552
 5464POPC   C3B69897  23.316  21.929   6.958
 5464POPC   C4B69898  23.327  21.976   7.410
 5465POPC   NC369899  11.537   3.235   5.484
 5465POPC   PO469900  11.035   3.530   5.350
 5465POPC   GL169901  11.246   3.603   5.763
 5465POPC   GL269902  11.445   3.896   5.751
 5465POPC   C1A69903  11.225   3.493   6.223
 5465POPC   D2A69904  11.016   3.514   6.651
 5465POPC   C3A69905  11.268   3.464   7.022
 5465POPC   C4A69906  11.609   3.366   7.309
 5465POPC   C1B69907  11.251   3.993   6.150
 5465POPC   C2B69908  11.361   3.878   6.546
 5465POPC   C3B69909  11.238   3.969   6.942
 5465POPC   C4B69910  11.301   3.868   7.365
 5466POPC   NC369911  28.039  20.032   5.179
 5466POPC   PO469912  28.643  20.321   5.248
 5466POPC   GL169913  28.494  20.443   5.650
 5466POPC   GL269914  28.196  20.684   5.688
 5466POPC   C1A69915  28.611  20.482   6.065
 5466POPC   D2A69916  28.354  20.470   6.425
 5466POPC   C3A69917  28.614  20.613   6.748
 5466POPC   C4A69918  28.775  20.628   7.160
 5466POPC   C1B69919  27.988  20.830   6.108
 5466POPC   C2B69920  27.852  20.618   6.497
 5466POPC   C3B69921  28.091  20.415   6.857
 5466POPC   C4B69922  28.274  20.631   7.193
 5467POPC   NC369923  39.872   6.198   5.345
 5467POPC   PO469924  39.785   5.470   5.293
 5467POPC   GL169925  39.820   5.800   5.673
 5467POPC   GL269926  40.141   5.990   5.755
 5467POPC   C1A69927  39.745   5.944   6.111
 5467POPC   D2A69928  39.754   5.769   6.539
 5467POPC   C3A69929  39.862   5.972   6.894
 5467POPC   C4A69930  39.615   6.057   7.269
 5467POPC   C1B69931  40.223   5.751   6.161
 5467POPC   C2B69932  40.282   5.582   6.594
 5467POPC   C3B69933  40.326   5.780   7.019
 5467POPC   C4B69934  40.366   6.198   7.176
 5468POPC   NC369935  14.593  37.803   5.170
 5468POPC   PO469936  14.460  38.480   5.406
 5468POPC   GL169937  14.495  38.427   5.824
 5468POPC   GL269938  14.225  38.193   5.843
 5468POPC   C1A69939  14.729  38.554   6.191
 5468POPC   D2A69940  14.688  38.886   6.495
 5468POPC   C3A69941  14.396  38.804   6.836
 5468POPC   C4A69942  14.521  38.694   7.241
 5468POPC   C1B69943  14.269  38.338   6.276
 5468POPC   C2B69944  14.543  38.294   6.627
 5468POPC   C3B69945  14.368  38.256   7.029
 5468POPC   C4B69946  14.033  38.527   7.181
 5469POPC   NC369947  43.811   9.753   5.250
 5469POPC   PO469948  43.755  10.427   5.305
 5469POPC   GL169949  43.693  10.060   5.634
 5469POPC   GL269950  44.051   9.902   5.675
 5469POPC   C1A69951  43.714   9.713   6.030
 5469POPC   D2A69952  43.932   9.631   6.475
 5469POPC   C3A69953  43.711   9.565   6.901
 5469POPC   C4A69954  43.582   9.860   7.239
 5469POPC   C1B69955  44.239   9.822   6.087
 5469POPC   C2B69956  44.402   9.878   6.504
 5469POPC   C3B69957  44.361   9.636   6.868
 5469POPC   C4B69958  44.126   9.303   7.077
 5470POPC   NC369959   6.082  44.844   5.457
 5470POPC   PO469960   5.489  44.585   5.573
 5470POPC   GL169961   5.699  44.473   5.948
 5470POPC   GL269962   6.021  44.457   5.816
 5470POPC   C1A69963   5.688  44.631   6.389
 5470POPC   D2A69964   5.723  44.749   6.827
 5470POPC   C3A69965   5.603  44.477   7.154
 5470POPC   C4A69966   5.685  44.776   7.484
 5470POPC   C1B69967   6.165  44.697   6.182
 5470POPC   C2B69968   6.203  44.637   6.659
 5470POPC   C3B69969   6.122  44.579   7.116
 5470POPC   C4B69970   6.294  44.589   7.527
 5471POPC   NC369971  32.378   2.442   5.342
 5471POPC   PO469972  31.961   1.881   5.421
 5471POPC   GL169973  31.988   2.106   5.808
 5471POPC   GL269974  32.289   2.300   5.833
 5471POPC   C1A69975  32.108   1.983   6.243
 5471POPC   D2A69976  32.365   2.068   6.590
 5471POPC   C3A69977  32.443   1.828   6.959
 5471POPC   C4A69978  32.232   1.624   7.311
 5471POPC   C1B69979  32.341   2.464   6.235
 5471POPC   C2B69980  32.495   2.557   6.639
 5471POPC   C3B69981  32.411   2.431   7.036
 5471POPC   C4B69982  32.339   2.133   7.353
 5472POPC   NC369983   1.781   6.634   5.464
 5472POPC   PO469984   2.284   7.043   5.256
 5472POPC   GL169985   2.073   6.958   5.716
 5472POPC   GL269986   2.144   6.592   5.866
 5472POPC   C1A69987   1.766   6.813   6.100
 5472POPC   D2A69988   1.775   6.571   6.500
 5472POPC   C3A69989   1.766   6.752   6.897
 5472POPC   C4A69990   2.106   6.710   7.190
 5472POPC   C1B69991   1.944   6.254   6.140
 5472POPC   C2B69992   1.910   6.072   6.564
 5472POPC   C3B69993   2.040   6.272   6.940
 5472POPC   C4B69994   1.924   6.269   7.382
 5473POPC   NC369995  40.457  35.479   5.446
 5473POPC   PO469996  41.066  35.299   5.141
 5473POPC   GL169997  40.985  35.406   5.656
 5473POPC   GL269998  40.712  35.581   5.858
 5473POPC   C1A69999  40.988  35.330   6.177
 5473POPC   D2A70000  41.002  35.010   6.548
 5473POPC   C3A70001  40.960  35.212   6.978
 5473POPC   C4A70002  40.846  35.073   7.415
 5473POPC   C1B70003  40.629  35.736   6.256
 5473POPC   C2B70004  40.635  35.516   6.650
 5473POPC   C3B70005  40.665  35.631   7.062
 5473POPC   C4B70006  40.653  35.930   7.343
 5474POPC   NC370007   6.108   3.816   5.268
 5474POPC   PO470008   5.752   3.253   5.337
 5474POPC   GL170009   6.036   3.453   5.628
 5474POPC   GL270010   5.822   3.383   5.856
 5474POPC   C1A70011   6.286   3.567   6.027
 5474POPC   D2A70012   6.348   3.449   6.481
 5474POPC   C3A70013   6.164   3.481   6.925
 5474POPC   C4A70014   6.291   3.796   7.276
 5474POPC   C1B70015   5.817   3.622   6.178
 5474POPC   C2B70016   5.822   3.413   6.527
 5474POPC   C3B70017   5.703   3.657   6.824
 5474POPC   C4B70018   5.794   3.657   7.236
 5475POPC   NC370019  41.501  26.354   5.349
 5475POPC   PO470020  41.808  25.759   5.471
 5475POPC   GL170021  41.567  25.882   5.835
 5475POPC   GL270022  41.384  26.182   5.819
 5475POPC   C1A70023  41.524  25.895   6.273
 5475POPC   D2A70024  41.462  25.697   6.630
 5475POPC   C3A70025  41.531  25.934   6.981
 5475POPC   C4A70026  41.642  25.864   7.414
 5475POPC   C1B70027  41.636  26.370   6.160
 5475POPC   C2B70028  41.531  26.297   6.601
 5475POPC   C3B70029  41.665  26.446   6.985
 5475POPC   C4B70030  41.644  26.431   7.420
 5476POPC   NC370031  32.781  21.107   5.496
 5476POPC   PO470032  32.978  20.579   5.176
 5476POPC   GL170033  33.039  20.631   5.656
 5476POPC   GL270034  32.707  20.604   5.785
 5476POPC   C1A70035  33.128  20.721   6.143
 5476POPC   D2A70036  33.033  20.935   6.575
 5476POPC   C3A70037  33.211  20.779   6.977
 5476POPC   C4A70038  33.327  20.507   7.307
 5476POPC   C1B70039  32.741  20.367   6.178
 5476POPC   C2B70040  32.971  20.415   6.590
 5476POPC   C3B70041  32.887  20.327   7.027
 5476POPC   C4B70042  32.821  20.412   7.473
 5477POPC   NC370043   3.419   9.162   5.227
 5477POPC   PO470044   3.541   9.858   5.354
 5477POPC   GL170045   3.565   9.626   5.762
 5477POPC   GL270046   3.274   9.824   5.830
 5477POPC   C1A70047   3.494   9.491   6.241
 5477POPC   D2A70048   3.511   9.444   6.740
 5477POPC   C3A70049   3.845   9.727   6.986
 5477POPC   C4A70050   3.827   9.790   7.442
 5477POPC   C1B70051   3.496  10.007   6.150
 5477POPC   C2B70052   3.627   9.914   6.555
 5477POPC   C3B70053   3.453  10.028   6.960
 5477POPC   C4B70054   3.162   9.988   7.272
 5478POPC   NC370055  34.841  29.661   5.417
 5478POPC   PO470056  34.290  30.176   5.332
 5478POPC   GL170057  34.383  30.049   5.782
 5478POPC   GL270058  34.589  29.757   5.858
 5478POPC   C1A70059  34.508  30.153   6.210
 5478POPC   D2A70060  34.568  29.924   6.592
 5478POPC   C3A70061  34.753  30.130   6.937
 5478POPC   C4A70062  34.631  30.096   7.353
 5478POPC   C1B70063  34.828  29.579   6.229
 5478POPC   C2B70064  34.705  29.425   6.665
 5478POPC   C3B70065  34.549  29.663   7.061
 5478POPC   C4B70066  34.732  29.631   7.511
 5479POPC   NC370067  29.843  36.055   4.867
 5479POPC   PO470068  30.068  36.291   5.456
 5479POPC   GL170069  29.885  36.343   5.889
 5479POPC   GL270070  29.553  36.194   5.985
 5479POPC   C1A70071  29.918  36.245   6.365
 5479POPC   D2A70072  30.082  36.238   6.774
 5479POPC   C3A70073  29.957  36.451   7.103
 5479POPC   C4A70074  29.816  36.144   7.357
 5479POPC   C1B70075  29.473  35.965   6.396
 5479POPC   C2B70076  29.754  35.816   6.737
 5479POPC   C3B70077  29.758  35.672   7.174
 5479POPC   C4B70078  29.476  35.795   7.518
 5480POPC   NC370079  20.185  20.760   5.397
 5480POPC   PO470080  20.840  20.853   5.327
 5480POPC   GL170081  20.640  20.649   5.722
 5480POPC   GL270082  20.338  20.757   5.879
 5480POPC   C1A70083  20.579  20.418   6.160
 5480POPC   D2A70084  20.737  20.218   6.569
 5480POPC   C3A70085  20.548  20.290   6.986
 5480POPC   C4A70086  20.644  20.523   7.369
 5480POPC   C1B70087  20.201  21.005   6.218
 5480POPC   C2B70088  20.372  21.016   6.632
 5480POPC   C3B70089  20.350  20.794   7.033
 5480POPC   C4B70090  20.115  20.657   7.438
 5481POPC   NC370091   6.300  40.902   5.555
 5481POPC   PO470092   6.887  40.621   5.274
 5481POPC   GL170093   6.692  40.578   5.705
 5481POPC   GL270094   6.714  40.920   5.875
 5481POPC   C1A70095   6.541  40.545   6.174
 5481POPC   D2A70096   6.567  40.776   6.581
 5481POPC   C3A70097   6.416  40.557   6.917
 5481POPC   C4A70098   6.725  40.403   7.221
 5481POPC   C1B70099   6.360  41.043   6.183
 5481POPC   C2B70100   6.179  41.115   6.588
 5481POPC   C3B70101   6.280  41.051   6.986
 5481POPC   C4B70102   6.700  40.971   7.087
 5482POPC   NC370103   6.735  33.443   5.458
 5482POPC   PO470104   6.766  34.152   5.404
 5482POPC   GL170105   6.737  33.873   5.758
 5482POPC   GL270106   7.049  33.809   5.867
 5482POPC   C1A70107   6.630  33.702   6.178
 5482POPC   D2A70108   6.463  33.940   6.542
 5482POPC   C3A70109   6.457  33.813   6.973
 5482POPC   C4A70110   6.687  33.564   7.242
 5482POPC   C1B70111   6.951  34.092   6.233
 5482POPC   C2B70112   6.983  33.924   6.656
 5482POPC   C3B70113   6.961  33.967   7.088
 5482POPC   C4B70114   6.900  33.980   7.505
 5483POPC   NC370115  39.155  38.405   5.438
 5483POPC   PO470116  39.859  38.323   5.289
 5483POPC   GL170117  39.635  38.463   5.702
 5483POPC   GL270118  39.440  38.186   5.820
 5483POPC   C1A70119  39.534  38.520   6.186
 5483POPC   D2A70120  39.240  38.438   6.566
 5483POPC   C3A70121  39.326  38.551   6.990
 5483POPC   C4A70122  39.619  38.832   7.223
 5483POPC   C1B70123  39.207  38.067   6.204
 5483POPC   C2B70124  39.227  37.928   6.653
 5483POPC   C3B70125  39.121  38.054   7.105
 5483POPC   C4B70126  38.982  38.346   7.455
 5484POPC   NC370127  32.346  33.907   5.389
 5484POPC   PO470128  32.516  33.230   5.321
 5484POPC   GL170129  32.479  33.487   5.684
 5484POPC   GL270130  32.160  33.582   5.820
 5484POPC   C1A70131  32.611  33.565   6.122
 5484POPC   D2A70132  32.714  33.657   6.577
 5484POPC   C3A70133  32.486  33.603   6.984
 5484POPC   C4A70134  32.280  33.923   7.257
 5484POPC   C1B70135  32.165  33.734   6.289
 5484POPC   C2B70136  32.135  33.893   6.729
 5484POPC   C3B70137  31.832  33.788   7.065
 5484POPC   C4B70138  31.751  33.979   7.501
 5485POPC   NC370139   1.599  17.804   5.627
 5485POPC   PO470140   1.189  17.430   5.208
 5485POPC   GL170141   1.217  17.448   5.714
 5485POPC   GL270142   1.529  17.417   5.955
 5485POPC   C1A70143   1.118  17.304   6.196
 5485POPC   D2A70144   1.364  17.255   6.599
 5485POPC   C3A70145   1.169  17.364   7.010
 5485POPC   C4A70146   1.065  17.783   7.093
 5485POPC   C1B70147   1.506  17.712   6.313
 5485POPC   C2B70148   1.470  17.908   6.717
 5485POPC   C3B70149   1.620  17.714   7.073
 5485POPC   C4B70150   1.523  17.472   7.395
 5486POPC   NC370151   3.854   2.018   5.193
 5486POPC   PO470152   4.510   2.199   5.182
 5486POPC   GL170153   4.316   2.088   5.621
 5486POPC   GL270154   4.181   1.731   5.615
 5486POPC   C1A70155   4.261   2.301   6.061
 5486POPC   D2A70156   4.328   2.474   6.500
 5486POPC   C3A70157   4.105   2.279   6.849
 5486POPC   C4A70158   4.239   2.098   7.244
 5486POPC   C1B70159   4.212   1.784   6.071
 5486POPC   C2B70160   4.336   1.955   6.469
 5486POPC   C3B70161   4.520   1.912   6.855
 5486POPC   C4B70162   4.695   1.877   7.233
 5487POPC   NC370163  26.464  21.928   5.384
 5487POPC   PO470164  27.008  22.319   5.433
 5487POPC   GL170165  26.741  22.144   5.769
 5487POPC   GL270166  26.995  21.927   5.805
 5487POPC   C1A70167  26.536  22.124   6.186
 5487POPC   D2A70168  26.336  22.279   6.539
 5487POPC   C3A70169  26.513  22.188   6.930
 5487POPC   C4A70170  26.451  22.393   7.311
 5487POPC   C1B70171  27.047  22.093   6.203
 5487POPC   C2B70172  26.910  22.067   6.603
 5487POPC   C3B70173  27.109  22.111   6.998
 5487POPC   C4B70174  26.840  22.090   7.339
 5488POPC   NC370175  35.730  32.558   5.412
 5488POPC   PO470176  35.339  32.063   5.158
 5488POPC   GL170177  35.395  32.146   5.611
 5488POPC   GL270178  35.138  32.412   5.615
 5488POPC   C1A70179  35.557  32.230   6.067
 5488POPC   D2A70180  35.390  32.363   6.523
 5488POPC   C3A70181  35.550  32.164   6.937
 5488POPC   C4A70182  35.351  32.016   7.331
 5488POPC   C1B70183  35.090  32.446   6.066
 5488POPC   C2B70184  35.071  32.776   6.374
 5488POPC   C3B70185  35.012  32.784   6.805
 5488POPC   C4B70186  35.143  32.470   7.093
 5489POPC   NC370187   5.911   2.836   5.250
 5489POPC   PO470188   5.946   2.174   5.266
 5489POPC   GL170189   5.926   2.496   5.659
 5489POPC   GL270190   5.852   2.881   5.748
 5489POPC   C1A70191   5.979   2.559   6.132
 5489POPC   D2A70192   6.243   2.488   6.520
 5489POPC   C3A70193   6.109   2.549   6.967
 5489POPC   C4A70194   5.812   2.747   7.273
 5489POPC   C1B70195   5.691   3.006   6.183
 5489POPC   C2B70196   5.762   2.890   6.631
 5489POPC   C3B70197   5.743   3.172   7.005
 5489POPC   C4B70198   5.891   3.206   7.449
 5490POPC   NC370199  31.026  38.792   5.516
 5490POPC   PO470200  30.576  38.335   5.273
 5490POPC   GL170201  30.781  38.308   5.773
 5490POPC   GL270202  30.987  38.538   5.936
 5490POPC   C1A70203  30.627  38.436   6.255
 5490POPC   D2A70204  30.820  38.402   6.659
 5490POPC   C3A70205  30.547  38.378   7.022
 5490POPC   C4A70206  30.718  38.492   7.430
 5490POPC   C1B70207  31.036  38.784   6.301
 5490POPC   C2B70208  31.158  38.829   6.710
 5490POPC   C3B70209  30.866  38.791   7.036
 5490POPC   C4B70210  30.708  39.032   7.347
 5491POPC   NC370211  28.684  20.784   5.308
 5491POPC   PO470212  29.192  20.305   5.243
 5491POPC   GL170213  29.015  20.468   5.653
 5491POPC   GL270214  29.335  20.353   5.806
 5491POPC   C1A70215  29.074  20.733   6.047
 5491POPC   D2A70216  28.951  20.877   6.450
 5491POPC   C3A70217  29.139  20.663   6.784
 5491POPC   C4A70218  29.267  20.697   7.183
 5491POPC   C1B70219  29.256  20.300   6.250
 5491POPC   C2B70220  29.070  20.188   6.617
 5491POPC   C3B70221  29.238  20.202   7.020
 5491POPC   C4B70222  29.062  20.270   7.406
 5492POPC   NC370223   6.230  28.789   5.652
 5492POPC   PO470224   6.264  28.215   5.343
 5492POPC   GL170225   5.929  28.376   5.709
 5492POPC   GL270226   5.964  28.123   5.891
 5492POPC   C1A70227   5.697  28.476   6.174
 5492POPC   D2A70228   5.330  28.577   6.506
 5492POPC   C3A70229   5.463  28.601   6.959
 5492POPC   C4A70230   5.886  28.538   7.112
 5492POPC   C1B70231   5.935  27.947   6.297
 5492POPC   C2B70232   5.903  28.112   6.696
 5492POPC   C3B70233   5.957  27.927   7.073
 5492POPC   C4B70234   6.036  28.174   7.442
 5493POPC   NC370235  44.665  15.779   5.456
 5493POPC   PO470236  44.043  15.725   5.297
 5493POPC   GL170237  44.252  15.812   5.759
 5493POPC   GL270238  44.486  15.587   5.911
 5493POPC   C1A70239  44.352  15.939   6.239
 5493POPC   D2A70240  44.252  15.925   6.691
 5493POPC   C3A70241  44.552  16.131   6.989
 5493POPC   C4A70242  44.693  16.196   7.436
 5493POPC   C1B70243  44.836  15.804   6.111
 5493POPC   C2B70244  44.917  15.989   6.517
 5493POPC   C3B70245  44.949  15.782   6.918
 5493POPC   C4B70246  44.704  15.711   7.274
 5494POPC   NC370247   8.016  31.657   5.276
 5494POPC   PO470248   8.627  31.355   5.282
 5494POPC   GL170249   8.352  31.584   5.668
 5494POPC   GL270250   8.058  31.414   5.725
 5494POPC   C1A70251   8.151  31.668   6.134
 5494POPC   D2A70252   8.318  31.684   6.560
 5494POPC   C3A70253   8.165  31.625   6.969
 5494POPC   C4A70254   8.436  31.633   7.335
 5494POPC   C1B70255   7.865  31.203   6.089
 5494POPC   C2B70256   7.887  31.331   6.531
 5494POPC   C3B70257   7.957  31.146   6.923
 5494POPC   C4B70258   7.968  31.255   7.319
 5495POPC   NC370259   1.384   7.622   5.514
 5495POPC   PO470260   1.329   7.205   5.008
 5495POPC   GL170261   1.157   7.207   5.620
 5495POPC   GL270262   1.042   7.514   5.855
 5495POPC   C1A70263   1.384   7.195   6.077
 5495POPC   D2A70264   1.506   7.413   6.490
 5495POPC   C3A70265   1.421   7.192   6.907
 5495POPC   C4A70266   1.398   7.365   7.325
 5495POPC   C1B70267   0.951   7.379   6.281
 5495POPC   C2B70268   0.955   7.307   6.724
 5495POPC   C3B70269   0.994   7.560   7.109
 5495POPC   C4B70270   1.026   7.619   7.579
 5496POPC   NC370271  27.058  13.770   5.517
 5496POPC   PO470272  26.565  13.344   5.574
 5496POPC   GL170273  26.673  13.717   5.881
 5496POPC   GL270274  26.954  13.981   5.961
 5496POPC   C1A70275  26.633  13.778   6.326
 5496POPC   D2A70276  26.805  13.637   6.737
 5496POPC   C3A70277  26.638  13.499   7.126
 5496POPC   C4A70278  26.693  13.518   7.573
 5496POPC   C1B70279  27.118  13.896   6.371
 5496POPC   C2B70280  27.102  14.023   6.826
 5496POPC   C3B70281  27.062  13.782   7.198
 5496POPC   C4B70282  27.043  13.921   7.613
 5497POPC   NC370283  28.034  40.132   5.512
 5497POPC   PO470284  28.649  39.927   5.401
 5497POPC   GL170285  28.497  40.242   5.745
 5497POPC   GL270286  28.758  40.336   5.967
 5497POPC   C1A70287  28.295  40.266   6.191
 5497POPC   D2A70288  28.243  40.077   6.636
 5497POPC   C3A70289  28.371  40.259   7.053
 5497POPC   C4A70290  28.365  39.998   7.433
 5497POPC   C1B70291  28.724  39.881   6.169
 5497POPC   C2B70292  28.667  39.633   6.567
 5497POPC   C3B70293  28.684  39.848   6.978
 5497POPC   C4B70294  28.903  40.248   7.111
 5498POPC   NC370295  11.214  42.884   5.342
 5498POPC   PO470296  11.629  42.489   5.597
 5498POPC   GL170297  11.360  42.789   5.857
 5498POPC   GL270298  11.196  43.114   5.806
 5498POPC   C1A70299  11.220  42.839   6.287
 5498POPC   D2A70300  11.506  43.083   6.575
 5498POPC   C3A70301  11.655  42.882   6.967
 5498POPC   C4A70302  11.583  42.857   7.397
 5498POPC   C1B70303  11.097  43.309   6.216
 5498POPC   C2B70304  11.030  43.255   6.663
 5498POPC   C3B70305  11.232  43.138   7.094
 5498POPC   C4B70306  10.976  43.058   7.480
 5499POPC   NC370307  23.608  23.961   5.317
 5499POPC   PO470308  24.018  23.424   5.400
 5499POPC   GL170309  23.716  23.604   5.737
 5499POPC   GL270310  23.752  23.944   5.835
 5499POPC   C1A70311  23.688  23.492   6.215
 5499POPC   D2A70312  23.760  23.500   6.678
 5499POPC   C3A70313  23.449  23.385   7.036
 5499POPC   C4A70314  23.552  23.366   7.502
 5499POPC   C1B70315  23.406  23.906   6.142
 5499POPC   C2B70316  23.342  23.761   6.559
 5499POPC   C3B70317  23.514  23.885   6.978
 5499POPC   C4B70318  23.648  23.856   7.421
 5500POPC   NC370319  35.686  43.497   5.405
 5500POPC   PO470320  35.182  43.066   5.461
 5500POPC   GL170321  35.495  43.158   5.763
 5500POPC   GL270322  35.677  42.884   5.900
 5500POPC   C1A70323  35.329  43.248   6.167
 5500POPC   D2A70324  35.399  43.020   6.537
 5500POPC   C3A70325  35.312  43.297   6.874
 5500POPC   C4A70326  35.124  43.152   7.250
 5500POPC   C1B70327  35.830  43.167   6.232
 5500POPC   C2B70328  35.839  43.273   6.676
 5500POPC   C3B70329  35.768  43.153   7.135
 5500POPC   C4B70330  35.535  43.136   7.544
 5501POPC   NC370331   4.475  37.156   5.255
 5501POPC   PO470332   3.869  37.010   5.294
 5501POPC   GL170333   4.170  37.054   5.676
 5501POPC   GL270334   4.562  36.977   5.719
 5501POPC   C1A70335   4.275  37.015   6.138
 5501POPC   D2A70336   4.471  36.843   6.538
 5501POPC   C3A70337   4.179  36.883   6.884
 5501POPC   C4A70338   4.052  37.313   7.004
 5501POPC   C1B70339   4.724  36.719   6.081
 5501POPC   C2B70340   4.785  36.447   6.455
 5501POPC   C3B70341   4.565  36.451   6.870
 5501POPC   C4B70342   4.537  36.731   7.231
 5502POPC   NC370343  28.305   3.436   5.420
 5502POPC   PO470344  28.330   4.048   5.355
 5502POPC   GL170345  28.285   3.845   5.781
 5502POPC   GL270346  28.618   3.813   5.772
 5502POPC   C1A70347  28.433   3.497   6.144
 5502POPC   D2A70348  28.638   3.563   6.585
 5502POPC   C3A70349  28.422   3.516   6.997
 5502POPC   C4A70350  28.549   3.500   7.435
 5502POPC   C1B70351  28.669   3.948   6.202
 5502POPC   C2B70352  28.793   4.084   6.614
 5502POPC   C3B70353  28.615   3.979   7.016
 5502POPC   C4B70354  28.306   3.957   7.347
 5503POPC   NC370355  39.535  21.303   5.477
 5503POPC   PO470356  39.994  21.687   5.223
 5503POPC   GL170357  39.826  21.632   5.722
 5503POPC   GL270358  39.892  21.274   5.859
 5503POPC   C1A70359  39.754  21.609   6.199
 5503POPC   D2A70360  39.915  21.261   6.475
 5503POPC   C3A70361  40.061  21.316   6.905
 5503POPC   C4A70362  39.880  21.470   7.261
 5503POPC   C1B70363  39.572  21.037   6.106
 5503POPC   C2B70364  39.503  20.929   6.562
 5503POPC   C3B70365  39.669  21.019   7.008
 5503POPC   C4B70366  39.670  21.061   7.489
 5504POPC   NC370367  24.140  32.779   5.334
 5504POPC   PO470368  24.115  33.413   5.497
 5504POPC   GL170369  23.958  33.105   5.751
 5504POPC   GL270370  23.608  33.099   5.813
 5504POPC   C1A70371  23.967  33.077   6.194
 5504POPC   D2A70372  23.717  33.090   6.553
 5504POPC   C3A70373  23.942  32.927   6.875
 5504POPC   C4A70374  24.138  33.182   7.224
 5504POPC   C1B70375  23.510  32.806   6.140
 5504POPC   C2B70376  23.336  32.758   6.551
 5504POPC   C3B70377  23.479  32.677   6.951
 5504POPC   C4B70378  23.639  32.937   7.283
 5505POPC   NC370379   2.623  24.161   5.459
 5505POPC   PO470380   2.691  24.755   5.163
 5505POPC   GL170381   2.880  24.611   5.576
 5505POPC   GL270382   2.563  24.583   5.728
 5505POPC   C1A70383   2.963  24.433   6.043
 5505POPC   D2A70384   3.002  24.146   6.450
 5505POPC   C3A70385   2.902  24.316   6.881
 5505POPC   C4A70386   3.153  24.618   7.110
 5505POPC   C1B70387   2.460  24.576   6.150
 5505POPC   C2B70388   2.686  24.582   6.493
 5505POPC   C3B70389   2.830  24.879   6.758
 5505POPC   C4B70390   2.684  24.807   7.139
 5506POPC   NC370391  25.917  40.439   5.122
 5506POPC   PO470392  26.169  40.943   5.469
 5506POPC   GL170393  26.164  40.895   5.883
 5506POPC   GL270394  25.824  41.013   5.855
 5506POPC   C1A70395  26.272  40.556   6.196
 5506POPC   D2A70396  26.198  40.334   6.589
 5506POPC   C3A70397  26.240  40.638   6.906
 5506POPC   C4A70398  26.403  41.032   7.100
 5506POPC   C1B70399  25.852  40.881   6.295
 5506POPC   C2B70400  25.950  41.082   6.698
 5506POPC   C3B70401  25.875  40.915   7.109
 5506POPC   C4B70402  25.665  40.513   7.185
 5507POPC   NC370403  26.188  43.151   5.394
 5507POPC   PO470404  25.563  43.466   5.463
 5507POPC   GL170405  25.836  43.286   5.814
 5507POPC   GL270406  26.055  42.958   5.851
 5507POPC   C1A70407  25.705  43.084   6.190
 5507POPC   D2A70408  25.854  43.085   6.585
 5507POPC   C3A70409  25.742  43.205   6.956
 5507POPC   C4A70410  26.080  43.319   7.185
 5507POPC   C1B70411  26.206  42.842   6.285
 5507POPC   C2B70412  26.089  42.638   6.694
 5507POPC   C3B70413  26.108  42.793   7.105
 5507POPC   C4B70414  26.242  42.922   7.508
 5508POPC   NC370415   7.878  10.592   5.627
 5508POPC   PO470416   8.344  10.318   5.194
 5508POPC   GL170417   8.316  10.340   5.690
 5508POPC   GL270418   8.107  10.157   5.821
 5508POPC   C1A70419   8.196  10.498   6.212
 5508POPC   D2A70420   8.170  10.883   6.525
 5508POPC   C3A70421   8.345  10.821   6.942
 5508POPC   C4A70422   8.701  10.724   7.189
 5508POPC   C1B70423   8.528  10.142   6.089
 5508POPC   C2B70424   8.451  10.168   6.538
 5508POPC   C3B70425   8.109  10.395   6.756
 5508POPC   C4B70426   8.007  10.492   7.198
 5509POPC   NC370427  30.633   5.485   5.178
 5509POPC   PO470428  30.578   6.062   5.435
 5509POPC   GL170429  30.862   6.002   5.792
 5509POPC   GL270430  31.116   5.766   5.684
 5509POPC   C1A70431  30.809   6.003   6.252
 5509POPC   D2A70432  30.572   6.125   6.607
 5509POPC   C3A70433  30.467   5.772   6.878
 5509POPC   C4A70434  30.703   5.950   7.185
 5509POPC   C1B70435  31.169   5.666   6.142
 5509POPC   C2B70436  30.843   5.564   6.514
 5509POPC   C3B70437  30.924   5.548   6.958
 5509POPC   C4B70438  31.329   5.505   7.132
 5510POPC   NC370439  24.323  23.836   5.439
 5510POPC   PO470440  24.794  23.355   5.491
 5510POPC   GL170441  24.575  23.533   5.830
 5510POPC   GL270442  24.229  23.496   5.862
 5510POPC   C1A70443  24.600  23.934   6.063
 5510POPC   D2A70444  24.764  24.076   6.458
 5510POPC   C3A70445  24.694  23.837   6.823
 5510POPC   C4A70446  24.412  23.738   7.171
 5510POPC   C1B70447  24.113  23.793   6.197
 5510POPC   C2B70448  24.231  24.029   6.582
 5510POPC   C3B70449  24.010  23.979   6.982
 5510POPC   C4B70450  23.933  23.540   7.156
 5511POPC   NC370451  17.368  32.414   5.367
 5511POPC   PO470452  17.898  32.045   5.420
 5511POPC   GL170453  17.743  32.317   5.739
 5511POPC   GL270454  17.648  32.016   5.921
 5511POPC   C1A70455  17.670  32.445   6.183
 5511POPC   D2A70456  17.308  32.471   6.471
 5511POPC   C3A70457  17.482  32.408   6.863
 5511POPC   C4A70458  17.350  32.434   7.257
 5511POPC   C1B70459  17.231  32.092   6.130
 5511POPC   C2B70460  17.075  31.999   6.576
 5511POPC   C3B70461  17.259  31.979   7.022
 5511POPC   C4B70462  17.704  32.046   7.203
 5512POPC   NC370463  38.632  27.969   5.481
 5512POPC   PO470464  38.255  27.502   5.362
 5512POPC   GL170465  38.361  27.556   5.764
 5512POPC   GL270466  38.213  27.863   5.787
 5512POPC   C1A70467  38.433  27.606   6.205
 5512POPC   D2A70468  38.306  27.376   6.568
 5512POPC   C3A70469  38.464  27.555   6.926
 5512POPC   C4A70470  38.738  27.398   7.224
 5512POPC   C1B70471  38.031  27.935   6.158
 5512POPC   C2B70472  38.028  27.806   6.549
 5512POPC   C3B70473  38.165  27.959   6.946
 5512POPC   C4B70474  38.185  27.763   7.331
 5513POPC   NC370475  12.051  18.552   5.227
 5513POPC   PO470476  12.352  18.095   5.616
 5513POPC   GL170477  12.056  18.399   5.779
 5513POPC   GL270478  11.982  18.113   5.967
 5513POPC   C1A70479  11.979  18.570   6.197
 5513POPC   D2A70480  11.916  18.306   6.559
 5513POPC   C3A70481  11.972  18.514   6.945
 5513POPC   C4A70482  11.841  18.347   7.346
 5513POPC   C1B70483  12.335  18.162   6.277
 5513POPC   C2B70484  12.583  18.143   6.669
 5513POPC   C3B70485  12.405  18.265   7.084
 5513POPC   C4B70486  12.331  18.214   7.543
 5514POPC   NC370487  26.403  14.525   5.472
 5514POPC   PO470488  27.033  14.235   5.492
 5514POPC   GL170489  26.813  14.463   5.788
 5514POPC   GL270490  26.517  14.236   5.868
 5514POPC   C1A70491  27.006  14.629   6.136
 5514POPC   D2A70492  27.003  14.381   6.480
 5514POPC   C3A70493  26.893  14.516   6.892
 5514POPC   C4A70494  27.051  14.341   7.287
 5514POPC   C1B70495  26.539  14.481   6.257
 5514POPC   C2B70496  26.420  14.621   6.694
 5514POPC   C3B70497  26.457  14.360   7.092
 5514POPC   C4B70498  26.612  13.987   7.329
 5515POPC   NC370499  18.661  40.424   5.483
 5515POPC   PO470500  18.049  40.836   5.448
 5515POPC   GL170501  18.092  40.724   5.873
 5515POPC   GL270502  18.427  40.631   5.877
 5515POPC   C1A70503  18.150  40.689   6.356
 5515POPC   D2A70504  18.337  41.009   6.625
 5515POPC   C3A70505  18.136  41.113   7.007
 5515POPC   C4A70506  17.876  40.823   7.223
 5515POPC   C1B70507  18.609  40.455   6.251
 5515POPC   C2B70508  18.575  40.582   6.673
 5515POPC   C3B70509  18.445  40.714   7.165
 5515POPC   C4B70510  18.604  40.514   7.530
 5516POPC   NC370511  38.911  40.283   5.469
 5516POPC   PO470512  39.411  40.738   5.413
 5516POPC   GL170513  39.276  40.913   5.800
 5516POPC   GL270514  38.907  40.997   5.769
 5516POPC   C1A70515  39.496  40.890   6.195
 5516POPC   D2A70516  39.324  40.752   6.581
 5516POPC   C3A70517  39.441  40.878   6.991
 5516POPC   C4A70518  39.488  40.590   7.288
 5516POPC   C1B70519  38.949  40.722   6.150
 5516POPC   C2B70520  38.867  40.548   6.559
 5516POPC   C3B70521  39.040  40.488   6.982
 5516POPC   C4B70522  38.991  40.733   7.357
 5517POPC   NC370523   8.690   9.204   5.499
 5517POPC   PO470524   9.176   8.757   5.454
 5517POPC   GL170525   8.958   8.853   5.823
 5517POPC   GL270526   9.238   9.075   5.930
 5517POPC   C1A70527   8.711   8.881   6.219
 5517POPC   D2A70528   8.568   9.023   6.629
 5517POPC   C3A70529   8.880   9.051   6.947
 5517POPC   C4A70530   8.969   9.388   7.242
 5517POPC   C1B70531   9.312   8.682   6.168
 5517POPC   C2B70532   9.070   8.645   6.551
 5517POPC   C3B70533   9.303   8.688   6.898
 5517POPC   C4B70534   9.320   8.991   7.210
 5518POPC   NC370535  32.105  40.146   5.560
 5518POPC   PO470536  32.634  39.776   5.528
 5518POPC   GL170537  32.380  39.745   5.867
 5518POPC   GL270538  31.988  39.757   5.873
 5518POPC   C1A70539  32.392  39.925   6.244
 5518POPC   D2A70540  32.215  39.815   6.617
 5518POPC   C3A70541  32.451  40.026   6.928
 5518POPC   C4A70542  32.551  39.891   7.302
 5518POPC   C1B70543  31.905  40.075   6.217
 5518POPC   C2B70544  31.780  40.089   6.656
 5518POPC   C3B70545  31.990  40.143   7.060
 5518POPC   C4B70546  32.051  39.998   7.499
 5519POPC   NC370547  13.495   6.575   5.454
 5519POPC   PO470548  14.050   6.875   5.472
 5519POPC   GL170549  13.842   6.635   5.822
 5519POPC   GL270550  13.935   6.288   5.791
 5519POPC   C1A70551  13.672   6.718   6.241
 5519POPC   D2A70552  13.708   6.885   6.685
 5519POPC   C3A70553  13.410   6.753   7.041
 5519POPC   C4A70554  13.509   6.523   7.451
 5519POPC   C1B70555  14.042   6.354   6.219
 5519POPC   C2B70556  13.791   6.380   6.606
 5519POPC   C3B70557  13.812   6.446   7.019
 5519POPC   C4B70558  13.972   6.230   7.363
 5520POPC   NC370559   1.067  40.479   5.255
 5520POPC   PO470560   1.405  41.048   5.369
 5520POPC   GL170561   1.272  40.927   5.797
 5520POPC   GL270562   1.236  40.559   5.743
 5520POPC   C1A70563   1.045  41.111   6.186
 5520POPC   D2A70564   0.937  41.139   6.634
 5520POPC   C3A70565   1.196  40.966   6.932
 5520POPC   C4A70566   1.345  41.193   7.282
 5520POPC   C1B70567   0.983  40.602   6.123
 5520POPC   C2B70568   1.111  40.572   6.549
 5520POPC   C3B70569   1.298  40.397   6.900
 5520POPC   C4B70570   1.116  40.547   7.247
 5521POPC   NC370571  41.788  32.665   5.482
 5521POPC   PO470572  41.252  32.320   5.674
 5521POPC   GL170573  41.433  32.174   5.982
 5521POPC   GL270574  41.770  32.208   5.865
 5521POPC   C1A70575  41.431  32.425   6.364
 5521POPC   D2A70576  41.151  32.741   6.583
 5521POPC   C3A70577  41.210  32.682   7.019
 5521POPC   C4A70578  41.509  32.338   7.153
 5521POPC   C1B70579  41.745  31.963   6.292
 5521POPC   C2B70580  41.465  31.941   6.637
 5521POPC   C3B70581  41.682  31.899   7.007
 5521POPC   C4B70582  41.857  31.978   7.415
 5522POPC   NC370583   9.167  25.836   5.340
 5522POPC   PO470584   8.595  26.071   5.522
 5522POPC   GL170585   8.886  25.890   5.778
 5522POPC   GL270586   9.124  26.174   5.742
 5522POPC   C1A70587   8.981  25.888   6.226
 5522POPC   D2A70588   8.800  25.956   6.655
 5522POPC   C3A70589   9.090  25.848   6.997
 5522POPC   C4A70590   9.235  25.932   7.416
 5522POPC   C1B70591   8.914  26.379   6.114
 5522POPC   C2B70592   9.041  26.515   6.547
 5522POPC   C3B70593   8.943  26.340   6.984
 5522POPC   C4B70594   8.762  26.247   7.418
 5523POPC   NC370595  42.111  25.399   5.499
 5523POPC   PO470596  42.483  24.886   5.265
 5523POPC   GL170597  42.401  24.998   5.722
 5523POPC   GL270598  42.542  25.335   5.784
 5523POPC   C1A70599  42.275  25.109   6.183
 5523POPC   D2A70600  42.275  24.902   6.583
 5523POPC   C3A70601  42.431  25.050   6.971
 5523POPC   C4A70602  42.266  25.205   7.358
 5523POPC   C1B70603  42.426  25.599   6.162
 5523POPC   C2B70604  42.238  25.525   6.577
 5523POPC   C3B70605  42.374  25.578   6.994
 5523POPC   C4B70606  42.621  25.562   7.374
 5524POPC   NC370607   2.327  16.246   5.456
 5524POPC   PO470608   1.707  15.861   5.542
 5524POPC   GL170609   2.073  15.949   5.775
 5524POPC   GL270610   2.218  15.632   5.876
 5524POPC   C1A70611   2.113  16.193   6.162
 5524POPC   D2A70612   2.146  16.007   6.576
 5524POPC   C3A70613   1.909  16.194   6.902
 5524POPC   C4A70614   1.938  16.055   7.317
 5524POPC   C1B70615   1.876  15.715   6.182
 5524POPC   C2B70616   1.769  15.583   6.569
 5524POPC   C3B70617   1.955  15.682   6.948
 5524POPC   C4B70618   1.781  15.568   7.327
 5525POPC   NC370619  44.574  27.935   5.160
 5525POPC   PO470620  44.888  28.357   5.585
 5525POPC   GL170621  44.578  28.249   5.938
 5525POPC   GL270622  44.230  28.433   5.992
 5525POPC   C1A70623  44.643  28.497   6.312
 5525POPC   D2A70624  44.581  28.529   6.755
 5525POPC   C3A70625  44.740  28.167   6.864
 5525POPC   C4A70626   0.020  27.976   7.091
 5525POPC   C1B70627  44.155  28.496   6.439
 5525POPC   C2B70628  44.236  28.142   6.689
 5525POPC   C3B70629  44.277  28.172   7.105
 5525POPC   C4B70630  44.323  28.619   7.199
 5526POPC   NC370631  44.362  40.283   5.510
 5526POPC   PO470632  43.832  39.957   5.251
 5526POPC   GL170633  43.703  40.049   5.683
 5526POPC   GL270634  44.046  40.066   5.845
 5526POPC   C1A70635  43.671  40.024   6.161
 5526POPC   D2A70636  44.021  39.978   6.460
 5526POPC   C3A70637  43.923  39.895   6.906
 5526POPC   C4A70638  43.718  40.171   7.219
 5526POPC   C1B70639  44.258  40.344   6.153
 5526POPC   C2B70640  44.422  40.359   6.553
 5526POPC   C3B70641  44.216  40.340   6.953
 5526POPC   C4B70642  44.208  40.064   7.311
 5527POPC   NC370643  17.821  11.034   5.452
 5527POPC   PO470644  17.390  11.512   5.309
 5527POPC   GL170645  17.566  11.591   5.748
 5527POPC   GL270646  17.917  11.490   5.723
 5527POPC   C1A70647  17.475  11.576   6.217
 5527POPC   D2A70648  17.508  11.323   6.598
 5527POPC   C3A70649  17.368  11.294   7.023
 5527POPC   C4A70650  17.513  10.918   7.199
 5527POPC   C1B70651  17.959  11.453   6.177
 5527POPC   C2B70652  17.875  11.680   6.573
 5527POPC   C3B70653  17.849  11.549   7.003
 5527POPC   C4B70654  17.656  11.476   7.382
 5528POPC   NC370655  32.967  43.315   5.397
 5528POPC   PO470656  32.589  42.774   5.621
 5528POPC   GL170657  32.897  43.037   5.868
 5528POPC   GL270658  33.170  43.321   5.864
 5528POPC   C1A70659  33.031  43.091   6.308
 5528POPC   D2A70660  33.110  43.084   6.756
 5528POPC   C3A70661  32.814  42.930   7.077
 5528POPC   C4A70662  33.131  42.834   7.371
 5528POPC   C1B70663  32.813  43.531   6.091
 5528POPC   C2B70664  32.583  43.583   6.495
 5528POPC   C3B70665  32.707  43.472   6.939
 5528POPC   C4B70666  33.084  43.354   7.198
 5529POPC   NC370667   9.035  42.476   5.250
 5529POPC   PO470668   8.997  41.792   5.469
 5529POPC   GL170669   9.092  42.157   5.639
 5529POPC   GL270670   8.775  42.290   5.683
 5529POPC   C1A70671   9.192  42.289   6.022
 5529POPC   D2A70672   9.053  42.123   6.423
 5529POPC   C3A70673   9.125  42.197   6.855
 5529POPC   C4A70674   9.097  41.916   7.195
 5529POPC   C1B70675   8.697  42.346   6.123
 5529POPC   C2B70676   8.553  42.186   6.475
 5529POPC   C3B70677   8.649  42.038   6.809
 5529POPC   C4B70678   8.652  42.219   7.181
 5530POPC   NC370679  20.777   9.623   5.298
 5530POPC   PO470680  20.376  10.184   5.182
 5530POPC   GL170681  20.515  10.004   5.604
 5530POPC   GL270682  20.853   9.955   5.726
 5530POPC   C1A70683  20.484   9.855   6.065
 5530POPC   D2A70684  20.638   9.784   6.496
 5530POPC   C3A70685  20.531   9.857   6.935
 5530POPC   C4A70686  20.371   9.514   7.171
 5530POPC   C1B70687  20.977   9.667   6.072
 5530POPC   C2B70688  21.004   9.434   6.493
 5530POPC   C3B70689  20.917   9.499   6.959
 5530POPC   C4B70690  20.769   9.201   7.288
 5531POPC   NC370691  11.580   6.114   5.363
 5531POPC   PO470692  11.667   5.434   5.645
 5531POPC   GL170693  11.407   5.736   5.900
 5531POPC   GL270694  11.216   6.049   5.837
 5531POPC   C1A70695  11.221   5.843   6.330
 5531POPC   D2A70696  11.424   6.002   6.714
 5531POPC   C3A70697  11.357   5.899   7.133
 5531POPC   C4A70698  11.230   5.481   7.169
 5531POPC   C1B70699  10.861   6.187   6.178
 5531POPC   C2B70700  10.966   6.234   6.629
 5531POPC   C3B70701  10.853   6.136   7.065
 5531POPC   C4B70702  11.001   6.043   7.493
 5532POPC   NC370703  38.830   0.222   5.548
 5532POPC   PO470704  38.487   0.761   5.418
 5532POPC   GL170705  38.441   0.528   5.812
 5532POPC   GL270706  38.160   0.291   5.853
 5532POPC   C1A70707  38.450   0.484   6.266
 5532POPC   D2A70708  38.634   0.511   6.663
 5532POPC   C3A70709  38.437   0.409   7.039
 5532POPC   C4A70710  38.351   0.295   7.478
 5532POPC   C1B70711  38.120   0.099   6.256
 5532POPC   C2B70712  38.362   0.049   6.647
 5532POPC   C3B70713  38.759   0.012   6.871
 5532POPC   C4B70714  38.828   0.189   7.286
 5533POPC   NC370715  38.729  18.946   5.411
 5533POPC   PO470716  38.102  18.696   5.502
 5533POPC   GL170717  38.330  18.990   5.854
 5533POPC   GL270718  38.690  19.107   5.895
 5533POPC   C1A70719  38.274  19.322   6.173
 5533POPC   D2A70720  38.507  19.513   6.517
 5533POPC   C3A70721  38.421  19.272   6.896
 5533POPC   C4A70722  38.467  19.271   7.324
 5533POPC   C1B70723  38.810  18.743   6.144
 5533POPC   C2B70724  38.668  18.547   6.518
 5533POPC   C3B70725  38.788  18.601   6.948
 5533POPC   C4B70726  38.483  18.783   7.237
 5534POPC   NC370727  21.270  24.801   4.809
 5534POPC   PO470728  21.322  24.454   5.350
 5534POPC   GL170729  21.314  24.451   5.771
 5534POPC   GL270730  21.612  24.645   5.769
 5534POPC   C1A70731  21.462  24.290   6.164
 5534POPC   D2A70732  21.250  24.228   6.533
 5534POPC   C3A70733  21.375  24.349   6.936
 5534POPC   C4A70734  21.109  24.196   7.262
 5534POPC   C1B70735  21.468  24.800   6.145
 5534POPC   C2B70736  21.407  24.725   6.568
 5534POPC   C3B70737  21.448  24.952   6.937
 5534POPC   C4B70738  21.482  24.943   7.350
 5535POPC   NC370739  21.596  33.230   5.472
 5535POPC   PO470740  22.294  32.965   5.534
 5535POPC   GL170741  21.960  33.106   5.854
 5535POPC   GL270742  21.694  32.841   5.779
 5535POPC   C1A70743  21.876  33.279   6.317
 5535POPC   D2A70744  21.878  33.225   6.809
 5535POPC   C3A70745  22.151  33.323   7.149
 5535POPC   C4A70746  21.926  33.332   7.561
 5535POPC   C1B70747  21.803  32.755   6.186
 5535POPC   C2B70748  21.978  32.772   6.567
 5535POPC   C3B70749  21.768  32.753   6.955
 5535POPC   C4B70750  21.923  32.907   7.290
 5536POPC   NC370751   6.862   4.170   5.461
 5536POPC   PO470752   6.423   4.650   5.537
 5536POPC   GL170753   6.613   4.383   5.846
 5536POPC   GL270754   6.892   4.589   5.894
 5536POPC   C1A70755   6.874   4.187   6.177
 5536POPC   D2A70756   6.970   4.352   6.583
 5536POPC   C3A70757   6.724   4.290   6.928
 5536POPC   C4A70758   6.726   4.066   7.222
 5536POPC   C1B70759   6.648   4.635   6.302
 5536POPC   C2B70760   6.479   4.680   6.742
 5536POPC   C3B70761   6.525   4.674   7.232
 5536POPC   C4B70762   6.456   4.726   7.707
 5537POPC   NC370763  16.397  13.808   5.416
 5537POPC   PO470764  16.846  13.396   5.221
 5537POPC   GL170765  16.818  13.502   5.677
 5537POPC   GL270766  16.834  13.856   5.729
 5537POPC   C1A70767  16.734  13.560   6.154
 5537POPC   D2A70768  16.789  13.474   6.614
 5537POPC   C3A70769  16.591  13.640   7.004
 5537POPC   C4A70770  16.792  13.751   7.380
 5537POPC   C1B70771  16.964  14.035   6.129
 5537POPC   C2B70772  16.844  14.044   6.552
 5537POPC   C3B70773  17.030  13.914   6.933
 5537POPC   C4B70774  17.237  14.042   7.300
 5538POPC   NC370775  21.029   0.057   5.212
 5538POPC   PO470776  21.457  44.742   5.583
 5538POPC   GL170777  21.127  44.759   5.893
 5538POPC   GL270778  21.407  44.771   6.161
 5538POPC   C1A70779  20.955  44.977   6.273
 5538POPC   D2A70780  20.975  44.689   6.615
 5538POPC   C3A70781  21.344  44.691   6.885
 5538POPC   C4A70782  21.391  44.965   7.241
 5538POPC   C1B70783  21.603  44.390   6.428
 5538POPC   C2B70784  21.573  44.229   6.887
 5538POPC   C3B70785  21.477  44.372   7.346
 5538POPC   C4B70786  21.386  44.332   7.848
 5539POPC   NC370787  10.728  42.241   5.400
 5539POPC   PO470788  10.111  42.426   5.393
 5539POPC   GL170789  10.354  42.179   5.796
 5539POPC   GL270790  10.709  42.118   5.873
 5539POPC   C1A70791  10.461  41.986   6.258
 5539POPC   D2A70792  10.680  42.040   6.631
 5539POPC   C3A70793  10.430  42.068   6.993
 5539POPC   C4A70794  10.494  42.166   7.426
 5539POPC   C1B70795  10.791  42.409   6.209
 5539POPC   C2B70796  10.635  42.568   6.614
 5539POPC   C3B70797  10.595  42.538   7.070
 5539POPC   C4B70798  10.360  42.693   7.445
 5540POPC   NC370799  25.939   9.235   5.434
 5540POPC   PO470800  25.651   8.599   5.504
 5540POPC   GL170801  25.955   8.780   5.789
 5540POPC   GL270802  26.321   8.664   5.888
 5540POPC   C1A70803  26.000   8.722   6.261
 5540POPC   D2A70804  26.280   8.813   6.593
 5540POPC   C3A70805  25.931   8.906   6.832
 5540POPC   C4A70806  25.786   8.905   7.223
 5540POPC   C1B70807  26.232   9.120   6.049
 5540POPC   C2B70808  26.021   9.244   6.441
 5540POPC   C3B70809  26.229   9.317   6.859
 5540POPC   C4B70810  26.288   9.043   7.230
 5541POPC   NC370811  27.065  28.711   5.487
 5541POPC   PO470812  26.778  29.387   5.484
 5541POPC   GL170813  26.851  29.041   5.826
 5541POPC   GL270814  27.029  29.291   5.936
 5541POPC   C1A70815  26.994  28.888   6.259
 5541POPC   D2A70816  27.197  29.018   6.670
 5541POPC   C3A70817  27.013  29.017   7.065
 5541POPC   C4A70818  26.946  28.769   7.421
 5541POPC   C1B70819  26.597  29.454   6.096
 5541POPC   C2B70820  26.387  29.402   6.490
 5541POPC   C3B70821  26.442  29.533   6.886
 5541POPC   C4B70822  26.630  29.321   7.196
 5542POPC   NC370823  43.923  37.844   5.461
 5542POPC   PO470824  43.442  37.495   5.427
 5542POPC   GL170825  43.651  37.582   5.838
 5542POPC   GL270826  44.001  37.559   5.893
 5542POPC   C1A70827  43.710  37.684   6.287
 5542POPC   D2A70828  43.543  37.582   6.691
 5542POPC   C3A70829  43.718  37.830   6.998
 5542POPC   C4A70830  43.806  38.017   7.383
 5542POPC   C1B70831  44.221  37.612   6.270
 5542POPC   C2B70832  44.145  37.522   6.707
 5542POPC   C3B70833  44.335  37.660   7.082
 5542POPC   C4B70834  44.180  37.717   7.514
 5543POPC   NC370835  42.478  27.711   5.521
 5543POPC   PO470836  42.019  27.344   5.235
 5543POPC   GL170837  42.073  27.402   5.693
 5543POPC   GL270838  42.404  27.357   5.876
 5543POPC   C1A70839  42.100  27.708   6.057
 5543POPC   D2A70840  42.168  27.885   6.475
 5543POPC   C3A70841  42.189  27.691   6.924
 5543POPC   C4A70842  42.477  27.646   7.285
 5543POPC   C1B70843  42.725  27.151   6.137
 5543POPC   C2B70844  42.899  27.327   6.520
 5543POPC   C3B70845  42.710  27.350   6.917
 5543POPC   C4B70846  42.724  27.192   7.324
 5544POPC   NC370847   0.478  15.653   5.066
 5544POPC   PO470848   0.601  15.041   5.366
 5544POPC   GL170849   0.590  15.192   5.796
 5544POPC   GL270850   0.592  15.541   5.707
 5544POPC   C1A70851   0.672  15.076   6.269
 5544POPC   D2A70852   0.386  14.953   6.606
 5544POPC   C3A70853   0.347  15.047   7.036
 5544POPC   C4A70854   0.136  15.395   7.255
 5544POPC   C1B70855   0.906  15.493   6.082
 5544POPC   C2B70856   0.762  15.540   6.538
 5544POPC   C3B70857   0.612  15.483   6.979
 5544POPC   C4B70858   0.702  15.247   7.371
 5545POPC   NC370859  23.423  31.407   5.433
 5545POPC   PO470860  24.126  31.394   5.661
 5545POPC   GL170861  23.737  31.351   5.860
 5545POPC   GL270862  23.527  31.659   5.885
 5545POPC   C1A70863  23.668  31.297   6.295
 5545POPC   D2A70864  23.498  31.492   6.640
 5545POPC   C3A70865  23.686  31.266   6.979
 5545POPC   C4A70866  23.694  31.066   7.411
 5545POPC   C1B70867  23.896  31.748   6.167
 5545POPC   C2B70868  24.021  31.586   6.570
 5545POPC   C3B70869  23.807  31.802   6.871
 5545POPC   C4B70870  23.864  31.931   7.222
 5546POPC   NC370871  41.675  13.877   5.349
 5546POPC   PO470872  41.117  13.764   5.493
 5546POPC   GL170873  41.454  13.657   5.818
 5546POPC   GL270874  41.832  13.566   5.722
 5546POPC   C1A70875  41.422  13.744   6.292
 5546POPC   D2A70876  41.642  13.812   6.701
 5546POPC   C3A70877  41.465  13.620   7.061
 5546POPC   C4A70878  41.300  13.732   7.452
 5546POPC   C1B70879  41.904  13.679   6.134
 5546POPC   C2B70880  41.920  13.422   6.490
 5546POPC   C3B70881  41.923  13.399   6.923
 5546POPC   C4B70882  41.986  13.756   7.172
 5547POPC   NC370883  33.385  10.762   5.302
 5547POPC   PO470884  34.133  10.745   5.300
 5547POPC   GL170885  33.815  10.873   5.633
 5547POPC   GL270886  33.598  10.594   5.737
 5547POPC   C1A70887  33.838  10.833   6.104
 5547POPC   D2A70888  34.069  10.652   6.464
 5547POPC   C3A70889  33.849  10.647   6.854
 5547POPC   C4A70890  33.986  10.526   7.233
 5547POPC   C1B70891  33.641  10.345   6.132
 5547POPC   C2B70892  33.796  10.199   6.539
 5547POPC   C3B70893  33.675  10.145   6.965
 5547POPC   C4B70894  33.505  10.433   7.256
 5548POPC   NC370895  12.537  21.443   5.706
 5548POPC   PO470896  13.144  21.573   5.377
 5548POPC   GL170897  13.004  21.333   5.809
 5548POPC   GL270898  12.825  21.013   5.737
 5548POPC   C1A70899  12.789  21.444   6.279
 5548POPC   D2A70900  12.923  21.636   6.668
 5548POPC   C3A70901  12.609  21.537   6.936
 5548POPC   C4A70902  12.587  21.425   7.361
 5548POPC   C1B70903  12.861  20.956   6.189
 5548POPC   C2B70904  12.669  21.055   6.612
 5548POPC   C3B70905  12.879  21.126   7.009
 5548POPC   C4B70906  13.047  21.073   7.415
 5549POPC   NC370907  39.956  13.838   5.474
 5549POPC   PO470908  40.272  13.243   5.617
 5549POPC   GL170909  39.895  13.373   5.874
 5549POPC   GL270910  39.770  13.709   5.919
 5549POPC   C1A70911  39.808  13.425   6.343
 5549POPC   D2A70912  39.596  13.595   6.714
 5549POPC   C3A70913  39.660  13.481   7.154
 5549POPC   C4A70914  40.057  13.389   7.347
 5549POPC   C1B70915  40.199  13.735   6.148
 5549POPC   C2B70916  40.282  13.881   6.581
 5549POPC   C3B70917  40.052  13.736   6.943
 5549POPC   C4B70918  39.932  13.895   7.363
 5550POPC   NC370919  15.279   6.191   5.239
 5550POPC   PO470920  15.117   5.556   5.551
 5550POPC   GL170921  15.178   5.905   5.819
 5550POPC   GL270922  15.535   5.869   5.787
 5550POPC   C1A70923  14.959   5.933   6.235
 5550POPC   D2A70924  14.753   5.671   6.556
 5550POPC   C3A70925  14.923   5.624   6.980
 5550POPC   C4A70926  14.772   5.633   7.393
 5550POPC   C1B70927  15.412   5.599   6.171
 5550POPC   C2B70928  15.302   5.725   6.579
 5550POPC   C3B70929  15.286   5.977   6.919
 5550POPC   C4B70930  15.436   5.770   7.268
 5551POPC   NC370931  35.290  28.768   5.284
 5551POPC   PO470932  35.749  28.203   5.230
 5551POPC   GL170933  35.545  28.418   5.596
 5551POPC   GL270934  35.176  28.374   5.632
 5551POPC   C1A70935  35.513  28.365   6.062
 5551POPC   D2A70936  35.659  28.415   6.505
 5551POPC   C3A70937  35.659  28.185   6.898
 5551POPC   C4A70938  35.392  28.397   7.224
 5551POPC   C1B70939  35.015  28.537   6.041
 5551POPC   C2B70940  35.134  28.449   6.456
 5551POPC   C3B70941  35.061  28.580   6.870
 5551POPC   C4B70942  34.877  28.401   7.219
 5552POPC   NC370943  27.331  22.674   5.465
 5552POPC   PO470944  27.802  23.180   5.292
 5552POPC   GL170945  27.648  23.104   5.762
 5552POPC   GL270946  27.480  22.807   5.924
 5552POPC   C1A70947  27.635  23.164   6.255
 5552POPC   D2A70948  27.566  22.819   6.596
 5552POPC   C3A70949  27.760  22.862   6.992
 5552POPC   C4A70950  27.628  23.113   7.323
 5552POPC   C1B70951  27.187  22.901   6.269
 5552POPC   C2B70952  27.051  23.074   6.671
 5552POPC   C3B70953  27.257  22.929   7.020
 5552POPC   C4B70954  27.392  22.523   7.229
 5553POPC   NC370955  25.795  42.013   5.440
 5553POPC   PO470956  25.995  42.702   5.403
 5553POPC   GL170957  26.012  42.413   5.787
 5553POPC   GL270958  25.715  42.190   5.905
 5553POPC   C1A70959  26.030  42.363   6.253
 5553POPC   D2A70960  26.158  42.129   6.610
 5553POPC   C3A70961  26.413  42.258   6.918
 5553POPC   C4A70962  26.364  42.393   7.328
 5553POPC   C1B70963  25.550  42.134   6.343
 5553POPC   C2B70964  25.692  42.016   6.791
 5553POPC   C3B70965  25.907  42.298   7.091
 5553POPC   C4B70966  25.918  42.512   7.505
 5554POPC   NC370967   3.716  34.875   5.405
 5554POPC   PO470968   3.875  34.320   5.361
 5554POPC   GL170969   3.885  34.328   5.808
 5554POPC   GL270970   3.771  34.685   5.879
 5554POPC   C1A70971   3.703  34.286   6.238
 5554POPC   D2A70972   3.321  34.328   6.538
 5554POPC   C3A70973   3.350  34.565   6.964
 5554POPC   C4A70974   3.637  34.449   7.283
 5554POPC   C1B70975   3.755  34.797   6.312
 5554POPC   C2B70976   3.880  34.992   6.673
 5554POPC   C3B70977   3.835  34.850   7.079
 5554POPC   C4B70978   3.507  34.948   7.383
 5555POPC   NC370979  36.447  32.512   5.257
 5555POPC   PO470980  36.003  32.102   5.455
 5555POPC   GL170981  36.125  32.336   5.762
 5555POPC   GL270982  36.446  32.226   5.764
 5555POPC   C1A70983  36.013  32.507   6.168
 5555POPC   D2A70984  35.903  32.305   6.567
 5555POPC   C3A70985  35.905  32.543   6.982
 5555POPC   C4A70986  35.954  32.399   7.418
 5555POPC   C1B70987  36.333  32.108   6.196
 5555POPC   C2B70988  36.400  32.200   6.597
 5555POPC   C3B70989  36.261  32.182   7.008
 5555POPC   C4B70990  36.478  32.322   7.384
 5556POPC   NC370991  34.244  10.298   5.358
 5556POPC   PO470992  34.817  10.587   5.235
 5556POPC   GL170993  34.790  10.423   5.661
 5556POPC   GL270994  34.816  10.043   5.648
 5556POPC   C1A70995  34.651  10.627   6.088
 5556POPC   D2A70996  34.554  10.849   6.488
 5556POPC   C3A70997  34.609  10.643   6.903
 5556POPC   C4A70998  34.818  10.620   7.321
 5556POPC   C1B70999  34.525  10.130   6.012
 5556POPC   C2B71000  34.504  10.221   6.472
 5556POPC   C3B71001  34.256  10.247   6.863
 5556POPC   C4B71002  34.440  10.300   7.267
 5557POPC   NC371003   3.153  26.861   5.496
 5557POPC   PO471004   2.525  26.954   5.474
 5557POPC   GL171005   2.672  26.675   5.769
 5557POPC   GL271006   2.964  26.442   5.726
 5557POPC   C1A71007   2.606  26.770   6.201
 5557POPC   D2A71008   2.880  26.997   6.464
 5557POPC   C3A71009   2.776  26.916   6.880
 5557POPC   C4A71010   2.868  27.119   7.279
 5557POPC   C1B71011   2.830  26.305   6.104
 5557POPC   C2B71012   2.927  26.470   6.503
 5557POPC   C3B71013   3.055  26.439   6.914
 5557POPC   C4B71014   2.876  26.613   7.270
 5558POPC   NC371015  42.874   1.266   5.224
 5558POPC   PO471016  43.504   1.427   5.513
 5558POPC   GL171017  43.269   1.211   5.793
 5558POPC   GL271018  42.942   1.279   5.724
 5558POPC   C1A71019  43.348   1.018   6.183
 5558POPC   D2A71020  43.087   0.910   6.524
 5558POPC   C3A71021  43.236   1.040   6.865
 5558POPC   C4A71022  43.170   1.141   7.241
 5558POPC   C1B71023  42.857   1.149   6.139
 5558POPC   C2B71024  42.672   1.358   6.531
 5558POPC   C3B71025  42.755   1.260   6.963
 5558POPC   C4B71026  42.702   1.088   7.393
 5559POPC   NC371027  40.674   6.165   5.469
 5559POPC   PO471028  40.360   5.667   5.404
 5559POPC   GL171029  40.627   5.790   5.813
 5559POPC   GL271030  40.973   5.982   5.838
 5559POPC   C1A71031  40.730   5.842   6.271
 5559POPC   D2A71032  40.616   5.980   6.663
 5559POPC   C3A71033  40.812   5.934   7.052
 5559POPC   C4A71034  40.766   5.634   7.397
 5559POPC   C1B71035  41.141   6.180   6.230
 5559POPC   C2B71036  41.129   6.184   6.709
 5559POPC   C3B71037  41.119   6.347   7.149
 5559POPC   C4B71038  41.128   6.383   7.627
 5560POPC   NC371039   3.000  29.784   5.474
 5560POPC   PO471040   2.486  30.038   5.330
 5560POPC   GL171041   2.569  29.862   5.709
 5560POPC   GL271042   2.735  30.168   5.817
 5560POPC   C1A71043   2.812  29.750   6.109
 5560POPC   D2A71044   3.067  29.887   6.471
 5560POPC   C3A71045   2.911  29.802   6.870
 5560POPC   C4A71046   2.800  29.815   7.286
 5560POPC   C1B71047   2.341  30.015   6.116
 5560POPC   C2B71048   2.212  29.921   6.540
 5560POPC   C3B71049   2.411  29.939   6.943
 5560POPC   C4B71050   2.486  30.206   7.298
 5561POPC   NC371051  27.665  18.616   5.495
 5561POPC   PO471052  27.859  19.315   5.401
 5561POPC   GL171053  27.564  19.120   5.710
 5561POPC   GL271054  27.217  19.260   5.752
 5561POPC   C1A71055  27.636  19.081   6.146
 5561POPC   D2A71056  27.838  19.293   6.477
 5561POPC   C3A71057  27.688  19.012   6.756
 5561POPC   C4A71058  27.676  18.894   7.175
 5561POPC   C1B71059  27.116  19.058   6.139
 5561POPC   C2B71060  27.270  18.807   6.481
 5561POPC   C3B71061  27.214  18.890   6.912
 5561POPC   C4B71062  27.264  19.135   7.306
 5562POPC   NC371063  33.296  16.903   5.353
 5562POPC   PO471064  32.625  17.095   5.411
 5562POPC   GL171065  32.718  16.932   5.849
 5562POPC   GL271066  33.028  16.756   5.776
 5562POPC   C1A71067  32.818  16.696   6.224
 5562POPC   D2A71068  33.081  16.795   6.538
 5562POPC   C3A71069  32.854  16.970   6.866
 5562POPC   C4A71070  32.984  17.080   7.249
 5562POPC   C1B71071  33.306  16.493   6.076
 5562POPC   C2B71072  33.380  16.377   6.510
 5562POPC   C3B71073  33.170  16.484   6.934
 5562POPC   C4B71074  32.770  16.551   7.169
 5563POPC   NC371075  29.194  24.730   5.442
 5563POPC   PO471076  29.163  24.089   5.340
 5563POPC   GL171077  29.066  24.290   5.736
 5563POPC   GL271078  29.402  24.362   5.762
 5563POPC   C1A71079  29.096  24.375   6.204
 5563POPC   D2A71080  29.174  24.185   6.627
 5563POPC   C3A71081  29.054  24.372   7.036
 5563POPC   C4A71082  28.946  24.560   7.483
 5563POPC   C1B71083  29.584  24.553   6.119
 5563POPC   C2B71084  29.530  24.584   6.568
 5563POPC   C3B71085  29.547  24.547   7.021
 5563POPC   C4B71086  29.841  24.280   7.214
 5564POPC   NC371087  24.926   1.978   5.201
 5564POPC   PO471088  25.373   2.349   5.113
 5564POPC   GL171089  25.135   2.234   5.586
 5564POPC   GL271090  25.221   1.885   5.687
 5564POPC   C1A71091  25.210   2.244   6.070
 5564POPC   D2A71092  25.052   1.957   6.406
 5564POPC   C3A71093  25.198   2.050   6.815
 5564POPC   C4A71094  25.037   2.066   7.219
 5564POPC   C1B71095  25.482   1.805   6.081
 5564POPC   C2B71096  25.577   1.972   6.477
 5564POPC   C3B71097  25.649   1.814   6.926
 5564POPC   C4B71098  25.751   1.602   7.300
 5565POPC   NC371099  43.356  35.502   5.639
 5565POPC   PO471100  43.182  34.958   5.217
 5565POPC   GL171101  43.195  35.063   5.775
 5565POPC   GL271102  42.934  35.318   5.866
 5565POPC   C1A71103  43.284  35.216   6.238
 5565POPC   D2A71104  43.055  35.407   6.610
 5565POPC   C3A71105  43.292  35.371   6.994
 5565POPC   C4A71106  43.295  35.549   7.436
 5565POPC   C1B71107  42.782  35.142   6.232
 5565POPC   C2B71108  42.753  34.980   6.642
 5565POPC   C3B71109  42.788  35.218   7.016
 5565POPC   C4B71110  42.869  35.268   7.485
 5566POPC   NC371111   1.630  43.923   5.300
 5566POPC   PO471112   2.206  43.622   5.206
 5566POPC   GL171113   2.140  43.817   5.626
 5566POPC   GL271114   1.830  43.975   5.755
 5566POPC   C1A71115   2.166  43.823   6.099
 5566POPC   D2A71116   2.156  43.634   6.514
 5566POPC   C3A71117   2.242  43.811   6.927
 5566POPC   C4A71118   2.090  44.033   7.297
 5566POPC   C1B71119   1.742  44.100   6.180
 5566POPC   C2B71120   1.685  43.876   6.551
 5566POPC   C3B71121   1.684  43.902   6.988
 5566POPC   C4B71122   1.593  44.013   7.410
 5567POPC   NC371123  21.424  13.517   5.422
 5567POPC   PO471124  20.824  13.796   5.473
 5567POPC   GL171125  21.155  13.801   5.833
 5567POPC   GL271126  21.529  13.727   5.859
 5567POPC   C1A71127  21.292  13.767   6.288
 5567POPC   D2A71128  21.562  13.637   6.650
 5567POPC   C3A71129  21.303  13.563   7.000
 5567POPC   C4A71130  21.149  13.494   7.442
 5567POPC   C1B71131  21.681  13.429   6.181
 5567POPC   C2B71132  21.805  13.147   6.558
 5567POPC   C3B71133  21.756  13.192   7.032
 5567POPC   C4B71134  21.652  13.506   7.342
 5568POPC   NC371135  20.378  33.884   5.382
 5568POPC   PO471136  20.999  33.679   5.395
 5568POPC   GL171137  20.718  33.633   5.752
 5568POPC   GL271138  20.376  33.486   5.702
 5568POPC   C1A71139  20.833  33.830   6.151
 5568POPC   D2A71140  21.052  33.777   6.530
 5568POPC   C3A71141  20.877  34.036   6.839
 5568POPC   C4A71142  20.903  33.814   7.223
 5568POPC   C1B71143  20.327  33.720   6.111
 5568POPC   C2B71144  20.445  33.907   6.517
 5568POPC   C3B71145  20.484  33.706   6.918
 5568POPC   C4B71146  20.481  33.484   7.294
 5569POPC   NC371147  36.513  22.532   5.455
 5569POPC   PO471148  36.195  23.068   5.169
 5569POPC   GL171149  36.195  23.058   5.676
 5569POPC   GL271150  35.894  23.183   5.814
 5569POPC   C1A71151  36.326  22.938   6.137
 5569POPC   D2A71152  36.247  22.733   6.538
 5569POPC   C3A71153  36.306  22.862   6.972
 5569POPC   C4A71154  36.119  22.730   7.368
 5569POPC   C1B71155  36.089  23.377   6.206
 5569POPC   C2B71156  36.160  23.261   6.636
 5569POPC   C3B71157  35.871  23.150   6.965
 5569POPC   C4B71158  35.795  23.148   7.380
 5570POPC   NC371159  19.212  20.534   5.341
 5570POPC   PO471160  19.160  21.197   5.396
 5570POPC   GL171161  19.325  20.935   5.787
 5570POPC   GL271162  19.370  20.569   5.819
 5570POPC   C1A71163  19.211  20.810   6.256
 5570POPC   D2A71164  19.184  20.877   6.726
 5570POPC   C3A71165  18.929  20.611   7.010
 5570POPC   C4A71166  18.759  20.582   7.444
 5570POPC   C1B71167  19.559  20.354   6.178
 5570POPC   C2B71168  19.554  20.411   6.630
 5570POPC   C3B71169  19.446  20.560   7.034
 5570POPC   C4B71170  19.219  20.359   7.396
 5571POPC   NC371171   3.570  27.595   5.245
 5571POPC   PO471172   3.063  27.218   5.232
 5571POPC   GL171173   3.363  27.304   5.620
 5571POPC   GL271174   3.615  27.568   5.764
 5571POPC   C1A71175   3.345  27.254   6.082
 5571POPC   D2A71176   3.633  27.425   6.423
 5571POPC   C3A71177   3.545  27.365   6.869
 5571POPC   C4A71178   3.692  27.504   7.284
 5571POPC   C1B71179   3.376  27.763   6.140
 5571POPC   C2B71180   3.274  27.762   6.610
 5571POPC   C3B71181   3.471  27.882   7.039
 5571POPC   C4B71182   3.329  27.855   7.513
 5572POPC   NC371183  39.037  10.017   5.443
 5572POPC   PO471184  38.460   9.668   5.393
 5572POPC   GL171185  38.408   9.782   5.835
 5572POPC   GL271186  38.143   9.958   6.017
 5572POPC   C1A71187  38.523   9.622   6.232
 5572POPC   D2A71188  38.282   9.631   6.589
 5572POPC   C3A71189  38.510   9.640   6.952
 5572POPC   C4A71190  38.294   9.567   7.311
 5572POPC   C1B71191  38.564  10.135   6.197
 5572POPC   C2B71192  38.773  10.076   6.613
 5572POPC   C3B71193  38.656  10.123   7.077
 5572POPC   C4B71194  38.849   9.876   7.371
 5573POPC   NC371195  42.677  28.431   5.375
 5573POPC   PO471196  42.894  27.889   5.499
 5573POPC   GL171197  43.094  28.188   5.779
 5573POPC   GL271198  42.809  28.391   5.886
 5573POPC   C1A71199  43.334  28.304   6.156
 5573POPC   D2A71200  43.314  28.118   6.570
 5573POPC   C3A71201  43.360  28.339   6.958
 5573POPC   C4A71202  43.289  28.080   7.272
 5573POPC   C1B71203  42.849  28.184   6.304
 5573POPC   C2B71204  42.841  28.238   6.755
 5573POPC   C3B71205  42.748  28.210   7.193
 5573POPC   C4B71206  42.949  28.538   7.250
 5574POPC   NC371207  22.831  20.300   5.293
 5574POPC   PO471208  22.303  19.843   5.247
 5574POPC   GL171209  22.122  19.811   5.679
 5574POPC   GL271210  22.381  19.921   5.856
 5574POPC   C1A71211  21.984  19.630   6.086
 5574POPC   D2A71212  22.270  19.596   6.482
 5574POPC   C3A71213  22.198  19.819   6.887
 5574POPC   C4A71214  21.930  20.082   7.139
 5574POPC   C1B71215  22.163  20.065   6.244
 5574POPC   C2B71216  22.063  20.228   6.629
 5574POPC   C3B71217  22.301  20.460   6.882
 5574POPC   C4B71218  22.292  20.392   7.302
 5575POPC   NC371219  19.725  18.393   5.276
 5575POPC   PO471220  20.282  18.648   5.446
 5575POPC   GL171221  19.939  18.464   5.726
 5575POPC   GL271222  19.832  18.145   5.834
 5575POPC   C1A71223  19.743  18.612   6.095
 5575POPC   D2A71224  19.679  18.581   6.534
 5575POPC   C3A71225  19.945  18.395   6.863
 5575POPC   C4A71226  19.897  18.558   7.269
 5575POPC   C1B71227  19.918  18.176   6.297
 5575POPC   C2B71228  19.606  18.074   6.630
 5575POPC   C3B71229  19.524  18.193   7.093
 5575POPC   C4B71230  19.814  18.078   7.435
 5576POPC   NC371231  27.836  17.084   5.551
 5576POPC   PO471232  27.585  16.510   5.284
 5576POPC   GL171233  27.653  16.633   5.752
 5576POPC   GL271234  27.450  16.376   5.892
 5576POPC   C1A71235  27.546  16.906   6.156
 5576POPC   D2A71236  27.340  16.743   6.480
 5576POPC   C3A71237  27.432  16.728   6.885
 5576POPC   C4A71238  27.286  16.616   7.261
 5576POPC   C1B71239  27.730  16.455   6.245
 5576POPC   C2B71240  27.832  16.351   6.658
 5576POPC   C3B71241  27.705  16.306   7.070
 5576POPC   C4B71242  28.023  16.414   7.329
 5577POPC   NC371243  19.715  43.532   5.350
 5577POPC   PO471244  20.122  44.065   5.098
 5577POPC   GL171245  19.906  44.079   5.578
 5577POPC   GL271246  20.104  43.952   5.873
 5577POPC   C1A71247  19.646  44.100   6.035
 5577POPC   D2A71248  19.761  44.031   6.510
 5577POPC   C3A71249  19.494  43.924   6.864
 5577POPC   C4A71250  19.571  43.604   7.135
 5577POPC   C1B71251  19.929  43.628   6.230
 5577POPC   C2B71252  19.862  43.562   6.708
 5577POPC   C3B71253  20.059  43.789   7.036
 5577POPC   C4B71254  20.375  43.690   7.346
 5578POPC   NC371255   2.851  37.286   5.519
 5578POPC   PO471256   3.008  36.742   5.346
 5578POPC   GL171257   2.744  36.800   5.680
 5578POPC   GL271258   2.451  37.037   5.718
 5578POPC   C1A71259   2.817  36.811   6.096
 5578POPC   D2A71260   2.609  36.886   6.455
 5578POPC   C3A71261   2.708  36.725   6.855
 5578POPC   C4A71262   2.459  36.793   7.202
 5578POPC   C1B71263   2.539  37.274   6.117
 5578POPC   C2B71264   2.435  37.350   6.569
 5578POPC   C3B71265   2.625  37.266   7.003
 5578POPC   C4B71266   2.734  37.161   7.461
 5579POPC   NC371267  34.358  33.039   5.317
 5579POPC   PO471268  34.352  33.675   5.231
 5579POPC   GL171269  34.385  33.377   5.693
 5579POPC   GL271270  34.325  32.969   5.801
 5579POPC   C1A71271  34.546  33.242   6.135
 5579POPC   D2A71272  34.597  32.943   6.470
 5579POPC   C3A71273  34.595  33.115   6.868
 5579POPC   C4A71274  34.560  33.171   7.296
 5579POPC   C1B71275  34.128  32.871   6.210
 5579POPC   C2B71276  34.128  32.791   6.660
 5579POPC   C3B71277  34.211  32.848   7.103
 5579POPC   C4B71278  34.238  32.899   7.560
 5580POPC   NC371279   9.974  38.256   5.253
 5580POPC   PO471280   9.410  38.598   5.432
 5580POPC   GL171281   9.500  38.322   5.770
 5580POPC   GL271282   9.851  38.274   5.770
 5580POPC   C1A71283   9.536  38.407   6.229
 5580POPC   D2A71284   9.617  38.763   6.544
 5580POPC   C3A71285   9.679  38.651   6.999
 5580POPC   C4A71286   9.563  38.647   7.456
 5580POPC   C1B71287   9.968  38.631   6.080
 5580POPC   C2B71288  10.152  38.738   6.508
 5580POPC   C3B71289  10.253  38.553   6.916
 5580POPC   C4B71290  10.079  38.664   7.329
 5581POPC   NC371291  27.175   5.541   5.556
 5581POPC   PO471292  26.814   6.141   5.502
 5581POPC   GL171293  26.835   5.866   5.832
 5581POPC   GL271294  26.605   5.669   5.666
 5581POPC   C1A71295  26.937   5.757   6.259
 5581POPC   D2A71296  27.122   5.943   6.611
 5581POPC   C3A71297  27.047   5.795   7.023
 5581POPC   C4A71298  27.060   6.046   7.395
 5581POPC   C1B71299  26.504   5.548   6.095
 5581POPC   C2B71300  26.651   5.402   6.520
 5581POPC   C3B71301  26.595   5.554   6.930
 5581POPC   C4B71302  26.603   5.865   7.261
 5582POPC   NC371303  12.044   6.996   5.447
 5582POPC   PO471304  12.036   6.342   5.445
 5582POPC   GL171305  12.077   6.621   5.785
 5582POPC   GL271306  11.724   6.671   5.737
 5582POPC   C1A71307  12.200   6.810   6.192
 5582POPC   D2A71308  12.141   6.649   6.611
 5582POPC   C3A71309  12.205   6.713   7.044
 5582POPC   C4A71310  12.472   6.424   7.260
 5582POPC   C1B71311  11.805   6.499   6.188
 5582POPC   C2B71312  11.733   6.372   6.616
 5582POPC   C3B71313  11.755   6.241   7.054
 5582POPC   C4B71314  12.003   6.311   7.411
 5583POPC   NC371315  11.670  34.418   5.033
 5583POPC   PO471316  11.359  34.857   5.474
 5583POPC   GL171317  11.505  34.638   5.837
 5583POPC   GL271318  11.205  34.746   5.992
 5583POPC   C1A71319  11.553  34.388   6.229
 5583POPC   D2A71320  11.406  34.464   6.643
 5583POPC   C3A71321  11.577  34.516   7.050
 5583POPC   C4A71322  11.592  34.906   7.296
 5583POPC   C1B71323  11.090  34.873   6.408
 5583POPC   C2B71324  10.901  34.547   6.623
 5583POPC   C3B71325  11.023  34.327   6.973
 5583POPC   C4B71326  11.182  34.474   7.350
 5584POPC   NC371327  26.280  41.414   5.462
 5584POPC   PO471328  25.711  41.571   5.535
 5584POPC   GL171329  26.021  41.729   5.822
 5584POPC   GL271330  26.171  41.426   5.984
 5584POPC   C1A71331  25.954  41.839   6.249
 5584POPC   D2A71332  26.077  41.618   6.629
 5584POPC   C3A71333  26.149  41.819   7.043
 5584POPC   C4A71334  26.131  41.568   7.435
 5584POPC   C1B71335  25.741  41.384   6.209
 5584POPC   C2B71336  25.554  41.513   6.605
 5584POPC   C3B71337  25.756  41.473   7.016
 5584POPC   C4B71338  25.663  41.368   7.430
 5585POPC   NC371339  24.910  26.321   5.681
 5585POPC   PO471340  24.900  25.774   5.361
 5585POPC   GL171341  25.124  25.810   5.817
 5585POPC   GL271342  25.349  26.123   5.862
 5585POPC   C1A71343  25.440  25.800   6.225
 5585POPC   D2A71344  25.558  26.001   6.640
 5585POPC   C3A71345  25.398  25.822   7.037
 5585POPC   C4A71346  24.996  25.810   7.147
 5585POPC   C1B71347  25.129  26.219   6.286
 5585POPC   C2B71348  24.982  26.462   6.642
 5585POPC   C3B71349  24.924  26.317   7.049
 5585POPC   C4B71350  25.345  26.313   7.160
 5586POPC   NC371351  15.560  43.397   5.084
 5586POPC   PO471352  16.052  42.979   5.339
 5586POPC   GL171353  15.971  43.241   5.669
 5586POPC   GL271354  15.706  43.447   5.597
 5586POPC   C1A71355  16.026  43.174   6.098
 5586POPC   D2A71356  15.948  42.938   6.468
 5586POPC   C3A71357  16.063  43.070   6.872
 5586POPC   C4A71358  15.939  42.886   7.265
 5586POPC   C1B71359  15.780  43.619   6.029
 5586POPC   C2B71360  15.814  43.445   6.468
 5586POPC   C3B71361  15.593  43.216   6.808
 5586POPC   C4B71362  15.706  43.337   7.229
 5587POPC   NC371363  12.332   5.998   5.401
 5587POPC   PO471364  11.717   5.711   5.171
 5587POPC   GL171365  11.909   5.863   5.642
 5587POPC   GL271366  11.743   6.149   5.835
 5587POPC   C1A71367  12.154   5.874   6.048
 5587POPC   D2A71368  12.191   6.210   6.367
 5587POPC   C3A71369  12.217   6.187   6.842
 5587POPC   C4A71370  12.369   5.888   7.146
 5587POPC   C1B71371  11.701   6.000   6.256
 5587POPC   C2B71372  11.917   5.823   6.622
 5587POPC   C3B71373  11.869   5.723   7.065
 5587POPC   C4B71374  11.818   5.843   7.512
 5588POPC   NC371375  15.666  32.512   5.572
 5588POPC   PO471376  15.174  32.086   5.344
 5588POPC   GL171377  15.248  32.259   5.742
 5588POPC   GL271378  15.093  32.573   5.745
 5588POPC   C1A71379  15.308  32.189   6.181
 5588POPC   D2A71380  15.044  32.022   6.466
 5588POPC   C3A71381  15.140  31.959   6.863
 5588POPC   C4A71382  15.341  32.022   7.219
 5588POPC   C1B71383  15.153  32.707   6.183
 5588POPC   C2B71384  15.244  32.513   6.585
 5588POPC   C3B71385  15.165  32.456   7.005
 5588POPC   C4B71386  15.430  32.657   7.236
 5589POPC   NC371387  31.836  30.649   5.326
 5589POPC   PO471388  31.266  30.916   5.320
 5589POPC   GL171389  31.465  30.894   5.760
 5589POPC   GL271390  31.572  30.557   5.827
 5589POPC   C1A71391  31.449  31.119   6.187
 5589POPC   D2A71392  31.438  31.257   6.606
 5589POPC   C3A71393  31.501  31.022   6.971
 5589POPC   C4A71394  31.222  30.854   7.235
 5589POPC   C1B71395  31.503  30.612   6.279
 5589POPC   C2B71396  31.634  30.600   6.719
 5589POPC   C3B71397  31.484  30.434   7.139
 5589POPC   C4B71398  31.622  30.511   7.590
 5590POPC   NC371399  36.670  15.274   5.271
 5590POPC   PO471400  37.318  15.474   5.348
 5590POPC   GL171401  37.042  15.481   5.760
 5590POPC   GL271402  36.669  15.443   5.768
 5590POPC   C1A71403  37.057  15.289   6.211
 5590POPC   D2A71404  37.042  14.971   6.611
 5590POPC   C3A71405  37.226  15.101   7.031
 5590POPC   C4A71406  37.115  15.479   7.265
 5590POPC   C1B71407  36.510  15.417   6.178
 5590POPC   C2B71408  36.729  15.401   6.579
 5590POPC   C3B71409  36.724  15.250   6.983
 5590POPC   C4B71410  36.760  14.829   7.079
 5591POPC   NC371411  26.460  28.180   5.557
 5591POPC   PO471412  27.120  28.257   5.600
 5591POPC   GL171413  26.821  28.467   5.877
 5591POPC   GL271414  26.791  28.134   5.991
 5591POPC   C1A71415  26.634  28.502   6.296
 5591POPC   D2A71416  26.834  28.257   6.597
 5591POPC   C3A71417  26.894  28.502   6.949
 5591POPC   C4A71418  26.731  28.304   7.273
 5591POPC   C1B71419  26.412  28.056   6.181
 5591POPC   C2B71420  26.342  27.890   6.561
 5591POPC   C3B71421  26.531  27.951   6.931
 5591POPC   C4B71422  26.496  27.853   7.333
 5592POPC   NC371423  15.078  33.297   5.367
 5592POPC   PO471424  15.614  32.908   5.308
 5592POPC   GL171425  15.430  32.959   5.720
 5592POPC   GL271426  15.086  33.099   5.825
 5592POPC   C1A71427  15.499  33.138   6.125
 5592POPC   D2A71428  15.273  33.229   6.486
 5592POPC   C3A71429  15.370  32.986   6.840
 5592POPC   C4A71430  15.305  33.141   7.269
 5592POPC   C1B71431  14.842  33.130   6.187
 5592POPC   C2B71432  14.826  32.948   6.584
 5592POPC   C3B71433  14.894  32.876   6.995
 5592POPC   C4B71434  14.946  32.792   7.414
 5593POPC   NC371435   8.814  13.988   5.242
 5593POPC   PO471436   9.056  13.437   5.462
 5593POPC   GL171437   8.944  13.391   5.875
 5593POPC   GL271438   8.989  13.736   5.929
 5593POPC   C1A71439   9.223  13.447   6.281
 5593POPC   D2A71440   9.340  13.602   6.712
 5593POPC   C3A71441   9.208  13.284   7.028
 5593POPC   C4A71442   8.775  13.279   7.243
 5593POPC   C1B71443   8.734  13.578   6.295
 5593POPC   C2B71444   8.839  13.413   6.682
 5593POPC   C3B71445   8.925  13.699   7.002
 5593POPC   C4B71446   8.558  13.769   7.154
 5594POPC   NC371447  44.366  38.735   5.566
 5594POPC   PO471448  44.901  38.377   5.394
 5594POPC   GL171449  44.810  38.252   5.836
 5594POPC   GL271450  44.529  38.413   5.924
 5594POPC   C1A71451  44.854  38.389   6.301
 5594POPC   D2A71452  44.690  38.494   6.704
 5594POPC   C3A71453  44.969  38.514   7.043
 5594POPC   C4A71454   0.051  38.537   7.474
 5594POPC   C1B71455  44.320  38.503   6.328
 5594POPC   C2B71456  44.193  38.591   6.774
 5594POPC   C3B71457  44.427  38.561   7.166
 5594POPC   C4B71458  44.237  38.696   7.587
 5595POPC   NC371459  10.054   9.675   5.165
 5595POPC   PO471460   9.725  10.152   5.450
 5595POPC   GL171461   9.768   9.803   5.756
 5595POPC   GL271462  10.115   9.661   5.721
 5595POPC   C1A71463   9.768   9.866   6.213
 5595POPC   D2A71464   9.659   9.998   6.628
 5595POPC   C3A71465   9.725   9.798   7.011
 5595POPC   C4A71466   9.687   9.839   7.514
 5595POPC   C1B71467  10.081   9.446   6.143
 5595POPC   C2B71468   9.867   9.439   6.565
 5595POPC   C3B71469  10.035   9.379   6.972
 5595POPC   C4B71470  10.125   9.669   7.301
 5596POPC   NC371471  21.141  10.284   5.467
 5596POPC   PO471472  21.735  10.520   5.141
 5596POPC   GL171473  21.637  10.330   5.617
 5596POPC   GL271474  21.341  10.544   5.841
 5596POPC   C1A71475  21.704  10.352   6.111
 5596POPC   D2A71476  21.446  10.450   6.473
 5596POPC   C3A71477  21.532  10.408   6.884
 5596POPC   C4A71478  21.388  10.340   7.260
 5596POPC   C1B71479  21.096  10.683   6.208
 5596POPC   C2B71480  21.157  10.858   6.622
 5596POPC   C3B71481  21.164  10.770   7.052
 5596POPC   C4B71482  21.280  10.780   7.491
 5597POPC   NC371483  37.945  43.868   5.262
 5597POPC   PO471484  38.626  43.817   5.384
 5597POPC   GL171485  38.589  43.854   5.840
 5597POPC   GL271486  38.305  43.987   5.815
 5597POPC   C1A71487  38.402  43.841   6.304
 5597POPC   D2A71488  38.105  43.590   6.601
 5597POPC   C3A71489  38.220  43.552   7.029
 5597POPC   C4A71490  38.592  43.745   7.237
 5597POPC   C1B71491  38.031  44.182   6.152
 5597POPC   C2B71492  38.101  44.133   6.591
 5597POPC   C3B71493  38.284  44.061   6.951
 5597POPC   C4B71494  38.134  43.986   7.371
 5598POPC   NC371495   6.653  11.858   5.407
 5598POPC   PO471496   6.904  11.281   5.545
 5598POPC   GL171497   6.724  11.613   5.885
 5598POPC   GL271498   6.744  11.991   5.881
 5598POPC   C1A71499   6.363  11.848   6.155
 5598POPC   D2A71500   6.410  12.194   6.457
 5598POPC   C3A71501   6.661  12.040   6.741
 5598POPC   C4A71502   6.766  11.977   7.142
 5598POPC   C1B71503   6.861  12.329   6.141
 5598POPC   C2B71504   6.826  12.524   6.519
 5598POPC   C3B71505   6.963  12.410   6.908
 5598POPC   C4B71506   6.759  12.473   7.291
 5599POPC   NC371507  30.318  18.257   5.175
 5599POPC   PO471508  29.685  18.027   5.330
 5599POPC   GL171509  29.903  18.235   5.664
 5599POPC   GL271510  29.576  18.383   5.770
 5599POPC   C1A71511  30.029  18.269   6.111
 5599POPC   D2A71512  29.916  18.564   6.480
 5599POPC   C3A71513  30.012  18.433   6.909
 5599POPC   C4A71514  30.122  18.277   7.330
 5599POPC   C1B71515  29.556  18.255   6.242
 5599POPC   C2B71516  29.519  18.358   6.716
 5599POPC   C3B71517  29.602  18.525   7.173
 5599POPC   C4B71518  29.737  18.484   7.598
 5600POPC   NC371519  44.959  23.219   5.645
 5600POPC   PO471520  44.980  22.549   5.419
 5600POPC   GL171521  44.845  22.704   5.810
 5600POPC   GL271522  44.543  22.926   5.814
 5600POPC   C1A71523  44.932  22.785   6.241
 5600POPC   D2A71524   0.007  22.720   6.678
 5600POPC   C3A71525  44.748  22.998   6.944
 5600POPC   C4A71526  44.427  22.973   7.248
 5600POPC   C1B71527  44.465  23.134   6.233
 5600POPC   C2B71528  44.252  23.156   6.656
 5600POPC   C3B71529  44.234  23.393   7.051
 5600POPC   C4B71530  44.569  23.450   7.328
 5601POPC   NC371531  10.783  11.959   5.350
 5601POPC   PO471532  10.222  12.387   5.351
 5601POPC   GL171533  10.320  12.252   5.822
 5601POPC   GL271534  10.523  11.931   5.811
 5601POPC   C1A71535  10.556  12.249   6.208
 5601POPC   D2A71536  10.432  12.204   6.568
 5601POPC   C3A71537  10.641  12.309   6.852
 5601POPC   C4A71538  10.670  12.255   7.226
 5601POPC   C1B71539  10.426  11.724   6.160
 5601POPC   C2B71540  10.617  11.725   6.564
 5601POPC   C3B71541  10.523  11.816   6.990
 5601POPC   C4B71542  10.367  11.502   7.240
 5602POPC   NC371543   5.983   4.679   5.412
 5602POPC   PO471544   5.688   4.003   5.334
 5602POPC   GL171545   5.893   3.933   5.752
 5602POPC   GL271546   6.261   4.001   5.719
 5602POPC   C1A71547   5.856   4.169   6.163
 5602POPC   D2A71548   6.064   4.435   6.515
 5602POPC   C3A71549   5.793   4.479   6.890
 5602POPC   C4A71550   5.600   4.111   7.085
 5602POPC   C1B71551   6.353   4.055   6.152
 5602POPC   C2B71552   6.115   3.888   6.505
 5602POPC   C3B71553   6.065   4.010   6.884
 5602POPC   C4B71554   6.213   4.302   7.133
 5603POPC   NC371555  40.406  18.312   5.624
 5603POPC   PO471556  39.786  18.331   5.216
 5603POPC   GL171557  39.931  18.039   5.649
 5603POPC   GL271558  40.104  18.218   6.004
 5603POPC   C1A71559  39.790  17.860   6.076
 5603POPC   D2A71560  39.920  18.059   6.471
 5603POPC   C3A71561  39.851  18.000   6.894
 5603POPC   C4A71562  40.094  18.230   7.223
 5603POPC   C1B71563  39.907  18.538   6.279
 5603POPC   C2B71564  39.653  18.527   6.643
 5603POPC   C3B71565  39.759  18.562   7.043
 5603POPC   C4B71566  39.773  18.553   7.478
 5604POPC   NC371567   7.233  40.924   5.216
 5604POPC   PO471568   7.836  40.658   5.386
 5604POPC   GL171569   7.570  40.546   5.708
 5604POPC   GL271570   7.219  40.618   5.672
 5604POPC   C1A71571   7.545  40.730   6.117
 5604POPC   D2A71572   7.401  40.606   6.526
 5604POPC   C3A71573   7.495  40.879   6.872
 5604POPC   C4A71574   7.668  40.771   7.265
 5604POPC   C1B71575   7.026  40.431   6.056
 5604POPC   C2B71576   6.930  40.385   6.515
 5604POPC   C3B71577   7.039  40.632   6.906
 5604POPC   C4B71578   7.179  40.934   7.278
 5605POPC   NC371579  34.603  28.948   5.341
 5605POPC   PO471580  33.971  28.824   5.512
 5605POPC   GL171581  34.347  29.000   5.779
 5605POPC   GL271582  34.675  29.235   5.783
 5605POPC   C1A71583  34.414  29.075   6.219
 5605POPC   D2A71584  34.212  28.941   6.601
 5605POPC   C3A71585  34.452  29.046   6.930
 5605POPC   C4A71586  34.615  28.825   7.280
 5605POPC   C1B71587  34.945  29.053   6.080
 5605POPC   C2B71588  34.995  28.950   6.504
 5605POPC   C3B71589  35.063  29.096   6.891
 5605POPC   C4B71590  34.828  29.270   7.175
 5606POPC   NC371591  31.981  21.409   5.582
 5606POPC   PO471592  32.404  20.951   5.257
 5606POPC   GL171593  32.355  21.117   5.736
 5606POPC   GL271594  32.474  21.443   5.820
 5606POPC   C1A71595  32.240  21.132   6.173
 5606POPC   D2A71596  32.053  21.310   6.526
 5606POPC   C3A71597  32.125  21.329   6.972
 5606POPC   C4A71598  32.418  21.372   7.335
 5606POPC   C1B71599  32.254  21.644   6.189
 5606POPC   C2B71600  32.246  21.757   6.646
 5606POPC   C3B71601  32.357  21.812   7.071
 5606POPC   C4B71602  31.953  21.790   7.187
 5607POPC   NC371603  19.454  10.718   5.467
 5607POPC   PO471604  18.826  10.303   5.404
 5607POPC   GL171605  18.920  10.603   5.742
 5607POPC   GL271606  18.741  10.909   5.727
 5607POPC   C1A71607  19.134  10.605   6.150
 5607POPC   D2A71608  19.351  10.715   6.540
 5607POPC   C3A71609  19.327  10.472   6.891
 5607POPC   C4A71610  19.478  10.477   7.308
 5607POPC   C1B71611  18.678  10.886   6.167
 5607POPC   C2B71612  18.852  10.760   6.577
 5607POPC   C3B71613  18.821  10.553   6.974
 5607POPC   C4B71614  18.737  10.660   7.416
 5608POPC   NC371615  28.853  11.734   5.466
 5608POPC   PO471616  28.219  11.799   5.495
 5608POPC   GL171617  28.178  11.885   5.902
 5608POPC   GL271618  27.852  11.709   5.891
 5608POPC   C1A71619  28.509  11.853   6.263
 5608POPC   D2A71620  28.645  12.034   6.669
 5608POPC   C3A71621  28.472  11.945   7.081
 5608POPC   C4A71622  28.270  12.177   7.446
 5608POPC   C1B71623  28.093  11.562   6.273
 5608POPC   C2B71624  28.171  11.701   6.722
 5608POPC   C3B71625  28.016  11.727   7.162
 5608POPC   C4B71626  27.914  11.696   7.634
 5609POPC   NC371627   7.080  28.792   5.126
 5609POPC   PO471628   7.568  29.055   5.553
 5609POPC   GL171629   7.648  29.174   5.942
 5609POPC   GL271630   7.425  28.901   6.058
 5609POPC   C1A71631   7.672  29.181   6.403
 5609POPC   D2A71632   7.785  29.434   6.722
 5609POPC   C3A71633   7.478  29.364   7.014
 5609POPC   C4A71634   7.482  28.943   7.189
 5609POPC   C1B71635   7.198  29.280   6.183
 5609POPC   C2B71636   7.038  29.334   6.599
 5609POPC   C3B71637   6.941  29.469   6.994
 5609POPC   C4B71638   7.103  29.284   7.363
 5610POPC   NC371639  10.671  38.878   5.170
 5610POPC   PO471640  10.692  39.578   5.242
 5610POPC   GL171641  10.514  39.482   5.699
 5610POPC   GL271642  10.273  39.219   5.622
 5610POPC   C1A71643  10.454  39.565   6.202
 5610POPC   D2A71644  10.372  39.516   6.698
 5610POPC   C3A71645  10.771  39.428   6.880
 5610POPC   C4A71646  10.879  39.284   7.261
 5610POPC   C1B71647  10.344  39.063   6.072
 5610POPC   C2B71648  10.541  39.081   6.489
 5610POPC   C3B71649  10.670  38.925   6.892
 5610POPC   C4B71650  10.572  38.762   7.282
 5611POPC   NC371651  42.107  15.159   5.308
 5611POPC   PO471652  41.443  15.367   5.415
 5611POPC   GL171653  41.664  15.168   5.755
 5611POPC   GL271654  41.978  15.379   5.780
 5611POPC   C1A71655  41.510  15.131   6.202
 5611POPC   D2A71656  41.549  15.062   6.660
 5611POPC   C3A71657  41.660  15.379   6.998
 5611POPC   C4A71658  41.576  15.327   7.465
 5611POPC   C1B71659  42.011  15.054   6.135
 5611POPC   C2B71660  42.041  14.919   6.598
 5611POPC   C3B71661  41.854  14.905   7.039
 5611POPC   C4B71662  41.893  14.851   7.491
 5612POPC   NC371663  27.020   9.133   5.284
 5612POPC   PO471664  26.368   8.823   5.412
 5612POPC   GL171665  26.708   8.960   5.703
 5612POPC   GL271666  26.855   8.627   5.752
 5612POPC   C1A71667  26.718   9.023   6.182
 5612POPC   D2A71668  26.951   9.182   6.563
 5612POPC   C3A71669  26.734   9.154   6.966
 5612POPC   C4A71670  26.811   9.065   7.404
 5612POPC   C1B71671  27.057   8.645   6.172
 5612POPC   C2B71672  26.888   8.653   6.601
 5612POPC   C3B71673  26.994   8.717   7.042
 5612POPC   C4B71674  27.089   8.629   7.472
 5613POPC   NC371675  22.005  22.583   5.222
 5613POPC   PO471676  22.446  23.072   5.492
 5613POPC   GL171677  22.194  23.053   5.777
 5613POPC   GL271678  22.096  22.745   5.729
 5613POPC   C1A71679  22.141  23.177   6.170
 5613POPC   D2A71680  22.181  22.908   6.517
 5613POPC   C3A71681  22.291  23.123   6.882
 5613POPC   C4A71682  22.034  23.218   7.219
 5613POPC   C1B71683  21.912  22.655   6.125
 5613POPC   C2B71684  21.723  22.679   6.554
 5613POPC   C3B71685  21.938  22.751   6.957
 5613POPC   C4B71686  21.829  22.787   7.396
 5614POPC   NC371687  30.415  11.162   5.299
 5614POPC   PO471688  29.753  11.061   5.142
 5614POPC   GL171689  29.768  11.133   5.594
 5614POPC   GL271690  30.006  11.383   5.711
 5614POPC   C1A71691  29.732  11.077   6.055
 5614POPC   D2A71692  29.899  11.074   6.476
 5614POPC   C3A71693  29.819  11.298   6.840
 5614POPC   C4A71694  29.571  11.078   7.148
 5614POPC   C1B71695  30.148  11.400   6.177
 5614POPC   C2B71696  30.440  11.138   6.423
 5614POPC   C3B71697  30.434  11.101   6.860
 5614POPC   C4B71698  30.399  11.455   7.161
 5615POPC   NC371699   9.911   7.871   5.581
 5615POPC   PO471700   9.522   8.312   5.155
 5615POPC   GL171701   9.498   8.230   5.633
 5615POPC   GL271702   9.440   7.902   5.789
 5615POPC   C1A71703   9.732   8.358   6.041
 5615POPC   D2A71704   9.834   8.591   6.428
 5615POPC   C3A71705   9.876   8.452   6.857
 5615POPC   C4A71706  10.066   8.533   7.261
 5615POPC   C1B71707   9.302   8.110   6.147
 5615POPC   C2B71708   9.434   8.287   6.557
 5615POPC   C3B71709   9.440   8.196   7.003
 5615POPC   C4B71710   9.798   8.056   7.196
 5616POPC   NC371711  23.658  17.494   5.231
 5616POPC   PO471712  23.756  18.146   5.160
 5616POPC   GL171713  23.806  17.854   5.588
 5616POPC   GL271714  23.518  17.738   5.739
 5616POPC   C1A71715  23.905  17.682   6.068
 5616POPC   D2A71716  23.618  17.492   6.429
 5616POPC   C3A71717  23.751  17.454   6.882
 5616POPC   C4A71718  23.706  17.526   7.333
 5616POPC   C1B71719  23.437  17.891   6.154
 5616POPC   C2B71720  23.350  17.958   6.593
 5616POPC   C3B71721  23.530  17.956   7.007
 5616POPC   C4B71722  23.369  17.884   7.414
 5617POPC   NC371723  11.872  28.824   5.411
 5617POPC   PO471724  12.287  29.458   5.391
 5617POPC   GL171725  12.059  29.364   5.799
 5617POPC   GL271726  11.749  29.522   5.842
 5617POPC   C1A71727  12.177  29.197   6.226
 5617POPC   D2A71728  12.364  28.975   6.601
 5617POPC   C3A71729  12.219  29.154   7.009
 5617POPC   C4A71730  12.060  28.959   7.445
 5617POPC   C1B71731  11.693  29.402   6.258
 5617POPC   C2B71732  11.855  29.194   6.632
 5617POPC   C3B71733  11.734  29.059   7.050
 5617POPC   C4B71734  11.826  29.407   7.348
 5618POPC   NC371735  10.650  36.732   5.510
 5618POPC   PO471736  10.436  37.375   5.483
 5618POPC   GL171737  10.383  37.066   5.825
 5618POPC   GL271738  10.504  36.736   5.975
 5618POPC   C1A71739  10.424  37.151   6.250
 5618POPC   D2A71740  10.372  37.238   6.642
 5618POPC   C3A71741  10.346  36.905   6.867
 5618POPC   C4A71742  10.456  36.946   7.263
 5618POPC   C1B71743  10.784  36.525   6.230
 5618POPC   C2B71744  10.789  36.386   6.622
 5618POPC   C3B71745  10.772  36.618   6.997
 5618POPC   C4B71746  10.792  36.607   7.431
 5619POPC   NC371747  39.065  36.291   5.374
 5619POPC   PO471748  39.573  35.799   5.480
 5619POPC   GL171749  39.421  35.946   5.884
 5619POPC   GL271750  39.069  36.128   5.864
 5619POPC   C1A71751  39.233  35.843   6.259
 5619POPC   D2A71752  39.123  35.944   6.652
 5619POPC   C3A71753  39.287  35.716   6.977
 5619POPC   C4A71754  39.106  35.917   7.300
 5619POPC   C1B71755  39.175  36.354   6.249
 5619POPC   C2B71756  39.457  36.370   6.603
 5619POPC   C3B71757  39.400  36.252   7.023
 5619POPC   C4B71758  39.121  36.553   7.207
 5620POPC   NC371759  41.919  36.126   5.389
 5620POPC   PO471760  41.244  35.885   5.173
 5620POPC   GL171761  41.484  35.962   5.563
 5620POPC   GL271762  41.379  36.292   5.659
 5620POPC   C1A71763  41.649  36.033   6.009
 5620POPC   D2A71764  41.817  36.289   6.367
 5620POPC   C3A71765  41.809  36.311   6.819
 5620POPC   C4A71766  41.657  36.162   7.208
 5620POPC   C1B71767  41.357  36.435   6.108
 5620POPC   C2B71768  41.303  36.251   6.491
 5620POPC   C3B71769  41.301  36.389   6.892
 5620POPC   C4B71770  41.287  36.585   7.265
 5621POPC   NC371771  10.619  14.790   5.388
 5621POPC   PO471772  10.244  15.459   5.416
 5621POPC   GL171773  10.353  15.355   5.808
 5621POPC   GL271774  10.662  15.275   5.687
 5621POPC   C1A71775  10.475  15.123   6.173
 5621POPC   D2A71776  10.304  14.830   6.442
 5621POPC   C3A71777  10.414  14.896   6.876
 5621POPC   C4A71778  10.641  15.028   7.262
 5621POPC   C1B71779  10.853  15.448   6.090
 5621POPC   C2B71780  10.787  15.351   6.553
 5621POPC   C3B71781  10.758  15.473   7.009
 5621POPC   C4B71782  10.903  15.448   7.465
 5622POPC   NC371783  32.931  33.472   5.367
 5622POPC   PO471784  33.051  32.765   5.536
 5622POPC   GL171785  32.770  33.037   5.758
 5622POPC   GL271786  32.964  33.320   5.843
 5622POPC   C1A71787  32.766  32.994   6.217
 5622POPC   D2A71788  32.901  33.187   6.587
 5622POPC   C3A71789  32.714  33.136   6.981
 5622POPC   C4A71790  32.924  32.813   7.296
 5622POPC   C1B71791  33.120  33.481   6.226
 5622POPC   C2B71792  33.343  33.476   6.619
 5622POPC   C3B71793  33.238  33.195   6.978
 5622POPC   C4B71794  32.984  33.326   7.353
 5623POPC   NC371795   2.121  29.761   5.259
 5623POPC   PO471796   1.586  30.207   5.246
 5623POPC   GL171797   1.633  30.076   5.744
 5623POPC   GL271798   1.805  29.739   5.712
 5623POPC   C1A71799   1.806  30.112   6.243
 5623POPC   D2A71800   1.788  30.133   6.748
 5623POPC   C3A71801   1.972  30.088   7.145
 5623POPC   C4A71802   2.188  29.805   7.420
 5623POPC   C1B71803   2.043  29.572   6.107
 5623POPC   C2B71804   2.163  29.408   6.546
 5623POPC   C3B71805   2.030  29.568   6.960
 5623POPC   C4B71806   2.069  29.325   7.378
 5624POPC   NC371807  28.397  35.484   5.395
 5624POPC   PO471808  28.698  35.071   5.604
 5624POPC   GL171809  28.423  35.350   5.902
 5624POPC   GL271810  28.544  35.685   5.894
 5624POPC   C1A71811  28.148  35.419   6.303
 5624POPC   D2A71812  27.861  35.615   6.622
 5624POPC   C3A71813  27.789  35.398   7.016
 5624POPC   C4A71814  28.161  35.242   7.215
 5624POPC   C1B71815  28.631  35.539   6.341
 5624POPC   C2B71816  28.475  35.319   6.706
 5624POPC   C3B71817  28.564  35.528   7.078
 5624POPC   C4B71818  28.900  35.737   7.322
 5625POPC   NC371819  38.516  24.787   4.949
 5625POPC   PO471820  38.717  24.385   5.468
 5625POPC   GL171821  38.493  24.477   5.841
 5625POPC   GL271822  38.631  24.758   5.886
 5625POPC   C1A71823  38.277  24.564   6.258
 5625POPC   D2A71824  38.165  24.665   6.701
 5625POPC   C3A71825  38.326  24.307   6.920
 5625POPC   C4A71826  38.671  24.105   7.156
 5625POPC   C1B71827  38.804  24.684   6.293
 5625POPC   C2B71828  38.672  24.685   6.725
 5625POPC   C3B71829  38.553  24.680   7.189
 5625POPC   C4B71830  38.516  24.856   7.635
 5626POPC   NC371831  13.925  12.271   5.475
 5626POPC   PO471832  13.507  11.733   5.530
 5626POPC   GL171833  13.625  12.043   5.826
 5626POPC   GL271834  13.970  12.121   5.965
 5626POPC   C1A71835  13.497  12.318   6.174
 5626POPC   D2A71836  13.275  12.317   6.568
 5626POPC   C3A71837  13.512  12.309   6.943
 5626POPC   C4A71838  13.616  11.984   7.228
 5626POPC   C1B71839  13.982  12.348   6.331
 5626POPC   C2B71840  14.009  12.411   6.751
 5626POPC   C3B71841  14.073  12.141   7.073
 5626POPC   C4B71842  14.076  11.747   7.260
 5627POPC   NC371843  36.656   1.249   5.208
 5627POPC   PO471844  37.105   0.953   5.539
 5627POPC   GL171845  36.834   1.252   5.750
 5627POPC   GL271846  36.538   1.461   5.705
 5627POPC   C1A71847  36.792   1.174   6.168
 5627POPC   D2A71848  36.967   0.951   6.513
 5627POPC   C3A71849  36.932   1.203   6.858
 5627POPC   C4A71850  36.805   1.167   7.274
 5627POPC   C1B71851  36.625   1.661   6.129
 5627POPC   C2B71852  36.870   1.618   6.541
 5627POPC   C3B71853  36.726   1.638   7.002
 5627POPC   C4B71854  36.736   1.616   7.487
 5628POPC   NC371855   2.363  22.901   5.286
 5628POPC   PO471856   1.786  23.267   5.282
 5628POPC   GL171857   1.747  23.092   5.707
 5628POPC   GL271858   1.978  22.795   5.688
 5628POPC   C1A71859   1.835  23.009   6.144
 5628POPC   D2A71860   2.098  23.057   6.481
 5628POPC   C3A71861   1.902  22.893   6.830
 5628POPC   C4A71862   2.061  22.949   7.226
 5628POPC   C1B71863   2.203  22.630   6.069
 5628POPC   C2B71864   2.016  22.546   6.483
 5628POPC   C3B71865   2.224  22.517   6.899
 5628POPC   C4B71866   2.459  22.612   7.256
 5629POPC   NC371867  29.879  20.051   5.136
 5629POPC   PO471868  30.344  19.898   5.567
 5629POPC   GL171869  30.051  19.904   5.834
 5629POPC   GL271870  29.736  20.032   5.688
 5629POPC   C1A71871  30.192  19.779   6.225
 5629POPC   D2A71872  30.322  19.653   6.610
 5629POPC   C3A71873  30.268  19.953   6.957
 5629POPC   C4A71874  29.963  19.743   7.209
 5629POPC   C1B71875  29.716  20.068   6.172
 5629POPC   C2B71876  29.957  20.096   6.566
 5629POPC   C3B71877  29.778  20.164   6.982
 5629POPC   C4B71878  29.598  20.072   7.384
 5630POPC   NC371879  20.260  23.782   5.536
 5630POPC   PO471880  20.836  23.773   5.366
 5630POPC   GL171881  20.796  23.793   5.830
 5630POPC   GL271882  20.464  23.722   5.979
 5630POPC   C1A71883  20.831  24.005   6.249
 5630POPC   D2A71884  20.990  23.802   6.624
 5630POPC   C3A71885  20.839  23.690   6.999
 5630POPC   C4A71886  20.648  23.940   7.289
 5630POPC   C1B71887  20.652  23.520   6.295
 5630POPC   C2B71888  20.487  23.672   6.647
 5630POPC   C3B71889  20.213  23.624   6.965
 5630POPC   C4B71890  20.252  23.488   7.384
 5631POPC   NC371891  31.994  10.447   5.251
 5631POPC   PO471892  32.647  10.417   5.261
 5631POPC   GL171893  32.347  10.434   5.661
 5631POPC   GL271894  32.001  10.294   5.724
 5631POPC   C1A71895  32.264  10.476   6.137
 5631POPC   D2A71896  32.358  10.278   6.556
 5631POPC   C3A71897  32.244  10.436   6.980
 5631POPC   C4A71898  32.507  10.467   7.338
 5631POPC   C1B71899  31.771  10.348   6.111
 5631POPC   C2B71900  31.888  10.508   6.513
 5631POPC   C3B71901  31.757  10.335   6.873
 5631POPC   C4B71902  31.778  10.455   7.245
 5632POPC   NC371903  40.557  10.741   5.571
 5632POPC   PO471904  40.978  10.324   5.244
 5632POPC   GL171905  40.821  10.259   5.700
 5632POPC   GL271906  40.460  10.291   5.787
 5632POPC   C1A71907  40.847  10.361   6.176
 5632POPC   D2A71908  41.027  10.442   6.608
 5632POPC   C3A71909  40.877  10.762   6.902
 5632POPC   C4A71910  40.765  10.691   7.334
 5632POPC   C1B71911  40.295  10.364   6.191
 5632POPC   C2B71912  40.325  10.182   6.579
 5632POPC   C3B71913  40.546  10.318   6.944
 5632POPC   C4B71914  40.350  10.380   7.331
 5633POPC   NC371915  39.466  44.815   5.253
 5633POPC   PO471916  39.073  44.295   5.343
 5633POPC   GL171917  39.149  44.640   5.649
 5633POPC   GL271918  39.300  44.369   5.813
 5633POPC   C1A71919  39.319  44.877   6.042
 5633POPC   D2A71920  39.504  44.863   6.483
 5633POPC   C3A71921  39.274  44.990   6.876
 5633POPC   C4A71922  39.302  44.909   7.325
 5633POPC   C1B71923  39.005  44.493   6.144
 5633POPC   C2B71924  39.013  44.663   6.555
 5633POPC   C3B71925  39.106  44.538   6.979
 5633POPC   C4B71926  38.858  44.688   7.344
 5634POPC   NC371927  14.800   4.529   5.118
 5634POPC   PO471928  15.416   4.404   5.260
 5634POPC   GL171929  15.447   4.264   5.846
 5634POPC   GL271930  15.120   4.186   5.995
 5634POPC   C1A71931  15.441   4.462   6.250
 5634POPC   D2A71932  15.310   4.233   6.595
 5634POPC   C3A71933  15.461   4.426   6.944
 5634POPC   C4A71934  15.487   4.497   7.359
 5634POPC   C1B71935  14.825   4.172   6.367
 5634POPC   C2B71936  14.846   4.232   6.826
 5634POPC   C3B71937  15.120   4.163   7.197
 5634POPC   C4B71938  15.057   3.863   7.543
 5635POPC   NC371939  19.694   5.943   5.380
 5635POPC   PO471940  20.252   5.518   5.389
 5635POPC   GL171941  20.042   5.757   5.731
 5635POPC   GL271942  19.664   5.719   5.834
 5635POPC   C1A71943  20.097   5.897   6.152
 5635POPC   D2A71944  20.290   6.076   6.520
 5635POPC   C3A71945  20.072   6.028   6.900
 5635POPC   C4A71946  20.129   5.855   7.279
 5635POPC   C1B71947  19.513   5.927   6.213
 5635POPC   C2B71948  19.652   6.062   6.623
 5635POPC   C3B71949  19.550   5.895   7.037
 5635POPC   C4B71950  19.664   5.788   7.478
 5636POPC   NC371951  16.513   5.135   5.431
 5636POPC   PO471952  17.044   5.455   5.408
 5636POPC   GL171953  16.919   5.138   5.737
 5636POPC   GL271954  16.556   5.209   5.917
 5636POPC   C1A71955  16.998   5.180   6.160
 5636POPC   D2A71956  16.784   5.127   6.535
 5636POPC   C3A71957  17.023   5.207   6.860
 5636POPC   C4A71958  16.980   5.004   7.205
 5636POPC   C1B71959  16.336   5.003   6.259
 5636POPC   C2B71960  16.301   4.988   6.714
 5636POPC   C3B71961  16.539   5.205   7.037
 5636POPC   C4B71962  16.437   5.428   7.415
 5637POPC   NC371963   1.458  31.402   5.260
 5637POPC   PO471964   2.139  31.529   5.251
 5637POPC   GL171965   2.079  31.473   5.701
 5637POPC   GL271966   1.807  31.229   5.665
 5637POPC   C1A71967   2.237  31.530   6.165
 5637POPC   D2A71968   2.049  31.470   6.599
 5637POPC   C3A71969   2.041  31.766   6.968
 5637POPC   C4A71970   2.006  31.939   7.389
 5637POPC   C1B71971   1.907  31.141   6.123
 5637POPC   C2B71972   1.958  30.959   6.548
 5637POPC   C3B71973   1.842  31.128   6.956
 5637POPC   C4B71974   1.722  31.053   7.373
 5638POPC   NC371975   6.577  35.896   5.492
 5638POPC   PO471976   6.301  36.522   5.452
 5638POPC   GL171977   6.321  36.245   5.812
 5638POPC   GL271978   6.594  36.004   5.995
 5638POPC   C1A71979   6.326  36.403   6.216
 5638POPC   D2A71980   6.608  36.347   6.544
 5638POPC   C3A71981   6.483  36.196   6.917
 5638POPC   C4A71982   6.447  36.196   7.337
 5638POPC   C1B71983   6.961  36.109   6.297
 5638POPC   C2B71984   7.002  36.099   6.776
 5638POPC   C3B71985   6.906  35.973   7.209
 5638POPC   C4B71986   7.142  35.857   7.609
 5639POPC   NC371987   1.915  21.257   5.393
 5639POPC   PO471988   2.522  21.502   5.185
 5639POPC   GL171989   2.290  21.196   5.749
 5639POPC   GL271990   2.060  21.409   5.981
 5639POPC   C1A71991   2.464  21.207   6.195
 5639POPC   D2A71992   2.277  21.411   6.558
 5639POPC   C3A71993   2.100  21.321   6.974
 5639POPC   C4A71994   2.069  21.658   7.222
 5639POPC   C1B71995   1.990  21.752   6.328
 5639POPC   C2B71996   1.801  21.751   6.773
 5639POPC   C3B71997   1.603  21.503   7.081
 5639POPC   C4B71998   1.614  21.050   7.149
 5640POPC   NC371999  19.474   4.472   5.537
 5640POPC   PO472000  20.111   4.574   5.510
 5640POPC   GL172001  19.882   4.443   5.861
 5640POPC   GL272002  19.750   4.119   5.825
 5640POPC   C1A72003  19.836   4.394   6.297
 5640POPC   D2A72004  20.064   4.636   6.589
 5640POPC   C3A72005  19.934   4.532   6.991
 5640POPC   C4A72006  19.828   4.139   7.180
 5640POPC   C1B72007  20.135   4.024   6.087
 5640POPC   C2B72008  20.402   4.154   6.447
 5640POPC   C3B72009  20.275   4.103   6.876
 5640POPC   C4B72010  20.264   3.813   7.208
 5641POPC   NC372011  32.907  10.182   4.941
 5641POPC   PO472012  33.169  10.408   5.542
 5641POPC   GL172013  33.073  10.648   5.876
 5641POPC   GL272014  32.713  10.721   5.887
 5641POPC   C1A72015  33.286  10.720   6.259
 5641POPC   D2A72016  33.398  10.528   6.640
 5641POPC   C3A72017  33.193  10.719   6.975
 5641POPC   C4A72018  33.000  10.416   7.256
 5641POPC   C1B72019  32.768  10.463   6.229
 5641POPC   C2B72020  32.866  10.629   6.582
 5641POPC   C3B72021  32.697  10.688   6.940
 5641POPC   C4B72022  32.810  10.924   7.287
 5642POPC   NC372023  12.791  13.621   5.389
 5642POPC   PO472024  12.483  13.995   5.776
 5642POPC   GL172025  12.823  13.764   5.910
 5642POPC   GL272026  12.841  13.405   5.848
 5642POPC   C1A72027  12.895  13.815   6.369
 5642POPC   D2A72028  13.060  13.490   6.597
 5642POPC   C3A72029  13.191  13.559   7.013
 5642POPC   C4A72030  12.881  13.817   7.230
 5642POPC   C1B72031  12.648  13.399   6.217
 5642POPC   C2B72032  12.539  13.483   6.610
 5642POPC   C3B72033  12.715  13.381   6.982
 5642POPC   C4B72034  12.543  13.458   7.344
 5643POPC   NC372035  35.010   1.401   5.535
 5643POPC   PO472036  34.371   1.122   5.419
 5643POPC   GL172037  34.471   1.230   5.828
 5643POPC   GL272038  34.283   1.531   5.813
 5643POPC   C1A72039  34.480   1.134   6.282
 5643POPC   D2A72040  34.433   1.274   6.704
 5643POPC   C3A72041  34.756   1.065   6.939
 5643POPC   C4A72042  34.803   0.697   7.189
 5643POPC   C1B72043  34.596   1.620   6.163
 5643POPC   C2B72044  34.713   1.748   6.588
 5643POPC   C3B72045  34.725   1.571   7.008
 5643POPC   C4B72046  34.387   1.341   7.223
 5644POPC   NC372047  34.381  14.698   5.319
 5644POPC   PO472048  34.485  14.030   5.258
 5644POPC   GL172049  34.426  14.330   5.674
 5644POPC   GL272050  34.721  14.543   5.731
 5644POPC   C1A72051  34.432  14.288   6.154
 5644POPC   D2A72052  34.501  14.472   6.580
 5644POPC   C3A72053  34.471  14.181   6.946
 5644POPC   C4A72054  34.505  14.097   7.396
 5644POPC   C1B72055  34.554  14.786   6.113
 5644POPC   C2B72056  34.445  14.996   6.506
 5644POPC   C3B72057  34.280  14.835   6.877
 5644POPC   C4B72058  34.565  14.666   7.142
 5645POPC   NC372059  37.432  33.241   5.484
 5645POPC   PO472060  37.596  32.573   5.315
 5645POPC   GL172061  37.520  32.800   5.733
 5645POPC   GL272062  37.857  32.828   5.810
 5645POPC   C1A72063  37.604  33.064   6.148
 5645POPC   D2A72064  37.758  32.904   6.539
 5645POPC   C3A72065  37.727  33.075   6.935
 5645POPC   C4A72066  37.568  32.840   7.243
 5645POPC   C1B72067  38.038  32.663   6.177
 5645POPC   C2B72068  38.146  32.551   6.577
 5645POPC   C3B72069  38.110  32.715   6.991
 5645POPC   C4B72070  38.115  32.883   7.403
 5646POPC   NC372071  22.154   1.226   5.167
 5646POPC   PO472072  21.506   1.221   5.229
 5646POPC   GL172073  21.861   1.122   5.608
 5646POPC   GL272074  22.268   1.112   5.664
 5646POPC   C1A72075  21.974   1.172   6.078
 5646POPC   D2A72076  22.223   1.236   6.479
 5646POPC   C3A72077  22.143   0.994   6.842
 5646POPC   C4A72078  22.028   1.030   7.273
 5646POPC   C1B72079  22.537   1.268   6.050
 5646POPC   C2B72080  22.709   1.378   6.504
 5646POPC   C3B72081  22.520   1.346   6.955
 5646POPC   C4B72082  22.494   1.237   7.428
 5647POPC   NC372083  32.938   7.278   5.340
 5647POPC   PO472084  32.917   6.563   5.287
 5647POPC   GL172085  32.960   6.608   5.760
 5647POPC   GL272086  33.010   6.255   5.827
 5647POPC   C1A72087  33.075   6.897   6.159
 5647POPC   D2A72088  33.000   7.096   6.610
 5647POPC   C3A72089  33.147   6.930   7.039
 5647POPC   C4A72090  33.001   6.757   7.446
 5647POPC   C1B72091  33.177   6.407   6.241
 5647POPC   C2B72092  33.212   6.574   6.673
 5647POPC   C3B72093  33.105   6.387   7.079
 5647POPC   C4B72094  32.763   6.112   7.187
 5648POPC   NC372095   5.543   2.004   5.420
 5648POPC   PO472096   6.186   1.787   5.591
 5648POPC   GL172097   5.859   1.754   5.890
 5648POPC   GL272098   5.699   2.079   5.904
 5648POPC   C1A72099   5.857   1.548   6.300
 5648POPC   D2A72100   6.171   1.629   6.638
 5648POPC   C3A72101   6.044   1.885   6.966
 5648POPC   C4A72102   5.651   1.763   7.145
 5648POPC   C1B72103   5.948   2.071   6.305
 5648POPC   C2B72104   5.793   2.255   6.698
 5648POPC   C3B72105   5.722   2.270   7.156
 5648POPC   C4B72106   5.712   2.374   7.622
 5649POPC   NC372107  39.822  15.684   5.554
 5649POPC   PO472108  40.174  16.257   5.297
 5649POPC   GL172109  40.146  16.238   5.754
 5649POPC   GL272110  39.832  16.117   5.852
 5649POPC   C1A72111  40.318  16.143   6.164
 5649POPC   D2A72112  40.518  16.160   6.554
 5649POPC   C3A72113  40.313  16.218   6.931
 5649POPC   C4A72114  40.344  16.083   7.339
 5649POPC   C1B72115  39.893  15.859   6.237
 5649POPC   C2B72116  40.052  15.857   6.669
 5649POPC   C3B72117  39.815  15.785   7.049
 5649POPC   C4B72118  39.517  15.705   7.386
 5650POPC   NC372119  11.664  31.279   5.360
 5650POPC   PO472120  12.267  31.793   5.306
 5650POPC   GL172121  11.975  31.635   5.704
 5650POPC   GL272122  11.763  31.302   5.839
 5650POPC   C1A72123  12.092  31.566   6.157
 5650POPC   D2A72124  12.152  31.747   6.584
 5650POPC   C3A72125  12.403  31.713   6.970
 5650POPC   C4A72126  12.252  31.562   7.378
 5650POPC   C1B72127  11.911  31.059   6.184
 5650POPC   C2B72128  12.160  31.183   6.510
 5650POPC   C3B72129  12.107  31.297   6.916
 5650POPC   C4B72130  12.084  31.057   7.253
 5651POPC   NC372131  40.817  11.706   5.609
 5651POPC   PO472132  40.638  12.363   5.665
 5651POPC   GL172133  40.710  12.058   5.952
 5651POPC   GL272134  40.413  11.865   6.017
 5651POPC   C1A72135  40.868  11.842   6.304
 5651POPC   D2A72136  40.777  11.917   6.740
 5651POPC   C3A72137  41.048  12.029   7.090
 5651POPC   C4A72138  40.991  11.963   7.543
 5651POPC   C1B72139  40.379  12.080   6.401
 5651POPC   C2B72140  40.322  12.170   6.842
 5651POPC   C3B72141  40.532  12.000   7.201
 5651POPC   C4B72142  40.508  12.068   7.640
 5652POPC   NC372143  26.406   9.888   5.054
 5652POPC   PO472144  26.951   9.605   5.198
 5652POPC   GL172145  26.935   9.482   5.666
 5652POPC   GL272146  26.637   9.723   5.739
 5652POPC   C1A72147  26.874   9.513   6.143
 5652POPC   D2A72148  26.522   9.489   6.465
 5652POPC   C3A72149  26.655   9.658   6.886
 5652POPC   C4A72150  27.033   9.918   6.954
 5652POPC   C1B72151  26.665  10.013   6.116
 5652POPC   C2B72152  26.469  10.031   6.528
 5652POPC   C3B72153  26.564  10.174   6.933
 5652POPC   C4B72154  26.423  10.330   7.290
 5653POPC   NC372155   7.701  30.185   5.514
 5653POPC   PO472156   8.273  29.705   5.429
 5653POPC   GL172157   8.018  29.850   5.776
 5653POPC   GL272158   7.653  29.718   5.798
 5653POPC   C1A72159   8.176  30.041   6.174
 5653POPC   D2A72160   8.453  30.076   6.537
 5653POPC   C3A72161   8.252  30.139   6.909
 5653POPC   C4A72162   8.339  29.979   7.315
 5653POPC   C1B72163   7.908  29.567   6.177
 5653POPC   C2B72164   8.218  29.620   6.509
 5653POPC   C3B72165   8.226  29.624   6.954
 5653POPC   C4B72166   8.041  29.591   7.416
 5654POPC   NC372167  33.982  37.275   5.634
 5654POPC   PO472168  34.056  37.937   5.358
 5654POPC   GL172169  33.835  37.981   5.770
 5654POPC   GL272170  33.697  37.647   5.872
 5654POPC   C1A72171  33.917  37.914   6.234
 5654POPC   D2A72172  33.694  37.718   6.588
 5654POPC   C3A72173  33.911  37.620   6.934
 5654POPC   C4A72174  33.840  37.845   7.306
 5654POPC   C1B72175  33.846  37.376   6.251
 5654POPC   C2B72176  33.666  37.129   6.565
 5654POPC   C3B72177  33.581  37.142   7.009
 5654POPC   C4B72178  33.801  37.339   7.347
 5655POPC   NC372179  35.187   0.470   5.216
 5655POPC   PO472180  35.799   0.609   5.384
 5655POPC   GL172181  35.442   0.456   5.705
 5655POPC   GL272182  35.080   0.459   5.731
 5655POPC   C1A72183  35.400   0.589   6.139
 5655POPC   D2A72184  35.206   0.486   6.518
 5655POPC   C3A72185  35.203   0.763   6.836
 5655POPC   C4A72186  35.371   0.617   7.212
 5655POPC   C1B72187  35.092   0.158   6.114
 5655POPC   C2B72188  34.916   0.070   6.562
 5655POPC   C3B72189  35.017   0.279   6.980
 5655POPC   C4B72190  35.053   0.292   7.471
 5656POPC   NC372191  41.860  34.525   5.442
 5656POPC   PO472192  41.216  34.417   5.587
 5656POPC   GL172193  41.567  34.334   5.816
 5656POPC   GL272194  41.620  34.691   5.865
 5656POPC   C1A72195  41.626  34.327   6.228
 5656POPC   D2A72196  41.478  34.180   6.564
 5656POPC   C3A72197  41.526  34.411   6.998
 5656POPC   C4A72198  41.411  34.406   7.478
 5656POPC   C1B72199  41.818  34.804   6.251
 5656POPC   C2B72200  41.605  34.787   6.634
 5656POPC   C3B72201  41.815  34.823   7.028
 5656POPC   C4B72202  41.644  34.847   7.442
 5657POPC   NC372203  18.871  23.159   5.312
 5657POPC   PO472204  19.222  22.611   5.539
 5657POPC   GL172205  19.090  22.937   5.756
 5657POPC   GL272206  19.300  23.182   5.639
 5657POPC   C1A72207  18.937  23.001   6.173
 5657POPC   D2A72208  18.911  22.842   6.607
 5657POPC   C3A72209  18.748  22.974   7.019
 5657POPC   C4A72210  19.049  22.859   7.376
 5657POPC   C1B72211  19.290  23.355   6.051
 5657POPC   C2B72212  19.284  23.204   6.480
 5657POPC   C3B72213  19.177  23.195   6.900
 5657POPC   C4B72214  19.005  23.352   7.305
 5658POPC   NC372215   3.216  28.234   5.367
 5658POPC   PO472216   3.823  27.987   5.182
 5658POPC   GL172217   3.627  28.106   5.659
 5658POPC   GL272218   3.469  28.476   5.809
 5658POPC   C1A72219   3.686  28.168   6.137
 5658POPC   D2A72220   3.769  27.939   6.527
 5658POPC   C3A72221   3.808  28.222   6.868
 5658POPC   C4A72222   3.583  28.374   7.221
 5658POPC   C1B72223   3.440  28.683   6.285
 5658POPC   C2B72224   3.396  28.721   6.791
 5658POPC   C3B72225   3.211  28.712   7.255
 5658POPC   C4B72226   3.213  28.763   7.746
 5659POPC   NC372227  29.462   9.013   5.496
 5659POPC   PO472228  28.821   8.728   5.415
 5659POPC   GL172229  29.074   8.832   5.764
 5659POPC   GL272230  29.096   9.163   5.860
 5659POPC   C1A72231  29.369   8.808   6.137
 5659POPC   D2A72232  29.347   9.043   6.539
 5659POPC   C3A72233  29.316   8.879   6.951
 5659POPC   C4A72234  29.071   8.799   7.337
 5659POPC   C1B72235  29.075   9.422   6.227
 5659POPC   C2B72236  29.047   9.496   6.657
 5659POPC   C3B72237  29.007   9.294   7.052
 5659POPC   C4B72238  29.041   9.309   7.507
 5660POPC   NC372239   1.039   4.225   5.622
 5660POPC   PO472240   1.493   4.708   5.491
 5660POPC   GL172241   1.331   4.534   5.881
 5660POPC   GL272242   0.984   4.639   5.958
 5660POPC   C1A72243   1.432   4.266   6.256
 5660POPC   D2A72244   1.632   4.318   6.684
 5660POPC   C3A72245   1.327   4.239   6.978
 5660POPC   C4A72246   1.014   3.939   7.114
 5660POPC   C1B72247   1.297   4.764   6.329
 5660POPC   C2B72248   1.330   4.725   6.786
 5660POPC   C3B72249   1.298   4.691   7.239
 5660POPC   C4B72250   1.423   4.563   7.671
 5661POPC   NC372251  42.207  17.169   5.354
 5661POPC   PO472252  42.195  17.778   5.121
 5661POPC   GL172253  42.435  17.635   5.583
 5661POPC   GL272254  42.583  17.327   5.700
 5661POPC   C1A72255  42.407  17.638   6.113
 5661POPC   D2A72256  42.244  17.614   6.601
 5661POPC   C3A72257  42.380  17.711   7.059
 5661POPC   C4A72258  42.235  17.607   7.514
 5661POPC   C1B72259  42.671  17.176   6.144
 5661POPC   C2B72260  42.487  17.149   6.573
 5661POPC   C3B72261  42.305  17.218   6.997
 5661POPC   C4B72262  42.622  17.314   7.291
 5662POPC   NC372263  42.938  41.751   5.404
 5662POPC   PO472264  43.481  41.434   5.510
 5662POPC   GL172265  43.205  41.652   5.826
 5662POPC   GL272266  43.137  41.317   5.950
 5662POPC   C1A72267  42.991  41.699   6.242
 5662POPC   D2A72268  43.017  41.342   6.571
 5662POPC   C3A72269  43.028  41.497   7.019
 5662POPC   C4A72270  43.019  41.449   7.498
 5662POPC   C1B72271  43.444  41.469   6.305
 5662POPC   C2B72272  43.490  41.404   6.783
 5662POPC   C3B72273  43.399  41.170   7.166
 5662POPC   C4B72274  43.415  41.165   7.599
 5663POPC   NC372275   8.188   6.997   5.427
 5663POPC   PO472276   7.929   6.304   5.457
 5663POPC   GL172277   8.020   6.520   5.841
 5663POPC   GL272278   8.239   6.817   5.899
 5663POPC   C1A72279   8.144   6.400   6.265
 5663POPC   D2A72280   8.387   6.457   6.650
 5663POPC   C3A72281   8.120   6.412   7.012
 5663POPC   C4A72282   7.937   6.628   7.352
 5663POPC   C1B72283   8.558   7.031   6.166
 5663POPC   C2B72284   8.721   6.918   6.587
 5663POPC   C3B72285   8.677   7.090   7.011
 5663POPC   C4B72286   8.350   6.960   7.334
 5664POPC   NC372287   8.570  20.532   5.386
 5664POPC   PO472288   9.061  21.020   5.251
 5664POPC   GL172289   8.988  20.820   5.675
 5664POPC   GL272290   8.988  20.472   5.674
 5664POPC   C1A72291   9.187  20.745   6.117
 5664POPC   D2A72292   9.075  20.848   6.541
 5664POPC   C3A72293   9.166  20.778   6.945
 5664POPC   C4A72294   8.784  20.719   7.151
 5664POPC   C1B72295   8.790  20.416   6.076
 5664POPC   C2B72296   9.022  20.362   6.444
 5664POPC   C3B72297   8.953  20.332   6.856
 5664POPC   C4B72298   9.255  20.302   7.112
 5665POPC   NC372299   9.764  41.105   5.045
 5665POPC   PO472300   9.886  40.447   5.135
 5665POPC   GL172301   9.824  40.550   5.614
 5665POPC   GL272302   9.679  40.871   5.693
 5665POPC   C1A72303   9.886  40.539   6.079
 5665POPC   D2A72304   9.708  40.742   6.468
 5665POPC   C3A72305   9.972  40.866   6.809
 5665POPC   C4A72306   9.788  40.835   7.233
 5665POPC   C1B72307   9.452  41.003   6.092
 5665POPC   C2B72308   9.452  41.185   6.542
 5665POPC   C3B72309   9.418  41.075   6.979
 5665POPC   C4B72310   9.295  40.670   7.192
 5666POPC   NC372311  26.533   0.513   5.364
 5666POPC   PO472312  27.063   0.102   5.340
 5666POPC   GL172313  26.877   0.298   5.714
 5666POPC   GL272314  26.829   0.675   5.762
 5666POPC   C1A72315  26.700   0.313   6.132
 5666POPC   D2A72316  26.903   0.337   6.534
 5666POPC   C3A72317  26.764   0.378   6.964
 5666POPC   C4A72318  27.088   0.253   7.273
 5666POPC   C1B72319  26.627   0.829   6.153
 5666POPC   C2B72320  26.629   0.765   6.605
 5666POPC   C3B72321  26.775   0.896   6.990
 5666POPC   C4B72322  26.742   0.822   7.418
 5667POPC   NC372323   7.854  12.795   5.509
 5667POPC   PO472324   7.225  13.128   5.576
 5667POPC   GL172325   7.518  12.998   5.853
 5667POPC   GL272326   7.633  13.314   5.851
 5667POPC   C1A72327   7.563  12.849   6.270
 5667POPC   D2A72328   7.300  12.689   6.596
 5667POPC   C3A72329   7.566  12.584   6.899
 5667POPC   C4A72330   7.637  12.664   7.321
 5667POPC   C1B72331   7.357  13.340   6.234
 5667POPC   C2B72332   7.434  13.206   6.669
 5667POPC   C3B72333   7.493  13.179   7.115
 5667POPC   C4B72334   7.495  13.449   7.487
 5668POPC   NC372335  34.494  42.475   5.192
 5668POPC   PO472336  35.090  42.273   5.547
 5668POPC   GL172337  34.808  42.391   5.875
 5668POPC   GL272338  34.483  42.519   5.725
 5668POPC   C1A72339  34.672  42.328   6.300
 5668POPC   D2A72340  34.456  42.398   6.686
 5668POPC   C3A72341  34.768  42.364   7.008
 5668POPC   C4A72342  34.721  42.208   7.440
 5668POPC   C1B72343  34.336  42.692   6.135
 5668POPC   C2B72344  34.083  42.748   6.543
 5668POPC   C3B72345  34.054  42.647   6.961
 5668POPC   C4B72346  34.310  42.381   7.210
 5669POPC   NC372347   9.894  17.678   5.236
 5669POPC   PO472348   9.741  18.389   5.441
 5669POPC   GL172349   9.832  18.303   5.855
 5669POPC   GL272350   9.504  18.261   5.930
 5669POPC   C1A72351   9.931  18.231   6.282
 5669POPC   D2A72352   9.821  18.418   6.676
 5669POPC   C3A72353   9.854  18.141   6.994
 5669POPC   C4A72354  10.196  18.036   7.243
 5669POPC   C1B72355   9.565  18.607   6.252
 5669POPC   C2B72356   9.396  18.700   6.694
 5669POPC   C3B72357   9.508  18.518   7.101
 5669POPC   C4B72358   9.354  18.634   7.547
 5670POPC   NC372359  28.663   1.817   5.463
 5670POPC   PO472360  28.020   1.936   5.515
 5670POPC   GL172361  28.069   2.089   5.906
 5670POPC   GL272362  28.396   2.011   5.868
 5670POPC   C1A72363  28.207   2.145   6.308
 5670POPC   D2A72364  28.385   2.271   6.640
 5670POPC   C3A72365  28.352   1.996   6.973
 5670POPC   C4A72366  28.060   1.697   7.101
 5670POPC   C1B72367  28.673   1.713   6.117
 5670POPC   C2B72368  28.649   1.771   6.554
 5670POPC   C3B72369  28.521   1.521   6.898
 5670POPC   C4B72370  28.588   1.636   7.284
 5671POPC   NC372371  35.880   7.042   5.511
 5671POPC   PO472372  36.195   7.454   5.135
 5671POPC   GL172373  36.191   7.646   5.674
 5671POPC   GL272374  36.194   7.295   5.834
 5671POPC   C1A72375  36.145   7.639   6.178
 5671POPC   D2A72376  36.257   7.321   6.519
 5671POPC   C3A72377  36.329   7.436   6.925
 5671POPC   C4A72378  36.217   7.722   7.253
 5671POPC   C1B72379  35.882   7.220   6.156
 5671POPC   C2B72380  35.871   7.001   6.496
 5671POPC   C3B72381  35.770   7.150   6.845
 5671POPC   C4B72382  35.926   7.284   7.218
 5672POPC   NC372383  19.488   9.212   5.416
 5672POPC   PO472384  19.992   8.678   5.413
 5672POPC   GL172385  19.881   8.730   5.812
 5672POPC   GL272386  19.565   8.844   5.782
 5672POPC   C1A72387  19.871   8.995   6.188
 5672POPC   D2A72388  19.754   9.321   6.486
 5672POPC   C3A72389  19.974   9.254   6.855
 5672POPC   C4A72390  19.898   9.289   7.262
 5672POPC   C1B72391  19.492   8.646   6.170
 5672POPC   C2B72392  19.561   8.786   6.584
 5672POPC   C3B72393  19.505   8.610   6.985
 5672POPC   C4B72394  19.697   8.785   7.318
 5673POPC   NC372395  39.716  26.277   5.411
 5673POPC   PO472396  40.088  25.774   5.565
 5673POPC   GL172397  40.047  25.945   5.947
 5673POPC   GL272398  39.830  26.228   5.921
 5673POPC   C1A72399  39.894  25.898   6.353
 5673POPC   D2A72400  39.715  25.934   6.753
 5673POPC   C3A72401  40.028  25.943   7.062
 5673POPC   C4A72402  40.416  25.999   7.280
 5673POPC   C1B72403  40.186  26.369   6.204
 5673POPC   C2B72404  40.188  26.469   6.645
 5673POPC   C3B72405  39.879  26.422   6.946
 5673POPC   C4B72406  39.659  26.643   7.249
 5674POPC   NC372407  35.185  25.427   5.356
 5674POPC   PO472408  35.788  25.126   5.308
 5674POPC   GL172409  35.456  25.027   5.650
 5674POPC   GL272410  35.244  25.310   5.830
 5674POPC   C1A72411  35.512  25.026   6.121
 5674POPC   D2A72412  35.561  25.431   6.347
 5674POPC   C3A72413  35.390  25.380   6.740
 5674POPC   C4A72414  35.489  25.594   7.100
 5674POPC   C1B72415  35.053  25.317   6.239
 5674POPC   C2B72416  34.823  25.465   6.585
 5674POPC   C3B72417  34.971  25.597   6.970
 5674POPC   C4B72418  35.080  25.380   7.313
 5675POPC   NC372419  32.982  40.067   5.534
 5675POPC   PO472420  33.212  39.443   5.371
 5675POPC   GL172421  33.232  39.354   5.781
 5675POPC   GL272422  32.926  39.521   5.863
 5675POPC   C1A72423  33.120  39.161   6.173
 5675POPC   D2A72424  32.941  39.211   6.565
 5675POPC   C3A72425  33.181  39.079   6.906
 5675POPC   C4A72426  32.986  38.973   7.273
 5675POPC   C1B72427  32.687  39.513   6.229
 5675POPC   C2B72428  32.724  39.660   6.644
 5675POPC   C3B72429  32.880  39.480   7.042
 5675POPC   C4B72430  32.846  39.453   7.499
 5676POPC   NC372431  18.641  16.048   5.430
 5676POPC   PO472432  18.194  15.598   5.530
 5676POPC   GL172433  18.191  15.985   5.731
 5676POPC   GL272434  17.833  15.966   5.808
 5676POPC   C1A72435  18.421  15.910   6.101
 5676POPC   D2A72436  18.266  15.801   6.479
 5676POPC   C3A72437  18.338  16.044   6.829
 5676POPC   C4A72438  18.430  15.979   7.260
 5676POPC   C1B72439  17.975  16.170   6.200
 5676POPC   C2B72440  17.859  16.195   6.662
 5676POPC   C3B72441  17.907  15.985   7.080
 5676POPC   C4B72442  18.167  15.584   7.086
 5677POPC   NC372443  32.470  43.930   5.435
 5677POPC   PO472444  31.765  43.808   5.427
 5677POPC   GL172445  32.060  43.942   5.795
 5677POPC   GL272446  32.396  43.771   5.903
 5677POPC   C1A72447  32.202  44.126   6.208
 5677POPC   D2A72448  32.353  44.028   6.637
 5677POPC   C3A72449  32.057  44.075   6.958
 5677POPC   C4A72450  31.972  44.072   7.390
 5677POPC   C1B72451  32.096  43.491   6.093
 5677POPC   C2B72452  32.117  43.335   6.500
 5677POPC   C3B72453  32.181  43.568   6.853
 5677POPC   C4B72454  31.957  43.595   7.210
 5678POPC   NC372455   4.620   0.701   5.539
 5678POPC   PO472456   4.181   0.267   5.388
 5678POPC   GL172457   4.302   0.314   5.791
 5678POPC   GL272458   4.137   0.664   5.774
 5678POPC   C1A72459   4.378   0.118   6.227
 5678POPC   D2A72460   4.632   0.316   6.570
 5678POPC   C3A72461   4.518   0.340   6.998
 5678POPC   C4A72462   4.645   0.614   7.301
 5678POPC   C1B72463   4.316   0.623   6.192
 5678POPC   C2B72464   4.156   0.491   6.571
 5678POPC   C3B72465   4.198   0.733   6.908
 5678POPC   C4B72466   4.118   0.613   7.283
 5679POPC   NC372467   7.818   5.844   5.432
 5679POPC   PO472468   7.239   6.132   5.533
 5679POPC   GL172469   7.556   6.077   5.840
 5679POPC   GL272470   7.529   5.685   5.819
 5679POPC   C1A72471   7.442   6.249   6.267
 5679POPC   D2A72472   7.330   6.006   6.646
 5679POPC   C3A72473   7.588   6.099   6.986
 5679POPC   C4A72474   7.367   6.143   7.340
 5679POPC   C1B72475   7.518   5.740   6.245
 5679POPC   C2B72476   7.720   5.600   6.610
 5679POPC   C3B72477   7.572   5.474   6.949
 5679POPC   C4B72478   7.268   5.703   7.080
 5680POPC   NC372479   5.171   4.199   5.439
 5680POPC   PO472480   5.175   4.812   5.623
 5680POPC   GL172481   4.921   4.527   5.897
 5680POPC   GL272482   4.830   4.160   5.824
 5680POPC   C1A72483   4.986   4.383   6.350
 5680POPC   D2A72484   5.335   4.267   6.646
 5680POPC   C3A72485   5.272   4.497   7.029
 5680POPC   C4A72486   4.924   4.498   7.333
 5680POPC   C1B72487   4.941   3.904   6.167
 5680POPC   C2B72488   4.784   3.898   6.554
 5680POPC   C3B72489   4.915   4.119   6.933
 5680POPC   C4B72490   4.956   3.979   7.357
 5681POPC   NC372491  27.537   5.121   5.280
 5681POPC   PO472492  27.815   4.553   5.458
 5681POPC   GL172493  27.583   4.853   5.772
 5681POPC   GL272494  27.449   5.190   5.803
 5681POPC   C1A72495  27.346   4.790   6.174
 5681POPC   D2A72496  27.462   4.583   6.592
 5681POPC   C3A72497  27.375   4.807   7.009
 5681POPC   C4A72498  27.311   4.822   7.471
 5681POPC   C1B72499  27.653   5.217   6.193
 5681POPC   C2B72500  27.643   5.083   6.614
 5681POPC   C3B72501  27.742   5.221   7.009
 5681POPC   C4B72502  27.830   5.343   7.425
 5682POPC   NC372503  21.189  32.492   5.339
 5682POPC   PO472504  21.076  31.783   5.506
 5682POPC   GL172505  21.243  32.098   5.799
 5682POPC   GL272506  21.319  32.473   5.825
 5682POPC   C1A72507  21.090  32.090   6.220
 5682POPC   D2A72508  21.297  32.016   6.600
 5682POPC   C3A72509  21.225  31.929   7.015
 5682POPC   C4A72510  21.338  32.183   7.360
 5682POPC   C1B72511  21.532  32.319   6.180
 5682POPC   C2B72512  21.575  32.449   6.573
 5682POPC   C3B72513  21.633  32.273   6.957
 5682POPC   C4B72514  21.867  32.380   7.302
 5683POPC   NC372515  32.935  44.974   5.332
 5683POPC   PO472516  33.367   0.462   5.303
 5683POPC   GL172517  33.048   0.514   5.628
 5683POPC   GL272518  32.990   0.219   5.801
 5683POPC   C1A72519  33.009   0.708   6.046
 5683POPC   D2A72520  33.068   0.719   6.529
 5683POPC   C3A72521  32.882   0.601   6.964
 5683POPC   C4A72522  33.025   0.508   7.412
 5683POPC   C1B72523  32.781   0.280   6.221
 5683POPC   C2B72524  32.664   0.047   6.623
 5683POPC   C3B72525  32.737   0.113   7.095
 5683POPC   C4B72526  32.774   0.093   7.583
 5684POPC   NC372527   9.834  38.821   5.418
 5684POPC   PO472528   9.829  39.496   5.438
 5684POPC   GL172529   9.584  39.259   5.744
 5684POPC   GL272530   9.843  39.064   5.863
 5684POPC   C1A72531   9.421  39.138   6.176
 5684POPC   D2A72532   9.521  39.451   6.518
 5684POPC   C3A72533   9.515  39.322   6.966
 5684POPC   C4A72534   9.767  39.086   7.275
 5684POPC   C1B72535   9.903  39.133   6.288
 5684POPC   C2B72536   9.930  39.195   6.698
 5684POPC   C3B72537  10.173  39.049   6.962
 5684POPC   C4B72538  10.375  39.231   7.232
 5685POPC   NC372539  15.153   0.306   5.468
 5685POPC   PO472540  15.062   0.949   5.430
 5685POPC   GL172541  15.085   0.676   5.815
 5685POPC   GL272542  15.413   0.480   5.871
 5685POPC   C1A72543  15.039   0.431   6.230
 5685POPC   D2A72544  14.912   0.255   6.624
 5685POPC   C3A72545  15.022   0.574   6.900
 5685POPC   C4A72546  15.295   0.527   7.248
 5685POPC   C1B72547  15.531   0.403   6.303
 5685POPC   C2B72548  15.428   0.313   6.731
 5685POPC   C3B72549  15.561   0.088   7.056
 5685POPC   C4B72550  15.735   0.330   7.400
 5686POPC   NC372551  27.194  16.596   5.499
 5686POPC   PO472552  26.610  16.818   5.520
 5686POPC   GL172553  26.722  16.686   5.911
 5686POPC   GL272554  27.082  16.732   5.985
 5686POPC   C1A72555  26.572  16.666   6.323
 5686POPC   D2A72556  26.863  16.865   6.582
 5686POPC   C3A72557  26.813  16.863   7.011
 5686POPC   C4A72558  27.040  17.085   7.300
 5686POPC   C1B72559  27.022  16.402   6.291
 5686POPC   C2B72560  26.868  16.362   6.725
 5686POPC   C3B72561  26.817  16.370   7.181
 5686POPC   C4B72562  26.408  16.397   7.286
 5687POPC   NC372563  39.553  34.204   5.640
 5687POPC   PO472564  39.965  33.694   5.209
 5687POPC   GL172565  39.965  33.492   5.738
 5687POPC   GL272566  39.624  33.547   5.820
 5687POPC   C1A72567  40.068  33.677   6.180
 5687POPC   D2A72568  39.905  34.024   6.419
 5687POPC   C3A72569  40.013  34.028   6.881
 5687POPC   C4A72570  39.712  34.051   7.215
 5687POPC   C1B72571  39.596  33.551   6.243
 5687POPC   C2B72572  39.804  33.579   6.652
 5687POPC   C3B72573  39.983  33.556   7.066
 5687POPC   C4B72574  40.232  33.396   7.433
 5688POPC   NC372575  44.059  35.411   5.541
 5688POPC   PO472576  44.593  35.248   5.327
 5688POPC   GL172577  44.481  35.353   5.825
 5688POPC   GL272578  44.173  35.189   5.980
 5688POPC   C1A72579  44.404  35.510   6.293
 5688POPC   D2A72580  44.243  35.581   6.742
 5688POPC   C3A72581  44.563  35.504   7.083
 5688POPC   C4A72582  44.913  35.531   7.393
 5688POPC   C1B72583  44.199  35.037   6.415
 5688POPC   C2B72584  44.444  35.116   6.763
 5688POPC   C3B72585  44.623  34.983   7.149
 5688POPC   C4B72586  44.482  34.691   7.478
 5689POPC   NC372587   9.201  16.958   5.225
 5689POPC   PO472588   8.696  16.609   5.405
 5689POPC   GL172589   8.862  16.492   5.836
 5689POPC   GL272590   8.621  16.243   5.928
 5689POPC   C1A72591   9.078  16.691   6.246
 5689POPC   D2A72592   9.398  16.645   6.595
 5689POPC   C3A72593   9.165  16.560   7.004
 5689POPC   C4A72594   9.040  16.783   7.371
 5689POPC   C1B72595   8.597  16.501   6.274
 5689POPC   C2B72596   8.787  16.524   6.660
 5689POPC   C3B72597   8.634  16.510   7.068
 5689POPC   C4B72598   8.550  16.698   7.455
 5690POPC   NC372599  20.463   5.949   5.425
 5690POPC   PO472600  21.031   5.631   5.383
 5690POPC   GL172601  20.835   5.800   5.749
 5690POPC   GL272602  20.559   5.590   5.792
 5690POPC   C1A72603  20.652   5.966   6.141
 5690POPC   D2A72604  20.734   5.777   6.539
 5690POPC   C3A72605  20.573   5.929   6.957
 5690POPC   C4A72606  20.834   6.095   7.270
 5690POPC   C1B72607  20.431   5.496   6.196
 5690POPC   C2B72608  20.308   5.547   6.622
 5690POPC   C3B72609  20.406   5.454   7.070
 5690POPC   C4B72610  20.393   5.279   7.502
 5691POPC   NC372611  18.659  25.954   5.241
 5691POPC   PO472612  18.073  25.771   5.451
 5691POPC   GL172613  18.322  25.939   5.801
 5691POPC   GL272614  18.674  25.858   5.782
 5691POPC   C1A72615  18.349  26.080   6.250
 5691POPC   D2A72616  18.114  25.987   6.658
 5691POPC   C3A72617  18.241  26.109   7.051
 5691POPC   C4A72618  18.139  26.489   7.281
 5691POPC   C1B72619  18.553  25.631   6.171
 5691POPC   C2B72620  18.608  25.707   6.611
 5691POPC   C3B72621  18.563  25.696   7.051
 5691POPC   C4B72622  18.521  25.885   7.460
 5692POPC   NC372623  15.155  31.610   5.409
 5692POPC   PO472624  14.839  31.167   5.818
 5692POPC   GL172625  15.199  31.458   5.873
 5692POPC   GL272626  15.061  31.802   5.927
 5692POPC   C1A72627  15.515  31.717   6.115
 5692POPC   D2A72628  15.525  31.830   6.538
 5692POPC   C3A72629  15.327  31.496   6.815
 5692POPC   C4A72630  15.442  31.501   7.237
 5692POPC   C1B72631  15.054  31.538   6.346
 5692POPC   C2B72632  14.818  31.464   6.737
 5692POPC   C3B72633  14.922  31.586   7.161
 5692POPC   C4B72634  15.104  31.757   7.560
 5693POPC   NC372635  29.493   1.161   5.584
 5693POPC   PO472636  28.921   1.468   5.301
 5693POPC   GL172637  28.833   1.404   5.719
 5693POPC   GL272638  29.148   1.437   5.843
 5693POPC   C1A72639  28.834   1.081   6.042
 5693POPC   D2A72640  29.054   1.008   6.446
 5693POPC   C3A72641  29.036   1.363   6.686
 5693POPC   C4A72642  28.971   1.359   7.113
 5693POPC   C1B72643  29.373   1.339   6.211
 5693POPC   C2B72644  29.554   1.113   6.556
 5693POPC   C3B72645  29.447   0.949   6.963
 5693POPC   C4B72646  29.392   1.176   7.328
 5694POPC   NC372647  32.325   1.589   5.497
 5694POPC   PO472648  32.522   0.995   5.357
 5694POPC   GL172649  32.342   1.015   5.757
 5694POPC   GL272650  32.011   1.136   5.735
 5694POPC   C1A72651  32.342   1.275   6.139
 5694POPC   D2A72652  32.438   1.556   6.484
 5694POPC   C3A72653  32.330   1.345   6.879
 5694POPC   C4A72654  32.517   0.987   7.075
 5694POPC   C1B72655  31.994   0.894   6.131
 5694POPC   C2B72656  32.164   0.962   6.574
 5694POPC   C3B72657  31.945   1.034   7.002
 5694POPC   C4B72658  31.874   1.264   7.420
 5695POPC   NC372659   6.308   9.910   5.590
 5695POPC   PO472660   6.931   9.595   5.524
 5695POPC   GL172661   6.692   9.705   5.866
 5695POPC   GL272662   6.419   9.446   5.840
 5695POPC   C1A72663   6.681  10.011   6.218
 5695POPC   D2A72664   6.841  10.199   6.601
 5695POPC   C3A72665   6.576  10.084   6.942
 5695POPC   C4A72666   6.602   9.970   7.390
 5695POPC   C1B72667   6.390   9.598   6.264
 5695POPC   C2B72668   6.482   9.656   6.668
 5695POPC   C3B72669   6.561   9.554   7.089
 5695POPC   C4B72670   6.258   9.563   7.426
 5696POPC   NC372671  35.757  35.040   5.506
 5696POPC   PO472672  36.251  35.560   5.318
 5696POPC   GL172673  36.273  35.405   5.720
 5696POPC   GL272674  35.960  35.474   5.817
 5696POPC   C1A72675  36.293  35.063   6.045
 5696POPC   D2A72676  36.196  34.958   6.493
 5696POPC   C3A72677  36.337  35.118   6.900
 5696POPC   C4A72678  36.204  35.346   7.296
 5696POPC   C1B72679  35.811  35.239   6.191
 5696POPC   C2B72680  35.713  35.136   6.618
 5696POPC   C3B72681  35.827  35.123   7.039
 5696POPC   C4B72682  35.664  35.102   7.488
 5697POPC   NC372683  41.899  22.384   5.459
 5697POPC   PO472684  41.531  22.912   5.137
 5697POPC   GL172685  41.671  22.944   5.578
 5697POPC   GL272686  41.338  23.017   5.770
 5697POPC   C1A72687  41.766  22.937   6.035
 5697POPC   D2A72688  41.526  22.904   6.430
 5697POPC   C3A72689  41.606  22.899   6.848
 5697POPC   C4A72690  41.329  22.834   7.191
 5697POPC   C1B72691  41.432  23.305   6.143
 5697POPC   C2B72692  41.366  23.395   6.563
 5697POPC   C3B72693  41.296  23.302   6.957
 5697POPC   C4B72694  41.536  23.292   7.320
 5698POPC   NC372695  16.396  43.330   5.338
 5698POPC   PO472696  16.798  42.733   5.384
 5698POPC   GL172697  16.691  42.786   5.802
 5698POPC   GL272698  16.402  42.941   5.701
 5698POPC   C1A72699  16.777  42.847   6.260
 5698POPC   D2A72700  16.937  43.101   6.585
 5698POPC   C3A72701  16.821  42.989   6.978
 5698POPC   C4A72702  16.442  42.861   7.138
 5698POPC   C1B72703  16.528  43.221   6.032
 5698POPC   C2B72704  16.425  43.222   6.486
 5698POPC   C3B72705  16.475  43.367   6.943
 5698POPC   C4B72706  16.216  43.331   7.321
 5699POPC   NC372707  13.880  11.509   5.706
 5699POPC   PO472708  13.522  11.210   5.142
 5699POPC   GL172709  13.394  11.259   5.683
 5699POPC   GL272710  13.461  11.542   5.990
 5699POPC   C1A72711  13.255  11.122   6.117
 5699POPC   D2A72712  13.448  11.324   6.512
 5699POPC   C3A72713  13.715  11.103   6.836
 5699POPC   C4A72714  14.048  11.259   7.142
 5699POPC   C1B72715  13.705  11.819   6.265
 5699POPC   C2B72716  13.793  11.950   6.667
 5699POPC   C3B72717  13.706  11.604   6.921
 5699POPC   C4B72718  13.388  11.396   7.169
 5700POPC   NC372719   9.272  37.487   5.291
 5700POPC   PO472720   8.828  37.967   5.163
 5700POPC   GL172721   8.895  37.894   5.684
 5700POPC   GL272722   8.666  37.667   5.870
 5700POPC   C1A72723   8.879  38.095   6.163
 5700POPC   D2A72724   8.812  38.227   6.620
 5700POPC   C3A72725   8.988  37.941   6.940
 5700POPC   C4A72726   9.241  37.597   7.150
 5700POPC   C1B72727   8.979  37.564   6.181
 5700POPC   C2B72728   9.084  37.548   6.607
 5700POPC   C3B72729   8.799  37.457   6.921
 5700POPC   C4B72730   8.793  37.244   7.296
 5701POPC   NC372731  26.915   7.431   5.351
 5701POPC   PO472732  26.379   7.041   5.478
 5701POPC   GL172733  26.561   7.301   5.820
 5701POPC   GL272734  26.805   7.588   5.829
 5701POPC   C1A72735  26.559   7.340   6.271
 5701POPC   D2A72736  26.771   7.079   6.574
 5701POPC   C3A72737  26.799   7.269   6.958
 5701POPC   C4A72738  26.777   7.396   7.353
 5701POPC   C1B72739  26.966   7.685   6.258
 5701POPC   C2B72740  26.755   7.725   6.685
 5701POPC   C3B72741  26.957   7.781   7.081
 5701POPC   C4B72742  27.097   7.763   7.522
 5702POPC   NC372743  37.202  34.352   5.354
 5702POPC   PO472744  36.545  34.606   5.259
 5702POPC   GL172745  36.694  34.741   5.700
 5702POPC   GL272746  36.936  34.485   5.800
 5702POPC   C1A72747  36.574  34.609   6.150
 5702POPC   D2A72748  36.765  34.428   6.560
 5702POPC   C3A72749  36.702  34.656   6.968
 5702POPC   C4A72750  36.840  34.503   7.387
 5702POPC   C1B72751  37.115  34.621   6.205
 5702POPC   C2B72752  37.311  34.417   6.577
 5702POPC   C3B72753  37.155  34.391   6.986
 5702POPC   C4B72754  37.315  34.254   7.411
 5703POPC   NC372755   9.252  27.929   5.503
 5703POPC   PO472756   9.006  27.290   5.452
 5703POPC   GL172757   8.762  27.334   5.838
 5703POPC   GL272758   8.881  27.681   5.813
 5703POPC   C1A72759   8.765  27.399   6.285
 5703POPC   D2A72760   9.089  27.590   6.583
 5703POPC   C3A72761   8.998  27.405   6.984
 5703POPC   C4A72762   9.179  27.406   7.390
 5703POPC   C1B72763   8.885  27.889   6.200
 5703POPC   C2B72764   8.937  28.120   6.592
 5703POPC   C3B72765   8.794  28.142   6.983
 5703POPC   C4B72766   9.004  27.867   7.247
 5704POPC   NC372767  28.440  42.493   5.333
 5704POPC   PO472768  28.737  41.827   5.394
 5704POPC   GL172769  28.434  42.122   5.719
 5704POPC   GL272770  28.352  42.509   5.834
 5704POPC   C1A72771  28.214  42.095   6.139
 5704POPC   D2A72772  28.436  41.942   6.533
 5704POPC   C3A72773  28.403  42.111   6.972
 5704POPC   C4A72774  28.712  42.205   7.371
 5704POPC   C1B72775  28.576  42.444   6.240
 5704POPC   C2B72776  28.721  42.477   6.667
 5704POPC   C3B72777  28.555  42.574   7.063
 5704POPC   C4B72778  28.155  42.695   7.133
 5705POPC   NC372779  32.431  11.890   5.426
 5705POPC   PO472780  32.721  12.359   5.784
 5705POPC   GL172781  32.281  12.109   5.879
 5705POPC   GL272782  31.980  11.920   5.670
 5705POPC   C1A72783  32.079  12.088   6.305
 5705POPC   D2A72784  32.172  12.394   6.631
 5705POPC   C3A72785  32.217  12.180   7.018
 5705POPC   C4A72786  32.590  12.253   7.302
 5705POPC   C1B72787  31.825  11.711   6.036
 5705POPC   C2B72788  31.735  11.596   6.480
 5705POPC   C3B72789  31.756  11.796   6.887
 5705POPC   C4B72790  31.876  11.864   7.304
 5706POPC   NC372791   8.947  17.634   5.094
 5706POPC   PO472792   9.369  17.481   5.622
 5706POPC   GL172793   9.036  17.442   5.929
 5706POPC   GL272794   8.710  17.645   5.838
 5706POPC   C1A72795   9.082  17.198   6.316
 5706POPC   D2A72796   9.046  16.963   6.727
 5706POPC   C3A72797   9.117  17.237   7.081
 5706POPC   C4A72798   9.192  17.673   7.216
 5706POPC   C1B72799   8.634  17.468   6.268
 5706POPC   C2B72800   8.793  17.374   6.694
 5706POPC   C3B72801   8.699  17.539   7.118
 5706POPC   C4B72802   8.415  17.614   7.445
 5707POPC   NC372803  43.726  16.064   5.266
 5707POPC   PO472804  43.507  15.469   5.422
 5707POPC   GL172805  43.746  15.742   5.735
 5707POPC   GL272806  43.839  16.126   5.760
 5707POPC   C1A72807  43.866  15.803   6.178
 5707POPC   D2A72808  43.740  15.710   6.596
 5707POPC   C3A72809  43.835  15.867   7.002
 5707POPC   C4A72810  43.679  15.565   7.254
 5707POPC   C1B72811  43.830  16.353   6.170
 5707POPC   C2B72812  43.817  16.224   6.598
 5707POPC   C3B72813  44.032  16.342   6.967
 5707POPC   C4B72814  43.940  16.378   7.433
 5708POPC   NC372815   7.907   1.848   5.614
 5708POPC   PO472816   8.501   1.610   5.541
 5708POPC   GL172817   8.342   1.942   5.874
 5708POPC   GL272818   8.332   2.299   5.758
 5708POPC   C1A72819   8.148   1.937   6.329
 5708POPC   D2A72820   8.175   1.755   6.769
 5708POPC   C3A72821   7.886   1.866   7.097
 5708POPC   C4A72822   7.856   2.320   7.068
 5708POPC   C1B72823   8.439   2.341   6.208
 5708POPC   C2B72824   8.578   2.193   6.621
 5708POPC   C3B72825   8.360   2.240   6.998
 5708POPC   C4B72826   8.265   2.023   7.381
 5709POPC   NC372827   4.218  38.085   5.519
 5709POPC   PO472828   4.337  38.540   5.024
 5709POPC   GL172829   4.565  38.560   5.539
 5709POPC   GL272830   4.647  38.254   5.714
 5709POPC   C1A72831   4.423  38.533   6.069
 5709POPC   D2A72832   4.149  38.271   6.359
 5709POPC   C3A72833   4.136  38.348   6.817
 5709POPC   C4A72834   4.109  38.241   7.267
 5709POPC   C1B72835   4.646  38.093   6.163
 5709POPC   C2B72836   4.628  38.332   6.572
 5709POPC   C3B72837   4.613  38.311   7.037
 5709POPC   C4B72838   4.517  37.957   7.279
 5710POPC   NC372839  42.054  12.573   5.104
 5710POPC   PO472840  42.493  13.007   5.381
 5710POPC   GL172841  42.482  13.009   5.840
 5710POPC   GL272842  42.104  13.061   5.802
 5710POPC   C1A72843  42.600  12.762   6.240
 5710POPC   D2A72844  42.699  12.720   6.704
 5710POPC   C3A72845  42.532  12.396   7.030
 5710POPC   C4A72846  42.413  12.671   7.416
 5710POPC   C1B72847  42.080  12.818   6.189
 5710POPC   C2B72848  42.216  12.607   6.564
 5710POPC   C3B72849  42.189  12.745   6.946
 5710POPC   C4B72850  41.964  12.579   7.230
 5711POPC   NC372851  36.058  28.544   5.275
 5711POPC   PO472852  36.495  28.699   5.673
 5711POPC   GL172853  36.063  28.589   5.778
 5711POPC   GL272854  36.002  28.240   5.725
 5711POPC   C1A72855  35.920  28.681   6.151
 5711POPC   D2A72856  36.163  28.555   6.492
 5711POPC   C3A72857  35.963  28.642   6.860
 5711POPC   C4A72858  35.882  28.501   7.240
 5711POPC   C1B72859  35.994  28.157   6.181
 5711POPC   C2B72860  36.111  28.063   6.608
 5711POPC   C3B72861  36.224  28.174   7.021
 5711POPC   C4B72862  36.173  28.122   7.476
 5712POPC   NC372863  24.062  31.826   5.487
 5712POPC   PO472864  23.335  31.900   5.448
 5712POPC   GL172865  23.677  32.142   5.684
 5712POPC   GL272866  23.633  32.517   5.740
 5712POPC   C1A72867  23.932  32.270   6.071
 5712POPC   D2A72868  23.801  32.514   6.462
 5712POPC   C3A72869  23.846  32.317   6.860
 5712POPC   C4A72870  23.781  32.437   7.285
 5712POPC   C1B72871  23.424  32.289   6.135
 5712POPC   C2B72872  23.482  32.084   6.562
 5712POPC   C3B72873  23.397  32.139   7.028
 5712POPC   C4B72874  23.459  32.048   7.485
 5713POPC   NC372875  14.280  34.840   5.543
 5713POPC   PO472876  14.848  34.527   5.246
 5713POPC   GL172877  14.715  34.580   5.716
 5713POPC   GL272878  14.356  34.492   5.894
 5713POPC   C1A72879  14.779  34.404   6.146
 5713POPC   D2A72880  14.475  34.427   6.483
 5713POPC   C3A72881  14.585  34.269   6.882
 5713POPC   C4A72882  14.406  34.347   7.276
 5713POPC   C1B72883  14.057  34.746   6.162
 5713POPC   C2B72884  13.874  34.606   6.542
 5713POPC   C3B72885  14.089  34.528   6.898
 5713POPC   C4B72886  14.117  34.897   7.171
 5714POPC   NC372887  42.571  19.282   5.393
 5714POPC   PO472888  41.910  19.202   5.392
 5714POPC   GL172889  42.207  19.212   5.754
 5714POPC   GL272890  42.490  18.931   5.776
 5714POPC   C1A72891  42.423  19.304   6.154
 5714POPC   D2A72892  42.655  19.251   6.568
 5714POPC   C3A72893  42.369  19.149   6.922
 5714POPC   C4A72894  42.240  19.326   7.312
 5714POPC   C1B72895  42.295  18.795   6.184
 5714POPC   C2B72896  42.410  18.575   6.570
 5714POPC   C3B72897  42.609  18.694   6.977
 5714POPC   C4B72898  42.512  18.895   7.393
 5715POPC   NC372899  40.924  19.166   5.570
 5715POPC   PO472900  40.576  18.610   5.315
 5715POPC   GL172901  40.616  18.806   5.800
 5715POPC   GL272902  40.475  19.098   5.949
 5715POPC   C1A72903  40.937  18.992   6.187
 5715POPC   D2A72904  41.140  18.964   6.622
 5715POPC   C3A72905  41.014  19.322   6.886
 5715POPC   C4A72906  40.765  19.406   7.236
 5715POPC   C1B72907  40.522  18.753   6.318
 5715POPC   C2B72908  40.650  18.845   6.778
 5715POPC   C3B72909  40.740  18.874   7.233
 5715POPC   C4B72910  40.619  18.789   7.703
 5716POPC   NC372911  37.780   4.092   5.522
 5716POPC   PO472912  37.705   3.370   5.568
 5716POPC   GL172913  37.489   3.679   5.788
 5716POPC   GL272914  37.694   3.907   5.984
 5716POPC   C1A72915  37.356   3.599   6.215
 5716POPC   D2A72916  37.254   3.734   6.628
 5716POPC   C3A72917  37.290   3.477   6.998
 5716POPC   C4A72918  37.410   3.693   7.372
 5716POPC   C1B72919  37.864   3.573   6.232
 5716POPC   C2B72920  37.691   3.476   6.637
 5716POPC   C3B72921  37.815   3.575   7.040
 5716POPC   C4B72922  37.902   3.544   7.460
 5717POPC   NC372923   0.794  12.768   5.529
 5717POPC   PO472924   0.221  13.030   5.421
 5717POPC   GL172925   0.380  12.979   5.826
 5717POPC   GL272926   0.666  13.166   5.886
 5717POPC   C1A72927   0.566  12.724   6.185
 5717POPC   D2A72928   0.579  12.623   6.641
 5717POPC   C3A72929   0.243  12.784   6.923
 5717POPC   C4A72930   0.273  12.818   7.384
 5717POPC   C1B72931   0.828  13.150   6.305
 5717POPC   C2B72932   0.948  12.967   6.709
 5717POPC   C3B72933   0.715  12.926   7.105
 5717POPC   C4B72934   0.685  13.096   7.525
 5718POPC   NC372935  14.697  30.061   5.448
 5718POPC   PO472936  14.566  29.440   5.210
 5718POPC   GL172937  14.439  29.568   5.692
 5718POPC   GL272938  14.246  29.892   5.739
 5718POPC   C1A72939  14.436  29.724   6.176
 5718POPC   D2A72940  14.559  29.715   6.610
 5718POPC   C3A72941  14.424  29.931   6.965
 5718POPC   C4A72942  14.469  29.831   7.378
 5718POPC   C1B72943  14.273  30.206   6.112
 5718POPC   C2B72944  14.441  30.259   6.543
 5718POPC   C3B72945  14.246  30.395   6.946
 5718POPC   C4B72946  14.208  30.321   7.386
 5719POPC   NC372947   8.118  23.111   5.315
 5719POPC   PO472948   8.246  22.500   5.150
 5719POPC   GL172949   8.204  22.706   5.618
 5719POPC   GL272950   8.448  23.052   5.691
 5719POPC   C1A72951   8.091  22.945   6.020
 5719POPC   D2A72952   8.026  23.132   6.430
 5719POPC   C3A72953   8.217  22.936   6.798
 5719POPC   C4A72954   7.999  22.777   7.170
 5719POPC   C1B72955   8.510  23.270   6.103
 5719POPC   C2B72956   8.387  23.488   6.490
 5719POPC   C3B72957   8.508  23.354   6.888
 5719POPC   C4B72958   8.295  23.190   7.256
 5720POPC   NC372959   1.535  26.333   5.659
 5720POPC   PO472960   0.873  26.602   5.506
 5720POPC   GL172961   1.176  26.709   5.830
 5720POPC   GL272962   1.291  27.077   5.871
 5720POPC   C1A72963   1.320  26.580   6.240
 5720POPC   D2A72964   1.148  26.729   6.612
 5720POPC   C3A72965   1.134  26.524   6.962
 5720POPC   C4A72966   1.411  26.613   7.264
 5720POPC   C1B72967   1.384  27.085   6.319
 5720POPC   C2B72968   1.080  27.228   6.644
 5720POPC   C3B72969   1.179  27.040   7.049
 5720POPC   C4B72970   1.269  27.065   7.462
 5721POPC   NC372971  24.393   1.251   5.244
 5721POPC   PO472972  24.737   0.766   5.425
 5721POPC   GL172973  24.632   1.076   5.749
 5721POPC   GL272974  24.527   1.404   5.737
 5721POPC   C1A72975  24.675   1.064   6.194
 5721POPC   D2A72976  24.645   0.774   6.521
 5721POPC   C3A72977  24.471   0.927   6.900
 5721POPC   C4A72978  24.568   0.934   7.323
 5721POPC   C1B72979  24.675   1.580   6.175
 5721POPC   C2B72980  24.782   1.385   6.619
 5721POPC   C3B72981  24.639   1.395   7.064
 5721POPC   C4B72982  24.345   1.393   7.438
 5722POPC   NC372983  16.966   3.297   5.462
 5722POPC   PO472984  16.718   2.665   5.328
 5722POPC   GL172985  16.674   2.804   5.725
 5722POPC   GL272986  16.604   2.460   5.796
 5722POPC   C1A72987  16.751   3.070   6.096
 5722POPC   D2A72988  16.981   2.975   6.481
 5722POPC   C3A72989  16.841   2.732   6.824
 5722POPC   C4A72990  16.846   2.958   7.169
 5722POPC   C1B72991  16.399   2.238   6.095
 5722POPC   C2B72992  16.579   2.389   6.460
 5722POPC   C3B72993  16.453   2.376   6.844
 5722POPC   C4B72994  16.652   2.462   7.225
 5723POPC   NC372995  26.673  41.933   4.968
 5723POPC   PO472996  26.712  41.386   5.298
 5723POPC   GL172997  26.676  41.421   5.785
 5723POPC   GL272998  26.568  41.765   5.800
 5723POPC   C1A72999  26.792  41.572   6.228
 5723POPC   D2A73000  27.118  41.676   6.578
 5723POPC   C3A73001  27.003  41.804   6.994
 5723POPC   C4A73002  27.014  41.480   7.301
 5723POPC   C1B73003  26.449  41.945   6.203
 5723POPC   C2B73004  26.580  41.822   6.638
 5723POPC   C3B73005  26.573  41.527   6.992
 5723POPC   C4B73006  26.594  41.772   7.366
 5724POPC   NC373007  37.621   9.536   5.327
 5724POPC   PO473008  37.907  10.109   5.562
 5724POPC   GL173009  37.710   9.762   5.788
 5724POPC   GL273010  37.972   9.506   5.727
 5724POPC   C1A73011  37.594   9.636   6.218
 5724POPC   D2A73012  37.836   9.869   6.533
 5724POPC   C3A73013  37.694   9.829   6.957
 5724POPC   C4A73014  37.810   9.768   7.382
 5724POPC   C1B73015  38.049   9.432   6.167
 5724POPC   C2B73016  37.890   9.296   6.592
 5724POPC   C3B73017  37.874   9.355   7.051
 5724POPC   C4B73018  37.918   9.283   7.522
 5725POPC   NC373019  22.551  17.830   5.429
 5725POPC   PO473020  23.217  17.604   5.363
 5725POPC   GL173021  23.004  17.476   5.797
 5725POPC   GL273022  22.706  17.659   5.895
 5725POPC   C1A73023  22.848  17.227   6.187
 5725POPC   D2A73024  22.845  17.039   6.635
 5725POPC   C3A73025  22.914  17.235   7.065
 5725POPC   C4A73026  23.204  17.411   7.368
 5725POPC   C1B73027  22.964  17.706   6.267
 5725POPC   C2B73028  22.852  17.578   6.660
 5725POPC   C3B73029  23.065  17.734   6.995
 5725POPC   C4B73030  23.076  18.153   7.090
 5726POPC   NC373031   9.210  13.031   5.311
 5726POPC   PO473032   8.762  12.625   5.537
 5726POPC   GL173033   9.029  12.879   5.777
 5726POPC   GL273034   9.369  12.767   5.790
 5726POPC   C1A73035   8.990  12.985   6.211
 5726POPC   D2A73036   9.155  13.001   6.610
 5726POPC   C3A73037   8.857  12.902   6.908
 5726POPC   C4A73038   8.547  12.812   7.216
 5726POPC   C1B73039   9.192  12.513   6.139
 5726POPC   C2B73040   9.074  12.477   6.585
 5726POPC   C3B73041   9.223  12.557   6.999
 5726POPC   C4B73042   9.351  12.411   7.391
 5727POPC   NC373043  24.723  29.466   5.609
 5727POPC   PO473044  24.206  29.128   5.318
 5727POPC   GL173045  24.383  29.020   5.774
 5727POPC   GL273046  24.758  28.919   5.800
 5727POPC   C1A73047  24.502  28.941   6.249
 5727POPC   D2A73048  24.594  28.969   6.716
 5727POPC   C3A73049  24.451  28.932   7.138
 5727POPC   C4A73050  24.323  29.357   7.103
 5727POPC   C1B73051  24.997  29.116   6.186
 5727POPC   C2B73052  25.009  29.248   6.643
 5727POPC   C3B73053  24.835  29.330   7.074
 5727POPC   C4B73054  24.794  29.102   7.493
 5728POPC   NC373055  15.395  17.893   5.273
 5728POPC   PO473056  15.931  17.475   5.408
 5728POPC   GL173057  15.956  17.418   5.839
 5728POPC   GL273058  16.203  17.646   5.951
 5728POPC   C1A73059  15.868  17.306   6.266
 5728POPC   D2A73060  15.990  17.105   6.607
 5728POPC   C3A73061  15.798  17.256   6.954
 5728POPC   C4A73062  15.773  17.606   7.264
 5728POPC   C1B73063  15.866  17.795   6.237
 5728POPC   C2B73064  15.901  17.679   6.678
 5728POPC   C3B73065  16.053  17.950   7.023
 5728POPC   C4B73066  15.908  18.155   7.419
 5729POPC   NC373067  10.761  31.075   5.339
 5729POPC   PO473068  10.395  30.476   5.371
 5729POPC   GL173069  10.402  30.835   5.670
 5729POPC   GL273070  10.761  30.790   5.764
 5729POPC   C1A73071  10.406  30.839   6.147
 5729POPC   D2A73072  10.266  30.594   6.524
 5729POPC   C3A73073  10.491  30.582   6.914
 5729POPC   C4A73074  10.388  30.759   7.369
 5729POPC   C1B73075  10.904  30.908   6.163
 5729POPC   C2B73076  11.075  30.729   6.519
 5729POPC   C3B73077  11.204  31.035   6.784
 5729POPC   C4B73078  10.911  31.058   7.114
 5730POPC   NC373079  19.908  24.717   5.486
 5730POPC   PO473080  19.880  24.036   5.491
 5730POPC   GL173081  19.792  24.335   5.833
 5730POPC   GL273082  19.582  24.668   5.858
 5730POPC   C1A73083  20.037  24.302   6.201
 5730POPC   D2A73084  20.147  24.586   6.574
 5730POPC   C3A73085  20.088  24.360   6.936
 5730POPC   C4A73086  19.780  24.318   7.289
 5730POPC   C1B73087  19.758  24.704   6.238
 5730POPC   C2B73088  19.669  24.423   6.590
 5730POPC   C3B73089  19.671  24.671   6.941
 5730POPC   C4B73090  19.392  24.694   7.290
 5731POPC   NC373091  42.134   9.854   4.976
 5731POPC   PO473092  42.442   9.426   5.367
 5731POPC   GL173093  42.397   9.733   5.749
 5731POPC   GL273094  42.119   9.655   6.037
 5731POPC   C1A73095  42.567   9.862   6.165
 5731POPC   D2A73096  42.323   9.822   6.534
 5731POPC   C3A73097  42.504   9.996   6.896
 5731POPC   C4A73098  42.548   9.899   7.314
 5731POPC   C1B73099  41.866   9.969   6.311
 5731POPC   C2B73100  41.925  10.067   6.765
 5731POPC   C3B73101  42.029   9.864   7.155
 5731POPC   C4B73102  41.927   9.913   7.593
 5732POPC   NC373103  32.296  42.935   5.318
 5732POPC   PO473104  32.365  42.264   5.322
 5732POPC   GL173105  32.241  42.240   5.783
 5732POPC   GL273106  32.139  42.575   5.794
 5732POPC   C1A73107  32.272  42.408   6.269
 5732POPC   D2A73108  32.293  42.673   6.663
 5732POPC   C3A73109  32.352  42.449   7.103
 5732POPC   C4A73110  32.207  42.052   7.343
 5732POPC   C1B73111  31.812  42.482   6.114
 5732POPC   C2B73112  31.705  42.423   6.501
 5732POPC   C3B73113  31.943  42.349   6.812
 5732POPC   C4B73114  31.859  42.388   7.239
 5733POPC   NC373115  33.989   4.370   5.253
 5733POPC   PO473116  33.403   4.170   5.412
 5733POPC   GL173117  33.790   4.188   5.736
 5733POPC   GL273118  34.033   4.487   5.759
 5733POPC   C1A73119  33.945   4.201   6.202
 5733POPC   D2A73120  33.676   4.142   6.599
 5733POPC   C3A73121  33.846   4.095   7.031
 5733POPC   C4A73122  33.837   3.838   7.428
 5733POPC   C1B73123  33.676   4.599   6.033
 5733POPC   C2B73124  33.801   4.632   6.463
 5733POPC   C3B73125  34.041   4.542   6.820
 5733POPC   C4B73126  34.074   4.771   7.201
 5734POPC   NC373127  33.876   2.420   5.410
 5734POPC   PO473128  34.062   1.867   5.246
 5734POPC   GL173129  33.886   1.852   5.695
 5734POPC   GL273130  33.630   2.115   5.776
 5734POPC   C1A73131  33.686   1.713   6.104
 5734POPC   D2A73132  33.461   1.671   6.494
 5734POPC   C3A73133  33.675   1.666   6.904
 5734POPC   C4A73134  33.960   1.694   7.307
 5734POPC   C1B73135  33.785   2.249   6.187
 5734POPC   C2B73136  33.936   2.129   6.602
 5734POPC   C3B73137  33.829   2.123   7.028
 5734POPC   C4B73138  33.501   1.995   7.285
 5735POPC   NC373139  42.730  38.393   5.508
 5735POPC   PO473140  42.049  38.270   5.531
 5735POPC   GL173141  42.275  38.336   5.891
 5735POPC   GL273142  42.544  38.587   5.928
 5735POPC   C1A73143  42.196  38.271   6.326
 5735POPC   D2A73144  41.936  38.162   6.674
 5735POPC   C3A73145  41.992  38.407   7.008
 5735POPC   C4A73146  42.421  38.527   7.095
 5735POPC   C1B73147  42.259  38.791   6.184
 5735POPC   C2B73148  42.242  38.707   6.606
 5735POPC   C3B73149  42.121  38.899   6.939
 5735POPC   C4B73150  41.854  38.828   7.262
 5736POPC   NC373151  29.569  40.541   5.488
 5736POPC   PO473152  29.015  40.867   5.401
 5736POPC   GL173153  29.115  40.791   5.828
 5736POPC   GL273154  29.436  40.985   5.844
 5736POPC   C1A73155  29.015  40.670   6.249
 5736POPC   D2A73156  29.191  40.540   6.644
 5736POPC   C3A73157  29.146  40.777   6.999
 5736POPC   C4A73158  29.043  40.670   7.363
 5736POPC   C1B73159  29.496  40.829   6.274
 5736POPC   C2B73160  29.691  40.942   6.666
 5736POPC   C3B73161  29.548  41.080   7.085
 5736POPC   C4B73162  29.236  41.114   7.454
 5737POPC   NC373163  19.558  44.413   5.346
 5737POPC   PO473164  19.890  44.975   5.442
 5737POPC   GL173165  19.803  44.723   5.725
 5737POPC   GL273166  19.995  44.942   5.940
 5737POPC   C1A73167  19.596  44.637   6.077
 5737POPC   D2A73168  19.692  44.523   6.451
 5737POPC   C3A73169  19.685  44.412   6.898
 5737POPC   C4A73170  19.786  44.146   7.279
 5737POPC   C1B73171  19.826   0.030   6.330
 5737POPC   C2B73172  19.910  44.856   6.746
 5737POPC   C3B73173  20.110  44.942   7.113
 5737POPC   C4B73174  20.070  44.914   7.594
 5738POPC   NC373175  22.314  26.624   5.415
 5738POPC   PO473176  21.984  27.227   5.547
 5738POPC   GL173177  22.062  26.864   5.808
 5738POPC   GL273178  21.767  26.684   5.894
 5738POPC   C1A73179  22.264  26.813   6.219
 5738POPC   D2A73180  22.551  26.823   6.597
 5738POPC   C3A73181  22.339  26.748   6.988
 5738POPC   C4A73182  22.158  26.997   7.325
 5738POPC   C1B73183  21.654  27.005   6.164
 5738POPC   C2B73184  21.751  27.155   6.576
 5738POPC   C3B73185  21.843  26.873   6.926
 5738POPC   C4B73186  21.876  26.581   7.259
 5739POPC   NC373187  35.824  22.860   5.381
 5739POPC   PO473188  35.107  22.627   5.441
 5739POPC   GL173189  35.281  22.797   5.814
 5739POPC   GL273190  35.619  22.729   5.822
 5739POPC   C1A73191  35.203  23.019   6.169
 5739POPC   D2A73192  35.444  23.148   6.534
 5739POPC   C3A73193  35.359  22.958   6.923
 5739POPC   C4A73194  35.021  22.892   7.189
 5739POPC   C1B73195  35.597  22.703   6.255
 5739POPC   C2B73196  35.767  22.763   6.648
 5739POPC   C3B73197  35.736  22.628   7.039
 5739POPC   C4B73198  35.367  22.480   7.193
 5740POPC   NC373199  40.642   6.862   5.425
 5740POPC   PO473200  41.111   6.327   5.469
 5740POPC   GL173201  40.882   6.569   5.769
 5740POPC   GL273202  40.598   6.375   5.921
 5740POPC   C1A73203  40.927   6.717   6.180
 5740POPC   D2A73204  40.722   6.417   6.438
 5740POPC   C3A73205  40.706   6.442   6.878
 5740POPC   C4A73206  40.690   6.567   7.325
 5740POPC   C1B73207  40.409   6.730   6.151
 5740POPC   C2B73208  40.463   6.831   6.601
 5740POPC   C3B73209  40.326   6.758   6.996
 5740POPC   C4B73210  40.177   6.841   7.381
 5741POPC   NC373211  20.154   5.002   5.336
 5741POPC   PO473212  19.457   4.913   5.420
 5741POPC   GL173213  19.764   4.926   5.704
 5741POPC   GL273214  19.851   5.262   5.665
 5741POPC   C1A73215  19.795   4.890   6.145
 5741POPC   D2A73216  19.878   5.116   6.521
 5741POPC   C3A73217  19.738   5.020   6.885
 5741POPC   C4A73218  19.699   4.928   7.279
 5741POPC   C1B73219  19.945   5.383   6.086
 5741POPC   C2B73220  19.826   5.607   6.465
 5741POPC   C3B73221  19.893   5.537   6.893
 5741POPC   C4B73222  19.932   5.377   7.277
 5742POPC   NC373223  24.580  14.552   5.108
 5742POPC   PO473224  25.175  14.203   5.419
 5742POPC   GL173225  25.426  14.427   5.734
 5742POPC   GL273226  25.119  14.519   5.899
 5742POPC   C1A73227  25.525  14.424   6.196
 5742POPC   D2A73228  25.325  14.195   6.545
 5742POPC   C3A73229  25.484  14.269   6.964
 5742POPC   C4A73230  25.287  14.374   7.352
 5742POPC   C1B73231  24.817  14.371   6.203
 5742POPC   C2B73232  24.778  14.230   6.599
 5742POPC   C3B73233  24.948  14.354   6.955
 5742POPC   C4B73234  24.811  14.534   7.316
 5743POPC   NC373235  14.525  17.786   5.476
 5743POPC   PO473236  14.401  18.510   5.473
 5743POPC   GL173237  14.402  18.173   5.810
 5743POPC   GL273238  14.103  17.947   5.726
 5743POPC   C1A73239  14.472  18.188   6.286
 5743POPC   D2A73240  14.356  18.448   6.671
 5743POPC   C3A73241  14.575  18.375   7.085
 5743POPC   C4A73242  14.607  17.948   7.217
 5743POPC   C1B73243  13.985  18.150   6.127
 5743POPC   C2B73244  14.016  18.024   6.591
 5743POPC   C3B73245  14.127  18.136   7.018
 5743POPC   C4B73246  14.110  18.487   7.284
 5744POPC   NC373247   3.261  15.885   5.485
 5744POPC   PO473248   3.651  16.367   5.398
 5744POPC   GL173249   3.605  16.193   5.851
 5744POPC   GL273250   3.597  15.817   5.885
 5744POPC   C1A73251   3.728  16.084   6.292
 5744POPC   D2A73252   3.584  15.830   6.627
 5744POPC   C3A73253   3.669  16.038   7.011
 5744POPC   C4A73254   3.675  16.129   7.466
 5744POPC   C1B73255   3.249  15.922   6.137
 5744POPC   C2B73256   3.029  15.877   6.486
 5744POPC   C3B73257   3.083  15.797   6.879
 5744POPC   C4B73258   3.295  15.831   7.259
 5745POPC   NC373259  34.091  22.976   5.434
 5745POPC   PO473260  33.402  23.055   5.315
 5745POPC   GL173261  33.649  22.999   5.699
 5745POPC   GL273262  33.773  22.676   5.799
 5745POPC   C1A73263  33.568  23.010   6.152
 5745POPC   D2A73264  33.810  23.059   6.525
 5745POPC   C3A73265  33.618  22.958   6.924
 5745POPC   C4A73266  33.783  23.096   7.354
 5745POPC   C1B73267  34.057  22.746   6.171
 5745POPC   C2B73268  34.161  22.695   6.619
 5745POPC   C3B73269  34.116  22.962   6.978
 5745POPC   C4B73270  34.152  22.726   7.358
 5746POPC   NC373271   8.681  43.405   5.354
 5746POPC   PO473272   8.667  42.769   5.481
 5746POPC   GL173273   8.967  42.733   5.890
 5746POPC   GL273274   9.327  42.799   5.979
 5746POPC   C1A73275   9.056  42.633   6.375
 5746POPC   D2A73276   8.784  42.555   6.708
 5746POPC   C3A73277   8.890  42.670   7.106
 5746POPC   C4A73278   8.742  43.015   7.377
 5746POPC   C1B73279   9.081  43.124   6.288
 5746POPC   C2B73280   8.845  43.080   6.687
 5746POPC   C3B73281   8.858  43.367   7.029
 5746POPC   C4B73282   9.237  43.470   7.218
 5747POPC   NC373283  35.685   1.180   5.438
 5747POPC   PO473284  35.049   0.875   5.371
 5747POPC   GL173285  35.311   0.962   5.749
 5747POPC   GL273286  35.678   0.880   5.830
 5747POPC   C1A73287  35.219   1.089   6.173
 5747POPC   D2A73288  35.149   1.465   6.440
 5747POPC   C3A73289  35.198   1.374   6.874
 5747POPC   C4A73290  35.173   1.111   7.221
 5747POPC   C1B73291  35.747   1.136   6.180
 5747POPC   C2B73292  35.548   1.137   6.570
 5747POPC   C3B73293  35.623   1.032   6.980
 5747POPC   C4B73294  35.615   1.408   7.210
 5748POPC   NC373295  25.534  17.583   5.385
 5748POPC   PO473296  24.848  17.730   5.441
 5748POPC   GL173297  25.132  17.726   5.795
 5748POPC   GL273298  25.348  17.429   5.832
 5748POPC   C1A73299  25.102  17.665   6.247
 5748POPC   D2A73300  25.321  17.855   6.599
 5748POPC   C3A73301  25.233  17.684   7.020
 5748POPC   C4A73302  25.111  17.607   7.456
 5748POPC   C1B73303  25.497  17.305   6.239
 5748POPC   C2B73304  25.398  17.348   6.651
 5748POPC   C3B73305  25.567  17.260   7.033
 5748POPC   C4B73306  25.379  17.175   7.402
 5749POPC   NC373307   7.859  23.919   5.340
 5749POPC   PO473308   8.371  23.514   5.293
 5749POPC   GL173309   8.153  23.568   5.653
 5749POPC   GL273310   8.472  23.688   5.786
 5749POPC   C1A73311   8.044  23.516   6.090
 5749POPC   D2A73312   7.867  23.656   6.490
 5749POPC   C3A73313   8.000  23.432   6.856
 5749POPC   C4A73314   7.978  23.566   7.273
 5749POPC   C1B73315   8.229  23.983   6.023
 5749POPC   C2B73316   8.252  23.990   6.466
 5749POPC   C3B73317   8.313  23.837   6.913
 5749POPC   C4B73318   8.569  23.664   7.290
 5750POPC   NC373319  24.288   2.085   5.424
 5750POPC   PO473320  24.765   1.567   5.308
 5750POPC   GL173321  24.694   1.887   5.671
 5750POPC   GL273322  24.340   1.869   5.866
 5750POPC   C1A73323  24.720   2.131   6.052
 5750POPC   D2A73324  24.545   2.209   6.455
 5750POPC   C3A73325  24.676   2.151   6.871
 5750POPC   C4A73326  24.452   2.288   7.254
 5750POPC   C1B73327  24.245   1.829   6.296
 5750POPC   C2B73328  24.418   1.743   6.685
 5750POPC   C3B73329  24.313   1.814   7.094
 5750POPC   C4B73330  23.972   1.709   7.319
 5751POPC   NC373331   3.108   5.284   5.515
 5751POPC   PO473332   2.492   4.750   5.493
 5751POPC   GL173333   2.663   4.962   5.869
 5751POPC   GL273334   2.727   5.329   5.845
 5751POPC   C1A73335   2.888   5.070   6.264
 5751POPC   D2A73336   2.807   4.936   6.678
 5751POPC   C3A73337   2.861   5.176   6.997
 5751POPC   C4A73338   2.664   5.014   7.337
 5751POPC   C1B73339   2.949   5.568   6.149
 5751POPC   C2B73340   3.055   5.523   6.593
 5751POPC   C3B73341   2.758   5.664   6.893
 5751POPC   C4B73342   2.600   5.569   7.279
 5752POPC   NC373343  13.337  27.181   5.366
 5752POPC   PO473344  13.619  26.594   5.504
 5752POPC   GL173345  13.739  26.687   5.932
 5752POPC   GL273346  14.026  26.480   5.982
 5752POPC   C1A73347  13.566  26.866   6.339
 5752POPC   D2A73348  13.550  27.176   6.722
 5752POPC   C3A73349  13.661  26.952   7.110
 5752POPC   C4A73350  13.384  26.608   7.172
 5752POPC   C1B73351  13.868  26.428   6.377
 5752POPC   C2B73352  13.695  26.573   6.747
 5752POPC   C3B73353  13.885  26.457   7.110
 5752POPC   C4B73354  14.135  26.705   7.326
 5753POPC   NC373355  41.886  11.225   5.516
 5753POPC   PO473356  41.359  11.633   5.441
 5753POPC   GL173357  41.498  11.474   5.791
 5753POPC   GL273358  41.486  11.118   5.830
 5753POPC   C1A73359  41.705  11.471   6.162
 5753POPC   D2A73360  41.598  11.496   6.561
 5753POPC   C3A73361  41.939  11.538   6.857
 5753POPC   C4A73362  41.730  11.481   7.231
 5753POPC   C1B73363  41.761  10.958   6.142
 5753POPC   C2B73364  41.901  11.062   6.518
 5753POPC   C3B73365  41.687  11.089   6.867
 5753POPC   C4B73366  41.656  10.982   7.257
 5754POPC   NC373367   9.913  21.881   5.306
 5754POPC   PO473368   9.526  22.417   5.447
 5754POPC   GL173369   9.648  22.112   5.746
 5754POPC   GL273370   9.926  22.035   5.788
 5754POPC   C1A73371   9.661  22.092   6.226
 5754POPC   D2A73372   9.709  22.414   6.554
 5754POPC   C3A73373   9.610  22.262   6.959
 5754POPC   C4A73374   9.674  21.888   7.157
 5754POPC   C1B73375  10.078  22.330   6.097
 5754POPC   C2B73376  10.217  22.302   6.527
 5754POPC   C3B73377  10.136  22.077   6.902
 5754POPC   C4B73378  10.057  22.193   7.300
 5755POPC   NC373379  31.233  43.289   5.372
 5755POPC   PO473380  31.801  42.913   5.293
 5755POPC   GL173381  31.592  43.075   5.694
 5755POPC   GL273382  31.671  42.811   5.790
 5755POPC   C1A73383  31.610  43.232   6.117
 5755POPC   D2A73384  31.542  43.456   6.490
 5755POPC   C3A73385  31.711  43.306   6.854
 5755POPC   C4A73386  31.493  43.280   7.228
 5755POPC   C1B73387  31.400  42.761   6.129
 5755POPC   C2B73388  31.352  42.835   6.527
 5755POPC   C3B73389  31.359  42.894   6.915
 5755POPC   C4B73390  31.470  42.702   7.272
 5756POPC   NC373391  21.490  30.839   5.352
 5756POPC   PO473392  21.562  30.265   5.601
 5756POPC   GL173393  21.386  30.614   5.792
 5756POPC   GL273394  21.651  30.878   5.824
 5756POPC   C1A73395  21.156  30.787   6.111
 5756POPC   D2A73396  21.197  31.013   6.526
 5756POPC   C3A73397  21.235  30.725   6.892
 5756POPC   C4A73398  21.618  30.615   7.128
 5756POPC   C1B73399  21.619  30.799   6.250
 5756POPC   C2B73400  21.707  31.023   6.585
 5756POPC   C3B73401  21.567  31.102   6.971
 5756POPC   C4B73402  21.893  31.076   7.266
 5757POPC   NC373403  44.091   2.575   5.098
 5757POPC   PO473404  44.604   2.892   5.486
 5757POPC   GL173405  44.650   2.716   5.872
 5757POPC   GL273406  44.625   2.367   5.831
 5757POPC   C1A73407  44.584   2.830   6.297
 5757POPC   D2A73408  44.410   3.208   6.497
 5757POPC   C3A73409  44.578   3.216   6.897
 5757POPC   C4A73410  44.490   3.010   7.257
 5757POPC   C1B73411  44.949   2.383   6.142
 5757POPC   C2B73412  44.973   2.557   6.541
 5757POPC   C3B73413  44.673   2.664   6.862
 5757POPC   C4B73414  44.613   2.423   7.246
 5758POPC   NC373415  33.297   2.777   5.134
 5758POPC   PO473416  32.732   2.679   5.533
 5758POPC   GL173417  32.712   2.623   5.954
 5758POPC   GL273418  32.908   2.865   6.032
 5758POPC   C1A73419  32.897   2.448   6.342
 5758POPC   D2A73420  33.125   2.537   6.740
 5758POPC   C3A73421  32.890   2.664   7.038
 5758POPC   C4A73422  32.961   3.067   7.107
 5758POPC   C1B73423  33.040   2.960   6.443
 5758POPC   C2B73424  33.360   3.012   6.754
 5758POPC   C3B73425  33.423   2.835   7.150
 5758POPC   C4B73426  33.676   2.504   7.329
 5759POPC   NC373427  33.413   9.147   5.340
 5759POPC   PO473428  34.084   9.016   5.369
 5759POPC   GL173429  33.777   9.012   5.720
 5759POPC   GL273430  33.638   8.670   5.797
 5759POPC   C1A73431  33.700   9.059   6.174
 5759POPC   D2A73432  33.649   9.064   6.626
 5759POPC   C3A73433  33.883   8.851   6.958
 5759POPC   C4A73434  33.913   9.085   7.344
 5759POPC   C1B73435  33.506   8.564   6.210
 5759POPC   C2B73436  33.670   8.526   6.609
 5759POPC   C3B73437  33.527   8.431   7.006
 5759POPC   C4B73438  33.627   8.413   7.449
 5760POPC   NC373439  27.522  19.605   5.517
 5760POPC   PO473440  27.653  20.269   5.372
 5760POPC   GL173441  27.621  20.050   5.774
 5760POPC   GL273442  27.302  19.903   5.887
 5760POPC   C1A73443  27.732  19.874   6.184
 5760POPC   D2A73444  27.585  19.737   6.610
 5760POPC   C3A73445  27.827  19.913   6.944
 5760POPC   C4A73446  27.639  20.085   7.282
 5760POPC   C1B73447  27.361  19.524   6.170
 5760POPC   C2B73448  27.287  19.315   6.563
 5760POPC   C3B73449  27.081  19.425   6.942
 5760POPC   C4B73450  27.333  19.652   7.236
 5761POPC   NC373451   9.330  12.353   5.460
 5761POPC   PO473452   9.655  12.914   5.363
 5761POPC   GL173453   9.853  12.946   5.787
 5761POPC   GL273454   9.967  12.613   5.810
 5761POPC   C1A73455   9.705  12.818   6.205
 5761POPC   D2A73456   9.547  12.676   6.594
 5761POPC   C3A73457   9.664  12.923   6.941
 5761POPC   C4A73458   9.575  13.104   7.326
 5761POPC   C1B73459  10.117  12.505   6.236
 5761POPC   C2B73460   9.969  12.401   6.656
 5761POPC   C3B73461   9.747  12.443   7.054
 5761POPC   C4B73462   9.932  12.723   7.368
 5762POPC   NC373463  22.828  35.094   5.185
 5762POPC   PO473464  23.151  34.586   5.372
 5762POPC   GL173465  22.969  34.614   5.788
 5762POPC   GL273466  22.669  34.832   5.830
 5762POPC   C1A73467  22.985  34.597   6.233
 5762POPC   D2A73468  22.861  34.380   6.580
 5762POPC   C3A73469  23.044  34.520   6.927
 5762POPC   C4A73470  22.966  34.529   7.348
 5762POPC   C1B73471  22.535  34.808   6.259
 5762POPC   C2B73472  22.757  34.879   6.642
 5762POPC   C3B73473  22.614  34.808   7.075
 5762POPC   C4B73474  22.705  34.955   7.491
 5763POPC   NC373475  35.019  18.683   5.126
 5763POPC   PO473476  34.550  19.086   5.493
 5763POPC   GL173477  34.590  19.120   5.868
 5763POPC   GL273478  34.919  19.306   5.833
 5763POPC   C1A73479  34.399  19.056   6.249
 5763POPC   D2A73480  34.541  19.156   6.644
 5763POPC   C3A73481  34.424  19.027   7.043
 5763POPC   C4A73482  34.324  18.676   7.282
 5763POPC   C1B73483  34.918  19.075   6.240
 5763POPC   C2B73484  35.021  19.251   6.596
 5763POPC   C3B73485  34.921  19.154   7.000
 5763POPC   C4B73486  34.940  19.396   7.315
 5764POPC   NC373487  35.202   4.192   5.267
 5764POPC   PO473488  35.609   4.658   5.462
 5764POPC   GL173489  35.381   4.332   5.765
 5764POPC   GL273490  35.009   4.166   5.745
 5764POPC   C1A73491  35.529   4.270   6.207
 5764POPC   D2A73492  35.799   4.433   6.558
 5764POPC   C3A73493  35.611   4.570   6.935
 5764POPC   C4A73494  35.358   4.343   7.211
 5764POPC   C1B73495  35.013   4.402   6.141
 5764POPC   C2B73496  35.160   4.322   6.564
 5764POPC   C3B73497  35.001   4.129   6.922
 5764POPC   C4B73498  34.723   4.056   7.256
 5765POPC   NC373499  12.751  15.090   5.733
 5765POPC   PO473500  12.873  14.674   5.187
 5765POPC   GL173501  12.729  14.532   5.679
 5765POPC   GL273502  12.946  14.250   5.813
 5765POPC   C1A73503  12.688  14.462   6.192
 5765POPC   D2A73504  12.565  14.166   6.573
 5765POPC   C3A73505  12.678  14.281   7.011
 5765POPC   C4A73506  12.742  14.475   7.413
 5765POPC   C1B73507  13.204  14.431   6.148
 5765POPC   C2B73508  13.122  14.315   6.567
 5765POPC   C3B73509  13.177  14.124   6.966
 5765POPC   C4B73510  13.187  14.205   7.433
 5766POPC   NC373511   0.931  18.468   5.291
 5766POPC   PO473512   1.643  18.320   5.165
 5766POPC   GL173513   1.481  18.303   5.625
 5766POPC   GL273514   1.172  18.474   5.746
 5766POPC   C1A73515   1.427  18.197   6.112
 5766POPC   D2A73516   1.070  18.139   6.415
 5766POPC   C3A73517   1.089  18.249   6.860
 5766POPC   C4A73518   1.422  18.163   7.198
 5766POPC   C1B73519   1.147  18.632   6.182
 5766POPC   C2B73520   1.148  18.869   6.585
 5766POPC   C3B73521   0.943  18.854   6.988
 5766POPC   C4B73522   1.023  18.547   7.282
 5767POPC   NC373523  20.982  27.763   5.362
 5767POPC   PO473524  20.385  27.369   5.417
 5767POPC   GL173525  20.551  27.458   5.812
 5767POPC   GL273526  20.912  27.452   5.780
 5767POPC   C1A73527  20.492  27.678   6.238
 5767POPC   D2A73528  20.276  27.491   6.639
 5767POPC   C3A73529  20.511  27.447   7.016
 5767POPC   C4A73530  20.774  27.788   7.197
 5767POPC   C1B73531  20.842  27.323   6.207
 5767POPC   C2B73532  20.819  27.536   6.593
 5767POPC   C3B73533  21.016  27.449   6.934
 5767POPC   C4B73534  20.889  27.131   7.136
 5768POPC   NC373535  30.333  40.478   5.578
 5768POPC   PO473536  30.613  39.832   5.609
 5768POPC   GL173537  30.857  40.117   5.867
 5768POPC   GL273538  30.539  40.233   5.980
 5768POPC   C1A73539  30.909  40.230   6.322
 5768POPC   D2A73540  30.647  40.179   6.707
 5768POPC   C3A73541  30.748  40.288   7.144
 5768POPC   C4A73542  30.733  40.155   7.616
 5768POPC   C1B73543  30.563  39.845   6.262
 5768POPC   C2B73544  30.424  39.706   6.683
 5768POPC   C3B73545  30.375  39.914   7.078
 5768POPC   C4B73546  30.365  39.817   7.524
 5769POPC   NC373547  35.385  37.529   5.219
 5769POPC   PO473548  34.931  38.009   5.388
 5769POPC   GL173549  35.251  37.764   5.692
 5769POPC   GL273550  35.603  37.891   5.686
 5769POPC   C1A73551  35.248  37.522   6.110
 5769POPC   D2A73552  35.233  37.275   6.515
 5769POPC   C3A73553  35.363  37.397   6.923
 5769POPC   C4A73554  35.294  37.587   7.308
 5769POPC   C1B73555  35.592  37.879   6.149
 5769POPC   C2B73556  35.402  37.770   6.558
 5769POPC   C3B73557  35.537  37.880   6.970
 5769POPC   C4B73558  35.486  38.092   7.344
 5770POPC   NC373559  13.225  21.067   5.368
 5770POPC   PO473560  12.777  20.643   5.360
 5770POPC   GL173561  12.804  20.500   5.803
 5770POPC   GL273562  12.502  20.345   5.820
 5770POPC   C1A73563  13.054  20.479   6.209
 5770POPC   D2A73564  13.250  20.676   6.597
 5770POPC   C3A73565  13.096  20.563   6.998
 5770POPC   C4A73566  12.786  20.224   7.057
 5770POPC   C1B73567  12.530  20.581   6.232
 5770POPC   C2B73568  12.723  20.535   6.622
 5770POPC   C3B73569  12.616  20.707   7.008
 5770POPC   C4B73570  12.559  20.934   7.390
 5771POPC   NC373571  37.064   4.712   5.430
 5771POPC   PO473572  37.047   5.400   5.365
 5771POPC   GL173573  36.978   5.074   5.797
 5771POPC   GL273574  37.151   4.749   5.927
 5771POPC   C1A73575  36.733   4.889   6.171
 5771POPC   D2A73576  36.417   4.870   6.500
 5771POPC   C3A73577  36.526   5.137   6.843
 5771POPC   C4A73578  36.775   5.101   7.206
 5771POPC   C1B73579  37.219   4.986   6.307
 5771POPC   C2B73580  37.196   5.186   6.699
 5771POPC   C3B73581  37.268   5.028   7.099
 5771POPC   C4B73582  37.185   5.093   7.553
 5772POPC   NC373583  41.436  20.781   5.525
 5772POPC   PO473584  41.579  20.081   5.449
 5772POPC   GL173585  41.542  20.331   5.791
 5772POPC   GL273586  41.802  20.584   5.818
 5772POPC   C1A73587  41.378  20.431   6.170
 5772POPC   D2A73588  41.567  20.357   6.526
 5772POPC   C3A73589  41.485  20.450   6.941
 5772POPC   C4A73590  41.269  20.526   7.350
 5772POPC   C1B73591  41.836  20.745   6.219
 5772POPC   C2B73592  41.769  20.850   6.631
 5772POPC   C3B73593  41.884  20.750   7.018
 5772POPC   C4B73594  41.805  20.990   7.351
 5773POPC   NC373595  20.691  12.348   5.447
 5773POPC   PO473596  20.211  12.814   5.363
 5773POPC   GL173597  20.514  12.978   5.717
 5773POPC   GL273598  20.773  12.732   5.788
 5773POPC   C1A73599  20.694  13.061   6.174
 5773POPC   D2A73600  20.632  12.885   6.616
 5773POPC   C3A73601  20.713  12.930   7.091
 5773POPC   C4A73602  20.739  13.207   7.434
 5773POPC   C1B73603  20.584  12.397   6.094
 5773POPC   C2B73604  20.399  12.343   6.503
 5773POPC   C3B73605  20.448  12.513   6.904
 5773POPC   C4B73606  20.596  12.472   7.316
 5774POPC   NC373607  26.312   4.798   5.613
 5774POPC   PO473608  26.158   5.383   5.302
 5774POPC   GL173609  26.096   5.272   5.749
 5774POPC   GL273610  25.866   4.997   5.863
 5774POPC   C1A73611  26.064   5.313   6.204
 5774POPC   D2A73612  26.131   5.097   6.576
 5774POPC   C3A73613  25.993   5.293   6.947
 5774POPC   C4A73614  26.277   5.312   7.271
 5774POPC   C1B73615  26.051   4.725   6.200
 5774POPC   C2B73616  26.156   4.562   6.606
 5774POPC   C3B73617  26.112   4.788   7.016
 5774POPC   C4B73618  26.156   4.844   7.470
 5775POPC   NC373619  20.547  31.856   5.481
 5775POPC   PO473620  20.647  32.532   5.390
 5775POPC   GL173621  20.460  32.454   5.787
 5775POPC   GL273622  20.681  32.179   5.883
 5775POPC   C1A73623  20.305  32.697   6.164
 5775POPC   D2A73624  20.199  32.661   6.618
 5775POPC   C3A73625  20.411  32.348   6.888
 5775POPC   C4A73626  20.264  32.284   7.308
 5775POPC   C1B73627  20.677  32.374   6.315
 5775POPC   C2B73628  21.055  32.513   6.543
 5775POPC   C3B73629  21.165  32.445   6.957
 5775POPC   C4B73630  20.824  32.258   7.223
 5776POPC   NC373631  27.410  10.636   5.307
 5776POPC   PO473632  27.628  11.254   5.414
 5776POPC   GL173633  27.565  11.197   5.815
 5776POPC   GL273634  27.345  10.906   5.768
 5776POPC   C1A73635  27.559  11.419   6.203
 5776POPC   D2A73636  27.250  11.601   6.511
 5776POPC   C3A73637  27.484  11.560   6.902
 5776POPC   C4A73638  27.630  11.403   7.301
 5776POPC   C1B73639  27.220  11.011   6.196
 5776POPC   C2B73640  27.439  11.121   6.596
 5776POPC   C3B73641  27.589  10.986   6.984
 5776POPC   C4B73642  27.264  10.920   7.267
 5777POPC   NC373643  41.824   8.379   5.385
 5777POPC   PO473644  41.179   8.100   5.215
 5777POPC   GL173645  41.388   8.219   5.628
 5777POPC   GL273646  41.610   7.955   5.766
 5777POPC   C1A73647  41.451   8.344   6.082
 5777POPC   D2A73648  41.432   8.097   6.487
 5777POPC   C3A73649  41.560   8.149   6.926
 5777POPC   C4A73650  41.462   8.405   7.255
 5777POPC   C1B73651  41.824   7.953   6.182
 5777POPC   C2B73652  41.890   7.877   6.655
 5777POPC   C3B73653  41.978   7.879   7.118
 5777POPC   C4B73654  41.817   8.006   7.515
 5778POPC   NC373655  40.700  21.852   5.585
 5778POPC   PO473656  40.646  22.416   5.432
 5778POPC   GL173657  40.825  22.267   5.855
 5778POPC   GL273658  41.155  22.095   5.798
 5778POPC   C1A73659  40.789  21.994   6.234
 5778POPC   D2A73660  40.586  21.912   6.630
 5778POPC   C3A73661  40.618  22.260   6.905
 5778POPC   C4A73662  40.672  22.303   7.339
 5778POPC   C1B73663  41.260  22.215   6.243
 5778POPC   C2B73664  41.088  22.161   6.683
 5778POPC   C3B73665  41.154  22.294   7.137
 5778POPC   C4B73666  41.130  22.157   7.596
 5779POPC   NC373667  39.607   4.436   5.530
 5779POPC   PO473668  38.976   4.429   5.478
 5779POPC   GL173669  39.106   4.257   5.853
 5779POPC   GL273670  38.926   4.483   6.025
 5779POPC   C1A73671  39.350   4.105   6.222
 5779POPC   D2A73672  39.349   3.938   6.664
 5779POPC   C3A73673  39.347   4.315   6.968
 5779POPC   C4A73674  39.265   4.481   7.360
 5779POPC   C1B73675  39.006   4.775   6.334
 5779POPC   C2B73676  39.025   4.791   6.763
 5779POPC   C3B73677  38.817   4.615   7.063
 5779POPC   C4B73678  38.785   4.654   7.499
 5780POPC   NC373679  30.050  30.226   5.431
 5780POPC   PO473680  29.907  30.894   5.270
 5780POPC   GL173681  30.135  30.768   5.691
 5780POPC   GL273682  30.028  30.461   5.891
 5780POPC   C1A73683  30.060  30.880   6.152
 5780POPC   D2A73684  29.848  30.879   6.555
 5780POPC   C3A73685  29.950  30.676   6.904
 5780POPC   C4A73686  30.242  30.831   7.163
 5780POPC   C1B73687  29.633  30.595   6.189
 5780POPC   C2B73688  29.517  30.490   6.668
 5780POPC   C3B73689  29.590  30.423   7.160
 5780POPC   C4B73690  29.711  30.329   7.602
 5781POPC   NC373691   7.652  41.880   5.350
 5781POPC   PO473692   7.237  41.379   5.296
 5781POPC   GL173693   7.272  41.666   5.699
 5781POPC   GL273694   7.603  41.716   5.837
 5781POPC   C1A73695   7.260  41.529   6.182
 5781POPC   D2A73696   7.203  41.659   6.653
 5781POPC   C3A73697   7.089  41.384   7.022
 5781POPC   C4A73698   7.197  41.466   7.480
 5781POPC   C1B73699   7.736  41.726   6.274
 5781POPC   C2B73700   7.727  41.583   6.702
 5781POPC   C3B73701   7.590  41.512   7.128
 5781POPC   C4B73702   7.677  41.591   7.582
 5782POPC   NC373703  19.967  12.413   5.440
 5782POPC   PO473704  20.326  11.887   5.439
 5782POPC   GL173705  20.082  12.056   5.789
 5782POPC   GL273706  19.775  11.889   5.897
 5782POPC   C1A73707  19.972  12.341   6.146
 5782POPC   D2A73708  19.892  12.213   6.560
 5782POPC   C3A73709  19.925  12.421   6.927
 5782POPC   C4A73710  20.103  12.562   7.284
 5782POPC   C1B73711  19.568  11.904   6.324
 5782POPC   C2B73712  19.742  11.747   6.733
 5782POPC   C3B73713  19.829  11.939   7.146
 5782POPC   C4B73714  19.575  11.930   7.541
 5783POPC   NC373715   1.739  27.276   5.611
 5783POPC   PO473716   2.226  27.781   5.417
 5783POPC   GL173717   2.096  27.605   5.779
 5783POPC   GL273718   2.260  27.278   5.771
 5783POPC   C1A73719   1.925  27.720   6.166
 5783POPC   D2A73720   2.138  27.628   6.537
 5783POPC   C3A73721   2.088  27.878   6.883
 5783POPC   C4A73722   1.907  27.813   7.274
 5783POPC   C1B73723   2.067  27.217   6.181
 5783POPC   C2B73724   1.891  27.183   6.590
 5783POPC   C3B73725   1.973  27.381   6.971
 5783POPC   C4B73726   2.112  27.335   7.364
 5784POPC   NC373727  16.279  42.555   5.330
 5784POPC   PO473728  15.620  42.320   5.303
 5784POPC   GL173729  15.740  42.430   5.747
 5784POPC   GL273730  15.929  42.743   5.827
 5784POPC   C1A73731  15.729  42.411   6.203
 5784POPC   D2A73732  15.875  42.138   6.528
 5784POPC   C3A73733  15.696  42.200   6.918
 5784POPC   C4A73734  15.720  42.400   7.298
 5784POPC   C1B73735  16.289  42.725   6.153
 5784POPC   C2B73736  16.395  42.737   6.621
 5784POPC   C3B73737  16.105  42.526   6.942
 5784POPC   C4B73738  16.225  42.470   7.408
 5785POPC   NC373739  31.280  35.528   5.407
 5785POPC   PO473740  31.626  35.066   5.387
 5785POPC   GL173741  31.611  35.251   5.783
 5785POPC   GL273742  31.570  35.579   5.806
 5785POPC   C1A73743  31.602  35.323   6.249
 5785POPC   D2A73744  31.511  35.040   6.584
 5785POPC   C3A73745  31.318  35.162   6.951
 5785POPC   C4A73746  31.506  35.449   7.180
 5785POPC   C1B73747  31.326  35.741   6.166
 5785POPC   C2B73748  31.324  35.612   6.620
 5785POPC   C3B73749  31.165  35.761   7.018
 5785POPC   C4B73750  31.169  35.691   7.492
 5786POPC   NC373751  24.086   9.181   5.620
 5786POPC   PO473752  23.451   8.821   5.473
 5786POPC   GL173753  23.700   8.860   5.797
 5786POPC   GL273754  23.597   9.192   5.811
 5786POPC   C1A73755  23.800   8.882   6.220
 5786POPC   D2A73756  23.742   8.674   6.609
 5786POPC   C3A73757  23.880   8.861   6.999
 5786POPC   C4A73758  23.730   8.749   7.417
 5786POPC   C1B73759  23.328   9.092   6.148
 5786POPC   C2B73760  23.441   9.091   6.571
 5786POPC   C3B73761  23.390   8.961   6.966
 5786POPC   C4B73762  23.168   9.133   7.281
 5787POPC   NC373763  42.807   8.541   5.306
 5787POPC   PO473764  43.494   8.945   5.323
 5787POPC   GL173765  43.308   8.977   5.783
 5787POPC   GL273766  43.083   9.248   5.838
 5787POPC   C1A73767  43.404   9.222   6.203
 5787POPC   D2A73768  43.179   9.254   6.608
 5787POPC   C3A73769  43.189   8.879   6.849
 5787POPC   C4A73770  43.361   8.696   7.208
 5787POPC   C1B73771  42.913   9.029   6.182
 5787POPC   C2B73772  42.697   8.931   6.553
 5787POPC   C3B73773  42.714   9.054   6.971
 5787POPC   C4B73774  42.889   8.892   7.334
 5788POPC   NC373775  10.009   6.126   5.417
 5788POPC   PO473776   9.914   5.600   5.169
 5788POPC   GL173777   9.778   5.761   5.693
 5788POPC   GL273778   9.828   6.106   5.885
 5788POPC   C1A73779   9.871   5.693   6.174
 5788POPC   D2A73780   9.947   5.934   6.578
 5788POPC   C3A73781   9.736   5.846   6.988
 5788POPC   C4A73782   9.865   5.620   7.358
 5788POPC   C1B73783   9.549   6.114   6.254
 5788POPC   C2B73784   9.482   6.247   6.687
 5788POPC   C3B73785   9.739   6.390   7.039
 5788POPC   C4B73786   9.983   6.156   7.350
 5789POPC   NC373787  27.207  38.475   5.078
 5789POPC   PO473788  26.576  38.709   5.253
 5789POPC   GL173789  26.626  38.694   5.799
 5789POPC   GL273790  26.388  38.630   5.995
 5789POPC   C1A73791  26.815  38.415   6.159
 5789POPC   D2A73792  27.030  38.475   6.521
 5789POPC   C3A73793  26.893  38.353   6.899
 5789POPC   C4A73794  27.092  38.228   7.251
 5789POPC   C1B73795  26.335  38.393   6.357
 5789POPC   C2B73796  26.376  38.220   6.754
 5789POPC   C3B73797  26.425  38.426   7.123
 5789POPC   C4B73798  26.644  38.547   7.518
 5790POPC   NC373799  23.083  42.584   5.318
 5790POPC   PO473800  22.460  42.377   5.361
 5790POPC   GL173801  22.822  42.323   5.685
 5790POPC   GL273802  22.741  42.074   5.945
 5790POPC   C1A73803  23.164  42.366   6.024
 5790POPC   D2A73804  23.147  42.605   6.427
 5790POPC   C3A73805  23.166  42.415   6.817
 5790POPC   C4A73806  23.137  42.326   7.249
 5790POPC   C1B73807  22.693  42.455   6.235
 5790POPC   C2B73808  22.698  42.614   6.695
 5790POPC   C3B73809  22.629  42.391   7.094
 5790POPC   C4B73810  22.305  42.386   7.431
 5791POPC   NC373811  12.359  38.047   5.500
 5791POPC   PO473812  11.830  38.523   5.445
 5791POPC   GL173813  12.252  38.550   5.692
 5791POPC   GL273814  12.302  38.271   5.950
 5791POPC   C1A73815  12.428  38.745   6.086
 5791POPC   D2A73816  12.444  38.500   6.481
 5791POPC   C3A73817  12.234  38.605   6.884
 5791POPC   C4A73818  12.023  38.461   7.260
 5791POPC   C1B73819  11.926  38.208   6.205
 5791POPC   C2B73820  11.653  38.102   6.546
 5791POPC   C3B73821  11.731  38.155   6.986
 5791POPC   C4B73822  11.703  38.089   7.428
 5792POPC   NC373823  39.800  35.052   5.448
 5792POPC   PO473824  40.110  35.591   5.178
 5792POPC   GL173825  39.978  35.505   5.642
 5792POPC   GL273826  39.634  35.396   5.806
 5792POPC   C1A73827  40.117  35.493   6.075
 5792POPC   D2A73828  40.068  35.670   6.496
 5792POPC   C3A73829  40.171  35.522   6.930
 5792POPC   C4A73830  40.411  35.166   7.135
 5792POPC   C1B73831  39.616  35.497   6.257
 5792POPC   C2B73832  39.667  35.435   6.729
 5792POPC   C3B73833  39.712  35.391   7.171
 5792POPC   C4B73834  39.652  35.136   7.551
 5793POPC   NC373835  21.968  28.427   5.294
 5793POPC   PO473836  22.536  28.755   5.393
 5793POPC   GL173837  22.341  28.650   5.826
 5793POPC   GL273838  22.032  28.419   5.808
 5793POPC   C1A73839  22.355  28.400   6.233
 5793POPC   D2A73840  22.176  28.069   6.532
 5793POPC   C3A73841  22.328  28.085   6.966
 5793POPC   C4A73842  22.363  28.363   7.320
 5793POPC   C1B73843  21.842  28.373   6.243
 5793POPC   C2B73844  21.992  28.523   6.659
 5793POPC   C3B73845  21.919  28.407   7.087
 5793POPC   C4B73846  21.868  28.384   7.536
 5794POPC   NC373847  29.598   2.154   5.538
 5794POPC   PO473848  30.265   2.048   5.460
 5794POPC   GL173849  30.030   1.975   5.811
 5794POPC   GL273850  29.998   2.296   5.898
 5794POPC   C1A73851  29.738   1.955   6.174
 5794POPC   D2A73852  29.727   2.169   6.564
 5794POPC   C3A73853  29.739   1.919   6.924
 5794POPC   C4A73854  29.875   1.759   7.328
 5794POPC   C1B73855  30.202   2.195   6.309
 5794POPC   C2B73856  30.203   2.124   6.767
 5794POPC   C3B73857  29.952   2.333   7.114
 5794POPC   C4B73858  29.847   2.210   7.541
 5795POPC   NC373859   8.004  41.096   5.377
 5795POPC   PO473860   8.366  40.549   5.263
 5795POPC   GL173861   8.267  40.773   5.675
 5795POPC   GL273862   8.069  40.524   5.839
 5795POPC   C1A73863   8.053  40.950   6.106
 5795POPC   D2A73864   7.928  40.831   6.551
 5795POPC   C3A73865   7.942  41.141   6.906
 5795POPC   C4A73866   7.940  41.219   7.353
 5795POPC   C1B73867   8.447  40.616   6.117
 5795POPC   C2B73868   8.622  40.742   6.483
 5795POPC   C3B73869   8.501  40.670   6.897
 5795POPC   C4B73870   8.189  40.784   7.188
 5796POPC   NC373871  30.630  19.424   5.342
 5796POPC   PO473872  30.916  19.992   5.194
 5796POPC   GL173873  30.870  19.865   5.696
 5796POPC   GL273874  30.658  20.107   5.916
 5796POPC   C1A73875  30.761  19.695   6.176
 5796POPC   D2A73876  30.828  19.782   6.661
 5796POPC   C3A73877  30.579  19.559   7.039
 5796POPC   C4A73878  30.400  19.621   7.482
 5796POPC   C1B73879  31.074  20.086   6.170
 5796POPC   C2B73880  31.236  20.226   6.571
 5796POPC   C3B73881  31.195  20.150   7.013
 5796POPC   C4B73882  30.787  20.020   7.138
 5797POPC   NC373883  21.440  11.911   5.321
 5797POPC   PO473884  21.133  12.450   5.519
 5797POPC   GL173885  21.426  12.275   5.836
 5797POPC   GL273886  21.456  11.910   5.836
 5797POPC   C1A73887  21.560  12.370   6.287
 5797POPC   D2A73888  21.715  12.236   6.720
 5797POPC   C3A73889  21.407  12.172   7.089
 5797POPC   C4A73890  21.330  12.128   7.558
 5797POPC   C1B73891  21.659  11.875   6.247
 5797POPC   C2B73892  21.578  11.738   6.689
 5797POPC   C3B73893  21.762  11.796   7.098
 5797POPC   C4B73894  21.708  11.813   7.535
 5798POPC   NC373895  17.669  18.644   5.024
 5798POPC   PO473896  17.688  18.132   5.396
 5798POPC   GL173897  17.691  18.167   5.848
 5798POPC   GL273898  17.663  17.825   5.872
 5798POPC   C1A73899  17.514  18.309   6.280
 5798POPC   D2A73900  17.159  18.535   6.523
 5798POPC   C3A73901  17.204  18.508   6.974
 5798POPC   C4A73902  17.472  18.239   7.218
 5798POPC   C1B73903  17.533  17.778   6.274
 5798POPC   C2B73904  17.424  17.925   6.675
 5798POPC   C3B73905  17.644  17.777   7.055
 5798POPC   C4B73906  17.855  17.959   7.420
 5799POPC   NC373907  25.701  22.030   5.638
 5799POPC   PO473908  26.305  22.337   5.566
 5799POPC   GL173909  26.145  22.119   5.871
 5799POPC   GL273910  26.300  21.808   5.845
 5799POPC   C1A73911  25.899  22.241   6.246
 5799POPC   D2A73912  25.614  22.294   6.595
 5799POPC   C3A73913  25.847  22.331   6.972
 5799POPC   C4A73914  26.000  22.158   7.338
 5799POPC   C1B73915  26.141  21.784   6.258
 5799POPC   C2B73916  25.958  21.910   6.656
 5799POPC   C3B73917  26.020  21.742   7.053
 5799POPC   C4B73918  26.394  21.823   7.294
 5800POPC   NC373919  28.301  25.104   5.437
 5800POPC   PO473920  28.604  25.658   5.436
 5800POPC   GL173921  28.405  25.484   5.816
 5800POPC   GL273922  28.339  25.122   5.929
 5800POPC   C1A73923  28.524  25.444   6.268
 5800POPC   D2A73924  28.342  25.342   6.661
 5800POPC   C3A73925  28.544  25.400   7.066
 5800POPC   C4A73926  28.744  25.159   7.413
 5800POPC   C1B73927  28.037  25.115   6.250
 5800POPC   C2B73928  27.867  25.121   6.645
 5800POPC   C3B73929  28.028  25.183   7.027
 5800POPC   C4B73930  28.301  24.979   7.195
 5801POPC   NC373931   0.783  20.278   5.513
 5801POPC   PO473932   0.124  20.357   5.498
 5801POPC   GL173933   0.421  20.553   5.784
 5801POPC   GL273934   0.604  20.288   5.992
 5801POPC   C1A73935   0.517  20.749   6.181
 5801POPC   D2A73936   0.476  20.527   6.552
 5801POPC   C3A73937   0.455  20.805   6.869
 5801POPC   C4A73938   0.455  20.744   7.297
 5801POPC   C1B73939   0.174  20.331   6.187
 5801POPC   C2B73940  44.947  20.357   6.594
 5801POPC   C3B73941   0.210  20.364   6.963
 5801POPC   C4B73942   0.590  20.236   7.170
 5802POPC   NC373943  39.056  24.055   5.430
 5802POPC   PO473944  39.323  23.416   5.382
 5802POPC   GL173945  39.209  23.663   5.757
 5802POPC   GL273946  39.193  23.397   6.041
 5802POPC   C1A73947  39.098  23.879   6.140
 5802POPC   D2A73948  39.016  23.706   6.535
 5802POPC   C3A73949  39.075  23.900   6.897
 5802POPC   C4A73950  39.074  23.658   7.212
 5802POPC   C1B73951  39.518  23.477   6.358
 5802POPC   C2B73952  39.731  23.303   6.706
 5802POPC   C3B73953  39.436  23.342   7.040
 5802POPC   C4B73954  39.485  23.445   7.473
 5803POPC   NC373955  25.568  11.166   5.353
 5803POPC   PO473956  25.075  11.626   5.364
 5803POPC   GL173957  25.213  11.361   5.723
 5803POPC   GL273958  24.914  11.205   5.843
 5803POPC   C1A73959  25.226  11.396   6.202
 5803POPC   D2A73960  25.360  11.568   6.617
 5803POPC   C3A73961  25.255  11.338   7.002
 5803POPC   C4A73962  25.106  11.191   7.430
 5803POPC   C1B73963  24.812  11.039   6.238
 5803POPC   C2B73964  25.047  11.064   6.612
 5803POPC   C3B73965  24.868  11.008   7.014
 5803POPC   C4B73966  24.733  10.795   7.379
 5804POPC   NC373967   5.359  12.136   5.414
 5804POPC   PO473968   4.739  11.902   5.236
 5804POPC   GL173969   4.832  11.950   5.735
 5804POPC   GL273970   4.716  12.268   5.826
 5804POPC   C1A73971   5.164  11.880   6.132
 5804POPC   D2A73972   5.150  12.076   6.550
 5804POPC   C3A73973   5.259  11.959   6.963
 5804POPC   C4A73974   5.387  12.347   7.226
 5804POPC   C1B73975   4.718  12.065   6.250
 5804POPC   C2B73976   4.707  11.877   6.705
 5804POPC   C3B73977   4.786  12.027   7.156
 5804POPC   C4B73978   4.708  11.934   7.599
 5805POPC   NC373979  37.230   0.442   5.349
 5805POPC   PO473980  36.729   0.817   5.081
 5805POPC   GL173981  36.727   0.646   5.626
 5805POPC   GL273982  36.843   0.306   5.702
 5805POPC   C1A73983  36.854   0.634   6.110
 5805POPC   D2A73984  36.814   0.450   6.573
 5805POPC   C3A73985  36.745   0.714   6.966
 5805POPC   C4A73986  36.906   0.656   7.403
 5805POPC   C1B73987  36.955   0.138   6.130
 5805POPC   C2B73988  37.263   0.161   6.479
 5805POPC   C3B73989  37.170   0.083   6.920
 5805POPC   C4B73990  36.818   0.224   7.142
 5806POPC   NC373991  33.142  22.665   5.388
 5806POPC   PO473992  32.509  22.799   5.564
 5806POPC   GL173993  32.802  22.964   5.896
 5806POPC   GL273994  33.165  22.897   5.830
 5806POPC   C1A73995  33.027  22.979   6.303
 5806POPC   D2A73996  33.055  22.746   6.661
 5806POPC   C3A73997  33.108  23.011   6.998
 5806POPC   C4A73998  33.011  23.116   7.410
 5806POPC   C1B73999  33.299  22.557   6.142
 5806POPC   C2B74000  33.525  22.544   6.559
 5806POPC   C3B74001  33.351  22.491   7.006
 5806POPC   C4B74002  33.407  22.774   7.351
 5807POPC   NC374003  12.317  20.639   5.405
 5807POPC   PO474004  11.609  20.580   5.347
 5807POPC   GL174005  11.910  20.574   5.738
 5807POPC   GL274006  12.186  20.736   5.889
 5807POPC   C1A74007  11.759  20.663   6.191
 5807POPC   D2A74008  11.608  20.400   6.532
 5807POPC   C3A74009  11.725  20.555   6.922
 5807POPC   C4A74010  11.863  20.443   7.317
 5807POPC   C1B74011  12.112  20.319   6.139
 5807POPC   C2B74012  12.132  20.464   6.576
 5807POPC   C3B74013  12.285  20.322   6.953
 5807POPC   C4B74014  12.386  20.449   7.372
 5808POPC   NC374015  21.006   4.478   5.330
 5808POPC   PO474016  21.695   4.277   5.212
 5808POPC   GL174017  21.665   4.223   5.638
 5808POPC   GL274018  21.343   4.359   5.700
 5808POPC   C1A74019  21.721   4.297   6.084
 5808POPC   D2A74020  21.523   4.367   6.487
 5808POPC   C3A74021  21.714   4.189   6.824
 5808POPC   C4A74022  21.564   4.235   7.179
 5808POPC   C1B74023  21.271   4.597   6.089
 5808POPC   C2B74024  21.092   4.624   6.506
 5808POPC   C3B74025  21.171   4.496   6.912
 5808POPC   C4B74026  21.189   4.735   7.255
 5809POPC   NC374027   8.454  37.142   5.371
 5809POPC   PO474028   7.917  36.685   5.491
 5809POPC   GL174029   8.029  36.913   5.856
 5809POPC   GL274030   8.287  37.158   5.836
 5809POPC   C1A74031   8.192  36.943   6.281
 5809POPC   D2A74032   7.997  37.000   6.657
 5809POPC   C3A74033   8.180  36.726   6.958
 5809POPC   C4A74034   8.138  36.848   7.368
 5809POPC   C1B74035   8.569  37.253   6.184
 5809POPC   C2B74036   8.413  37.341   6.572
 5809POPC   C3B74037   8.381  37.178   6.965
 5809POPC   C4B74038   8.295  37.336   7.319
 5810POPC   NC374039  31.015  21.576   5.382
 5810POPC   PO474040  30.427  21.365   5.369
 5810POPC   GL174041  30.696  21.316   5.724
 5810POPC   GL274042  30.957  21.083   5.581
 5810POPC   C1A74043  30.779  21.474   6.177
 5810POPC   D2A74044  30.740  21.319   6.622
 5810POPC   C3A74045  30.622  21.575   7.005
 5810POPC   C4A74046  30.526  21.490   7.461
 5810POPC   C1B74047  30.917  20.982   6.043
 5810POPC   C2B74048  31.058  20.866   6.484
 5810POPC   C3B74049  31.026  21.011   6.911
 5810POPC   C4B74050  30.981  20.769   7.285
 5811POPC   NC374051   7.878  28.705   5.479
 5811POPC   PO474052   7.246  28.408   5.346
 5811POPC   GL174053   7.527  28.371   5.696
 5811POPC   GL274054   7.596  28.031   5.824
 5811POPC   C1A74055   7.610  28.434   6.142
 5811POPC   D2A74056   7.310  28.497   6.486
 5811POPC   C3A74057   7.313  28.231   6.861
 5811POPC   C4A74058   7.296  28.455   7.260
 5811POPC   C1B74059   7.768  27.944   6.256
 5811POPC   C2B74060   7.891  28.177   6.619
 5811POPC   C3B74061   7.781  28.307   7.029
 5811POPC   C4B74062   7.640  28.108   7.391
 5812POPC   NC374063  23.539   6.798   5.295
 5812POPC   PO474064  24.110   6.450   5.230
 5812POPC   GL174065  23.947   6.625   5.683
 5812POPC   GL274066  23.593   6.544   5.804
 5812POPC   C1A74067  23.776   6.922   6.067
 5812POPC   D2A74068  23.499   7.060   6.450
 5812POPC   C3A74069  23.737   6.956   6.835
 5812POPC   C4A74070  24.004   7.027   7.228
 5812POPC   C1B74071  23.424   6.585   6.275
 5812POPC   C2B74072  23.174   6.594   6.688
 5812POPC   C3B74073  23.289   6.439   7.103
 5812POPC   C4B74074  23.652   6.665   7.252
 5813POPC   NC374075  15.833  27.958   5.708
 5813POPC   PO474076  15.607  27.411   5.446
 5813POPC   GL174077  15.540  27.563   5.875
 5813POPC   GL274078  15.328  27.834   5.756
 5813POPC   C1A74079  15.784  27.603   6.294
 5813POPC   D2A74080  16.041  27.407   6.650
 5813POPC   C3A74081  16.171  27.442   7.112
 5813POPC   C4A74082  16.314  27.637   7.535
 5813POPC   C1B74083  15.392  27.956   6.204
 5813POPC   C2B74084  15.464  27.824   6.623
 5813POPC   C3B74085  15.680  27.613   6.969
 5813POPC   C4B74086  15.835  27.726   7.390
 5814POPC   NC374087  37.609  17.634   5.047
 5814POPC   PO474088  37.586  17.348   5.633
 5814POPC   GL174089  37.740  17.667   5.884
 5814POPC   GL274090  37.416  17.690   6.014
 5814POPC   C1A74091  37.784  17.687   6.360
 5814POPC   D2A74092  37.610  17.403   6.667
 5814POPC   C3A74093  37.538  17.594   7.039
 5814POPC   C4A74094  37.662  17.460   7.409
 5814POPC   C1B74095  37.252  17.395   6.290
 5814POPC   C2B74096  37.062  17.183   6.611
 5814POPC   C3B74097  37.287  17.130   6.999
 5814POPC   C4B74098  37.317  17.082   7.456
 5815POPC   NC374099  24.937  24.536   5.238
 5815POPC   PO474100  25.524  24.317   5.257
 5815POPC   GL174101  25.325  24.439   5.648
 5815POPC   GL274102  25.432  24.785   5.675
 5815POPC   C1A74103  25.248  24.372   6.113
 5815POPC   D2A74104  25.077  24.474   6.535
 5815POPC   C3A74105  25.091  24.193   6.878
 5815POPC   C4A74106  25.158  24.437   7.206
 5815POPC   C1B74107  25.594  24.811   6.091
 5815POPC   C2B74108  25.600  24.600   6.478
 5815POPC   C3B74109  25.707  24.801   6.872
 5815POPC   C4B74110  25.518  24.796   7.270
 5816POPC   NC374111   4.653  20.546   5.306
 5816POPC   PO474112   4.176  20.997   5.364
 5816POPC   GL174113   4.091  20.725   5.726
 5816POPC   GL274114   4.167  21.009   5.886
 5816POPC   C1A74115   4.170  20.480   6.140
 5816POPC   D2A74116   4.461  20.499   6.526
 5816POPC   C3A74117   4.307  20.471   6.985
 5816POPC   C4A74118   3.998  20.471   7.345
 5816POPC   C1B74119   3.950  20.929   6.231
 5816POPC   C2B74120   4.020  20.739   6.609
 5816POPC   C3B74121   4.001  20.875   7.016
 5816POPC   C4B74122   4.131  21.106   7.366
 5817POPC   NC374123  15.040  25.330   5.295
 5817POPC   PO474124  15.040  24.656   5.478
 5817POPC   GL174125  15.136  25.054   5.722
 5817POPC   GL274126  14.896  25.365   5.771
 5817POPC   C1A74127  15.332  25.239   6.075
 5817POPC   D2A74128  15.439  25.208   6.519
 5817POPC   C3A74129  15.251  25.539   6.759
 5817POPC   C4A74130  15.166  25.578   7.174
 5817POPC   C1B74131  14.809  25.337   6.195
 5817POPC   C2B74132  14.900  25.169   6.583
 5817POPC   C3B74133  15.121  25.004   6.918
 5817POPC   C4B74134  15.110  25.054   7.340
 5818POPC   NC374135  44.884  27.068   5.508
 5818POPC   PO474136  44.188  26.850   5.561
 5818POPC   GL174137  44.439  26.796   5.925
 5818POPC   GL274138  44.723  26.983   5.976
 5818POPC   C1A74139  44.611  26.663   6.368
 5818POPC   D2A74140  44.997  26.648   6.669
 5818POPC   C3A74141  44.906  26.636   7.128
 5818POPC   C4A74142  44.503  26.809   7.259
 5818POPC   C1B74143  44.971  27.283   6.146
 5818POPC   C2B74144  44.963  27.191   6.540
 5818POPC   C3B74145  44.748  27.046   6.859
 5818POPC   C4B74146  44.834  27.273   7.175
 5819POPC   NC374147   9.007  36.745   5.493
 5819POPC   PO474148   8.843  37.378   5.471
 5819POPC   GL174149   8.882  37.117   5.822
 5819POPC   GL274150   8.653  36.806   5.852
 5819POPC   C1A74151   9.029  36.988   6.235
 5819POPC   D2A74152   9.286  36.895   6.598
 5819POPC   C3A74153   9.232  37.133   6.926
 5819POPC   C4A74154   9.163  36.923   7.293
 5819POPC   C1B74155   8.690  36.603   6.259
 5819POPC   C2B74156   8.599  36.849   6.584
 5819POPC   C3B74157   8.790  36.871   6.934
 5819POPC   C4B74158   8.633  36.738   7.293
 5820POPC   NC374159   4.577  35.228   5.421
 5820POPC   PO474160   4.074  35.698   5.279
 5820POPC   GL174161   4.101  35.539   5.731
 5820POPC   GL274162   4.147  35.191   5.756
 5820POPC   C1A74163   4.296  35.560   6.149
 5820POPC   D2A74164   4.460  35.665   6.539
 5820POPC   C3A74165   4.407  35.496   6.928
 5820POPC   C4A74166   4.127  35.246   7.034
 5820POPC   C1B74167   4.345  35.035   6.111
 5820POPC   C2B74168   4.376  35.144   6.533
 5820POPC   C3B74169   4.571  35.000   6.889
 5820POPC   C4B74170   4.395  34.855   7.231
 5821POPC   NC374171   6.213  10.801   5.600
 5821POPC   PO474172   6.681  10.308   5.559
 5821POPC   GL174173   6.464  10.419   5.906
 5821POPC   GL274174   6.795  10.477   6.045
 5821POPC   C1A74175   6.350  10.563   6.329
 5821POPC   D2A74176   6.525  10.582   6.758
 5821POPC   C3A74177   6.352  10.625   7.159
 5821POPC   C4A74178   6.435  10.419   7.548
 5821POPC   C1B74179   6.852  10.724   6.394
 5821POPC   C2B74180   7.020  10.666   6.796
 5821POPC   C3B74181   6.857  10.458   7.148
 5821POPC   C4B74182   6.921  10.565   7.555
 5822POPC   NC374183  23.885   0.694   5.353
 5822POPC   PO474184  23.322   0.323   5.319
 5822POPC   GL174185  23.516   0.540   5.703
 5822POPC   GL274186  23.859   0.449   5.815
 5822POPC   C1A74187  23.575   0.661   6.159
 5822POPC   D2A74188  23.716   0.373   6.458
 5822POPC   C3A74189  23.525   0.364   6.820
 5822POPC   C4A74190  23.593   0.584   7.177
 5822POPC   C1B74191  24.088   0.230   6.136
 5822POPC   C2B74192  24.003  44.941   6.493
 5822POPC   C3B74193  24.004   0.111   6.921
 5822POPC   C4B74194  23.874   0.208   7.348
 5823POPC   NC374195  17.439  12.307   5.444
 5823POPC   PO474196  18.027  12.078   5.833
 5823POPC   GL174197  17.588  12.092   5.912
 5823POPC   GL274198  17.255  12.333   5.906
 5823POPC   C1A74199  17.565  12.225   6.328
 5823POPC   D2A74200  17.563  12.396   6.717
 5823POPC   C3A74201  17.662  12.030   6.952
 5823POPC   C4A74202  17.763  11.973   7.369
 5823POPC   C1B74203  17.170  11.963   6.142
 5823POPC   C2B74204  17.290  11.893   6.582
 5823POPC   C3B74205  17.173  12.099   6.958
 5823POPC   C4B74206  17.259  11.785   7.239
 5824POPC   NC374207  13.098  11.137   5.298
 5824POPC   PO474208  12.641  11.522   5.498
 5824POPC   GL174209  12.850  11.245   5.748
 5824POPC   GL274210  12.950  11.510   5.929
 5824POPC   C1A74211  12.737  11.078   6.150
 5824POPC   D2A74212  12.607  11.163   6.543
 5824POPC   C3A74213  12.713  10.986   6.949
 5824POPC   C4A74214  12.556  11.060   7.376
 5824POPC   C1B74215  12.974  11.494   6.355
 5824POPC   C2B74216  13.021  11.384   6.759
 5824POPC   C3B74217  12.877  11.481   7.100
 5824POPC   C4B74218  12.923  11.384   7.504
 5825POPC   NC374219   5.609   9.444   5.471
 5825POPC   PO474220   5.030   9.019   5.381
 5825POPC   GL174221   5.042   8.992   5.802
 5825POPC   GL274222   5.382   8.875   5.747
 5825POPC   C1A74223   4.800   9.007   6.221
 5825POPC   D2A74224   4.723   8.877   6.669
 5825POPC   C3A74225   4.976   9.047   7.033
 5825POPC   C4A74226   5.155   9.375   7.305
 5825POPC   C1B74227   5.302   8.923   6.222
 5825POPC   C2B74228   5.244   8.768   6.647
 5825POPC   C3B74229   5.477   8.798   7.035
 5825POPC   C4B74230   5.509   9.016   7.434
 5826POPC   NC374231  15.205  28.655   5.363
 5826POPC   PO474232  14.959  28.026   5.277
 5826POPC   GL174233  15.048  28.257   5.645
 5826POPC   GL274234  15.415  28.331   5.720
 5826POPC   C1A74235  15.009  28.264   6.084
 5826POPC   D2A74236  15.141  28.347   6.519
 5826POPC   C3A74237  14.905  28.224   6.876
 5826POPC   C4A74238  14.922  28.541   7.169
 5826POPC   C1B74239  15.479  28.479   6.151
 5826POPC   C2B74240  15.581  28.620   6.582
 5826POPC   C3B74241  15.355  28.850   6.907
 5826POPC   C4B74242  15.338  28.777   7.303
 5827POPC   NC374243  17.817  16.302   5.410
 5827POPC   PO474244  17.513  16.894   5.547
 5827POPC   GL174245  17.712  16.797   5.912
 5827POPC   GL274246  17.630  16.438   5.874
 5827POPC   C1A74247  17.751  16.617   6.325
 5827POPC   D2A74248  17.486  16.545   6.650
 5827POPC   C3A74249  17.718  16.699   6.973
 5827POPC   C4A74250  17.774  16.434   7.286
 5827POPC   C1B74251  17.269  16.608   6.123
 5827POPC   C2B74252  17.198  16.919   6.450
 5827POPC   C3B74253  17.266  16.951   6.893
 5827POPC   C4B74254  17.294  16.670   7.247
 5828POPC   NC374255   6.182  37.020   5.497
 5828POPC   PO474256   5.559  36.754   5.372
 5828POPC   GL174257   5.677  36.743   5.802
 5828POPC   GL274258   6.012  36.680   5.862
 5828POPC   C1A74259   5.611  36.967   6.215
 5828POPC   D2A74260   5.779  37.076   6.641
 5828POPC   C3A74261   5.842  36.882   7.050
 5828POPC   C4A74262   5.644  36.709   7.438
 5828POPC   C1B74263   6.110  36.866   6.270
 5828POPC   C2B74264   6.220  36.662   6.673
 5828POPC   C3B74265   6.345  36.725   7.100
 5828POPC   C4B74266   6.123  36.857   7.484
 5829POPC   NC374267  26.923  33.541   5.454
 5829POPC   PO474268  26.457  33.898   5.457
 5829POPC   GL174269  26.532  33.672   5.851
 5829POPC   GL274270  26.453  33.340   5.726
 5829POPC   C1A74271  26.625  33.705   6.329
 5829POPC   D2A74272  26.888  33.746   6.738
 5829POPC   C3A74273  26.707  33.969   7.093
 5829POPC   C4A74274  26.418  34.342   7.117
 5829POPC   C1B74275  26.739  33.249   6.117
 5829POPC   C2B74276  26.741  33.269   6.599
 5829POPC   C3B74277  26.596  33.406   7.017
 5829POPC   C4B74278  26.710  33.538   7.417
 5830POPC   NC374279  10.206  39.746   5.345
 5830POPC   PO474280  10.722  40.199   5.293
 5830POPC   GL174281  10.670  39.996   5.692
 5830POPC   GL274282  10.322  39.960   5.783
 5830POPC   C1A74283  10.642  40.052   6.157
 5830POPC   D2A74284  10.755  40.205   6.560
 5830POPC   C3A74285  10.690  39.929   6.887
 5830POPC   C4A74286  10.485  39.717   7.219
 5830POPC   C1B74287  10.133  40.058   6.146
 5830POPC   C2B74288  10.297  39.984   6.527
 5830POPC   C3B74289  10.248  40.162   6.877
 5830POPC   C4B74290  10.085  40.047   7.213
 5831POPC   NC374291  14.097  22.659   5.221
 5831POPC   PO474292  13.464  22.795   5.376
 5831POPC   GL174293  13.691  22.771   5.743
 5831POPC   GL274294  13.567  23.085   5.881
 5831POPC   C1A74295  13.673  22.699   6.192
 5831POPC   D2A74296  13.524  22.906   6.559
 5831POPC   C3A74297  13.667  22.792   6.973
 5831POPC   C4A74298  13.899  22.960   7.338
 5831POPC   C1B74299  13.749  23.286   6.247
 5831POPC   C2B74300  13.705  23.396   6.665
 5831POPC   C3B74301  13.601  23.295   7.090
 5831POPC   C4B74302  13.591  23.307   7.571
 5832POPC   NC374303  22.401  21.872   5.071
 5832POPC   PO474304  22.174  21.339   5.398
 5832POPC   GL174305  22.047  21.217   5.776
 5832POPC   GL274306  21.992  20.849   5.729
 5832POPC   C1A74307  22.067  21.411   6.196
 5832POPC   D2A74308  22.379  21.503   6.521
 5832POPC   C3A74309  22.235  21.494   6.938
 5832POPC   C4A74310  22.374  21.308   7.304
 5832POPC   C1B74311  21.907  20.919   6.160
 5832POPC   C2B74312  21.689  21.135   6.470
 5832POPC   C3B74313  21.724  21.074   6.904
 5832POPC   C4B74314  21.865  21.335   7.254
 5833POPC   NC374315   3.094  16.592   5.460
 5833POPC   PO474316   2.512  16.914   5.295
 5833POPC   GL174317   2.537  16.812   5.776
 5833POPC   GL274318   2.594  16.433   5.860
 5833POPC   C1A74319   2.654  16.763   6.242
 5833POPC   D2A74320   2.920  16.639   6.607
 5833POPC   C3A74321   2.763  16.535   7.033
 5833POPC   C4A74322   2.653  16.440   7.455
 5833POPC   C1B74323   2.960  16.343   6.167
 5833POPC   C2B74324   3.301  16.309   6.512
 5833POPC   C3B74325   3.204  16.281   6.957
 5833POPC   C4B74326   3.153  16.283   7.413
 5834POPC   NC374327  26.479  26.676   5.494
 5834POPC   PO474328  27.124  26.710   5.516
 5834POPC   GL174329  26.864  26.842   5.840
 5834POPC   GL274330  26.906  27.197   5.782
 5834POPC   C1A74331  26.709  26.643   6.256
 5834POPC   D2A74332  26.511  26.563   6.695
 5834POPC   C3A74333  26.791  26.569   7.058
 5834POPC   C4A74334  27.190  26.622   7.301
 5834POPC   C1B74335  26.820  27.155   6.235
 5834POPC   C2B74336  26.831  26.971   6.651
 5834POPC   C3B74337  26.932  27.087   7.060
 5834POPC   C4B74338  27.071  27.461   7.282
 5835POPC   NC374339  19.651  35.365   5.411
 5835POPC   PO474340  20.317  35.297   5.468
 5835POPC   GL174341  20.012  35.325   5.795
 5835POPC   GL274342  19.759  35.045   5.802
 5835POPC   C1A74343  19.934  35.537   6.184
 5835POPC   D2A74344  19.598  35.638   6.497
 5835POPC   C3A74345  19.724  35.619   6.906
 5835POPC   C4A74346  19.949  35.617   7.286
 5835POPC   C1B74347  19.641  35.131   6.243
 5835POPC   C2B74348  19.786  35.175   6.673
 5835POPC   C3B74349  19.703  35.150   7.116
 5835POPC   C4B74350  19.730  35.243   7.568
 5836POPC   NC374351  37.911  42.750   5.537
 5836POPC   PO474352  37.910  43.447   5.450
 5836POPC   GL174353  37.677  43.338   5.845
 5836POPC   GL274354  37.664  42.999   5.893
 5836POPC   C1A74355  37.453  43.365   6.259
 5836POPC   D2A74356  37.633  43.379   6.710
 5836POPC   C3A74357  37.575  43.373   7.201
 5836POPC   C4A74358  37.319  43.487   7.629
 5836POPC   C1B74359  37.891  43.109   6.283
 5836POPC   C2B74360  37.885  42.915   6.677
 5836POPC   C3B74361  37.918  42.651   6.997
 5836POPC   C4B74362  37.734  42.818   7.292
 5837POPC   NC374363  34.286  16.995   5.248
 5837POPC   PO474364  33.768  16.586   5.410
 5837POPC   GL174365  33.993  16.510   5.811
 5837POPC   GL274366  34.097  16.853   5.835
 5837POPC   C1A74367  33.871  16.554   6.254
 5837POPC   D2A74368  33.614  16.854   6.458
 5837POPC   C3A74369  33.592  16.780   6.900
 5837POPC   C4A74370  33.545  16.985   7.297
 5837POPC   C1B74371  34.154  16.973   6.265
 5837POPC   C2B74372  34.066  16.927   6.701
 5837POPC   C3B74373  34.060  16.974   7.117
 5837POPC   C4B74374  33.924  16.621   7.279
 5838POPC   NC374375   4.312  21.845   5.406
 5838POPC   PO474376   4.180  22.492   5.245
 5838POPC   GL174377   4.361  22.371   5.696
 5838POPC   GL274378   4.386  22.020   5.861
 5838POPC   C1A74379   4.286  22.378   6.173
 5838POPC   D2A74380   4.494  22.158   6.527
 5838POPC   C3A74381   4.238  22.345   6.849
 5838POPC   C4A74382   4.039  22.568   7.204
 5838POPC   C1B74383   4.134  21.899   6.241
 5838POPC   C2B74384   4.132  21.820   6.703
 5838POPC   C3B74385   4.463  21.917   7.020
 5838POPC   C4B74386   4.453  22.264   7.316
 5839POPC   NC374387  12.486  33.133   5.252
 5839POPC   PO474388  13.055  32.747   5.416
 5839POPC   GL174389  12.951  33.025   5.732
 5839POPC   GL274390  12.706  33.261   5.711
 5839POPC   C1A74391  13.038  33.014   6.172
 5839POPC   D2A74392  12.840  32.990   6.560
 5839POPC   C3A74393  13.038  32.837   6.910
 5839POPC   C4A74394  13.196  32.948   7.304
 5839POPC   C1B74395  12.554  33.226   6.156
 5839POPC   C2B74396  12.467  33.321   6.613
 5839POPC   C3B74397  12.613  33.145   7.024
 5839POPC   C4B74398  12.630  32.971   7.436
 5840POPC   NC374399  19.513  42.656   5.615
 5840POPC   PO474400  19.851  43.107   5.193
 5840POPC   GL174401  19.900  43.012   5.658
 5840POPC   GL274402  19.631  43.197   5.741
 5840POPC   C1A74403  20.065  42.912   6.117
 5840POPC   D2A74404  19.966  42.790   6.595
 5840POPC   C3A74405  20.186  42.959   6.949
 5840POPC   C4A74406  20.083  43.314   7.189
 5840POPC   C1B74407  19.614  43.156   6.179
 5840POPC   C2B74408  19.515  43.037   6.588
 5840POPC   C3B74409  19.658  43.131   6.980
 5840POPC   C4B74410  19.759  43.008   7.398
 5841POPC   NC374411  10.277  34.028   5.277
 5841POPC   PO474412  10.189  33.426   5.466
 5841POPC   GL174413  10.229  33.726   5.762
 5841POPC   GL274414  10.546  33.801   5.885
 5841POPC   C1A74415  10.157  33.774   6.183
 5841POPC   D2A74416  10.373  33.832   6.541
 5841POPC   C3A74417  10.148  33.824   6.890
 5841POPC   C4A74418  10.377  33.857   7.249
 5841POPC   C1B74419  10.787  33.856   6.232
 5841POPC   C2B74420  10.845  33.632   6.620
 5841POPC   C3B74421  10.997  33.743   7.021
 5841POPC   C4B74422  10.909  33.637   7.449
 5842POPC   NC374423  36.097  40.562   5.383
 5842POPC   PO474424  36.230  41.230   5.430
 5842POPC   GL174425  36.203  40.878   5.758
 5842POPC   GL274426  35.874  40.646   5.847
 5842POPC   C1A74427  36.294  40.780   6.161
 5842POPC   D2A74428  36.196  41.063   6.474
 5842POPC   C3A74429  36.339  40.929   6.844
 5842POPC   C4A74430  36.081  41.051   7.184
 5842POPC   C1B74431  35.788  40.729   6.319
 5842POPC   C2B74432  35.837  40.755   6.800
 5842POPC   C3B74433  35.683  40.762   7.242
 5842POPC   C4B74434  35.973  40.823   7.653
 5843POPC   NC374435  27.848  14.093   5.459
 5843POPC   PO474436  27.482  13.535   5.452
 5843POPC   GL174437  27.478  13.816   5.821
 5843POPC   GL274438  27.270  13.561   5.998
 5843POPC   C1A74439  27.635  13.819   6.260
 5843POPC   D2A74440  27.446  13.655   6.666
 5843POPC   C3A74441  27.555  13.540   7.095
 5843POPC   C4A74442  27.475  13.673   7.514
 5843POPC   C1B74443  27.644  13.330   6.215
 5843POPC   C2B74444  27.914  13.454   6.598
 5843POPC   C3B74445  28.037  13.381   7.039
 5843POPC   C4B74446  27.994  13.509   7.495
 5844POPC   NC374447   1.694  18.778   5.103
 5844POPC   PO474448   1.066  18.944   5.283
 5844POPC   GL174449   1.194  19.010   5.737
 5844POPC   GL274450   1.189  19.378   5.774
 5844POPC   C1A74451   1.378  19.110   6.181
 5844POPC   D2A74452   1.339  19.333   6.598
 5844POPC   C3A74453   1.403  19.113   7.002
 5844POPC   C4A74454   1.373  18.931   7.461
 5844POPC   C1B74455   1.031  19.503   6.171
 5844POPC   C2B74456   0.943  19.640   6.598
 5844POPC   C3B74457   1.147  19.599   7.016
 5844POPC   C4B74458   1.049  19.305   7.349
 5845POPC   NC374459  41.568  44.231   5.321
 5845POPC   PO474460  41.793  44.823   5.196
 5845POPC   GL174461  41.603  44.719   5.632
 5845POPC   GL274462  41.335  44.457   5.720
 5845POPC   C1A74463  41.540  44.735   6.105
 5845POPC   D2A74464  41.561  44.531   6.527
 5845POPC   C3A74465  41.729  44.785   6.884
 5845POPC   C4A74466  41.413   0.042   7.119
 5845POPC   C1B74467  41.507  44.188   6.048
 5845POPC   C2B74468  41.711  44.046   6.425
 5845POPC   C3B74469  41.569  44.136   6.866
 5845POPC   C4B74470  41.416  44.470   7.145
 5846POPC   NC374471  16.084  16.710   5.382
 5846POPC   PO474472  15.380  16.791   5.357
 5846POPC   GL174473  15.673  16.745   5.741
 5846POPC   GL274474  15.772  16.396   5.892
 5846POPC   C1A74475  15.867  16.809   6.175
 5846POPC   D2A74476  15.817  16.610   6.586
 5846POPC   C3A74477  16.065  16.734   6.947
 5846POPC   C4A74478  15.780  16.853   7.264
 5846POPC   C1B74479  15.919  16.189   6.306
 5846POPC   C2B74480  15.994  16.171   6.810
 5846POPC   C3B74481  15.944  16.349   7.269
 5846POPC   C4B74482  16.127  16.287   7.704
 5847POPC   NC374483  26.640  32.602   5.257
 5847POPC   PO474484  26.702  32.014   5.469
 5847POPC   GL174485  26.626  32.350   5.780
 5847POPC   GL274486  26.836  32.633   5.737
 5847POPC   C1A74487  26.472  32.344   6.199
 5847POPC   D2A74488  26.388  32.386   6.614
 5847POPC   C3A74489  26.635  32.105   6.859
 5847POPC   C4A74490  26.985  32.129   7.106
 5847POPC   C1B74491  26.974  32.508   6.155
 5847POPC   C2B74492  26.915  32.421   6.592
 5847POPC   C3B74493  26.926  32.628   6.993
 5847POPC   C4B74494  27.197  32.604   7.360
 5848POPC   NC374495  38.168  38.213   5.603
 5848POPC   PO474496  38.712  38.650   5.463
 5848POPC   GL174497  38.446  38.589   5.850
 5848POPC   GL274498  38.084  38.674   5.946
 5848POPC   C1A74499  38.574  38.345   6.233
 5848POPC   D2A74500  38.751  38.141   6.626
 5848POPC   C3A74501  38.835  38.447   6.934
 5848POPC   C4A74502  38.644  38.680   7.250
 5848POPC   C1B74503  38.014  38.723   6.399
 5848POPC   C2B74504  38.228  38.401   6.614
 5848POPC   C3B74505  38.344  38.318   7.000
 5848POPC   C4B74506  38.112  38.507   7.262
 5849POPC   NC374507  38.912  17.690   5.498
 5849POPC   PO474508  39.558  17.654   5.447
 5849POPC   GL174509  39.326  17.554   5.807
 5849POPC   GL274510  39.010  17.326   5.852
 5849POPC   C1A74511  39.287  17.753   6.193
 5849POPC   D2A74512  39.140  17.621   6.597
 5849POPC   C3A74513  39.335  17.697   6.986
 5849POPC   C4A74514  39.039  17.488   7.239
 5849POPC   C1B74515  39.225  17.244   6.245
 5849POPC   C2B74516  39.392  17.163   6.667
 5849POPC   C3B74517  39.246  17.050   7.080
 5849POPC   C4B74518  39.314  17.091   7.520
 5850POPC   NC374519   9.432  39.734   5.498
 5850POPC   PO474520   8.965  40.327   5.370
 5850POPC   GL174521   9.134  40.097   5.736
 5850POPC   GL274522   9.471  40.196   5.813
 5850POPC   C1A74523   9.103  39.952   6.192
 5850POPC   D2A74524   8.743  39.803   6.467
 5850POPC   C3A74525   8.734  39.761   6.910
 5850POPC   C4A74526   8.959  39.982   7.232
 5850POPC   C1B74527   9.407  40.414   6.206
 5850POPC   C2B74528   9.366  40.283   6.639
 5850POPC   C3B74529   9.284  39.863   6.824
 5850POPC   C4B74530   9.390  39.714   7.251
 5851POPC   NC374531  40.305  28.172   5.119
 5851POPC   PO474532  40.880  28.457   5.364
 5851POPC   GL174533  40.686  28.511   5.744
 5851POPC   GL274534  40.584  28.172   5.683
 5851POPC   C1A74535  40.942  28.505   6.116
 5851POPC   D2A74536  40.992  28.389   6.539
 5851POPC   C3A74537  40.747  28.635   6.817
 5851POPC   C4A74538  40.815  28.497   7.233
 5851POPC   C1B74539  40.627  28.085   6.121
 5851POPC   C2B74540  40.456  28.242   6.508
 5851POPC   C3B74541  40.638  28.140   6.907
 5851POPC   C4B74542  40.699  28.030   7.353
 5852POPC   NC374543  41.936  43.596   5.433
 5852POPC   PO474544  41.365  43.818   5.202
 5852POPC   GL174545  41.503  43.807   5.679
 5852POPC   GL274546  41.831  43.771   5.910
 5852POPC   C1A74547  41.356  43.696   6.118
 5852POPC   D2A74548  41.203  43.908   6.489
 5852POPC   C3A74549  41.250  43.735   6.900
 5852POPC   C4A74550  41.293  43.913   7.307
 5852POPC   C1B74551  41.845  43.551   6.290
 5852POPC   C2B74552  41.706  43.619   6.699
 5852POPC   C3B74553  41.755  43.738   7.138
 5852POPC   C4B74554  41.670  43.668   7.568
 5853POPC   NC374555  25.286  41.499   5.393
 5853POPC   PO474556  24.935  41.928   5.134
 5853POPC   GL174557  24.995  41.634   5.754
 5853POPC   GL274558  25.325  41.475   5.882
 5853POPC   C1A74559  25.147  41.794   6.217
 5853POPC   D2A74560  25.207  41.921   6.664
 5853POPC   C3A74561  25.301  41.719   7.087
 5853POPC   C4A74562  25.306  41.742   7.571
 5853POPC   C1B74563  25.003  41.310   6.168
 5853POPC   C2B74564  25.013  41.439   6.603
 5853POPC   C3B74565  25.049  41.283   7.028
 5853POPC   C4B74566  25.101  41.295   7.495
 5854POPC   NC374567   1.506  22.878   5.300
 5854POPC   PO474568   1.033  23.298   5.205
 5854POPC   GL174569   1.191  23.153   5.692
 5854POPC   GL274570   1.323  22.808   5.787
 5854POPC   C1A74571   1.318  23.097   6.194
 5854POPC   D2A74572   1.213  23.004   6.652
 5854POPC   C3A74573   1.222  23.224   7.061
 5854POPC   C4A74574   1.103  23.036   7.467
 5854POPC   C1B74575   1.534  22.594   6.175
 5854POPC   C2B74576   1.479  22.585   6.635
 5854POPC   C3B74577   1.462  22.762   7.070
 5854POPC   C4B74578   1.609  22.982   7.441
 5855POPC   NC374579   6.072  21.661   5.681
 5855POPC   PO474580   5.584  22.047   5.306
 5855POPC   GL174581   5.857  22.128   5.673
 5855POPC   GL274582   5.630  21.940   5.855
 5855POPC   C1A74583   6.002  22.168   6.137
 5855POPC   D2A74584   5.868  22.366   6.572
 5855POPC   C3A74585   6.059  22.278   6.995
 5855POPC   C4A74586   6.259  21.965   7.274
 5855POPC   C1B74587   5.497  22.184   6.239
 5855POPC   C2B74588   5.394  22.173   6.675
 5855POPC   C3B74589   5.562  22.205   7.059
 5855POPC   C4B74590   5.625  22.586   7.258
 5856POPC   NC374591  21.545  19.239   5.410
 5856POPC   PO474592  21.428  18.641   5.502
 5856POPC   GL174593  21.227  18.952   5.775
 5856POPC   GL274594  21.071  19.277   5.654
 5856POPC   C1A74595  21.414  19.050   6.166
 5856POPC   D2A74596  21.664  18.959   6.520
 5856POPC   C3A74597  21.491  19.135   6.871
 5856POPC   C4A74598  21.581  19.310   7.257
 5856POPC   C1B74599  20.963  19.323   6.115
 5856POPC   C2B74600  21.084  19.343   6.583
 5856POPC   C3B74601  21.072  19.338   7.065
 5856POPC   C4B74602  21.065  19.081   7.455
 5857POPC   NC374603  35.686  26.296   5.159
 5857POPC   PO474604  36.141  25.870   5.419
 5857POPC   GL174605  36.335  26.117   5.763
 5857POPC   GL274606  36.074  26.184   6.002
 5857POPC   C1A74607  36.505  26.085   6.201
 5857POPC   D2A74608  36.222  26.156   6.522
 5857POPC   C3A74609  36.367  26.189   6.915
 5857POPC   C4A74610  36.250  26.175   7.321
 5857POPC   C1B74611  35.790  25.985   6.286
 5857POPC   C2B74612  35.698  26.130   6.699
 5857POPC   C3B74613  35.790  26.275   7.097
 5857POPC   C4B74614  35.788  26.119   7.512
 5858POPC   NC374615  24.945  32.953   5.359
 5858POPC   PO474616  25.595  33.030   5.498
 5858POPC   GL174617  25.270  33.226   5.721
 5858POPC   GL274618  25.395  33.400   5.983
 5858POPC   C1A74619  25.010  33.066   6.065
 5858POPC   D2A74620  24.966  32.864   6.471
 5858POPC   C3A74621  25.067  32.955   6.909
 5858POPC   C4A74622  25.289  32.896   7.323
 5858POPC   C1B74623  25.509  33.002   6.170
 5858POPC   C2B74624  25.488  32.832   6.570
 5858POPC   C3B74625  25.570  33.041   6.938
 5858POPC   C4B74626  25.573  33.328   7.283
 5859POPC   NC374627  15.409   2.324   5.251
 5859POPC   PO474628  15.128   1.756   5.413
 5859POPC   GL174629  15.113   1.898   5.823
 5859POPC   GL274630  15.298   2.222   5.779
 5859POPC   C1A74631  15.433   1.873   6.151
 5859POPC   D2A74632  15.640   1.733   6.510
 5859POPC   C3A74633  15.358   1.845   6.809
 5859POPC   C4A74634  15.439   1.872   7.208
 5859POPC   C1B74635  15.100   2.310   6.181
 5859POPC   C2B74636  15.015   2.251   6.632
 5859POPC   C3B74637  15.201   2.304   7.047
 5859POPC   C4B74638  14.977   2.248   7.403
 5860POPC   NC374639  18.756  22.533   5.424
 5860POPC   PO474640  18.709  21.941   5.368
 5860POPC   GL174641  19.041  22.121   5.647
 5860POPC   GL274642  18.918  22.374   5.874
 5860POPC   C1A74643  19.195  22.007   6.108
 5860POPC   D2A74644  19.168  21.747   6.515
 5860POPC   C3A74645  19.217  21.955   6.947
 5860POPC   C4A74646  18.971  22.031   7.324
 5860POPC   C1B74647  19.088  22.503   6.243
 5860POPC   C2B74648  19.001  22.332   6.637
 5860POPC   C3B74649  18.910  22.469   7.048
 5860POPC   C4B74650  19.291  22.427   7.263
 5861POPC   NC374651  26.261  32.137   5.507
 5861POPC   PO474652  25.702  32.093   5.646
 5861POPC   GL174653  25.953  32.142   5.962
 5861POPC   GL274654  26.074  32.454   5.910
 5861POPC   C1A74655  26.010  32.087   6.393
 5861POPC   D2A74656  26.149  31.930   6.739
 5861POPC   C3A74657  25.897  31.799   7.062
 5861POPC   C4A74658  25.920  31.954   7.478
 5861POPC   C1B74659  25.758  32.502   6.269
 5861POPC   C2B74660  25.911  32.551   6.700
 5861POPC   C3B74661  25.979  32.319   7.082
 5861POPC   C4B74662  25.717  32.435   7.404
 5862POPC   NC374663  23.581  25.438   5.366
 5862POPC   PO474664  24.111  25.163   5.422
 5862POPC   GL174665  23.853  25.286   5.773
 5862POPC   GL274666  23.486  25.183   5.793
 5862POPC   C1A74667  23.816  25.404   6.183
 5862POPC   D2A74668  23.782  25.157   6.525
 5862POPC   C3A74669  23.832  25.330   6.908
 5862POPC   C4A74670  23.884  25.010   7.232
 5862POPC   C1B74671  23.359  25.152   6.213
 5862POPC   C2B74672  23.318  25.380   6.595
 5862POPC   C3B74673  23.340  25.578   6.937
 5862POPC   C4B74674  23.457  25.314   7.247
 5863POPC   NC374675  24.934  42.387   5.097
 5863POPC   PO474676  25.332  41.966   5.540
 5863POPC   GL174677  25.202  42.215   5.924
 5863POPC   GL274678  25.009  42.536   5.824
 5863POPC   C1A74679  25.077  42.373   6.332
 5863POPC   D2A74680  25.142  42.551   6.751
 5863POPC   C3A74681  25.198  42.231   7.079
 5863POPC   C4A74682  25.003  42.129   7.491
 5863POPC   C1B74683  25.428  42.650   6.048
 5863POPC   C2B74684  25.611  42.639   6.468
 5863POPC   C3B74685  25.614  42.713   6.917
 5863POPC   C4B74686  25.475  42.581   7.311
 5864POPC   NC374687  22.240  36.536   5.332
 5864POPC   PO474688  21.680  36.668   5.570
 5864POPC   GL174689  22.080  36.641   5.837
 5864POPC   GL274690  22.368  36.890   5.854
 5864POPC   C1A74691  22.178  36.664   6.289
 5864POPC   D2A74692  22.463  36.609   6.640
 5864POPC   C3A74693  22.314  36.723   7.093
 5864POPC   C4A74694  21.964  36.771   7.426
 5864POPC   C1B74695  22.570  37.010   6.287
 5864POPC   C2B74696  22.750  37.179   6.697
 5864POPC   C3B74697  22.588  37.296   7.118
 5864POPC   C4B74698  22.310  37.144   7.476
 5865POPC   NC374699   8.186  13.803   5.281
 5865POPC   PO474700   8.089  13.250   5.637
 5865POPC   GL174701   8.367  13.471   5.887
 5865POPC   GL274702   8.548  13.712   5.668
 5865POPC   C1A74703   8.219  13.599   6.293
 5865POPC   D2A74704   8.320  13.585   6.709
 5865POPC   C3A74705   7.926  13.452   6.873
 5865POPC   C4A74706   7.913  13.594   7.267
 5865POPC   C1B74707   8.496  13.936   6.048
 5865POPC   C2B74708   8.488  14.033   6.502
 5865POPC   C3B74709   8.361  14.190   6.911
 5865POPC   C4B74710   8.162  14.037   7.289
 5866POPC   NC374711  44.202  31.747   5.545
 5866POPC   PO474712  43.728  31.254   5.615
 5866POPC   GL174713  43.541  31.236   6.015
 5866POPC   GL274714  43.882  31.384   6.108
 5866POPC   C1A74715  43.541  31.261   6.469
 5866POPC   D2A74716  43.833  31.564   6.627
 5866POPC   C3A74717  43.748  31.574   7.037
 5866POPC   C4A74718  43.695  31.162   7.176
 5866POPC   C1B74719  44.234  31.638   6.310
 5866POPC   C2B74720  44.272  31.798   6.754
 5866POPC   C3B74721  44.258  31.700   7.210
 5866POPC   C4B74722  44.325  31.810   7.659
 5867POPC   NC374723  42.637  31.182   5.365
 5867POPC   PO474724  42.612  30.497   5.139
 5867POPC   GL174725  42.486  30.681   5.518
 5867POPC   GL274726  42.698  30.541   5.748
 5867POPC   C1A74727  42.237  30.666   5.931
 5867POPC   D2A74728  42.255  30.746   6.380
 5867POPC   C3A74729  42.177  30.712   6.840
 5867POPC   C4A74730  42.265  30.887   7.262
 5867POPC   C1B74731  42.745  30.773   6.154
 5867POPC   C2B74732  42.691  30.631   6.598
 5867POPC   C3B74733  42.675  30.836   6.984
 5867POPC   C4B74734  42.725  30.724   7.447
 5868POPC   NC374735  44.502  41.211   5.112
 5868POPC   PO474736  44.342  40.743   5.599
 5868POPC   GL174737  44.536  40.961   5.888
 5868POPC   GL274738  44.812  40.773   5.912
 5868POPC   C1A74739  44.528  40.824   6.309
 5868POPC   D2A74740  44.583  40.977   6.669
 5868POPC   C3A74741  44.629  40.669   6.896
 5868POPC   C4A74742  44.697  40.797   7.255
 5868POPC   C1B74743   0.011  41.036   6.195
 5868POPC   C2B74744   0.081  41.105   6.613
 5868POPC   C3B74745  44.907  41.205   7.025
 5868POPC   C4B74746  44.965  41.128   7.494
 5869POPC   NC374747   5.379   5.177   5.414
 5869POPC   PO474748   4.746   5.418   5.453
 5869POPC   GL174749   4.999   5.292   5.832
 5869POPC   GL274750   5.363   5.336   5.905
 5869POPC   C1A74751   5.007   4.999   6.207
 5869POPC   D2A74752   5.239   4.820   6.584
 5869POPC   C3A74753   5.092   4.995   6.965
 5869POPC   C4A74754   4.833   5.017   7.337
 5869POPC   C1B74755   5.411   5.275   6.377
 5869POPC   C2B74756   5.531   5.247   6.820
 5869POPC   C3B74757   5.595   4.922   7.100
 5869POPC   C4B74758   5.298   4.827   7.417
 5870POPC   NC374759   9.213  38.149   5.347
 5870POPC   PO474760   8.673  38.362   5.629
 5870POPC   GL174761   8.849  38.655   5.968
 5870POPC   GL274762   9.196  38.734   5.943
 5870POPC   C1A74763   8.769  38.972   6.297
 5870POPC   D2A74764   8.512  38.829   6.641
 5870POPC   C3A74765   8.751  38.625   6.976
 5870POPC   C4A74766   8.666  38.248   7.183
 5870POPC   C1B74767   9.103  38.600   6.406
 5870POPC   C2B74768   9.224  38.470   6.828
 5870POPC   C3B74769   9.178  38.348   7.264
 5870POPC   C4B74770   9.320  38.269   7.703
 5871POPC   NC374771  41.043  33.996   5.478
 5871POPC   PO474772  41.734  33.876   5.297
 5871POPC   GL174773  41.692  33.797   5.710
 5871POPC   GL274774  41.962  33.557   5.710
 5871POPC   C1A74775  41.494  33.831   6.135
 5871POPC   D2A74776  41.419  33.631   6.545
 5871POPC   C3A74777  41.231  33.875   6.868
 5871POPC   C4A74778  41.382  33.976   7.240
 5871POPC   C1B74779  42.020  33.380   6.092
 5871POPC   C2B74780  41.835  33.318   6.467
 5871POPC   C3B74781  41.836  33.490   6.883
 5871POPC   C4B74782  41.785  33.671   7.284
 5872POPC   NC374783  38.816  16.892   5.398
 5872POPC   PO474784  38.103  16.790   5.386
 5872POPC   GL174785  38.375  16.861   5.736
 5872POPC   GL274786  38.656  16.589   5.765
 5872POPC   C1A74787  38.262  17.037   6.162
 5872POPC   D2A74788  38.429  16.892   6.545
 5872POPC   C3A74789  38.373  17.074   6.940
 5872POPC   C4A74790  38.228  16.902   7.314
 5872POPC   C1B74791  38.753  16.885   6.099
 5872POPC   C2B74792  38.930  16.939   6.531
 5872POPC   C3B74793  38.833  16.788   6.926
 5872POPC   C4B74794  38.815  16.884   7.357
 5873POPC   NC374795   4.068  42.964   5.493
 5873POPC   PO474796   3.936  42.276   5.430
 5873POPC   GL174797   4.280  42.370   5.725
 5873POPC   GL274798   4.662  42.322   5.695
 5873POPC   C1A74799   4.308  42.288   6.159
 5873POPC   D2A74800   4.161  42.529   6.492
 5873POPC   C3A74801   4.270  42.321   6.833
 5873POPC   C4A74802   4.324  42.187   7.239
 5873POPC   C1B74803   4.825  42.210   6.129
 5873POPC   C2B74804   4.734  42.365   6.551
 5873POPC   C3B74805   4.745  42.469   6.989
 5873POPC   C4B74806   4.808  42.251   7.330
 5874POPC   NC374807  39.060  32.827   5.425
 5874POPC   PO474808  39.507  33.298   5.385
 5874POPC   GL174809  39.296  33.129   5.767
 5874POPC   GL274810  39.352  32.731   5.827
 5874POPC   C1A74811  39.065  33.066   6.139
 5874POPC   D2A74812  39.024  32.930   6.550
 5874POPC   C3A74813  39.048  33.218   6.887
 5874POPC   C4A74814  39.149  32.998   7.235
 5874POPC   C1B74815  39.493  32.518   6.204
 5874POPC   C2B74816  39.641  32.653   6.626
 5874POPC   C3B74817  39.523  32.708   7.067
 5874POPC   C4B74818  39.537  32.797   7.536
 5875POPC   NC374819  33.068  27.721   5.284
 5875POPC   PO474820  32.705  27.334   5.406
 5875POPC   GL174821  32.867  27.634   5.787
 5875POPC   GL274822  33.216  27.749   5.776
 5875POPC   C1A74823  32.899  27.930   6.203
 5875POPC   D2A74824  33.103  27.964   6.669
 5875POPC   C3A74825  32.905  27.812   7.110
 5875POPC   C4A74826  32.677  27.651   7.515
 5875POPC   C1B74827  33.338  27.683   6.228
 5875POPC   C2B74828  33.273  27.476   6.647
 5875POPC   C3B74829  33.363  27.525   7.107
 5875POPC   C4B74830  33.529  27.309   7.509
 5876POPC   NC374831  33.559  42.332   5.414
 5876POPC   PO474832  34.235  42.128   5.413
 5876POPC   GL174833  34.021  42.297   5.807
 5876POPC   GL274834  33.680  42.327   5.899
 5876POPC   C1A74835  34.021  42.317   6.280
 5876POPC   D2A74836  33.741  42.349   6.662
 5876POPC   C3A74837  33.878  42.166   7.039
 5876POPC   C4A74838  34.004  41.882   7.352
 5876POPC   C1B74839  33.474  42.194   6.256
 5876POPC   C2B74840  33.350  41.993   6.632
 5876POPC   C3B74841  33.388  42.017   7.066
 5876POPC   C4B74842  33.549  42.052   7.476
 5877POPC   NC374843  14.730  23.072   5.465
 5877POPC   PO474844  14.113  23.136   5.148
 5877POPC   GL174845  14.171  23.043   5.612
 5877POPC   GL274846  14.370  23.305   5.751
 5877POPC   C1A74847  14.105  22.960   6.059
 5877POPC   D2A74848  14.030  22.937   6.538
 5877POPC   C3A74849  14.163  22.677   6.906
 5877POPC   C4A74850  14.467  22.760   7.257
 5877POPC   C1B74851  14.585  23.175   6.148
 5877POPC   C2B74852  14.719  23.287   6.583
 5877POPC   C3B74853  14.726  23.306   7.053
 5877POPC   C4B74854  14.884  23.103   7.456
 5878POPC   NC374855  18.094   4.591   5.598
 5878POPC   PO474856  18.298   3.952   5.288
 5878POPC   GL174857  18.440   4.082   5.732
 5878POPC   GL274858  18.198   4.248   5.953
 5878POPC   C1A74859  18.572   4.029   6.185
 5878POPC   D2A74860  18.515   4.299   6.576
 5878POPC   C3A74861  18.439   4.107   6.969
 5878POPC   C4A74862  18.277   4.202   7.384
 5878POPC   C1B74863  18.147   4.532   6.293
 5878POPC   C2B74864  18.053   4.628   6.679
 5878POPC   C3B74865  18.036   4.471   7.045
 5878POPC   C4B74866  18.062   4.664   7.477
 5879POPC   NC374867  44.288  42.081   5.381
 5879POPC   PO474868  44.676  42.585   5.554
 5879POPC   GL174869  44.687  42.274   5.857
 5879POPC   GL274870  44.736  42.539   6.077
 5879POPC   C1A74871  44.810  42.074   6.268
 5879POPC   D2A74872  44.537  42.142   6.610
 5879POPC   C3A74873  44.636  42.290   6.995
 5879POPC   C4A74874  44.583  41.963   7.316
 5879POPC   C1B74875  44.773  42.572   6.504
 5879POPC   C2B74876   0.054  42.737   6.801
 5879POPC   C3B74877  44.986  42.710   7.240
 5879POPC   C4B74878  44.745  42.435   7.481
 5880POPC   NC374879  17.020   1.552   5.408
 5880POPC   PO474880  17.445   2.059   5.140
 5880POPC   GL174881  17.359   2.092   5.693
 5880POPC   GL274882  17.240   1.811   5.916
 5880POPC   C1A74883  17.411   2.224   6.174
 5880POPC   D2A74884  17.616   2.436   6.578
 5880POPC   C3A74885  17.706   2.223   7.003
 5880POPC   C4A74886  17.455   2.115   7.353
 5880POPC   C1B74887  17.564   1.724   6.196
 5880POPC   C2B74888  17.587   1.912   6.589
 5880POPC   C3B74889  17.332   1.861   6.926
 5880POPC   C4B74890  17.328   1.585   7.260
 5881POPC   NC374891  17.938  43.662   5.443
 5881POPC   PO474892  18.420  44.156   5.306
 5881POPC   GL174893  18.429  43.953   5.736
 5881POPC   GL274894  18.176  43.702   5.889
 5881POPC   C1A74895  18.287  44.156   6.145
 5881POPC   D2A74896  18.035  44.160   6.531
 5881POPC   C3A74897  18.238  44.239   6.932
 5881POPC   C4A74898  18.117  44.114   7.298
 5881POPC   C1B74899  18.177  43.692   6.336
 5881POPC   C2B74900  18.422  43.819   6.685
 5881POPC   C3B74901  18.407  43.734   7.124
 5881POPC   C4B74902  18.053  43.595   7.417
 5882POPC   NC374903  25.077   8.734   5.436
 5882POPC   PO474904  25.477   9.269   5.329
 5882POPC   GL174905  25.445   9.021   5.718
 5882POPC   GL274906  25.098   8.997   5.884
 5882POPC   C1A74907  25.545   8.914   6.138
 5882POPC   D2A74908  25.285   8.960   6.496
 5882POPC   C3A74909  25.387   8.871   6.904
 5882POPC   C4A74910  25.074   8.841   7.248
 5882POPC   C1B74911  25.044   9.337   6.195
 5882POPC   C2B74912  24.965   9.326   6.638
 5882POPC   C3B74913  25.198   9.321   7.028
 5882POPC   C4B74914  25.100   9.337   7.470
 5883POPC   NC374915  12.330  22.404   5.527
 5883POPC   PO474916  12.293  21.747   5.451
 5883POPC   GL174917  12.077  21.978   5.798
 5883POPC   GL274918  11.922  22.337   5.821
 5883POPC   C1A74919  12.204  22.144   6.208
 5883POPC   D2A74920  12.307  22.316   6.614
 5883POPC   C3A74921  12.108  22.073   6.937
 5883POPC   C4A74922  12.333  21.848   7.235
 5883POPC   C1B74923  11.767  22.422   6.244
 5883POPC   C2B74924  11.850  22.538   6.675
 5883POPC   C3B74925  12.050  22.550   7.074
 5883POPC   C4B74926  11.850  22.516   7.475
 5884POPC   NC374927  17.060  26.560   5.559
 5884POPC   PO474928  16.329  26.721   5.464
 5884POPC   GL174929  16.615  26.650   5.858
 5884POPC   GL274930  16.792  26.944   5.920
 5884POPC   C1A74931  16.768  26.632   6.326
 5884POPC   D2A74932  16.678  26.733   6.785
 5884POPC   C3A74933  16.977  26.723   7.152
 5884POPC   C4A74934  16.888  26.567   7.593
 5884POPC   C1B74935  16.549  27.105   6.288
 5884POPC   C2B74936  16.506  27.203   6.723
 5884POPC   C3B74937  16.640  27.166   7.140
 5884POPC   C4B74938  16.392  27.114   7.524
 5885POPC   NC374939  43.307  10.310   5.324
 5885POPC   PO474940  42.824  10.715   5.394
 5885POPC   GL174941  43.092  10.493   5.759
 5885POPC   GL274942  43.490  10.565   5.746
 5885POPC   C1A74943  43.056  10.421   6.231
 5885POPC   D2A74944  42.988  10.078   6.552
 5885POPC   C3A74945  42.923  10.314   6.933
 5885POPC   C4A74946  42.753  10.367   7.337
 5885POPC   C1B74947  43.566  10.553   6.185
 5885POPC   C2B74948  43.495  10.256   6.484
 5885POPC   C3B74949  43.413  10.146   6.862
 5885POPC   C4B74950  43.367  10.339   7.244
 5886POPC   NC374951  17.710  26.163   5.476
 5886POPC   PO474952  17.353  25.668   5.252
 5886POPC   GL174953  17.446  25.665   5.720
 5886POPC   GL274954  17.796  25.736   5.875
 5886POPC   C1A74955  17.378  25.766   6.172
 5886POPC   D2A74956  17.628  25.806   6.570
 5886POPC   C3A74957  17.328  25.979   6.870
 5886POPC   C4A74958  17.238  25.808   7.251
 5886POPC   C1B74959  17.810  26.107   6.185
 5886POPC   C2B74960  17.620  26.333   6.570
 5886POPC   C3B74961  17.740  26.266   7.002
 5886POPC   C4B74962  17.761  25.839   7.118
 5887POPC   NC374963  28.681   7.484   5.319
 5887POPC   PO474964  28.280   6.925   5.439
 5887POPC   GL174965  28.519   7.213   5.710
 5887POPC   GL274966  28.376   7.596   5.716
 5887POPC   C1A74967  28.510   7.284   6.130
 5887POPC   D2A74968  28.504   7.125   6.524
 5887POPC   C3A74969  28.497   7.300   6.922
 5887POPC   C4A74970  28.433   7.064   7.296
 5887POPC   C1B74971  28.569   7.794   6.096
 5887POPC   C2B74972  28.616   7.657   6.499
 5887POPC   C3B74973  28.606   7.787   6.915
 5887POPC   C4B74974  28.330   7.674   7.257
 5888POPC   NC374975  36.310  31.027   5.498
 5888POPC   PO474976  35.702  30.563   5.592
 5888POPC   GL174977  36.012  30.764   5.804
 5888POPC   GL274978  36.214  30.524   5.982
 5888POPC   C1A74979  36.047  30.959   6.200
 5888POPC   D2A74980  35.896  30.768   6.591
 5888POPC   C3A74981  36.109  30.878   6.971
 5888POPC   C4A74982  35.813  30.886   7.309
 5888POPC   C1B74983  36.316  30.541   6.397
 5888POPC   C2B74984  36.507  30.285   6.689
 5888POPC   C3B74985  36.518  30.491   7.080
 5888POPC   C4B74986  36.138  30.476   7.313
 5889POPC   NC374987  32.995  31.716   5.244
 5889POPC   PO474988  33.158  31.168   5.637
 5889POPC   GL174989  32.849  31.359   5.882
 5889POPC   GL274990  32.915  31.694   5.778
 5889POPC   C1A74991  32.693  31.649   6.228
 5889POPC   D2A74992  32.869  31.749   6.650
 5889POPC   C3A74993  32.769  31.452   7.019
 5889POPC   C4A74994  32.743  31.446   7.483
 5889POPC   C1B74995  33.201  31.745   6.189
 5889POPC   C2B74996  33.410  31.673   6.619
 5889POPC   C3B74997  33.288  31.567   7.082
 5889POPC   C4B74998  33.230  31.269   7.449
 5890POPC   NC374999  33.396  34.187   5.585
 5890POPC   PO475000  32.812  33.969   5.334
 5890POPC   GL175001  32.837  33.848   5.760
 5890POPC   GL275002  33.167  33.809   5.837
 5890POPC   C1A75003  32.909  33.973   6.209
 5890POPC   D2A75004  33.083  34.010   6.626
 5890POPC   C3A75005  33.009  33.730   6.998
 5890POPC   C4A75006  32.773  33.787   7.396
 5890POPC   C1B75007  33.411  33.900   6.221
 5890POPC   C2B75008  33.564  34.228   6.523
 5890POPC   C3B75009  33.383  34.262   6.940
 5890POPC   C4B75010  33.380  33.973   7.279
 5891POPC   NC375011  30.691  23.282   5.469
 5891POPC   PO475012  31.268  23.497   5.517
 5891POPC   GL175013  30.950  23.535   5.880
 5891POPC   GL275014  30.580  23.553   5.878
 5891POPC   C1A75015  30.792  23.798   6.262
 5891POPC   D2A75016  30.556  23.787   6.657
 5891POPC   C3A75017  30.734  23.956   7.064
 5891POPC   C4A75018  31.006  23.898   7.464
 5891POPC   C1B75019  30.368  23.458   6.268
 5891POPC   C2B75020  30.364  23.290   6.704
 5891POPC   C3B75021  30.622  23.429   7.041
 5891POPC   C4B75022  30.532  23.639   7.417
 5892POPC   NC375023  13.036  25.510   5.519
 5892POPC   PO475024  12.551  25.126   5.252
 5892POPC   GL175025  12.625  25.267   5.713
 5892POPC   GL275026  12.518  25.630   5.731
 5892POPC   C1A75027  12.792  25.031   6.131
 5892POPC   D2A75028  13.124  25.009   6.511
 5892POPC   C3A75029  12.968  25.060   6.957
 5892POPC   C4A75030  12.595  24.970   7.177
 5892POPC   C1B75031  12.770  25.545   6.115
 5892POPC   C2B75032  12.742  25.374   6.506
 5892POPC   C3B75033  13.003  25.549   6.776
 5892POPC   C4B75034  12.806  25.548   7.154
 5893POPC   NC375035  42.974  27.478   5.314
 5893POPC   PO475036  43.613  27.497   5.616
 5893POPC   GL175037  43.228  27.679   5.847
 5893POPC   GL275038  42.890  27.528   5.842
 5893POPC   C1A75039  43.162  27.735   6.274
 5893POPC   D2A75040  43.524  27.609   6.547
 5893POPC   C3A75041  43.421  27.661   6.976
 5893POPC   C4A75042  43.174  27.385   7.170
 5893POPC   C1B75043  42.638  27.705   6.189
 5893POPC   C2B75044  42.651  27.786   6.634
 5893POPC   C3B75045  42.927  27.794   7.000
 5893POPC   C4B75046  42.952  27.747   7.466
 5894POPC   NC375047  15.453  17.241   5.487
 5894POPC   PO475048  14.963  17.701   5.299
 5894POPC   GL175049  15.078  17.574   5.727
 5894POPC   GL275050  15.034  17.291   5.981
 5894POPC   C1A75051  15.368  17.663   6.059
 5894POPC   D2A75052  15.446  17.558   6.486
 5894POPC   C3A75053  15.199  17.724   6.838
 5894POPC   C4A75054  15.040  17.676   7.245
 5894POPC   C1B75055  15.402  17.145   6.146
 5894POPC   C2B75056  15.488  17.021   6.542
 5894POPC   C3B75057  15.301  17.223   6.854
 5894POPC   C4B75058  15.383  17.280   7.232
 5895POPC   NC375059  31.924   3.958   5.563
 5895POPC   PO475060  32.447   3.547   5.344
 5895POPC   GL175061  32.292   3.534   5.758
 5895POPC   GL275062  32.331   3.882   5.885
 5895POPC   C1A75063  32.163   3.347   6.149
 5895POPC   D2A75064  32.322   3.430   6.573
 5895POPC   C3A75065  32.158   3.320   6.984
 5895POPC   C4A75066  32.229   3.383   7.434
 5895POPC   C1B75067  32.025   3.826   6.245
 5895POPC   C2B75068  31.931   3.758   6.713
 5895POPC   C3B75069  32.245   3.825   7.052
 5895POPC   C4B75070  32.626   3.821   7.310
 5896POPC   NC375071   4.131  15.413   5.390
 5896POPC   PO475072   4.584  14.955   5.496
 5896POPC   GL175073   4.360  15.174   5.780
 5896POPC   GL275074   4.636  15.293   5.934
 5896POPC   C1A75075   4.177  15.156   6.180
 5896POPC   D2A75076   4.382  14.983   6.552
 5896POPC   C3A75077   4.211  15.061   6.956
 5896POPC   C4A75078   4.362  14.881   7.332
 5896POPC   C1B75079   4.577  15.411   6.319
 5896POPC   C2B75080   4.299  15.499   6.660
 5896POPC   C3B75081   4.438  15.520   7.086
 5896POPC   C4B75082   4.737  15.211   7.167
 5897POPC   NC375083  40.262   9.161   5.127
 5897POPC   PO475084  39.985   8.763   5.593
 5897POPC   GL175085  39.935   8.941   5.967
 5897POPC   GL275086  40.250   8.763   6.005
 5897POPC   C1A75087  40.139   9.096   6.363
 5897POPC   D2A75088  39.982   9.095   6.758
 5897POPC   C3A75089  40.129   9.252   7.128
 5897POPC   C4A75090  39.937   9.177   7.529
 5897POPC   C1B75091  40.008   8.593   6.333
 5897POPC   C2B75092  40.185   8.622   6.711
 5897POPC   C3B75093  40.164   8.753   7.123
 5897POPC   C4B75094  40.192   8.756   7.520
 5898POPC   NC375095   0.942  30.779   5.366
 5898POPC   PO475096   0.214  30.700   5.403
 5898POPC   GL175097   0.272  30.568   5.826
 5898POPC   GL275098   0.419  30.871   5.899
 5898POPC   C1A75099   0.283  30.566   6.290
 5898POPC   D2A75100   0.556  30.589   6.665
 5898POPC   C3A75101   0.366  30.434   7.023
 5898POPC   C4A75102  44.952  30.463   7.058
 5898POPC   C1B75103   0.459  31.051   6.317
 5898POPC   C2B75104   0.565  31.078   6.748
 5898POPC   C3B75105   0.434  30.955   7.149
 5898POPC   C4B75106   0.436  31.120   7.588
 5899POPC   NC375107   5.378  43.583   5.029
 5899POPC   PO475108   4.906  43.913   5.287
 5899POPC   GL175109   4.857  43.853   5.739
 5899POPC   GL275110   4.628  43.574   5.799
 5899POPC   C1A75111   4.975  43.754   6.183
 5899POPC   D2A75112   5.162  43.935   6.544
 5899POPC   C3A75113   5.035  43.828   6.916
 5899POPC   C4A75114   5.059  44.004   7.309
 5899POPC   C1B75115   4.507  43.511   6.244
 5899POPC   C2B75116   4.685  43.405   6.666
 5899POPC   C3B75117   4.663  43.545   7.112
 5899POPC   C4B75118   4.862  43.581   7.559
 5900POPC   NC375119  11.602  24.020   5.309
 5900POPC   PO475120  10.944  23.808   5.356
 5900POPC   GL175121  11.137  23.842   5.761
 5900POPC   GL275122  11.520  23.796   5.767
 5900POPC   C1A75123  10.994  23.729   6.191
 5900POPC   D2A75124  10.863  23.525   6.578
 5900POPC   C3A75125  11.133  23.655   6.928
 5900POPC   C4A75126  11.082  23.544   7.357
 5900POPC   C1B75127  11.485  23.654   6.192
 5900POPC   C2B75128  11.424  23.943   6.535
 5900POPC   C3B75129  11.549  23.993   6.947
 5900POPC   C4B75130  11.540  23.750   7.274
 5901POPC   NC375131   7.021   9.185   5.319
 5901POPC   PO475132   7.562   8.801   5.356
 5901POPC   GL175133   7.277   8.809   5.698
 5901POPC   GL275134   7.345   9.143   5.728
 5901POPC   C1A75135   7.274   8.565   6.100
 5901POPC   D2A75136   7.525   8.445   6.483
 5901POPC   C3A75137   7.579   8.741   6.822
 5901POPC   C4A75138   7.461   8.915   7.214
 5901POPC   C1B75139   7.571   9.229   6.084
 5901POPC   C2B75140   7.523   9.134   6.506
 5901POPC   C3B75141   7.237   9.215   6.844
 5901POPC   C4B75142   7.336   9.397   7.264
 5902POPC   NC375143  11.306   7.082   5.330
 5902POPC   PO475144  11.277   6.461   5.406
 5902POPC   GL175145  11.233   6.548   5.827
 5902POPC   GL275146  11.159   6.868   5.793
 5902POPC   C1A75147  11.317   6.395   6.236
 5902POPC   D2A75148  11.314   6.664   6.569
 5902POPC   C3A75149  11.313   6.467   6.941
 5902POPC   C4A75150  11.135   6.495   7.307
 5902POPC   C1B75151  11.486   6.884   6.115
 5902POPC   C2B75152  11.754   6.933   6.450
 5902POPC   C3B75153  11.723   6.827   6.884
 5902POPC   C4B75154  11.641   6.694   7.309
 5903POPC   NC375155  40.916  29.573   5.501
 5903POPC   PO475156  40.567  30.050   5.380
 5903POPC   GL175157  40.598  29.897   5.803
 5903POPC   GL275158  40.941  29.894   5.913
 5903POPC   C1A75159  40.570  29.905   6.272
 5903POPC   D2A75160  40.799  30.215   6.551
 5903POPC   C3A75161  40.731  30.170   6.977
 5903POPC   C4A75162  40.546  29.958   7.296
 5903POPC   C1B75163  41.089  29.840   6.349
 5903POPC   C2B75164  40.952  29.739   6.782
 5903POPC   C3B75165  41.071  29.835   7.214
 5903POPC   C4B75166  40.976  29.652   7.644
 5904POPC   NC375167  38.230  36.735   5.410
 5904POPC   PO475168  38.787  37.104   5.445
 5904POPC   GL175169  38.661  36.804   5.791
 5904POPC   GL275170  38.310  36.832   5.901
 5904POPC   C1A75171  38.673  36.624   6.243
 5904POPC   D2A75172  38.488  36.723   6.682
 5904POPC   C3A75173  38.723  36.847   7.043
 5904POPC   C4A75174  38.688  36.720   7.502
 5904POPC   C1B75175  38.174  36.802   6.297
 5904POPC   C2B75176  37.979  36.622   6.657
 5904POPC   C3B75177  38.130  36.738   7.069
 5904POPC   C4B75178  38.348  37.091   7.297
 5905POPC   NC375179  30.916  11.857   5.418
 5905POPC   PO475180  30.522  11.431   5.663
 5905POPC   GL175181  30.504  11.898   5.842
 5905POPC   GL275182  30.830  12.092   5.890
 5905POPC   C1A75183  30.511  12.134   6.273
 5905POPC   D2A75184  30.786  11.980   6.607
 5905POPC   C3A75185  30.685  11.923   7.015
 5905POPC   C4A75186  30.560  12.147   7.374
 5905POPC   C1B75187  31.074  12.244   6.275
 5905POPC   C2B75188  31.192  12.250   6.740
 5905POPC   C3B75189  31.066  12.313   7.187
 5905POPC   C4B75190  31.149  12.543   7.587
 5906POPC   NC375191   2.054  37.302   5.347
 5906POPC   PO475192   1.740  36.680   5.442
 5906POPC   GL175193   1.945  36.937   5.778
 5906POPC   GL275194   1.704  37.206   5.807
 5906POPC   C1A75195   2.082  37.012   6.245
 5906POPC   D2A75196   2.164  36.743   6.643
 5906POPC   C3A75197   1.940  36.752   7.034
 5906POPC   C4A75198   1.628  36.513   7.273
 5906POPC   C1B75199   1.617  37.360   6.236
 5906POPC   C2B75200   1.796  37.325   6.663
 5906POPC   C3B75201   1.862  37.248   7.099
 5906POPC   C4B75202   2.215  37.211   7.336
 5907POPC   NC375203  32.892  10.049   5.438
 5907POPC   PO475204  33.254   9.519   5.124
 5907POPC   GL175205  32.952   9.595   5.601
 5907POPC   GL275206  33.196   9.890   5.789
 5907POPC   C1A75207  32.856   9.669   6.087
 5907POPC   D2A75208  32.786   9.809   6.540
 5907POPC   C3A75209  32.883   9.535   6.899
 5907POPC   C4A75210  32.930   9.671   7.303
 5907POPC   C1B75211  33.168  10.123   6.177
 5907POPC   C2B75212  33.307   9.999   6.573
 5907POPC   C3B75213  33.138  10.004   6.962
 5907POPC   C4B75214  33.327   9.974   7.346
 5908POPC   NC375215  14.342  27.480   5.227
 5908POPC   PO475216  14.174  28.020   5.576
 5908POPC   GL175217  14.282  27.581   5.757
 5908POPC   GL275218  14.571  27.361   5.834
 5908POPC   C1A75219  14.255  27.621   6.195
 5908POPC   D2A75220  14.265  27.957   6.505
 5908POPC   C3A75221  14.481  27.904   6.892
 5908POPC   C4A75222  14.234  27.618   7.144
 5908POPC   C1B75223  14.528  27.209   6.215
 5908POPC   C2B75224  14.592  27.489   6.559
 5908POPC   C3B75225  14.692  27.425   6.964
 5908POPC   C4B75226  14.825  27.619   7.330
 5909POPC   NC375227  42.955  26.833   5.488
 5909POPC   PO475228  43.355  27.259   5.188
 5909POPC   GL175229  43.232  27.192   5.667
 5909POPC   GL275230  43.353  26.884   5.817
 5909POPC   C1A75231  43.230  27.246   6.134
 5909POPC   D2A75232  43.342  27.010   6.509
 5909POPC   C3A75233  43.069  26.976   6.873
 5909POPC   C4A75234  43.146  26.875   7.284
 5909POPC   C1B75235  43.226  26.611   6.173
 5909POPC   C2B75236  42.993  26.589   6.551
 5909POPC   C3B75237  43.039  26.430   6.970
 5909POPC   C4B75238  42.768  26.474   7.268
 5910POPC   NC375239  14.123  19.083   5.232
 5910POPC   PO475240  13.567  18.817   5.375
 5910POPC   GL175241  13.457  18.854   5.807
 5910POPC   GL275242  13.635  19.146   5.933
 5910POPC   C1A75243  13.459  18.809   6.266
 5910POPC   D2A75244  13.664  18.999   6.636
 5910POPC   C3A75245  13.640  19.051   7.076
 5910POPC   C4A75246  14.045  18.991   7.315
 5910POPC   C1B75247  13.450  19.337   6.324
 5910POPC   C2B75248  13.182  19.336   6.708
 5910POPC   C3B75249  13.242  19.383   7.144
 5910POPC   C4B75250  13.398  19.169   7.531
 5911POPC   NC375251  21.673   5.220   5.406
 5911POPC   PO475252  21.047   4.919   5.486
 5911POPC   GL175253  21.431   4.944   5.744
 5911POPC   GL275254  21.714   4.726   5.706
 5911POPC   C1A75255  21.548   5.206   6.085
 5911POPC   D2A75256  21.289   5.074   6.401
 5911POPC   C3A75257  21.385   5.110   6.827
 5911POPC   C4A75258  21.240   5.228   7.182
 5911POPC   C1B75259  21.836   4.794   6.139
 5911POPC   C2B75260  21.777   4.931   6.559
 5911POPC   C3B75261  21.657   4.695   6.963
 5911POPC   C4B75262  21.636   4.656   7.458
 5912POPC   NC375263  25.125  43.659   5.340
 5912POPC   PO475264  24.640  44.075   5.594
 5912POPC   GL175265  24.976  43.910   5.859
 5912POPC   GL275266  25.352  43.850   5.779
 5912POPC   C1A75267  25.096  43.886   6.273
 5912POPC   D2A75268  25.046  43.655   6.625
 5912POPC   C3A75269  25.108  43.978   6.933
 5912POPC   C4A75270  24.786  44.074   7.188
 5912POPC   C1B75271  25.586  43.958   6.184
 5912POPC   C2B75272  25.444  44.114   6.573
 5912POPC   C3B75273  25.590  44.212   6.965
 5912POPC   C4B75274  25.696  44.069   7.344
 5913POPC   NC375275  13.090  33.929   5.279
 5913POPC   PO475276  12.522  33.588   5.358
 5913POPC   GL175277  12.786  33.793   5.682
 5913POPC   GL275278  13.102  33.579   5.648
 5913POPC   C1A75279  12.883  33.981   6.127
 5913POPC   D2A75280  12.800  33.725   6.530
 5913POPC   C3A75281  12.720  33.785   6.991
 5913POPC   C4A75282  12.564  34.060   7.340
 5913POPC   C1B75283  12.993  33.496   6.067
 5913POPC   C2B75284  13.216  33.447   6.456
 5913POPC   C3B75285  13.050  33.364   6.850
 5913POPC   C4B75286  13.106  33.446   7.266
 5914POPC   NC375287  24.139   6.002   5.366
 5914POPC   PO475288  23.590   5.607   5.339
 5914POPC   GL175289  23.765   5.756   5.716
 5914POPC   GL275290  23.858   6.099   5.779
 5914POPC   C1A75291  23.855   5.687   6.132
 5914POPC   D2A75292  23.974   5.877   6.509
 5914POPC   C3A75293  23.854   5.737   6.866
 5914POPC   C4A75294  24.060   5.774   7.232
 5914POPC   C1B75295  23.716   6.184   6.195
 5914POPC   C2B75296  23.563   6.225   6.632
 5914POPC   C3B75297  23.787   6.208   7.044
 5914POPC   C4B75298  23.743   6.223   7.488
 5915POPC   NC375299  43.171  44.482   5.487
 5915POPC   PO475300  42.991  43.814   5.604
 5915POPC   GL175301  43.107  44.032   5.925
 5915POPC   GL275302  43.406  44.203   5.829
 5915POPC   C1A75303  43.249  43.801   6.296
 5915POPC   D2A75304  43.292  43.475   6.631
 5915POPC   C3A75305  43.281  43.780   6.951
 5915POPC   C4A75306  43.080  43.935   7.325
 5915POPC   C1B75307  43.366  44.313   6.253
 5915POPC   C2B75308  43.522  44.145   6.642
 5915POPC   C3B75309  43.371  44.288   7.053
 5915POPC   C4B75310  43.466  44.265   7.481
 5916POPC   NC375311  22.801  12.845   5.343
 5916POPC   PO475312  22.717  13.523   5.528
 5916POPC   GL175313  22.675  13.137   5.778
 5916POPC   GL275314  22.716  12.750   5.830
 5916POPC   C1A75315  22.788  13.064   6.218
 5916POPC   D2A75316  22.713  13.168   6.622
 5916POPC   C3A75317  22.791  12.825   6.926
 5916POPC   C4A75318  22.837  12.862   7.358
 5916POPC   C1B75319  23.057  12.628   6.137
 5916POPC   C2B75320  23.109  12.584   6.589
 5916POPC   C3B75321  23.195  12.427   7.007
 5916POPC   C4B75322  23.207  12.515   7.470
 5917POPC   NC375323  26.874  21.083   5.502
 5917POPC   PO475324  26.641  20.411   5.440
 5917POPC   GL175325  26.551  20.593   5.822
 5917POPC   GL275326  26.864  20.738   5.899
 5917POPC   C1A75327  26.589  20.604   6.289
 5917POPC   D2A75328  26.834  20.846   6.549
 5917POPC   C3A75329  26.789  20.732   6.951
 5917POPC   C4A75330  26.879  20.421   7.243
 5917POPC   C1B75331  27.063  20.457   6.235
 5917POPC   C2B75332  27.029  20.346   6.690
 5917POPC   C3B75333  27.215  20.126   7.049
 5917POPC   C4B75334  27.276  20.308   7.523
 5918POPC   NC375335  25.975   8.718   5.210
 5918POPC   PO475336  26.108   8.002   5.421
 5918POPC   GL175337  26.005   8.259   5.771
 5918POPC   GL275338  25.708   8.355   5.969
 5918POPC   C1A75339  26.157   8.249   6.188
 5918POPC   D2A75340  25.914   8.122   6.545
 5918POPC   C3A75341  26.112   8.127   6.931
 5918POPC   C4A75342  26.210   8.535   7.064
 5918POPC   C1B75343  25.572   7.972   6.177
 5918POPC   C2B75344  25.584   7.732   6.600
 5918POPC   C3B75345  25.565   7.973   7.014
 5918POPC   C4B75346  25.814   8.175   7.359
 5919POPC   NC375347   8.345  43.917   5.331
 5919POPC   PO475348   7.733  43.808   5.297
 5919POPC   GL175349   8.006  43.781   5.674
 5919POPC   GL275350   8.038  44.053   5.730
 5919POPC   C1A75351   8.096  43.612   6.081
 5919POPC   D2A75352   8.116  43.521   6.505
 5919POPC   C3A75353   7.928  43.685   6.861
 5919POPC   C4A75354   8.350  43.559   6.992
 5919POPC   C1B75355   7.903  44.072   6.129
 5919POPC   C2B75356   8.098  44.038   6.519
 5919POPC   C3B75357   8.264  44.061   6.926
 5919POPC   C4B75358   7.942  44.070   7.256
 5920POPC   NC375359  39.827   0.231   5.496
 5920POPC   PO475360  40.216   0.764   5.414
 5920POPC   GL175361  40.071   0.536   5.842
 5920POPC   GL275362  39.870   0.199   5.980
 5920POPC   C1A75363  39.949   0.581   6.280
 5920POPC   D2A75364  39.822   0.810   6.614
 5920POPC   C3A75365  39.980   0.635   7.033
 5920POPC   C4A75366  40.173   0.208   7.131
 5920POPC   C1B75367  39.515   0.322   6.225
 5920POPC   C2B75368  39.557   0.364   6.669
 5920POPC   C3B75369  39.656   0.231   7.090
 5920POPC   C4B75370  39.807  44.925   7.406
 5921POPC   NC375371   6.146  43.987   5.564
 5921POPC   PO475372   5.664  43.620   5.377
 5921POPC   GL175373   5.616  43.969   5.716
 5921POPC   GL275374   5.889  43.957   5.978
 5921POPC   C1A75375   5.449  44.057   6.149
 5921POPC   D2A75376   5.655  43.826   6.502
 5921POPC   C3A75377   5.538  43.912   6.950
 5921POPC   C4A75378   5.569  43.962   7.400
 5921POPC   C1B75379   5.977  44.218   6.327
 5921POPC   C2B75380   5.872  44.260   6.756
 5921POPC   C3B75381   6.002  44.090   7.152
 5921POPC   C4B75382   6.341  44.094   7.451
 5922POPC   NC375383  24.979  10.493   5.392
 5922POPC   PO475384  24.346  10.525   5.415
 5922POPC   GL175385  24.489  10.560   5.825
 5922POPC   GL275386  24.813  10.709   5.823
 5922POPC   C1A75387  24.429  10.649   6.253
 5922POPC   D2A75388  24.245  10.476   6.627
 5922POPC   C3A75389  24.472  10.565   6.989
 5922POPC   C4A75390  24.309  10.463   7.380
 5922POPC   C1B75391  24.925  10.451   6.173
 5922POPC   C2B75392  24.759  10.382   6.578
 5922POPC   C3B75393  24.814  10.152   6.960
 5922POPC   C4B75394  24.778  10.225   7.416
 5923POPC   NC375395   9.965  36.767   5.296
 5923POPC   PO475396   9.312  37.009   5.264
 5923POPC   GL175397   9.400  36.964   5.747
 5923POPC   GL275398   9.726  36.793   5.772
 5923POPC   C1A75399   9.575  36.994   6.207
 5923POPC   D2A75400   9.834  36.805   6.596
 5923POPC   C3A75401   9.856  37.060   6.957
 5923POPC   C4A75402   9.574  37.239   7.281
 5923POPC   C1B75403  10.034  36.789   6.125
 5923POPC   C2B75404  10.323  36.607   6.443
 5923POPC   C3B75405  10.316  36.368   6.839
 5923POPC   C4B75406  10.073  36.571   7.149
 5924POPC   NC375407   7.484  31.877   5.427
 5924POPC   PO475408   7.005  32.413   5.398
 5924POPC   GL175409   7.428  32.374   5.663
 5924POPC   GL275410   7.546  32.077   5.895
 5924POPC   C1A75411   7.478  32.520   6.139
 5924POPC   D2A75412   7.602  32.411   6.589
 5924POPC   C3A75413   7.512  32.393   7.042
 5924POPC   C4A75414   7.523  31.965   7.230
 5924POPC   C1B75415   7.321  32.036   6.308
 5924POPC   C2B75416   7.322  32.005   6.765
 5924POPC   C3B75417   7.034  31.945   7.124
 5924POPC   C4B75418   7.105  31.782   7.560
 5925POPC   NC375419  27.030  18.280   5.571
 5925POPC   PO475420  26.341  18.351   5.434
 5925POPC   GL175421  26.478  18.137   5.806
 5925POPC   GL275422  26.646  18.440   5.864
 5925POPC   C1A75423  26.569  18.112   6.255
 5925POPC   D2A75424  26.873  18.139   6.571
 5925POPC   C3A75425  26.716  17.944   6.928
 5925POPC   C4A75426  26.868  18.002   7.328
 5925POPC   C1B75427  26.932  18.517   6.190
 5925POPC   C2B75428  26.773  18.659   6.566
 5925POPC   C3B75429  26.758  18.507   6.959
 5925POPC   C4B75430  26.604  18.723   7.296
 5926POPC   NC375431  24.451  44.398   5.344
 5926POPC   PO475432  24.813  44.849   5.098
 5926POPC   GL175433  24.705  44.837   5.576
 5926POPC   GL275434  24.722  44.517   5.808
 5926POPC   C1A75435  24.483  44.927   5.989
 5926POPC   D2A75436  24.492  44.677   6.363
 5926POPC   C3A75437  24.407  44.766   6.773
 5926POPC   C4A75438  24.476  44.977   7.120
 5926POPC   C1B75439  24.768  44.277   6.216
 5926POPC   C2B75440  24.858  44.348   6.655
 5926POPC   C3B75441  24.808  44.570   7.067
 5926POPC   C4B75442  24.794  44.457   7.508
 5927POPC   NC375443  23.132   4.066   5.485
 5927POPC   PO475444  22.896   3.366   5.462
 5927POPC   GL175445  22.999   3.465   5.864
 5927POPC   GL275446  22.864   3.777   5.808
 5927POPC   C1A75447  22.883   3.286   6.287
 5927POPC   D2A75448  22.690   3.227   6.701
 5927POPC   C3A75449  22.987   3.306   7.018
 5927POPC   C4A75450  23.384   3.525   7.067
 5927POPC   C1B75451  22.726   3.759   6.231
 5927POPC   C2B75452  22.684   3.843   6.663
 5927POPC   C3B75453  22.889   3.820   7.044
 5927POPC   C4B75454  22.812   3.991   7.430
 5928POPC   NC375455  33.348  19.257   5.434
 5928POPC   PO475456  32.681  18.978   5.454
 5928POPC   GL175457  32.990  19.072   5.786
 5928POPC   GL275458  33.334  19.000   5.876
 5928POPC   C1A75459  33.044  19.259   6.197
 5928POPC   D2A75460  32.840  19.441   6.542
 5928POPC   C3A75461  33.059  19.215   6.828
 5928POPC   C4A75462  33.037  19.068   7.248
 5928POPC   C1B75463  33.512  19.084   6.329
 5928POPC   C2B75464  33.525  19.035   6.796
 5928POPC   C3B75465  33.513  18.914   7.238
 5928POPC   C4B75466  33.344  18.771   7.656
 5929POPC   NC375467   2.177  24.981   5.100
 5929POPC   PO475468   1.766  24.608   5.496
 5929POPC   GL175469   1.904  24.368   5.824
 5929POPC   GL275470   1.537  24.344   5.894
 5929POPC   C1A75471   2.062  24.291   6.259
 5929POPC   D2A75472   1.995  24.279   6.711
 5929POPC   C3A75473   2.363  24.427   6.992
 5929POPC   C4A75474   2.349  24.530   7.425
 5929POPC   C1B75475   1.653  24.603   6.218
 5929POPC   C2B75476   1.695  24.753   6.657
 5929POPC   C3B75477   1.893  24.643   7.079
 5929POPC   C4B75478   1.951  24.232   7.236
 5930POPC   NC375479  17.047  42.388   5.198
 5930POPC   PO475480  16.424  42.052   5.252
 5930POPC   GL175481  16.639  42.294   5.629
 5930POPC   GL275482  16.988  42.368   5.737
 5930POPC   C1A75483  16.655  42.352   6.110
 5930POPC   D2A75484  16.378  42.262   6.463
 5930POPC   C3A75485  16.561  42.332   6.890
 5930POPC   C4A75486  16.625  42.161   7.287
 5930POPC   C1B75487  17.155  42.519   6.207
 5930POPC   C2B75488  16.961  42.534   6.646
 5930POPC   C3B75489  16.977  42.540   7.134
 5930POPC   C4B75490  16.722  42.679   7.508
 5931POPC   NC375491  19.195   5.283   5.366
 5931POPC   PO475492  18.684   4.874   5.305
 5931POPC   GL175493  18.860   5.094   5.749
 5931POPC   GL275494  19.258   5.110   5.854
 5931POPC   C1A75495  18.933   5.001   6.230
 5931POPC   D2A75496  19.127   5.129   6.646
 5931POPC   C3A75497  18.868   5.015   7.007
 5931POPC   C4A75498  18.903   4.809   7.431
 5931POPC   C1B75499  19.406   5.396   6.204
 5931POPC   C2B75500  19.337   5.617   6.622
 5931POPC   C3B75501  19.430   5.396   7.016
 5931POPC   C4B75502  19.246   5.145   7.309
 5932POPC   NC375503  40.871  40.842   5.338
 5932POPC   PO475504  40.657  40.238   5.227
 5932POPC   GL175505  40.616  40.531   5.644
 5932POPC   GL275506  40.718  40.908   5.805
 5932POPC   C1A75507  40.528  40.559   6.092
 5932POPC   D2A75508  40.476  40.860   6.383
 5932POPC   C3A75509  40.535  40.770   6.837
 5932POPC   C4A75510  40.354  40.658   7.232
 5932POPC   C1B75511  41.064  40.788   6.137
 5932POPC   C2B75512  41.278  40.864   6.565
 5932POPC   C3B75513  41.141  41.005   6.994
 5932POPC   C4B75514  40.844  40.882   7.307
 5933POPC   NC375515   0.280  21.858   5.440
 5933POPC   PO475516   0.769  22.312   5.166
 5933POPC   GL175517   0.654  22.174   5.600
 5933POPC   GL275518   0.829  21.855   5.584
 5933POPC   C1A75519   0.387  22.191   6.005
 5933POPC   D2A75520   0.200  22.116   6.434
 5933POPC   C3A75521   0.299  22.299   6.829
 5933POPC   C4A75522   0.438  22.288   7.286
 5933POPC   C1B75523   0.872  22.000   6.034
 5933POPC   C2B75524   0.697  22.138   6.444
 5933POPC   C3B75525   0.802  22.189   6.893
 5933POPC   C4B75526   0.934  21.963   7.248
 5934POPC   NC375527  20.084  27.017   5.336
 5934POPC   PO475528  19.511  26.753   5.347
 5934POPC   GL175529  19.781  26.784   5.700
 5934POPC   GL275530  19.954  26.493   5.807
 5934POPC   C1A75531  19.604  26.836   6.121
 5934POPC   D2A75532  19.649  26.743   6.558
 5934POPC   C3A75533  19.664  27.071   6.897
 5934POPC   C4A75534  19.935  27.086   7.291
 5934POPC   C1B75535  20.101  26.761   6.137
 5934POPC   C2B75536  20.192  26.827   6.559
 5934POPC   C3B75537  20.003  26.703   6.944
 5934POPC   C4B75538  20.211  26.609   7.312
 5935POPC   NC375539  40.640  23.991   5.326
 5935POPC   PO475540  41.053  24.452   5.409
 5935POPC   GL175541  40.922  24.478   5.803
 5935POPC   GL275542  40.697  24.209   5.781
 5935POPC   C1A75543  40.725  24.528   6.211
 5935POPC   D2A75544  40.725  24.613   6.662
 5935POPC   C3A75545  40.991  24.361   6.920
 5935POPC   C4A75546  41.165  24.420   7.330
 5935POPC   C1B75547  40.914  24.050   6.131
 5935POPC   C2B75548  40.741  24.111   6.536
 5935POPC   C3B75549  40.562  24.078   6.942
 5935POPC   C4B75550  40.763  24.097   7.329
 5936POPC   NC375551  38.571   9.228   5.283
 5936POPC   PO475552  38.385   8.709   5.698
 5936POPC   GL175553  38.240   9.061   5.870
 5936POPC   GL275554  38.531   9.285   5.793
 5936POPC   C1A75555  38.183   8.957   6.327
 5936POPC   D2A75556  38.406   8.792   6.697
 5936POPC   C3A75557  38.236   9.003   7.025
 5936POPC   C4A75558  38.136   8.727   7.308
 5936POPC   C1B75559  38.657   9.121   6.189
 5936POPC   C2B75560  38.588   9.240   6.609
 5936POPC   C3B75561  38.721   9.075   7.018
 5936POPC   C4B75562  38.795   9.358   7.290
 5937POPC   NC375563   2.179  25.667   5.348
 5937POPC   PO475564   1.977  26.193   5.639
 5937POPC   GL175565   2.042  25.933   5.940
 5937POPC   GL275566   1.697  25.926   5.998
 5937POPC   C1A75567   2.058  25.865   6.386
 5937POPC   D2A75568   1.753  25.838   6.692
 5937POPC   C3A75569   1.915  25.980   7.081
 5937POPC   C4A75570   2.199  26.067   7.449
 5937POPC   C1B75571   1.799  26.292   6.282
 5937POPC   C2B75572   1.983  26.335   6.700
 5937POPC   C3B75573   1.891  26.483   7.125
 5937POPC   C4B75574   1.723  26.296   7.520
 5938POPC   NC375575   3.313  31.305   5.544
 5938POPC   PO475576   3.801  31.685   5.375
 5938POPC   GL175577   3.724  31.446   5.815
 5938POPC   GL275578   3.377  31.507   5.989
 5938POPC   C1A75579   3.688  31.184   6.218
 5938POPC   D2A75580   3.615  31.510   6.543
 5938POPC   C3A75581   3.630  31.422   6.954
 5938POPC   C4A75582   3.763  31.314   7.358
 5938POPC   C1B75583   3.165  31.660   6.348
 5938POPC   C2B75584   3.292  32.029   6.573
 5938POPC   C3B75585   3.338  31.916   6.979
 5938POPC   C4B75586   3.231  31.552   7.222
 5939POPC   NC375587  38.756  12.639   5.422
 5939POPC   PO475588  38.069  12.873   5.241
 5939POPC   GL175589  38.233  12.818   5.666
 5939POPC   GL275590  38.094  12.547   5.911
 5939POPC   C1A75591  38.389  12.988   6.042
 5939POPC   D2A75592  38.250  12.887   6.446
 5939POPC   C3A75593  38.516  12.941   6.783
 5939POPC   C4A75594  38.451  12.899   7.223
 5939POPC   C1B75595  38.492  12.482   6.167
 5939POPC   C2B75596  38.722  12.476   6.552
 5939POPC   C3B75597  38.633  12.474   6.981
 5939POPC   C4B75598  38.871  12.617   7.342
 5940POPC   NC375599  44.688  39.695   5.101
 5940POPC   PO475600  44.460  39.130   5.303
 5940POPC   GL175601  44.661  39.113   5.736
 5940POPC   GL275602  44.856  38.785   5.785
 5940POPC   C1A75603  44.564  39.348   6.139
 5940POPC   D2A75604  44.724  39.506   6.542
 5940POPC   C3A75605  44.478  39.399   6.903
 5940POPC   C4A75606  44.555  39.334   7.304
 5940POPC   C1B75607  44.713  38.862   6.220
 5940POPC   C2B75608  44.492  38.983   6.592
 5940POPC   C3B75609  44.706  38.950   7.010
 5940POPC   C4B75610  44.673  38.881   7.482
 5941POPC   NC375611  42.946  37.637   5.422
 5941POPC   PO475612  43.195  38.273   5.485
 5941POPC   GL175613  43.194  37.839   5.804
 5941POPC   GL275614  43.003  37.501   5.896
 5941POPC   C1A75615  43.051  37.850   6.270
 5941POPC   D2A75616  43.020  37.612   6.648
 5941POPC   C3A75617  43.184  37.735   7.045
 5941POPC   C4A75618  42.894  37.768   7.382
 5941POPC   C1B75619  43.304  37.392   6.234
 5941POPC   C2B75620  43.248  37.147   6.594
 5941POPC   C3B75621  43.159  37.229   7.008
 5941POPC   C4B75622  43.383  37.388   7.361
 5942POPC   NC375623   9.709   4.088   5.431
 5942POPC   PO475624   9.995   4.708   5.348
 5942POPC   GL175625   9.838   4.496   5.769
 5942POPC   GL275626   9.862   4.169   5.902
 5942POPC   C1A75627   9.805   4.562   6.242
 5942POPC   D2A75628  10.050   4.445   6.600
 5942POPC   C3A75629  10.078   4.537   7.003
 5942POPC   C4A75630   9.691   4.521   7.219
 5942POPC   C1B75631   9.476   4.188   6.111
 5942POPC   C2B75632   9.408   4.127   6.527
 5942POPC   C3B75633   9.595   4.102   6.922
 5942POPC   C4B75634   9.954   3.914   7.090
 5943POPC   NC375635  19.503   7.491   5.082
 5943POPC   PO475636  18.995   7.167   5.309
 5943POPC   GL175637  19.010   7.262   5.798
 5943POPC   GL275638  18.703   7.470   5.869
 5943POPC   C1A75639  19.162   7.293   6.250
 5943POPC   D2A75640  19.389   7.614   6.520
 5943POPC   C3A75641  19.285   7.619   6.961
 5943POPC   C4A75642  19.111   7.393   7.341
 5943POPC   C1B75643  18.820   7.672   6.268
 5943POPC   C2B75644  18.871   7.529   6.687
 5943POPC   C3B75645  18.756   7.661   7.110
 5943POPC   C4B75646  18.636   7.450   7.493
 5944POPC   NC375647  10.844   6.384   5.539
 5944POPC   PO475648  10.236   6.513   5.421
 5944POPC   GL175649  10.275   6.682   5.821
 5944POPC   GL275650  10.638   6.780   5.816
 5944POPC   C1A75651  10.346   6.771   6.264
 5944POPC   D2A75652  10.562   6.514   6.534
 5944POPC   C3A75653  10.412   6.383   6.908
 5944POPC   C4A75654  10.499   6.457   7.306
 5944POPC   C1B75655  10.893   6.739   6.197
 5944POPC   C2B75656  10.879   6.928   6.593
 5944POPC   C3B75657  10.815   6.723   6.987
 5944POPC   C4B75658  10.874   6.897   7.444
 5945POPC   NC375659  33.192  30.053   5.253
 5945POPC   PO475660  32.524  29.779   5.277
 5945POPC   GL175661  32.711  29.812   5.692
 5945POPC   GL275662  33.099  29.820   5.770
 5945POPC   C1A75663  32.670  29.896   6.146
 5945POPC   D2A75664  32.515  29.872   6.591
 5945POPC   C3A75665  32.793  30.008   6.950
 5945POPC   C4A75666  32.916  29.829   7.340
 5945POPC   C1B75667  33.175  30.023   6.216
 5945POPC   C2B75668  33.216  30.113   6.666
 5945POPC   C3B75669  33.313  29.819   7.002
 5945POPC   C4B75670  33.531  29.612   7.321
 5946POPC   NC375671  25.109  23.009   5.429
 5946POPC   PO475672  25.428  22.412   5.532
 5946POPC   GL175673  25.239  22.701   5.818
 5946POPC   GL275674  25.496  22.943   5.782
 5946POPC   C1A75675  25.121  22.900   6.222
 5946POPC   D2A75676  24.927  22.798   6.638
 5946POPC   C3A75677  25.138  22.973   6.999
 5946POPC   C4A75678  25.253  22.806   7.404
 5946POPC   C1B75679  25.562  23.212   6.147
 5946POPC   C2B75680  25.569  23.387   6.571
 5946POPC   C3B75681  25.627  23.376   7.023
 5946POPC   C4B75682  25.296  23.351   7.318
 5947POPC   NC375683  35.648  15.948   5.372
 5947POPC   PO475684  34.958  15.864   5.418
 5947POPC   GL175685  35.113  15.852   5.852
 5947POPC   GL275686  35.485  15.859   5.836
 5947POPC   C1A75687  35.139  16.150   6.218
 5947POPC   D2A75688  35.428  16.286   6.532
 5947POPC   C3A75689  35.281  16.141   6.893
 5947POPC   C4A75690  35.285  16.198   7.287
 5947POPC   C1B75691  35.527  15.841   6.258
 5947POPC   C2B75692  35.232  15.753   6.552
 5947POPC   C3B75693  35.409  15.654   6.903
 5947POPC   C4B75694  35.568  15.722   7.266
 5948POPC   NC375695  14.919  27.078   5.263
 5948POPC   PO475696  15.248  26.562   5.173
 5948POPC   GL175697  15.286  26.899   5.565
 5948POPC   GL275698  14.927  26.931   5.745
 5948POPC   C1A75699  15.367  26.941   6.045
 5948POPC   D2A75700  15.231  26.880   6.506
 5948POPC   C3A75701  15.263  26.581   6.865
 5948POPC   C4A75702  15.262  26.797   7.259
 5948POPC   C1B75703  14.848  26.818   6.165
 5948POPC   C2B75704  14.707  26.937   6.600
 5948POPC   C3B75705  14.827  26.912   7.006
 5948POPC   C4B75706  14.763  27.119   7.376
 5949POPC   NC375707  22.102   4.505   5.260
 5949POPC   PO475708  22.672   4.113   5.348
 5949POPC   GL175709  22.387   4.260   5.677
 5949POPC   GL275710  22.396   3.971   5.879
 5949POPC   C1A75711  22.227   4.432   6.108
 5949POPC   D2A75712  22.017   4.489   6.542
 5949POPC   C3A75713  22.117   4.466   7.031
 5949POPC   C4A75714  21.997   4.292   7.448
 5949POPC   C1B75715  22.232   3.916   6.302
 5949POPC   C2B75716  22.216   4.056   6.728
 5949POPC   C3B75717  22.373   3.995   7.134
 5949POPC   C4B75718  22.340   3.939   7.589
 5950POPC   NC375719  41.163   1.788   5.413
 5950POPC   PO475720  40.814   1.169   5.263
 5950POPC   GL175721  40.659   1.249   5.717
 5950POPC   GL275722  40.720   1.609   5.778
 5950POPC   C1A75723  40.779   1.180   6.197
 5950POPC   D2A75724  40.640   1.077   6.660
 5950POPC   C3A75725  40.905   0.907   7.024
 5950POPC   C4A75726  41.071   1.077   7.424
 5950POPC   C1B75727  40.402   1.547   6.107
 5950POPC   C2B75728  40.266   1.724   6.495
 5950POPC   C3B75729  40.440   1.530   6.874
 5950POPC   C4B75730  40.728   1.371   7.161
 5951POPC   NC375731  40.930  43.951   5.182
 5951POPC   PO475732  40.723  43.357   5.318
 5951POPC   GL175733  40.789  43.715   5.644
 5951POPC   GL275734  41.020  44.035   5.705
 5951POPC   C1A75735  40.822  43.777   6.101
 5951POPC   D2A75736  40.777  43.612   6.500
 5951POPC   C3A75737  40.762  43.825   6.874
 5951POPC   C4A75738  40.843  43.662   7.257
 5951POPC   C1B75739  40.986  44.260   6.156
 5951POPC   C2B75740  41.039  44.369   6.640
 5951POPC   C3B75741  40.973  44.234   7.083
 5951POPC   C4B75742  41.082  44.341   7.535
 5952POPC   NC375743  29.666  29.517   5.385
 5952POPC   PO475744  30.262  29.798   5.351
 5952POPC   GL175745  30.131  29.611   5.735
 5952POPC   GL275746  29.820  29.753   5.814
 5952POPC   C1A75747  30.016  29.519   6.204
 5952POPC   D2A75748  29.721  29.776   6.468
 5952POPC   C3A75749  29.725  29.673   6.890
 5952POPC   C4A75750  30.100  29.589   7.112
 5952POPC   C1B75751  29.712  30.104   6.078
 5952POPC   C2B75752  29.949  30.299   6.440
 5952POPC   C3B75753  29.909  30.158   6.844
 5952POPC   C4B75754  29.991  30.080   7.247
 5953POPC   NC375755  43.736  39.467   5.307
 5953POPC   PO475756  43.926  38.795   5.429
 5953POPC   GL175757  43.956  39.002   5.817
 5953POPC   GL275758  44.263  38.926   6.017
 5953POPC   C1A75759  44.026  39.385   6.081
 5953POPC   D2A75760  44.186  39.479   6.489
 5953POPC   C3A75761  43.971  39.379   6.879
 5953POPC   C4A75762  44.070  39.530   7.292
 5953POPC   C1B75763  43.963  38.934   6.329
 5953POPC   C2B75764  43.661  39.092   6.590
 5953POPC   C3B75765  43.747  38.896   6.971
 5953POPC   C4B75766  44.166  39.002   7.178
 5954POPC   NC375767  39.882  11.373   5.320
 5954POPC   PO475768  40.371  11.620   5.594
 5954POPC   GL175769  40.166  11.373   5.904
 5954POPC   GL275770  39.826  11.296   5.820
 5954POPC   C1A75771  40.098  11.295   6.355
 5954POPC   D2A75772  40.181  11.237   6.794
 5954POPC   C3A75773  40.113  11.562   7.112
 5954POPC   C4A75774  40.159  11.556   7.567
 5954POPC   C1B75775  39.653  11.107   6.168
 5954POPC   C2B75776  39.609  11.203   6.601
 5954POPC   C3B75777  39.758  11.036   7.000
 5954POPC   C4B75778  39.781  11.242   7.390
 5955POPC   NC375779   9.081   0.217   5.100
 5955POPC   PO475780   9.263   0.564   5.490
 5955POPC   GL175781   9.165   0.652   5.958
 5955POPC   GL275782   8.877   0.832   6.118
 5955POPC   C1A75783   9.214   0.594   6.427
 5955POPC   D2A75784   9.114   0.239   6.714
 5955POPC   C3A75785   9.058   0.305   7.156
 5955POPC   C4A75786   8.911   0.130   7.539
 5955POPC   C1B75787   8.696   0.538   6.455
 5955POPC   C2B75788   8.623   0.318   6.863
 5955POPC   C3B75789   8.621   0.544   7.271
 5955POPC   C4B75790   9.001   0.740   7.428
 5956POPC   NC375791  29.464  43.652   5.456
 5956POPC   PO475792  29.026  44.053   5.216
 5956POPC   GL175793  29.157  43.965   5.730
 5956POPC   GL275794  29.482  43.950   5.897
 5956POPC   C1A75795  29.118  43.693   6.142
 5956POPC   D2A75796  29.004  43.835   6.549
 5956POPC   C3A75797  29.189  43.705   6.934
 5956POPC   C4A75798  29.208  43.933   7.302
 5956POPC   C1B75799  29.518  43.941   6.360
 5956POPC   C2B75800  29.395  44.135   6.745
 5956POPC   C3B75801  29.573  44.260   7.148
 5956POPC   C4B75802  29.586  44.100   7.606
 5957POPC   NC375803   7.935  35.370   5.460
 5957POPC   PO475804   8.463  34.988   5.534
 5957POPC   GL175805   8.231  35.205   5.862
 5957POPC   GL275806   8.181  35.583   5.861
 5957POPC   C1A75807   8.235  35.278   6.305
 5957POPC   D2A75808   8.125  35.319   6.720
 5957POPC   C3A75809   8.416  35.487   6.982
 5957POPC   C4A75810   8.831  35.345   7.108
 5957POPC   C1B75811   7.878  35.669   6.176
 5957POPC   C2B75812   7.770  35.672   6.607
 5957POPC   C3B75813   7.693  35.420   6.971
 5957POPC   C4B75814   7.992  35.262   7.220
 5958POPC   NC375815  42.657   2.272   5.484
 5958POPC   PO475816  42.523   1.556   5.371
 5958POPC   GL175817  42.675   1.713   5.792
 5958POPC   GL275818  42.889   2.010   5.900
 5958POPC   C1A75819  42.515   1.726   6.212
 5958POPC   D2A75820  42.198   2.013   6.415
 5958POPC   C3A75821  42.216   2.060   6.869
 5958POPC   C4A75822  42.106   2.061   7.338
 5958POPC   C1B75823  42.674   2.206   6.291
 5958POPC   C2B75824  42.719   2.362   6.729
 5958POPC   C3B75825  42.559   2.285   7.171
 5958POPC   C4B75826  42.465   2.350   7.619
 5959POPC   NC375827  17.341  41.251   5.139
 5959POPC   PO475828  17.853  41.554   5.422
 5959POPC   GL175829  17.524  41.552   5.774
 5959POPC   GL275830  17.447  41.285   5.966
 5959POPC   C1A75831  17.478  41.720   6.216
 5959POPC   D2A75832  17.520  41.501   6.578
 5959POPC   C3A75833  17.405  41.728   6.927
 5959POPC   C4A75834  17.627  41.814   7.319
 5959POPC   C1B75835  17.297  41.020   6.315
 5959POPC   C2B75836  17.144  40.874   6.727
 5959POPC   C3B75837  17.145  41.189   7.066
 5959POPC   C4B75838  17.183  41.555   7.354
 5960POPC   NC375839  24.349  20.594   5.320
 5960POPC   PO475840  24.997  20.272   5.183
 5960POPC   GL175841  24.719  20.487   5.636
 5960POPC   GL275842  24.605  20.850   5.797
 5960POPC   C1A75843  24.709  20.532   6.145
 5960POPC   D2A75844  24.671  20.342   6.550
 5960POPC   C3A75845  24.482  20.404   6.962
 5960POPC   C4A75846  24.481  20.828   7.104
 5960POPC   C1B75847  24.328  20.907   6.163
 5960POPC   C2B75848  24.116  20.892   6.587
 5960POPC   C3B75849  24.092  21.167   6.965
 5960POPC   C4B75850  24.111  20.995   7.398
 5961POPC   NC375851  27.041   6.502   5.316
 5961POPC   PO475852  27.817   6.529   5.393
 5961POPC   GL175853  27.659   6.492   5.761
 5961POPC   GL275854  27.397   6.727   5.711
 5961POPC   C1A75855  27.839   6.580   6.159
 5961POPC   D2A75856  27.781   6.870   6.498
 5961POPC   C3A75857  27.685   6.632   6.872
 5961POPC   C4A75858  27.446   6.655   7.253
 5961POPC   C1B75859  27.322   6.710   6.172
 5961POPC   C2B75860  27.277   6.933   6.574
 5961POPC   C3B75861  27.084   6.839   6.951
 5961POPC   C4B75862  27.033   6.968   7.361
 5962POPC   NC375863  42.881  11.172   5.435
 5962POPC   PO475864  43.330  11.624   5.404
 5962POPC   GL175865  43.233  11.373   5.771
 5962POPC   GL275866  43.175  10.999   5.798
 5962POPC   C1A75867  42.982  11.353   6.134
 5962POPC   D2A75868  43.246  11.397   6.482
 5962POPC   C3A75869  43.135  11.195   6.830
 5962POPC   C4A75870  43.046  11.241   7.245
 5962POPC   C1B75871  43.248  10.930   6.230
 5962POPC   C2B75872  43.347  10.736   6.636
 5962POPC   C3B75873  43.443  10.856   7.073
 5962POPC   C4B75874  43.078  10.743   7.268
 5963POPC   NC375875  22.250   9.307   5.485
 5963POPC   PO475876  22.184   9.989   5.347
 5963POPC   GL175877  22.262   9.784   5.788
 5963POPC   GL275878  21.992   9.484   5.894
 5963POPC   C1A75879  22.370   9.956   6.247
 5963POPC   D2A75880  22.424  10.217   6.652
 5963POPC   C3A75881  22.463   9.980   7.039
 5963POPC   C4A75882  22.362   9.527   7.038
 5963POPC   C1B75883  21.872   9.874   6.111
 5963POPC   C2B75884  21.714  10.021   6.531
 5963POPC   C3B75885  21.916  10.068   6.956
 5963POPC   C4B75886  22.048   9.859   7.355
 5964POPC   NC375887   9.304  10.083   5.639
 5964POPC   PO475888   8.765   9.665   5.537
 5964POPC   GL175889   8.897   9.863   5.901
 5964POPC   GL275890   9.209   9.706   5.968
 5964POPC   C1A75891   8.818   9.791   6.347
 5964POPC   D2A75892   8.859   9.537   6.726
 5964POPC   C3A75893   8.740   9.844   7.022
 5964POPC   C4A75894   8.529  10.251   7.042
 5964POPC   C1B75895   9.276  10.016   6.292
 5964POPC   C2B75896   9.153   9.991   6.741
 5964POPC   C3B75897   9.244   9.855   7.180
 5964POPC   C4B75898   9.277  10.121   7.556
 5965POPC   NC375899   0.270  39.907   5.328
 5965POPC   PO475900   0.629  40.571   5.415
 5965POPC   GL175901   0.554  40.316   5.815
 5965POPC   GL275902   0.427  39.965   5.811
 5965POPC   C1A75903   0.566  40.205   6.272
 5965POPC   D2A75904   0.398  40.332   6.680
 5965POPC   C3A75905   0.714  40.265   6.983
 5965POPC   C4A75906   0.691  39.856   7.167
 5965POPC   C1B75907   0.138  39.917   6.167
 5965POPC   C2B75908   0.260  39.816   6.622
 5965POPC   C3B75909   0.184  39.798   7.084
 5965POPC   C4B75910   0.013  39.560   7.411
 5966POPC   NC375911  36.594  25.851   5.411
 5966POPC   PO475912  37.011  26.330   5.442
 5966POPC   GL175913  36.860  26.103   5.814
 5966POPC   GL275914  36.708  25.748   5.897
 5966POPC   C1A75915  37.031  25.997   6.233
 5966POPC   D2A75916  37.104  25.747   6.623
 5966POPC   C3A75917  36.886  25.887   7.003
 5966POPC   C4A75918  36.753  26.220   7.277
 5966POPC   C1B75919  36.736  25.569   6.288
 5966POPC   C2B75920  36.561  25.771   6.620
 5966POPC   C3B75921  36.420  25.657   7.006
 5966POPC   C4B75922  36.600  25.718   7.393
 5967POPC   NC375923   6.854  43.327   5.592
 5967POPC   PO475924   6.919  42.661   5.652
 5967POPC   GL175925   6.672  42.932   5.910
 5967POPC   GL275926   6.423  43.181   5.793
 5967POPC   C1A75927   6.846  43.173   6.253
 5967POPC   D2A75928   6.824  43.171   6.684
 5967POPC   C3A75929   6.626  42.857   6.885
 5967POPC   C4A75930   6.899  42.852   7.230
 5967POPC   C1B75931   6.355  43.293   6.207
 5967POPC   C2B75932   6.355  43.395   6.637
 5967POPC   C3B75933   6.246  43.242   7.031
 5967POPC   C4B75934   6.656  43.301   7.158
 5968POPC   NC375935  26.536  27.404   5.369
 5968POPC   PO475936  27.180  27.434   5.403
 5968POPC   GL175937  26.945  27.700   5.737
 5968POPC   GL275938  26.601  27.700   5.770
 5968POPC   C1A75939  26.948  27.654   6.210
 5968POPC   D2A75940  27.075  27.454   6.637
 5968POPC   C3A75941  27.030  27.817   6.915
 5968POPC   C4A75942  27.198  28.141   7.201
 5968POPC   C1B75943  26.452  27.548   6.155
 5968POPC   C2B75944  26.570  27.438   6.582
 5968POPC   C3B75945  26.554  27.438   7.026
 5968POPC   C4B75946  26.603  27.390   7.492
 5969POPC   NC375947  33.599  17.714   5.357
 5969POPC   PO475948  34.228  17.446   5.190
 5969POPC   GL175949  34.038  17.326   5.598
 5969POPC   GL275950  33.983  17.651   5.750
 5969POPC   C1A75951  33.808  17.250   6.013
 5969POPC   D2A75952  33.876  17.345   6.466
 5969POPC   C3A75953  33.728  17.306   6.909
 5969POPC   C4A75954  33.841  17.421   7.353
 5969POPC   C1B75955  34.002  17.783   6.201
 5969POPC   C2B75956  34.152  17.727   6.640
 5969POPC   C3B75957  34.051  17.820   7.088
 5969POPC   C4B75958  34.237  17.768   7.508
 5970POPC   NC375959  40.327   1.248   5.310
 5970POPC   PO475960  39.712   1.267   5.061
 5970POPC   GL175961  39.873   1.107   5.571
 5970POPC   GL275962  40.095   1.377   5.739
 5970POPC   C1A75963  39.938   1.047   6.075
 5970POPC   D2A75964  40.131   1.217   6.519
 5970POPC   C3A75965  39.919   1.158   6.963
 5970POPC   C4A75966  39.699   1.365   7.309
 5970POPC   C1B75967  39.886   1.557   6.133
 5970POPC   C2B75968  39.761   1.601   6.585
 5970POPC   C3B75969  39.964   1.666   6.978
 5970POPC   C4B75970  40.207   1.420   7.322
 5971POPC   NC375971  43.418  33.108   4.803
 5971POPC   PO475972  43.119  33.156   5.360
 5971POPC   GL175973  43.004  33.109   5.810
 5971POPC   GL275974  43.064  32.733   5.886
 5971POPC   C1A75975  43.154  33.093   6.271
 5971POPC   D2A75976  43.260  33.146   6.711
 5971POPC   C3A75977  43.111  33.005   7.093
 5971POPC   C4A75978  43.114  33.177   7.494
 5971POPC   C1B75979  43.065  32.583   6.335
 5971POPC   C2B75980  43.141  32.598   6.797
 5971POPC   C3B75981  43.233  32.561   7.262
 5971POPC   C4B75982  42.897  32.595   7.513
 5972POPC   NC375983  24.672   4.628   5.408
 5972POPC   PO475984  24.726   3.914   5.499
 5972POPC   GL175985  24.450   4.043   5.876
 5972POPC   GL275986  24.106   4.128   5.780
 5972POPC   C1A75987  24.551   4.185   6.316
 5972POPC   D2A75988  24.442   4.133   6.763
 5972POPC   C3A75989  24.594   4.328   7.156
 5972POPC   C4A75990  24.573   4.215   7.594
 5972POPC   C1B75991  24.181   4.477   6.083
 5972POPC   C2B75992  24.279   4.582   6.535
 5972POPC   C3B75993  24.146   4.494   6.990
 5972POPC   C4B75994  24.126   4.419   7.474
 5973POPC   NC375995  23.342  24.349   5.652
 5973POPC   PO475996  23.991  24.191   5.448
 5973POPC   GL175997  23.846  24.457   5.768
 5973POPC   GL275998  23.772  24.782   5.636
 5973POPC   C1A75999  23.719  24.342   6.188
 5973POPC   D2A76000  23.688  24.145   6.567
 5973POPC   C3A76001  23.636  24.417   6.916
 5973POPC   C4A76002  23.712  24.346   7.351
 5973POPC   C1B76003  23.758  24.855   6.094
 5973POPC   C2B76004  23.509  24.725   6.478
 5973POPC   C3B76005  23.459  24.939   6.871
 5973POPC   C4B76006  23.435  24.766   7.272
 5974POPC   NC376007  10.633  15.709   5.313
 5974POPC   PO476008  10.158  16.213   5.479
 5974POPC   GL176009  10.488  16.144   5.787
 5974POPC   GL276010  10.601  15.801   5.815
 5974POPC   C1A76011  10.499  16.176   6.245
 5974POPC   D2A76012  10.389  16.361   6.651
 5974POPC   C3A76013  10.635  16.171   6.986
 5974POPC   C4A76014  10.667  16.248   7.453
 5974POPC   C1B76015  10.435  15.660   6.231
 5974POPC   C2B76016  10.406  15.825   6.644
 5974POPC   C3B76017  10.214  15.851   7.016
 5974POPC   C4B76018  10.479  15.796   7.295
 5975POPC   NC376019  22.514   3.662   5.419
 5975POPC   PO476020  21.899   3.318   5.407
 5975POPC   GL176021  22.105   3.488   5.784
 5975POPC   GL276022  22.461   3.446   5.889
 5975POPC   C1A76023  21.869   3.525   6.163
 5975POPC   D2A76024  21.811   3.379   6.576
 5975POPC   C3A76025  21.826   3.690   6.901
 5975POPC   C4A76026  21.889   3.829   7.314
 5975POPC   C1B76027  22.342   3.387   6.335
 5975POPC   C2B76028  22.294   3.544   6.769
 5975POPC   C3B76029  22.521   3.502   7.183
 5975POPC   C4B76030  22.587   3.502   7.638
 5976POPC   NC376031  15.055  30.994   5.458
 5976POPC   PO476032  15.086  30.311   5.363
 5976POPC   GL176033  15.320  30.566   5.680
 5976POPC   GL276034  15.518  30.839   5.730
 5976POPC   C1A76035  15.186  30.693   6.121
 5976POPC   D2A76036  14.952  31.025   6.367
 5976POPC   C3A76037  15.011  30.988   6.828
 5976POPC   C4A76038  15.251  30.665   7.011
 5976POPC   C1B76039  15.450  31.109   6.114
 5976POPC   C2B76040  15.449  31.020   6.560
 5976POPC   C3B76041  15.617  31.042   6.995
 5976POPC   C4B76042  15.473  31.006   7.416
 5977POPC   NC376043  10.193   2.687   5.369
 5977POPC   PO476044  10.536   2.137   5.108
 5977POPC   GL176045  10.571   2.137   5.630
 5977POPC   GL276046  10.382   1.869   5.815
 5977POPC   C1A76047  10.534   2.220   6.134
 5977POPC   D2A76048  10.350   2.038   6.544
 5977POPC   C3A76049  10.304   2.242   6.950
 5977POPC   C4A76050  10.583   2.329   7.306
 5977POPC   C1B76051  10.545   1.694   6.220
 5977POPC   C2B76052  10.365   1.537   6.636
 5977POPC   C3B76053  10.167   1.665   7.045
 5977POPC   C4B76054  10.394   1.675   7.439
 5978POPC   NC376055   8.731  34.572   5.430
 5978POPC   PO476056   9.239  34.901   5.167
 5978POPC   GL176057   9.143  34.827   5.676
 5978POPC   GL276058   8.991  34.499   5.843
 5978POPC   C1A76059   9.168  34.845   6.154
 5978POPC   D2A76060   8.955  34.699   6.556
 5978POPC   C3A76061   9.089  34.919   6.928
 5978POPC   C4A76062   9.352  34.846   7.257
 5978POPC   C1B76063   8.745  34.379   6.188
 5978POPC   C2B76064   8.859  34.176   6.558
 5978POPC   C3B76065   8.792  34.263   6.972
 5978POPC   C4B76066   8.952  34.513   7.285
 5979POPC   NC376067   8.526  24.024   5.297
 5979POPC   PO476068   9.216  23.777   5.270
 5979POPC   GL176069   9.021  23.742   5.679
 5979POPC   GL276070   9.087  24.039   5.873
 5979POPC   C1A76071   9.127  23.568   6.095
 5979POPC   D2A76072   8.887  23.512   6.465
 5979POPC   C3A76073   8.933  23.662   6.875
 5979POPC   C4A76074   9.130  23.482   7.234
 5979POPC   C1B76075   8.743  23.942   6.163
 5979POPC   C2B76076   8.733  24.063   6.596
 5979POPC   C3B76077   8.690  24.154   7.030
 5979POPC   C4B76078   9.031  23.985   7.256
 5980POPC   NC376079   6.627  32.248   5.644
 5980POPC   PO476080   6.985  31.737   5.447
 5980POPC   GL176081   7.036  32.075   5.854
 5980POPC   GL276082   6.997  32.489   5.904
 5980POPC   C1A76083   6.846  32.228   6.291
 5980POPC   D2A76084   6.906  32.298   6.685
 5980POPC   C3A76085   6.605  32.131   6.920
 5980POPC   C4A76086   6.394  32.095   7.255
 5980POPC   C1B76087   6.660  32.680   6.184
 5980POPC   C2B76088   6.569  32.885   6.610
 5980POPC   C3B76089   6.647  32.650   6.995
 5980POPC   C4B76090   7.001  32.462   7.151
 5981POPC   NC376091  28.340  27.603   5.336
 5981POPC   PO476092  27.936  27.076   5.061
 5981POPC   GL176093  28.088  27.235   5.576
 5981POPC   GL276094  28.112  27.648   5.765
 5981POPC   C1A76095  28.233  27.277   6.067
 5981POPC   D2A76096  28.520  27.266   6.441
 5981POPC   C3A76097  28.377  27.349   6.854
 5981POPC   C4A76098  28.303  27.361   7.257
 5981POPC   C1B76099  27.976  27.699   6.202
 5981POPC   C2B76100  28.103  27.708   6.597
 5981POPC   C3B76101  28.121  27.775   7.010
 5981POPC   C4B76102  28.533  27.844   7.222
 5982POPC   NC376103  16.367  44.122   5.460
 5982POPC   PO476104  15.825  43.757   5.213
 5982POPC   GL176105  15.926  43.931   5.640
 5982POPC   GL276106  16.210  43.700   5.716
 5982POPC   C1A76107  16.059  44.101   6.083
 5982POPC   D2A76108  15.893  44.026   6.519
 5982POPC   C3A76109  15.977  44.204   6.951
 5982POPC   C4A76110  16.126  44.424   7.331
 5982POPC   C1B76111  16.281  43.640   6.165
 5982POPC   C2B76112  16.257  43.687   6.595
 5982POPC   C3B76113  15.982  43.654   6.926
 5982POPC   C4B76114  16.195  43.840   7.248
 5983POPC   NC376115  17.743  25.442   5.353
 5983POPC   PO476116  17.145  25.217   5.661
 5983POPC   GL176117  17.379  25.079   5.975
 5983POPC   GL276118  17.694  25.220   5.837
 5983POPC   C1A76119  17.242  25.124   6.404
 5983POPC   D2A76120  17.248  25.484   6.697
 5983POPC   C3A76121  17.325  25.305   7.112
 5983POPC   C4A76122  17.164  24.888   7.219
 5983POPC   C1B76123  17.681  25.375   6.252
 5983POPC   C2B76124  17.706  25.259   6.659
 5983POPC   C3B76125  17.776  25.010   6.993
 5983POPC   C4B76126  17.885  25.108   7.394
 5984POPC   NC376127  36.019  23.435   5.367
 5984POPC   PO476128  36.496  23.471   5.717
 5984POPC   GL176129  36.148  23.785   5.751
 5984POPC   GL276130  35.785  23.797   5.662
 5984POPC   C1A76131  36.021  23.903   6.151
 5984POPC   D2A76132  36.220  23.805   6.507
 5984POPC   C3A76133  36.389  23.680   6.890
 5984POPC   C4A76134  36.196  23.845   7.243
 5984POPC   C1B76135  35.663  23.576   6.026
 5984POPC   C2B76136  35.695  23.575   6.466
 5984POPC   C3B76137  35.870  23.657   6.860
 5984POPC   C4B76138  35.736  23.642   7.252
 5985POPC   NC376139   4.062  13.236   5.491
 5985POPC   PO476140   4.487  12.702   5.468
 5985POPC   GL176141   4.387  12.970   5.808
 5985POPC   GL276142   4.203  12.686   5.907
 5985POPC   C1A76143   4.271  13.010   6.278
 5985POPC   D2A76144   4.348  12.770   6.657
 5985POPC   C3A76145   4.256  13.051   6.957
 5985POPC   C4A76146   4.385  13.106   7.382
 5985POPC   C1B76147   4.535  12.549   6.233
 5985POPC   C2B76148   4.719  12.379   6.664
 5985POPC   C3B76149   4.621  12.533   7.063
 5985POPC   C4B76150   4.210  12.608   7.203
 5986POPC   NC376151  30.462  44.025   5.531
 5986POPC   PO476152  29.813  44.132   5.547
 5986POPC   GL176153  30.093  43.975   5.879
 5986POPC   GL276154  30.307  43.639   5.815
 5986POPC   C1A76155  30.033  44.106   6.289
 5986POPC   D2A76156  29.905  44.136   6.701
 5986POPC   C3A76157  29.748  43.768   6.841
 5986POPC   C4A76158  29.809  43.762   7.259
 5986POPC   C1B76159  30.274  43.644   6.256
 5986POPC   C2B76160  30.269  43.756   6.706
 5986POPC   C3B76161  30.185  43.463   7.053
 5986POPC   C4B76162  30.120  43.401   7.502
 5987POPC   NC376163  19.007  12.661   5.569
 5987POPC   PO476164  19.192  13.281   5.405
 5987POPC   GL176165  19.238  13.125   5.788
 5987POPC   GL276166  18.928  13.182   5.893
 5987POPC   C1A76167  19.251  12.885   6.181
 5987POPC   D2A76168  19.105  12.835   6.595
 5987POPC   C3A76169  19.197  12.658   6.966
 5987POPC   C4A76170  19.282  13.063   7.164
 5987POPC   C1B76171  18.792  13.119   6.294
 5987POPC   C2B76172  18.525  12.910   6.572
 5987POPC   C3B76173  18.741  12.946   6.956
 5987POPC   C4B76174  18.723  12.998   7.374
 5988POPC   NC376175  38.595  34.264   5.824
 5988POPC   PO476176  38.532  34.791   5.419
 5988POPC   GL176177  38.279  34.694   5.808
 5988POPC   GL276178  37.963  34.474   5.814
 5988POPC   C1A76179  38.209  34.703   6.250
 5988POPC   D2A76180  38.121  34.960   6.600
 5988POPC   C3A76181  38.178  34.729   6.974
 5988POPC   C4A76182  38.430  34.492   7.246
 5988POPC   C1B76183  38.036  34.207   6.199
 5988POPC   C2B76184  38.288  34.206   6.552
 5988POPC   C3B76185  38.126  34.200   6.934
 5988POPC   C4B76186  38.071  34.012   7.299
 5989POPC   NC376187   5.831   8.008   5.299
 5989POPC   PO476188   5.879   8.718   5.362
 5989POPC   GL176189   5.673   8.453   5.716
 5989POPC   GL276190   5.607   8.095   5.747
 5989POPC   C1A76191   5.755   8.332   6.179
 5989POPC   D2A76192   6.110   8.292   6.480
 5989POPC   C3A76193   6.014   8.172   6.896
 5989POPC   C4A76194   5.588   8.249   7.043
 5989POPC   C1B76195   5.668   7.827   6.082
 5989POPC   C2B76196   5.821   7.842   6.483
 5989POPC   C3B76197   5.620   7.767   6.830
 5989POPC   C4B76198   5.456   7.725   7.224
 5990POPC   NC376199  36.363   0.631   5.299
 5990POPC   PO476200  36.212   1.344   5.312
 5990POPC   GL176201  36.100   1.203   5.739
 5990POPC   GL276202  36.182   0.860   5.725
 5990POPC   C1A76203  36.235   1.321   6.156
 5990POPC   D2A76204  36.486   1.289   6.553
 5990POPC   C3A76205  36.385   1.175   6.967
 5990POPC   C4A76206  36.294   1.443   7.315
 5990POPC   C1B76207  36.394   0.838   6.131
 5990POPC   C2B76208  36.334   0.782   6.588
 5990POPC   C3B76209  36.094   0.724   6.984
 5990POPC   C4B76210  36.010   1.025   7.308
 5991POPC   NC376211  37.185  28.905   5.231
 5991POPC   PO476212  36.968  29.511   5.331
 5991POPC   GL176213  36.947  29.187   5.646
 5991POPC   GL276214  36.657  29.243   5.884
 5991POPC   C1A76215  37.118  29.134   6.066
 5991POPC   D2A76216  36.927  29.275   6.451
 5991POPC   C3A76217  37.031  29.139   6.876
 5991POPC   C4A76218  37.222  29.404   7.220
 5991POPC   C1B76219  36.477  29.487   6.234
 5991POPC   C2B76220  36.502  29.441   6.658
 5991POPC   C3B76221  36.419  29.332   7.040
 5991POPC   C4B76222  36.679  29.038   7.244
 5992POPC   NC376223  43.710   6.393   5.109
 5992POPC   PO476224  44.085   6.890   5.135
 5992POPC   GL176225  44.043   6.702   5.561
 5992POPC   GL276226  44.064   6.372   5.654
 5992POPC   C1A76227  43.964   6.742   6.030
 5992POPC   D2A76228  44.043   6.624   6.491
 5992POPC   C3A76229  44.013   6.935   6.850
 5992POPC   C4A76230  43.757   6.853   7.225
 5992POPC   C1B76231  43.778   6.268   6.036
 5992POPC   C2B76232  43.724   6.159   6.482
 5992POPC   C3B76233  43.618   6.126   6.917
 5992POPC   C4B76234  43.824   6.301   7.299
 5993POPC   NC376235  35.128  18.023   5.586
 5993POPC   PO476236  35.322  18.576   5.474
 5993POPC   GL176237  35.478  18.309   5.833
 5993POPC   GL276238  35.421  17.962   5.977
 5993POPC   C1A76239  35.689  18.336   6.233
 5993POPC   D2A76240  35.560  18.557   6.592
 5993POPC   C3A76241  35.340  18.360   6.905
 5993POPC   C4A76242  35.440  18.065   7.209
 5993POPC   C1B76243  35.009  18.045   6.206
 5993POPC   C2B76244  34.918  18.204   6.585
 5993POPC   C3B76245  34.989  18.010   6.962
 5993POPC   C4B76246  34.954  18.169   7.337
 5994POPC   NC376247  31.303   0.125   5.229
 5994POPC   PO476248  31.889   0.239   5.523
 5994POPC   GL176249  31.517   0.403   5.740
 5994POPC   GL276250  31.307   0.090   5.758
 5994POPC   C1A76251  31.485   0.657   6.145
 5994POPC   D2A76252  31.648   0.910   6.526
 5994POPC   C3A76253  31.529   0.713   6.917
 5994POPC   C4A76254  31.157   0.741   7.195
 5994POPC   C1B76255  31.482   0.098   6.185
 5994POPC   C2B76256  31.438   0.281   6.615
 5994POPC   C3B76257  31.356   0.237   7.074
 5994POPC   C4B76258  31.444   0.230   7.516
 5995POPC   NC376259  23.337  18.089   5.356
 5995POPC   PO476260  22.718  18.346   5.355
 5995POPC   GL176261  23.005  18.308   5.718
 5995POPC   GL276262  23.069  17.994   5.794
 5995POPC   C1A76263  23.087  18.531   6.117
 5995POPC   D2A76264  23.197  18.605   6.585
 5995POPC   C3A76265  22.925  18.607   6.953
 5995POPC   C4A76266  22.631  18.397   7.223
 5995POPC   C1B76267  22.773  18.145   6.135
 5995POPC   C2B76268  22.865  18.178   6.576
 5995POPC   C3B76269  22.622  17.999   6.894
 5995POPC   C4B76270  22.623  17.724   7.244
 5996POPC   NC376271  15.124  41.685   5.260
 5996POPC   PO476272  15.325  41.088   5.470
 5996POPC   GL176273  15.384  41.449   5.743
 5996POPC   GL276274  15.603  41.376   6.005
 5996POPC   C1A76275  15.209  41.652   6.149
 5996POPC   D2A76276  14.968  41.556   6.515
 5996POPC   C3A76277  15.056  41.750   6.881
 5996POPC   C4A76278  15.046  41.515   7.263
 5996POPC   C1B76279  15.410  41.207   6.395
 5996POPC   C2B76280  15.354  41.319   6.843
 5996POPC   C3B76281  15.534  41.314   7.290
 5996POPC   C4B76282  15.760  41.234   7.721
 5997POPC   NC376283  44.566  28.682   5.675
 5997POPC   PO476284  44.650  29.310   5.396
 5997POPC   GL176285  44.522  29.246   5.810
 5997POPC   GL276286  44.246  29.451   5.879
 5997POPC   C1A76287  44.453  29.023   6.203
 5997POPC   D2A76288  44.703  28.956   6.524
 5997POPC   C3A76289  44.579  29.034   6.961
 5997POPC   C4A76290  44.843  29.155   7.304
 5997POPC   C1B76291  44.394  29.523   6.274
 5997POPC   C2B76292  44.335  29.394   6.695
 5997POPC   C3B76293  44.553  29.548   7.078
 5997POPC   C4B76294  44.515  29.533   7.549
 5998POPC   NC376295  10.799  28.453   5.510
 5998POPC   PO476296  10.115  28.649   5.537
 5998POPC   GL176297  10.390  28.294   5.821
 5998POPC   GL276298  10.748  28.166   5.922
 5998POPC   C1A76299  10.321  28.183   6.267
 5998POPC   D2A76300  10.113  28.474   6.592
 5998POPC   C3A76301  10.311  28.437   7.002
 5998POPC   C4A76302  10.245  28.094   7.302
 5998POPC   C1B76303  10.753  28.477   6.213
 5998POPC   C2B76304  10.664  28.416   6.615
 5998POPC   C3B76305  10.796  28.580   6.977
 5998POPC   C4B76306  10.825  28.709   7.360
 5999POPC   NC376307  20.703  18.488   5.466
 5999POPC   PO476308  20.617  19.207   5.354
 5999POPC   GL176309  20.594  19.094   5.791
 5999POPC   GL276310  20.656  18.767   5.869
 5999POPC   C1A76311  20.467  19.044   6.235
 5999POPC   D2A76312  20.664  19.002   6.602
 5999POPC   C3A76313  20.605  19.315   6.872
 5999POPC   C4A76314  20.609  19.234   7.290
 5999POPC   C1B76315  20.945  18.817   6.200
 5999POPC   C2B76316  21.156  18.838   6.606
 5999POPC   C3B76317  20.942  18.835   7.024
 5999POPC   C4B76318  20.678  18.703   7.392
 6000POPC   NC376319  40.234  21.400   5.481
 6000POPC   PO476320  40.933  21.459   5.497
 6000POPC   GL176321  40.655  21.378   5.840
 6000POPC   GL276322  40.639  21.020   5.941
 6000POPC   C1A76323  40.565  21.522   6.277
 6000POPC   D2A76324  40.454  21.365   6.601
 6000POPC   C3A76325  40.632  21.498   6.932
 6000POPC   C4A76326  40.480  21.425   7.330
 6000POPC   C1B76327  40.976  21.251   6.224
 6000POPC   C2B76328  41.019  21.601   6.535
 6000POPC   C3B76329  41.173  21.553   6.947
 6000POPC   C4B76330  40.979  21.227   7.167
 6001POPC   NC376331  25.639  37.406   5.518
 6001POPC   PO476332  25.079  37.688   5.256
 6001POPC   GL176333  24.956  37.683   5.707
 6001POPC   GL276334  24.722  37.955   5.775
 6001POPC   C1A76335  25.109  37.572   6.130
 6001POPC   D2A76336  25.316  37.764   6.502
 6001POPC   C3A76337  25.428  37.530   6.886
 6001POPC   C4A76338  25.665  37.676   7.234
 6001POPC   C1B76339  24.886  38.053   6.204
 6001POPC   C2B76340  24.993  38.172   6.624
 6001POPC   C3B76341  25.077  37.897   6.952
 6001POPC   C4B76342  25.226  37.885   7.368
 6002POPC   NC376343  15.489  30.084   5.490
 6002POPC   PO476344  14.946  29.712   5.652
 6002POPC   GL176345  14.800  29.987   5.947
 6002POPC   GL276346  15.053  30.181   5.856
 6002POPC   C1A76347  14.913  30.050   6.390
 6002POPC   D2A76348  15.059  29.799   6.687
 6002POPC   C3A76349  14.951  29.828   7.079
 6002POPC   C4A76350  15.337  29.734   7.294
 6002POPC   C1B76351  15.369  30.231   6.154
 6002POPC   C2B76352  15.369  30.415   6.551
 6002POPC   C3B76353  15.349  30.172   6.909
 6002POPC   C4B76354  15.208  30.226   7.290
 6003POPC   NC376355  39.882  24.613   5.516
 6003POPC   PO476356  40.186  23.958   5.470
 6003POPC   GL176357  39.963  24.166   5.788
 6003POPC   GL276358  40.231  24.433   5.838
 6003POPC   C1A76359  39.772  24.400   6.133
 6003POPC   D2A76360  39.790  24.600   6.508
 6003POPC   C3A76361  39.801  24.324   6.834
 6003POPC   C4A76362  39.874  24.636   7.172
 6003POPC   C1B76363  40.348  24.139   6.156
 6003POPC   C2B76364  40.224  24.214   6.556
 6003POPC   C3B76365  40.273  24.494   6.891
 6003POPC   C4B76366  40.277  24.326   7.306
 6004POPC   NC376367   8.837  21.404   5.420
 6004POPC   PO476368   9.509  21.089   5.642
 6004POPC   GL176369   9.151  21.239   5.904
 6004POPC   GL276370   8.910  21.501   5.902
 6004POPC   C1A76371   9.051  21.299   6.338
 6004POPC   D2A76372   9.230  21.278   6.744
 6004POPC   C3A76373   8.929  21.215   7.033
 6004POPC   C4A76374   9.010  21.152   7.432
 6004POPC   C1B76375   8.801  21.741   6.271
 6004POPC   C2B76376   8.880  21.646   6.709
 6004POPC   C3B76377   8.803  21.700   7.139
 6004POPC   C4B76378   8.863  21.622   7.577
 6005POPC   NC376379  10.306  35.830   5.370
 6005POPC   PO476380  10.254  36.497   5.545
 6005POPC   GL176381  10.501  36.242   5.837
 6005POPC   GL276382  10.851  36.327   5.778
 6005POPC   C1A76383  10.468  36.116   6.298
 6005POPC   D2A76384  10.409  35.789   6.646
 6005POPC   C3A76385  10.270  35.850   7.085
 6005POPC   C4A76386  10.151  36.157   7.415
 6005POPC   C1B76387  10.908  35.945   6.027
 6005POPC   C2B76388  10.886  35.879   6.473
 6005POPC   C3B76389  10.878  35.863   6.926
 6005POPC   C4B76390  10.661  36.144   7.232
 6006POPC   NC376391   5.869  31.996   5.232
 6006POPC   PO476392   6.284  32.478   5.439
 6006POPC   GL176393   6.116  32.281   5.791
 6006POPC   GL276394   6.057  31.961   5.714
 6006POPC   C1A76395   6.100  32.404   6.218
 6006POPC   D2A76396   6.367  32.413   6.570
 6006POPC   C3A76397   6.090  32.328   6.907
 6006POPC   C4A76398   5.791  32.523   7.165
 6006POPC   C1B76399   5.851  31.957   6.139
 6006POPC   C2B76400   5.793  32.061   6.566
 6006POPC   C3B76401   5.630  32.038   6.978
 6006POPC   C4B76402   5.684  31.672   7.205
 6007POPC   NC376403   5.041  27.253   5.485
 6007POPC   PO476404   5.360  27.877   5.446
 6007POPC   GL176405   5.255  27.607   5.808
 6007POPC   GL276406   4.898  27.617   5.855
 6007POPC   C1A76407   5.153  27.303   6.162
 6007POPC   D2A76408   5.311  27.277   6.604
 6007POPC   C3A76409   5.047  27.371   6.987
 6007POPC   C4A76410   4.994  27.445   7.459
 6007POPC   C1B76411   5.049  27.807   6.246
 6007POPC   C2B76412   5.067  27.803   6.697
 6007POPC   C3B76413   5.007  27.854   7.148
 6007POPC   C4B76414   4.670  27.835   7.479
 6008POPC   NC376415  20.438  10.818   5.612
 6008POPC   PO476416  19.877  10.595   5.245
 6008POPC   GL176417  19.874  10.446   5.664
 6008POPC   GL276418  19.910  10.778   5.755
 6008POPC   C1A76419  19.841  10.441   6.150
 6008POPC   D2A76420  19.616  10.261   6.512
 6008POPC   C3A76421  19.823  10.261   6.933
 6008POPC   C4A76422  20.250  10.248   7.137
 6008POPC   C1B76423  19.621  10.897   6.120
 6008POPC   C2B76424  19.820  10.875   6.524
 6008POPC   C3B76425  19.740  10.797   6.960
 6008POPC   C4B76426  19.954  10.629   7.306
 6009POPC   NC376427  37.864  14.877   5.412
 6009POPC   PO476428  37.349  14.478   5.429
 6009POPC   GL176429  37.625  14.395   5.756
 6009POPC   GL276430  37.884  14.617   5.839
 6009POPC   C1A76431  37.554  14.464   6.206
 6009POPC   D2A76432  37.714  14.177   6.533
 6009POPC   C3A76433  37.497  14.180   6.902
 6009POPC   C4A76434  37.500  14.414   7.286
 6009POPC   C1B76435  38.027  14.343   6.145
 6009POPC   C2B76436  38.109  14.507   6.558
 6009POPC   C3B76437  37.919  14.507   7.010
 6009POPC   C4B76438  37.916  14.626   7.526
 6010POPC   NC376439  27.325   9.757   5.433
 6010POPC   PO476440  27.692  10.276   5.212
 6010POPC   GL176441  27.675  10.468   5.692
 6010POPC   GL276442  27.858  10.764   5.782
 6010POPC   C1A76443  27.449  10.509   6.110
 6010POPC   D2A76444  27.322  10.626   6.565
 6010POPC   C3A76445  27.501  10.452   6.997
 6010POPC   C4A76446  27.307  10.143   7.317
 6010POPC   C1B76447  27.739  10.909   6.205
 6010POPC   C2B76448  27.832  10.710   6.593
 6010POPC   C3B76449  28.017  10.478   6.911
 6010POPC   C4B76450  27.928  10.677   7.265
 6011POPC   NC376451  18.643   1.041   5.355
 6011POPC   PO476452  18.172   1.520   5.566
 6011POPC   GL176453  18.254   1.108   5.822
 6011POPC   GL276454  18.566   0.959   5.871
 6011POPC   C1A76455  18.213   1.066   6.257
 6011POPC   D2A76456  18.434   1.186   6.655
 6011POPC   C3A76457  18.218   1.246   7.071
 6011POPC   C4A76458  18.146   1.548   7.413
 6011POPC   C1B76459  18.737   0.892   6.305
 6011POPC   C2B76460  18.713   0.783   6.771
 6011POPC   C3B76461  18.625   0.939   7.231
 6011POPC   C4B76462  18.695   1.053   7.698
 6012POPC   NC376463  31.629  17.953   5.352
 6012POPC   PO476464  31.540  18.588   5.360
 6012POPC   GL176465  31.366  18.364   5.694
 6012POPC   GL276466  31.673  18.212   5.807
 6012POPC   C1A76467  31.366  18.490   6.137
 6012POPC   D2A76468  31.699  18.485   6.448
 6012POPC   C3A76469  31.609  18.325   6.855
 6012POPC   C4A76470  31.308  18.552   7.105
 6012POPC   C1B76471  31.601  18.040   6.211
 6012POPC   C2B76472  31.830  17.920   6.560
 6012POPC   C3B76473  31.739  17.843   6.994
 6012POPC   C4B76474  31.374  17.980   7.184
 6013POPC   NC376475   3.132  25.968   5.313
 6013POPC   PO476476   2.455  26.070   5.236
 6013POPC   GL176477   2.538  26.102   5.688
 6013POPC   GL276478   2.835  25.924   5.704
 6013POPC   C1A76479   2.521  25.873   6.097
 6013POPC   D2A76480   2.537  25.722   6.517
 6013POPC   C3A76481   2.375  26.019   6.800
 6013POPC   C4A76482   2.568  26.242   7.122
 6013POPC   C1B76483   3.033  25.823   6.056
 6013POPC   C2B76484   2.984  25.958   6.483
 6013POPC   C3B76485   2.864  25.839   6.923
 6013POPC   C4B76486   3.131  25.625   7.212
 6014POPC   NC376487  38.017  40.731   5.497
 6014POPC   PO476488  37.513  40.284   5.605
 6014POPC   GL176489  37.633  40.619   5.882
 6014POPC   GL276490  37.983  40.640   6.005
 6014POPC   C1A76491  37.589  40.857   6.249
 6014POPC   D2A76492  37.652  41.030   6.660
 6014POPC   C3A76493  37.528  40.807   7.032
 6014POPC   C4A76494  37.218  40.533   7.203
 6014POPC   C1B76495  38.065  41.062   6.186
 6014POPC   C2B76496  38.047  41.334   6.563
 6014POPC   C3B76497  38.122  41.183   6.998
 6014POPC   C4B76498  37.871  41.016   7.340
 6015POPC   NC376499  17.075  16.977   5.466
 6015POPC   PO476500  16.551  16.645   5.434
 6015POPC   GL176501  16.728  16.775   5.854
 6015POPC   GL276502  16.953  17.039   5.958
 6015POPC   C1A76503  16.780  16.636   6.281
 6015POPC   D2A76504  16.998  16.390   6.583
 6015POPC   C3A76505  16.893  16.575   6.962
 6015POPC   C4A76506  16.787  16.657   7.407
 6015POPC   C1B76507  16.762  17.147   6.360
 6015POPC   C2B76508  16.478  16.964   6.638
 6015POPC   C3B76509  16.541  16.946   7.058
 6015POPC   C4B76510  16.925  17.097   7.226
 6016POPC   NC376511  25.305  16.618   5.264
 6016POPC   PO476512  25.204  17.260   5.257
 6016POPC   GL176513  25.143  16.960   5.638
 6016POPC   GL276514  25.060  16.563   5.701
 6016POPC   C1A76515  25.277  16.877   6.070
 6016POPC   D2A76516  25.169  16.671   6.478
 6016POPC   C3A76517  25.318  16.853   6.857
 6016POPC   C4A76518  25.549  16.723   7.223
 6016POPC   C1B76519  25.348  16.377   6.033
 6016POPC   C2B76520  25.363  16.193   6.458
 6016POPC   C3B76521  25.320  16.329   6.879
 6016POPC   C4B76522  25.177  16.370   7.272
 6017POPC   NC376523  16.574   4.147   5.456
 6017POPC   PO476524  16.533   3.480   5.351
 6017POPC   GL176525  16.471   3.742   5.749
 6017POPC   GL276526  16.812   3.861   5.856
 6017POPC   C1A76527  16.447   3.686   6.208
 6017POPC   D2A76528  16.614   3.365   6.504
 6017POPC   C3A76529  16.590   3.377   6.955
 6017POPC   C4A76530  16.728   3.714   7.213
 6017POPC   C1B76531  16.978   3.650   6.255
 6017POPC   C2B76532  17.092   3.496   6.685
 6017POPC   C3B76533  17.141   3.399   7.143
 6017POPC   C4B76534  17.130   3.692   7.527
 6018POPC   NC376535  23.642  30.331   5.189
 6018POPC   PO476536  23.636  31.003   5.273
 6018POPC   GL176537  23.636  30.878   5.692
 6018POPC   GL276538  23.445  30.595   5.846
 6018POPC   C1A76539  23.860  30.870   6.081
 6018POPC   D2A76540  23.763  30.582   6.406
 6018POPC   C3A76541  23.706  30.703   6.841
 6018POPC   C4A76542  23.641  30.564   7.244
 6018POPC   C1B76543  23.353  30.894   6.188
 6018POPC   C2B76544  23.360  31.010   6.631
 6018POPC   C3B76545  23.310  30.957   7.095
 6018POPC   C4B76546  23.212  31.053   7.583
 6019POPC   NC376547   5.443  34.732   5.400
 6019POPC   PO476548   4.857  34.383   5.253
 6019POPC   GL176549   5.042  34.567   5.680
 6019POPC   GL276550   5.350  34.362   5.758
 6019POPC   C1A76551   5.127  34.850   6.077
 6019POPC   D2A76552   4.902  34.895   6.495
 6019POPC   C3A76553   5.069  34.864   6.940
 6019POPC   C4A76554   4.900  34.742   7.338
 6019POPC   C1B76555   5.475  34.500   6.183
 6019POPC   C2B76556   5.230  34.499   6.605
 6019POPC   C3B76557   5.207  34.383   7.066
 6019POPC   C4B76558   5.296  34.490   7.532
 6020POPC   NC376559  36.639  43.793   5.465
 6020POPC   PO476560  37.348  44.083   5.414
 6020POPC   GL176561  37.018  44.037   5.737
 6020POPC   GL276562  37.032  43.661   5.810
 6020POPC   C1A76563  36.824  44.125   6.148
 6020POPC   D2A76564  36.824  44.381   6.520
 6020POPC   C3A76565  36.673  44.227   6.940
 6020POPC   C4A76566  36.956  44.065   7.247
 6020POPC   C1B76567  36.743  43.612   6.166
 6020POPC   C2B76568  36.702  43.839   6.584
 6020POPC   C3B76569  36.645  43.714   7.017
 6020POPC   C4B76570  36.665  43.569   7.465
 6021POPC   NC376571  44.173   3.014   5.683
 6021POPC   PO476572  43.752   2.905   5.151
 6021POPC   GL176573  43.804   2.667   5.628
 6021POPC   GL276574  44.153   2.511   5.681
 6021POPC   C1A76575  43.660   2.561   6.078
 6021POPC   D2A76576  43.675   2.803   6.503
 6021POPC   C3A76577  43.655   2.615   6.923
 6021POPC   C4A76578  43.697   2.699   7.377
 6021POPC   C1B76579  44.193   2.475   6.145
 6021POPC   C2B76580  44.225   2.549   6.608
 6021POPC   C3B76581  44.160   2.670   7.053
 6021POPC   C4B76582  44.143   2.457   7.441
 6022POPC   NC376583  38.926  13.441   5.530
 6022POPC   PO476584  39.546  13.586   5.451
 6022POPC   GL176585  39.374  13.363   5.822
 6022POPC   GL276586  39.220  13.683   5.891
 6022POPC   C1A76587  39.271  13.366   6.303
 6022POPC   D2A76588  39.103  13.641   6.633
 6022POPC   C3A76589  39.127  13.558   7.062
 6022POPC   C4A76590  39.229  13.350   7.447
 6022POPC   C1B76591  39.427  13.854   6.265
 6022POPC   C2B76592  39.456  14.111   6.631
 6022POPC   C3B76593  39.452  13.965   7.060
 6022POPC   C4B76594  39.213  13.875   7.449
 6023POPC   NC376595   2.665  21.832   5.476
 6023POPC   PO476596   2.553  22.485   5.360
 6023POPC   GL176597   2.727  22.517   5.749
 6023POPC   GL276598   2.916  22.204   5.741
 6023POPC   C1A76599   2.749  22.445   6.162
 6023POPC   D2A76600   2.846  22.163   6.455
 6023POPC   C3A76601   2.678  22.274   6.828
 6023POPC   C4A76602   2.781  22.199   7.233
 6023POPC   C1B76603   3.025  21.860   6.030
 6023POPC   C2B76604   3.174  21.777   6.458
 6023POPC   C3B76605   3.109  21.895   6.891
 6023POPC   C4B76606   3.023  21.735   7.302
 6024POPC   NC376607  41.698  18.795   5.391
 6024POPC   PO476608  41.079  18.696   5.624
 6024POPC   GL176609  41.435  18.908   5.848
 6024POPC   GL276610  41.619  19.245   5.804
 6024POPC   C1A76611  41.781  18.898   6.167
 6024POPC   D2A76612  41.851  18.631   6.550
 6024POPC   C3A76613  41.601  18.778   6.923
 6024POPC   C4A76614  41.298  19.019   7.171
 6024POPC   C1B76615  41.905  19.445   6.106
 6024POPC   C2B76616  42.064  19.362   6.537
 6024POPC   C3B76617  41.860  19.271   6.959
 6024POPC   C4B76618  41.716  19.293   7.411
 6025POPC   NC376619  27.077  41.608   5.505
 6025POPC   PO476620  27.785  41.566   5.547
 6025POPC   GL176621  27.523  41.503   5.897
 6025POPC   GL276622  27.225  41.705   5.996
 6025POPC   C1A76623  27.633  41.634   6.324
 6025POPC   D2A76624  28.016  41.581   6.582
 6025POPC   C3A76625  27.911  41.320   6.944
 6025POPC   C4A76626  27.745  41.410   7.372
 6025POPC   C1B76627  27.219  41.298   6.257
 6025POPC   C2B76628  27.392  41.198   6.635
 6025POPC   C3B76629  27.406  41.455   6.975
 6025POPC   C4B76630  27.475  41.804   7.223
 6026POPC   NC376631  24.031  13.728   5.398
 6026POPC   PO476632  24.643  13.967   5.401
 6026POPC   GL176633  24.603  13.611   5.736
 6026POPC   GL276634  24.662  13.258   5.724
 6026POPC   C1A76635  24.512  13.435   6.171
 6026POPC   D2A76636  24.230  13.369   6.508
 6026POPC   C3A76637  24.400  13.441   6.909
 6026POPC   C4A76638  24.247  13.724   7.235
 6026POPC   C1B76639  24.895  13.107   6.110
 6026POPC   C2B76640  24.778  13.176   6.558
 6026POPC   C3B76641  24.893  13.308   6.970
 6026POPC   C4B76642  24.694  13.476   7.339
 6027POPC   NC376643  38.230  31.744   5.032
 6027POPC   PO476644  38.259  32.333   5.414
 6027POPC   GL176645  38.294  32.462   5.806
 6027POPC   GL276646  38.230  32.141   5.913
 6027POPC   C1A76647  38.498  32.390   6.240
 6027POPC   D2A76648  38.496  32.161   6.612
 6027POPC   C3A76649  38.486  32.350   7.036
 6027POPC   C4A76650  38.744  32.241   7.386
 6027POPC   C1B76651  38.250  31.846   6.219
 6027POPC   C2B76652  38.100  31.798   6.630
 6027POPC   C3B76653  38.348  31.827   6.984
 6027POPC   C4B76654  38.350  31.915   7.391
 6028POPC   NC376655  22.805   0.155   5.386
 6028POPC   PO476656  23.245  44.579   5.375
 6028POPC   GL176657  23.039  44.547   5.787
 6028POPC   GL276658  22.747  44.739   5.789
 6028POPC   C1A76659  22.833  44.361   6.164
 6028POPC   D2A76660  23.084  44.298   6.557
 6028POPC   C3A76661  22.953  44.426   6.968
 6028POPC   C4A76662  23.277  44.550   7.264
 6028POPC   C1B76663  22.943  44.864   6.227
 6028POPC   C2B76664  22.954  44.868   6.706
 6028POPC   C3B76665  22.906  44.911   7.179
 6028POPC   C4B76666  22.630  44.883   7.559
 6029POPC   NC376667  38.271  20.894   5.461
 6029POPC   PO476668  38.566  20.315   5.402
 6029POPC   GL176669  38.468  20.434   5.836
 6029POPC   GL276670  38.730  20.678   5.867
 6029POPC   C1A76671  38.608  20.317   6.287
 6029POPC   D2A76672  38.430  20.310   6.743
 6029POPC   C3A76673  38.529  20.567   7.136
 6029POPC   C4A76674  38.569  20.424   7.589
 6029POPC   C1B76675  38.438  20.825   6.218
 6029POPC   C2B76676  38.309  20.804   6.675
 6029POPC   C3B76677  38.149  20.919   7.112
 6029POPC   C4B76678  38.370  20.880   7.551
 6030POPC   NC376679  41.689  38.584   5.510
 6030POPC   PO476680  41.501  38.004   5.365
 6030POPC   GL176681  41.658  38.099   5.790
 6030POPC   GL276682  41.484  38.409   5.939
 6030POPC   C1A76683  41.732  38.060   6.215
 6030POPC   D2A76684  41.456  38.269   6.488
 6030POPC   C3A76685  41.486  38.293   6.906
 6030POPC   C4A76686  41.515  38.428   7.308
 6030POPC   C1B76687  41.775  38.605   6.254
 6030POPC   C2B76688  41.708  38.705   6.691
 6030POPC   C3B76689  41.378  38.806   6.986
 6030POPC   C4B76690  41.379  38.938   7.408
 6031POPC   NC376691  33.176   8.434   5.552
 6031POPC   PO476692  32.988   7.801   5.402
 6031POPC   GL176693  33.044   8.002   5.801
 6031POPC   GL276694  33.258   7.838   6.015
 6031POPC   C1A76695  33.034   8.299   6.193
 6031POPC   D2A76696  32.822   8.497   6.570
 6031POPC   C3A76697  32.975   8.356   6.976
 6031POPC   C4A76698  33.153   8.612   7.279
 6031POPC   C1B76699  32.848   7.820   6.230
 6031POPC   C2B76700  32.858   7.985   6.628
 6031POPC   C3B76701  32.933   7.831   7.022
 6031POPC   C4B76702  32.745   8.016   7.357
 6032POPC   NC376703  25.058  19.023   5.521
 6032POPC   PO476704  25.739  18.933   5.445
 6032POPC   GL176705  25.514  19.047   5.830
 6032POPC   GL276706  25.171  18.906   5.990
 6032POPC   C1A76707  25.597  18.948   6.260
 6032POPC   D2A76708  25.791  18.736   6.631
 6032POPC   C3A76709  25.459  18.750   6.973
 6032POPC   C4A76710  25.455  18.954   7.387
 6032POPC   C1B76711  25.200  19.305   6.163
 6032POPC   C2B76712  25.332  19.343   6.571
 6032POPC   C3B76713  25.323  19.334   7.011
 6032POPC   C4B76714  25.119  19.359   7.406
 6033POPC   NC376715   8.368  14.901   5.128
 6033POPC   PO476716   8.442  14.247   5.365
 6033POPC   GL176717   8.144  14.441   5.638
 6033POPC   GL276718   8.340  14.360   5.864
 6033POPC   C1A76719   8.062  14.626   6.144
 6033POPC   D2A76720   8.057  14.435   6.566
 6033POPC   C3A76721   8.014  14.587   6.967
 6033POPC   C4A76722   8.099  14.528   7.372
 6033POPC   C1B76723   8.524  14.479   6.247
 6033POPC   C2B76724   8.478  14.703   6.650
 6033POPC   C3B76725   8.545  14.660   7.092
 6033POPC   C4B76726   8.562  14.596   7.559
 6034POPC   NC376727  24.395  25.526   5.359
 6034POPC   PO476728  24.697  24.913   5.356
 6034POPC   GL176729  24.522  25.138   5.718
 6034POPC   GL276730  24.695  25.475   5.794
 6034POPC   C1A76731  24.242  25.087   6.093
 6034POPC   D2A76732  24.279  25.272   6.507
 6034POPC   C3A76733  24.293  25.072   6.914
 6034POPC   C4A76734  24.231  25.401   7.243
 6034POPC   C1B76735  24.724  25.257   6.198
 6034POPC   C2B76736  24.774  25.144   6.641
 6034POPC   C3B76737  24.725  25.305   7.073
 6034POPC   C4B76738  24.568  25.101   7.459
 6035POPC   NC376739   5.884  40.416   5.311
 6035POPC   PO476740   5.693  41.085   5.275
 6035POPC   GL176741   5.803  40.913   5.669
 6035POPC   GL276742   5.588  40.691   5.710
 6035POPC   C1A76743   5.915  40.791   6.108
 6035POPC   D2A76744   6.093  40.577   6.449
 6035POPC   C3A76745   5.914  40.729   6.790
 6035POPC   C4A76746   5.896  40.684   7.180
 6035POPC   C1B76747   5.458  40.558   6.119
 6035POPC   C2B76748   5.585  40.379   6.509
 6035POPC   C3B76749   5.496  40.451   6.924
 6035POPC   C4B76750   5.417  40.600   7.309
 6036POPC   NC376751  16.999   0.670   5.210
 6036POPC   PO476752  16.674   0.161   5.365
 6036POPC   GL176753  16.724   0.418   5.701
 6036POPC   GL276754  16.381   0.411   5.800
 6036POPC   C1A76755  16.828   0.501   6.140
 6036POPC   D2A76756  16.848   0.186   6.477
 6036POPC   C3A76757  16.938   0.291   6.893
 6036POPC   C4A76758  17.000   0.105   7.297
 6036POPC   C1B76759  16.477   0.106   6.113
 6036POPC   C2B76760  16.349   0.118   6.570
 6036POPC   C3B76761  16.438   0.498   6.825
 6036POPC   C4B76762  16.634   0.531   7.227
 6037POPC   NC376763  18.329  35.670   5.484
 6037POPC   PO476764  18.072  35.090   5.299
 6037POPC   GL176765  18.067  35.239   5.727
 6037POPC   GL276766  18.440  35.233   5.732
 6037POPC   C1A76767  17.940  35.332   6.170
 6037POPC   D2A76768  17.988  35.566   6.581
 6037POPC   C3A76769  17.923  35.407   6.985
 6037POPC   C4A76770  17.966  35.097   7.302
 6037POPC   C1B76771  18.456  35.487   6.144
 6037POPC   C2B76772  18.504  35.657   6.597
 6037POPC   C3B76773  18.743  35.562   6.986
 6037POPC   C4B76774  18.810  35.144   7.168
 6038POPC   NC376775  43.666  41.078   5.274
 6038POPC   PO476776  44.045  41.665   5.441
 6038POPC   GL176777  43.884  41.500   5.826
 6038POPC   GL276778  43.687  41.728   5.940
 6038POPC   C1A76779  43.950  41.370   6.251
 6038POPC   D2A76780  44.133  41.256   6.642
 6038POPC   C3A76781  43.949  41.438   7.013
 6038POPC   C4A76782  43.883  41.175   7.343
 6038POPC   C1B76783  43.874  41.914   6.227
 6038POPC   C2B76784  43.810  41.766   6.613
 6038POPC   C3B76785  43.662  41.918   6.998
 6038POPC   C4B76786  43.441  41.676   7.300
 6039POPC   NC376787  24.865  40.620   5.491
 6039POPC   PO476788  24.571  39.953   5.378
 6039POPC   GL176789  24.586  40.250   5.734
 6039POPC   GL276790  24.626  39.996   5.966
 6039POPC   C1A76791  24.527  40.450   6.178
 6039POPC   D2A76792  24.562  40.069   6.495
 6039POPC   C3A76793  24.445  40.171   6.911
 6039POPC   C4A76794  24.445  40.564   7.147
 6039POPC   C1B76795  24.324  39.726   6.197
 6039POPC   C2B76796  24.407  39.508   6.605
 6039POPC   C3B76797  24.377  39.587   7.051
 6039POPC   C4B76798  24.055  39.447   7.361
 6040POPC   NC376799  38.567  31.995   5.506
 6040POPC   PO476800  39.169  32.357   5.432
 6040POPC   GL176801  39.136  32.205   5.816
 6040POPC   GL276802  38.797  32.354   5.810
 6040POPC   C1A76803  39.355  32.013   6.162
 6040POPC   D2A76804  39.550  32.126   6.559
 6040POPC   C3A76805  39.324  32.208   6.897
 6040POPC   C4A76806  39.228  32.027   7.261
 6040POPC   C1B76807  38.977  32.553   6.165
 6040POPC   C2B76808  38.982  32.421   6.586
 6040POPC   C3B76809  38.975  32.552   7.030
 6040POPC   C4B76810  39.168  32.489   7.464
 6041POPC   NC376811  22.125  10.451   5.401
 6041POPC   PO476812  21.689  10.819   5.603
 6041POPC   GL176813  21.998  10.700   5.858
 6041POPC   GL276814  22.328  10.783   5.776
 6041POPC   C1A76815  22.185  10.510   6.228
 6041POPC   D2A76816  21.953  10.457   6.597
 6041POPC   C3A76817  22.081  10.633   6.968
 6041POPC   C4A76818  22.404  10.528   7.211
 6041POPC   C1B76819  22.585  10.823   6.160
 6041POPC   C2B76820  22.588  10.697   6.621
 6041POPC   C3B76821  22.718  10.876   7.021
 6041POPC   C4B76822  22.582  10.951   7.483
 6042POPC   NC376823  24.490  41.814   5.184
 6042POPC   PO476824  24.755  41.289   5.458
 6042POPC   GL176825  24.530  41.440   5.842
 6042POPC   GL276826  24.195  41.360   5.953
 6042POPC   C1A76827  24.559  41.497   6.287
 6042POPC   D2A76828  24.336  41.367   6.621
 6042POPC   C3A76829  24.590  41.515   6.887
 6042POPC   C4A76830  24.652  41.423   7.295
 6042POPC   C1B76831  24.164  41.781   6.181
 6042POPC   C2B76832  24.327  41.934   6.573
 6042POPC   C3B76833  24.242  41.886   7.002
 6042POPC   C4B76834  24.160  41.495   7.153
 6043POPC   NC376835  11.067  29.415   5.462
 6043POPC   PO476836  11.415  29.943   5.317
 6043POPC   GL176837  11.375  29.866   5.728
 6043POPC   GL276838  11.694  30.028   5.790
 6043POPC   C1A76839  11.113  29.842   6.120
 6043POPC   D2A76840  11.348  29.773   6.498
 6043POPC   C3A76841  11.143  29.780   6.903
 6043POPC   C4A76842  11.317  29.840   7.323
 6043POPC   C1B76843  11.470  30.204   6.128
 6043POPC   C2B76844  11.342  30.290   6.521
 6043POPC   C3B76845  11.476  30.162   6.899
 6043POPC   C4B76846  11.317  30.319   7.257
 6044POPC   NC376847  38.219  18.210   5.511
 6044POPC   PO476848  38.941  18.152   5.543
 6044POPC   GL176849  38.630  18.194   5.866
 6044POPC   GL276850  38.515  18.522   5.800
 6044POPC   C1A76851  38.463  18.118   6.298
 6044POPC   D2A76852  38.216  17.908   6.632
 6044POPC   C3A76853  38.326  17.991   7.059
 6044POPC   C4A76854  38.567  18.291   7.282
 6044POPC   C1B76855  38.251  18.604   6.179
 6044POPC   C2B76856  38.104  18.414   6.561
 6044POPC   C3B76857  38.147  18.467   6.994
 6044POPC   C4B76858  38.011  18.550   7.401
 6045POPC   NC376859  28.781  29.181   5.543
 6045POPC   PO476860  28.274  29.340   5.124
 6045POPC   GL176861  28.159  29.099   5.571
 6045POPC   GL276862  28.395  29.048   5.842
 6045POPC   C1A76863  27.931  29.111   6.022
 6045POPC   D2A76864  28.085  29.273   6.453
 6045POPC   C3A76865  28.153  29.195   6.912
 6045POPC   C4A76866  28.062  29.507   7.224
 6045POPC   C1B76867  28.515  29.322   6.185
 6045POPC   C2B76868  28.595  29.227   6.628
 6045POPC   C3B76869  28.726  29.161   7.068
 6045POPC   C4B76870  28.613  29.016   7.478
 6046POPC   NC376871  25.691  32.561   5.568
 6046POPC   PO476872  25.108  32.234   5.336
 6046POPC   GL176873  25.224  32.317   5.760
 6046POPC   GL276874  25.316  32.037   5.947
 6046POPC   C1A76875  25.254  32.533   6.168
 6046POPC   D2A76876  25.198  32.402   6.597
 6046POPC   C3A76877  25.366  32.523   6.992
 6046POPC   C4A76878  25.182  32.410   7.405
 6046POPC   C1B76879  25.490  32.065   6.339
 6046POPC   C2B76880  25.614  32.135   6.770
 6046POPC   C3B76881  25.467  32.035   7.201
 6046POPC   C4B76882  25.471  32.051   7.704
 6047POPC   NC376883  10.521   7.698   5.269
 6047POPC   PO476884  10.881   7.161   5.473
 6047POPC   GL176885  10.794   7.294   5.873
 6047POPC   GL276886  10.564   7.577   5.812
 6047POPC   C1A76887  10.565   7.274   6.258
 6047POPC   D2A76888  10.416   7.489   6.621
 6047POPC   C3A76889  10.566   7.202   6.890
 6047POPC   C4A76890  10.438   6.976   7.212
 6047POPC   C1B76891  10.416   7.792   6.201
 6047POPC   C2B76892  10.194   7.981   6.570
 6047POPC   C3B76893  10.193   7.817   6.990
 6047POPC   C4B76894  10.401   7.526   7.243
 6048POPC   NC376895   9.476   5.724   5.292
 6048POPC   PO476896   8.856   6.040   5.374
 6048POPC   GL176897   9.070   5.800   5.685
 6048POPC   GL276898   9.327   6.015   5.780
 6048POPC   C1A76899   9.044   5.646   6.126
 6048POPC   D2A76900   9.067   5.486   6.565
 6048POPC   C3A76901   8.743   5.606   6.873
 6048POPC   C4A76902   8.866   5.742   7.277
 6048POPC   C1B76903   9.034   6.162   6.097
 6048POPC   C2B76904   8.968   5.987   6.524
 6048POPC   C3B76905   9.195   5.887   6.914
 6048POPC   C4B76906   9.323   6.180   7.250
 6049POPC   NC376907   1.283  30.452   5.002
 6049POPC   PO476908   1.343  30.975   5.495
 6049POPC   GL176909   1.195  30.583   5.766
 6049POPC   GL276910   0.810  30.522   5.794
 6049POPC   C1A76911   1.295  30.438   6.206
 6049POPC   D2A76912   1.607  30.559   6.539
 6049POPC   C3A76913   1.477  30.746   6.944
 6049POPC   C4A76914   1.275  30.621   7.310
 6049POPC   C1B76915   0.828  30.678   6.224
 6049POPC   C2B76916   1.065  30.690   6.627
 6049POPC   C3B76917   0.960  30.896   7.014
 6049POPC   C4B76918   0.814  31.301   7.211
 6050POPC   NC376919  41.407  36.982   5.320
 6050POPC   PO476920  41.810  36.551   5.528
 6050POPC   GL176921  41.473  36.796   5.774
 6050POPC   GL276922  41.712  37.044   5.767
 6050POPC   C1A76923  41.424  37.112   6.168
 6050POPC   D2A76924  41.143  37.240   6.504
 6050POPC   C3A76925  41.276  37.024   6.879
 6050POPC   C4A76926  41.339  37.160   7.282
 6050POPC   C1B76927  41.777  36.745   6.150
 6050POPC   C2B76928  41.584  36.719   6.577
 6050POPC   C3B76929  41.709  36.787   7.041
 6050POPC   C4B76930  41.787  36.581   7.456
 6051POPC   NC376931  31.498  41.402   5.296
 6051POPC   PO476932  31.474  42.100   5.329
 6051POPC   GL176933  31.286  41.834   5.724
 6051POPC   GL276934  31.342  41.456   5.814
 6051POPC   C1A76935  31.464  41.757   6.182
 6051POPC   D2A76936  31.651  41.415   6.454
 6051POPC   C3A76937  31.574  41.488   6.900
 6051POPC   C4A76938  31.492  41.466   7.353
 6051POPC   C1B76939  31.077  41.428   6.206
 6051POPC   C2B76940  31.157  41.339   6.615
 6051POPC   C3B76941  31.104  41.267   7.029
 6051POPC   C4B76942  31.010  41.364   7.436
 6052POPC   NC376943  14.475   6.766   5.387
 6052POPC   PO476944  14.832   6.251   5.478
 6052POPC   GL176945  14.586   6.309   5.879
 6052POPC   GL276946  14.349   6.588   5.852
 6052POPC   C1A76947  14.539   6.514   6.311
 6052POPC   D2A76948  14.218   6.624   6.634
 6052POPC   C3A76949  14.331   6.439   7.026
 6052POPC   C4A76950  14.772   6.383   7.160
 6052POPC   C1B76951  14.160   6.876   6.176
 6052POPC   C2B76952  14.173   7.125   6.576
 6052POPC   C3B76953  14.256   6.970   7.011
 6052POPC   C4B76954  14.047   6.748   7.358
 6053POPC   NC376955   3.629  11.783   5.573
 6053POPC   PO476956   3.187  12.220   5.264
 6053POPC   GL176957   3.372  12.300   5.696
 6053POPC   GL276958   3.751  12.230   5.805
 6053POPC   C1A76959   3.366  12.224   6.150
 6053POPC   D2A76960   3.529  12.160   6.563
 6053POPC   C3A76961   3.313  12.101   6.937
 6053POPC   C4A76962   3.402  12.421   7.206
 6053POPC   C1B76963   3.833  11.949   6.191
 6053POPC   C2B76964   3.908  11.843   6.626
 6053POPC   C3B76965   3.714  11.771   6.978
 6053POPC   C4B76966   3.614  11.940   7.352
 6054POPC   NC376967  16.957  39.955   5.325
 6054POPC   PO476968  16.350  39.929   5.418
 6054POPC   GL176969  16.668  39.874   5.748
 6054POPC   GL276970  16.781  40.238   5.717
 6054POPC   C1A76971  16.678  39.702   6.194
 6054POPC   D2A76972  16.469  39.834   6.574
 6054POPC   C3A76973  16.486  40.132   6.907
 6054POPC   C4A76974  16.449  40.046   7.311
 6054POPC   C1B76975  16.946  40.121   6.109
 6054POPC   C2B76976  16.847  40.226   6.551
 6054POPC   C3B76977  16.979  40.406   6.962
 6054POPC   C4B76978  16.811  40.384   7.393
 6055POPC   NC376979  44.007  44.314   5.265
 6055POPC   PO476980  43.558  44.767   5.132
 6055POPC   GL176981  43.672  44.587   5.553
 6055POPC   GL276982  43.788  44.896   5.659
 6055POPC   C1A76983  43.790  44.487   6.014
 6055POPC   D2A76984  43.805  44.610   6.479
 6055POPC   C3A76985  43.870  44.464   6.919
 6055POPC   C4A76986  44.029  44.682   7.306
 6055POPC   C1B76987  43.819   0.002   6.103
 6055POPC   C2B76988  43.734   0.134   6.539
 6055POPC   C3B76989  43.928   0.029   6.937
 6055POPC   C4B76990  44.079   0.211   7.315
 6056POPC   NC376991  36.440   3.756   5.418
 6056POPC   PO476992  36.046   3.183   5.371
 6056POPC   GL176993  36.174   3.448   5.757
 6056POPC   GL276994  36.121   3.792   5.826
 6056POPC   C1A76995  36.276   3.429   6.237
 6056POPC   D2A76996  36.297   3.250   6.684
 6056POPC   C3A76997  36.236   3.577   6.984
 6056POPC   C4A76998  36.390   3.721   7.388
 6056POPC   C1B76999  35.805   3.604   6.116
 6056POPC   C2B77000  35.867   3.518   6.550
 6056POPC   C3B77001  35.753   3.454   6.961
 6056POPC   C4B77002  35.843   3.674   7.351
 6057POPC   NC377003  33.189   2.891   5.626
 6057POPC   PO477004  33.755   2.818   5.208
 6057POPC   GL177005  33.768   2.807   5.714
 6057POPC   GL277006  33.530   2.642   5.937
 6057POPC   C1A77007  33.986   2.759   6.132
 6057POPC   D2A77008  33.796   2.981   6.470
 6057POPC   C3A77009  33.939   3.070   6.876
 6057POPC   C4A77010  33.971   2.917   7.275
 6057POPC   C1B77011  33.450   2.609   6.368
 6057POPC   C2B77012  33.675   2.579   6.777
 6057POPC   C3B77013  34.097   2.548   6.939
 6057POPC   C4B77014  34.283   2.247   7.221
 6058POPC   NC377015   0.007  25.757   5.413
 6058POPC   PO477016   0.411  26.220   5.122
 6058POPC   GL177017   0.297  26.238   5.623
 6058POPC   GL277018   0.162  25.972   5.846
 6058POPC   C1A77019   0.447  26.349   6.044
 6058POPC   D2A77020   0.286  26.290   6.451
 6058POPC   C3A77021   0.485  26.129   6.825
 6058POPC   C4A77022   0.470  26.453   7.137
 6058POPC   C1B77023  44.952  26.005   6.193
 6058POPC   C2B77024  44.998  25.899   6.602
 6058POPC   C3B77025  44.980  26.188   6.887
 6058POPC   C4B77026   0.123  26.116   7.227
 6059POPC   NC377027  33.009   0.970   5.395
 6059POPC   PO477028  32.780   1.691   5.486
 6059POPC   GL177029  32.770   1.319   5.734
 6059POPC   GL277030  33.124   1.333   5.783
 6059POPC   C1A77031  32.839   1.166   6.177
 6059POPC   D2A77032  32.706   1.095   6.589
 6059POPC   C3A77033  32.826   1.465   6.823
 6059POPC   C4A77034  32.728   1.434   7.241
 6059POPC   C1B77035  33.356   1.276   6.182
 6059POPC   C2B77036  33.255   1.208   6.627
 6059POPC   C3B77037  33.092   1.064   7.017
 6059POPC   C4B77038  33.320   0.932   7.372
 6060POPC   NC377039   5.684  39.919   5.460
 6060POPC   PO477040   6.201  40.444   5.623
 6060POPC   GL177041   6.022  40.143   5.819
 6060POPC   GL277042   5.705  40.228   5.841
 6060POPC   C1A77043   5.950  40.092   6.276
 6060POPC   D2A77044   6.017  39.877   6.675
 6060POPC   C3A77045   5.949  40.210   6.957
 6060POPC   C4A77046   5.746  40.226   7.365
 6060POPC   C1B77047   5.423  40.040   6.110
 6060POPC   C2B77048   5.547  39.851   6.451
 6060POPC   C3B77049   5.518  39.957   6.853
 6060POPC   C4B77050   5.721  39.757   7.187
 6061POPC   NC377051  30.388   6.451   5.258
 6061POPC   PO477052  30.831   6.853   5.439
 6061POPC   GL177053  30.482   6.737   5.734
 6061POPC   GL277054  30.511   6.396   5.828
 6061POPC   C1A77055  30.416   6.741   6.207
 6061POPC   D2A77056  30.662   6.751   6.641
 6061POPC   C3A77057  30.508   6.729   7.112
 6061POPC   C4A77058  30.144   6.735   7.482
 6061POPC   C1B77059  30.863   6.485   6.145
 6061POPC   C2B77060  31.027   6.398   6.599
 6061POPC   C3B77061  31.201   6.535   7.011
 6061POPC   C4B77062  31.073   6.639   7.434
 6062POPC   NC377063   1.266  37.685   5.374
 6062POPC   PO477064   0.885  38.226   5.302
 6062POPC   GL177065   0.941  37.942   5.712
 6062POPC   GL277066   0.757  37.982   6.048
 6062POPC   C1A77067   1.137  37.638   6.057
 6062POPC   D2A77068   1.023  37.614   6.510
 6062POPC   C3A77069   1.287  37.431   6.805
 6062POPC   C4A77070   1.413  37.413   7.221
 6062POPC   C1B77071   1.153  38.073   6.339
 6062POPC   C2B77072   1.212  38.068   6.784
 6062POPC   C3B77073   1.157  37.825   7.154
 6062POPC   C4B77074   1.080  37.969   7.587
 6063POPC   NC377075  41.958   5.406   5.427
 6063POPC   PO477076  42.404   4.833   5.264
 6063POPC   GL177077  42.364   4.842   5.739
 6063POPC   GL277078  42.026   4.971   5.703
 6063POPC   C1A77079  42.490   4.853   6.224
 6063POPC   D2A77080  42.465   5.042   6.680
 6063POPC   C3A77081  42.766   4.932   7.014
 6063POPC   C4A77082  42.629   4.794   7.456
 6063POPC   C1B77083  42.065   5.158   6.094
 6063POPC   C2B77084  42.062   5.303   6.492
 6063POPC   C3B77085  41.985   5.146   6.880
 6063POPC   C4B77086  42.238   5.089   7.229
 6064POPC   NC377087  16.821  31.158   5.492
 6064POPC   PO477088  16.353  31.605   5.528
 6064POPC   GL177089  16.622  31.754   5.880
 6064POPC   GL277090  16.463  32.034   6.046
 6064POPC   C1A77091  16.775  31.532   6.284
 6064POPC   D2A77092  16.667  31.156   6.606
 6064POPC   C3A77093  16.881  31.163   7.044
 6064POPC   C4A77094  17.289  31.202   7.345
 6064POPC   C1B77095  16.539  31.938   6.492
 6064POPC   C2B77096  16.752  31.644   6.781
 6064POPC   C3B77097  16.793  31.655   7.193
 6064POPC   C4B77098  17.116  31.669   7.438
 6065POPC   NC377099  40.795  38.247   5.451
 6065POPC   PO477100  41.165  38.721   5.655
 6065POPC   GL177101  40.909  38.470   5.898
 6065POPC   GL277102  40.618  38.600   5.787
 6065POPC   C1A77103  40.820  38.410   6.315
 6065POPC   D2A77104  41.050  38.536   6.652
 6065POPC   C3A77105  40.975  38.315   6.987
 6065POPC   C4A77106  41.045  38.218   7.389
 6065POPC   C1B77107  40.390  38.611   6.127
 6065POPC   C2B77108  40.442  38.723   6.550
 6065POPC   C3B77109  40.517  38.637   6.938
 6065POPC   C4B77110  40.509  38.337   7.234
 6066POPC   NC377111  19.800  33.322   5.474
 6066POPC   PO477112  19.636  32.708   5.572
 6066POPC   GL177113  19.736  33.070   5.901
 6066POPC   GL277114  19.535  33.480   5.865
 6066POPC   C1A77115  19.847  33.027   6.349
 6066POPC   D2A77116  19.683  33.184   6.746
 6066POPC   C3A77117  19.653  32.815   7.008
 6066POPC   C4A77118  20.070  32.739   7.168
 6066POPC   C1B77119  19.839  33.515   6.204
 6066POPC   C2B77120  20.057  33.559   6.619
 6066POPC   C3B77121  19.973  33.500   7.066
 6066POPC   C4B77122  19.633  33.305   7.303
 6067POPC   NC377123  29.180  42.036   5.357
 6067POPC   PO477124  28.902  42.633   5.270
 6067POPC   GL177125  29.084  42.463   5.651
 6067POPC   GL277126  28.859  42.664   5.847
 6067POPC   C1A77127  28.941  42.161   5.985
 6067POPC   D2A77128  28.950  42.064   6.443
 6067POPC   C3A77129  29.211  42.322   6.737
 6067POPC   C4A77130  29.234  42.316   7.211
 6067POPC   C1B77131  29.085  42.605   6.236
 6067POPC   C2B77132  29.146  42.810   6.615
 6067POPC   C3B77133  29.034  42.725   7.018
 6067POPC   C4B77134  28.950  42.767   7.430
 6068POPC   NC377135   7.714  44.273   5.386
 6068POPC   PO477136   7.264  44.724   5.194
 6068POPC   GL177137   7.307  44.898   5.644
 6068POPC   GL277138   7.413  44.562   5.720
 6068POPC   C1A77139   7.532  44.940   6.064
 6068POPC   D2A77140   7.477  44.732   6.491
 6068POPC   C3A77141   7.636  44.900   6.849
 6068POPC   C4A77142   7.479   0.059   7.212
 6068POPC   C1B77143   7.579  44.444   6.099
 6068POPC   C2B77144   7.626  44.253   6.526
 6068POPC   C3B77145   7.475  44.391   6.914
 6068POPC   C4B77146   7.605  44.522   7.307
 6069POPC   NC377147  19.447  19.268   5.461
 6069POPC   PO477148  18.864  19.023   5.404
 6069POPC   GL177149  19.139  18.989   5.777
 6069POPC   GL277150  19.107  19.301   5.879
 6069POPC   C1A77151  19.379  18.961   6.171
 6069POPC   D2A77152  19.219  18.867   6.609
 6069POPC   C3A77153  19.471  18.720   6.973
 6069POPC   C4A77154  19.410  18.631   7.404
 6069POPC   C1B77155  18.896  19.111   6.243
 6069POPC   C2B77156  18.785  19.341   6.624
 6069POPC   C3B77157  18.791  19.227   7.052
 6069POPC   C4B77158  18.638  18.851   7.186
 6070POPC   NC377159  32.619  19.445   5.387
 6070POPC   PO477160  32.119  18.930   5.424
 6070POPC   GL177161  32.282  18.940   5.836
 6070POPC   GL277162  32.517  19.253   5.887
 6070POPC   C1A77163  32.163  18.904   6.294
 6070POPC   D2A77164  32.158  19.230   6.637
 6070POPC   C3A77165  32.079  19.085   7.075
 6070POPC   C4A77166  32.039  18.711   7.345
 6070POPC   C1B77167  32.655  18.954   6.179
 6070POPC   C2B77168  32.620  18.988   6.591
 6070POPC   C3B77169  32.572  19.173   6.955
 6070POPC   C4B77170  32.537  18.911   7.287
 6071POPC   NC377171  13.845  30.090   5.447
 6071POPC   PO477172  13.148  29.979   5.273
 6071POPC   GL177173  13.392  30.008   5.699
 6071POPC   GL277174  13.616  29.754   5.811
 6071POPC   C1A77175  13.323  30.008   6.174
 6071POPC   D2A77176  13.508  29.826   6.562
 6071POPC   C3A77177  13.498  30.054   6.965
 6071POPC   C4A77178  13.429  30.061   7.402
 6071POPC   C1B77179  13.916  29.792   6.157
 6071POPC   C2B77180  14.032  29.945   6.565
 6071POPC   C3B77181  13.899  29.730   6.939
 6071POPC   C4B77182  13.909  29.938   7.290
 6072POPC   NC377183  23.912  29.438   5.474
 6072POPC   PO477184  23.610  29.897   5.087
 6072POPC   GL177185  23.635  29.959   5.585
 6072POPC   GL277186  23.524  29.684   5.810
 6072POPC   C1A77187  23.657  30.125   6.056
 6072POPC   D2A77188  23.597  30.095   6.533
 6072POPC   C3A77189  23.746  29.835   6.903
 6072POPC   C4A77190  23.846  30.068   7.299
 6072POPC   C1B77191  23.622  29.632   6.266
 6072POPC   C2B77192  23.323  29.582   6.628
 6072POPC   C3B77193  23.251  29.704   7.055
 6072POPC   C4B77194  23.480  29.722   7.442
 6073POPC   NC377195  39.117  39.436   5.221
 6073POPC   PO477196  39.279  38.865   5.395
 6073POPC   GL177197  39.480  38.967   5.798
 6073POPC   GL277198  39.461  39.332   5.861
 6073POPC   C1A77199  39.510  39.035   6.270
 6073POPC   D2A77200  39.539  38.912   6.703
 6073POPC   C3A77201  39.166  39.017   6.948
 6073POPC   C4A77202  38.999  39.313   7.187
 6073POPC   C1B77203  39.571  39.714   6.130
 6073POPC   C2B77204  39.553  39.777   6.574
 6073POPC   C3B77205  39.498  39.418   6.880
 6073POPC   C4B77206  39.445  39.523   7.305
 6074POPC   NC377207  30.574  39.383   5.540
 6074POPC   PO477208  30.593  38.795   5.702
 6074POPC   GL177209  30.857  39.106   5.897
 6074POPC   GL277210  30.960  39.459   5.853
 6074POPC   C1A77211  30.749  39.278   6.280
 6074POPC   D2A77212  30.677  39.008   6.610
 6074POPC   C3A77213  30.628  39.282   6.919
 6074POPC   C4A77214  30.302  39.412   7.181
 6074POPC   C1B77215  31.067  39.721   6.186
 6074POPC   C2B77216  30.950  39.798   6.594
 6074POPC   C3B77217  30.870  39.765   7.009
 6074POPC   C4B77218  30.778  39.551   7.340
 6075POPC   NC377219  18.061  17.076   5.602
 6075POPC   PO477220  18.285  16.395   5.381
 6075POPC   GL177221  18.496  16.553   5.716
 6075POPC   GL277222  18.214  16.690   5.923
 6075POPC   C1A77223  18.563  16.401   6.134
 6075POPC   D2A77224  18.256  16.520   6.456
 6075POPC   C3A77225  18.189  16.526   6.888
 6075POPC   C4A77226  18.278  16.475   7.284
 6075POPC   C1B77227  18.115  16.993   6.276
 6075POPC   C2B77228  18.155  17.007   6.739
 6075POPC   C3B77229  18.109  16.974   7.196
 6075POPC   C4B77230  18.091  17.176   7.603
 6076POPC   NC377231  12.719  21.773   5.228
 6076POPC   PO477232  12.874  22.433   5.412
 6076POPC   GL177233  12.844  22.239   5.798
 6076POPC   GL277234  12.885  21.858   5.744
 6076POPC   C1A77235  12.688  22.365   6.211
 6076POPC   D2A77236  12.859  22.239   6.592
 6076POPC   C3A77237  12.653  22.056   6.891
 6076POPC   C4A77238  12.702  22.268   7.260
 6076POPC   C1B77239  12.956  21.916   6.200
 6076POPC   C2B77240  13.295  21.960   6.506
 6076POPC   C3B77241  13.261  21.959   6.965
 6076POPC   C4B77242  12.922  21.794   7.244
 6077POPC   NC377243  25.538  27.794   5.577
 6077POPC   PO477244  24.897  27.494   5.388
 6077POPC   GL177245  25.072  27.630   5.793
 6077POPC   GL277246  25.373  27.424   5.912
 6077POPC   C1A77247  25.075  27.642   6.271
 6077POPC   D2A77248  24.890  27.521   6.639
 6077POPC   C3A77249  24.927  27.783   6.986
 6077POPC   C4A77250  25.241  27.697   7.268
 6077POPC   C1B77251  25.568  27.541   6.326
 6077POPC   C2B77252  25.467  27.537   6.776
 6077POPC   C3B77253  25.573  27.297   7.146
 6077POPC   C4B77254  25.652  27.391   7.592
 6078POPC   NC377255   9.893   3.422   5.679
 6078POPC   PO477256   9.532   3.725   5.197
 6078POPC   GL177257   9.544   3.773   5.790
 6078POPC   GL277258   9.544   3.418   6.025
 6078POPC   C1A77259   9.788   3.791   6.241
 6078POPC   D2A77260   9.956   3.590   6.620
 6078POPC   C3A77261   9.614   3.544   6.886
 6078POPC   C4A77262   9.493   3.723   7.252
 6078POPC   C1B77263   9.577   3.288   6.427
 6078POPC   C2B77264   9.668   3.034   6.730
 6078POPC   C3B77265   9.808   3.121   7.109
 6078POPC   C4B77266  10.009   3.447   7.287
 6079POPC   NC377267  32.532  17.538   5.238
 6079POPC   PO477268  32.027  17.883   5.558
 6079POPC   GL177269  32.139  17.695   5.969
 6079POPC   GL277270  32.314  17.349   5.947
 6079POPC   C1A77271  32.308  17.804   6.391
 6079POPC   D2A77272  32.566  17.527   6.599
 6079POPC   C3A77273  32.544  17.365   6.996
 6079POPC   C4A77274  32.597  17.367   7.442
 6079POPC   C1B77275  32.104  17.340   6.371
 6079POPC   C2B77276  32.083  17.529   6.791
 6079POPC   C3B77277  32.108  17.518   7.240
 6079POPC   C4B77278  32.124  17.267   7.615
 6080POPC   NC377279  40.528  10.676   5.008
 6080POPC   PO477280  40.078  10.459   5.447
 6080POPC   GL177281  39.943  10.466   5.837
 6080POPC   GL277282  40.066  10.824   5.866
 6080POPC   C1A77283  39.783  10.605   6.236
 6080POPC   D2A77284  39.970  10.807   6.572
 6080POPC   C3A77285  39.993  10.523   6.930
 6080POPC   C4A77286  39.948  10.703   7.363
 6080POPC   C1B77287  40.364  10.881   6.203
 6080POPC   C2B77288  40.469  10.691   6.597
 6080POPC   C3B77289  40.380  10.824   7.028
 6080POPC   C4B77290  40.275  11.117   7.343
 6081POPC   NC377291  40.675   0.741   5.352
 6081POPC   PO477292  40.856   0.171   5.231
 6081POPC   GL177293  40.580   0.360   5.681
 6081POPC   GL277294  40.539   0.749   5.831
 6081POPC   C1A77295  40.590   0.393   6.190
 6081POPC   D2A77296  40.835   0.577   6.584
 6081POPC   C3A77297  40.880   0.263   6.934
 6081POPC   C4A77298  40.675   0.169   7.327
 6081POPC   C1B77299  40.384   0.856   6.245
 6081POPC   C2B77300  40.326   0.611   6.626
 6081POPC   C3B77301  40.497   0.595   7.019
 6081POPC   C4B77302  40.394   0.987   7.113
 6082POPC   NC377303  41.660   2.357   5.517
 6082POPC   PO477304  41.578   1.806   5.160
 6082POPC   GL177305  41.576   1.899   5.679
 6082POPC   GL277306  41.899   1.988   5.836
 6082POPC   C1A77307  41.525   1.796   6.160
 6082POPC   D2A77308  41.735   1.829   6.584
 6082POPC   C3A77309  41.500   1.798   6.979
 6082POPC   C4A77310  41.639   1.839   7.395
 6082POPC   C1B77311  41.698   2.273   6.174
 6082POPC   C2B77312  41.553   2.305   6.607
 6082POPC   C3B77313  41.762   2.282   6.978
 6082POPC   C4B77314  41.680   2.346   7.384
 6083POPC   NC377315  36.247   7.889   5.228
 6083POPC   PO477316  35.954   8.421   5.216
 6083POPC   GL177317  36.080   8.189   5.660
 6083POPC   GL277318  36.343   8.289   5.846
 6083POPC   C1A77319  35.945   8.124   6.117
 6083POPC   D2A77320  36.152   8.263   6.513
 6083POPC   C3A77321  35.982   8.258   6.936
 6083POPC   C4A77322  35.789   8.061   7.284
 6083POPC   C1B77323  36.446   8.023   6.130
 6083POPC   C2B77324  36.464   7.836   6.544
 6083POPC   C3B77325  36.434   8.045   6.915
 6083POPC   C4B77326  36.595   8.114   7.316
 6084POPC   NC377327  34.389  30.619   5.399
 6084POPC   PO477328  34.811  30.109   5.536
 6084POPC   GL177329  34.726  30.489   5.765
 6084POPC   GL277330  34.397  30.555   5.895
 6084POPC   C1A77331  34.815  30.604   6.179
 6084POPC   D2A77332  34.665  30.495   6.571
 6084POPC   C3A77333  34.966  30.600   6.866
 6084POPC   C4A77334  34.838  30.550   7.267
 6084POPC   C1B77335  34.230  30.646   6.283
 6084POPC   C2B77336  34.168  30.479   6.684
 6084POPC   C3B77337  34.332  30.599   7.084
 6084POPC   C4B77338  34.133  30.992   7.158
 6085POPC   NC377339  44.827  30.428   5.537
 6085POPC   PO477340  44.349  30.889   5.286
 6085POPC   GL177341  44.542  30.822   5.719
 6085POPC   GL277342  44.887  30.915   5.763
 6085POPC   C1A77343  44.566  30.579   6.132
 6085POPC   D2A77344  44.817  30.420   6.491
 6085POPC   C3A77345  44.513  30.376   6.815
 6085POPC   C4A77346  44.529  30.701   7.130
 6085POPC   C1B77347  44.928  30.926   6.208
 6085POPC   C2B77348  44.685  30.916   6.600
 6085POPC   C3B77349  44.930  30.975   6.970
 6085POPC   C4B77350  44.972  31.080   7.377
 6086POPC   NC377351  30.117  42.129   5.483
 6086POPC   PO477352  29.544  42.417   5.346
 6086POPC   GL177353  29.683  42.264   5.758
 6086POPC   GL277354  29.438  42.043   5.796
 6086POPC   C1A77355  29.928  42.224   6.174
 6086POPC   D2A77356  30.170  42.493   6.486
 6086POPC   C3A77357  30.056  42.486   6.930
 6086POPC   C4A77358  30.211  42.537   7.351
 6086POPC   C1B77359  29.409  42.198   6.212
 6086POPC   C2B77360  29.584  41.994   6.554
 6086POPC   C3B77361  29.652  42.131   6.971
 6086POPC   C4B77362  29.712  42.446   7.315
 6087POPC   NC377363  40.223  28.886   5.460
 6087POPC   PO477364  39.640  29.155   5.522
 6087POPC   GL177365  39.898  29.034   5.848
 6087POPC   GL277366  40.111  29.304   5.775
 6087POPC   C1A77367  39.793  29.077   6.287
 6087POPC   D2A77368  39.562  29.097   6.672
 6087POPC   C3A77369  39.860  28.874   6.890
 6087POPC   C4A77370  40.048  28.823   7.275
 6087POPC   C1B77371  40.264  29.286   6.187
 6087POPC   C2B77372  40.264  29.020   6.541
 6087POPC   C3B77373  40.343  29.074   6.941
 6087POPC   C4B77374  40.335  29.227   7.370
 6088POPC   NC377375  20.335  42.149   5.355
 6088POPC   PO477376  20.724  42.661   5.387
 6088POPC   GL177377  20.524  42.451   5.738
 6088POPC   GL277378  20.807  42.456   5.968
 6088POPC   C1A77379  20.362  42.173   6.074
 6088POPC   D2A77380  20.269  42.077   6.504
 6088POPC   C3A77381  20.312  42.421   6.812
 6088POPC   C4A77382  20.474  42.302   7.202
 6088POPC   C1B77383  21.132  42.570   6.284
 6088POPC   C2B77384  21.049  42.651   6.739
 6088POPC   C3B77385  20.966  42.317   7.070
 6088POPC   C4B77386  21.161  42.096   7.426
 6089POPC   NC377387  42.354  21.140   5.402
 6089POPC   PO477388  42.679  21.742   5.312
 6089POPC   GL177389  42.507  21.508   5.710
 6089POPC   GL277390  42.135  21.437   5.750
 6089POPC   C1A77391  42.561  21.470   6.167
 6089POPC   D2A77392  42.553  21.314   6.585
 6089POPC   C3A77393  42.455  21.589   6.956
 6089POPC   C4A77394  42.499  21.629   7.431
 6089POPC   C1B77395  42.082  21.218   6.134
 6089POPC   C2B77396  42.021  21.299   6.529
 6089POPC   C3B77397  42.176  21.151   6.902
 6089POPC   C4B77398  42.111  21.365   7.259
 6090POPC   NC377399  30.654   4.707   5.575
 6090POPC   PO477400  30.928   5.291   5.456
 6090POPC   GL177401  30.649   5.218   5.763
 6090POPC   GL277402  30.858   4.988   5.923
 6090POPC   C1A77403  30.487   5.164   6.208
 6090POPC   D2A77404  30.684   5.026   6.583
 6090POPC   C3A77405  30.506   5.111   6.980
 6090POPC   C4A77406  30.342   4.794   7.249
 6090POPC   C1B77407  31.063   5.182   6.246
 6090POPC   C2B77408  31.161   5.180   6.687
 6090POPC   C3B77409  31.028   5.066   7.103
 6090POPC   C4B77410  31.145   5.214   7.518
 6091POPC   NC377411  20.516  25.399   5.079
 6091POPC   PO477412  20.938  24.953   5.068
 6091POPC   GL177413  20.747  25.172   5.486
 6091POPC   GL277414  20.714  24.974   5.739
 6091POPC   C1A77415  20.569  25.412   5.924
 6091POPC   D2A77416  20.648  25.423   6.392
 6091POPC   C3A77417  20.386  25.327   6.770
 6091POPC   C4A77418  20.529  25.351   7.215
 6091POPC   C1B77419  20.534  24.943   6.145
 6091POPC   C2B77420  20.565  24.883   6.561
 6091POPC   C3B77421  20.639  24.917   6.986
 6091POPC   C4B77422  20.608  24.892   7.435
 6092POPC   NC377423  38.153   7.915   5.290
 6092POPC   PO477424  38.613   7.407   5.383
 6092POPC   GL177425  38.401   7.391   5.777
 6092POPC   GL277426  38.329   7.714   5.758
 6092POPC   C1A77427  38.485   7.178   6.183
 6092POPC   D2A77428  38.695   6.999   6.561
 6092POPC   C3A77429  38.594   7.186   6.987
 6092POPC   C4A77430  38.423   7.254   7.431
 6092POPC   C1B77431  38.418   7.714   6.182
 6092POPC   C2B77432  38.418   7.529   6.572
 6092POPC   C3B77433  38.550   7.714   6.929
 6092POPC   C4B77434  38.746   7.626   7.258
 6093POPC   NC377435  42.544  20.970   4.948
 6093POPC   PO477436  42.391  20.387   5.252
 6093POPC   GL177437  42.394  20.595   5.671
 6093POPC   GL277438  42.220  20.880   5.798
 6093POPC   C1A77439  42.326  20.547   6.148
 6093POPC   D2A77440  42.272  20.845   6.490
 6093POPC   C3A77441  42.371  20.651   6.893
 6093POPC   C4A77442  42.259  20.502   7.298
 6093POPC   C1B77443  42.603  20.965   6.067
 6093POPC   C2B77444  42.774  20.817   6.484
 6093POPC   C3B77445  42.752  20.975   6.913
 6093POPC   C4B77446  42.479  20.988   7.295
 6094POPC   NC377447  26.444  29.749   5.369
 6094POPC   PO477448  25.781  29.902   5.141
 6094POPC   GL177449  25.741  30.030   5.620
 6094POPC   GL277450  25.688  29.775   5.868
 6094POPC   C1A77451  26.060  30.069   5.997
 6094POPC   D2A77452  26.157  29.870   6.431
 6094POPC   C3A77453  26.279  30.013   6.848
 6094POPC   C4A77454  26.267  29.804   7.283
 6094POPC   C1B77455  25.664  29.874   6.266
 6094POPC   C2B77456  25.661  29.715   6.625
 6094POPC   C3B77457  25.924  29.610   6.916
 6094POPC   C4B77458  25.776  29.747   7.297
 6095POPC   NC377459   9.910  42.839   4.932
 6095POPC   PO477460   9.770  43.226   5.510
 6095POPC   GL177461   9.696  43.149   5.938
 6095POPC   GL277462   9.853  42.857   6.078
 6095POPC   C1A77463   9.585  43.144   6.396
 6095POPC   D2A77464   9.359  43.291   6.745
 6095POPC   C3A77465   9.249  43.006   7.048
 6095POPC   C4A77466   9.488  42.809   7.352
 6095POPC   C1B77467  10.129  43.052   6.329
 6095POPC   C2B77468   9.997  43.269   6.693
 6095POPC   C3B77469   9.768  43.041   6.988
 6095POPC   C4B77470   9.922  42.640   7.178
 6096POPC   NC377471  26.772  15.774   5.115
 6096POPC   PO477472  27.243  16.045   5.528
 6096POPC   GL177473  26.951  16.218   5.822
 6096POPC   GL277474  27.008  15.929   5.989
 6096POPC   C1A77475  26.603  16.134   6.182
 6096POPC   D2A77476  26.640  15.774   6.497
 6096POPC   C3A77477  26.718  15.903   6.930
 6096POPC   C4A77478  26.578  15.927   7.348
 6096POPC   C1B77479  27.109  15.635   6.274
 6096POPC   C2B77480  27.141  15.737   6.665
 6096POPC   C3B77481  27.061  15.519   7.002
 6096POPC   C4B77482  27.080  15.728   7.343
 6097POPC   NC377483  25.574   5.059   5.413
 6097POPC   PO477484  25.165   5.458   5.191
 6097POPC   GL177485  25.151   5.206   5.707
 6097POPC   GL277486  25.338   4.951   5.834
 6097POPC   C1A77487  25.213   5.245   6.211
 6097POPC   D2A77488  25.020   5.032   6.556
 6097POPC   C3A77489  25.254   5.023   6.928
 6097POPC   C4A77490  25.336   5.405   7.073
 6097POPC   C1B77491  25.507   4.699   6.125
 6097POPC   C2B77492  25.393   4.674   6.535
 6097POPC   C3B77493  25.592   4.635   6.911
 6097POPC   C4B77494  25.414   4.666   7.319
 6098POPC   NC377495  18.285  12.412   5.611
 6098POPC   PO477496  18.706  11.837   5.489
 6098POPC   GL177497  18.550  12.093   5.903
 6098POPC   GL277498  18.672  12.437   5.919
 6098POPC   C1A77499  18.406  12.285   6.345
 6098POPC   D2A77500  18.054  12.155   6.625
 6098POPC   C3A77501  18.157  11.969   7.020
 6098POPC   C4A77502  18.278  12.206   7.350
 6098POPC   C1B77503  18.838  12.570   6.261
 6098POPC   C2B77504  18.777  12.467   6.675
 6098POPC   C3B77505  18.467  12.357   6.896
 6098POPC   C4B77506  18.368  12.671   7.176
 6099POPC   NC377507  38.740   1.379   5.629
 6099POPC   PO477508  39.354   1.259   5.454
 6099POPC   GL177509  39.149   1.062   5.817
 6099POPC   GL277510  38.829   0.878   5.793
 6099POPC   C1A77511  39.130   1.216   6.255
 6099POPC   D2A77512  39.248   1.487   6.585
 6099POPC   C3A77513  39.384   1.280   6.934
 6099POPC   C4A77514  39.203   1.419   7.340
 6099POPC   C1B77515  38.727   0.920   6.221
 6099POPC   C2B77516  38.820   0.978   6.631
 6099POPC   C3B77517  38.909   1.139   7.009
 6099POPC   C4B77518  39.109   0.914   7.318
 6100POPC   NC377519  34.477  44.771   5.135
 6100POPC   PO477520  34.847  44.368   5.482
 6100POPC   GL177521  34.564  44.662   5.697
 6100POPC   GL277522  34.259  44.497   5.824
 6100POPC   C1A77523  34.569  44.936   6.089
 6100POPC   D2A77524  34.395   0.085   6.502
 6100POPC   C3A77525  34.558  44.864   6.909
 6100POPC   C4A77526  34.958  44.806   7.165
 6100POPC   C1B77527  34.551  44.434   6.185
 6100POPC   C2B77528  34.801  44.498   6.580
 6100POPC   C3B77529  34.777  44.341   7.008
 6100POPC   C4B77530  34.473  44.494   7.315
 6101POPC   NC377531  18.536   0.247   5.516
 6101POPC   PO477532  18.129   0.767   5.362
 6101POPC   GL177533  18.230   0.585   5.728
 6101POPC   GL277534  18.046   0.288   5.799
 6101POPC   C1A77535  18.360   0.564   6.142
 6101POPC   D2A77536  18.266   0.654   6.540
 6101POPC   C3A77537  18.347   0.400   6.858
 6101POPC   C4A77538  18.187   0.670   7.190
 6101POPC   C1B77539  18.040   0.175   6.249
 6101POPC   C2B77540  17.860   0.067   6.662
 6101POPC   C3B77541  17.930   0.223   7.088
 6101POPC   C4B77542  18.339   0.191   7.331
 6102POPC   NC377543   0.265  38.200   5.609
 6102POPC   PO477544   0.573  38.673   5.249
 6102POPC   GL177545   0.571  38.613   5.748
 6102POPC   GL277546   0.275  38.504   6.001
 6102POPC   C1A77547   0.673  38.739   6.202
 6102POPC   D2A77548   0.711  38.361   6.463
 6102POPC   C3A77549   0.435  38.407   6.800
 6102POPC   C4A77550   0.480  38.519   7.201
 6102POPC   C1B77551   0.282  38.136   6.314
 6102POPC   C2B77552   0.039  38.096   6.710
 6102POPC   C3B77553   0.195  38.064   7.137
 6102POPC   C4B77554   0.364  38.156   7.576
 6103POPC   NC377555  17.753  15.467   5.581
 6103POPC   PO477556  17.384  16.101   5.445
 6103POPC   GL177557  17.303  16.029   5.871
 6103POPC   GL277558  17.398  15.673   5.940
 6103POPC   C1A77559  17.445  16.138   6.287
 6103POPC   D2A77560  17.401  15.923   6.676
 6103POPC   C3A77561  17.394  16.184   7.032
 6103POPC   C4A77562  17.061  16.230   7.328
 6103POPC   C1B77563  17.759  15.703   6.248
 6103POPC   C2B77564  17.842  15.657   6.687
 6103POPC   C3B77565  17.584  15.572   7.043
 6103POPC   C4B77566  17.269  15.761   7.316
 6104POPC   NC377567  44.923   0.188   5.373
 6104POPC   PO477568   0.523   0.622   5.388
 6104POPC   GL177569   0.635   0.512   5.804
 6104POPC   GL277570   0.935   0.638   5.710
 6104POPC   C1A77571   0.448   0.306   6.202
 6104POPC   D2A77572   0.116   0.294   6.524
 6104POPC   C3A77573   0.317   0.398   6.925
 6104POPC   C4A77574   0.301   0.236   7.356
 6104POPC   C1B77575   0.959   0.833   6.112
 6104POPC   C2B77576   0.779   0.771   6.511
 6104POPC   C3B77577   0.910   0.674   6.909
 6104POPC   C4B77578   0.734   0.493   7.260
 6105POPC   NC377579   6.602  27.961   5.560
 6105POPC   PO477580   6.718  28.644   5.422
 6105POPC   GL177581   6.695  28.621   5.824
 6105POPC   GL277582   6.456  28.359   5.831
 6105POPC   C1A77583   6.844  28.446   6.200
 6105POPC   D2A77584   6.886  28.208   6.572
 6105POPC   C3A77585   6.844  28.431   6.968
 6105POPC   C4A77586   6.775  28.282   7.386
 6105POPC   C1B77587   6.366  28.222   6.226
 6105POPC   C2B77588   6.399  28.062   6.626
 6105POPC   C3B77589   6.336  28.277   7.011
 6105POPC   C4B77590   6.421  28.631   7.254
 6106POPC   NC377591  39.422  30.339   5.550
 6106POPC   PO477592  39.023  29.766   5.547
 6106POPC   GL177593  39.241  29.891   5.912
 6106POPC   GL277594  39.618  29.823   5.866
 6106POPC   C1A77595  39.097  29.975   6.333
 6106POPC   D2A77596  39.042  30.074   6.759
 6106POPC   C3A77597  39.088  29.796   7.059
 6106POPC   C4A77598  39.028  29.511   7.389
 6106POPC   C1B77599  39.601  30.139   6.184
 6106POPC   C2B77600  39.475  30.244   6.577
 6106POPC   C3B77601  39.495  30.129   7.021
 6106POPC   C4B77602  39.510  29.841   7.370
 6107POPC   NC377603  37.197   9.106   5.369
 6107POPC   PO477604  36.493   8.985   5.315
 6107POPC   GL177605  36.622   8.923   5.765
 6107POPC   GL277606  36.992   8.965   5.816
 6107POPC   C1A77607  36.667   8.997   6.216
 6107POPC   D2A77608  36.902   9.092   6.572
 6107POPC   C3A77609  36.764   8.923   6.940
 6107POPC   C4A77610  36.601   9.052   7.308
 6107POPC   C1B77611  37.172   8.775   6.191
 6107POPC   C2B77612  37.082   8.611   6.601
 6107POPC   C3B77613  37.263   8.820   6.936
 6107POPC   C4B77614  37.142   8.909   7.325
 6108POPC   NC377615  29.787  36.701   5.439
 6108POPC   PO477616  30.205  37.208   5.229
 6108POPC   GL177617  30.042  37.142   5.679
 6108POPC   GL277618  30.101  36.822   5.832
 6108POPC   C1A77619  29.923  37.217   6.147
 6108POPC   D2A77620  30.168  37.119   6.572
 6108POPC   C3A77621  30.049  36.960   7.054
 6108POPC   C4A77622  30.083  37.089   7.517
 6108POPC   C1B77623  29.878  36.728   6.221
 6108POPC   C2B77624  29.837  36.713   6.660
 6108POPC   C3B77625  29.531  36.756   6.983
 6108POPC   C4B77626  29.424  36.459   7.297
 6109POPC   NC377627   7.141  31.573   5.048
 6109POPC   PO477628   7.644  31.434   5.452
 6109POPC   GL177629   7.577  31.563   5.823
 6109POPC   GL277630   7.247  31.609   5.865
 6109POPC   C1A77631   7.637  31.654   6.220
 6109POPC   D2A77632   7.410  31.539   6.580
 6109POPC   C3A77633   7.627  31.537   6.970
 6109POPC   C4A77634   7.514  31.496   7.397
 6109POPC   C1B77635   7.088  31.363   6.201
 6109POPC   C2B77636   6.981  31.270   6.640
 6109POPC   C3B77637   7.106  31.444   7.050
 6109POPC   C4B77638   7.072  31.260   7.479
 6110W        W77639  43.778   0.022   3.367
 6111W        W77640  37.442  40.649  11.686
 6112W        W77641   4.416  20.590  13.996
 6113W        W77642   7.647  34.073  10.799
 6114W        W77643  26.380  43.761   4.263
 6115W        W77644  31.410   0.390  14.971
 6116W        W77645  30.865  11.290  14.346
 6117W        W77646   4.380  42.953  12.978
 6118W        W77647  14.793  22.502   0.310
 6119W        W77648  44.638  28.049   3.988
 6120W        W77649  38.788   7.546   4.892
 6121W        W77650  15.607   6.180  12.944
 6122W        W77651  19.756  22.565   2.640
 6123W        W77652  40.763  34.080  10.763
 6124W        W77653  21.850   0.147   0.339
 6125W        W77654  29.832  11.178   2.871
 6126W        W77655  33.534  43.768   4.166
 6127W        W77656  14.505  42.075   2.720
 6128W        W77657   3.472  20.738  13.070
 6129W        W77658  17.815  24.556   4.416
 6130W        W77659  25.056  44.270   3.561
 6131W        W77660  42.958  16.099   4.143
 6132W        W77661  11.849  28.500  12.036
 6133W        W77662  29.075  33.851  11.645
 6134W        W77663  26.847   9.256  12.003
 6135W        W77664  24.273   6.940  11.989
 6136W        W77665   6.225  19.738   1.188
 6137W        W77666  30.183  34.644   5.501
 6138W        W77667   3.919  29.772   2.177
 6139W        W77668   3.807  10.906   2.380
 6140W        W77669  43.413  14.026   9.830
 6141W        W77670   3.782  41.860   0.449
 6142W        W77671  13.881  42.231   1.696
 6143W        W77672  26.544   7.299  10.914
 6144W        W77673  44.319  10.302  14.408
 6145W        W77674  31.691   1.242   3.670
 6146W        W77675  19.735  25.619   0.139
 6147W        W77676  11.290  15.881   0.293
 6148W        W77677  39.021  43.250   0.757
 6149W        W77678  21.828  28.704   0.418
 6150W        W77679   3.073  35.943  13.203
 6151W        W77680  30.550  35.703   0.183
 6152W        W77681  27.654  28.748  11.225
 6153W        W77682   6.680  27.084  14.006
 6154W        W77683  34.133   2.456   0.393
 6155W        W77684   1.254  26.481  14.850
 6156W        W77685  26.041   6.193  10.672
 6157W        W77686  38.016  32.941   3.776
 6158W        W77687  33.046  40.542  10.822
 6159W        W77688  11.389  20.670  13.008
 6160W        W77689  22.506   9.887  11.512
 6161W        W77690  43.687  29.856  12.931
 6162W        W77691  18.159  13.367  11.607
 6163W        W77692  26.725  27.200   3.088
 6164W        W77693   8.142  10.288  10.771
 6165W        W77694   2.818   6.289  11.944
 6166W        W77695  39.261  40.974  14.441
 6167W        W77696   2.257  36.558   1.440
 6168W        W77697  22.803  24.167  11.638
 6169W        W77698  34.487  18.812   1.877
 6170W        W77699  33.868  27.558  10.186
 6171W        W77700  10.679  17.109  12.562
 6172W        W77701  19.606   2.879   0.167
 6173W        W77702   0.457   4.765   0.786
 6174W        W77703  34.190  32.991   0.904
 6175W        W77704  17.847   2.750  13.331
 6176W        W77705  23.148  14.699  11.501
 6177W        W77706  37.434  39.604  11.987
 6178W        W77707  37.458  20.089  11.159
 6179W        W77708   1.521   5.945   4.492
 6180W        W77709   9.826  38.580   3.145
 6181W        W77710  12.062   8.860   4.402
 6182W        W77711  32.261  35.951   2.860
 6183W        W77712  25.665   0.818  12.403
 6184W        W77713  14.816   4.413   4.504
 6185W        W77714  34.074  16.685  11.430
 6186W        W77715  40.606   6.242   0.922
 6187W        W77716  20.830  20.650  13.573
 6188W        W77717  25.087  25.245  13.318
 6189W        W77718  13.399  21.725   1.364
 6190W        W77719  38.136   9.689   2.290
 6191W        W77720  28.549   0.978  14.977
 6192W        W77721  23.676   3.728  13.770
 6193W        W77722  40.765  14.632  13.926
 6194W        W77723  20.834  22.764  13.869
 6195W        W77724  35.481  44.832   0.708
 6196W        W77725   1.928  10.281   2.553
 6197W        W77726  42.791   1.446  11.609
 6198W        W77727  12.130  20.811  11.028
 6199W        W77728  34.894   6.685   1.311
 6200W        W77729  25.433  42.876  13.028
 6201W        W77730  34.901  12.081  11.202
 6202W        W77731  33.420  33.588  14.896
 6203W        W77732   2.238  40.862   1.468
 6204W        W77733  40.050  27.335  12.949
 6205W        W77734  38.350  34.945  12.111
 6206W        W77735  38.101  42.286  11.974
 6207W        W77736   7.714   5.927  13.614
 6208W        W77737  34.502   0.499  10.465
 6209W        W77738  12.955  39.792   4.601
 6210W        W77739   0.478   9.643  14.457
 6211W        W77740  43.925   6.959   4.258
 6212W        W77741  35.988  23.271   4.090
 6213W        W77742  27.583  11.598  10.698
 6214W        W77743  30.436   6.248   0.856
 6215W        W77744  21.452   9.247  11.966
 6216W        W77745  33.515   2.456  11.524
 6217W        W77746  30.226  12.432   1.399
 6218W        W77747   1.935  12.715   3.813
 6219W        W77748  18.197  32.418  13.069
 6220W        W77749   0.579  15.828   0.380
 6221W        W77750  14.590  42.271  12.116
 6222W        W77751  36.437   1.093   4.756
 6223W        W77752  12.133  41.186   2.639
 6224W        W77753  40.377  32.166  12.400
 6225W        W77754  22.879   0.961   0.143
 6226W        W77755  20.048  30.651  11.966
 6227W        W77756  22.574  44.894  10.645
 6228W        W77757  16.750  44.956  11.944
 6229W        W77758   7.757  16.226  11.655
 6230W        W77759  22.656  20.120   4.443
 6231W        W77760  35.300  10.293  12.142
 6232W        W77761  39.645   0.900   2.816
 6233W        W77762  21.751   9.289  10.682
 6234W        W77763  19.914  12.624   4.955
 6235W        W77764  38.062  42.845  13.593
 6236W        W77765  25.574  26.528  14.400
 6237W        W77766  23.998   6.139  12.234
 6238W        W77767  14.769  36.017   1.445
 6239W        W77768  12.524  23.659  10.701
 6240W        W77769  28.125  12.310   0.413
 6241W        W77770   0.810  37.604   4.517
 6242W        W77771   2.089  25.685   2.420
 6243W        W77772  13.220  37.156  12.478
 6244W        W77773   1.657  18.673   2.160
 6245W        W77774   2.513  36.136  10.657
 6246W        W77775  31.505  36.386   2.621
 6247W        W77776  43.309   4.562   3.123
 6248W        W77777   3.854  39.125  11.888
 6249W        W77778   1.360   9.625  14.315
 6250W        W77779   0.836  36.428   1.525
 6251W        W77780  25.476  16.600   2.368
 6252W        W77781  21.102  10.312  13.870
 6253W        W77782  28.511   8.575  10.507
 6254W        W77783  41.156  21.930   0.694
 6255W        W77784  42.416  31.147   3.199
 6256W        W77785   3.163  16.068   0.375
 6257W        W77786  12.804  44.117   3.108
 6258W        W77787  26.948  19.760   1.843
 6259W        W77788  38.822  23.924  11.163
 6260W        W77789  21.242   4.753   1.767
 6261W        W77790  26.923   5.225  10.411
 6262W        W77791  23.711  42.311  12.527
 6263W        W77792  11.091   6.918   1.978
 6264W        W77793  18.574  31.138   4.215
 6265W        W77794  20.750   6.639   4.647
 6266W        W77795  41.883  31.062  11.534
 6267W        W77796  28.605  16.085   2.325
 6268W        W77797  36.019  39.971   4.631
 6269W        W77798  22.429  29.619   3.377
 6270W        W77799  14.315  43.076   1.430
 6271W        W77800  35.209  15.688   1.198
 6272W        W77801  17.051  41.731  13.559
 6273W        W77802  44.286   3.697   3.939
 6274W        W77803  22.782   2.831  10.699
 6275W        W77804  22.986  43.003  11.143
 6276W        W77805  43.395  26.057   0.510
 6277W        W77806  20.466  25.675  11.690
 6278W        W77807  20.670  35.906   4.696
 6279W        W77808  28.561  14.593   1.339
 6280W        W77809  10.549   0.572   3.702
 6281W        W77810  29.180   5.508   1.737
 6282W        W77811   2.945  43.342   3.626
 6283W        W77812  31.697  23.486  11.030
 6284W        W77813  13.856  25.189  14.045
 6285W        W77814   5.881  31.836  11.161
 6286W        W77815  13.305  22.103   3.861
 6287W        W77816  27.524  18.167   1.578
 6288W        W77817   0.556  31.957   2.684
 6289W        W77818  18.497  28.092  11.065
 6290W        W77819   4.225   0.020  10.959
 6291W        W77820  11.727  43.286   1.510
 6292W        W77821  26.219   1.480  12.599
 6293W        W77822  35.391   6.211   1.658
 6294W        W77823  39.987  32.859  14.925
 6295W        W77824  19.361  20.105   4.160
 6296W        W77825   3.462  34.020  10.496
 6297W        W77826  37.681  14.242  13.818
 6298W        W77827  39.223   1.535  11.031
 6299W        W77828  27.499  25.324   2.064
 6300W        W77829  12.667  36.029   1.101
 6301W        W77830  24.526  23.502  12.077
 6302W        W77831   7.288   0.334  11.192
 6303W        W77832  43.510  37.901   4.105
 6304W        W77833  33.321  24.288   0.273
 6305W        W77834  30.891  14.975  13.035
 6306W        W77835  12.386  23.138   0.667
 6307W        W77836  29.514  44.424   0.871
 6308W        W77837  42.320  40.552  11.592
 6309W        W77838  29.829   1.019  13.343
 6310W        W77839  42.422  26.460   0.482
 6311W        W77840  18.184  30.578  10.063
 6312W        W77841  38.820  24.443  13.911
 6313W        W77842  20.733  36.568  11.419
 6314W        W77843   1.687   2.475  13.007
 6315W        W77844  11.162  12.910  12.019
 6316W        W77845  11.879  18.133  13.067
 6317W        W77846  24.512  42.995   3.613
 6318W        W77847  41.405  41.446   0.096
 6319W        W77848  10.068   4.545   4.850
 6320W        W77849  30.966  19.986  11.563
 6321W        W77850  38.058   5.147   0.211
 6322W        W77851  11.146  41.552   0.915
 6323W        W77852  22.334  14.829  13.145
 6324W        W77853  33.558   7.421  13.501
 6325W        W77854  33.513  31.256  10.751
 6326W        W77855  14.261  11.874   2.904
 6327W        W77856  39.853  12.921   0.729
 6328W        W77857  10.765  23.268  14.561
 6329W        W77858  28.045  36.748  14.562
 6330W        W77859  21.705   0.872   3.381
 6331W        W77860  31.542  37.571   2.632
 6332W        W77861  14.387  26.039   1.950
 6333W        W77862  39.014   1.862   1.365
 6334W        W77863  42.078  12.333  12.013
 6335W        W77864  21.210  43.967  11.940
 6336W        W77865  15.825  44.344  14.432
 6337W        W77866   7.365  37.082   0.783
 6338W        W77867  44.397  41.088   0.526
 6339W        W77868  17.594  42.816  12.843
 6340W        W77869  38.616  14.136  12.892
 6341W        W77870  31.612  18.501   3.299
 6342W        W77871  40.426  38.513   3.170
 6343W        W77872  15.159  35.102   4.304
 6344W        W77873  29.516  17.260  11.084
 6345W        W77874  30.974   1.018   2.421
 6346W        W77875   4.311  44.272  11.510
 6347W        W77876  27.614  17.055  14.087
 6348W        W77877   2.987   0.298  12.530
 6349W        W77878  43.686  27.052  11.698
 6350W        W77879  17.689  17.506   3.929
 6351W        W77880  15.248   6.595  14.755
 6352W        W77881   6.398  37.240  12.067
 6353W        W77882  30.600  10.590   1.866
 6354W        W77883   1.932  25.520  11.002
 6355W        W77884  33.166  32.378  14.551
 6356W        W77885  30.321   3.900   0.015
 6357W        W77886  20.229  11.799  12.451
 6358W        W77887  21.491   8.852  12.470
 6359W        W77888  28.522  37.979   0.951
 6360W        W77889  16.801   6.326   3.164
 6361W        W77890  12.394   5.306  13.951
 6362W        W77891  32.345   9.652   0.810
 6363W        W77892  19.573  12.962  12.048
 6364W        W77893  17.195  18.983   4.798
 6365W        W77894  40.822  28.568  12.944
 6366W        W77895   9.426  34.832   0.905
 6367W        W77896  12.788  22.279   1.396
 6368W        W77897  41.889  13.593   0.950
 6369W        W77898   0.193   7.216   1.435
 6370W        W77899  10.175  43.726   2.271
 6371W        W77900  20.831  23.081   3.263
 6372W        W77901   4.927  13.795  14.869
 6373W        W77902  33.486  30.110   0.673
 6374W        W77903  18.353  36.088  12.994
 6375W        W77904  39.870  36.491   0.916
 6376W        W77905  44.305  28.626  11.629
 6377W        W77906  11.438  17.247   3.199
 6378W        W77907  29.843  24.097   3.110
 6379W        W77908  11.383  40.701   3.531
 6380W        W77909  17.092  24.034  13.283
 6381W        W77910  10.626  44.838   0.456
 6382W        W77911  22.177  22.721   2.792
 6383W        W77912   9.653  31.950  14.325
 6384W        W77913   5.353  30.792   3.612
 6385W        W77914  44.362   0.051  13.574
 6386W        W77915  10.597  38.341  14.107
 6387W        W77916  19.144  37.318   3.317
 6388W        W77917  16.796   0.841   0.711
 6389W        W77918   5.226  14.169   2.006
 6390W        W77919   7.344  18.895   0.526
 6391W        W77920  25.057   6.844   3.221
 6392W        W77921  32.112  26.274   0.901
 6393W        W77922   1.548  16.959   1.949
 6394W        W77923  24.814  42.050  13.850
 6395W        W77924  34.445   0.764  14.156
 6396W        W77925  12.236  36.638   3.760
 6397W        W77926  39.883  42.520   5.125
 6398W        W77927   8.091  17.684  13.528
 6399W        W77928  34.976  38.833  11.450
 6400W        W77929  44.391  39.569  14.383
 6401W        W77930   5.696   6.368  14.812
 6402W        W77931  41.424  36.508  12.885
 6403W        W77932  35.061  15.548   1.696
 6404W        W77933   7.261  19.791   3.262
 6405W        W77934  23.009  41.751  13.921
 6406W        W77935  13.315  37.616   3.768
 6407W        W77936  24.610   0.742  13.932
 6408W        W77937   6.712   9.308  13.845
 6409W        W77938  32.515  37.556   1.904
 6410W        W77939  31.924   6.800  10.276
 6411W        W77940  28.954   9.963   2.186
 6412W        W77941  12.642  42.508   3.779
 6413W        W77942  39.393  32.115   0.779
 6414W        W77943   4.924   0.632   3.814
 6415W        W77944  18.887  35.876   0.385
 6416W        W77945   1.028  20.991  14.254
 6417W        W77946  36.547  18.575   2.616
 6418W        W77947  39.285   4.364   2.655
 6419W        W77948  18.291  40.826  12.083
 6420W        W77949   2.405  32.642  14.711
 6421W        W77950  34.829  38.588   3.339
 6422W        W77951  24.733  33.823  13.003
 6423W        W77952   3.342   6.251  10.780
 6424W        W77953  29.492  35.847   1.767
 6425W        W77954  42.732  15.270   2.701
 6426W        W77955  43.953   2.837  12.403
 6427W        W77956  36.619  33.887  13.382
 6428W        W77957  19.048  33.541   2.930
 6429W        W77958  30.239  41.177   2.190
 6430W        W77959  23.716  29.207  13.761
 6431W        W77960  10.243  33.224  11.151
 6432W        W77961  21.330  42.254   2.824
 6433W        W77962  22.143  14.657   2.852
 6434W        W77963  30.122   2.841   1.960
 6435W        W77964  38.398   8.137  12.904
 6436W        W77965  25.676  26.396   3.738
 6437W        W77966  40.351   3.908  12.428
 6438W        W77967   3.275   3.046   1.759
 6439W        W77968  13.211  19.658   1.592
 6440W        W77969  39.780   6.899  12.957
 6441W        W77970  16.363  42.332   2.276
 6442W        W77971  38.071  21.231   4.531
 6443W        W77972  34.994  12.615   4.547
 6444W        W77973  17.297  26.654  10.704
 6445W        W77974  16.067   9.366  10.806
 6446W        W77975   5.617  10.913  11.199
 6447W        W77976   5.287  40.917  13.386
 6448W        W77977  25.781  39.756   1.612
 6449W        W77978  36.613  39.521  13.602
 6450W        W77979  28.056  33.389  13.997
 6451W        W77980   8.329  22.387  11.151
 6452W        W77981  28.463  37.397   2.336
 6453W        W77982  36.885  18.928  13.469
 6454W        W77983  19.215  19.614   3.216
 6455W        W77984  11.960  38.929  13.450
 6456W        W77985  17.555  16.607  12.179
 6457W        W77986  33.511  15.330   1.485
 6458W        W77987  15.966  28.950   2.260
 6459W        W77988  43.761  11.517  14.854
 6460W        W77989  31.697  30.543   1.294
 6461W        W77990  28.379  31.039   4.611
 6462W        W77991  36.905  35.030   0.438
 6463W        W77992  38.847  42.551   4.672
 6464W        W77993  29.374  37.293   4.965
 6465W        W77994  27.114  14.086  11.139
 6466W        W77995   5.411  40.462  11.600
 6467W        W77996  38.591   1.512   4.372
 6468W        W77997  10.675  11.347  11.502
 6469W        W77998  36.212  32.284   3.579
 6470W        W77999  42.832  31.145  11.610
 6471W        W78000  11.566  31.484  14.776
 6472W        W78001  20.302  38.311   0.743
 6473W        W78002   6.678  35.019  11.095
 6474W        W78003  24.598  25.947  11.720
 6475W        W78004   3.508   1.389  12.125
 6476W        W78005  42.444   8.838  14.029
 6477W        W78006  23.495  22.469   3.193
 6478W        W78007  12.782  37.345   4.958
 6479W        W78008  31.347  21.015  14.334
 6480W        W78009  44.776  43.966   3.444
 6481W        W78010  42.271  28.503   1.512
 6482W        W78011   1.976  44.492  12.982
 6483W        W78012  15.307   2.026   0.529
 6484W        W78013  14.331  42.788   0.976
 6485W        W78014  34.719   5.886  14.388
 6486W        W78015  19.026   1.624  14.972
 6487W        W78016  22.234   7.451  12.806
 6488W        W78017  35.956  31.708   2.780
 6489W        W78018  15.101  11.096   1.170
 6490W        W78019   6.854   9.389  12.919
 6491W        W78020  21.718   1.936   4.260
 6492W        W78021   0.248   8.241   4.188
 6493W        W78022  35.583   6.838   4.708
 6494W        W78023  32.363  16.353  13.828
 6495W        W78024  19.116  10.345   0.842
 6496W        W78025  44.269  22.037   2.411
 6497W        W78026  26.582  14.961  14.962
 6498W        W78027  19.885  16.224  13.877
 6499W        W78028   0.330  39.396  13.409
 6500W        W78029  38.072  36.825  14.800
 6501W        W78030  21.835  20.140   2.727
 6502W        W78031  32.059   5.170  12.858
 6503W        W78032  41.784   9.694  11.007
 6504W        W78033  34.508   9.791   2.807
 6505W        W78034  28.610  36.636   4.072
 6506W        W78035  43.298  38.916  12.942
 6507W        W78036  41.744  30.474  11.174
 6508W        W78037  30.975  43.367   4.952
 6509W        W78038   4.233   8.913  13.864
 6510W        W78039  28.905  15.237  13.351
 6511W        W78040  17.074  36.385  12.500
 6512W        W78041  27.692   0.435  10.579
 6513W        W78042  41.003  26.324   0.271
 6514W        W78043   9.817  33.072   2.487
 6515W        W78044  32.398  17.809   4.793
 6516W        W78045  21.043  16.652  10.695
 6517W        W78046   2.026  15.416  14.784
 6518W        W78047  42.931  18.933   3.773
 6519W        W78048  13.688  34.538   2.690
 6520W        W78049  44.226   3.776   2.913
 6521W        W78050   9.870  29.111   0.761
 6522W        W78051  17.122  28.989   4.290
 6523W        W78052   1.063  19.592  14.957
 6524W        W78053  10.977  11.169  11.884
 6525W        W78054   1.177  11.669  13.515
 6526W        W78055  30.129   1.943   3.481
 6527W        W78056   0.056  44.958  12.950
 6528W        W78057   7.291  18.281   1.293
 6529W        W78058  35.701  13.349  12.066
 6530W        W78059  38.708  33.534  10.275
 6531W        W78060  18.523  44.366  13.443
 6532W        W78061  42.678  28.880   0.521
 6533W        W78062  17.107  26.667   0.024
 6534W        W78063  25.165   7.375   2.276
 6535W        W78064  36.612  10.931   0.350
 6536W        W78065  15.639  19.646   1.443
 6537W        W78066  42.513  16.916   4.117
 6538W        W78067  30.562  20.518  10.800
 6539W        W78068  25.699  44.829  12.542
 6540W        W78069  29.996   6.447   3.694
 6541W        W78070  23.598  40.114  12.788
 6542W        W78071  16.761  39.082   0.237
 6543W        W78072  14.361  34.446  11.075
 6544W        W78073   3.125  38.176  11.127
 6545W        W78074   2.417  40.313  13.483
 6546W        W78075  30.226   8.408   2.543
 6547W        W78076  34.013  29.508  14.405
 6548W        W78077  31.083  25.718   4.292
 6549W        W78078  16.809   8.164  12.856
 6550W        W78079   3.087  33.530   0.226
 6551W        W78080   1.961  27.821   0.296
 6552W        W78081  25.410  44.541  14.483
 6553W        W78082  42.951  21.146   2.235
 6554W        W78083  37.111  14.337  11.753
 6555W        W78084  11.788  44.705   1.346
 6556W        W78085   4.948  28.988  13.516
 6557W        W78086  44.496  41.679   1.941
 6558W        W78087   1.524   6.713   4.059
 6559W        W78088  18.687  32.111   0.431
 6560W        W78089   8.913  33.008  13.821
 6561W        W78090   1.565  41.500  11.131
 6562W        W78091   6.278   4.994   3.758
 6563W        W78092  29.785  44.467  11.787
 6564W        W78093  14.260   0.314  13.584
 6565W        W78094  41.307  25.587   4.658
 6566W        W78095  28.747  39.153  11.048
 6567W        W78096  41.925  14.254  10.458
 6568W        W78097   8.813  30.019  10.451
 6569W        W78098  28.485  34.943   1.656
 6570W        W78099  18.763  26.063  11.520
 6571W        W78100  36.324   3.173   0.325
 6572W        W78101  17.297   4.781  11.183
 6573W        W78102  31.057   5.282   4.942
 6574W        W78103  37.422  24.000   4.708
 6575W        W78104  12.273   7.112  10.677
 6576W        W78105  42.728   4.983   3.612
 6577W        W78106   2.548  36.709   0.123
 6578W        W78107  42.134  22.859   0.903
 6579W        W78108  14.811  13.171  14.042
 6580W        W78109  43.757  31.322   1.898
 6581W        W78110  20.080  30.281  10.231
 6582W        W78111   2.272  32.401  13.576
 6583W        W78112  44.789  28.663  11.910
 6584W        W78113  37.765  28.499   3.637
 6585W        W78114  40.490  25.871   0.785
 6586W        W78115   4.711   2.582   0.660
 6587W        W78116  10.429   2.859   4.947
 6588W        W78117   4.488  16.172   0.259
 6589W        W78118  25.645   2.240   1.872
 6590W        W78119   4.481  21.047  12.029
 6591W        W78120  33.878  36.309  10.576
 6592W        W78121  30.321   0.911  12.046
 6593W        W78122  44.359  35.447  13.054
 6594W        W78123  16.876  40.454   2.736
 6595W        W78124   0.995  39.076   3.296
 6596W        W78125  26.144  25.303   2.421
 6597W        W78126  10.692  38.855  14.951
 6598W        W78127  39.274   2.856  12.532
 6599W        W78128  28.695  37.305  11.181
 6600W        W78129  36.803  42.942   2.959
 6601W        W78130   2.340  28.541   1.604
 6602W        W78131   0.932  28.868   0.383
 6603W        W78132  15.781  39.846   2.209
 6604W        W78133  22.239   6.651  13.852
 6605W        W78134  26.186  16.774  14.823
 6606W        W78135  10.391  29.091  11.705
 6607W        W78136  38.376  17.932   1.603
 6608W        W78137  10.525  17.615  12.613
 6609W        W78138  22.625  38.487  11.681
 6610W        W78139  26.685  28.749  14.134
 6611W        W78140   1.323  35.485  11.110
 6612W        W78141  34.234  39.641   3.424
 6613W        W78142  44.332  14.522   4.151
 6614W        W78143  42.104  32.482  10.604
 6615W        W78144   7.499  27.171   3.758
 6616W        W78145   7.883  21.992  14.192
 6617W        W78146  17.021   0.908   4.565
 6618W        W78147   9.300   0.979  11.944
 6619W        W78148  11.665  10.113   3.309
 6620W        W78149  13.574  28.009  14.295
 6621W        W78150  14.014  28.157   1.879
 6622W        W78151   4.355  22.744  14.416
 6623W        W78152   6.722   9.725   2.627
 6624W        W78153  42.260  12.756   0.723
 6625W        W78154  23.116  18.048   0.386
 6626W        W78155  11.386  28.266  12.614
 6627W        W78156  30.871  40.496  12.517
 6628W        W78157   0.841  17.396  12.980
 6629W        W78158   5.906  29.619   2.191
 6630W        W78159  17.253  12.433   0.455
 6631W        W78160  41.017   4.745  12.419
 6632W        W78161  10.433  42.656   5.006
 6633W        W78162   2.249  44.699   3.172
 6634W        W78163  38.114  15.816   2.834
 6635W        W78164   9.100  26.223  12.977
 6636W        W78165  14.933  30.098  12.455
 6637W        W78166   0.886  42.483  13.463
 6638W        W78167  20.638   1.301  14.862
 6639W        W78168  20.259   3.473   4.671
 6640W        W78169  13.887  29.499  12.925
 6641W        W78170  36.358  11.800  14.875
 6642W        W78171   0.397  10.368  14.728
 6643W        W78172   4.747   9.606   0.608
 6644W        W78173   1.392   1.715   4.214
 6645W        W78174  33.125  19.548   2.803
 6646W        W78175  31.192   3.997   2.877
 6647W        W78176  30.175   1.478   2.773
 6648W        W78177   3.222  33.458   3.899
 6649W        W78178   3.876   1.473   2.945
 6650W        W78179  37.909  32.986  13.892
 6651W        W78180  13.748   6.705   1.913
 6652W        W78181  40.530  38.128   0.462
 6653W        W78182  43.799  10.300  14.365
 6654W        W78183  36.461   8.241   1.917
 6655W        W78184  13.593  18.480  11.560
 6656W        W78185   8.542   2.900  13.764
 6657W        W78186   1.500   2.926   3.798
 6658W        W78187   6.403  39.552  14.001
 6659W        W78188  34.921  14.200  12.194
 6660W        W78189   0.684  24.124  14.978
 6661W        W78190  16.048  26.077  12.529
 6662W        W78191  44.040  42.279  10.792
 6663W        W78192  29.895  35.039   3.413
 6664W        W78193  41.819  13.406   1.431
 6665W        W78194  27.849  10.593   4.075
 6666W        W78195  40.334  18.121   1.722
 6667W        W78196  15.820   8.331  14.756
 6668W        W78197  40.095  43.014  12.620
 6669W        W78198  25.274  23.486  13.860
 6670W        W78199   8.937  42.571  11.200
 6671W        W78200  19.831  31.965   3.807
 6672W        W78201  42.496  10.863  13.423
 6673W        W78202  37.172  27.963   2.221
 6674W        W78203   0.000   4.605  10.245
 6675W        W78204  38.978  40.374   2.109
 6676W        W78205  18.845  24.298  12.939
 6677W        W78206   6.816   1.859   3.306
 6678W        W78207  37.032  21.504   2.724
 6679W        W78208   5.988   9.419  11.835
 6680W        W78209  21.549  35.215   0.206
 6681W        W78210  37.700  39.037   1.532
 6682W        W78211  36.519  14.696   3.560
 6683W        W78212  31.893  31.217   3.744
 6684W        W78213   3.072  35.526   1.279
 6685W        W78214   7.882  19.566  13.037
 6686W        W78215   6.880  27.995  12.304
 6687W        W78216  43.872  16.386   4.190
 6688W        W78217  44.318  26.236   3.338
 6689W        W78218  16.513  32.024   3.509
 6690W        W78219  20.352  14.837   0.316
 6691W        W78220  23.195  24.623  12.494
 6692W        W78221  15.132  36.898   1.423
 6693W        W78222  30.532  42.413   4.550
 6694W        W78223  35.257   6.956   1.559
 6695W        W78224  34.073  37.327   4.712
 6696W        W78225  10.647  35.012   1.971
 6697W        W78226  18.798   2.720   2.404
 6698W        W78227  24.457  37.348  12.128
 6699W        W78228  11.477  20.477   3.052
 6700W        W78229  33.047  10.146  13.579
 6701W        W78230   2.445  18.203   1.839
 6702W        W78231   4.815  36.137  14.483
 6703W        W78232   3.254  16.781   4.387
 6704W        W78233  31.232  37.268  13.998
 6705W        W78234  29.037  35.935   3.591
 6706W        W78235  42.501   8.521   2.351
 6707W        W78236   1.316  33.644   1.649
 6708W        W78237  33.651  20.600  11.095
 6709W        W78238  37.279  17.699  13.943
 6710W        W78239  26.100  33.920  13.091
 6711W        W78240  42.993  42.354   2.783
 6712W        W78241  36.469  22.999  12.372
 6713W        W78242  41.692  19.460   4.984
 6714W        W78243  41.847  23.088   4.695
 6715W        W78244  13.396   4.216  13.449
 6716W        W78245  43.005   4.601   2.681
 6717W        W78246  10.570  17.605   2.951
 6718W        W78247   6.325   9.601   1.669
 6719W        W78248  40.326  17.264  13.414
 6720W        W78249  14.645  14.204   3.540
 6721W        W78250  39.831   8.084  14.284
 6722W        W78251   2.279   3.304  12.114
 6723W        W78252  23.103   2.372   4.170
 6724W        W78253   0.506  23.705   0.370
 6725W        W78254   4.830  36.010   0.771
 6726W        W78255  32.167  16.176   0.866
 6727W        W78256   8.449   5.876   3.366
 6728W        W78257  10.168  15.206   2.681
 6729W        W78258   3.864   6.253   0.269
 6730W        W78259   2.382  12.401  14.626
 6731W        W78260   5.943  36.812   1.460
 6732W        W78261   2.593  27.958   4.533
 6733W        W78262   6.509  20.773  10.335
 6734W        W78263  29.573  44.437   4.759
 6735W        W78264   4.247   8.622   2.941
 6736W        W78265  33.054  14.013   1.546
 6737W        W78266  29.564  16.180   2.662
 6738W        W78267  32.666   9.487  11.523
 6739W        W78268  21.095  37.684  10.131
 6740W        W78269  35.487  40.020  12.991
 6741W        W78270  22.767  26.388  12.144
 6742W        W78271  19.102  41.314   3.960
 6743W        W78272  23.737  14.498   1.154
 6744W        W78273  21.044  14.782  14.899
 6745W        W78274   4.014  29.073  13.340
 6746W        W78275  43.777  42.151  13.997
 6747W        W78276  32.961  23.273  14.183
 6748W        W78277  28.920  31.050   2.209
 6749W        W78278  32.709  31.405   0.872
 6750W        W78279   9.115  24.767  11.347
 6751W        W78280   4.325   9.291   0.499
 6752W        W78281  12.786  14.278   1.388
 6753W        W78282  38.710  16.622   3.169
 6754W        W78283  34.920  27.413   4.879
 6755W        W78284  20.297  15.589   2.259
 6756W        W78285  43.878  37.111   1.844
 6757W        W78286   9.114   3.415  13.337
 6758W        W78287  15.612  15.418  14.937
 6759W        W78288  23.178  16.008   1.289
 6760W        W78289  27.112  21.951   4.124
 6761W        W78290   9.217  16.193  14.519
 6762W        W78291  42.993  26.619  14.357
 6763W        W78292  12.407  19.137   0.302
 6764W        W78293  16.445  31.792   4.804
 6765W        W78294  11.065  25.547   3.665
 6766W        W78295   3.283  35.962  12.074
 6767W        W78296  12.079  42.951   4.620
 6768W        W78297  29.723  10.719  13.364
 6769W        W78298  11.058  32.585   1.390
 6770W        W78299  13.693  23.107   0.389
 6771W        W78300  18.405   5.725  10.380
 6772W        W78301   4.897  21.339   3.501
 6773W        W78302  15.277  18.081  13.527
 6774W        W78303  40.499  16.652   4.183
 6775W        W78304  20.679   3.276   0.293
 6776W        W78305  35.857  44.292   2.405
 6777W        W78306  10.636   0.718   2.794
 6778W        W78307  11.246   9.893   3.134
 6779W        W78308  36.506  37.069  12.436
 6780W        W78309  21.394  33.584   4.237
 6781W        W78310  27.599  16.970  13.182
 6782W        W78311  14.458   7.881   2.237
 6783W        W78312  30.974  21.260   4.120
 6784W        W78313   6.176   0.443   4.621
 6785W        W78314   7.719  29.115  13.385
 6786W        W78315  26.818  10.482  12.354
 6787W        W78316   5.321  37.651  12.463
 6788W        W78317  34.425   1.021   2.360
 6789W        W78318   9.291  30.632   4.655
 6790W        W78319   7.310  14.096   0.831
 6791W        W78320  30.568  21.503   3.271
 6792W        W78321  21.799  26.240   3.670
 6793W        W78322  12.347  11.622   0.970
 6794W        W78323   6.898  15.688  11.611
 6795W        W78324  15.562   2.723  11.860
 6796W        W78325   2.687  33.365  14.337
 6797W        W78326  40.239  31.042  14.312
 6798W        W78327  35.971  20.912  14.765
 6799W        W78328  13.302   0.212   1.838
 6800W        W78329  28.169  29.381  11.642
 6801W        W78330  42.760   2.330   4.555
 6802W        W78331   2.967  27.619   2.457
 6803W        W78332  19.034  11.628   3.050
 6804W        W78333  31.747  17.346   1.895
 6805W        W78334  37.237  11.173  12.809
 6806W        W78335  30.315  28.641   4.897
 6807W        W78336  17.863  22.123   2.889
 6808W        W78337  24.728  14.283   1.818
 6809W        W78338  26.604   0.273  12.665
 6810W        W78339  40.848   8.625  13.114
 6811W        W78340   2.799  37.161   1.324
 6812W        W78341  11.692   8.430  11.286
 6813W        W78342  14.837  19.559   3.250
 6814W        W78343   2.300  34.400   1.023
 6815W        W78344   0.956   4.326   0.297
 6816W        W78345  22.152   2.362  12.881
 6817W        W78346  32.383  11.864  13.585
 6818W        W78347  35.787  12.415   3.643
 6819W        W78348  15.711   5.647  11.391
 6820W        W78349  42.453   9.187  10.880
 6821W        W78350  42.119  11.803  12.160
 6822W        W78351   6.232  27.267  11.971
 6823W        W78352  24.151  33.992   3.271
 6824W        W78353   4.938  39.425   1.737
 6825W        W78354  39.962  15.661   0.682
 6826W        W78355  19.801  34.197   1.702
 6827W        W78356  44.068  13.537   2.230
 6828W        W78357  35.791  12.248  10.725
 6829W        W78358  43.558  25.582   0.760
 6830W        W78359  30.509  16.185   4.538
 6831W        W78360  31.541  17.479   0.756
 6832W        W78361  36.430  13.324  12.594
 6833W        W78362  29.736  31.843  13.998
 6834W        W78363  12.137  17.033   1.431
 6835W        W78364   4.800  40.904  13.860
 6836W        W78365  10.196  23.264  10.119
 6837W        W78366  32.723  19.921   4.090
 6838W        W78367  12.554  35.543   1.011
 6839W        W78368  43.287   4.458  12.160
 6840W        W78369   0.832  23.586  11.751
 6841W        W78370   8.219  11.764   4.216
 6842W        W78371  40.385  39.203  10.730
 6843W        W78372  12.164  36.606   2.901
 6844W        W78373  25.651  36.964  13.914
 6845W        W78374  17.326  32.817  10.603
 6846W        W78375  11.354  34.123  12.204
 6847W        W78376  15.865   6.736  11.706
 6848W        W78377  33.813  37.059  13.978
 6849W        W78378  27.541  28.922  13.935
 6850W        W78379  25.570   4.128  12.557
 6851W        W78380  27.578  43.291   4.410
 6852W        W78381  22.438  29.311  10.724
 6853W        W78382   4.702   4.619  12.548
 6854W        W78383  32.850   8.846  10.719
 6855W        W78384   6.587  15.760   3.233
 6856W        W78385  22.146   2.497  14.688
 6857W        W78386  16.310  44.381  12.979
 6858W        W78387   8.303  25.893  14.408
 6859W        W78388  13.804  35.913   3.988
 6860W        W78389   6.684   3.010  10.427
 6861W        W78390  34.337  37.542  13.800
 6862W        W78391   8.363  34.866   2.422
 6863W        W78392  29.971  15.595   2.318
 6864W        W78393   8.160   8.352  14.010
 6865W        W78394  35.941  27.457  11.718
 6866W        W78395  18.443   9.409  11.839
 6867W        W78396  27.979  43.359   3.595
 6868W        W78397  37.352  28.617   1.374
 6869W        W78398   2.160   2.149   5.063
 6870W        W78399   9.123  38.451   3.697
 6871W        W78400  40.230   6.424   1.762
 6872W        W78401  19.623  30.723   3.577
 6873W        W78402   5.284  10.255   4.069
 6874W        W78403   0.043  44.469   3.735
 6875W        W78404  36.544  36.608  14.371
 6876W        W78405  27.645  31.080  13.217
 6877W        W78406  18.782  27.950  11.488
 6878W        W78407  14.664  10.874  13.430
 6879W        W78408  43.925   3.995   3.705
 6880W        W78409  37.626  20.070  14.428
 6881W        W78410  40.267  18.771   9.819
 6882W        W78411   9.421  41.934  10.714
 6883W        W78412   3.378  37.275   0.529
 6884W        W78413  14.906  40.512  11.332
 6885W        W78414  34.961   6.260   2.805
 6886W        W78415  28.034  35.879   1.671
 6887W        W78416  29.074   4.248   0.162
 6888W        W78417  39.377  32.606   2.728
 6889W        W78418  38.506   9.294   2.292
 6890W        W78419  17.271  44.107  14.497
 6891W        W78420  41.469  16.729  13.099
 6892W        W78421  16.540  28.158   0.981
 6893W        W78422  44.489  30.462   2.739
 6894W        W78423   6.721   9.613  13.401
 6895W        W78424   6.822   5.620  12.651
 6896W        W78425  30.669   8.749  13.325
 6897W        W78426  34.849  16.683  11.955
 6898W        W78427   2.852   9.542  12.377
 6899W        W78428  39.509  44.904   0.650
 6900W        W78429   4.476  20.574  12.936
 6901W        W78430  33.073  21.969  11.498
 6902W        W78431  26.120  18.723  10.521
 6903W        W78432   4.492  37.606   0.878
 6904W        W78433  35.074  10.113   3.613
 6905W        W78434  37.406   1.133  10.977
 6906W        W78435   9.633  36.042  13.932
 6907W        W78436  11.862  37.742  10.531
 6908W        W78437  38.973  34.065  14.098
 6909W        W78438   1.623  44.823  13.283
 6910W        W78439  11.216  26.468   3.502
 6911W        W78440   3.308  40.543  12.963
 6912W        W78441  35.819   7.360   3.657
 6913W        W78442   3.402  42.578  12.086
 6914W        W78443  25.078  40.946  13.304
 6915W        W78444  16.294   7.625  10.741
 6916W        W78445  17.087  35.910  10.765
 6917W        W78446  15.106  44.010   1.430
 6918W        W78447  12.223  16.299  12.927
 6919W        W78448  23.163  37.877  11.988
 6920W        W78449   6.407  28.626  11.789
 6921W        W78450   0.706  18.793  12.129
 6922W        W78451   7.801  20.746   4.688
 6923W        W78452  30.624  20.539   3.759
 6924W        W78453  29.508  18.803  12.067
 6925W        W78454   8.176  34.370   2.449
 6926W        W78455  25.410  37.338  11.667
 6927W        W78456  12.347  39.622   1.749
 6928W        W78457  24.479  28.046   3.680
 6929W        W78458  12.276   7.431  11.957
 6930W        W78459  41.455  15.117   0.789
 6931W        W78460  17.688   4.958   2.034
 6932W        W78461  10.266   2.816  12.440
 6933W        W78462   8.445  39.008   2.648
 6934W        W78463  39.013  13.610   0.119
 6935W        W78464  17.371  23.089  10.364
 6936W        W78465  37.113   3.761  10.899
 6937W        W78466   7.630   9.697   4.533
 6938W        W78467   6.736  25.527  14.741
 6939W        W78468  41.277  32.517  13.344
 6940W        W78469   7.448  25.048   4.678
 6941W        W78470  27.489  36.838   0.232
 6942W        W78471  42.347  37.770  10.264
 6943W        W78472  25.196  14.834   4.169
 6944W        W78473  40.486  35.187  14.946
 6945W        W78474  20.669   8.398   4.437
 6946W        W78475  25.247  32.986  13.392
 6947W        W78476  34.578   2.252   2.188
 6948W        W78477   8.376  40.249  12.212
 6949W        W78478  12.605   7.274   3.557
 6950W        W78479  38.759  11.746  13.471
 6951W        W78480   0.223  12.593   0.823
 6952W        W78481  31.903  21.723   4.150
 6953W        W78482  20.542  23.231  11.076
 6954W        W78483   9.744  23.148  11.444
 6955W        W78484  31.659  24.150   3.586
 6956W        W78485   6.608   5.219   1.916
 6957W        W78486   1.313  18.635   2.542
 6958W        W78487  18.625   0.488  12.030
 6959W        W78488  16.947  37.231  10.900
 6960W        W78489  10.631  40.557  14.403
 6961W        W78490   7.299  23.520  13.834
 6962W        W78491   2.467   5.690  14.108
 6963W        W78492  25.575   5.631  11.606
 6964W        W78493  31.835  16.762   2.635
 6965W        W78494  12.220   3.885   3.376
 6966W        W78495  41.742   1.913  13.459
 6967W        W78496  40.050  14.585  14.724
 6968W        W78497  28.094   3.378   1.719
 6969W        W78498  39.673  10.801  12.549
 6970W        W78499  26.449  18.879   0.222
 6971W        W78500  19.838  39.872  13.364
 6972W        W78501  17.065  32.488   4.944
 6973W        W78502  26.975  33.613   3.726
 6974W        W78503  36.580  38.989   3.310
 6975W        W78504   5.603  31.343   0.239
 6976W        W78505  32.782  17.045   3.884
 6977W        W78506  28.927   1.861  10.600
 6978W        W78507  44.230  27.133  12.583
 6979W        W78508  12.587  10.374  10.232
 6980W        W78509  40.017  28.955  13.834
 6981W        W78510  36.771  11.375   3.221
 6982W        W78511  44.924  37.152  11.443
 6983W        W78512  27.441  39.345  14.929
 6984W        W78513  24.127   3.977  11.157
 6985W        W78514  31.012  31.663  13.006
 6986W        W78515  28.425  38.967   2.136
 6987W        W78516  30.423  34.103   2.142
 6988W        W78517  19.084  16.026  12.929
 6989W        W78518   6.451   8.868  13.977
 6990W        W78519   0.758  40.287   4.022
 6991W        W78520  38.571  14.723  10.745
 6992W        W78521  38.148  30.144  13.843
 6993W        W78522   8.368  22.945   2.333
 6994W        W78523   6.481  22.367   0.410
 6995W        W78524  27.307  24.154   0.235
 6996W        W78525  16.962  37.361  12.766
 6997W        W78526  22.238  26.957   4.131
 6998W        W78527  25.508   6.203  14.022
 6999W        W78528  44.707   5.177  11.582
 7000W        W78529   3.231  31.460   4.186
 7001W        W78530  38.534  20.062   3.004
 7002W        W78531  37.102  24.645   1.406
 7003W        W78532  32.083   8.966  14.244
 7004W        W78533  30.171  37.383  12.057
 7005W        W78534  13.853   9.814  14.160
 7006W        W78535  32.466   1.007   2.607
 7007W        W78536  17.865  27.979   3.333
 7008W        W78537  10.481  33.572  14.981
 7009W        W78538   1.745  41.458   0.907
 7010W        W78539   1.744  10.828  13.278
 7011W        W78540  18.104  36.072   0.015
 7012W        W78541  17.238  24.088   0.435
 7013W        W78542  38.349  28.658  10.698
 7014W        W78543  12.173  26.662   2.423
 7015W        W78544  22.310  14.179  10.722
 7016W        W78545  39.576  32.990  12.399
 7017W        W78546  20.822   6.641  11.674
 7018W        W78547  31.438   2.828   4.123
 7019W        W78548  35.371  29.361  14.949
 7020W        W78549  16.337  27.489   3.090
 7021W        W78550  38.684  28.478   0.775
 7022W        W78551  42.763  26.207  10.595
 7023W        W78552  35.082   1.430  12.565
 7024W        W78553  17.687  34.187   0.601
 7025W        W78554  11.577  16.159  11.626
 7026W        W78555  14.500  31.959   3.266
 7027W        W78556  20.754  34.663  11.597
 7028W        W78557   8.001  31.835  14.682
 7029W        W78558  28.685  10.312   4.273
 7030W        W78559  40.017   3.453  14.068
 7031W        W78560  10.666  33.123  14.808
 7032W        W78561  29.857  42.786   2.541
 7033W        W78562  31.967   3.828   4.489
 7034W        W78563   8.354  22.151  14.072
 7035W        W78564  40.034  35.629  11.581
 7036W        W78565  41.209   5.829  11.646
 7037W        W78566  11.818  18.194   1.481
 7038W        W78567  20.526   4.802   2.106
 7039W        W78568  12.883  15.510  14.914
 7040W        W78569  12.310   8.927  10.947
 7041W        W78570  33.629   3.897   1.335
 7042W        W78571  26.039  26.487   1.368
 7043W        W78572  21.500   0.684   5.131
 7044W        W78573   0.055   9.405  11.169
 7045W        W78574  10.806  39.384   0.090
 7046W        W78575  37.991  10.912  14.325
 7047W        W78576  11.792  40.922  11.420
 7048W        W78577  37.818   4.939  12.511
 7049W        W78578   8.422  44.028   0.784
 7050W        W78579   5.745  34.057   3.143
 7051W        W78580  19.882  43.084  13.279
 7052W        W78581  16.192  44.934   2.694
 7053W        W78582  15.404  22.829   1.251
 7054W        W78583   8.351  14.201  12.451
 7055W        W78584  43.409   8.881   3.173
 7056W        W78585  16.672  28.929   1.645
 7057W        W78586  37.808  26.905  11.980
 7058W        W78587  27.335  44.272  11.099
 7059W        W78588  12.235  22.227   0.753
 7060W        W78589  34.547  22.520   3.661
 7061W        W78590   0.279  17.742   1.908
 7062W        W78591   1.992  28.063  13.158
 7063W        W78592  10.259   0.117   1.687
 7064W        W78593  14.360   7.166  12.362
 7065W        W78594  22.748  14.322  13.755
 7066W        W78595  30.180  19.246   2.369
 7067W        W78596  20.956  18.794  14.004
 7068W        W78597   8.178  38.985   1.260
 7069W        W78598   5.050   5.704   1.174
 7070W        W78599   7.584  19.164  14.226
 7071W        W78600  32.378  11.666   4.153
 7072W        W78601  30.599  25.981  12.804
 7073W        W78602  30.506  42.171  13.290
 7074W        W78603  36.427  10.855  12.408
 7075W        W78604  15.133  11.872   3.208
 7076W        W78605  42.837   9.982   3.767
 7077W        W78606  17.505  19.415   0.063
 7078W        W78607   8.246  24.415   0.811
 7079W        W78608  10.047  17.962   2.103
 7080W        W78609  41.736  21.577   1.335
 7081W        W78610  19.011   3.895  12.911
 7082W        W78611  29.302  10.911  12.022
 7083W        W78612  19.398  22.386   2.272
 7084W        W78613  24.783  17.102   2.165
 7085W        W78614   2.974  44.018   2.914
 7086W        W78615  22.522   9.680  12.456
 7087W        W78616  43.867  31.510   3.239
 7088W        W78617  43.431  24.223   0.305
 7089W        W78618  15.441  13.091   3.229
 7090W        W78619  25.272  31.478   0.842
 7091W        W78620  11.297  14.405  11.885
 7092W        W78621  23.182  17.701  12.100
 7093W        W78622  29.884  18.807  12.455
 7094W        W78623  38.887  32.377   2.858
 7095W        W78624  19.551   9.798  12.465
 7096W        W78625  37.192  17.802  11.242
 7097W        W78626  39.371   1.347  14.227
 7098W        W78627  25.035  30.844  11.619
 7099W        W78628  32.066   4.864  12.439
 7100W        W78629  34.473  12.112  13.399
 7101W        W78630   4.373  32.965  11.198
 7102W        W78631  36.526  39.407  13.092
 7103W        W78632  34.538  37.584   4.213
 7104W        W78633  39.285  22.589  12.481
 7105W        W78634  28.032  16.987   3.766
 7106W        W78635   0.473  15.135   2.117
 7107W        W78636  33.846  44.824  12.613
 7108W        W78637  12.255   1.515  14.449
 7109W        W78638  27.629  30.606  13.433
 7110W        W78639  28.704  32.550   2.406
 7111W        W78640  14.349   1.298  13.343
 7112W        W78641  22.697  10.595  10.947
 7113W        W78642   4.220  28.382  11.623
 7114W        W78643  15.817  18.710  10.749
 7115W        W78644  32.678  43.962  12.417
 7116W        W78645  25.461  42.852  14.023
 7117W        W78646  26.499  26.128   0.038
 7118W        W78647  41.323   9.068   3.354
 7119W        W78648  34.762  40.064   1.137
 7120W        W78649  42.862  11.162   0.757
 7121W        W78650  36.155   3.551   3.413
 7122W        W78651  24.732  20.676   4.985
 7123W        W78652  21.315   2.707   4.128
 7124W        W78653  10.103  30.531   1.074
 7125W        W78654   1.518  23.586   3.129
 7126W        W78655  43.825  28.239  10.426
 7127W        W78656   7.929  24.043   0.899
 7128W        W78657   4.756  15.202  11.443
 7129W        W78658  23.210   0.373   2.621
 7130W        W78659  34.016  17.121  11.718
 7131W        W78660  21.907  37.970  10.629
 7132W        W78661  12.713  26.138  11.547
 7133W        W78662  42.466  19.096   2.168
 7134W        W78663  24.712  16.362   3.713
 7135W        W78664  21.027  44.798  14.789
 7136W        W78665  41.333  37.317   0.326
 7137W        W78666  20.191   8.544  13.924
 7138W        W78667  39.127  38.649   1.994
 7139W        W78668  34.821  18.314  12.454
 7140W        W78669  21.955  31.932  12.341
 7141W        W78670   8.204  42.941   0.439
 7142W        W78671   5.342  14.856  11.960
 7143W        W78672  32.650   7.464  11.644
 7144W        W78673  20.680  26.025  13.788
 7145W        W78674   4.930  34.604   1.646
 7146W        W78675  20.045   2.271   1.915
 7147W        W78676   3.075  20.174   1.930
 7148W        W78677  22.973  12.908   1.255
 7149W        W78678  27.382  15.648   1.287
 7150W        W78679  21.106  44.387   1.126
 7151W        W78680  10.378   4.292   2.934
 7152W        W78681  15.084  37.985  13.821
 7153W        W78682   9.371  37.640  13.334
 7154W        W78683   4.148  12.365   3.203
 7155W        W78684  34.109  28.045   4.718
 7156W        W78685  15.630  37.947   1.357
 7157W        W78686   2.235  34.021   1.843
 7158W        W78687  12.581   2.896  11.511
 7159W        W78688  27.734  13.289   4.584
 7160W        W78689  42.811  32.462  12.152
 7161W        W78690  11.131  28.378  11.061
 7162W        W78691  41.346   1.528   1.860
 7163W        W78692  44.741  35.482   3.107
 7164W        W78693  18.243  15.617   4.544
 7165W        W78694  37.685  26.163   2.850
 7166W        W78695  22.059  38.169   0.372
 7167W        W78696  43.082  32.676   0.536
 7168W        W78697  12.236  44.259   1.885
 7169W        W78698  15.130   6.848   3.136
 7170W        W78699   1.726  21.536  11.933
 7171W        W78700  17.575   7.839  14.315
 7172W        W78701   0.889  34.180  13.376
 7173W        W78702   6.511  18.639   4.884
 7174W        W78703  30.081  20.232   0.932
 7175W        W78704  32.475  13.201   3.062
 7176W        W78705  27.809   7.183   1.710
 7177W        W78706  43.816   4.947  13.445
 7178W        W78707  23.992  30.674   4.501
 7179W        W78708   0.715  23.104   0.521
 7180W        W78709  38.951  43.500   3.709
 7181W        W78710  33.848   4.015  11.111
 7182W        W78711   5.333   8.462  12.427
 7183W        W78712  38.922   7.900   2.414
 7184W        W78713  18.642  18.220  14.490
 7185W        W78714  40.239   8.393  10.448
 7186W        W78715  28.139  35.365   1.601
 7187W        W78716  24.195  43.888  13.307
 7188W        W78717  19.224  43.765  13.957
 7189W        W78718  35.167  35.976   0.890
 7190W        W78719   4.345   6.827   0.803
 7191W        W78720  41.401  21.015   3.171
 7192W        W78721  25.069  37.130   3.448
 7193W        W78722  44.379   9.939  10.699
 7194W        W78723  34.620  17.588  13.326
 7195W        W78724  29.698  13.221   4.487
 7196W        W78725  26.105  43.701   1.006
 7197W        W78726  13.374  10.209  11.519
 7198W        W78727  28.472   3.341   2.807
 7199W        W78728  29.348  24.619   4.640
 7200W        W78729  24.376  41.456  14.261
 7201W        W78730   9.408  43.941   0.756
 7202W        W78731  15.124  42.285  13.446
 7203W        W78732  33.021  41.032  14.755
 7204W        W78733  37.206  24.685  14.992
 7205W        W78734  34.527  11.158  11.121
 7206W        W78735  28.164  19.247   0.382
 7207W        W78736   4.909  27.734  14.960
 7208W        W78737  36.113  34.345   3.916
 7209W        W78738  19.694  10.655  11.199
 7210W        W78739  39.009   2.101  13.064
 7211W        W78740  41.717  26.425   4.594
 7212W        W78741  11.147  42.973   0.723
 7213W        W78742  36.184   7.301   4.186
 7214W        W78743  21.012   1.239   3.786
 7215W        W78744  26.384  41.184  11.976
 7216W        W78745  37.236  18.222  13.860
 7217W        W78746  10.240  13.867   3.201
 7218W        W78747  38.804   8.785   9.913
 7219W        W78748  35.943   7.322   0.839
 7220W        W78749  17.813  41.419  10.745
 7221W        W78750  39.038  19.213   3.557
 7222W        W78751  24.101  13.480  11.543
 7223W        W78752  34.827  42.480  10.692
 7224W        W78753  17.879  25.938  13.950
 7225W        W78754  21.990  22.560  13.597
 7226W        W78755   6.711  18.071  12.571
 7227W        W78756   2.099  30.362   5.191
 7228W        W78757   5.819  40.133  11.472
 7229W        W78758  38.827  24.468  12.959
 7230W        W78759  40.439   5.276   4.119
 7231W        W78760  17.727  33.449   1.310
 7232W        W78761  28.246  17.281   0.357
 7233W        W78762  34.508  20.713  14.522
 7234W        W78763   9.634  22.668  11.600
 7235W        W78764  35.649  32.935  12.650
 7236W        W78765  37.392  43.024   0.304
 7237W        W78766  15.325   2.721  14.899
 7238W        W78767  19.879  36.923   4.729
 7239W        W78768  20.899  33.139  12.682
 7240W        W78769  36.068  37.785   3.781
 7241W        W78770  35.527  30.080   4.492
 7242W        W78771  43.942  11.973   4.814
 7243W        W78772  21.581  10.233   3.133
 7244W        W78773  14.780  12.398  14.720
 7245W        W78774  10.071   9.100  11.121
 7246W        W78775  25.855   2.848  14.719
 7247W        W78776  31.499  25.931   2.231
 7248W        W78777  17.069  14.741  13.969
 7249W        W78778  20.633  26.168   4.159
 7250W        W78779  44.271   7.399  10.458
 7251W        W78780  28.486   7.929   3.170
 7252W        W78781   1.199  19.249  13.897
 7253W        W78782  42.871   9.658   3.185
 7254W        W78783  14.517  10.745  11.654
 7255W        W78784  11.208   5.703   3.633
 7256W        W78785  24.377   7.389  12.403
 7257W        W78786  10.905  43.293   4.175
 7258W        W78787  27.651  38.356  10.389
 7259W        W78788  21.019  20.185  12.298
 7260W        W78789  30.289  23.796  14.987
 7261W        W78790  20.055  24.651  14.899
 7262W        W78791   6.055  42.411   1.563
 7263W        W78792  34.834   3.955   2.818
 7264W        W78793  37.482   3.318   4.751
 7265W        W78794   4.210  21.019  13.081
 7266W        W78795  10.486   6.168   0.077
 7267W        W78796  38.062  21.066   4.052
 7268W        W78797  43.964  27.696   0.469
 7269W        W78798   4.249  18.285   1.709
 7270W        W78799   9.843  24.203   3.045
 7271W        W78800  18.827  18.694   0.823
 7272W        W78801  10.886  24.217   0.976
 7273W        W78802  24.746  35.153   0.458
 7274W        W78803  29.245  26.717  13.660
 7275W        W78804  22.319  24.985   3.444
 7276W        W78805  24.696  44.646  12.243
 7277W        W78806   7.928  17.119  14.298
 7278W        W78807  19.594  30.453   4.538
 7279W        W78808  16.180  36.924   2.734
 7280W        W78809   8.078  36.149   1.197
 7281W        W78810  40.523  14.022  14.319
 7282W        W78811  25.329  28.159  12.566
 7283W        W78812   9.549   9.848   0.828
 7284W        W78813   1.755  25.500   3.266
 7285W        W78814   9.882  39.985  10.681
 7286W        W78815  40.988  13.938   1.869
 7287W        W78816  13.936   3.664  13.500
 7288W        W78817  30.843  35.938   3.728
 7289W        W78818   2.285  31.445  11.434
 7290W        W78819   3.855   4.623  13.908
 7291W        W78820  42.018  34.380  12.637
 7292W        W78821  16.361   9.292  11.209
 7293W        W78822  32.872   0.585   3.282
 7294W        W78823  21.042   9.927   0.446
 7295W        W78824  10.915   0.263   0.491
 7296W        W78825  19.326   2.189   4.543
 7297W        W78826  18.370  24.137  14.792
 7298W        W78827  11.638   7.357   0.418
 7299W        W78828  38.451  38.969  13.522
 7300W        W78829   2.003  20.764  13.338
 7301W        W78830  29.424  27.161  13.873
 7302W        W78831   6.735   6.699  14.032
 7303W        W78832  41.521  22.442  13.127
 7304W        W78833   2.496  36.119   1.303
 7305W        W78834   2.695  41.471   1.086
 7306W        W78835  28.340  17.641   0.721
 7307W        W78836  21.061   2.893   4.579
 7308W        W78837  14.693  38.364   1.837
 7309W        W78838  32.668  24.857  11.530
 7310W        W78839  13.437  19.778  11.321
 7311W        W78840  26.527  37.162  12.133
 7312W        W78841  31.846  17.675  12.037
 7313W        W78842  29.595  18.116  13.096
 7314W        W78843  25.489  42.878   3.624
 7315W        W78844  22.866  15.557   1.227
 7316W        W78845  21.548  20.145  12.996
 7317W        W78846  34.114  37.938  13.148
 7318W        W78847  23.299  32.044  10.170
 7319W        W78848   4.555  33.378   4.231
 7320W        W78849  10.952  17.958   1.234
 7321W        W78850  27.400   2.360  12.302
 7322W        W78851   8.111  43.888  14.435
 7323W        W78852   6.396  34.642   1.458
 7324W        W78853  25.618  11.983   3.699
 7325W        W78854  19.256   4.879  12.112
 7326W        W78855  19.191  11.638  14.726
 7327W        W78856   4.323   7.312   1.013
 7328W        W78857  36.355  32.219   2.200
 7329W        W78858  13.712  39.662   2.171
 7330W        W78859   9.946  36.423   3.774
 7331W        W78860  33.010  31.111  10.736
 7332W        W78861  30.548  27.520   4.507
 7333W        W78862  24.952  29.481   2.963
 7334W        W78863  20.102   1.503  10.367
 7335W        W78864  13.242  25.387  10.610
 7336W        W78865  39.567  15.670  12.840
 7337W        W78866  35.954  11.542  12.379
 7338W        W78867  19.222  30.637   2.682
 7339W        W78868  40.501   8.045  11.632
 7340W        W78869  32.014  37.872   0.434
 7341W        W78870  32.410   1.360  10.691
 7342W        W78871  20.670  15.098   1.857
 7343W        W78872  12.769   9.287   0.443
 7344W        W78873  43.425  24.731   3.542
 7345W        W78874   4.275  17.522   3.782
 7346W        W78875  22.722  24.121   1.292
 7347W        W78876  30.968  42.071  14.504
 7348W        W78877  24.718  24.143  12.838
 7349W        W78878   6.125  24.940   4.942
 7350W        W78879  40.892  24.694   4.190
 7351W        W78880  40.442  31.910   4.479
 7352W        W78881  19.338  16.762   1.306
 7353W        W78882   2.772  27.247  14.429
 7354W        W78883  22.618  27.456  13.680
 7355W        W78884  25.983  14.664   4.714
 7356W        W78885  19.649   6.004  14.800
 7357W        W78886  26.707  28.083  10.816
 7358W        W78887  11.898  12.460   0.917
 7359W        W78888   8.422  15.574  13.529
 7360W        W78889   3.261  10.282   4.573
 7361W        W78890  11.654  33.438  13.349
 7362W        W78891   9.528   7.121  11.866
 7363W        W78892   0.234  19.581  14.797
 7364W        W78893  31.626  31.050   1.175
 7365W        W78894  25.479  26.970   0.729
 7366W        W78895  35.362   6.764   0.518
 7367W        W78896  34.159  19.670  11.999
 7368W        W78897  22.732  44.239  14.804
 7369W        W78898  33.968   3.026  11.017
 7370W        W78899   0.654  40.948   4.552
 7371W        W78900  35.676  44.593  13.694
 7372W        W78901  41.088  13.790   4.584
 7373W        W78902  13.085  36.136   3.683
 7374W        W78903  28.051  33.935  14.320
 7375W        W78904  25.584  44.286   4.330
 7376W        W78905  42.038  42.093   3.618
 7377W        W78906  43.825  21.885  11.622
 7378W        W78907  39.942  23.965  12.552
 7379W        W78908  30.607  11.831  13.990
 7380W        W78909  41.862  37.799  13.104
 7381W        W78910  14.283  35.361   2.373
 7382W        W78911  36.288  34.447  11.259
 7383W        W78912   8.346   1.231  13.364
 7384W        W78913  19.580   7.352   3.050
 7385W        W78914  23.766  31.805  11.069
 7386W        W78915  37.895  42.386  12.955
 7387W        W78916   9.069   8.310   1.729
 7388W        W78917  41.918  31.920   0.300
 7389W        W78918  10.442  33.948  14.227
 7390W        W78919   3.680  38.103   0.496
 7391W        W78920  23.909   2.731   2.514
 7392W        W78921  34.365  12.186  12.100
 7393W        W78922   2.253  21.599   4.274
 7394W        W78923  25.045  12.690  14.009
 7395W        W78924   7.677  34.984  12.890
 7396W        W78925   2.381  42.675   9.690
 7397W        W78926  25.449  37.413  14.126
 7398W        W78927  20.564  42.494  12.678
 7399W        W78928  27.996  26.491   2.671
 7400W        W78929  33.876  36.427  13.316
 7401W        W78930   0.852  41.057   0.081
 7402W        W78931  10.271  43.957  12.410
 7403W        W78932  23.845  31.595  14.374
 7404W        W78933  21.946   5.902   3.539
 7405W        W78934   6.264  20.761  13.950
 7406W        W78935  17.604  36.421  10.744
 7407W        W78936  23.912  33.105  11.819
 7408W        W78937  22.698  22.960  11.571
 7409W        W78938   2.934   8.709   4.047
 7410W        W78939   5.716  22.177  13.811
 7411W        W78940  16.232  14.406  14.125
 7412W        W78941  41.945  21.487   4.329
 7413W        W78942  34.989  37.415  13.456
 7414W        W78943  25.171  14.250  13.904
 7415W        W78944  17.588  32.824  14.747
 7416W        W78945  14.285  16.271  11.772
 7417W        W78946  19.580  38.096   0.708
 7418W        W78947  35.670   8.290   2.899
 7419W        W78948  25.676   4.374  11.088
 7420W        W78949  14.759  31.978  10.088
 7421W        W78950  17.143  29.379  14.023
 7422W        W78951  21.881  23.724   1.188
 7423W        W78952  23.135  39.074   0.782
 7424W        W78953  22.070  33.767  12.277
 7425W        W78954  31.434  34.373  13.968
 7426W        W78955   3.263  24.064  10.739
 7427W        W78956  43.964  24.262   4.282
 7428W        W78957  36.011  18.358  13.930
 7429W        W78958  11.324   0.193   1.257
 7430W        W78959  44.598  29.663   4.147
 7431W        W78960  12.746   8.332   2.822
 7432W        W78961  12.760   1.829  12.537
 7433W        W78962  28.759  38.325   1.255
 7434W        W78963  15.996  40.596   1.161
 7435W        W78964   7.725  33.214  12.575
 7436W        W78965  22.406  39.866   0.519
 7437W        W78966  16.128  34.048  10.981
 7438W        W78967  36.675  26.659   3.865
 7439W        W78968  31.551  27.695   1.538
 7440W        W78969   5.375  15.767  11.639
 7441W        W78970  27.789  16.267  10.733
 7442W        W78971   7.809   3.465  11.100
 7443W        W78972   7.652  14.423   2.184
 7444W        W78973  36.474  17.144   4.698
 7445W        W78974  16.796  37.376   3.227
 7446W        W78975   9.809  10.567  12.990
 7447W        W78976  16.502  17.870   0.340
 7448W        W78977  12.748  19.759  10.710
 7449W        W78978  25.646   0.528   0.367
 7450W        W78979   4.969  36.828  12.123
 7451W        W78980  18.535  16.828   0.170
 7452W        W78981  27.138  10.840   4.657
 7453W        W78982  13.520  25.876   1.818
 7454W        W78983  39.522  13.701  11.436
 7455W        W78984   1.871  31.716   4.151
 7456W        W78985  16.394   6.744   0.383
 7457W        W78986  13.126  44.970   2.266
 7458W        W78987   9.240  29.128   3.060
 7459W        W78988  41.323   4.267   4.248
 7460W        W78989  29.046  33.042  12.661
 7461W        W78990  21.940  20.097  12.169
 7462W        W78991   8.496  30.106  14.349
 7463W        W78992  29.169  12.133   3.758
 7464W        W78993  37.478  24.541   0.439
 7465W        W78994  33.547  13.156   1.890
 7466W        W78995  43.282  22.707   1.491
 7467W        W78996  42.978  28.008  10.424
 7468W        W78997  39.865  32.027   1.899
 7469W        W78998  43.236   5.369   0.354
 7470W        W78999  21.579  11.111   3.419
 7471W        W79000   0.237  14.282  14.500
 7472W        W79001  24.402  43.923   0.920
 7473W        W79002  15.915  42.714  11.937
 7474W        W79003  13.752   5.778  14.773
 7475W        W79004  15.342  14.730  14.899
 7476W        W79005  10.379  11.936  13.933
 7477W        W79006  42.813   8.852  13.568
 7478W        W79007   6.620  21.726   2.806
 7479W        W79008   2.367  20.987   4.521
 7480W        W79009  10.273  11.700  11.665
 7481W        W79010   1.057  20.268   4.153
 7482W        W79011  22.533  39.988   3.667
 7483W        W79012  21.115  41.840   4.744
 7484W        W79013  36.328  25.080  14.835
 7485W        W79014  38.860  12.467  14.863
 7486W        W79015   9.651  21.636  12.542
 7487W        W79016  38.093  22.694   4.636
 7488W        W79017  16.267  28.386  11.698
 7489W        W79018   5.493  38.455  11.621
 7490W        W79019  14.973  43.447  12.617
 7491W        W79020  30.040   4.125   2.057
 7492W        W79021  23.079  37.795   2.311
 7493W        W79022  20.329  18.993   1.273
 7494W        W79023   5.749   0.238   4.394
 7495W        W79024  34.936  12.601  11.126
 7496W        W79025  42.310  11.182  14.555
 7497W        W79026  14.207  35.924   0.733
 7498W        W79027  41.851   8.863  14.958
 7499W        W79028   9.133  19.368   4.284
 7500W        W79029  44.976   1.069  11.032
 7501W        W79030  20.314  44.839   0.875
 7502W        W79031  21.551   7.125  14.352
 7503W        W79032  31.174  41.456   0.397
 7504W        W79033   5.917  18.960  14.920
 7505W        W79034   2.001  12.755   0.952
 7506W        W79035  15.649  19.915  13.496
 7507W        W79036  30.658   1.226  12.329
 7508W        W79037   1.595  40.268   1.476
 7509W        W79038  18.347  16.894   1.019
 7510W        W79039  38.894  38.703  13.497
 7511W        W79040   3.248  40.913   3.134
 7512W        W79041  30.760  44.680   4.856
 7513W        W79042   3.034  26.207  10.634
 7514W        W79043  32.694  28.788   1.459
 7515W        W79044   0.711  14.476  14.432
 7516W        W79045  22.708  26.977   4.344
 7517W        W79046  14.892  43.320   3.376
 7518W        W79047  19.214  10.294   0.332
 7519W        W79048   1.956   6.755   4.962
 7520W        W79049  31.628  12.679   2.181
 7521W        W79050  11.983  12.809   3.168
 7522W        W79051  18.129  21.593   3.735
 7523W        W79052   2.542  18.946   0.390
 7524W        W79053  34.384  10.416  10.691
 7525W        W79054  42.881   1.988  10.184
 7526W        W79055   0.982  19.132   1.214
 7527W        W79056   9.288  21.689  10.845
 7528W        W79057   4.961  35.444  14.895
 7529W        W79058  30.478  34.523  12.902
 7530W        W79059  30.020  33.541   1.923
 7531W        W79060  40.780  31.082   3.005
 7532W        W79061   7.787  21.713  13.772
 7533W        W79062  23.291  32.878   2.652
 7534W        W79063   9.991  28.712  14.249
 7535W        W79064  36.955   0.835   2.232
 7536W        W79065   9.372   6.805   4.318
 7537W        W79066  31.658  15.579   3.150
 7538W        W79067   1.456  28.489   1.734
 7539W        W79068  37.906  10.588  14.748
 7540W        W79069  28.280  43.853   1.880
 7541W        W79070   2.143  35.664  10.683
 7542W        W79071  11.801  38.789   9.827
 7543W        W79072  44.367  23.447   3.979
 7544W        W79073   4.555   0.852   0.487
 7545W        W79074  29.434   8.579   0.156
 7546W        W79075  38.837  24.706   2.801
 7547W        W79076   2.759  37.617  14.944
 7548W        W79077  41.070  23.131  11.163
 7549W        W79078  35.600  34.897  13.386
 7550W        W79079  14.839  30.588   1.306
 7551W        W79080  29.618  37.604  12.926
 7552W        W79081  22.040  40.528   1.932
 7553W        W79082  10.802  12.853  14.846
 7554W        W79083  34.083  16.782  14.275
 7555W        W79084  15.432  38.340  11.064
 7556W        W79085   8.257  31.527   0.885
 7557W        W79086  43.224  35.376  11.130
 7558W        W79087  42.525   7.176   0.069
 7559W        W79088   0.424  32.053   9.777
 7560W        W79089  29.189  36.968   4.583
 7561W        W79090  37.293  39.281   3.163
 7562W        W79091  39.779  14.143   1.369
 7563W        W79092  29.082  13.791   1.652
 7564W        W79093   4.797  29.154  10.688
 7565W        W79094   2.473  41.527  10.971
 7566W        W79095  23.449  38.036  10.546
 7567W        W79096  35.615   9.217  13.521
 7568W        W79097  17.162   5.931   3.560
 7569W        W79098  11.834   3.144   1.666
 7570W        W79099  38.786  15.129   3.768
 7571W        W79100   8.279   0.780   1.196
 7572W        W79101  40.707  13.351   0.431
 7573W        W79102  40.183  41.673   4.104
 7574W        W79103  10.003   4.607  12.786
 7575W        W79104   4.481  32.069  11.568
 7576W        W79105  20.620  23.066   1.478
 7577W        W79106  29.293  22.514  14.418
 7578W        W79107  44.866  30.790   2.711
 7579W        W79108   2.338  13.042  11.638
 7580W        W79109  38.866  42.497   2.083
 7581W        W79110  18.950  20.792   1.444
 7582W        W79111  21.745  14.317  14.331
 7583W        W79112  40.767  36.347  14.796
 7584W        W79113  23.566  42.107  13.017
 7585W        W79114  39.850  15.669   2.623
 7586W        W79115  31.009   8.156   4.306
 7587W        W79116   0.659  44.826   2.276
 7588W        W79117  16.525  18.561  12.575
 7589W        W79118  31.227  16.033   3.896
 7590W        W79119  15.769  12.066   1.479
 7591W        W79120   0.795  23.023   3.289
 7592W        W79121   8.746  21.170   3.861
 7593W        W79122   1.943  22.012   1.521
 7594W        W79123  32.116  14.075   1.304
 7595W        W79124  41.120  39.906   1.329
 7596W        W79125   2.894   5.796   0.002
 7597W        W79126  36.380  10.478   5.131
 7598W        W79127  13.530  37.499   1.491
 7599W        W79128  26.396  24.656  11.996
 7600W        W79129   7.951  14.759   2.848
 7601W        W79130  39.737  41.284   1.754
 7602W        W79131  17.242   2.083  10.542
 7603W        W79132  32.781  13.478  11.000
 7604W        W79133  27.797  33.972   3.995
 7605W        W79134   4.146  38.946   4.095
 7606W        W79135  17.054  43.730   4.922
 7607W        W79136   1.845  43.333  13.566
 7608W        W79137  42.587  34.568   1.410
 7609W        W79138  37.185  14.282   3.144
 7610W        W79139  12.392  30.647  11.512
 7611W        W79140  25.497  16.352  13.872
 7612W        W79141  36.483  42.330   4.550
 7613W        W79142  43.994  34.502  13.478
 7614W        W79143   3.777  31.723  10.652
 7615W        W79144  14.172  19.732  13.436
 7616W        W79145  11.412  33.701  11.902
 7617W        W79146   3.815  40.392   3.515
 7618W        W79147  42.013  11.008   2.180
 7619W        W79148  35.424   9.635   0.758
 7620W        W79149   6.240  37.208  13.320
 7621W        W79150  16.827  19.361   2.243
 7622W        W79151  21.567  28.245   2.265
 7623W        W79152  43.742  18.470  13.912
 7624W        W79153   2.727   6.394   2.245
 7625W        W79154   6.848   8.872  11.045
 7626W        W79155  22.508  11.914   2.234
 7627W        W79156  30.019   2.077  12.658
 7628W        W79157   8.899  12.932  13.081
 7629W        W79158  11.877  43.965   4.675
 7630W        W79159  14.548  42.994  12.487
 7631W        W79160   6.248  24.647   1.069
 7632W        W79161  18.274   8.621   4.266
 7633W        W79162  14.338  30.617  12.196
 7634W        W79163   7.297  13.246   1.499
 7635W        W79164  13.233  23.847   1.294
 7636W        W79165  18.896   0.327  10.612
 7637W        W79166  40.347  33.033   1.107
 7638W        W79167  35.398  23.539   2.284
 7639W        W79168  27.443  26.744  14.825
 7640W        W79169  33.503  40.248  10.743
 7641W        W79170  24.587  41.314   4.231
 7642W        W79171  40.932  30.001   2.164
 7643W        W79172  44.733  28.006   0.301
 7644W        W79173  35.678  21.143   1.516
 7645W        W79174  31.583  43.982   2.345
 7646W        W79175  10.780  17.558   4.334
 7647W        W79176  41.897  21.028  10.626
 7648W        W79177  25.613  37.670  12.020
 7649W        W79178  37.869  22.618   4.165
 7650W        W79179  41.013  41.349   3.578
 7651W        W79180  23.094   4.944  11.550
 7652W        W79181  32.809  12.840  11.481
 7653W        W79182   6.671  14.336  13.000
 7654W        W79183   3.421  27.524  13.905
 7655W        W79184  41.489  18.238  12.231
 7656W        W79185   3.757   7.336   4.771
 7657W        W79186  21.369  17.538   1.275
 7658W        W79187  27.461  10.438   2.815
 7659W        W79188  17.665  15.676  13.577
 7660W        W79189  15.360  43.426  10.898
 7661W        W79190  35.905  40.418   2.551
 7662W        W79191  16.770  11.242  14.558
 7663W        W79192   8.850  28.227   1.020
 7664W        W79193   3.829  41.758  13.392
 7665W        W79194  13.620  33.643  13.019
 7666W        W79195   6.365  31.385  14.921
 7667W        W79196  27.917  12.491   0.886
 7668W        W79197  38.996  32.875  13.498
 7669W        W79198  33.952  10.554  13.845
 7670W        W79199  24.145   5.910   1.807
 7671W        W79200   8.872  27.402  12.944
 7672W        W79201   9.207  24.141   1.876
 7673W        W79202   7.687   6.801  13.311
 7674W        W79203   2.212  41.111  14.935
 7675W        W79204  33.098  17.297  10.867
 7676W        W79205   9.377  37.300   1.887
 7677W        W79206  30.958  29.871  14.043
 7678W        W79207  37.477  32.653  12.212
 7679W        W79208  14.899  42.933  14.373
 7680W        W79209  38.278  27.594   0.754
 7681W        W79210   7.884  30.934  12.916
 7682W        W79211  11.905  15.860   2.684
 7683W        W79212  17.645  43.548  10.851
 7684W        W79213  28.240  36.596  11.214
 7685W        W79214   5.841  21.570   1.839
 7686W        W79215  15.072  33.364  10.652
 7687W        W79216  10.659  24.687  13.337
 7688W        W79217  10.362  28.182   1.450
 7689W        W79218  26.503  14.019   0.743
 7690W        W79219  31.593   8.311  12.314
 7691W        W79220  36.318  18.296   2.237
 7692W        W79221  22.732  17.182  14.318
 7693W        W79222  27.473   5.354   2.865
 7694W        W79223  40.826  29.200   2.672
 7695W        W79224  27.428  20.582   0.696
 7696W        W79225  39.885   3.949  13.945
 7697W        W79226  13.086  10.292  11.125
 7698W        W79227  34.126  25.079   4.166
 7699W        W79228  10.215  35.426  13.042
 7700W        W79229  25.221  17.085   4.071
 7701W        W79230  23.729  11.638  12.052
 7702W        W79231   3.773  16.695   0.669
 7703W        W79232   7.762  38.528   2.382
 7704W        W79233  12.334   9.701  12.186
 7705W        W79234  23.145  15.177  12.827
 7706W        W79235   5.840  39.814  11.898
 7707W        W79236   3.506  25.107  13.967
 7708W        W79237  17.636  23.668  11.053
 7709W        W79238  32.271  35.149   0.451
 7710W        W79239  33.008  27.996  13.869
 7711W        W79240  18.277   7.108   0.984
 7712W        W79241   4.680  41.349  11.472
 7713W        W79242  44.963  21.493   0.253
 7714W        W79243  17.989  38.045   1.893
 7715W        W79244  41.579  31.648  10.645
 7716W        W79245  44.863  41.884   2.231
 7717W        W79246  25.557  11.677   1.150
 7718W        W79247   2.973  18.801   1.677
 7719W        W79248  12.740   1.338   1.921
 7720W        W79249  23.759  43.803  12.370
 7721W        W79250  15.132  12.190   2.203
 7722W        W79251   1.593  26.110  13.664
 7723W        W79252  18.358  21.623   1.361
 7724W        W79253   2.410  11.219  11.831
 7725W        W79254  41.314  25.420   0.492
 7726W        W79255  23.237  22.752  14.456
 7727W        W79256   4.941  37.604  14.981
 7728W        W79257  40.768  13.176   3.204
 7729W        W79258  37.401  31.683   1.478
 7730W        W79259  42.839   1.831   3.350
 7731W        W79260  14.716   2.001  12.453
 7732W        W79261  22.689   7.813   1.052
 7733W        W79262  19.424  41.292  13.464
 7734W        W79263  21.531  17.520   2.787
 7735W        W79264  15.694   0.536   0.896
 7736W        W79265  28.606  21.527  14.051
 7737W        W79266  33.063  31.898   3.654
 7738W        W79267  44.270   7.329   4.975
 7739W        W79268   0.706  38.544  13.143
 7740W        W79269  22.679  40.214   3.229
 7741W        W79270  21.486  21.611   4.678
 7742W        W79271  37.713   9.141  14.471
 7743W        W79272  35.629  43.387  12.328
 7744W        W79273   6.192  23.550  13.697
 7745W        W79274  31.732   1.137   0.357
 7746W        W79275  19.988   7.408  14.424
 7747W        W79276  35.897  13.953  13.790
 7748W        W79277   6.469  14.374   1.736
 7749W        W79278  43.776  22.400   3.088
 7750W        W79279  25.390  19.796   4.546
 7751W        W79280  41.700  37.242   3.434
 7752W        W79281   4.314  43.026   0.913
 7753W        W79282  24.230  34.107   1.403
 7754W        W79283  12.798  38.941   2.421
 7755W        W79284  27.416  15.361  14.146
 7756W        W79285  36.345  30.887   2.718
 7757W        W79286  16.141  20.788  11.480
 7758W        W79287  43.429  20.263  14.101
 7759W        W79288   8.316  35.058  11.965
 7760W        W79289  10.842   1.698   4.698
 7761W        W79290  23.771  38.612   0.397
 7762W        W79291  26.497   0.853  11.003
 7763W        W79292  16.228  10.753   4.534
 7764W        W79293  23.984  32.379   4.353
 7765W        W79294  38.745  12.915   3.903
 7766W        W79295  14.251  38.267  14.489
 7767W        W79296  16.343  32.615   0.391
 7768W        W79297  12.690  38.244  13.395
 7769W        W79298  13.309  22.494  14.105
 7770W        W79299  18.333  42.873  10.731
 7771W        W79300  44.834  23.694   4.053
 7772W        W79301  30.660  25.002  12.026
 7773W        W79302   0.354   2.722  14.141
 7774W        W79303  23.950  26.337  10.926
 7775W        W79304  26.709  15.212  11.161
 7776W        W79305  39.686  44.526   3.327
 7777W        W79306  16.617  13.284   3.696
 7778W        W79307   7.807   1.999   2.337
 7779W        W79308   2.507  32.555   2.127
 7780W        W79309  38.935  13.780   4.088
 7781W        W79310  36.921  41.806  11.409
 7782W        W79311  43.362  16.584   4.795
 7783W        W79312  23.085  12.653  13.164
 7784W        W79313   2.208  38.559  12.122
 7785W        W79314   2.430  19.471   0.394
 7786W        W79315  42.149  30.124  12.384
 7787W        W79316  30.025  36.872  14.824
 7788W        W79317   8.158   7.278   2.244
 7789W        W79318  38.760  22.159   0.346
 7790W        W79319  29.158  20.826  10.707
 7791W        W79320  18.496  37.333  13.199
 7792W        W79321  30.180  19.848  13.393
 7793W        W79322   2.480   5.159   1.919
 7794W        W79323  27.081  10.102  12.790
 7795W        W79324   9.643  11.100  10.991
 7796W        W79325  42.530  30.407   1.881
 7797W        W79326  11.283  34.095  11.167
 7798W        W79327  16.864  25.453  13.376
 7799W        W79328  19.908  35.106  13.080
 7800W        W79329  34.003  12.591  14.999
 7801W        W79330  25.255   6.784  10.914
 7802W        W79331  21.645  24.235   3.669
 7803W        W79332  28.424   7.892   3.715
 7804W        W79333  34.011  44.414  11.946
 7805W        W79334  16.091   9.827   3.695
 7806W        W79335  32.090  11.849  14.401
 7807W        W79336  27.791  42.925  13.449
 7808W        W79337  12.795  10.282   1.889
 7809W        W79338   5.006  40.817   0.917
 7810W        W79339  42.893  13.823   0.473
 7811W        W79340  25.084  24.228   1.208
 7812W        W79341   1.561  43.653   3.144
 7813W        W79342  12.369   2.997   0.728
 7814W        W79343  43.065  19.047   0.426
 7815W        W79344   4.928  32.041   1.354
 7816W        W79345  37.048   6.878   2.731
 7817W        W79346   5.410   4.535  10.336
 7818W        W79347   2.782  42.911   1.317
 7819W        W79348  39.893   0.959   0.420
 7820W        W79349  38.594  32.556   1.124
 7821W        W79350  15.811   8.202  14.260
 7822W        W79351  11.617   3.285   2.588
 7823W        W79352  44.025  24.599  12.961
 7824W        W79353   4.789   3.408  11.465
 7825W        W79354  43.906   7.372   4.591
 7826W        W79355  22.328  36.583   2.164
 7827W        W79356  36.190  40.857  10.720
 7828W        W79357   2.314   6.806  14.428
 7829W        W79358   0.130  25.235   1.006
 7830W        W79359  13.090  32.101   0.473
 7831W        W79360  16.116  22.780  10.674
 7832W        W79361  12.165  29.587  14.923
 7833W        W79362  43.590  38.789  12.536
 7834W        W79363   4.618   8.478  12.996
 7835W        W79364  37.372  22.765  11.169
 7836W        W79365   0.406   0.188  12.651
 7837W        W79366   2.220  28.134   5.038
 7838W        W79367  44.974  23.545   0.474
 7839W        W79368   1.924  21.069  14.123
 7840W        W79369  34.028  29.131   1.267
 7841W        W79370  28.709  10.674   3.587
 7842W        W79371  31.067  35.315   4.997
 7843W        W79372  18.662  24.168   1.905
 7844W        W79373   5.774  15.178   4.538
 7845W        W79374  13.264  34.593  14.868
 7846W        W79375   2.844  16.726   3.681
 7847W        W79376  30.901  18.760   3.992
 7848W        W79377  14.217  14.154  10.637
 7849W        W79378  10.228   3.265  11.476
 7850W        W79379  42.346  33.621  14.420
 7851W        W79380  38.484  22.034  13.398
 7852W        W79381  21.474  37.650  10.730
 7853W        W79382   2.511  19.574   2.248
 7854W        W79383  24.947  24.535  14.012
 7855W        W79384  42.979  11.299   2.356
 7856W        W79385  27.145  25.911  12.125
 7857W        W79386  17.068  43.243   5.263
 7858W        W79387  23.111  29.880  11.211
 7859W        W79388  15.207  14.799   2.593
 7860W        W79389  40.912   7.710   0.933
 7861W        W79390  37.634  12.320   0.023
 7862W        W79391  36.201   9.658  12.801
 7863W        W79392  15.785  31.421   1.252
 7864W        W79393  43.817  11.077   0.779
 7865W        W79394  43.990  22.498   0.233
 7866W        W79395   9.690  21.510   2.926
 7867W        W79396   8.453  10.888  10.604
 7868W        W79397  16.364  13.056   3.274
 7869W        W79398  10.253  22.715   2.158
 7870W        W79399  40.421  24.257   2.296
 7871W        W79400  24.257  33.877   3.784
 7872W        W79401  17.301  24.072  14.026
 7873W        W79402   1.410  43.877  12.389
 7874W        W79403  23.720  41.328  13.447
 7875W        W79404  28.549   1.576   2.138
 7876W        W79405  28.369   9.958   4.512
 7877W        W79406  44.432  23.307   3.479
 7878W        W79407  27.373  35.752   4.121
 7879W        W79408   7.170  27.967  14.512
 7880W        W79409  36.076  40.842   1.312
 7881W        W79410  19.842  23.091  12.448
 7882W        W79411  28.824  32.477  10.198
 7883W        W79412   1.688   3.865  13.882
 7884W        W79413  37.322  29.479  11.765
 7885W        W79414   3.756  36.559   4.977
 7886W        W79415  24.931  23.489  12.451
 7887W        W79416  33.084   8.342  10.714
 7888W        W79417  16.079   9.780   0.254
 7889W        W79418  21.266  38.443  11.140
 7890W        W79419  41.302  37.584   3.710
 7891W        W79420   6.782   8.617  14.301
 7892W        W79421   3.832   7.643  11.522
 7893W        W79422  34.465  43.337  11.049
 7894W        W79423  30.734  42.466  14.209
 7895W        W79424   8.162  25.194  11.864
 7896W        W79425  42.998  36.288   2.180
 7897W        W79426  44.740  42.997  14.266
 7898W        W79427  12.713  21.696   2.344
 7899W        W79428  10.344  33.891   1.391
 7900W        W79429  32.610  40.320   3.098
 7901W        W79430  40.109   3.823  11.963
 7902W        W79431  31.522  41.873   0.418
 7903W        W79432   6.672  30.174   1.040
 7904W        W79433  42.827  13.630  13.828
 7905W        W79434  40.266  13.162   3.293
 7906W        W79435  24.667   6.393  13.755
 7907W        W79436   3.492  27.461  14.789
 7908W        W79437  41.816  21.446  13.329
 7909W        W79438  13.773  16.268   4.457
 7910W        W79439   0.175  18.409  13.289
 7911W        W79440  10.126  40.871   5.304
 7912W        W79441  38.409  29.358   4.187
 7913W        W79442  16.478  22.888   2.511
 7914W        W79443  44.842  28.456   2.273
 7915W        W79444   2.328  34.441  13.657
 7916W        W79445  25.941  22.018   1.810
 7917W        W79446   6.161   4.743   4.181
 7918W        W79447   7.713  44.396   4.154
 7919W        W79448  14.792  11.112   0.389
 7920W        W79449  15.156  27.280  13.021
 7921W        W79450  38.584  37.478   3.672
 7922W        W79451   6.458  41.428   0.719
 7923W        W79452   2.797   7.138  14.838
 7924W        W79453  33.498  14.800   3.581
 7925W        W79454   7.799   6.910   1.381
 7926W        W79455  41.076  18.690   1.699
 7927W        W79456  20.096  27.055   2.592
 7928W        W79457  12.564  41.798   1.805
 7929W        W79458  32.901  17.685  11.146
 7930W        W79459  15.044  18.259   3.832
 7931W        W79460  33.156  23.010   2.373
 7932W        W79461   6.309  42.152   3.105
 7933W        W79462  39.525  15.201   1.304
 7934W        W79463   0.903  15.131   0.633
 7935W        W79464  10.150  36.623  13.446
 7936W        W79465   0.110  20.628   0.586
 7937W        W79466  20.860  28.022  13.442
 7938W        W79467  37.458  13.898  13.456
 7939W        W79468  41.555  17.456   3.805
 7940W        W79469  24.711  44.259  12.606
 7941W        W79470  30.861  21.651  11.962
 7942W        W79471  13.284   3.463   3.541
 7943W        W79472  38.578  38.814  13.994
 7944W        W79473  20.573  21.198   1.371
 7945W        W79474  34.032  33.589   0.307
 7946W        W79475   2.421  10.603   3.715
 7947W        W79476  36.636  38.950  14.067
 7948W        W79477  26.191   1.232  11.215
 7949W        W79478  17.805   8.780   4.139
 7950W        W79479  38.484  21.363   0.771
 7951W        W79480  30.180  14.732  13.546
 7952W        W79481   3.908  29.537  12.461
 7953W        W79482  37.530  31.764  12.045
 7954W        W79483  32.655   9.701   1.316
 7955W        W79484  20.171  16.223   1.058
 7956W        W79485  18.708  24.250   3.163
 7957W        W79486   3.869   4.097   2.223
 7958W        W79487  44.606   6.382  13.893
 7959W        W79488   4.433  42.535   4.200
 7960W        W79489  42.597  10.908   4.375
 7961W        W79490  14.073   6.018   4.472
 7962W        W79491  25.458  11.858  10.671
 7963W        W79492  40.466  13.044   2.822
 7964W        W79493   9.796  15.753  10.682
 7965W        W79494  18.141  40.816   3.118
 7966W        W79495  17.301  37.151   4.872
 7967W        W79496  34.825   3.906  10.773
 7968W        W79497   6.574  20.066   3.192
 7969W        W79498  12.314   6.863   4.238
 7970W        W79499  36.995  18.763   3.799
 7971W        W79500  27.186  26.918   3.054
 7972W        W79501  37.993  17.187   1.604
 7973W        W79502   5.423  22.976  14.788
 7974W        W79503  32.346   1.005  11.956
 7975W        W79504   4.701  22.145  12.832
 7976W        W79505  17.843   6.591  11.287
 7977W        W79506  26.870  43.814   4.143
 7978W        W79507   3.908   4.724   0.285
 7979W        W79508  33.429  38.927  13.294
 7980W        W79509  14.718   8.305   2.228
 7981W        W79510  19.903  34.309  12.106
 7982W        W79511  43.411  21.364  12.821
 7983W        W79512  28.431  13.800   0.908
 7984W        W79513  36.531   7.958  12.562
 7985W        W79514  39.030  19.295  13.796
 7986W        W79515   1.499  35.564   1.855
 7987W        W79516  35.032  17.868  14.068
 7988W        W79517  15.797  14.857   4.826
 7989W        W79518  43.731  40.268  11.562
 7990W        W79519  30.103  21.293  10.755
 7991W        W79520  34.466  15.010  10.846
 7992W        W79521  42.266   7.960  11.996
 7993W        W79522   2.084  28.024   4.570
 7994W        W79523  15.081   2.200   0.947
 7995W        W79524  31.726  41.243  11.125
 7996W        W79525   6.048  19.640   3.970
 7997W        W79526  18.618   3.861   4.361
 7998W        W79527   2.195  30.588  14.289
 7999W        W79528  19.094  21.882   0.680
 8000W        W79529  15.604  14.620   1.762
 8001W        W79530  39.311  33.999  10.943
 8002W        W79531  17.729  22.599   2.653
 8003W        W79532  21.184  25.853  11.637
 8004W        W79533  44.414  26.597   2.867
 8005W        W79534  37.591   8.113  14.304
 8006W        W79535  15.671   2.506   4.154
 8007W        W79536  33.678  12.614  11.087
 8008W        W79537   5.146  18.615  13.398
 8009W        W79538  18.718  39.936  12.446
 8010W        W79539  37.067  12.427  11.558
 8011W        W79540  27.693  17.340  14.525
 8012W        W79541  27.694   6.409  13.563
 8013W        W79542  28.005   1.516  13.465
 8014W        W79543   2.300  10.438   9.837
 8015W        W79544   4.484   9.816   1.666
 8016W        W79545  26.632  21.093  11.475
 8017W        W79546  18.147  35.171  12.105
 8018W        W79547  27.888   3.754  14.424
 8019W        W79548  16.740   7.371  14.344
 8020W        W79549  28.573  13.894  13.692
 8021W        W79550  44.709  20.790  12.875
 8022W        W79551   6.143  22.469   3.236
 8023W        W79552  28.214   5.950   4.557
 8024W        W79553   4.424   2.467   2.920
 8025W        W79554  43.791   5.674  14.736
 8026W        W79555  10.397  32.699   3.228
 8027W        W79556   8.128  14.395  12.006
 8028W        W79557  35.863  14.792   1.885
 8029W        W79558  38.938  37.298   0.558
 8030W        W79559  14.623  26.856  11.455
 8031W        W79560  22.425   9.258  12.780
 8032W        W79561  15.112   3.182   4.142
 8033W        W79562  14.578   4.820  12.449
 8034W        W79563  19.201  16.002   2.128
 8035W        W79564  43.818  12.303   2.300
 8036W        W79565  23.425  10.992  13.421
 8037W        W79566  21.368  22.450   4.274
 8038W        W79567   2.206  29.542   1.443
 8039W        W79568   4.827  18.046  14.047
 8040W        W79569  19.242   5.711  13.024
 8041W        W79570  13.762   6.812   2.891
 8042W        W79571  38.339  30.955   2.861
 8043W        W79572  18.311   6.839  13.117
 8044W        W79573   4.273  39.890   0.449
 8045W        W79574   5.629  43.817   0.657
 8046W        W79575   9.800  18.781   4.947
 8047W        W79576  27.930  31.688   0.450
 8048W        W79577  28.185  41.389  11.876
 8049W        W79578   0.775   6.277   0.403
 8050W        W79579   1.872  37.466   1.727
 8051W        W79580  43.269  19.008  13.252
 8052W        W79581  43.983  19.624  11.108
 8053W        W79582  30.619  32.150  14.919
 8054W        W79583  27.659  13.631  10.446
 8055W        W79584   0.246  20.460  13.918
 8056W        W79585  26.587   1.783  10.581
 8057W        W79586  16.051  41.504  14.348
 8058W        W79587  16.313  18.684   2.698
 8059W        W79588  42.926   8.944  10.812
 8060W        W79589  25.673  41.209  11.564
 8061W        W79590  30.523  38.426   4.761
 8062W        W79591  42.888  40.458   3.593
 8063W        W79592  42.916  19.303   4.127
 8064W        W79593  32.443  31.880   3.376
 8065W        W79594   3.790  34.875  13.374
 8066W        W79595   9.357  17.673   1.497
 8067W        W79596  19.038   3.733   0.666
 8068W        W79597  42.934   8.447  12.884
 8069W        W79598  39.950  16.265  12.550
 8070W        W79599  22.633  16.068  11.195
 8071W        W79600  27.676  15.284  14.975
 8072W        W79601  28.646  41.297   1.959
 8073W        W79602   3.433  40.374   1.292
 8074W        W79603  24.951   7.396   0.846
 8075W        W79604  14.293  15.771   3.297
 8076W        W79605  33.274  40.095  10.265
 8077W        W79606  44.835  26.577   0.250
 8078W        W79607   2.175  22.496   1.868
 8079W        W79608  35.530  13.740   4.530
 8080W        W79609  14.259  35.842  13.312
 8081W        W79610  15.496  22.707   4.543
 8082W        W79611  19.246  35.344   3.885
 8083W        W79612  35.508  11.349  12.599
 8084W        W79613   4.826   8.153  13.740
 8085W        W79614  31.543  18.816  13.951
 8086W        W79615  27.124  12.221  12.658
 8087W        W79616  12.121   8.139   0.317
 8088W        W79617   9.613  16.318  13.885
 8089W        W79618  12.541  12.823   0.241
 8090W        W79619  10.166  24.124   2.646
 8091W        W79620  12.888  25.653  12.563
 8092W        W79621   1.288   1.258  13.887
 8093W        W79622  29.245   4.475  14.231
 8094W        W79623   4.829  24.583   0.241
 8095W        W79624  16.714   2.981   1.910
 8096W        W79625  13.730   2.879   4.801
 8097W        W79626  16.408  24.138  13.862
 8098W        W79627  30.969  42.741  10.608
 8099W        W79628  43.588  10.850   3.738
 8100W        W79629   5.787   3.366  11.482
 8101W        W79630  18.726  10.437   1.312
 8102W        W79631  42.226  19.194   2.904
 8103W        W79632  39.941  40.853  11.655
 8104W        W79633  15.747  23.162  11.937
 8105W        W79634   1.908  35.152  14.430
 8106W        W79635  17.002   6.509  11.131
 8107W        W79636   8.904   9.228   0.806
 8108W        W79637  16.666  12.306   3.897
 8109W        W79638  42.354  19.083  11.924
 8110W        W79639  42.400  42.286   0.827
 8111W        W79640  40.871  28.202  12.567
 8112W        W79641  33.157  31.679   0.898
 8113W        W79642   3.958  28.546   4.486
 8114W        W79643  35.385  26.900   1.802
 8115W        W79644  35.352   7.957  12.076
 8116W        W79645  13.782  10.012  10.752
 8117W        W79646  44.954  19.118  10.720
 8118W        W79647   1.257  24.604  13.019
 8119W        W79648  29.639   3.152  13.036
 8120W        W79649  26.698  40.310   1.321
 8121W        W79650  40.788  12.415   1.747
 8122W        W79651  35.877  44.512   4.694
 8123W        W79652  27.045  19.168  12.486
 8124W        W79653  31.792  38.340  12.311
 8125W        W79654  32.138  14.772  13.973
 8126W        W79655  11.886  10.170   2.348
 8127W        W79656  35.400   5.182   4.557
 8128W        W79657  39.085   3.957   3.501
 8129W        W79658  32.630  18.497  11.520
 8130W        W79659  26.611   1.184  12.440
 8131W        W79660   6.688  41.788  10.604
 8132W        W79661  18.789  38.610  10.732
 8133W        W79662  28.236   7.713   5.141
 8134W        W79663  17.612   7.700   0.305
 8135W        W79664  21.131   3.020   0.311
 8136W        W79665  41.425  44.372  12.481
 8137W        W79666  44.486   4.820  10.951
 8138W        W79667   3.218  26.508   4.302
 8139W        W79668  34.622  42.277  12.398
 8140W        W79669  23.094  11.252   3.019
 8141W        W79670   4.123   0.506  11.159
 8142W        W79671  10.163  27.969   4.583
 8143W        W79672   8.707  36.866   0.332
 8144W        W79673  31.965  31.068   1.584
 8145W        W79674   2.004   7.695   0.290
 8146W        W79675  21.012   6.101   1.079
 8147W        W79676  18.745  19.502  10.409
 8148W        W79677  13.724  24.586  14.741
 8149W        W79678  38.391  38.069   1.899
 8150W        W79679  39.328   9.981   3.738
 8151W        W79680  28.496  20.227   2.200
 8152W        W79681   4.421   5.680  12.010
 8153W        W79682  36.576  12.405  14.420
 8154W        W79683  22.186  40.574   4.121
 8155W        W79684   1.590  18.692  10.925
 8156W        W79685  31.106  15.203   3.664
 8157W        W79686   7.354  44.715  13.465
 8158W        W79687  35.141   5.299   0.773
 8159W        W79688  24.181  12.102  11.316
 8160W        W79689   9.557  36.918  11.488
 8161W        W79690  21.772  25.694   2.757
 8162W        W79691  34.887  30.909   0.952
 8163W        W79692  25.943  12.385   3.725
 8164W        W79693   0.186  31.186   3.713
 8165W        W79694  37.646   5.286  13.491
 8166W        W79695  17.016  28.619   3.593
 8167W        W79696  26.160  31.908  14.000
 8168W        W79697  19.056  43.236  12.700
 8169W        W79698   8.225  25.948   4.348
 8170W        W79699  25.809  15.998  12.868
 8171W        W79700   9.099  15.059   0.051
 8172W        W79701  28.076   4.281   1.623
 8173W        W79702  36.513  41.828   4.690
 8174W        W79703   3.344  19.508   0.423
 8175W        W79704   8.289  29.152   1.632
 8176W        W79705  13.136  23.973   3.650
 8177W        W79706   7.527  42.811  11.162
 8178W        W79707  23.713  32.057   0.271
 8179W        W79708   5.829  36.030   0.459
 8180W        W79709  44.022   7.802  11.576
 8181W        W79710  19.011  38.256   3.981
 8182W        W79711  14.635   3.697  12.000
 8183W        W79712  25.196  43.275   1.427
 8184W        W79713  37.899   8.761   3.756
 8185W        W79714  34.964  28.603  14.755
 8186W        W79715  13.838  18.730   0.505
 8187W        W79716   3.229  16.798   3.371
 8188W        W79717  23.042  44.247  14.004
 8189W        W79718  30.342  17.963   3.414
 8190W        W79719  34.429  37.574  14.886
 8191W        W79720  17.151   6.148   2.446
 8192W        W79721  13.055  27.125   2.200
 8193W        W79722  15.989  35.804   1.844
 8194W        W79723  39.282  18.602  14.459
 8195W        W79724  15.748  13.851  11.930
 8196W        W79725   2.423  15.719   1.070
 8197W        W79726  44.383  39.772   4.655
 8198W        W79727  21.691   2.675  13.485
 8199W        W79728   7.850  19.210  13.388
 8200W        W79729   1.403   9.674  10.594
 8201W        W79730  16.519   1.403  14.527
 8202W        W79731  25.182  27.998   4.380
 8203W        W79732   6.931  36.458   0.332
 8204W        W79733  17.225  35.343  11.630
 8205W        W79734   8.755  37.922  12.574
 8206W        W79735  35.210   4.177  12.073
 8207W        W79736  30.413  22.580   4.693
 8208W        W79737  16.363  41.839  11.473
 8209W        W79738   2.903  15.746   3.702
 8210W        W79739   4.545  27.293  11.879
 8211W        W79740  30.503  11.058   3.139
 8212W        W79741  32.244   9.142   0.782
 8213W        W79742  24.900  29.906  10.965
 8214W        W79743  26.117  21.091   1.656
 8215W        W79744  12.608  19.727  14.417
 8216W        W79745   6.422  36.673  13.340
 8217W        W79746  29.456  23.767   2.104
 8218W        W79747  17.180  12.664  13.651
 8219W        W79748   6.304  40.627  13.908
 8220W        W79749  16.312  19.814   0.860
 8221W        W79750  28.000   3.746  13.924
 8222W        W79751  14.273  21.096  11.619
 8223W        W79752   5.984   5.317  11.139
 8224W        W79753  39.851  15.677  10.993
 8225W        W79754   6.927  39.030   1.691
 8226W        W79755  21.868  21.843   2.339
 8227W        W79756  32.394   0.948  11.009
 8228W        W79757  39.863  22.062   0.400
 8229W        W79758   3.719  43.436   0.348
 8230W        W79759  35.020  20.028   1.737
 8231W        W79760  38.771  42.023   4.928
 8232W        W79761   7.655  24.975   0.417
 8233W        W79762   0.409  42.434   4.477
 8234W        W79763  12.300  24.082  12.811
 8235W        W79764  43.081   3.685  12.391
 8236W        W79765  22.234  30.422   3.861
 8237W        W79766  12.099   3.373   4.220
 8238W        W79767   9.654  24.172   3.616
 8239W        W79768   5.349  33.885   3.832
 8240W        W79769  16.302   1.267  10.624
 8241W        W79770  39.359  39.801  12.947
 8242W        W79771   0.901  18.202  14.949
 8243W        W79772  44.888  17.176  14.902
 8244W        W79773   1.833   2.025  13.854
 8245W        W79774  29.715  29.458  14.264
 8246W        W79775   1.869  27.455  11.854
 8247W        W79776  41.392  35.806  11.815
 8248W        W79777  43.804  44.963   0.706
 8249W        W79778  38.429  23.486  13.987
 8250W        W79779   2.257  27.745   3.124
 8251W        W79780  12.388  28.176  14.923
 8252W        W79781  13.664  42.457  14.974
 8253W        W79782  35.332   2.766  11.466
 8254W        W79783  31.878   9.880  10.538
 8255W        W79784  40.844  15.652  11.366
 8256W        W79785   4.018  21.054   1.343
 8257W        W79786   9.607   3.332   1.809
 8258W        W79787  25.675  30.646   1.872
 8259W        W79788  22.575  25.283  12.431
 8260W        W79789   1.856  12.156  11.112
 8261W        W79790  21.114  19.241   0.753
 8262W        W79791  18.075   7.607   2.953
 8263W        W79792  40.778  39.519   0.448
 8264W        W79793  30.051   0.328   0.065
 8265W        W79794   2.914  32.953  11.960
 8266W        W79795  37.631  22.796   1.399
 8267W        W79796  31.191  14.575   2.844
 8268W        W79797   1.968  22.287   3.477
 8269W        W79798  21.490  28.574  12.387
 8270W        W79799  44.896  21.795  12.819
 8271W        W79800  21.984  32.611   4.224
 8272W        W79801   1.845  18.629   4.630
 8273W        W79802  38.023  11.391   3.707
 8274W        W79803  14.003  43.825   1.890
 8275W        W79804  35.210   9.696  14.317
 8276W        W79805  21.832  22.600  14.100
 8277W        W79806  14.333  42.978   2.354
 8278W        W79807  13.095  14.310  13.530
 8279W        W79808  30.407  25.104   4.269
 8280W        W79809  30.206  20.126  12.962
 8281W        W79810   0.976  16.532   0.755
 8282W        W79811  29.167  15.788   2.784
 8283W        W79812   5.333  30.138   4.325
 8284W        W79813  44.858  28.358  14.910
 8285W        W79814  33.418  12.384  12.935
 8286W        W79815   4.339   1.045   1.457
 8287W        W79816   1.973  42.806   1.800
 8288W        W79817  35.178  40.897   2.742
 8289W        W79818  12.458  44.334   4.839
 8290W        W79819  40.382  29.408  10.716
 8291W        W79820  19.064   7.171  12.876
 8292W        W79821  33.535  24.502  11.424
 8293W        W79822  16.184  32.957   3.647
 8294W        W79823  44.673  24.712  12.164
 8295W        W79824   7.994  30.990   1.475
 8296W        W79825  24.667  21.248  11.288
 8297W        W79826  41.916  44.427   3.304
 8298W        W79827   0.321  42.966  12.091
 8299W        W79828  34.122   5.781  13.126
 8300W        W79829  10.668  15.629   3.274
 8301W        W79830   9.652  39.002  13.433
 8302W        W79831  14.766  32.456  14.714
 8303W        W79832   7.167  19.587   0.869
 8304W        W79833   9.628  33.283  12.429
 8305W        W79834  11.305  36.016  11.419
 8306W        W79835  21.932  42.952   0.936
 8307W        W79836  22.759  18.043  11.947
 8308W        W79837  27.903  23.213   0.341
 8309W        W79838  36.118  32.742  14.939
 8310W        W79839  18.878  25.955   4.351
 8311W        W79840  16.080  22.673   4.591
 8312W        W79841   9.593  35.514   2.890
 8313W        W79842  29.009   4.468   1.655
 8314W        W79843  29.439   0.827   3.624
 8315W        W79844   3.102  19.027   3.304
 8316W        W79845  32.672  20.682   3.009
 8317W        W79846  28.429   3.431   1.330
 8318W        W79847   7.320  32.335  12.758
 8319W        W79848   8.902   9.454  13.441
 8320W        W79849  26.416   9.440  12.860
 8321W        W79850  20.624  15.165   3.474
 8322W        W79851   9.144  37.873  10.685
 8323W        W79852   4.424  44.304  14.424
 8324W        W79853  19.321   0.541   3.182
 8325W        W79854  24.069  21.096   4.090
 8326W        W79855  34.594  18.321   1.924
 8327W        W79856  36.428   3.191  13.554
 8328W        W79857   9.130  22.339  11.123
 8329W        W79858  22.102  31.632  10.857
 8330W        W79859  29.325  11.853   4.175
 8331W        W79860   2.409   0.437  14.776
 8332W        W79861  40.163  11.204   1.494
 8333W        W79862  21.725  23.947   4.106
 8334W        W79863  36.684  16.673   2.173
 8335W        W79864  44.931  38.618  13.861
 8336W        W79865  27.308  38.351  11.856
 8337W        W79866  41.010   0.200  14.799
 8338W        W79867  23.807   4.391  11.215
 8339W        W79868  39.612  13.477  12.317
 8340W        W79869  28.848  32.402  11.600
 8341W        W79870  26.122  27.632  13.752
 8342W        W79871  18.055  26.838   2.163
 8343W        W79872  24.802  25.659   2.835
 8344W        W79873  25.644  17.556  12.592
 8345W        W79874  40.230  32.992  14.449
 8346W        W79875  31.398  32.440  14.107
 8347W        W79876  24.655  36.883   3.187
 8348W        W79877  35.534  11.612  11.678
 8349W        W79878  15.517  11.068   2.808
 8350W        W79879  18.098  43.360   0.775
 8351W        W79880  15.580   7.400  11.950
 8352W        W79881  35.489   8.694   1.910
 8353W        W79882  37.791  37.787  12.147
 8354W        W79883  30.942  11.399  12.195
 8355W        W79884  22.694  28.673  13.220
 8356W        W79885  11.729  18.784  13.395
 8357W        W79886   6.960  15.257  14.409
 8358W        W79887  43.204  42.048   2.132
 8359W        W79888   3.030  38.860   3.288
 8360W        W79889  13.618   5.299   2.827
 8361W        W79890   1.494  37.404  12.081
 8362W        W79891  34.727  19.947   3.189
 8363W        W79892  34.525  19.482  13.065
 8364W        W79893  18.783   1.868   2.600
 8365W        W79894  20.910  14.043  12.887
 8366W        W79895  26.420  28.071   0.768
 8367W        W79896  35.577  21.993  10.754
 8368W        W79897  24.742  40.459  10.706
 8369W        W79898  10.083   5.858   1.901
 8370W        W79899  26.489  40.564   4.523
 8371W        W79900   8.754   6.719  11.837
 8372W        W79901  36.803  26.794   0.352
 8373W        W79902  20.262  17.777   3.353
 8374W        W79903  35.525  33.092   1.727
 8375W        W79904  13.869  21.020   2.218
 8376W        W79905  40.610  29.207   4.706
 8377W        W79906   9.542  29.609  10.742
 8378W        W79907  25.266  11.325  13.468
 8379W        W79908  27.723  39.833  14.012
 8380W        W79909  26.603  29.589   3.748
 8381W        W79910  10.368  14.870   3.847
 8382W        W79911  13.110  42.109  13.315
 8383W        W79912  11.214   1.938  14.322
 8384W        W79913  33.173  34.377   0.473
 8385W        W79914   9.277  13.209  13.331
 8386W        W79915  42.271  29.009   1.770
 8387W        W79916   2.195   0.906   1.828
 8388W        W79917   7.868  43.797  13.925
 8389W        W79918  22.767  23.740  14.386
 8390W        W79919  36.981   8.450   2.847
 8391W        W79920  18.917   4.404  12.962
 8392W        W79921  24.428   2.466   0.929
 8393W        W79922   4.544  14.213   3.759
 8394W        W79923  27.946  29.632  12.042
 8395W        W79924   9.870  11.770  14.035
 8396W        W79925  19.232  24.162   4.055
 8397W        W79926  17.818  24.637   4.943
 8398W        W79927  20.544   6.954   1.487
 8399W        W79928  29.443   4.656   1.302
 8400W        W79929  35.272  11.477   1.847
 8401W        W79930   5.059  32.727   0.057
 8402W        W79931  27.943  15.586  12.997
 8403W        W79932   8.269  23.691  10.371
 8404W        W79933   5.762   2.451  12.730
 8405W        W79934  31.889  25.920   0.594
 8406W        W79935  42.915  21.920  12.088
 8407W        W79936   3.380  43.012  11.090
 8408W        W79937  33.859  40.533  14.866
 8409W        W79938  27.969   7.788   1.035
 8410W        W79939   5.176  37.213   0.286
 8411W        W79940  40.712  18.546  12.912
 8412W        W79941  41.719  10.315  12.489
 8413W        W79942  12.103  29.594  12.477
 8414W        W79943  15.760  31.769  11.333
 8415W        W79944   9.345  25.955  13.854
 8416W        W79945  43.244  16.611   0.675
 8417W        W79946   9.799  30.749   3.431
 8418W        W79947  25.863  44.522   1.644
 8419W        W79948  30.557  15.015  11.881
 8420W        W79949  18.828  34.459   1.177
 8421W        W79950  22.157  18.072   3.362
 8422W        W79951  17.417   1.080   5.278
 8423W        W79952   3.489  11.337   0.741
 8424W        W79953   8.391   2.710   3.751
 8425W        W79954  30.545   2.335  10.968
 8426W        W79955  44.723  35.099   4.562
 8427W        W79956  31.043  11.780  10.265
 8428W        W79957  39.080  26.098   0.434
 8429W        W79958  33.883  24.611  13.856
 8430W        W79959  18.213  16.875  11.104
 8431W        W79960  43.085  33.403  10.291
 8432W        W79961  24.621  33.423   2.758
 8433W        W79962  18.149  18.629  12.576
 8434W        W79963   7.817   0.381   4.789
 8435W        W79964  10.027  17.207   9.984
 8436W        W79965  13.311   0.716   3.616
 8437W        W79966  33.696  27.111   4.298
 8438W        W79967  20.768  13.893  13.534
 8439W        W79968   4.863  20.019  12.488
 8440W        W79969  28.923  13.594  11.266
 8441W        W79970  37.048  29.159  13.978
 8442W        W79971  21.377  26.144   4.788
 8443W        W79972  11.120  22.539   0.819
 8444W        W79973   5.181  35.055   1.857
 8445W        W79974   3.286   2.044  10.775
 8446W        W79975  19.671  38.241  14.405
 8447W        W79976   3.531  19.725  11.173
 8448W        W79977  36.387  18.232   3.626
 8449W        W79978  26.228   4.913  14.509
 8450W        W79979  16.513  38.479  12.275
 8451W        W79980  34.501   0.043   3.690
 8452W        W79981  41.343  17.802   3.371
 8453W        W79982  12.101  21.632   4.499
 8454W        W79983  31.125  11.693  14.071
 8455W        W79984  37.173  34.389  10.949
 8456W        W79985  28.941  24.891  13.504
 8457W        W79986  22.604  26.516  10.205
 8458W        W79987   3.619  35.896  11.686
 8459W        W79988   5.572  13.623  12.896
 8460W        W79989  10.249  16.677   0.059
 8461W        W79990   3.410  12.978   2.194
 8462W        W79991  25.699  18.105   1.217
 8463W        W79992  29.613  19.259   4.615
 8464W        W79993  30.026   5.409  10.585
 8465W        W79994  19.078  43.954  11.443
 8466W        W79995   8.218  40.718   2.364
 8467W        W79996  24.517  41.677   1.859
 8468W        W79997  13.122   9.619   1.207
 8469W        W79998  13.593   5.878   4.560
 8470W        W79999  31.300   4.620   1.237
 8471W        W80000  38.597  11.135   3.831
 8472W        W80001  15.008  43.555   1.696
 8473W        W80002   0.324  16.162  10.689
 8474W        W80003  38.730  36.761  13.848
 8475W        W80004  35.536   0.730  14.608
 8476W        W80005  16.435  20.718   2.144
 8477W        W80006  21.334  14.585   0.286
 8478W        W80007  42.986  18.152  10.743
 8479W        W80008  39.301  43.453  11.207
 8480W        W80009  28.686   9.697  14.865
 8481W        W80010  40.790  36.325  10.639
 8482W        W80011  16.176  32.621   0.952
 8483W        W80012  35.402   3.801   4.440
 8484W        W80013  44.747  29.174   4.187
 8485W        W80014  25.438   4.823   2.146
 8486W        W80015  23.011  27.278   1.728
 8487W        W80016  16.662  41.471  11.267
 8488W        W80017  43.897  31.666  13.425
 8489W        W80018  24.832  28.631   0.277
 8490W        W80019  19.128  39.718   0.060
 8491W        W80020  44.401  21.789   3.240
 8492W        W80021  44.427   4.354   4.242
 8493W        W80022  17.234   7.153   4.860
 8494W        W80023  32.022  42.322   2.431
 8495W        W80024   8.273  29.627  13.512
 8496W        W80025  25.718  12.725   1.218
 8497W        W80026  41.012   9.416  13.374
 8498W        W80027  16.304  24.247   0.026
 8499W        W80028  43.393  44.021   0.087
 8500W        W80029   6.658   8.797  14.790
 8501W        W80030   2.548  25.994  10.620
 8502W        W80031  39.433  41.575   2.738
 8503W        W80032   5.626  33.189  13.594
 8504W        W80033   6.358  16.059   5.046
 8505W        W80034  31.667  20.680   3.587
 8506W        W80035  42.712  11.655  13.969
 8507W        W80036  44.986  19.821   1.318
 8508W        W80037  28.525  26.395   2.711
 8509W        W80038  15.777   7.652   4.160
 8510W        W80039  10.889  28.399  14.307
 8511W        W80040   7.851   8.718   1.663
 8512W        W80041   3.876  35.258  11.106
 8513W        W80042   7.262  44.709   0.425
 8514W        W80043   0.247   7.484   4.622
 8515W        W80044  32.539  13.663  10.579
 8516W        W80045  40.048  35.504   3.297
 8517W        W80046  26.060  41.480  12.949
 8518W        W80047  33.842  27.081   0.315
 8519W        W80048  40.804   5.372  10.676
 8520W        W80049  19.923  26.645  10.633
 8521W        W80050   6.975  38.994   4.228
 8522W        W80051  21.773  23.613   4.538
 8523W        W80052  23.934  27.942  10.400
 8524W        W80053  10.505   8.719   3.549
 8525W        W80054  41.410  14.816   2.002
 8526W        W80055  28.613  30.200   2.299
 8527W        W80056  42.377  27.545  11.575
 8528W        W80057  19.767  37.365  11.171
 8529W        W80058   2.929  41.710   3.556
 8530W        W80059  33.037  19.092  14.693
 8531W        W80060  42.365  29.451   2.642
 8532W        W80061  34.683  22.000   0.326
 8533W        W80062   6.251  14.069  12.938
 8534W        W80063  41.252  35.104  14.391
 8535W        W80064  18.557   0.284  13.565
 8536W        W80065  13.965  14.036   2.751
 8537W        W80066  37.372  31.291  12.175
 8538W        W80067  20.660  30.807  10.871
 8539W        W80068  22.662  21.679   1.865
 8540W        W80069  34.774  37.079  14.407
 8541W        W80070  29.113   7.734  13.957
 8542W        W80071  10.367  38.554  12.450
 8543W        W80072  24.973   6.150  11.986
 8544W        W80073  42.979  37.016   1.838
 8545W        W80074  22.602  44.458  13.843
 8546W        W80075   7.354   7.838  12.528
 8547W        W80076  10.581  29.117  12.162
 8548W        W80077  39.949   1.247  10.705
 8549W        W80078  39.059   6.458   0.788
 8550W        W80079  41.029  41.885  14.453
 8551W        W80080   0.618  25.981   1.471
 8552W        W80081  15.178  15.208   2.289
 8553W        W80082  37.129  32.259  10.968
 8554W        W80083  22.194  11.363   4.435
 8555W        W80084  42.052  20.143   2.156
 8556W        W80085  30.709  35.878   2.814
 8557W        W80086   7.262  15.042  12.105
 8558W        W80087  15.369  20.023  11.539
 8559W        W80088  26.402  24.418  12.432
 8560W        W80089  18.191  18.619  10.639
 8561W        W80090  24.986  24.573   2.217
 8562W        W80091  43.907  17.032  11.169
 8563W        W80092   9.323  38.597  13.407
 8564W        W80093  39.555  23.025  13.438
 8565W        W80094  22.102  20.670   0.338
 8566W        W80095  43.275   8.140   1.421
 8567W        W80096  37.291  33.127  12.083
 8568W        W80097  19.011  26.421   4.504
 8569W        W80098  42.955  39.850  11.452
 8570W        W80099  13.105  40.551  12.521
 8571W        W80100  21.618  31.073   0.314
 8572W        W80101  26.577  26.034   2.812
 8573W        W80102  15.197   7.220   4.646
 8574W        W80103   7.983  27.424  12.321
 8575W        W80104  40.855  37.777  11.023
 8576W        W80105  23.154  39.550  13.388
 8577W        W80106  39.613  37.597   1.807
 8578W        W80107  40.154   4.627   0.779
 8579W        W80108  11.063   1.960   0.239
 8580W        W80109   3.696  16.793  12.393
 8581W        W80110   4.894  29.851  11.020
 8582W        W80111   9.656  17.752  11.686
 8583W        W80112  28.717  31.290   1.220
 8584W        W80113   2.299  43.556  13.432
 8585W        W80114  44.656  22.566  13.182
 8586W        W80115  15.116  42.462  11.231
 8587W        W80116  23.037  44.747  13.912
 8588W        W80117  19.128  44.870   1.331
 8589W        W80118  42.416  17.184   0.859
 8590W        W80119  21.147  24.113   3.520
 8591W        W80120  43.875  31.156  11.640
 8592W        W80121  27.493   7.824   2.154
 8593W        W80122  11.270  21.351  10.930
 8594W        W80123  38.323  34.398  12.056
 8595W        W80124  33.226  31.906  13.473
 8596W        W80125  24.224  31.659   2.287
 8597W        W80126  44.854  37.611  12.709
 8598W        W80127  27.501  26.237   3.675
 8599W        W80128  14.692  32.532  14.223
 8600W        W80129  42.718  43.935  13.930
 8601W        W80130  38.979  16.020   4.852
 8602W        W80131  14.562   0.969   0.944
 8603W        W80132  18.875  10.356  11.177
 8604W        W80133  37.466  24.346  11.681
 8605W        W80134  39.761  18.635   1.212
 8606W        W80135  15.106  22.960   1.689
 8607W        W80136   8.217  21.044  11.413
 8608W        W80137  29.881  11.303   0.725
 8609W        W80138  39.843  20.756   4.149
 8610W        W80139   2.714  38.665   1.844
 8611W        W80140   8.539  27.321  10.319
 8612W        W80141  33.376   0.592   4.608
 8613W        W80142  32.353  17.494   2.107
 8614W        W80143  29.274   4.345   4.173
 8615W        W80144  34.810  22.188   1.283
 8616W        W80145   7.069  16.299   5.245
 8617W        W80146  25.827  26.452  11.941
 8618W        W80147  26.367  19.410   0.163
 8619W        W80148  11.272   9.712  12.068
 8620W        W80149   8.311  21.642  13.867
 8621W        W80150   9.313  25.336   5.134
 8622W        W80151   7.476  30.946  11.049
 8623W        W80152  15.001  13.906   2.050
 8624W        W80153  39.405  10.420  14.341
 8625W        W80154  29.606  44.284  13.485
 8626W        W80155  14.642  19.203  13.874
 8627W        W80156   6.100  14.583   4.177
 8628W        W80157  17.990   6.006  13.810
 8629W        W80158  29.052  32.583   0.781
 8630W        W80159   6.701  44.182   2.643
 8631W        W80160   4.182   9.389  12.690
 8632W        W80161   4.452  11.389   4.522
 8633W        W80162  12.718  21.999   2.758
 8634W        W80163   7.823  14.436   4.109
 8635W        W80164   9.305  15.739   1.426
 8636W        W80165  10.723  23.575  13.850
 8637W        W80166  18.513  13.993   5.000
 8638W        W80167  32.872  41.431  12.542
 8639W        W80168   0.024   8.943   1.793
 8640W        W80169  40.627   7.879  13.424
 8641W        W80170  24.551   3.360  11.926
 8642W        W80171  41.784  28.624   4.360
 8643W        W80172   1.177  35.039  14.040
 8644W        W80173  17.324  20.990  11.494
 8645W        W80174  37.376  19.309   0.776
 8646W        W80175  35.730  33.582   2.696
 8647W        W80176  10.154   9.587   1.873
 8648W        W80177  30.836  38.895   2.939
 8649W        W80178   8.288  43.725  14.960
 8650W        W80179  20.292   0.141  14.438
 8651W        W80180  39.487  34.147   0.917
 8652W        W80181  12.592   3.484   4.104
 8653W        W80182  12.730  44.955  11.042
 8654W        W80183  17.140  30.937   0.930
 8655W        W80184   9.130  20.243   3.353
 8656W        W80185  24.969   6.327  10.722
 8657W        W80186  33.707  11.455  12.026
 8658W        W80187  21.057  12.747  11.412
 8659W        W80188  11.982   9.306  14.019
 8660W        W80189  36.082  16.161  12.388
 8661W        W80190  41.514  26.382   0.402
 8662W        W80191  42.261  16.896  13.466
 8663W        W80192  30.330  33.121  14.736
 8664W        W80193  29.906   4.108   1.109
 8665W        W80194  25.024  15.693   0.951
 8666W        W80195  30.447   8.277  14.471
 8667W        W80196  36.453  23.834  13.601
 8668W        W80197  31.405  17.800  11.272
 8669W        W80198  11.188   0.047   1.743
 8670W        W80199  30.229  35.044  10.262
 8671W        W80200  39.192  17.784   2.417
 8672W        W80201  16.126   3.280   0.802
 8673W        W80202  10.406  30.924   1.247
 8674W        W80203   7.165  14.666   4.161
 8675W        W80204   8.862  17.700  14.001
 8676W        W80205  20.309  31.947   3.624
 8677W        W80206  42.007  19.271   4.595
 8678W        W80207  26.607  36.237  11.132
 8679W        W80208  43.536  35.915  11.495
 8680W        W80209   7.063  44.467  12.992
 8681W        W80210  27.599  11.187  14.480
 8682W        W80211   7.792  24.930   1.313
 8683W        W80212  40.430  22.817   2.114
 8684W        W80213  27.894  26.113   4.257
 8685W        W80214  40.455   0.141   3.360
 8686W        W80215   6.682   6.388   4.025
 8687W        W80216  12.228   3.525   3.734
 8688W        W80217   0.207  17.328   2.653
 8689W        W80218  44.421   1.676  14.817
 8690W        W80219  25.177  17.297  13.489
 8691W        W80220  21.997   9.328  13.052
 8692W        W80221  37.411   4.873   1.788
 8693W        W80222  37.433   6.073   3.917
 8694W        W80223  16.663  10.051  13.081
 8695W        W80224  41.614   2.864  11.058
 8696W        W80225  29.601  35.545   2.834
 8697W        W80226  32.960  36.378   4.075
 8698W        W80227   7.713   7.771  12.162
 8699W        W80228  19.741   6.596   3.719
 8700W        W80229   3.847  44.798  12.663
 8701W        W80230  38.290   3.469  13.848
 8702W        W80231  27.961  26.439  12.697
 8703W        W80232  36.102  28.471   4.469
 8704W        W80233  38.644  15.473  11.544
 8705W        W80234  42.873   9.355  11.132
 8706W        W80235  34.026  20.118   0.163
 8707W        W80236  39.714  20.634  10.747
 8708W        W80237  15.663   5.696  12.271
 8709W        W80238   4.468   8.300  11.309
 8710W        W80239  24.499  17.466  12.942
 8711W        W80240  19.122   7.237   1.256
 8712W        W80241  23.956  43.678  11.775
 8713W        W80242  32.738  28.426  13.773
 8714W        W80243  30.639  25.946   0.028
 8715W        W80244  38.982   0.780   2.268
 8716W        W80245  10.672  38.008   0.499
 8717W        W80246  24.755   5.114  12.986
 8718W        W80247  22.636  32.679  14.194
 8719W        W80248  44.805  42.474  14.337
 8720W        W80249  42.789  21.829   2.788
 8721W        W80250  19.260   5.057  11.628
 8722W        W80251  11.152  24.629   4.221
 8723W        W80252  21.413  21.742   3.128
 8724W        W80253  24.444  18.442   2.122
 8725W        W80254   8.861  28.034  14.036
 8726W        W80255  17.318  40.973   3.785
 8727W        W80256  28.521  35.522  14.370
 8728W        W80257  32.588  23.497  11.014
 8729W        W80258  44.716  10.710  12.886
 8730W        W80259  18.985   6.439   2.091
 8731W        W80260  17.639   3.480  11.506
 8732W        W80261  31.839   9.331   1.890
 8733W        W80262   0.205  43.348  14.320
 8734W        W80263  37.462   7.327  10.655
 8735W        W80264   8.943  32.069   2.779
 8736W        W80265  12.801  12.887   4.346
 8737W        W80266   8.840  23.811   0.404
 8738W        W80267  25.743  23.574  12.005
 8739W        W80268  18.291  34.728  13.228
 8740W        W80269  28.973  18.495  12.209
 8741W        W80270  38.866  26.718   1.128
 8742W        W80271  10.057   2.777  13.789
 8743W        W80272   1.209  34.461   3.268
 8744W        W80273  12.062  44.004  11.167
 8745W        W80274  29.008  21.216   3.168
 8746W        W80275   6.383  13.628  11.724
 8747W        W80276   8.461  15.303   1.663
 8748W        W80277   9.539   1.107   9.763
 8749W        W80278  16.060  38.805   3.253
 8750W        W80279   0.470   3.762   4.585
 8751W        W80280  43.933  24.929   2.193
 8752W        W80281  24.839   9.523  12.015
 8753W        W80282   4.751  33.257   2.839
 8754W        W80283  12.169  14.948   4.079
 8755W        W80284   1.344   9.369   1.828
 8756W        W80285  21.718   7.285   4.536
 8757W        W80286   1.745  10.792  11.334
 8758W        W80287  14.810   5.691   1.817
 8759W        W80288  26.593  44.897  14.892
 8760W        W80289  44.782  42.155  14.748
 8761W        W80290  12.450  25.438   1.419
 8762W        W80291  33.199  37.017  13.501
 8763W        W80292  29.756  38.843   1.894
 8764W        W80293  33.324   1.111  12.025
 8765W        W80294  23.118  38.529  12.425
 8766W        W80295   5.418  19.621   1.647
 8767W        W80296  25.503  12.356  11.659
 8768W        W80297   5.255  35.978  14.294
 8769W        W80298   1.647  30.704   1.958
 8770W        W80299  41.879  20.507  10.612
 8771W        W80300  26.978   8.728  14.762
 8772W        W80301  19.091  37.073  14.640
 8773W        W80302  19.844   3.801   3.123
 8774W        W80303  43.346  17.962   4.655
 8775W        W80304  19.529  20.127   4.693
 8776W        W80305   2.911  13.857  10.813
 8777W        W80306   2.503  32.861   1.177
 8778W        W80307  30.737  39.871  10.830
 8779W        W80308  22.926   2.460   1.778
 8780W        W80309  12.810  15.730   1.980
 8781W        W80310  15.328  17.930  12.704
 8782W        W80311  11.013  16.082   3.931
 8783W        W80312  32.635  15.113   2.789
 8784W        W80313  39.931  44.327   2.398
 8785W        W80314   8.494   3.393   0.840
 8786W        W80315  31.038   2.813   1.911
 8787W        W80316   7.770  24.365   4.541
 8788W        W80317  41.324  40.046  13.865
 8789W        W80318  24.123  10.545   4.924
 8790W        W80319  44.241  27.060  13.115
 8791W        W80320  20.619  28.968  12.468
 8792W        W80321  18.801  26.582   0.294
 8793W        W80322  39.947  15.773  11.851
 8794W        W80323  43.787  31.862   1.867
 8795W        W80324  32.978   4.069   3.815
 8796W        W80325  11.224  10.681  11.829
 8797W        W80326  30.979  17.642  11.516
 8798W        W80327  36.579  34.434   4.271
 8799W        W80328  39.383  31.911   2.181
 8800W        W80329  37.931   8.260   3.685
 8801W        W80330  31.815  37.454  10.413
 8802W        W80331  28.183  34.063  11.780
 8803W        W80332   6.483   3.407   0.184
 8804W        W80333   3.857  29.202   2.931
 8805W        W80334  20.162  32.820   1.848
 8806W        W80335  37.074  13.712  11.985
 8807W        W80336   1.937  27.481  14.929
 8808W        W80337  27.812  11.676   5.187
 8809W        W80338  35.362  18.093   0.930
 8810W        W80339   4.754  35.084   3.718
 8811W        W80340  17.734  17.475   0.079
 8812W        W80341  42.663   9.946  13.086
 8813W        W80342  37.982  26.053   2.425
 8814W        W80343   4.319  23.259  14.532
 8815W        W80344  18.205   1.912   4.739
 8816W        W80345  37.423  16.127   3.638
 8817W        W80346  24.245  17.081  14.290
 8818W        W80347  31.414  12.719  10.774
 8819W        W80348   9.909  19.719  13.082
 8820W        W80349  15.550   0.983   4.562
 8821W        W80350  40.790   3.873   1.807
 8822W        W80351  43.235  32.022  12.932
 8823W        W80352  30.027   1.698   1.803
 8824W        W80353  30.356   5.142   2.732
 8825W        W80354  12.249   9.751   1.025
 8826W        W80355  27.105   8.143   2.771
 8827W        W80356  16.775  40.966   0.344
 8828W        W80357  35.249   2.367  11.165
 8829W        W80358  11.784  44.021   0.500
 8830W        W80359  24.584   6.861   4.938
 8831W        W80360  24.576  12.681   2.106
 8832W        W80361   2.283   2.707   2.881
 8833W        W80362  31.465  27.134  12.377
 8834W        W80363  22.323  18.041   4.159
 8835W        W80364  17.238  29.164  11.628
 8836W        W80365  24.966  31.227   3.194
 8837W        W80366   5.324  34.457   4.955
 8838W        W80367   0.648  38.990   1.322
 8839W        W80368  17.566  29.397   0.612
 8840W        W80369   6.164  37.551  10.899
 8841W        W80370   8.808   3.927   3.196
 8842W        W80371  18.369  33.889  13.368
 8843W        W80372  41.435  10.005   2.213
 8844W        W80373  23.278   9.204   0.399
 8845W        W80374  30.790  22.591  10.634
 8846W        W80375   9.261  28.016  11.484
 8847W        W80376  12.696  29.174   2.054
 8848W        W80377  16.343   5.338   4.347
 8849W        W80378  39.798  22.857   3.216
 8850W        W80379   7.110  25.147   2.218
 8851W        W80380   0.401  39.285   2.145
 8852W        W80381  19.094   2.461  14.442
 8853W        W80382  17.366  36.432   1.687
 8854W        W80383   1.301  10.281  11.978
 8855W        W80384  21.277  41.895   4.144
 8856W        W80385   6.952  33.918   0.389
 8857W        W80386   8.115  32.842  12.588
 8858W        W80387  12.746   7.897   1.317
 8859W        W80388   7.189   6.731  11.536
 8860W        W80389   6.767  17.361  13.773
 8861W        W80390   8.395  23.522  14.692
 8862W        W80391  16.794  16.935  11.127
 8863W        W80392   9.550   1.852   0.266
 8864W        W80393  31.216  38.404   4.998
 8865W        W80394  32.061   2.941  14.059
 8866W        W80395  20.104  35.627  10.758
 8867W        W80396  40.272  18.778   2.787
 8868W        W80397  27.396  35.196   2.763
 8869W        W80398  15.202   2.498   0.344
 8870W        W80399  33.426  36.082  11.528
 8871W        W80400   4.941  15.792  14.811
 8872W        W80401   4.870  24.515   3.169
 8873W        W80402   4.510  44.875   3.572
 8874W        W80403  39.285   6.217  14.365
 8875W        W80404  31.198   4.919   3.157
 8876W        W80405   7.729  16.573  13.944
 8877W        W80406  14.252  11.117  11.137
 8878W        W80407  20.138   0.565   2.106
 8879W        W80408  31.071  14.651  13.999
 8880W        W80409   3.500  33.009   3.712
 8881W        W80410  35.830  23.069  14.542
 8882W        W80411   6.718  44.133  14.280
 8883W        W80412  31.996  10.447  12.050
 8884W        W80413   7.399  17.067   2.264
 8885W        W80414  24.452  27.991  10.585
 8886W        W80415  13.640   2.553   3.849
 8887W        W80416   7.311  36.660  11.193
 8888W        W80417  25.476   6.737  13.229
 8889W        W80418   8.931  14.229  11.448
 8890W        W80419  24.936  27.028   3.733
 8891W        W80420  40.123  31.395  12.457
 8892W        W80421  16.091  10.975  11.421
 8893W        W80422  35.120  18.212  14.494
 8894W        W80423  28.053   4.009   3.130
 8895W        W80424  15.658  24.468  14.387
 8896W        W80425  30.597  16.994  10.020
 8897W        W80426   8.702  31.393  14.926
 8898W        W80427  28.356   6.708  10.643
 8899W        W80428  13.547  18.302   4.666
 8900W        W80429   2.962  41.915  12.929
 8901W        W80430  28.622  17.792   2.728
 8902W        W80431  21.532  23.410  11.498
 8903W        W80432  13.543  20.282   3.108
 8904W        W80433  40.727   7.906   2.626
 8905W        W80434  10.904  25.631   2.208
 8906W        W80435  22.742  13.322   0.976
 8907W        W80436  14.828  13.101   0.089
 8908W        W80437  32.981  20.868  12.254
 8909W        W80438   9.391  35.580   0.297
 8910W        W80439   9.055  20.326   0.990
 8911W        W80440  30.886   7.149   3.677
 8912W        W80441  24.470  18.728   1.687
 8913W        W80442  39.943  30.666  14.991
 8914W        W80443   8.365   1.536   4.312
 8915W        W80444  14.322  31.625   0.817
 8916W        W80445   8.099  35.924  11.544
 8917W        W80446   5.267  33.446  10.306
 8918W        W80447  26.620  20.282   0.392
 8919W        W80448  15.110   2.337   3.208
 8920W        W80449  14.291  11.344  11.581
 8921W        W80450  27.378  19.075   1.456
 8922W        W80451   1.248  26.627  11.049
 8923W        W80452   5.955  35.331  14.889
 8924W        W80453  31.187   3.623  12.609
 8925W        W80454  29.774  16.147   3.137
 8926W        W80455  20.542   3.849   1.747
 8927W        W80456   8.942  35.419  14.400
 8928W        W80457  27.581  29.943   1.768
 8929W        W80458   2.698  37.066   2.697
 8930W        W80459   8.156  23.435   2.322
 8931W        W80460  29.000   1.029  10.996
 8932W        W80461  41.749  32.707   0.729
 8933W        W80462   6.024  15.538  12.049
 8934W        W80463   4.943  10.297  12.353
 8935W        W80464  28.601  13.597  12.825
 8936W        W80465   4.740  25.135  13.429
 8937W        W80466  17.043   5.572  10.254
 8938W        W80467  13.514  29.682  14.418
 8939W        W80468  13.868  28.041   2.432
 8940W        W80469  10.474   7.884  11.037
 8941W        W80470  33.499   8.986   4.319
 8942W        W80471   3.430  22.696  14.310
 8943W        W80472  32.077  35.344   4.617
 8944W        W80473  32.998   3.536   5.012
 8945W        W80474  20.084  18.183  12.060
 8946W        W80475  39.290  34.455  11.494
 8947W        W80476  17.606   5.174  11.303
 8948W        W80477  40.387  38.067   3.425
 8949W        W80478  34.571   6.378   2.473
 8950W        W80479  19.761   2.369  12.507
 8951W        W80480  31.330  10.650  13.038
 8952W        W80481   8.243  20.121  11.849
 8953W        W80482  18.157   1.345  10.384
 8954W        W80483  40.398  19.257  11.447
 8955W        W80484   2.363  34.825  11.104
 8956W        W80485  16.093  32.516   2.873
 8957W        W80486   3.712   7.629   3.304
 8958W        W80487   3.854  35.924   9.435
 8959W        W80488  40.330  13.979   2.061
 8960W        W80489   5.287   8.160   4.284
 8961W        W80490  18.157  44.250   3.584
 8962W        W80491  29.707  31.484  10.775
 8963W        W80492  36.117  16.077  14.922
 8964W        W80493  17.530  18.745   0.412
 8965W        W80494  22.965  18.498   2.555
 8966W        W80495  31.931  44.002   1.719
 8967W        W80496   0.918  15.448   3.332
 8968W        W80497   7.226  30.641  12.277
 8969W        W80498  40.242  35.020  14.505
 8970W        W80499  19.201  35.657  14.855
 8971W        W80500  16.842  36.051  11.718
 8972W        W80501   2.476  11.150   3.183
 8973W        W80502   0.179  10.880   1.702
 8974W        W80503  39.622  36.246  13.509
 8975W        W80504  27.204  21.560  14.069
 8976W        W80505  22.478  20.397  14.499
 8977W        W80506  33.947  44.875   1.926
 8978W        W80507  23.528  38.758   0.824
 8979W        W80508  43.179  39.597  10.994
 8980W        W80509  13.312  15.608   0.264
 8981W        W80510   0.285  30.281   3.108
 8982W        W80511  13.545  41.854   1.724
 8983W        W80512  10.263  25.375  10.492
 8984W        W80513  36.792   5.976  13.448
 8985W        W80514  10.908  27.627   1.323
 8986W        W80515  35.916   4.426   1.417
 8987W        W80516  19.467  23.968  14.611
 8988W        W80517  23.040  38.556   0.907
 8989W        W80518  15.141   8.817   0.257
 8990W        W80519   6.329  44.735   1.924
 8991W        W80520  41.853  14.923   2.897
 8992W        W80521  18.522  13.005   4.147
 8993W        W80522   8.648  14.323   3.637
 8994W        W80523  11.795  19.443  11.956
 8995W        W80524   6.345  14.271  14.766
 8996W        W80525  37.067  20.535  13.373
 8997W        W80526  43.336  15.077   3.548
 8998W        W80527  34.004  22.297  12.469
 8999W        W80528  17.035  42.286   3.577
 9000W        W80529  23.900  28.400   3.307
 9001W        W80530  12.604  26.550  13.343
 9002W        W80531  14.819  16.151   4.188
 9003W        W80532  44.057  26.100   1.228
 9004W        W80533   4.572   5.889   1.280
 9005W        W80534  12.533  43.866  11.051
 9006W        W80535  37.857  19.838   0.441
 9007W        W80536  42.596  39.423  14.984
 9008W        W80537  11.845  41.222  14.499
 9009W        W80538  25.616  34.654  10.198
 9010W        W80539  11.195  40.724  13.572
 9011W        W80540   5.639   6.357   3.373
 9012W        W80541   1.317   3.234   0.356
 9013W        W80542  17.992   0.716   1.778
 9014W        W80543  27.806   9.476   0.743
 9015W        W80544  35.456  43.952   3.326
 9016W        W80545  18.129  38.891   1.388
 9017W        W80546  16.493  40.563  14.589
 9018W        W80547  35.830   5.429  14.969
 9019W        W80548  23.044   4.208  12.386
 9020W        W80549  24.435  39.347  13.961
 9021W        W80550  10.884  31.395   3.887
 9022W        W80551  22.595   0.890   3.071
 9023W        W80552   0.547  23.789   1.292
 9024W        W80553  30.927  18.262   4.137
 9025W        W80554  41.788  22.610  11.573
 9026W        W80555  27.753  39.782   0.331
 9027W        W80556  44.880  39.620   4.613
 9028W        W80557  14.377  30.065  11.629
 9029W        W80558  32.342  26.232  12.418
 9030W        W80559   2.187  14.808   2.761
 9031W        W80560  30.056  38.561   1.004
 9032W        W80561  31.938  39.427  14.159
 9033W        W80562  37.494  19.223   4.555
 9034W        W80563  41.065  12.198   2.132
 9035W        W80564  16.735  37.688   2.806
 9036W        W80565  12.910  20.539  11.238
 9037W        W80566  10.164  11.242  11.436
 9038W        W80567  18.246  14.781  11.461
 9039W        W80568  42.566  34.921  14.823
 9040W        W80569  43.617  17.675   5.036
 9041W        W80570  23.464   6.043  14.920
 9042W        W80571  31.910   5.883   1.287
 9043W        W80572  31.556   6.481  10.787
 9044W        W80573  37.940  11.284   4.198
 9045W        W80574  40.834  25.863   0.404
 9046W        W80575  28.193  30.197  14.060
 9047W        W80576  21.879  37.055  10.232
 9048W        W80577  33.803  36.416  14.778
 9049W        W80578  24.748  24.702   2.658
 9050W        W80579   9.167  25.479  13.814
 9051W        W80580  24.046  42.943   2.827
 9052W        W80581  42.740   9.840   1.892
 9053W        W80582  21.388   9.237   3.288
 9054W        W80583  21.379   2.965  10.427
 9055W        W80584  22.952  23.689   3.634
 9056W        W80585   1.007   0.484  11.931
 9057W        W80586  19.647  15.004   3.237
 9058W        W80587  11.135   2.795  11.561
 9059W        W80588   6.851   7.898  12.065
 9060W        W80589  35.846  25.302  14.624
 9061W        W80590   0.578  21.682  11.110
 9062W        W80591  11.051   2.666  12.867
 9063W        W80592  17.657  14.791   4.444
 9064W        W80593  16.173  28.642   0.345
 9065W        W80594  32.494  10.407  10.667
 9066W        W80595  41.500  30.966   4.589
 9067W        W80596   3.042   5.902   1.346
 9068W        W80597   3.541   7.234   9.877
 9069W        W80598  44.459  20.220  14.111
 9070W        W80599  24.711   2.672  11.699
 9071W        W80600   9.846  26.654  12.883
 9072W        W80601   7.356  37.779  12.569
 9073W        W80602  41.466  17.257  13.028
 9074W        W80603  14.544  18.619   2.909
 9075W        W80604  23.211   5.414   4.005
 9076W        W80605  15.676  14.924  11.043
 9077W        W80606  16.173  33.083   4.607
 9078W        W80607  33.521   0.895   5.031
 9079W        W80608  22.538  43.870  11.622
 9080W        W80609  11.833  34.836   2.192
 9081W        W80610   9.694  21.966   4.118
 9082W        W80611  35.202   6.442   3.784
 9083W        W80612  37.066  28.826  14.418
 9084W        W80613  29.669   0.406  13.122
 9085W        W80614  42.203  37.138   2.742
 9086W        W80615  34.562  22.437   3.162
 9087W        W80616   2.859  28.690   1.265
 9088W        W80617   0.319  36.046   4.590
 9089W        W80618  24.732   6.777  11.449
 9090W        W80619  11.073   9.665  12.954
 9091W        W80620  15.680  24.634  12.952
 9092W        W80621  30.328  42.406   3.588
 9093W        W80622  16.299  36.619  11.139
 9094W        W80623  38.075  38.095   1.500
 9095W        W80624   0.402  13.564  14.810
 9096W        W80625   0.736   2.147  13.043
 9097W        W80626  35.128   9.244   0.910
 9098W        W80627  24.921  21.123   3.840
 9099W        W80628   0.433   1.865  11.021
 9100W        W80629  18.099  16.333   3.293
 9101W        W80630   7.731  30.723  11.600
 9102W        W80631  35.037   7.606   3.345
 9103W        W80632  44.759   9.224  11.614
 9104W        W80633  37.334   7.221  11.482
 9105W        W80634  12.710  40.354  14.844
 9106W        W80635  43.999  39.376   4.210
 9107W        W80636   7.981   1.290  11.438
 9108W        W80637  10.831  18.663   0.333
 9109W        W80638  36.027   7.793  11.553
 9110W        W80639  42.055  30.211   0.525
 9111W        W80640  17.042  15.735  12.402
 9112W        W80641  40.833  25.768   3.939
 9113W        W80642  35.026  32.221  11.766
 9114W        W80643  29.795  23.701  14.754
 9115W        W80644  42.498  24.043   2.880
 9116W        W80645   8.959  18.357  14.895
 9117W        W80646   7.125  20.598  11.937
 9118W        W80647  27.871  26.970   3.085
 9119W        W80648   8.828  15.765  10.234
 9120W        W80649   9.092   3.130  12.914
 9121W        W80650  42.967  17.730   1.077
 9122W        W80651  16.492  41.969  12.434
 9123W        W80652  34.575   0.901   3.496
 9124W        W80653   9.560   0.510  13.823
 9125W        W80654  41.326  35.452  14.864
 9126W        W80655   1.964  24.140  12.111
 9127W        W80656  40.061  36.445   3.137
 9128W        W80657  17.393  10.839  12.080
 9129W        W80658  29.054  31.858  14.362
 9130W        W80659  34.862  11.555  11.079
 9131W        W80660  31.026  17.620  10.980
 9132W        W80661  42.748  38.341  13.299
 9133W        W80662   5.254  10.355  10.261
 9134W        W80663  25.149  37.115  13.811
 9135W        W80664  14.745  29.285  11.346
 9136W        W80665  18.424  14.189   2.395
 9137W        W80666   3.737  37.091   1.438
 9138W        W80667  31.278  20.099  11.969
 9139W        W80668  13.351  12.208   0.447
 9140W        W80669  11.746   4.710   0.291
 9141W        W80670  17.230  31.191  14.403
 9142W        W80671  14.896  30.278  13.325
 9143W        W80672  25.530   0.395   0.859
 9144W        W80673  31.892  41.820  13.749
 9145W        W80674  41.031  21.356  11.133
 9146W        W80675  36.487  27.389  12.468
 9147W        W80676  13.603  36.825   4.511
 9148W        W80677   1.263  18.230  12.486
 9149W        W80678  12.170  37.859   0.387
 9150W        W80679  42.241   9.277  14.244
 9151W        W80680  19.634   0.788   4.993
 9152W        W80681   8.308   3.563   3.476
 9153W        W80682  41.291  26.003  12.348
 9154W        W80683  27.092   3.068  12.962
 9155W        W80684  28.208   7.360   3.008
 9156W        W80685  11.775  22.175  13.863
 9157W        W80686  13.513  30.621   2.603
 9158W        W80687  11.586   2.776   0.363
 9159W        W80688  15.512   1.227   1.141
 9160W        W80689  15.681   0.190  12.060
 9161W        W80690  43.954  17.189   3.185
 9162W        W80691  29.537  41.267   3.690
 9163W        W80692  32.993   0.377  13.909
 9164W        W80693  16.425  21.916   5.421
 9165W        W80694  13.520  17.792  10.791
 9166W        W80695  29.700  42.715  11.236
 9167W        W80696  15.197   6.317   0.870
 9168W        W80697  20.539  20.622   2.735
 9169W        W80698  10.471  14.392   1.024
 9170W        W80699  23.444  35.988   2.603
 9171W        W80700  21.611   3.881   3.897
 9172W        W80701  26.995  28.027  12.142
 9173W        W80702  33.330  12.668   1.853
 9174W        W80703   7.875  30.921  14.341
 9175W        W80704   4.262  35.578  13.098
 9176W        W80705  22.111   5.315  11.358
 9177W        W80706  18.342  25.988  14.737
 9178W        W80707   3.287  11.300  12.227
 9179W        W80708   5.967  24.536  13.297
 9180W        W80709  31.151   3.670  13.933
 9181W        W80710  16.620  10.420   5.080
 9182W        W80711  31.759  36.399  12.335
 9183W        W80712  43.686  41.854   4.147
 9184W        W80713   6.059  43.714   0.361
 9185W        W80714  21.651   5.387  10.969
 9186W        W80715  24.352  31.311   1.892
 9187W        W80716  41.935  15.687  10.603
 9188W        W80717  36.788  42.146  11.765
 9189W        W80718  41.495   7.309  14.115
 9190W        W80719  30.989  42.953  13.396
 9191W        W80720  30.488  10.752   0.483
 9192W        W80721  31.669   7.706   1.407
 9193W        W80722  32.618  31.121  10.392
 9194W        W80723  36.494   0.403   0.939
 9195W        W80724  39.074  28.878  11.183
 9196W        W80725  12.887  24.237   2.279
 9197W        W80726  19.381  29.084  11.846
 9198W        W80727  18.636  23.882   1.474
 9199W        W80728  12.325  31.502   2.130
 9200W        W80729  29.883  25.799   0.400
 9201W        W80730  29.685   2.590  13.056
 9202W        W80731   7.765  21.031   2.401
 9203W        W80732  23.325   8.432  14.588
 9204W        W80733  24.729  37.779  11.151
 9205W        W80734   2.001  23.198  10.846
 9206W        W80735  16.895  23.838  14.980
 9207W        W80736   3.783  21.140   2.206
 9208W        W80737  39.687  10.247  10.978
 9209W        W80738  29.638   5.031  11.907
 9210W        W80739   4.806   3.579  13.099
 9211W        W80740  14.180   6.263  12.469
 9212W        W80741  26.633  24.235   2.924
 9213W        W80742  15.102  14.261  13.434
 9214W        W80743  34.494  42.038  13.132
 9215W        W80744   6.262   7.714  14.854
 9216W        W80745  40.051  17.357  11.725
 9217W        W80746  16.121   1.826   0.892
 9218W        W80747   5.671   9.337   1.989
 9219W        W80748  10.001   2.175   3.470
 9220W        W80749   1.065   0.867  11.580
 9221W        W80750  12.763  23.779  12.524
 9222W        W80751  22.010   3.356   0.191
 9223W        W80752  24.875  36.430   2.860
 9224W        W80753   3.995  39.447  11.523
 9225W        W80754  33.647  36.872   1.410
 9226W        W80755  24.207  21.691  13.634
 9227W        W80756  43.542   1.199   3.432
 9228W        W80757  12.896  13.396   4.453
 9229W        W80758  31.529   9.394  10.937
 9230W        W80759  26.624  38.828   3.608
 9231W        W80760  12.535  39.002  12.261
 9232W        W80761  38.846  15.810   2.240
 9233W        W80762  39.288   0.810  14.204
 9234W        W80763  28.919  11.902   3.332
 9235W        W80764  10.566  14.584  14.353
 9236W        W80765  19.151  20.680  11.486
 9237W        W80766   5.965   1.640  13.579
 9238W        W80767  17.560  22.749   0.307
 9239W        W80768  19.071  44.745  12.155
 9240W        W80769  12.163  24.436  12.428
 9241W        W80770  26.565  15.545  13.033
 9242W        W80771  25.528  15.298   0.429
 9243W        W80772  30.052  44.301  12.763
 9244W        W80773   7.262  16.831   0.524
 9245W        W80774  28.929   5.795   1.327
 9246W        W80775  23.604  38.632  10.558
 9247W        W80776  42.960  37.544   1.830
 9248W        W80777  11.605  24.997  12.099
 9249W        W80778   8.858   0.979   3.117
 9250W        W80779  13.805  21.375   3.657
 9251W        W80780  25.223  11.235  14.300
 9252W        W80781   9.645  40.219  11.085
 9253W        W80782  23.919  23.513   0.400
 9254W        W80783  19.659   5.982   4.530
 9255W        W80784  35.668   4.941  14.925
 9256W        W80785  35.176  44.428   4.142
 9257W        W80786  36.366   7.365  14.280
 9258W        W80787  19.291  37.742   4.569
 9259W        W80788   7.876   3.122  10.711
 9260W        W80789  33.083   5.911   1.956
 9261W        W80790   7.905  24.087  13.554
 9262W        W80791   8.159   2.611   3.313
 9263W        W80792  12.902  32.324  11.473
 9264W        W80793  15.648  34.835  14.949
 9265W        W80794   9.414  35.545   2.005
 9266W        W80795  13.022  15.737  13.102
 9267W        W80796  26.912  27.495   1.828
 9268W        W80797  27.512   8.898   4.965
 9269W        W80798  33.353   9.281  13.761
 9270W        W80799  28.055   6.275  10.580
 9271W        W80800  17.722  26.289   4.085
 9272W        W80801   7.313  24.115  11.054
 9273W        W80802  38.030  14.636  13.466
 9274W        W80803   5.813   3.995   0.475
 9275W        W80804  41.772  34.990   0.303
 9276W        W80805  31.782   4.655  14.838
 9277W        W80806  44.880  36.170  11.658
 9278W        W80807  16.208   0.811  11.532
 9279W        W80808  25.856   9.432  12.531
 9280W        W80809  30.901  33.884   2.197
 9281W        W80810  21.815  24.608  11.586
 9282W        W80811  39.829  23.217  13.034
 9283W        W80812  14.375   0.769  14.446
 9284W        W80813  37.024  30.943   1.455
 9285W        W80814  19.768  19.060  14.412
 9286W        W80815  19.654  10.149   2.349
 9287W        W80816  30.914   8.343   0.529
 9288W        W80817  41.574  39.113  13.052
 9289W        W80818  20.192  35.678  12.297
 9290W        W80819  19.396   4.170   1.878
 9291W        W80820   7.959   1.432  10.408
 9292W        W80821  14.238  29.292   1.345
 9293W        W80822  44.741  40.232   1.720
 9294W        W80823  20.813   6.177   0.487
 9295W        W80824  24.987  20.714   0.713
 9296W        W80825  29.668  22.166   3.563
 9297W        W80826   9.501   7.692   4.542
 9298W        W80827  26.633  23.154   3.741
 9299W        W80828  18.133  27.617  14.211
 9300W        W80829  10.907  29.117   4.469
 9301W        W80830  27.582   3.418   4.333
 9302W        W80831  38.438  18.878  14.923
 9303W        W80832  13.098  40.263  13.352
 9304W        W80833  13.388   3.930  12.598
 9305W        W80834  17.497  33.857   2.901
 9306W        W80835  28.098  40.311   3.182
 9307W        W80836   3.314  15.743   1.486
 9308W        W80837  15.561   0.795  10.400
 9309W        W80838   1.229   2.729   0.236
 9310W        W80839  32.830   5.323   4.515
 9311W        W80840  41.633  22.606   0.790
 9312W        W80841  28.038  30.393   0.904
 9313W        W80842   2.988  11.502   0.893
 9314W        W80843  14.017  39.515  12.082
 9315W        W80844  21.986  16.532  12.090
 9316W        W80845  30.315  18.521  12.565
 9317W        W80846   0.958  24.717   2.791
 9318W        W80847  44.496  23.101   0.808
 9319W        W80848  18.239  14.264   4.317
 9320W        W80849  37.436  31.370  11.530
 9321W        W80850  26.597  17.322   0.963
 9322W        W80851  14.794  41.994   1.703
 9323W        W80852  43.965  18.147  12.635
 9324W        W80853  20.823  37.939   5.018
 9325W        W80854  13.303  10.162  10.698
 9326W        W80855  11.858   0.854  14.874
 9327W        W80856  38.984  26.103   4.561
 9328W        W80857  18.505   6.413   4.502
 9329W        W80858  18.312  41.022  11.573
 9330W        W80859  37.538  24.221   3.677
 9331W        W80860  39.783   4.312   2.826
 9332W        W80861  33.028  32.896  14.368
 9333W        W80862  24.499  39.991  14.532
 9334W        W80863  21.413  36.847   3.705
 9335W        W80864  31.858  19.531   0.478
 9336W        W80865  13.962  14.819  13.277
 9337W        W80866  34.596  39.978   3.601
 9338W        W80867  44.756  35.009   2.881
 9339W        W80868  37.556   2.895  13.984
 9340W        W80869  42.299  12.352   2.417
 9341W        W80870  12.480  13.602   3.594
 9342W        W80871  10.838  19.824   3.674
 9343W        W80872   8.868  44.453  11.611
 9344W        W80873  24.544  36.863   2.121
 9345W        W80874  22.769  20.588   2.812
 9346W        W80875   1.395  13.663   2.234
 9347W        W80876  18.280   0.848  11.994
 9348W        W80877  24.374  43.330   2.598
 9349W        W80878  36.285   3.121   4.538
 9350W        W80879  18.791  26.107   0.100
 9351W        W80880  32.511  17.087   4.888
 9352W        W80881   5.123  27.489  13.874
 9353W        W80882  23.520  16.319  14.389
 9354W        W80883   0.860   3.733   2.246
 9355W        W80884  11.112  21.566  12.530
 9356W        W80885   3.744  15.155   0.779
 9357W        W80886  33.259  14.259  11.289
 9358W        W80887  10.842  13.838   2.424
 9359W        W80888  19.608  30.934   3.092
 9360W        W80889  23.105  24.062  12.443
 9361W        W80890  23.111  12.230   0.008
 9362W        W80891  10.596   5.374  12.981
 9363W        W80892  25.948  42.399   1.119
 9364W        W80893  19.498  32.126  11.988
 9365W        W80894   7.931   9.779  10.624
 9366W        W80895  26.529  39.806  11.774
 9367W        W80896  34.310  39.396  14.813
 9368W        W80897  17.123  32.789  12.103
 9369W        W80898  13.091  30.676  14.524
 9370W        W80899  38.060  34.786   4.004
 9371W        W80900   5.808   6.683   4.214
 9372W        W80901   6.424  13.629  12.566
 9373W        W80902  10.333   2.683  13.343
 9374W        W80903  38.189  23.969  13.954
 9375W        W80904   5.550  14.256   0.423
 9376W        W80905  25.447  24.651   0.420
 9377W        W80906  23.777  30.423   0.031
 9378W        W80907  11.094  25.126  13.000
 9379W        W80908  19.218  15.311   1.486
 9380W        W80909  44.994  10.445   3.390
 9381W        W80910  34.870   3.427  12.499
 9382W        W80911  11.863  40.691   5.109
 9383W        W80912   7.905  16.764  14.947
 9384W        W80913  42.093  16.551  11.183
 9385W        W80914  39.029  14.009   2.803
 9386W        W80915  33.554  31.460  14.257
 9387W        W80916  14.983  15.367  14.360
 9388W        W80917  41.608  11.291  11.073
 9389W        W80918  38.073  42.935   0.818
 9390W        W80919  21.795  24.938   0.347
 9391W        W80920  35.502   4.685  13.051
 9392W        W80921  18.997  13.282  13.385
 9393W        W80922  34.021   1.882   1.802
 9394W        W80923  14.828  36.543  13.085
 9395W        W80924   9.438  29.204  11.979
 9396W        W80925  31.406  24.430  11.140
 9397W        W80926  39.315   3.335  10.944
 9398W        W80927  31.592  18.303  10.464
 9399W        W80928   6.428  17.575  14.784
 9400W        W80929   0.832  30.776  13.631
 9401W        W80930  24.497  31.432  10.712
 9402W        W80931  17.201  35.471  13.592
 9403W        W80932   3.386  44.933   2.276
 9404W        W80933  21.674  42.450   0.527
 9405W        W80934  19.446  13.163   3.228
 9406W        W80935  28.553  34.835   4.709
 9407W        W80936  24.411   8.450   1.482
 9408W        W80937  18.785  33.528   2.400
 9409W        W80938   9.913   1.788   0.661
 9410W        W80939  36.379  18.040  14.905
 9411W        W80940  28.033   0.754  13.801
 9412W        W80941  25.932  21.114  13.500
 9413W        W80942   8.946  35.769   2.043
 9414W        W80943  32.420  10.448   2.320
 9415W        W80944   9.580   2.396  12.135
 9416W        W80945  21.557   3.036  13.091
 9417W        W80946  43.958  40.944   1.961
 9418W        W80947  18.525  33.561  10.610
 9419W        W80948   0.807  23.649   3.664
 9420W        W80949  31.574  34.301   3.224
 9421W        W80950  38.138  13.763  11.577
 9422W        W80951   0.994   7.370  14.565
 9423W        W80952  12.894  15.783  12.326
 9424W        W80953   8.400  36.501   2.613
 9425W        W80954  19.188   4.559   3.256
 9426W        W80955   4.887  28.219  11.990
 9427W        W80956   8.895  22.539   1.993
 9428W        W80957  40.012  21.306   0.778
 9429W        W80958  17.202   2.509  12.439
 9430W        W80959  22.202  16.532  13.387
 9431W        W80960  20.609  19.573  14.261
 9432W        W80961  40.887  37.259  10.959
 9433W        W80962   0.300  20.612   2.688
 9434W        W80963  26.249   1.201  13.919
 9435W        W80964  39.077  34.512  10.513
 9436W        W80965   5.534  36.249   3.669
 9437W        W80966  16.531  21.443  14.678
 9438W        W80967   0.164   8.010   0.924
 9439W        W80968  36.995  26.940  14.848
 9440W        W80969   9.128  15.461  13.498
 9441W        W80970  38.473  22.671   3.761
 9442W        W80971  31.624   3.663   4.867
 9443W        W80972   0.891  40.022   4.772
 9444W        W80973  15.860  36.578  14.922
 9445W        W80974  21.330   2.314  13.306
 9446W        W80975   9.664  37.166   0.035
 9447W        W80976  34.419  39.562  12.555
 9448W        W80977   0.452  27.555   2.753
 9449W        W80978  40.312  15.597   3.516
 9450W        W80979  40.022  28.603   4.807
 9451W        W80980  14.051  19.785   3.664
 9452W        W80981  39.537  40.900  13.030
 9453W        W80982  43.347  39.507  11.492
 9454W        W80983  24.927  38.527  13.773
 9455W        W80984   4.446   7.391  13.897
 9456W        W80985   2.294  43.719  12.043
 9457W        W80986  40.896  27.152   4.490
 9458W        W80987  38.109  38.418   3.014
 9459W        W80988  13.144  20.140   2.809
 9460W        W80989  13.321  25.546  12.808
 9461W        W80990   2.705  35.932   3.771
 9462W        W80991  15.289  33.620   3.163
 9463W        W80992  44.471  17.218   3.167
 9464W        W80993  17.094  34.884  11.486
 9465W        W80994  12.162  39.273   0.275
 9466W        W80995  44.522  25.025   4.270
 9467W        W80996  41.006  40.553   2.367
 9468W        W80997  10.719  11.866  11.445
 9469W        W80998   7.310  16.987  12.019
 9470W        W80999  22.887  27.234   3.412
 9471W        W81000   7.252  13.340   5.098
 9472W        W81001  29.217  25.201   1.119
 9473W        W81002  28.835   2.520  12.842
 9474W        W81003  22.784  18.305   4.101
 9475W        W81004  14.855  15.967   0.820
 9476W        W81005  10.071   9.425  12.012
 9477W        W81006  42.494   4.346   1.355
 9478W        W81007  43.596   9.644   2.196
 9479W        W81008  28.839  44.308  12.187
 9480W        W81009  36.005  36.939  11.646
 9481W        W81010  42.243  14.453  11.249
 9482W        W81011  37.101  33.590  11.962
 9483W        W81012  29.457  26.365   4.498
 9484W        W81013  40.787  40.556  12.428
 9485W        W81014  28.009  11.601   0.804
 9486W        W81015  18.627  36.469   4.097
 9487W        W81016   1.801   8.033  12.957
 9488W        W81017  17.667  44.375  14.347
 9489W        W81018  21.875  42.909  14.291
 9490W        W81019   3.657  15.289  10.440
 9491W        W81020  28.526   4.471   1.341
 9492W        W81021   9.646  36.529  11.173
 9493W        W81022  26.338   5.143   3.597
 9494W        W81023   7.232  15.149  11.141
 9495W        W81024   6.391   5.933  11.850
 9496W        W81025  33.903  11.121   0.108
 9497W        W81026  16.321  31.837   2.544
 9498W        W81027  38.009  44.195  13.422
 9499W        W81028  44.212  20.435   0.870
 9500W        W81029   5.231  41.710   2.403
 9501W        W81030  16.249   3.673  11.203
 9502W        W81031  10.923   2.503  14.809
 9503W        W81032  13.067  29.441  11.646
 9504W        W81033  32.111   4.660  12.925
 9505W        W81034  15.701  27.668  10.695
 9506W        W81035  41.051  20.951   0.917
 9507W        W81036  32.108  33.448   0.261
 9508W        W81037  20.528  33.407  11.850
 9509W        W81038  31.855  16.333  11.629
 9510W        W81039  20.540   1.865  13.396
 9511W        W81040  27.617  36.985   2.687
 9512W        W81041  33.527   6.944   0.411
 9513W        W81042  39.706   7.648  14.521
 9514W        W81043  30.115  27.944  10.690
 9515W        W81044  38.087  30.902  13.638
 9516W        W81045  31.845  18.558  14.342
 9517W        W81046  37.150   0.431   0.305
 9518W        W81047   4.885  20.203  12.010
 9519W        W81048  12.656  41.283   4.160
 9520W        W81049  24.870  42.289   0.260
 9521W        W81050  35.453  40.082   3.243
 9522W        W81051  18.335  11.056   0.891
 9523W        W81052  13.342  14.759   0.868
 9524W        W81053  14.572  28.595  12.004
 9525W        W81054  41.274   3.737  14.590
 9526W        W81055   6.987  26.658   4.475
 9527W        W81056  33.961  20.142   4.885
 9528W        W81057  37.172  34.993   0.892
 9529W        W81058  29.045  11.283   0.281
 9530W        W81059  36.856   1.506  11.116
 9531W        W81060   0.794  41.862   1.156
 9532W        W81061   3.293  10.044  13.791
 9533W        W81062   1.899  40.108   2.718
 9534W        W81063  27.648  11.229   2.192
 9535W        W81064  42.271  34.116   0.195
 9536W        W81065  24.030  16.780   1.198
 9537W        W81066  11.404   0.769   3.565
 9538W        W81067  33.911  40.582   3.162
 9539W        W81068  43.112   1.530   2.203
 9540W        W81069  40.378  33.400   0.272
 9541W        W81070  15.712  30.406  11.131
 9542W        W81071  29.652   7.402  13.826
 9543W        W81072  12.249  22.567  11.930
 9544W        W81073  12.400  21.057  10.651
 9545W        W81074  37.133  38.325  11.013
 9546W        W81075   4.920  12.398   0.996
 9547W        W81076  42.545  34.534   2.334
 9548W        W81077  14.933  34.574   2.372
 9549W        W81078   8.236  19.030  13.089
 9550W        W81079  36.780  27.929   2.620
 9551W        W81080  17.338   6.870   3.635
 9552W        W81081   6.110  22.758  14.018
 9553W        W81082   4.195  44.670   3.225
 9554W        W81083   5.238   6.527   0.009
 9555W        W81084  26.369  19.744  12.584
 9556W        W81085  37.052  35.327  14.226
 9557W        W81086  18.484  31.998  10.355
 9558W        W81087  27.576   4.693  14.928
 9559W        W81088  13.878  27.055  14.353
 9560W        W81089  36.401  42.638  14.303
 9561W        W81090  41.921  10.688   3.133
 9562W        W81091  41.910   6.842   5.064
 9563W        W81092  43.471  35.531  13.032
 9564W        W81093  38.271   2.656  12.400
 9565W        W81094  29.058  19.424   2.811
 9566W        W81095  19.955  20.136   1.891
 9567W        W81096  31.553  19.719  13.071
 9568W        W81097  27.602   3.752   2.978
 9569W        W81098  37.669   4.429  12.675
 9570W        W81099  21.462   1.808  12.111
 9571W        W81100   6.496  18.849  10.877
 9572W        W81101  32.549  20.939   3.950
 9573W        W81102  16.248  24.108  10.490
 9574W        W81103  29.522  16.449   0.551
 9575W        W81104  18.530   2.344   2.680
 9576W        W81105  18.363   0.196   1.142
 9577W        W81106  22.182   5.664   1.907
 9578W        W81107  20.807  15.497   2.171
 9579W        W81108  33.029  15.885  14.470
 9580W        W81109  11.088  37.538   2.216
 9581W        W81110  35.066  19.939   4.966
 9582W        W81111  27.041  43.845  11.007
 9583W        W81112  32.198  17.244   1.676
 9584W        W81113  36.216  21.056   0.489
 9585W        W81114   5.284  13.102   0.424
 9586W        W81115  27.974   9.156   4.899
 9587W        W81116   9.355  12.075  13.037
 9588W        W81117  38.238   0.770   2.771
 9589W        W81118  43.866  27.444   3.148
 9590W        W81119   0.925  12.770  14.885
 9591W        W81120  11.314  21.794   0.484
 9592W        W81121  44.051  19.240  13.455
 9593W        W81122   3.881   2.416  11.866
 9594W        W81123  13.613   7.299  13.080
 9595W        W81124  30.121  37.970   4.175
 9596W        W81125  14.378   2.620  13.027
 9597W        W81126  19.545  31.641   1.773
 9598W        W81127   1.953   6.792   4.438
 9599W        W81128   1.404   5.180  14.950
 9600W        W81129  10.966   3.872  11.657
 9601W        W81130   8.753  13.109  11.073
 9602W        W81131  44.071  36.001   0.723
 9603W        W81132  30.222   9.773  13.478
 9604W        W81133  19.600  29.399   2.808
 9605W        W81134  19.281  16.891  12.394
 9606W        W81135  41.929  32.892  11.540
 9607W        W81136  37.642   5.211  14.360
 9608W        W81137  32.661  23.534   1.790
 9609W        W81138  32.976  20.738   0.663
 9610W        W81139  14.849  17.788  12.560
 9611W        W81140  11.576  21.930   2.776
 9612W        W81141  33.444  29.496  14.479
 9613W        W81142   6.656  11.887  11.747
 9614W        W81143   2.593   6.767  11.994
 9615W        W81144  38.082  29.950  12.554
 9616W        W81145   6.706   6.764  13.537
 9617W        W81146  44.515  39.386   4.309
 9618W        W81147  20.140  31.057   1.982
 9619W        W81148   2.530  33.443  13.052
 9620W        W81149  39.803  26.513   1.992
 9621W        W81150  16.603  13.098   0.916
 9622W        W81151  34.925  36.504  12.903
 9623W        W81152  29.654  40.562   2.272
 9624W        W81153  10.021  12.648  13.263
 9625W        W81154  43.492  41.999  14.411
 9626W        W81155   2.590  39.991  13.895
 9627W        W81156   9.767  30.227  13.421
 9628W        W81157   8.853  41.220   3.427
 9629W        W81158  27.717   0.350   1.411
 9630W        W81159  29.007  42.884  14.394
 9631W        W81160   3.721  28.262  11.479
 9632W        W81161  29.751   2.705  13.934
 9633W        W81162  43.841  34.786   3.329
 9634W        W81163  31.392  16.725  10.504
 9635W        W81164   0.231   4.920  14.391
 9636W        W81165  41.179  38.628   4.311
 9637W        W81166   9.812  41.392   2.458
 9638W        W81167  40.293  31.886   1.611
 9639W        W81168   7.887  44.743  11.400
 9640W        W81169   7.425  13.291  13.072
 9641W        W81170   7.274  14.602   0.856
 9642W        W81171  33.979  35.769  10.614
 9643W        W81172  10.198  17.863  14.492
 9644W        W81173  12.580   9.119   3.257
 9645W        W81174   1.301  36.104   4.907
 9646W        W81175  25.216  30.578   3.720
 9647W        W81176  21.231  35.138   4.501
 9648W        W81177  31.987  34.608   1.136
 9649W        W81178  29.617  18.389   4.073
 9650W        W81179  23.231  25.594  11.934
 9651W        W81180  13.103   7.721  10.718
 9652W        W81181   0.832  37.722   3.695
 9653W        W81182   3.763   5.589  12.635
 9654W        W81183   1.412   6.966   2.363
 9655W        W81184  41.741   0.912  14.936
 9656W        W81185  15.966   8.283   0.776
 9657W        W81186  34.424  36.373  12.988
 9658W        W81187  17.238  39.034   1.454
 9659W        W81188  26.726   0.856   3.263
 9660W        W81189  12.901  38.576   2.804
 9661W        W81190  35.285  13.729   3.703
 9662W        W81191  29.164  39.249  10.731
 9663W        W81192  12.225  34.432  11.512
 9664W        W81193  43.383  23.750  11.656
 9665W        W81194  17.486  11.779  13.514
 9666W        W81195  10.907  36.544  11.611
 9667W        W81196  17.151  34.484  13.516
 9668W        W81197  30.136  11.055  12.040
 9669W        W81198  12.145  12.162   2.431
 9670W        W81199  36.376  42.400  12.983
 9671W        W81200  29.305  28.143  13.755
 9672W        W81201  11.048  33.473   3.395
 9673W        W81202  28.056  19.002  12.544
 9674W        W81203  15.252  39.513  12.272
 9675W        W81204  26.834  29.149   0.870
 9676W        W81205   6.210   2.631  12.448
 9677W        W81206  15.922  37.561  10.682
 9678W        W81207  19.867  14.167  12.954
 9679W        W81208   1.727  13.162  12.406
 9680W        W81209   7.342  28.198   4.500
 9681W        W81210   4.422  28.206   3.137
 9682W        W81211  16.791  37.647   1.270
 9683W        W81212   3.759  23.571   4.627
 9684W        W81213   2.601  41.303   4.949
 9685W        W81214  38.109  39.449   2.795
 9686W        W81215  20.582  13.384   1.257
 9687W        W81216  26.150   7.567   0.444
 9688W        W81217  26.000  14.171   3.896
 9689W        W81218  39.964  16.645   4.151
 9690W        W81219  37.910   3.275   5.099
 9691W        W81220  29.403  44.212   9.987
 9692W        W81221  31.470  19.453  14.755
 9693W        W81222   0.837  39.079   3.807
 9694W        W81223  14.102  43.746   2.401
 9695W        W81224  41.940  15.233  12.893
 9696W        W81225   7.998  27.174   3.627
 9697W        W81226  11.460  24.243   3.235
 9698W        W81227  14.652  34.963  11.638
 9699W        W81228  17.328  19.116  12.370
 9700W        W81229  44.491   0.762  13.042
 9701W        W81230   8.848   9.186   3.815
 9702W        W81231  24.957   6.878   2.313
 9703W        W81232  15.539   1.788   2.374
 9704W        W81233  16.588  29.471  11.991
 9705W        W81234  37.957   8.643   3.243
 9706W        W81235  35.922  11.174   4.698
 9707W        W81236  18.658  41.308  11.877
 9708W        W81237  14.800  13.613  14.970
 9709W        W81238   7.315  28.465   0.837
 9710W        W81239   0.212  31.342   4.341
 9711W        W81240  10.312  42.562   4.509
 9712W        W81241  31.396   8.192  13.529
 9713W        W81242  24.243  30.573  12.993
 9714W        W81243   8.007  23.612   0.583
 9715W        W81244  39.952  33.842   4.685
 9716W        W81245  35.324  18.278   2.229
 9717W        W81246  31.607  42.219   2.131
 9718W        W81247  43.507  17.342   4.138
 9719W        W81248  21.258  32.810   3.679
 9720W        W81249   1.442  39.656   4.264
 9721W        W81250  42.074  42.305  12.745
 9722W        W81251  44.430  38.452   1.078
 9723W        W81252  25.748  18.044  11.197
 9724W        W81253   7.865  40.091  11.522
 9725W        W81254  29.085  19.014  14.091
 9726W        W81255  11.342  30.581   1.592
 9727W        W81256  27.742  18.052  11.701
 9728W        W81257   5.747  23.951   4.636
 9729W        W81258  27.739  41.609  14.325
 9730W        W81259  31.907   4.681  10.963
 9731W        W81260  26.923  17.309   3.634
 9732W        W81261  11.699  23.278  10.726
 9733W        W81262  28.979  13.772   2.650
 9734W        W81263  23.769  11.213  13.733
 9735W        W81264  17.613   8.859  13.990
 9736W        W81265  13.450   6.208   1.836
 9737W        W81266  30.365  34.426  13.866
 9738W        W81267  31.965  36.894  10.679
 9739W        W81268  35.646  14.813   3.676
 9740W        W81269  11.930  27.891  11.532
 9741W        W81270  11.192  36.751   2.697
 9742W        W81271  11.995  30.653  12.142
 9743W        W81272  19.680  35.048  11.897
 9744W        W81273   0.989  22.251   2.803
 9745W        W81274  23.590  40.349  14.241
 9746W        W81275  39.846  22.203  12.007
 9747W        W81276  17.172  43.768   2.508
 9748W        W81277  30.751   0.796  14.362
 9749W        W81278  20.022   9.333   2.163
 9750W        W81279  25.191  32.989  10.649
 9751W        W81280  18.897   7.178   4.324
 9752W        W81281  27.512  30.093   3.146
 9753W        W81282   5.648  10.638  13.513
 9754W        W81283  23.574   4.615   1.935
 9755W        W81284  28.538  42.944   0.151
 9756W        W81285   6.463   3.284   3.705
 9757W        W81286  33.679  24.935  14.519
 9758W        W81287  17.934  33.113  13.069
 9759W        W81288  36.029  15.554   1.533
 9760W        W81289  22.792  40.746   5.390
 9761W        W81290  21.028  17.096  12.418
 9762W        W81291  34.990  13.623  13.875
 9763W        W81292  23.050  34.094   4.315
 9764W        W81293  39.624  11.399  13.497
 9765W        W81294  24.650  30.568  10.529
 9766W        W81295  13.149  31.877  11.559
 9767W        W81296  26.168  38.615   0.451
 9768W        W81297   8.546  37.416  12.598
 9769W        W81298   5.835  31.357  13.881
 9770W        W81299  19.178  27.894  14.349
 9771W        W81300   7.183  22.789  14.455
 9772W        W81301  31.832  35.564  11.085
 9773W        W81302   5.914   4.283  13.415
 9774W        W81303  10.656  44.419   4.466
 9775W        W81304   0.015  39.101  11.630
 9776W        W81305  10.780  12.400  14.528
 9777W        W81306  20.663  27.044  12.671
 9778W        W81307  13.647  36.033   1.800
 9779W        W81308   3.933  17.094  11.001
 9780W        W81309   6.841  36.969  13.170
 9781W        W81310  19.283  27.561  10.790
 9782W        W81311  38.313  21.539  11.548
 9783W        W81312  25.661  21.018   3.758
 9784W        W81313   3.451   5.204   1.713
 9785W        W81314   6.295  40.601   4.103
 9786W        W81315  11.019  40.884  14.544
 9787W        W81316   5.439  20.589   4.814
 9788W        W81317  29.945   1.001  10.762
 9789W        W81318  27.114  27.342  10.836
 9790W        W81319  28.126  42.338  14.782
 9791W        W81320  23.394  31.920   3.160
 9792W        W81321  27.096  42.371  10.913
 9793W        W81322  34.359  14.440   3.529
 9794W        W81323  25.226  19.829  11.272
 9795W        W81324   1.494  42.975   1.650
 9796W        W81325  29.532  44.053  11.083
 9797W        W81326  25.612  24.571  14.940
 9798W        W81327  21.550  40.400  11.122
 9799W        W81328   5.594   0.574   1.539
 9800W        W81329   4.291  31.953  14.411
 9801W        W81330  32.407  20.818   0.101
 9802W        W81331  18.523   6.202   2.089
 9803W        W81332   8.789  29.692   2.589
 9804W        W81333  27.523  43.385   3.891
 9805W        W81334  37.982  26.716   1.151
 9806W        W81335  34.456  26.989  12.030
 9807W        W81336  34.390  23.497   3.912
 9808W        W81337  22.108  34.252  12.090
 9809W        W81338   7.255  22.666   2.551
 9810W        W81339   1.770  13.262   1.629
 9811W        W81340  39.350  15.625  14.904
 9812W        W81341   7.656  16.929  12.403
 9813W        W81342  18.804   4.584   0.898
 9814W        W81343   0.448   1.516  14.982
 9815W        W81344  37.796  44.984  14.873
 9816W        W81345   3.333  19.601  10.713
 9817W        W81346  44.962  12.613  12.855
 9818W        W81347  23.229   8.579  13.328
 9819W        W81348  37.346  12.573  10.577
 9820W        W81349   4.712  41.247   2.721
 9821W        W81350   2.226  27.617   3.732
 9822W        W81351  17.826  27.578   4.051
 9823W        W81352  25.702  31.809  11.017
 9824W        W81353  40.523  23.577  12.165
 9825W        W81354  25.754  44.376   2.464
 9826W        W81355  38.506   3.303   2.189
 9827W        W81356  12.140  26.469   0.990
 9828W        W81357   0.696   7.927   0.915
 9829W        W81358  40.346  33.382   2.090
 9830W        W81359  20.687  22.743  11.111
 9831W        W81360   3.469   7.348   1.710
 9832W        W81361  41.987  33.024  10.650
 9833W        W81362   3.910  11.176  13.919
 9834W        W81363  36.803   1.832   1.279
 9835W        W81364  26.401  19.513   4.646
 9836W        W81365  32.601  24.322  11.512
 9837W        W81366  13.192  33.629  10.422
 9838W        W81367  11.821  17.159  12.053
 9839W        W81368  39.463  28.893   1.772
 9840W        W81369  19.806   0.770  13.410
 9841W        W81370  40.407  42.889   2.117
 9842W        W81371  23.066  20.911   3.256
 9843W        W81372  30.988  23.603   2.712
 9844W        W81373  15.224  18.161   4.857
 9845W        W81374  39.836  38.612   4.577
 9846W        W81375   4.054  14.332  14.475
 9847W        W81376  36.806  26.542   0.919
 9848W        W81377   3.891  13.828   2.847
 9849W        W81378   4.972  27.587  13.141
 9850W        W81379  44.598   6.652   3.645
 9851W        W81380  28.659   1.966   0.601
 9852W        W81381  25.032  26.147   3.722
 9853W        W81382  29.917  16.147   0.420
 9854W        W81383   2.386  39.940  12.146
 9855W        W81384  17.172  27.010   1.791
 9856W        W81385   7.771  41.603   0.178
 9857W        W81386  31.149  31.831   3.204
 9858W        W81387  13.610  30.606   0.391
 9859W        W81388   9.251  17.041   0.108
 9860W        W81389   7.086   9.937   2.123
 9861W        W81390  11.421  36.504  11.583
 9862W        W81391  35.603  30.495  11.106
 9863W        W81392  20.670  17.096   2.125
 9864W        W81393  21.712  18.829   0.045
 9865W        W81394  39.324  10.125   1.752
 9866W        W81395   8.901  12.143   2.610
 9867W        W81396  32.506   9.102   3.230
 9868W        W81397  17.259   0.370  10.709
 9869W        W81398  15.341  18.679  11.041
 9870W        W81399  29.619  29.973   2.751
 9871W        W81400  30.459  27.483  14.999
 9872W        W81401  29.127  43.202   3.809
 9873W        W81402   8.442  44.322   2.474
 9874W        W81403   8.707  42.907   0.335
 9875W        W81404   8.699   9.480  12.210
 9876W        W81405   2.758  44.477   4.328
 9877W        W81406  21.599   1.351  11.405
 9878W        W81407  26.622  24.551   2.455
 9879W        W81408  36.075   6.199   0.362
 9880W        W81409  28.061  15.152   1.736
 9881W        W81410  32.096   7.637   5.115
 9882W        W81411  25.489  15.271  11.031
 9883W        W81412  18.608   8.809  14.981
 9884W        W81413   0.718  40.069  11.530
 9885W        W81414   7.906  36.765   4.190
 9886W        W81415   6.552  15.558   5.000
 9887W        W81416  42.826   7.432  11.941
 9888W        W81417  24.534  23.436  11.550
 9889W        W81418  33.123   3.913  12.621
 9890W        W81419  33.123  21.609  11.089
 9891W        W81420  28.090  37.335   0.452
 9892W        W81421  19.810  37.161  13.889
 9893W        W81422  19.357  22.218   4.250
 9894W        W81423  38.375  30.910  14.904
 9895W        W81424   4.140  27.929  11.400
 9896W        W81425  11.540  17.757   3.175
 9897W        W81426  27.322  19.711   2.210
 9898W        W81427  25.043  31.633  13.361
 9899W        W81428  31.902  44.169  12.630
 9900W        W81429   5.191   3.213  12.680
 9901W        W81430   5.214  22.115   4.113
 9902W        W81431  18.838  18.498  13.542
 9903W        W81432  10.160  12.768  13.762
 9904W        W81433  17.852  21.797   2.213
 9905W        W81434  22.217  23.243  14.982
 9906W        W81435   1.482  16.791  11.718
 9907W        W81436   9.238   1.364   0.414
 9908W        W81437  20.288  22.978   3.392
 9909W        W81438  42.180  31.882  14.367
 9910W        W81439  23.651  23.339  12.385
 9911W        W81440   5.324  25.622  12.949
 9912W        W81441  37.009   4.709   1.383
 9913W        W81442  36.700  21.448  13.411
 9914W        W81443  24.969  11.159   0.226
 9915W        W81444  38.376  27.932  13.568
 9916W        W81445   3.383   8.551   2.867
 9917W        W81446  34.013  15.613   2.241
 9918W        W81447  11.581  29.395   3.222
 9919W        W81448  11.288  10.625   2.609
 9920W        W81449  34.534  42.438   4.664
 9921W        W81450  42.937  23.558  11.826
 9922W        W81451   7.186   8.871  14.524
 9923W        W81452  29.086  40.327  14.020
 9924W        W81453  19.090   1.312   3.638
 9925W        W81454  34.981  17.100   0.221
 9926W        W81455  39.126  43.895   2.446
 9927W        W81456   3.309   5.281  14.515
 9928W        W81457  43.481  27.227  10.743
 9929W        W81458  18.128   1.539  14.611
 9930W        W81459  32.028   4.986  10.578
 9931W        W81460  16.172  37.525  13.442
 9932W        W81461  32.425  11.310   0.221
 9933W        W81462  36.837  44.952  10.937
 9934W        W81463  29.704   1.501  13.077
 9935W        W81464  12.434  41.691   2.313
 9936W        W81465   6.197  15.855  12.430
 9937W        W81466   9.425  36.534   2.827
 9938W        W81467  42.949  22.250   1.418
 9939W        W81468  30.139  12.789  11.139
 9940W        W81469   2.536  30.037  13.888
 9941W        W81470  34.609  42.881   0.864
 9942W        W81471   0.452  31.933  13.788
 9943W        W81472  24.090  36.643   4.281
 9944W        W81473  37.463  20.944   3.347
 9945W        W81474  20.657  33.705  13.977
 9946W        W81475  26.598  26.630  14.890
 9947W        W81476   2.632  10.796   4.158
 9948W        W81477  15.447  16.817  14.821
 9949W        W81478  27.518  25.916  11.559
 9950W        W81479  25.494  14.432   2.696
 9951W        W81480  34.180   5.870  11.118
 9952W        W81481   1.857  40.821   3.397
 9953W        W81482  17.533  27.609  12.990
 9954W        W81483  37.355  25.335  11.553
 9955W        W81484  31.209  11.305   1.142
 9956W        W81485  35.614  28.789   2.871
 9957W        W81486  20.047  38.303  14.014
 9958W        W81487   9.859  44.380   2.807
 9959W        W81488  41.873   3.377   4.812
 9960W        W81489  40.182  31.343   0.731
 9961W        W81490   1.734   8.377   3.769
 9962W        W81491   6.931  17.105  10.383
 9963W        W81492  21.034  33.641   3.297
 9964W        W81493  11.898  30.643  11.309
 9965W        W81494  31.403  33.561   0.460
 9966W        W81495  26.507  43.516   0.405
 9967W        W81496  10.454  24.088   2.220
 9968W        W81497  13.212  26.603  14.756
 9969W        W81498   3.422  44.247   2.606
 9970W        W81499  15.782  37.493   3.191
 9971W        W81500  25.609   4.893  10.751
 9972W        W81501  28.558  31.448  10.698
 9973W        W81502  41.801   6.098   2.324
 9974W        W81503  36.124  13.958  12.980
 9975W        W81504  13.004  13.789   3.447
 9976W        W81505   9.162  40.375   4.046
 9977W        W81506  15.110  16.643   3.327
 9978W        W81507   0.996  35.050   1.131
 9979W        W81508  13.325  36.084   0.320
 9980W        W81509  17.523  10.732   1.306
 9981W        W81510   0.558   3.706  11.649
 9982W        W81511   6.768   0.551   0.043
 9983W        W81512  31.151  34.452   4.939
 9984W        W81513  32.576  21.670  10.618
 9985W        W81514  23.933  40.107   3.740
 9986W        W81515   6.769  30.590  11.981
 9987W        W81516  42.914  11.777  13.494
 9988W        W81517  14.739  26.688  13.509
 9989W        W81518  44.765  40.566   4.439
 9990W        W81519  18.707  19.053   1.198
 9991W        W81520  18.186  13.751   2.574
 9992W        W81521  16.565   0.808  13.073
 9993W        W81522  27.566  19.609  11.611
 9994W        W81523   4.822  42.618  12.090
 9995W        W81524  10.729  29.269  11.095
 9996W        W81525   5.910  20.536   1.669
 9997W        W81526   1.326  36.794  10.765
 9998W        W81527   9.452  25.773   2.277
 9999W        W81528  30.992  35.990   0.026
10000W        W81529   5.357   0.862   0.709
10001W        W81530  20.503  28.577  14.886
10002W        W81531  10.645   6.713  10.447
10003W        W81532   6.885   5.655  13.956
10004W        W81533  11.759  42.454   3.720
10005W        W81534  22.517  15.658  10.687
10006W        W81535  16.806  21.552  12.937
10007W        W81536  17.113  44.875  10.573
10008W        W81537  38.283  35.063   1.550
10009W        W81538  14.633  27.042   3.261
10010W        W81539  19.730  26.732  13.080
10011W        W81540  24.196  30.551   3.550
10012W        W81541  27.883  25.512  12.440
10013W        W81542  29.044  15.872   0.957
10014W        W81543  32.837   5.988   0.796
10015W        W81544  35.470  39.771  13.969
10016W        W81545   5.024  17.461   2.356
10017W        W81546  36.679  14.359   3.090
10018W        W81547   2.292  34.918  12.425
10019W        W81548  21.185  41.015   3.519
10020W        W81549  27.170  10.186   0.454
10021W        W81550  42.453  19.072   4.392
10022W        W81551   7.692   7.900  11.237
10023W        W81552   7.837  27.177   2.618
10024W        W81553  21.743  23.756   2.227
10025W        W81554   3.477  28.002  14.800
10026W        W81555   7.686  16.721  11.774
10027W        W81556  32.174  38.380   3.144
10028W        W81557   0.960   1.445  10.440
10029W        W81558  13.805  30.157  11.657
10030W        W81559   7.636  15.674  12.695
10031W        W81560  27.785  38.420  14.929
10032W        W81561  34.388  10.919   1.861
10033W        W81562  19.352  31.898  10.940
10034W        W81563  25.002   9.803   2.439
10035W        W81564  32.503  41.283   3.321
10036W        W81565   4.445  24.744  12.580
10037W        W81566  32.754  37.249   4.148
10038W        W81567  19.755  27.016   4.148
10039W        W81568  12.451  27.229   3.674
10040W        W81569  21.250   6.690   4.791
10041W        W81570  32.153  37.546  12.202
10042W        W81571   0.863  15.101   4.772
10043W        W81572  31.537  14.771   1.359
10044W        W81573   5.456   6.967   2.590
10045W        W81574  33.881  21.060   2.756
10046W        W81575  27.478  34.183  12.992
10047W        W81576  41.828  15.771  11.570
10048W        W81577   7.809  37.180   2.875
10049W        W81578  10.862  15.270  11.508
10050W        W81579   7.029  31.536  14.455
10051W        W81580  15.732  10.274   2.896
10052W        W81581  39.574  38.413  13.038
10053W        W81582  25.593  43.383  12.602
10054W        W81583   5.950  11.596   1.720
10055W        W81584  10.824   1.574   3.825
10056W        W81585  41.656  18.609  11.916
10057W        W81586  28.908  27.407  12.846
10058W        W81587  39.893  40.862   0.293
10059W        W81588   6.592  31.224  12.378
10060W        W81589  41.531  28.299   0.945
10061W        W81590  19.110   9.293  13.686
10062W        W81591  23.748  16.796  14.346
10063W        W81592  28.863  29.205  11.130
10064W        W81593  11.672   1.346  11.736
10065W        W81594  32.411  25.477  12.936
10066W        W81595   9.319  24.509  12.150
10067W        W81596  11.385   8.280   1.774
10068W        W81597   4.328   9.120   4.247
10069W        W81598  24.009  41.980   3.911
10070W        W81599  43.992  31.573  12.458
10071W        W81600  30.416  37.514  14.389
10072W        W81601  30.862  42.199   0.837
10073W        W81602  18.615   3.994  11.237
10074W        W81603  43.518  16.345  13.379
10075W        W81604  27.874  27.610  11.994
10076W        W81605   1.837  38.608   2.465
10077W        W81606  36.805   6.429   1.810
10078W        W81607  43.597  43.460  14.925
10079W        W81608  14.616  27.606  13.457
10080W        W81609  33.252  18.531  12.121
10081W        W81610   1.810  13.860  13.444
10082W        W81611  38.603  17.857  13.043
10083W        W81612  39.842   5.416  11.066
10084W        W81613  18.332  30.835  14.856
10085W        W81614  22.684   8.741  14.049
10086W        W81615  34.096   2.274   2.413
10087W        W81616  17.538  26.601   3.240
10088W        W81617  17.568  41.992   0.828
10089W        W81618  27.544   8.900   1.374
10090W        W81619  18.708  40.615   1.401
10091W        W81620  29.982  14.749  11.131
10092W        W81621   4.683   4.788   1.716
10093W        W81622  26.096  32.156  14.455
10094W        W81623   1.039   6.250   0.867
10095W        W81624   3.954  24.737   3.816
10096W        W81625   2.159   4.757   1.985
10097W        W81626  11.080  17.521  13.438
10098W        W81627  35.904   5.441  11.777
10099W        W81628  44.399  11.577   1.237
10100W        W81629  24.013  42.511   3.138
10101W        W81630  12.743  18.776   0.387
10102W        W81631  40.631  29.620   5.066
10103W        W81632  18.384   3.363  14.061
10104W        W81633  40.848  11.689  11.623
10105W        W81634  18.205  19.426  11.090
10106W        W81635   8.827  39.812  10.731
10107W        W81636  28.705  10.189  10.729
10108W        W81637  44.390  39.335   3.264
10109W        W81638  14.913   6.038   2.162
10110W        W81639   0.937  36.048   0.198
10111W        W81640  22.267   9.289   2.743
10112W        W81641  23.564  15.780  12.194
10113W        W81642  38.660  10.248   4.169
10114W        W81643  21.483  37.713  11.528
10115W        W81644  10.250  12.769   1.690
10116W        W81645   8.836  24.679  14.086
10117W        W81646  43.466  28.490   1.050
10118W        W81647  29.889   8.068   0.233
10119W        W81648  19.309  15.098  12.088
10120W        W81649  30.597  22.708   2.849
10121W        W81650  33.573  43.296   0.038
10122W        W81651  35.660  20.720   0.810
10123W        W81652  30.946   0.556   1.399
10124W        W81653  26.943  14.773   4.808
10125W        W81654   4.920  19.442   1.431
10126W        W81655  15.887  22.754  13.958
10127W        W81656  37.031  34.864  14.447
10128W        W81657  24.291   7.492  14.510
10129W        W81658  31.674  35.121  12.350
10130W        W81659   5.630  31.516  10.827
10131W        W81660  40.977   8.217   0.787
10132W        W81661  31.501  36.802  14.711
10133W        W81662  31.873  27.876  11.087
10134W        W81663  21.583  15.276  11.647
10135W        W81664  13.774   3.465   2.236
10136W        W81665  18.258  17.844   1.044
10137W        W81666  43.294  37.795  14.985
10138W        W81667  30.871  33.069  14.763
10139W        W81668  33.204  36.446   3.614
10140W        W81669  38.383  21.119   2.216
10141W        W81670  24.928  14.787  12.981
10142W        W81671  26.634  11.766  14.822
10143W        W81672   5.866   0.960  14.816
10144W        W81673   1.988  30.683  12.997
10145W        W81674  33.726   9.424  11.858
10146W        W81675   8.656  10.389  10.690
10147W        W81676  20.704  11.530  13.384
10148W        W81677  42.752  23.756   2.307
10149W        W81678  20.768  41.961   4.077
10150W        W81679   0.017  39.604  11.696
10151W        W81680   3.570  36.861   4.139
10152W        W81681   8.639  12.952   4.177
10153W        W81682  13.627  10.872   0.987
10154W        W81683  10.650  25.470   2.655
10155W        W81684  41.379  11.880   4.980
10156W        W81685  14.595  18.665  13.932
10157W        W81686  27.363  16.730   2.201
10158W        W81687  15.803  41.511  13.889
10159W        W81688  23.069  41.227   1.416
10160W        W81689  39.603  27.939  14.031
10161W        W81690  19.835  34.671   4.943
10162W        W81691  25.418  35.107   0.853
10163W        W81692  15.649  40.508  13.459
10164W        W81693  22.497  15.228   3.305
10165W        W81694  27.132   1.926  12.366
10166W        W81695  42.078  23.256  12.392
10167W        W81696  17.658   2.228   1.697
10168W        W81697  10.139  17.704   0.317
10169W        W81698   1.505  43.295   2.788
10170W        W81699  34.349   8.496  12.744
10171W        W81700  29.873  44.493   2.769
10172W        W81701  18.248  26.695   3.890
10173W        W81702  11.195  29.699  12.661
10174W        W81703   4.424  12.346   4.278
10175W        W81704   0.001   9.231   4.071
10176W        W81705  17.363  24.355  11.438
10177W        W81706  34.395  17.645   4.739
10178W        W81707  23.384  20.341  11.089
10179W        W81708  17.084  24.114  11.087
10180W        W81709  26.498  35.336   3.157
10181W        W81710  41.580  23.244  12.466
10182W        W81711  34.906  35.356  10.891
10183W        W81712  30.708  10.154   4.211
10184W        W81713  41.490   0.332  11.064
10185W        W81714  44.329  37.583   1.487
10186W        W81715  23.006  22.716   1.899
10187W        W81716  41.047  16.678  14.915
10188W        W81717  43.971  35.950   2.356
10189W        W81718   4.934  43.743  11.093
10190W        W81719  19.831  14.510   3.154
10191W        W81720  44.383   6.001   1.013
10192W        W81721  24.570   2.014   0.194
10193W        W81722  13.194   9.081  13.480
10194W        W81723  23.440   1.605  13.999
10195W        W81724  26.974  10.104  13.306
10196W        W81725  43.785   9.265   3.198
10197W        W81726  32.915  36.959  11.886
10198W        W81727  31.133  14.295   3.293
10199W        W81728   1.728  32.437  13.488
10200W        W81729  24.029  21.734  11.410
10201W        W81730  29.586  27.238   4.088
10202W        W81731  33.868  34.499  11.967
10203W        W81732  43.256   6.868   0.458
10204W        W81733  15.091  15.831   2.910
10205W        W81734  39.251  36.178   1.956
10206W        W81735   0.590  13.642   3.817
10207W        W81736   8.548  19.306   3.529
10208W        W81737  16.735  34.979   3.280
10209W        W81738  34.868  11.275  14.499
10210W        W81739  20.812   0.761   4.571
10211W        W81740  33.728  34.402   0.470
10212W        W81741  25.221   4.487   1.414
10213W        W81742  18.003   2.309   2.679
10214W        W81743   5.268  22.020   0.844
10215W        W81744  14.051  22.468  14.748
10216W        W81745  10.661  41.011   4.938
10217W        W81746  17.878   5.308  13.940
10218W        W81747   1.461  13.603   3.599
10219W        W81748  38.141   8.929   5.302
10220W        W81749   8.420   9.346  11.486
10221W        W81750  20.716  40.767  11.466
10222W        W81751   6.460  30.956  11.190
10223W        W81752  19.622  14.877  12.484
10224W        W81753  15.706  31.660   3.730
10225W        W81754  20.060   7.174  13.548
10226W        W81755   8.617  26.104   4.672
10227W        W81756  22.001  12.067   2.532
10228W        W81757  41.352   2.533   1.989
10229W        W81758   4.373  14.272  13.488
10230W        W81759  23.532   6.146  12.013
10231W        W81760  14.557  24.544  11.030
10232W        W81761  31.376  25.490  14.420
10233W        W81762   6.853  20.246   0.296
10234W        W81763  41.178  30.307  11.409
10235W        W81764  41.742  42.985   0.463
10236W        W81765  33.963  35.005  14.261
10237W        W81766  42.828  34.827  12.531
10238W        W81767   9.837  39.021  11.614
10239W        W81768  15.109  33.967  12.526
10240W        W81769  13.559  43.859  10.815
10241W        W81770   4.783  20.373   1.366
10242W        W81771   2.717  30.203  10.741
10243W        W81772  20.161   3.740  13.428
10244W        W81773  11.239  39.292  12.319
10245W        W81774   8.237  19.899  12.831
10246W        W81775  16.605  30.270  11.337
10247W        W81776   4.517  10.049  14.956
10248W        W81777   6.260  28.427   3.288
10249W        W81778  15.781  38.598  12.912
10250W        W81779  32.670  41.507  13.957
10251W        W81780  34.344  17.113  13.179
10252W        W81781  25.000  26.525   2.670
10253W        W81782   4.417  17.036   3.776
10254W        W81783   8.662  16.176   4.042
10255W        W81784  44.064  10.350   2.277
10256W        W81785  38.953  36.882   0.251
10257W        W81786  32.507  25.462   2.744
10258W        W81787  43.360  38.815   1.764
10259W        W81788  39.530  41.064   2.646
10260W        W81789   2.803  16.976   1.487
10261W        W81790  15.122  22.683  12.599
10262W        W81791  43.409  16.748  11.552
10263W        W81792  19.280  15.261   2.720
10264W        W81793  17.234  27.714   1.246
10265W        W81794  42.334  19.855  11.899
10266W        W81795  43.928  13.566   4.786
10267W        W81796  22.315   9.311   4.572
10268W        W81797   2.316  42.791  10.450
10269W        W81798  11.873  16.666   0.269
10270W        W81799  15.264  26.581   2.669
10271W        W81800  42.573  36.110  11.518
10272W        W81801   3.062   5.474   3.115
10273W        W81802  17.242  30.383  13.070
10274W        W81803  27.600  21.600  11.182
10275W        W81804  38.654  35.542  10.461
10276W        W81805   5.675   1.148   2.826
10277W        W81806  40.319  39.493   2.931
10278W        W81807  20.715  18.686  12.670
10279W        W81808  42.963  44.376  13.486
10280W        W81809  20.947  41.206   0.414
10281W        W81810   5.722  27.122  14.865
10282W        W81811   2.255  17.030  10.822
10283W        W81812  23.714  16.503  13.919
10284W        W81813  23.154  21.598  13.028
10285W        W81814  39.952   4.450  11.267
10286W        W81815  32.350  21.684  14.924
10287W        W81816   0.837   7.925  12.343
10288W        W81817   5.203  42.852   0.468
10289W        W81818  15.825  39.331  14.286
10290W        W81819  38.111  22.995   2.697
10291W        W81820  22.137  36.544  13.359
10292W        W81821  21.507  25.217  13.120
10293W        W81822  13.288  28.103  11.082
10294W        W81823   6.406  14.969   2.872
10295W        W81824  14.691  17.472   4.334
10296W        W81825  19.456   9.929  10.561
10297W        W81826   5.068  33.577   4.215
10298W        W81827  33.663  16.062   2.884
10299W        W81828   4.767  33.857   0.163
10300W        W81829  44.739  30.732   0.401
10301W        W81830  24.050  41.434   1.292
10302W        W81831  34.843   3.110   1.449
10303W        W81832  36.651  30.506  10.265
10304W        W81833  30.066  35.423  13.681
10305W        W81834   5.339  29.215   4.633
10306W        W81835   3.218  40.972   2.368
10307W        W81836   8.260  20.075   1.627
10308W        W81837  43.483  21.023   1.280
10309W        W81838  33.997  29.356   1.723
10310W        W81839  25.408  26.951   1.773
10311W        W81840  26.215   2.514   1.408
10312W        W81841  33.184  30.345   2.941
10313W        W81842  15.775  39.084   2.398
10314W        W81843  37.553  18.522   1.768
10315W        W81844  18.544  13.210   3.691
10316W        W81845  32.274  32.900  12.438
10317W        W81846  27.809  21.610  11.671
10318W        W81847  10.849  16.553   3.250
10319W        W81848  13.298  28.276   1.273
10320W        W81849  27.667  21.579  13.855
10321W        W81850   6.804  17.339   4.752
10322W        W81851  11.629  13.153  13.035
10323W        W81852  14.858  22.695  13.038
10324W        W81853  44.992   7.681   2.193
10325W        W81854  26.715  27.001  11.652
10326W        W81855   6.878  33.454   3.113
10327W        W81856   5.692  43.450  12.920
10328W        W81857   7.459  21.773   2.382
10329W        W81858  29.562  31.158  11.928
10330W        W81859  11.536  19.095   0.454
10331W        W81860   3.663  44.740  11.089
10332W        W81861  32.005   4.689  11.473
10333W        W81862   0.205   0.959   2.798
10334W        W81863  34.093  17.180   4.127
10335W        W81864  15.894  16.899   0.996
10336W        W81865  17.784   3.539   0.305
10337W        W81866  33.420  37.044   1.844
10338W        W81867   1.234   7.133  11.718
10339W        W81868  40.788  32.499  13.897
10340W        W81869  18.814  10.259   4.570
10341W        W81870  38.945  38.715   3.642
10342W        W81871  12.963   3.451   2.308
10343W        W81872  14.745  32.781   3.403
10344W        W81873  16.772  43.404  12.936
10345W        W81874  43.260   7.342  11.670
10346W        W81875  41.485   1.818   4.660
10347W        W81876  11.332   3.796   3.999
10348W        W81877  15.572  33.157  13.551
10349W        W81878  25.595  34.804  13.017
10350W        W81879  31.109   4.396   1.733
10351W        W81880  19.982  20.693  12.463
10352W        W81881  11.639   5.217   3.893
10353W        W81882  10.194   4.960  10.919
10354W        W81883   6.713  33.579  14.057
10355W        W81884   7.359  16.996  13.191
10356W        W81885  28.587  12.708   4.471
10357W        W81886  23.305   4.879   0.368
10358W        W81887  19.787  44.073  13.777
10359W        W81888  21.199  13.626  10.951
10360W        W81889  10.554  28.624  11.597
10361W        W81890   2.773  23.013  12.596
10362W        W81891  31.170  30.488  11.053
10363W        W81892   0.365  38.311  12.759
10364W        W81893  19.860  42.516  14.760
10365W        W81894  23.268   9.713   3.096
10366W        W81895  38.308  22.223   1.612
10367W        W81896   9.391   2.482  12.827
10368W        W81897   1.515  20.778  14.311
10369W        W81898  10.303  27.471  12.674
10370W        W81899  10.060  41.612  12.544
10371W        W81900  11.643  13.766  11.898
10372W        W81901   4.025   9.536   3.165
10373W        W81902   7.483  43.290   0.099
10374W        W81903  19.859  19.101   2.232
10375W        W81904  36.045  30.663   1.261
10376W        W81905   9.196  39.857  12.201
10377W        W81906  28.784  18.998   1.700
10378W        W81907   7.414  13.460  12.019
10379W        W81908  30.620   5.779   0.952
10380W        W81909  24.625  44.652   4.627
10381W        W81910   5.886  25.361   0.034
10382W        W81911  31.145   9.483  13.848
10383W        W81912  23.287   9.569  13.554
10384W        W81913  29.532  42.687  12.102
10385W        W81914  16.642   5.755  10.527
10386W        W81915  35.856  11.166   3.653
10387W        W81916  13.716  27.023   4.310
10388W        W81917  31.032  31.219   4.096
10389W        W81918  33.901   6.971  11.624
10390W        W81919  29.644  23.700   3.368
10391W        W81920   0.028  25.788  13.047
10392W        W81921  37.071  39.393  12.657
10393W        W81922  23.612  34.627  13.357
10394W        W81923  33.013  16.768   0.723
10395W        W81924   5.853   7.375  10.609
10396W        W81925  20.075   3.016   0.421
10397W        W81926  17.523  22.247   3.817
10398W        W81927  24.226   6.802  14.784
10399W        W81928  38.197  21.189  11.162
10400W        W81929  16.196  42.298  12.151
10401W        W81930   3.374  13.164   4.379
10402W        W81931   4.373  32.778   1.284
10403W        W81932  32.193  41.053  11.223
10404W        W81933  39.820   0.326   1.386
10405W        W81934  23.570  22.515   1.264
10406W        W81935  13.802  27.110  10.659
10407W        W81936  12.191  33.524  13.171
10408W        W81937   3.975  44.355   4.312
10409W        W81938  19.745   0.472   2.855
10410W        W81939   3.535  43.928   0.323
10411W        W81940  27.899  20.790   4.552
10412W        W81941  23.660  30.506   3.528
10413W        W81942  18.060  16.608  10.685
10414W        W81943  22.671  33.156   1.005
10415W        W81944  12.497  15.133   1.663
10416W        W81945  16.206   5.754   2.189
10417W        W81946  15.289  28.464  10.464
10418W        W81947   3.419  36.390   2.840
10419W        W81948   8.355  44.442  12.450
10420W        W81949  17.767  42.941   3.158
10421W        W81950  39.151  14.059  14.441
10422W        W81951  28.925   1.140  14.305
10423W        W81952  18.802   0.045  13.149
10424W        W81953  37.671  11.890  14.467
10425W        W81954  16.589  21.216   4.126
10426W        W81955  10.861  43.507  14.917
10427W        W81956  17.023  20.467   2.607
10428W        W81957  16.877  37.097  13.231
10429W        W81958  11.605  27.887   5.108
10430W        W81959  26.079  36.846   4.269
10431W        W81960  30.641  18.034   0.739
10432W        W81961  40.747  39.009   0.478
10433W        W81962  11.386  13.536   3.637
10434W        W81963  10.360   2.493  11.980
10435W        W81964  29.214  41.868   2.094
10436W        W81965  29.117  27.664  13.251
10437W        W81966  16.479  15.450   0.410
10438W        W81967  26.611  28.426  14.507
10439W        W81968  35.989  18.779   4.605
10440W        W81969  16.717  38.118  14.525
10441W        W81970  17.736  11.527  13.071
10442W        W81971  30.983  37.588   1.779
10443W        W81972  42.512  44.493  14.853
10444W        W81973  32.129  42.401  10.643
10445W        W81974  25.205  36.878  11.977
10446W        W81975  44.073  37.429   0.672
10447W        W81976  12.615  25.502   2.760
10448W        W81977  24.936   5.807   2.898
10449W        W81978  32.101  38.035  12.011
10450W        W81979   7.696  33.608   0.837
10451W        W81980   8.369  13.676  12.367
10452W        W81981   6.853  11.083   4.113
10453W        W81982  39.177  11.126   0.805
10454W        W81983  18.558  34.617   3.632
10455W        W81984   7.124   8.235   2.042
10456W        W81985  34.700  33.408   2.770
10457W        W81986  32.966   6.501  12.513
10458W        W81987  15.245  10.561   3.580
10459W        W81988   5.176  23.067   3.141
10460W        W81989   6.123  37.317  12.499
10461W        W81990  33.193  44.887   2.455
10462W        W81991  26.155  34.650   0.357
10463W        W81992  38.795   7.837  13.003
10464W        W81993   4.289  15.340  11.596
10465W        W81994  25.898   1.312  12.219
10466W        W81995  28.201  40.777   0.806
10467W        W81996  32.341   6.414  13.265
10468W        W81997  12.173  21.288  13.395
10469W        W81998  41.717  23.620   1.574
10470W        W81999  21.037  34.398   3.726
10471W        W82000   5.111   5.899  10.334
10472W        W82001  30.934  40.089   2.678
10473W        W82002   8.453  43.913   1.646
10474W        W82003  31.311  30.841  12.980
10475W        W82004  38.016  17.557  14.798
10476W        W82005   7.744  36.474  11.404
10477W        W82006  15.301   6.186  11.613
10478W        W82007  28.463  25.403   2.690
10479W        W82008   6.710  17.360   2.917
10480W        W82009  25.916   5.179  11.559
10481W        W82010  11.092  20.018  13.375
10482W        W82011  43.737  38.949   1.264
10483W        W82012  32.586   0.541  11.233
10484W        W82013  18.016  17.724   0.565
10485W        W82014   0.125  13.146   4.205
10486W        W82015  41.195  16.754   3.299
10487W        W82016  21.193  31.369  14.902
10488W        W82017  20.753  15.303  10.687
10489W        W82018   1.185   3.834   3.239
10490W        W82019  27.191   8.816   0.523
10491W        W82020  39.709  43.380  10.283
10492W        W82021  33.642  21.564   2.599
10493W        W82022  31.014  42.465   2.677
10494W        W82023  38.798  21.749   1.281
10495W        W82024  36.860  44.827  10.424
10496W        W82025  17.593  33.367   2.739
10497W        W82026  42.795   6.278  14.885
10498W        W82027  35.603   3.383   1.261
10499W        W82028  31.459   3.838  11.049
10500W        W82029  23.595  32.637  11.319
10501W        W82030   2.959  43.963   4.282
10502W        W82031   6.491  29.602   5.033
10503W        W82032  10.123   2.826   4.547
10504W        W82033  12.635  22.786  14.037
10505W        W82034  17.242  32.711   3.616
10506W        W82035  18.591   7.872   4.454
10507W        W82036  10.844   9.703   0.918
10508W        W82037  31.787  18.661   4.174
10509W        W82038  29.580  26.941  10.178
10510W        W82039  11.952   7.072   3.892
10511W        W82040  39.505  21.226   4.694
10512W        W82041   5.304   6.752   3.251
10513W        W82042  44.649  23.771  11.018
10514W        W82043   3.628  26.848   1.663
10515W        W82044  15.011   2.481   4.738
10516W        W82045   3.503  24.529  14.898
10517W        W82046  17.627  32.453  11.547
10518W        W82047  19.574  20.455  10.705
10519W        W82048   0.450  25.179   1.864
10520W        W82049  16.561  32.925   3.298
10521W        W82050  42.479  22.662  13.622
10522W        W82051  38.958  19.442   5.022
10523W        W82052  31.535  13.559   3.914
10524W        W82053  38.955  37.674  13.434
10525W        W82054  35.013  35.893   2.602
10526W        W82055  15.267  32.300   3.509
10527W        W82056  40.245  28.162  11.049
10528W        W82057  42.269  32.416  12.305
10529W        W82058  41.808   3.672   1.709
10530W        W82059  36.519  13.604  13.017
10531W        W82060  39.439  36.181  14.716
10532W        W82061  32.592  28.657   0.287
10533W        W82062   6.159  32.155  10.827
10534W        W82063  17.107  18.827   4.280
10535W        W82064  41.131  39.396  13.054
10536W        W82065   9.580  12.831   2.339
10537W        W82066  17.067  42.509  10.648
10538W        W82067  10.843  27.456   0.495
10539W        W82068  31.440   1.221  11.578
10540W        W82069  44.505   5.675  10.619
10541W        W82070  32.769  37.301   1.392
10542W        W82071   1.788  27.673   0.760
10543W        W82072  33.158  26.189   0.821
10544W        W82073  38.077  20.949  10.448
10545W        W82074  36.034  41.323  11.604
10546W        W82075  11.026  21.721  13.083
10547W        W82076  16.147   4.516  13.040
10548W        W82077  22.800  28.472  10.927
10549W        W82078  37.901  20.132   1.698
10550W        W82079  28.973   2.558   1.326
10551W        W82080  40.677  32.294   4.194
10552W        W82081  22.643  23.950   1.896
10553W        W82082  36.919  16.140  14.331
10554W        W82083  20.077  22.090  14.341
10555W        W82084  36.108  24.523   3.722
10556W        W82085  27.515  34.300  12.469
10557W        W82086  41.918  22.418  13.477
10558W        W82087   1.379  35.368   9.842
10559W        W82088  23.580  44.125   3.542
10560W        W82089   0.135  40.685  13.266
10561W        W82090  29.551   2.797   0.329
10562W        W82091  43.245  15.212   4.741
10563W        W82092  14.817  27.705   4.598
10564W        W82093  27.215   4.703   3.345
10565W        W82094  40.014  24.563   0.407
10566W        W82095  33.618  25.398   0.478
10567W        W82096  42.467  33.637   0.352
10568W        W82097  44.340   3.982  11.209
10569W        W82098  36.792  31.121   2.876
10570W        W82099  13.226   8.107   1.185
10571W        W82100  17.546  26.075   3.105
10572W        W82101  24.350  31.667  14.459
10573W        W82102   2.833  12.219  10.691
10574W        W82103  27.100   2.472   4.081
10575W        W82104  39.541  18.184  12.087
10576W        W82105  25.063   2.028  12.031
10577W        W82106  22.708   6.870   0.149
10578W        W82107  43.449  17.320   3.289
10579W        W82108  43.736   2.487   0.940
10580W        W82109  30.697   5.200  13.199
10581W        W82110  20.244   9.623   2.772
10582W        W82111  15.347  13.197   1.370
10583W        W82112   8.251   7.264  13.800
10584W        W82113   7.844  27.659  14.886
10585W        W82114  18.492  26.655   1.915
10586W        W82115  41.543  30.956  11.162
10587W        W82116   4.728  31.200   3.939
10588W        W82117  36.813   7.290   3.448
10589W        W82118  44.062  22.325  11.500
10590W        W82119  28.124  29.094   0.382
10591W        W82120   2.963  38.165  13.917
10592W        W82121  39.427  40.541   1.930
10593W        W82122  19.437  15.492   3.227
10594W        W82123   5.423   4.276  13.838
10595W        W82124  24.941  36.029   4.433
10596W        W82125  29.036  26.249  12.200
10597W        W82126  40.507  20.236  14.436
10598W        W82127  41.431  13.227  11.939
10599W        W82128  17.613  44.784   3.320
10600W        W82129  28.554  20.253  10.974
10601W        W82130  20.533  43.526  14.957
10602W        W82131  33.101  10.835  13.045
10603W        W82132  10.704  21.726  11.443
10604W        W82133  34.302  25.631   2.223
10605W        W82134  22.569  37.861   0.433
10606W        W82135  16.577  35.370  14.777
10607W        W82136  10.817   3.918   1.740
10608W        W82137  42.974  20.792   1.323
10609W        W82138  27.121   1.674   2.754
10610W        W82139  34.807  23.274   0.651
10611W        W82140   1.427  43.739  11.114
10612W        W82141  34.847  21.126  14.609
10613W        W82142   3.688  36.585   1.302
10614W        W82143  33.107  37.043   2.312
10615W        W82144  42.008   2.706   4.458
10616W        W82145  27.164  12.062   4.508
10617W        W82146  14.827  18.275  10.701
10618W        W82147  17.235  16.259  11.543
10619W        W82148  13.307  37.505   4.297
10620W        W82149  30.853  18.560  11.794
10621W        W82150  25.172  26.373  12.612
10622W        W82151  39.948   1.874   0.921
10623W        W82152  30.510  11.163  12.380
10624W        W82153  36.993  32.697  11.987
10625W        W82154  37.531  41.501  12.363
10626W        W82155  22.745   9.320   0.244
10627W        W82156  41.963  36.179   4.625
10628W        W82157  18.638  38.189  12.984
10629W        W82158   0.981  28.779  10.692
10630W        W82159  22.095  38.864  11.510
10631W        W82160  25.553  17.772  13.057
10632W        W82161  32.435  15.780   4.548
10633W        W82162  25.002  43.550   1.811
10634W        W82163   9.196  43.852  12.152
10635W        W82164  32.260   5.872   2.259
10636W        W82165   7.501   4.627   4.047
10637W        W82166  11.700   6.375   0.520
10638W        W82167  24.058   3.306   1.927
10639W        W82168  14.982   7.045   9.810
10640W        W82169  27.989  32.084  12.063
10641W        W82170   6.409  34.871   3.843
10642W        W82171  32.214  17.418  14.469
10643W        W82172   6.287  40.870   4.589
10644W        W82173  39.781  10.165   3.580
10645W        W82174  23.535  10.764  13.894
10646W        W82175  36.817  23.271   1.320
10647W        W82176  12.842   8.868   0.129
10648W        W82177  22.599  25.234   4.643
10649W        W82178   1.309  21.258  12.138
10650W        W82179  22.792  41.314  13.744
10651W        W82180  44.530   2.649   0.001
10652W        W82181   4.795  14.155   4.230
10653W        W82182  28.292  13.601   5.420
10654W        W82183  22.952  41.056  10.774
10655W        W82184  18.721   5.127   4.832
10656W        W82185   7.940   1.849  14.433
10657W        W82186   2.996  32.950   0.887
10658W        W82187   3.200  30.436   3.244
10659W        W82188  41.505  41.707  12.053
10660W        W82189  10.389  12.456  14.869
10661W        W82190  43.254   4.934  12.396
10662W        W82191   8.908   5.227   0.358
10663W        W82192  29.433  37.808   4.714
10664W        W82193   1.456   7.303   0.906
10665W        W82194   5.138   2.667   0.360
10666W        W82195  17.044   0.498   3.659
10667W        W82196  35.452  39.440  13.576
10668W        W82197  29.182  20.529   3.792
10669W        W82198   6.786  31.095   0.987
10670W        W82199  14.813  21.302   1.137
10671W        W82200  35.531  38.348   0.294
10672W        W82201  21.073  25.227   4.594
10673W        W82202   6.086  17.347  10.699
10674W        W82203  10.768  33.377  13.079
10675W        W82204  38.269  37.157   0.592
10676W        W82205  16.738   5.927  14.253
10677W        W82206   6.758  27.191   3.098
10678W        W82207  11.207  36.399  14.340
10679W        W82208  14.809   0.657  11.526
10680W        W82209  23.264   8.938   0.850
10681W        W82210  32.710   1.467  11.165
10682W        W82211  35.093  26.225  11.951
10683W        W82212  11.827  31.213  10.537
10684W        W82213  29.542   3.903  13.487
10685W        W82214  38.308  13.513  12.405
10686W        W82215  43.724  35.253  11.043
10687W        W82216  14.271  39.875   0.026
10688W        W82217  37.812  12.614  13.329
10689W        W82218   5.057  39.109  11.227
10690W        W82219  16.711  28.422  10.122
10691W        W82220   0.475   9.847  12.420
10692W        W82221  25.874   9.335  13.373
10693W        W82222  17.133   0.727  13.127
10694W        W82223  35.087  37.839   1.242
10695W        W82224   8.602   0.209  14.925
10696W        W82225  30.317  25.008  10.198
10697W        W82226  19.814  43.512  13.017
10698W        W82227   6.569   1.711  10.842
10699W        W82228  11.539  14.323   5.065
10700W        W82229  28.770  33.208  14.400
10701W        W82230  34.922   9.728  14.744
10702W        W82231  26.013  21.174   1.142
10703W        W82232  17.234  38.031   4.605
10704W        W82233  28.574  14.552   3.182
10705W        W82234   6.719  40.650  13.388
10706W        W82235   8.665  13.657  11.831
10707W        W82236   8.269  38.693   4.047
10708W        W82237  21.539  36.908  14.457
10709W        W82238  23.151   9.843   2.621
10710W        W82239  37.839  24.934  13.955
10711W        W82240   5.472  31.905  14.899
10712W        W82241  21.555  36.598  10.679
10713W        W82242  17.027  38.956   3.324
10714W        W82243  42.266  43.387  11.481
10715W        W82244  21.242   0.454  12.130
10716W        W82245  25.680  15.164  13.162
10717W        W82246  43.101  19.819  11.439
10718W        W82247  20.276  44.285   0.312
10719W        W82248  17.621  43.458   0.975
10720W        W82249  16.245  10.198   4.144
10721W        W82250  29.879  20.528  11.191
10722W        W82251  10.724  37.786  11.846
10723W        W82252   0.940  23.033   4.329
10724W        W82253  44.822  32.087   4.943
10725W        W82254  37.831   1.779  13.542
10726W        W82255  23.056  24.058   4.758
10727W        W82256  10.766  25.973   3.625
10728W        W82257   4.098  19.521  12.049
10729W        W82258   5.642  32.056  10.756
10730W        W82259  19.183  44.507  12.644
10731W        W82260  21.382  14.332   2.721
10732W        W82261  35.343  40.277  13.845
10733W        W82262  16.504   4.522  11.030
10734W        W82263  39.948  18.110  13.775
10735W        W82264   1.861  17.098   2.406
10736W        W82265  21.084  41.902  12.860
10737W        W82266  43.035  24.597   3.221
10738W        W82267  10.648  14.106  11.971
10739W        W82268  43.240  26.018   3.743
10740W        W82269   7.808   4.468   0.338
10741W        W82270  22.075  36.985   0.324
10742W        W82271  26.344  27.129   1.402
10743W        W82272  24.742  29.659   1.701
10744W        W82273  25.396  12.119  14.081
10745W        W82274  29.482   6.921   3.258
10746W        W82275   8.167  23.132   2.770
10747W        W82276  14.073  28.166   0.214
10748W        W82277  17.732  19.811  11.903
10749W        W82278  11.136  28.459   0.376
10750W        W82279  32.414  35.934  14.232
10751W        W82280  41.402  10.825   1.700
10752W        W82281   9.229   4.004   2.303
10753W        W82282  43.470  34.954  11.854
10754W        W82283  25.246   1.970   4.788
10755W        W82284  32.760   9.817   2.624
10756W        W82285  14.825   0.352  13.619
10757W        W82286  38.333  14.998  14.103
10758W        W82287  28.026  18.525  13.254
10759W        W82288  37.857  41.267  13.508
10760W        W82289   8.715   4.844   1.239
10761W        W82290  27.606  41.386   2.922
10762W        W82291  13.131  18.102   1.036
10763W        W82292  18.664  20.566   3.546
10764W        W82293  36.936  40.401   0.265
10765W        W82294   6.920  19.778   4.965
10766W        W82295   7.356   1.305   1.035
10767W        W82296   2.690  15.583   3.234
10768W        W82297   1.243  38.773  14.741
10769W        W82298  24.495  28.779   1.480
10770W        W82299  32.058  27.529   1.862
10771W        W82300  37.677  28.193   1.413
10772W        W82301  44.193   5.210  11.612
10773W        W82302  27.186  17.739  13.973
10774W        W82303  42.788  39.776  12.619
10775W        W82304  17.144  13.846  13.063
10776W        W82305  20.062  23.326  12.895
10777W        W82306  17.321  21.195   3.260
10778W        W82307  16.140  43.598  11.983
10779W        W82308  24.461  14.147   1.373
10780W        W82309   0.238  37.441  12.396
10781W        W82310  38.151  31.593   1.912
10782W        W82311  20.869  31.397   4.698
10783W        W82312   7.295  21.564  12.158
10784W        W82313   6.478  40.068  10.731
10785W        W82314  19.134  33.490   2.007
10786W        W82315   7.181  27.615  12.012
10787W        W82316  26.146   9.018  12.437
10788W        W82317  27.169  40.567   2.505
10789W        W82318  16.236   3.825   0.811
10790W        W82319  29.802  17.885  12.125
10791W        W82320  33.889  19.118  14.808
10792W        W82321  26.020  12.764   3.175
10793W        W82322  32.021  14.053  12.428
10794W        W82323  30.533   0.975   2.720
10795W        W82324  28.574  28.645  14.260
10796W        W82325  23.666  24.171   3.723
10797W        W82326  28.071  39.271  12.997
10798W        W82327  15.801  23.441  14.288
10799W        W82328  36.906   0.357  11.590
10800W        W82329  37.468  26.487  13.063
10801W        W82330   5.101  13.697  13.166
10802W        W82331  25.894   3.985  13.925
10803W        W82332  19.773  23.174   4.709
10804W        W82333  40.918  29.539  10.738
10805W        W82334  18.422   7.832   4.934
10806W        W82335  13.702  16.275   1.308
10807W        W82336  44.640  23.247  13.527
10808W        W82337  37.404  32.074   4.167
10809W        W82338  30.097   9.758   4.394
10810W        W82339  39.583  11.782   4.734
10811W        W82340   8.987  10.179  14.807
10812W        W82341  28.600  24.561   1.310
10813W        W82342  10.700  21.192   1.824
10814W        W82343  34.103   0.987   3.735
10815W        W82344  27.038  21.290   0.481
10816W        W82345  35.640  28.952  14.277
10817W        W82346  16.003  34.056  12.055
10818W        W82347  30.287  37.954  10.663
10819W        W82348  24.551   3.633  13.940
10820W        W82349  32.758  35.902   2.961
10821W        W82350  27.023  22.660  11.683
10822W        W82351  30.580   2.443   2.818
10823W        W82352  22.088   9.414   1.411
10824W        W82353  16.318  19.548   2.162
10825W        W82354  39.661  15.406   1.776
10826W        W82355  20.701  32.469   4.827
10827W        W82356  43.300  44.837  12.621
10828W        W82357  18.056  14.413   2.142
10829W        W82358  26.537  24.275  11.242
10830W        W82359  28.342  32.657   5.044
10831W        W82360  29.887   7.632  14.953
10832W        W82361  18.309  38.602   3.224
10833W        W82362  36.283  28.262   3.211
10834W        W82363  34.957  27.575  12.057
10835W        W82364  18.042  11.397  12.644
10836W        W82365   2.230  43.993  10.669
10837W        W82366  11.544  15.363   3.196
10838W        W82367   0.066  34.592   3.570
10839W        W82368  23.755  11.722  13.858
10840W        W82369  22.129  19.997  10.872
10841W        W82370  38.009  24.750   3.204
10842W        W82371   8.439  35.617   2.942
10843W        W82372  14.467  39.849   4.452
10844W        W82373  25.938   6.407  11.127
10845W        W82374  43.862  22.289  11.987
10846W        W82375  40.584  16.329  13.367
10847W        W82376  20.115  32.879   0.990
10848W        W82377  34.129  17.201   4.744
10849W        W82378  21.558  31.727  14.816
10850W        W82379  19.750  15.305  10.799
10851W        W82380  25.596  41.586   4.488
10852W        W82381  18.031  44.491  13.567
10853W        W82382  33.640  11.129   0.546
10854W        W82383  39.239  37.892  14.082
10855W        W82384   2.336   8.729  12.825
10856W        W82385   0.998  14.737  12.055
10857W        W82386  40.857  33.090   4.614
10858W        W82387  14.008  39.793  13.355
10859W        W82388  17.367   8.554   0.368
10860W        W82389  42.299  38.264   3.063
10861W        W82390  34.136  25.205  14.466
10862W        W82391  16.036  36.579   3.588
10863W        W82392  44.266   9.469   0.714
10864W        W82393   2.232  21.451   4.758
10865W        W82394  44.833  14.639  12.384
10866W        W82395  18.464  31.339  14.998
10867W        W82396  15.805   0.343  12.835
10868W        W82397  18.629   2.912  13.958
10869W        W82398  26.939  40.466  14.836
10870W        W82399  36.744  22.199   4.131
10871W        W82400  21.162  17.126  13.404
10872W        W82401   9.837   9.297  10.701
10873W        W82402  13.398   7.804   0.196
10874W        W82403  27.712  41.848  11.026
10875W        W82404  42.132  31.104   2.387
10876W        W82405   2.183  16.693  12.470
10877W        W82406  27.808  11.845  13.914
10878W        W82407  23.297  35.457  13.074
10879W        W82408  18.454   7.875   1.328
10880W        W82409  12.474  37.037  11.367
10881W        W82410  21.034  22.729  14.342
10882W        W82411   7.315  33.895   4.411
10883W        W82412  44.165  32.170  13.553
10884W        W82413   3.847  44.059  11.716
10885W        W82414  10.929  35.549  14.333
10886W        W82415  10.183  19.249  14.331
10887W        W82416  23.644   8.147  14.301
10888W        W82417  27.998   9.623   4.664
10889W        W82418  42.535  43.420  13.968
10890W        W82419  43.262  15.224   2.672
10891W        W82420  41.514  43.313  11.103
10892W        W82421  12.408  41.775  11.556
10893W        W82422  17.634  25.669  13.013
10894W        W82423  39.974  30.059  14.346
10895W        W82424  38.030  26.496  12.448
10896W        W82425  43.593  44.372  11.049
10897W        W82426  17.947  36.385  11.434
10898W        W82427  18.083  13.886  11.692
10899W        W82428  14.902  22.703  11.323
10900W        W82429  23.927  15.384  11.616
10901W        W82430  24.726  16.685   1.862
10902W        W82431  44.852  16.532  12.460
10903W        W82432  30.940  41.962   4.621
10904W        W82433  41.170   1.398  12.548
10905W        W82434  21.091  44.749  10.858
10906W        W82435  21.446  33.370   1.295
10907W        W82436   3.861   2.890  13.024
10908W        W82437   6.394  25.193  10.597
10909W        W82438  41.170  11.328  10.810
10910W        W82439   0.161   2.782   1.898
10911W        W82440   1.696  28.734   2.665
10912W        W82441   3.381  18.853   5.123
10913W        W82442  30.107  15.111   4.060
10914W        W82443   6.214  34.036   1.218
10915W        W82444  27.435  15.047   0.918
10916W        W82445  42.521  23.118   3.853
10917W        W82446  26.555  42.205   2.156
10918W        W82447   0.386   1.340   4.944
10919W        W82448  34.922   6.628   0.778
10920W        W82449  13.473  27.914   4.985
10921W        W82450  29.974  12.602  11.982
10922W        W82451  19.379  35.863   2.232
10923W        W82452  23.451  32.521   4.185
10924W        W82453  19.214  41.258   2.571
10925W        W82454  38.637  26.504  12.012
10926W        W82455   4.441   4.872  12.929
10927W        W82456  43.447  39.553  14.375
10928W        W82457  35.031  24.637   0.867
10929W        W82458  19.535  15.073  11.216
10930W        W82459   4.810  33.154   3.661
10931W        W82460  40.046  30.630   4.314
10932W        W82461  26.407  14.615  13.988
10933W        W82462  10.937  32.187   0.726
10934W        W82463  21.005  38.189  11.525
10935W        W82464  29.572  22.566   1.826
10936W        W82465  13.388  44.373  13.484
10937W        W82466  26.963  16.551   1.337
10938W        W82467  23.741  31.425  12.885
10939W        W82468  27.200  10.611  12.664
10940W        W82469  33.928  10.191   1.407
10941W        W82470  20.202  26.897   1.697
10942W        W82471   0.428  27.234   1.865
10943W        W82472  21.772  42.971  10.407
10944W        W82473   0.391   1.920  11.540
10945W        W82474  16.314  22.726  11.567
10946W        W82475   6.783   0.363   4.584
10947W        W82476  37.331   0.917   1.136
10948W        W82477   2.579  24.159  13.001
10949W        W82478  29.364   5.287  12.864
10950W        W82479  33.136  33.982  12.113
10951W        W82480  26.425  30.557   2.692
10952W        W82481  40.888   1.126  12.125
10953W        W82482   9.441   0.323  12.609
10954W        W82483  29.592  23.664  10.729
10955W        W82484  15.200  10.324   0.210
10956W        W82485  11.597  30.700   4.196
10957W        W82486  17.153  38.121  10.389
10958W        W82487  31.403  26.241  12.507
10959W        W82488  27.604  12.777   4.659
10960W        W82489  18.608  19.750   1.928
10961W        W82490  27.573   3.480  11.319
10962W        W82491  26.260  11.698  11.891
10963W        W82492  43.449  22.584   4.579
10964W        W82493   7.490  16.368  10.755
10965W        W82494   8.577  24.991  13.349
10966W        W82495  20.220   2.186   0.297
10967W        W82496   8.741   9.818   4.388
10968W        W82497  44.319  25.520  10.690
10969W        W82498  10.420  21.710   5.185
10970W        W82499  15.913  43.215   3.128
10971W        W82500  20.127  36.103   2.322
10972W        W82501   0.433  41.239  12.477
10973W        W82502  29.131  25.696  10.160
10974W        W82503  34.318  19.583   1.364
10975W        W82504  34.804   7.668   1.307
10976W        W82505  10.404  25.452  14.892
10977W        W82506  21.911  22.258   2.818
10978W        W82507  42.831   2.380  11.641
10979W        W82508  24.194   4.068   2.504
10980W        W82509  36.885  28.129  11.469
10981W        W82510   7.872   4.988  13.461
10982W        W82511  10.139  28.152   3.348
10983W        W82512   5.727  39.924   4.813
10984W        W82513   4.870   6.926   2.461
10985W        W82514  16.091  13.547   0.027
10986W        W82515   1.199  22.505   0.453
10987W        W82516  37.592   2.324  13.951
10988W        W82517  32.615  15.553  13.981
10989W        W82518  44.959  29.268   0.345
10990W        W82519  32.955   7.915  12.802
10991W        W82520   6.965  26.082  13.141
10992W        W82521   3.324  37.961   4.959
10993W        W82522  40.461  13.635  11.901
10994W        W82523  43.456  23.046   4.272
10995W        W82524  13.064  18.650  14.714
10996W        W82525  42.990   9.526   1.508
10997W        W82526  32.912  44.399  13.545
10998W        W82527  15.287  38.894   1.744
10999W        W82528  28.571  14.908   1.747
11000W        W82529   5.843  14.705   3.725
11001W        W82530  19.182  41.458   2.083
11002W        W82531  39.358  29.875   4.196
11003W        W82532  23.743  37.474   4.589
11004W        W82533  10.178  39.834  14.130
11005W        W82534  22.583  17.871   0.334
11006W        W82535  14.244  30.826   0.366
11007W        W82536  27.515   0.784  10.913
11008W        W82537  41.330  11.131  12.979
11009W        W82538  33.874   5.981   2.777
11010W        W82539   7.213   6.199   2.796
11011W        W82540   3.476  28.472   3.178
11012W        W82541  12.538  27.050  13.546
11013W        W82542   0.811  31.884  14.357
11014W        W82543  29.224  23.232   4.366
11015W        W82544   6.392  25.635  14.223
11016W        W82545  28.154  21.299  12.950
11017W        W82546  37.039  42.947   2.492
11018W        W82547  29.702   4.426   2.371
11019W        W82548   2.654   4.200  14.846
11020W        W82549  28.937  20.685   0.930
11021W        W82550  30.548  32.666  14.852
11022W        W82551  38.781  11.563   3.114
11023W        W82552  30.688  31.666  11.135
11024W        W82553  31.630  36.047  11.068
11025W        W82554  37.860  16.905  12.714
11026W        W82555  36.654  15.136   0.901
11027W        W82556  21.706  15.031  11.171
11028W        W82557  34.558  16.145  12.099
11029W        W82558   7.562  12.250  10.760
11030W        W82559  38.383  12.379  10.656
11031W        W82560   3.278  11.142   2.848
11032W        W82561  35.606  44.755  12.094
11033W        W82562  15.889  20.723   0.865
11034W        W82563  23.208  33.928  13.704
11035W        W82564  42.405  44.252  11.918
11036W        W82565   6.239   4.156  11.621
11037W        W82566   2.448  26.143  13.909
11038W        W82567  31.203  16.013   0.883
11039W        W82568  19.203   4.242   3.676
11040W        W82569  15.815  25.457  14.743
11041W        W82570  32.107  32.415   4.337
11042W        W82571  30.746  20.052   3.652
11043W        W82572   0.197   6.413   2.157
11044W        W82573   9.376   0.464   0.518
11045W        W82574  32.491  26.738   0.244
11046W        W82575   0.712  18.683  14.903
11047W        W82576  14.372   9.155  14.836
11048W        W82577   0.987  26.925   4.616
11049W        W82578   7.272  26.976   3.174
11050W        W82579  39.126   0.364  13.860
11051W        W82580  33.921  17.238   0.598
11052W        W82581  34.305  14.886  13.420
11053W        W82582  22.217  22.678  14.444
11054W        W82583  33.913  26.681  14.991
11055W        W82584  37.971  26.238  11.524
11056W        W82585  14.416  13.327   1.008
11057W        W82586   9.556  25.242  10.163
11058W        W82587  29.903  43.744  11.257
11059W        W82588  40.000  37.349   4.834
11060W        W82589  32.634  27.616   2.719
11061W        W82590   7.207   3.258   0.920
11062W        W82591  34.436  44.452  13.619
11063W        W82592  14.903  35.101  12.946
11064W        W82593  22.969  28.180  12.120
11065W        W82594  27.871  15.930   0.338
11066W        W82595  26.151  13.036   4.665
11067W        W82596  14.642   8.403   4.115
11068W        W82597  27.024  22.260  12.158
11069W        W82598   8.020   4.622   4.232
11070W        W82599  24.547  35.577   0.238
11071W        W82600  16.663  14.336   4.681
11072W        W82601  41.297  13.027   2.188
11073W        W82602   2.818  27.100   2.436
11074W        W82603  44.464  20.194  11.166
11075W        W82604  39.661   8.356   0.492
11076W        W82605   1.053  11.222  13.775
11077W        W82606   6.137   3.282   4.140
11078W        W82607  37.936  20.124   1.154
11079W        W82608  31.773   5.164  14.922
11080W        W82609  34.990   4.460   1.913
11081W        W82610  34.617   8.707  11.539
11082W        W82611  11.819  38.674   0.733
11083W        W82612  17.072  10.185  11.848
11084W        W82613  22.815  38.958  12.186
11085W        W82614  36.822  41.391  13.488
11086W        W82615  41.918  22.711   2.851
11087W        W82616   5.665  43.651   4.607
11088W        W82617  19.359   6.789   4.880
11089W        W82618   5.990   5.458   4.473
11090W        W82619  38.967  17.801   1.937
11091W        W82620   3.223   6.668   5.064
11092W        W82621  35.101   9.294   4.496
11093W        W82622  13.395  40.885  13.830
11094W        W82623  43.288  16.052   4.644
11095W        W82624  42.323  15.904  11.711
11096W        W82625  20.985  11.143   1.203
11097W        W82626  32.231  28.531   1.350
11098W        W82627  39.087  21.890   2.170
11099W        W82628   6.819  40.924   2.420
11100W        W82629  37.490   2.050   2.690
11101W        W82630  43.750  21.385  11.701
11102W        W82631  28.406   2.674   3.256
11103W        W82632   6.832  30.506   2.197
11104W        W82633  29.778  17.237   0.234
11105W        W82634  29.477  33.919   1.523
11106W        W82635  17.660   5.672  12.141
11107W        W82636  21.535  23.726  10.710
11108W        W82637  27.109  24.617   4.533
11109W        W82638   5.519  35.832   0.104
11110W        W82639  40.365  33.966   2.094
11111W        W82640  11.313   1.245  13.056
11112W        W82641  15.734  19.177  10.550
11113W        W82642  41.529   4.663  11.049
11114W        W82643  32.654  19.443   2.554
11115W        W82644  16.808  20.967   2.365
11116W        W82645  37.123  31.755  11.088
11117W        W82646  21.166  41.951   3.604
11118W        W82647   1.374   9.432   0.311
11119W        W82648   9.396   1.406   2.730
11120W        W82649   0.031  17.738  12.171
11121W        W82650  21.093   2.308  12.804
11122W        W82651  35.999  10.589   3.381
11123W        W82652   8.854  25.609   2.806
11124W        W82653  20.095  21.080  11.470
11125W        W82654  25.639  10.366  10.684
11126W        W82655  44.699   5.273  12.427
11127W        W82656   5.365  19.232   1.290
11128W        W82657  27.150  29.582  11.680
11129W        W82658   1.756  39.325   3.023
11130W        W82659  44.650   1.943  12.257
11131W        W82660  13.169   6.703   4.494
11132W        W82661   9.206  32.433   3.001
11133W        W82662  33.165  36.090  11.998
11134W        W82663  35.785  22.337   1.529
11135W        W82664   4.742   5.123   5.011
11136W        W82665  31.634  40.037   3.188
11137W        W82666  35.640  25.624  10.588
11138W        W82667   8.590  38.058  12.085
11139W        W82668   5.490   3.600   0.399
11140W        W82669  10.200  24.618   3.386
11141W        W82670  44.442  37.948  11.700
11142W        W82671  35.513  18.112   4.597
11143W        W82672  25.613  39.815   0.708
11144W        W82673  42.266  23.028   0.391
11145W        W82674  28.557  18.895  12.435
11146W        W82675  36.000  23.262  12.362
11147W        W82676  43.955  14.886   4.260
11148W        W82677  37.388   2.084  12.505
11149W        W82678  10.991  17.310   3.931
11150W        W82679  42.375  30.123   3.223
11151W        W82680  38.859   5.235   3.474
11152W        W82681  31.117   7.643   4.198
11153W        W82682  38.420  31.047  14.055
11154W        W82683  40.045   3.954   2.576
11155W        W82684  13.119  22.829   4.069
11156W        W82685  22.960  20.868   2.388
11157W        W82686  20.148  28.806   0.730
11158W        W82687  25.941  26.080   4.561
11159W        W82688  12.643  21.881  10.990
11160W        W82689  27.119  32.646  13.340
11161W        W82690  38.580  38.033   1.407
11162W        W82691  34.430  10.740   0.785
11163W        W82692   2.604   8.053   0.844
11164W        W82693   0.991  19.664   5.020
11165W        W82694   4.801   5.285   1.688
11166W        W82695  29.037  21.672   4.768
11167W        W82696  14.020   9.981  12.147
11168W        W82697  34.874  43.955  12.459
11169W        W82698  43.804  21.687   4.327
11170W        W82699   0.794  31.963  11.963
11171W        W82700  41.763  18.866  13.271
11172W        W82701  16.160  33.881   3.640
11173W        W82702  21.781  30.496  10.863
11174W        W82703  43.635  20.272   4.181
11175W        W82704  31.546   7.718   3.395
11176W        W82705  23.781  11.495   0.576
11177W        W82706  39.341  31.652  12.067
11178W        W82707  43.928  38.251  13.430
11179W        W82708  30.345  13.277  14.872
11180W        W82709  42.446  43.749   0.825
11181W        W82710  42.556   1.925  14.294
11182W        W82711  19.257  10.724   2.843
11183W        W82712  38.850  24.594   0.738
11184W        W82713  15.738  17.089   0.151
11185W        W82714  32.496  22.123  14.257
11186W        W82715  39.591  28.280   0.818
11187W        W82716  22.835  40.114  12.447
11188W        W82717  13.244  34.902   1.326
11189W        W82718  26.904  30.573  11.689
11190W        W82719   8.117   2.027   0.801
11191W        W82720  21.468   4.739   5.247
11192W        W82721  41.415  16.515  11.253
11193W        W82722  11.687   4.414   1.922
11194W        W82723  12.376  33.459   0.257
11195W        W82724   4.181  34.169   0.935
11196W        W82725  21.631  33.496  11.161
11197W        W82726  16.930   7.785  12.487
11198W        W82727  41.712   5.500   1.181
11199W        W82728  31.606   4.864   1.871
11200W        W82729  22.221   2.022   0.406
11201W        W82730  26.091  22.813  12.991
11202W        W82731  20.689  16.691  12.582
11203W        W82732   6.962   3.821   0.776
11204W        W82733  21.846  41.568   0.196
11205W        W82734   4.452  16.687   0.030
11206W        W82735  44.038  27.435  13.843
11207W        W82736  25.467  38.920   2.821
11208W        W82737  26.500  13.401  13.441
11209W        W82738   9.053  43.018   0.717
11210W        W82739  12.383  16.763  11.640
11211W        W82740  28.606  22.271   1.343
11212W        W82741  24.330  10.822  12.066
11213W        W82742  21.646  41.289  14.274
11214W        W82743  18.260  31.025   1.978
11215W        W82744  13.087  29.911  14.254
11216W        W82745   7.904  16.132   3.186
11217W        W82746   3.512  16.611  13.307
11218W        W82747  11.768  30.400   3.354
11219W        W82748  28.858  14.183   2.914
11220W        W82749  36.483  40.112   0.302
11221W        W82750  34.581  26.870   4.160
11222W        W82751  37.544  34.010   2.732
11223W        W82752  20.753   2.123  14.037
11224W        W82753  24.298  10.343   0.916
11225W        W82754  35.239  33.423   2.689
11226W        W82755  21.816  24.641  12.104
11227W        W82756  29.004  33.064   3.292
11228W        W82757   9.044  44.293  11.128
11229W        W82758   4.874  24.584  14.729
11230W        W82759   4.965  26.205  11.528
11231W        W82760  42.856  18.255  13.255
11232W        W82761  33.428   0.442  12.623
11233W        W82762  27.952  20.674   3.628
11234W        W82763  40.568  30.623   1.227
11235W        W82764  14.725  15.327   1.407
11236W        W82765  15.557  26.623   4.532
11237W        W82766   5.837  37.278  14.789
11238W        W82767   2.334   0.995   1.340
11239W        W82768  16.020  42.313  13.477
11240W        W82769  41.266  15.582  13.915
11241W        W82770   4.197  41.076  14.923
11242W        W82771  27.401  34.858   3.161
11243W        W82772  30.542  23.519   3.125
11244W        W82773  21.697  19.254   0.862
11245W        W82774   2.555  35.074   2.781
11246W        W82775  40.136  19.599  12.069
11247W        W82776  30.968  33.919   0.471
11248W        W82777  18.515  12.056   0.505
11249W        W82778  20.020   2.334  14.320
11250W        W82779  33.609   0.281   0.950
11251W        W82780  11.742  32.118   4.337
11252W        W82781   9.720   7.503  14.900
11253W        W82782  25.719  16.187  11.114
11254W        W82783  21.911  27.752  12.312
11255W        W82784  18.240  20.569  14.324
11256W        W82785  38.509  27.683   2.731
11257W        W82786   1.723  18.098  11.659
11258W        W82787  17.172  40.016   2.757
11259W        W82788   1.237   8.646  13.964
11260W        W82789  43.957  26.925   1.026
11261W        W82790  39.869  28.600  10.661
11262W        W82791  42.790  21.521  14.824
11263W        W82792  39.888  28.373   3.299
11264W        W82793  23.725  25.733   4.026
11265W        W82794  12.381   6.551   2.672
11266W        W82795  11.337   2.815  13.506
11267W        W82796  29.230   5.339  12.007
11268W        W82797  39.294  14.192   4.624
11269W        W82798   1.041   0.785  13.974
11270W        W82799  28.888  28.584   3.698
11271W        W82800  41.283  32.258  14.380
11272W        W82801  15.701  38.543  10.681
11273W        W82802   4.670   5.397   4.178
11274W        W82803  12.406   9.658   0.363
11275W        W82804   0.257  20.151   0.730
11276W        W82805   2.821   3.884   4.237
11277W        W82806  28.042  16.336  14.448
11278W        W82807  32.131  21.282   2.773
11279W        W82808  13.799   6.059  11.649
11280W        W82809  29.919  33.983  14.684
11281W        W82810  38.984   0.716   3.545
11282W        W82811  38.938  14.546  10.108
11283W        W82812  42.831  16.523   0.379
11284W        W82813  12.028  34.933  12.217
11285W        W82814  31.629  14.091   4.207
11286W        W82815  41.845  24.083   4.648
11287W        W82816  38.975  40.200  13.692
11288W        W82817  36.525  12.833  10.182
11289W        W82818  20.823  40.993   3.159
11290W        W82819  28.545   3.970  13.971
11291W        W82820  18.644  36.945  11.709
11292W        W82821  20.825   1.308   0.344
11293W        W82822   8.660  24.717  11.115
11294W        W82823   1.995  34.073   3.212
11295W        W82824   0.960  42.852   1.113
11296W        W82825  16.024  40.027  10.234
11297W        W82826  39.979  25.438  12.475
11298W        W82827  12.415  27.647   4.630
11299W        W82828  29.797  23.038   1.776
11300W        W82829  31.127   1.191   2.904
11301W        W82830  32.947   3.962   1.758
11302W        W82831   3.905   8.649  10.518
11303W        W82832  37.898  37.109   4.866
11304W        W82833  33.098   6.694   0.195
11305W        W82834   9.205  27.213   1.280
11306W        W82835  15.285  15.791  13.703
11307W        W82836  12.667  23.968   0.299
11308W        W82837  33.209   9.688  14.345
11309W        W82838   3.353  34.979   4.943
11310W        W82839  30.921   7.364  11.943
11311W        W82840  27.860  11.998   9.996
11312W        W82841  19.389  35.608   0.733
11313W        W82842   1.221  27.635   3.390
11314W        W82843   0.752   8.235   1.377
11315W        W82844  21.150   5.689  10.053
11316W        W82845  40.310  19.159  14.874
11317W        W82846  43.692  30.378   2.432
11318W        W82847  18.514  29.141  13.021
11319W        W82848   8.180  21.650  12.502
11320W        W82849  17.281  40.578  14.032
11321W        W82850  12.073   4.434   1.574
11322W        W82851  31.951  35.635   0.955
11323W        W82852  17.033  36.300   0.724
11324W        W82853   0.927  36.078   5.288
11325W        W82854  22.974  32.329  12.035
11326W        W82855  35.693   7.177   1.352
11327W        W82856  11.345  22.762   3.229
11328W        W82857  34.106   2.641  12.089
11329W        W82858  22.674  42.218   0.353
11330W        W82859  35.002  38.088  14.478
11331W        W82860  22.338  11.721   2.692
11332W        W82861  10.143  24.053   4.167
11333W        W82862  31.951  33.278   1.499
11334W        W82863  43.194  41.351   1.374
11335W        W82864   7.304  12.772   0.690
11336W        W82865  28.406   5.996  14.100
11337W        W82866  15.125   7.934  12.144
11338W        W82867   2.511  42.210  13.436
11339W        W82868  40.094   6.940   4.169
11340W        W82869   9.702  12.457  10.683
11341W        W82870  39.752  40.288  10.951
11342W        W82871   7.818   7.706   9.815
11343W        W82872  16.727  36.285   4.198
11344W        W82873  24.999  18.895   4.627
11345W        W82874  25.001  23.210   0.246
11346W        W82875  31.641  27.472   3.768
11347W        W82876  38.669  12.736   1.160
11348W        W82877   2.191  30.924   0.065
11349W        W82878   3.869  37.974  14.575
11350W        W82879  21.684  20.494   1.306
11351W        W82880  32.422   1.427  11.603
11352W        W82881   3.496  36.345   0.501
11353W        W82882  14.629  37.527   2.437
11354W        W82883  30.945   4.427   2.228
11355W        W82884   3.269  23.029   3.367
11356W        W82885  16.265  38.847  11.652
11357W        W82886   5.405  41.385  13.656
11358W        W82887  40.683  22.160   1.523
11359W        W82888  16.255  35.436  12.458
11360W        W82889   0.579  42.789  12.495
11361W        W82890  26.578  28.568  10.668
11362W        W82891  20.100  44.039  12.590
11363W        W82892  10.191  29.943   2.290
11364W        W82893  42.700  10.457   2.703
11365W        W82894  36.798  42.118  13.120
11366W        W82895  35.612  30.739  12.463
11367W        W82896  21.199  18.227   2.761
11368W        W82897   0.189  34.716   2.162
11369W        W82898  44.131   8.455  14.803
11370W        W82899  10.967  24.623  12.934
11371W        W82900  33.360  11.779   4.156
11372W        W82901  12.015  15.246   1.826
11373W        W82902  36.793  14.338  13.504
11374W        W82903  11.167   0.737   1.351
11375W        W82904  29.113  17.133  10.789
11376W        W82905  28.755  33.145  13.068
11377W        W82906  11.881  31.129   4.084
11378W        W82907  31.981  10.721  13.852
11379W        W82908   1.417   5.853  13.561
11380W        W82909  13.739  11.063  13.831
11381W        W82910  40.454   9.744  14.529
11382W        W82911  19.999  22.628  14.231
11383W        W82912  15.079   8.304   3.395
11384W        W82913  22.471  17.265  11.540
11385W        W82914   3.308  32.004   5.286
11386W        W82915  29.228  38.920   3.076
11387W        W82916  43.304  41.467  10.856
11388W        W82917  37.096  15.631  14.429
11389W        W82918  20.024  32.319  12.403
11390W        W82919  41.664  16.016   1.681
11391W        W82920  15.033   5.354  12.112
11392W        W82921  37.950  29.943   1.210
11393W        W82922   5.377  40.667   3.223
11394W        W82923   6.682  30.066   4.880
11395W        W82924   3.805  40.805  10.652
11396W        W82925   2.398  34.684  11.980
11397W        W82926  22.940  23.503  13.134
11398W        W82927   0.531  18.537   0.386
11399W        W82928   5.736  25.397   2.931
11400W        W82929  24.731  11.850   3.886
11401W        W82930  15.124  33.556   4.330
11402W        W82931  22.873  40.508  10.338
11403W        W82932  12.244  18.721   2.252
11404W        W82933  15.425  19.210   1.777
11405W        W82934   2.238  26.402   3.239
11406W        W82935   8.063   2.890   2.858
11407W        W82936  35.803  32.498   1.634
11408W        W82937   0.222   7.713  13.108
11409W        W82938   2.880   8.389   2.990
11410W        W82939  29.271  40.927   2.334
11411W        W82940  18.964  16.593   2.252
11412W        W82941  11.420  33.016  13.608
11413W        W82942  12.792   2.210  12.134
11414W        W82943  33.436  19.287  12.860
11415W        W82944  36.884  44.967  11.945
11416W        W82945  14.821  31.146   2.640
11417W        W82946   9.757   4.734   4.467
11418W        W82947  15.609  11.571   1.488
11419W        W82948  22.626  26.706   0.944
11420W        W82949   0.348  18.136   4.610
11421W        W82950   2.206  40.025   4.029
11422W        W82951  32.505   4.951   2.313
11423W        W82952   0.100  30.025   4.046
11424W        W82953  42.442  42.419  13.963
11425W        W82954   3.511  41.401   1.681
11426W        W82955  13.344  32.836   3.802
11427W        W82956   4.699  25.940  11.185
11428W        W82957  41.476   7.665  11.638
11429W        W82958   4.194  35.387  10.680
11430W        W82959  12.815  27.580   3.356
11431W        W82960  32.522  40.540  10.653
11432W        W82961  15.764  33.036  13.065
11433W        W82962  12.196  27.713  13.132
11434W        W82963  17.528  24.420  14.601
11435W        W82964  30.121  43.886   1.698
11436W        W82965   3.650   0.426  13.360
11437W        W82966  30.056  36.063  13.370
11438W        W82967  14.826   4.831   1.861
11439W        W82968  44.566  31.409   4.503
11440W        W82969   7.299  37.482   2.768
11441W        W82970  22.459  16.146   3.659
11442W        W82971  15.289  28.435   0.867
11443W        W82972  12.876  22.243  14.873
11444W        W82973   2.790  21.374  14.039
11445W        W82974  19.189  32.074   0.216
11446W        W82975   8.600  44.551   4.111
11447W        W82976   6.497   2.841  11.571
11448W        W82977  22.137  17.023  12.314
11449W        W82978  23.958  19.828   0.389
11450W        W82979  19.522  39.760   2.059
11451W        W82980  30.519  22.122   4.449
11452W        W82981  13.330  28.792   1.456
11453W        W82982  12.265  29.409   2.215
11454W        W82983  41.491   7.885   3.822
11455W        W82984   5.424  20.242  11.971
11456W        W82985   7.367  28.493  13.017
11457W        W82986  43.914  14.171  14.924
11458W        W82987   8.333  22.057  10.760
11459W        W82988  37.974  20.330   2.925
11460W        W82989  37.903   4.886  11.175
11461W        W82990  31.896   9.929  14.115
11462W        W82991  18.577  20.020  10.964
11463W        W82992  17.280  18.171   3.200
11464W        W82993  18.636   6.576  13.429
11465W        W82994  20.325  14.261  11.475
11466W        W82995  30.947   3.545   4.166
11467W        W82996   0.939  16.305   3.082
11468W        W82997  11.368  37.521  13.401
11469W        W82998  39.785  39.499  13.852
11470W        W82999  40.759  19.182   4.197
11471W        W83000  22.241  20.720   1.750
11472W        W83001  13.177  26.933   2.667
11473W        W83002  15.262  35.646   2.276
11474W        W83003   7.160   6.735  12.414
11475W        W83004   2.474  11.697  12.028
11476W        W83005   0.227  43.764  11.303
11477W        W83006  43.067  42.410   4.564
11478W        W83007  33.603  22.065  11.578
11479W        W83008  28.426  31.743   4.957
11480W        W83009   5.464  19.614   3.108
11481W        W83010   2.785  18.124   0.374
11482W        W83011  30.418  30.977  10.737
11483W        W83012  24.745  41.153  11.860
11484W        W83013  29.974  24.593   4.924
11485W        W83014  27.399   9.724   0.495
11486W        W83015  42.226   3.177   4.478
11487W        W83016  40.749  38.572   1.387
11488W        W83017  25.459  10.193  14.495
11489W        W83018  40.219  15.655   1.135
11490W        W83019  25.217  40.441  13.418
11491W        W83020  20.007   6.102  11.581
11492W        W83021  38.112   1.172  11.699
11493W        W83022  17.082   8.307  12.421
11494W        W83023  44.834   0.204  12.028
11495W        W83024  19.976  15.830  10.975
11496W        W83025  25.080  36.890  10.517
11497W        W83026  42.296   9.416   2.102
11498W        W83027  41.882  39.925  12.128
11499W        W83028  17.906  33.986  11.095
11500W        W83029   2.625  18.532  10.771
11501W        W83030  43.760  34.258   3.397
11502W        W83031   2.015  24.220   4.037
11503W        W83032  33.526  35.800   5.058
11504W        W83033   6.661  20.724   9.834
11505W        W83034  44.217  41.945   4.019
11506W        W83035  26.271  27.414   0.965
11507W        W83036  14.162  16.310   3.453
11508W        W83037  15.147  33.081   4.119
11509W        W83038  12.090  13.404  12.960
11510W        W83039  26.547  13.589  12.923
11511W        W83040   9.799  38.991   2.445
11512W        W83041  41.467   5.457  13.859
11513W        W83042  31.983  19.100   4.921
11514W        W83043  41.346  37.054  12.912
11515W        W83044   8.141   3.928   4.445
11516W        W83045  25.555  17.501   4.211
11517W        W83046  33.677   8.914  13.968
11518W        W83047   4.449  42.371   0.341
11519W        W83048  36.091   1.658   1.014
11520W        W83049  24.309  32.529  14.820
11521W        W83050   1.080  24.465  14.965
11522W        W83051   1.159  38.259  13.095
11523W        W83052  19.045  33.831   5.052
11524W        W83053  31.558  32.735  11.163
11525W        W83054  36.010  32.684   0.792
11526W        W83055   8.634  14.054   1.308
11527W        W83056  37.984  39.034   4.930
11528W        W83057  41.149   8.318  14.940
11529W        W83058   1.587  16.363   1.856
11530W        W83059  42.509  22.591   4.926
11531W        W83060  25.657  34.093   4.049
11532W        W83061  27.105   2.890  13.439
11533W        W83062  25.945  31.396   2.941
11534W        W83063  24.964  15.619  13.025
11535W        W83064  19.365   0.859   4.558
11536W        W83065  23.777  23.984  13.081
11537W        W83066   9.559  30.691  11.082
11538W        W83067   2.310  23.519   3.709
11539W        W83068   6.594  36.464   0.724
11540W        W83069  10.303  33.217  12.646
11541W        W83070  10.163  13.762  12.646
11542W        W83071  16.605  21.853   1.675
11543W        W83072   5.003   6.716   1.445
11544W        W83073  40.866  40.858   4.828
11545W        W83074  34.571  44.338  11.658
11546W        W83075   3.599  15.930   3.446
11547W        W83076  17.863  25.706   0.754
11548W        W83077   1.681  43.214  12.501
11549W        W83078  31.469   0.900   2.630
11550W        W83079  19.982  16.824  13.824
11551W        W83080  36.364  41.625   3.001
11552W        W83081  44.857  24.276  13.332
11553W        W83082  40.176  26.665  11.057
11554W        W83083  12.329  32.394   3.802
11555W        W83084  29.283   6.441  13.280
11556W        W83085  41.783   1.803  14.978
11557W        W83086   4.457  16.326  10.691
11558W        W83087  30.203  29.084  10.652
11559W        W83088  13.312   7.275   5.028
11560W        W83089  15.297  32.888  13.210
11561W        W83090  26.857  37.696  14.837
11562W        W83091  37.067  22.236   2.289
11563W        W83092  17.634   9.430   1.982
11564W        W83093   6.085  22.394   5.287
11565W        W83094  26.217  26.793   2.351
11566W        W83095  26.542  25.525   2.704
11567W        W83096  12.182  35.896   0.279
11568W        W83097  31.504   9.413   4.178
11569W        W83098  23.283   0.526  12.550
11570W        W83099  41.300  18.569   0.400
11571W        W83100  23.228  44.485   0.030
11572W        W83101  22.965  31.413  11.478
11573W        W83102  36.095  27.479   2.856
11574W        W83103  29.030  19.105   4.146
11575W        W83104  36.087  40.335   1.473
11576W        W83105   4.213  20.850  14.870
11577W        W83106  12.680  38.627  13.747
11578W        W83107  10.263  38.940   0.890
11579W        W83108  27.367  25.427  12.510
11580W        W83109  21.602  20.255  14.847
11581W        W83110  38.792  18.316  12.908
11582W        W83111   2.783  42.429   4.062
11583W        W83112  16.174  22.616   0.199
11584W        W83113  36.752  13.365   3.845
11585W        W83114   4.096  29.017   1.454
11586W        W83115  29.083  30.492  11.923
11587W        W83116   3.234  13.797   0.877
11588W        W83117  26.110   4.306   4.573
11589W        W83118  27.068   6.176  10.661
11590W        W83119  37.133   6.887  14.729
11591W        W83120  10.203  33.942   0.899
11592W        W83121  24.227  18.577   0.035
11593W        W83122   5.323  14.108   2.512
11594W        W83123  10.312  32.145  11.164
11595W        W83124   4.808   8.187  14.765
11596W        W83125  39.319  36.557   0.068
11597W        W83126  41.532  36.289  11.745
11598W        W83127  12.823  32.434   3.649
11599W        W83128  22.626  30.997  11.602
11600W        W83129  39.652  19.769   0.836
11601W        W83130   5.532  32.061  11.487
11602W        W83131  21.521  35.844  11.577
11603W        W83132  44.757  32.848   3.172
11604W        W83133  26.920  18.503  12.997
11605W        W83134  40.423  14.356   2.828
11606W        W83135  31.800  43.209  14.389
11607W        W83136  44.276  37.668   2.808
11608W        W83137  17.544  28.369   3.168
11609W        W83138  15.563  40.357   4.555
11610W        W83139   6.727  41.907   2.175
11611W        W83140  20.720  17.333  14.820
11612W        W83141  33.473  37.429   3.104
11613W        W83142  12.194  26.043  13.967
11614W        W83143  43.944  40.134  11.108
11615W        W83144  14.651  31.988  14.544
11616W        W83145   7.612  34.070   1.374
11617W        W83146  32.892  20.151   1.371
11618W        W83147  32.067   7.811  14.966
11619W        W83148  13.780  11.322  11.703
11620W        W83149  15.834  11.352  13.008
11621W        W83150  16.466  18.671   1.323
11622W        W83151   5.388  18.728  14.414
11623W        W83152   1.688   4.396  12.335
11624W        W83153  44.479   9.333   3.998
11625W        W83154  33.605  23.900  12.067
11626W        W83155  27.178   8.600  13.903
11627W        W83156   7.954  19.419   2.265
11628W        W83157  33.880  11.367   0.955
11629W        W83158  17.348  44.184   4.126
11630W        W83159  28.571   4.254  14.985
11631W        W83160  43.103  44.859  12.119
11632W        W83161  19.425  38.918   2.254
11633W        W83162  37.594  31.085   1.650
11634W        W83163  39.882  27.447   1.060
11635W        W83164  21.245   9.425  10.659
11636W        W83165  21.963  25.858  13.545
11637W        W83166  22.782   9.437  11.571
11638W        W83167  31.899  37.974   3.141
11639W        W83168  29.607   3.150   3.828
11640W        W83169   4.235  29.602  14.440
11641W        W83170  22.626  25.524   2.796
11642W        W83171  43.709  20.191  12.312
11643W        W83172  10.641  37.240   2.256
11644W        W83173  22.103  24.021   1.938
11645W        W83174  14.719   5.118  13.269
11646W        W83175   8.305  39.560   2.742
11647W        W83176  26.339  14.816   2.270
11648W        W83177   9.732  41.515   3.793
11649W        W83178  20.978   2.589   4.991
11650W        W83179  32.468  31.405   3.166
11651W        W83180  32.600  13.299   2.137
11652W        W83181   3.880  40.424   3.006
11653W        W83182   5.802  26.004  12.940
11654W        W83183  42.292  36.591   3.884
11655W        W83184  34.301   7.095  11.260
11656W        W83185  14.128  27.064   3.206
11657W        W83186   9.711  36.640  12.576
11658W        W83187  43.946  31.611   2.293
11659W        W83188  26.071   7.706   4.761
11660W        W83189  41.262  26.681   4.610
11661W        W83190   5.149  44.575  13.303
11662W        W83191  23.533  38.447  13.139
11663W        W83192   1.363   4.667   4.440
11664W        W83193  21.683  31.221  14.809
11665W        W83194  42.396  27.145   4.964
11666W        W83195   8.733  16.288   2.625
11667W        W83196  44.118  37.843   0.346
11668W        W83197  42.870  20.755  11.495
11669W        W83198  33.006  20.359   3.222
11670W        W83199  34.312  26.660  10.036
11671W        W83200  28.629  33.523   2.131
11672W        W83201  36.906  24.549  14.468
11673W        W83202  26.178  10.442  10.671
11674W        W83203  23.202  43.549   1.747
11675W        W83204  44.278  39.063   1.701
11676W        W83205   1.423  34.781   2.349
11677W        W83206  22.865  36.734  14.303
11678W        W83207  20.546  24.115   2.790
11679W        W83208  16.741  40.212   0.077
11680W        W83209  28.849   2.628   4.070
11681W        W83210  25.999   4.319   2.727
11682W        W83211  32.929  27.913  12.305
11683W        W83212   1.583  11.542  11.886
11684W        W83213  41.802  35.542  11.982
11685W        W83214  21.722   0.966  14.050
11686W        W83215   0.711  23.936   2.154
11687W        W83216   4.710  29.447  13.060
11688W        W83217  14.317  22.069  10.616
11689W        W83218   8.361  24.918   3.274
11690W        W83219  29.436   5.447   2.251
11691W        W83220  29.852  13.654   4.696
11692W        W83221  22.658  42.740   1.786
11693W        W83222  20.991  15.509   3.245
11694W        W83223  33.312  29.516   4.641
11695W        W83224  29.811  24.609  13.468
11696W        W83225  42.494  16.217   1.895
11697W        W83226  22.769  36.973  10.702
11698W        W83227  23.300  11.393  13.901
11699W        W83228  21.462  10.327   2.289
11700W        W83229   7.727  20.091  12.630
11701W        W83230   6.477  43.601  11.917
11702W        W83231  30.508  44.430   4.435
11703W        W83232  44.763  15.300  14.954
11704W        W83233   7.496  15.238   0.269
11705W        W83234  30.978  15.061   2.745
11706W        W83235  14.506   1.499  14.495
11707W        W83236  29.530  13.531  10.082
11708W        W83237   6.146  14.695  13.980
11709W        W83238  28.134  22.202   4.643
11710W        W83239  18.665   2.865  10.945
11711W        W83240   3.206  29.189   4.951
11712W        W83241   6.611  31.917  10.751
11713W        W83242  37.785   3.925  13.298
11714W        W83243   7.331  27.714   1.322
11715W        W83244  20.154  33.141   1.422
11716W        W83245   6.715  35.119  12.975
11717W        W83246  36.404  31.608   1.366
11718W        W83247   7.764  33.109  14.359
11719W        W83248   3.776   8.135  14.930
11720W        W83249   2.469  11.869  14.763
11721W        W83250   6.370   9.280  13.029
11722W        W83251  20.942  11.747  14.951
11723W        W83252   0.352  24.169   3.073
11724W        W83253   8.939  37.358   4.358
11725W        W83254  24.805   1.056  11.855
11726W        W83255  36.907  44.302  14.472
11727W        W83256  39.842  37.424   3.227
11728W        W83257  23.916  18.017   2.916
11729W        W83258  42.046  44.692  13.059
11730W        W83259  25.614  20.716   4.705
11731W        W83260  24.427  19.405  13.544
11732W        W83261   8.317  11.645  11.731
11733W        W83262  12.712  21.990  13.006
11734W        W83263  38.603   5.435  12.789
11735W        W83264  11.259  34.644   3.706
11736W        W83265   4.770  33.172  10.967
11737W        W83266  35.860  38.395   1.628
11738W        W83267  39.637   7.801   1.394
11739W        W83268  21.270  17.935   1.873
11740W        W83269   5.192  10.128  13.866
11741W        W83270  17.521  37.513   2.546
11742W        W83271  40.801  17.300   3.329
11743W        W83272  42.017  26.482  10.815
11744W        W83273  27.084  14.878   2.253
11745W        W83274  32.796   8.976  14.953
11746W        W83275  16.607  23.508  14.012
11747W        W83276  29.104   2.525   4.508
11748W        W83277  14.350  12.292  14.984
11749W        W83278  17.616  35.270   4.631
11750W        W83279  42.319  33.515  13.301
11751W        W83280  16.109  18.135  11.623
11752W        W83281  25.343  20.597  11.139
11753W        W83282  29.600  40.105   1.827
11754W        W83283  13.809   2.860   1.334
11755W        W83284   1.943   7.911   3.639
11756W        W83285   3.359  41.942   3.306
11757W        W83286  42.700  15.431   0.985
11758W        W83287  37.581  28.846  13.120
11759W        W83288  39.057   6.416   2.094
11760W        W83289  18.516  17.651   0.432
11761W        W83290   2.783  26.404   4.588
11762W        W83291   1.814  12.951  14.854
11763W        W83292  35.531  20.202   3.615
11764W        W83293  36.580   8.734   2.130
11765W        W83294  21.224   7.655   2.250
11766W        W83295   9.134  41.793  12.101
11767W        W83296  17.549  16.704  10.748
11768W        W83297  26.412  26.161   4.151
11769W        W83298  30.509  33.902   1.234
11770W        W83299  33.794   0.916  13.534
11771W        W83300  38.400   8.513  14.412
11772W        W83301  19.458  10.300   1.914
11773W        W83302  43.500  20.364   0.601
11774W        W83303  21.194  36.477  11.058
11775W        W83304  38.887  22.527  13.971
11776W        W83305  24.524  37.206   1.728
11777W        W83306  28.953  18.052   4.654
11778W        W83307  10.124  36.246   5.129
11779W        W83308  31.678  35.317  14.441
11780W        W83309  35.985  44.294   0.760
11781W        W83310  29.348  39.461  14.491
11782W        W83311  26.889   1.489  12.103
11783W        W83312  41.833  11.235  12.824
11784W        W83313   5.576  16.604   0.928
11785W        W83314  39.397  40.576   2.789
11786W        W83315  23.186  10.363  13.878
11787W        W83316  23.175  44.016   4.645
11788W        W83317  36.835   3.868   4.424
11789W        W83318  31.405  42.248   0.823
11790W        W83319  22.462  39.354   0.338
11791W        W83320  20.999   7.358   3.486
11792W        W83321  33.284  38.275  12.528
11793W        W83322  27.762  13.219   1.966
11794W        W83323  19.015  23.798  11.527
11795W        W83324   0.700  34.805  11.269
11796W        W83325   5.434  15.766   2.209
11797W        W83326  24.367  24.373  13.917
11798W        W83327  34.368  38.915  10.755
11799W        W83328  41.368   2.857  12.457
11800W        W83329  14.561   1.494   0.923
11801W        W83330  13.370  15.856   3.225
11802W        W83331   8.055  22.720  10.098
11803W        W83332  40.293  24.499   2.818
11804W        W83333  43.866  21.977   2.069
11805W        W83334  15.941  37.877  13.120
11806W        W83335  44.130  21.728  14.365
11807W        W83336  42.505  34.648  13.344
11808W        W83337   0.390  35.633  11.227
11809W        W83338  27.547  13.291  11.959
11810W        W83339  18.142  23.050   3.685
11811W        W83340   7.373  14.381  14.238
11812W        W83341  10.698  33.412  11.538
11813W        W83342  44.381  22.049   3.695
11814W        W83343  36.687  24.351  11.112
11815W        W83344   9.755  30.366   0.233
11816W        W83345  13.116  38.801   3.226
11817W        W83346  18.680   1.987  12.950
11818W        W83347  10.879  40.438  14.870
11819W        W83348  19.034  21.329  13.939
11820W        W83349  20.004  12.039   9.824
11821W        W83350  25.872  21.039  14.319
11822W        W83351   8.337   8.260  12.855
11823W        W83352  27.893  11.706   2.292
11824W        W83353  43.932  37.399   1.186
11825W        W83354  14.647  21.508   4.575
11826W        W83355  12.281  23.574  12.628
11827W        W83356  35.682  10.623  11.395
11828W        W83357   7.875  20.667  13.918
11829W        W83358  34.654  14.869   3.782
11830W        W83359  24.555  26.401  13.404
11831W        W83360  30.986  13.699  13.105
11832W        W83361   7.609  44.333  12.938
11833W        W83362  16.549  12.601  11.998
11834W        W83363   2.428  34.903   0.916
11835W        W83364  43.804  14.915  11.532
11836W        W83365  31.122  41.292  10.572
11837W        W83366  19.582  18.670   1.447
11838W        W83367   6.253  32.399  14.738
11839W        W83368  27.955   2.956   3.188
11840W        W83369  16.656  22.892   1.390
11841W        W83370  18.635  10.012   5.011
11842W        W83371   8.577   3.012   2.848
11843W        W83372  44.461  21.027   1.371
11844W        W83373  34.088   7.863   4.449
11845W        W83374   5.626  18.791   2.087
11846W        W83375  19.106   7.636  11.974
11847W        W83376  43.883   4.410   1.879
11848W        W83377  15.687   2.229   1.829
11849W        W83378  17.863  35.718   3.113
11850W        W83379  16.081  26.123   3.910
11851W        W83380  23.589  14.993  13.968
11852W        W83381  28.048   5.203  11.384
11853W        W83382  23.675  36.454  13.992
11854W        W83383  19.261  11.560  11.172
11855W        W83384  21.501   5.429   4.170
11856W        W83385  18.064  31.661  12.414
11857W        W83386  24.051  21.599   2.279
11858W        W83387  29.663  27.026   2.785
11859W        W83388  13.166   9.374   0.750
11860W        W83389  26.662  27.506   1.304
11861W        W83390   8.659  40.221   3.138
11862W        W83391  40.733   4.160   1.356
11863W        W83392   6.502  24.316   1.382
11864W        W83393  10.299  17.570  11.880
11865W        W83394   9.682  20.989  10.628
11866W        W83395   9.189   6.138  11.922
11867W        W83396  17.247  22.461   2.816
11868W        W83397  21.536  26.058  13.342
11869W        W83398  26.091  37.796   0.872
11870W        W83399  29.943  27.169  13.347
11871W        W83400  24.610  44.187   2.808
11872W        W83401  15.064  10.362   2.096
11873W        W83402  25.918  14.730  11.607
11874W        W83403  36.883  40.461   2.893
11875W        W83404  12.140  25.229  12.857
11876W        W83405  43.050  18.682   1.766
11877W        W83406   7.874  22.200   0.491
11878W        W83407  36.475  41.031  13.856
11879W        W83408  22.389  23.853  11.685
11880W        W83409   6.606  43.604   0.364
11881W        W83410  34.416  33.257   0.483
11882W        W83411   5.162  39.302   2.202
11883W        W83412  42.014  19.880  11.521
11884W        W83413  20.077  32.312  13.334
11885W        W83414  27.711  37.402   0.067
11886W        W83415   3.175  26.521  14.923
11887W        W83416  43.305  36.541   4.996
11888W        W83417  11.733  32.425  10.217
11889W        W83418  16.147  39.558   4.901
11890W        W83419  18.993   1.494   2.245
11891W        W83420  39.448  26.661  12.408
11892W        W83421  40.041  18.489   3.153
11893W        W83422  44.219  28.957  11.063
11894W        W83423  11.766  26.147  10.445
11895W        W83424  19.690  25.525   2.905
11896W        W83425  18.064  11.177  14.065
11897W        W83426  29.558   9.608  10.800
11898W        W83427  41.240  34.334   1.003
11899W        W83428  13.334  24.219  14.993
11900W        W83429  16.435  21.660   2.128
11901W        W83430  11.826  37.911  14.982
11902W        W83431  31.151   5.962  12.445
11903W        W83432  17.795   4.057   0.314
11904W        W83433  25.669  44.540  13.479
11905W        W83434  26.474  19.021   1.113
11906W        W83435   0.390   6.606   3.104
11907W        W83436   3.317  25.227  12.490
11908W        W83437  15.834  35.487   4.311
11909W        W83438  30.846   8.508  11.098
11910W        W83439  37.530  41.905  14.028
11911W        W83440  23.097  36.953  13.458
11912W        W83441  35.701  25.888   1.096
11913W        W83442  19.180  37.961  13.021
11914W        W83443  18.079   3.163   1.445
11915W        W83444  12.654   1.881  10.592
11916W        W83445  44.761  14.120  13.785
11917W        W83446  18.241  11.399  13.149
11918W        W83447  15.127  20.095  12.170
11919W        W83448  35.824  31.165  11.987
11920W        W83449  38.161  31.784  13.523
11921W        W83450  26.885  30.603   2.928
11922W        W83451  27.060  22.177  14.462
11923W        W83452  20.538  38.611  10.776
11924W        W83453  31.851   7.408   3.728
11925W        W83454  19.698  39.588  12.953
11926W        W83455  19.711   0.874   3.196
11927W        W83456  10.300   4.475   3.854
11928W        W83457  13.792  10.557  13.573
11929W        W83458  11.130  37.973   1.346
11930W        W83459   5.413  26.185   1.628
11931W        W83460   9.835  15.560   4.227
11932W        W83461  18.597  11.619  12.844
11933W        W83462  22.331  34.469  11.648
11934W        W83463  44.069  39.495  12.114
11935W        W83464   4.421  38.901   1.355
11936W        W83465  12.218  13.602   1.164
11937W        W83466  18.834   0.255  14.018
11938W        W83467  29.955  23.630   2.910
11939W        W83468   4.315  28.784   2.322
11940W        W83469  36.382  22.948   4.081
11941W        W83470  12.867  21.808  14.056
11942W        W83471  38.838   7.269   0.496
11943W        W83472  20.524  34.383  12.026
11944W        W83473   8.267  11.350  10.873
11945W        W83474   4.798  21.493   0.315
11946W        W83475  10.156  11.171  10.025
11947W        W83476  30.090  39.506   4.140
11948W        W83477   0.221  44.381  11.561
11949W        W83478  20.102   5.373  11.175
11950W        W83479  38.636  42.869  12.161
11951W        W83480  37.470  38.017  14.433
11952W        W83481  27.577  31.440  12.588
11953W        W83482  18.709  37.951  14.785
11954W        W83483  15.275  39.883   1.468
11955W        W83484   9.125  41.017   2.212
11956W        W83485  38.558  11.113  12.812
11957W        W83486  37.357   1.252   0.326
11958W        W83487  16.611  14.472  10.411
11959W        W83488  21.766   4.866  12.340
11960W        W83489  19.020  34.190   0.736
11961W        W83490  32.728  41.256   1.824
11962W        W83491  37.839  16.488  13.328
11963W        W83492  10.864  30.502   3.635
11964W        W83493  27.776  31.409   0.882
11965W        W83494  12.861  12.418   0.410
11966W        W83495  28.445  26.905   3.688
11967W        W83496   3.132  24.023   3.249
11968W        W83497  20.346  43.033  13.508
11969W        W83498  38.870  32.639   2.429
11970W        W83499  15.064   1.212  12.447
11971W        W83500  27.160  16.086   1.519
11972W        W83501  27.060  12.008  11.158
11973W        W83502  12.160   1.526  13.554
11974W        W83503  27.159  20.637  12.564
11975W        W83504  34.263  37.524  12.870
11976W        W83505  16.642  37.595   4.206
11977W        W83506  14.737  15.238   4.293
11978W        W83507  39.419  25.266  11.232
11979W        W83508   3.276   6.387   1.969
11980W        W83509  12.950  13.914  14.836
11981W        W83510  16.762  24.442   0.926
11982W        W83511  15.606  35.028   3.495
11983W        W83512   2.770   0.193  14.451
11984W        W83513  25.986  23.105   0.556
11985W        W83514  24.320  41.849   1.422
11986W        W83515  31.511   4.174   0.284
11987W        W83516  40.960  20.671  14.597
11988W        W83517  42.111   6.832  12.876
11989W        W83518  22.807  29.064  14.959
11990W        W83519  16.866   9.225   3.748
11991W        W83520  19.202  11.290   0.544
11992W        W83521  14.900  18.029  13.023
11993W        W83522  17.245  44.339  13.097
11994W        W83523  15.392  44.477   3.725
11995W        W83524   6.079  39.450  11.001
11996W        W83525  16.325  43.664   3.202
11997W        W83526  21.207  35.974   3.370
11998W        W83527  18.136  23.127  14.834
11999W        W83528  32.647  11.335   2.486
12000W        W83529  44.580  43.905  12.869
12001W        W83530   1.695   7.889  11.456
12002W        W83531   4.154  30.499  13.462
12003W        W83532   3.435   2.986  12.373
12004W        W83533  22.818  17.766  12.486
12005W        W83534  37.826  25.655  14.393
12006W        W83535   5.385  37.379  10.030
12007W        W83536  10.549   9.270  12.052
12008W        W83537  44.340  40.099   0.250
12009W        W83538  33.498  28.430   2.146
12010W        W83539  18.824  12.064   2.791
12011W        W83540  36.023   4.747  13.044
12012W        W83541   1.934  40.576   1.162
12013W        W83542  14.333  32.478   2.193
12014W        W83543   0.754  10.557   2.129
12015W        W83544  17.994  42.589  13.509
12016W        W83545  43.091  14.345   1.712
12017W        W83546   8.136  42.762  13.606
12018W        W83547  33.348   0.804   3.235
12019W        W83548  32.411  31.814   2.109
12020W        W83549  41.824  22.591   1.329
12021W        W83550   2.295  39.521   4.855
12022W        W83551   8.550  44.432  11.116
12023W        W83552  35.995  24.478  12.996
12024W        W83553  21.447  19.570   2.622
12025W        W83554  18.515  17.889  12.936
12026W        W83555  14.686  40.793  14.482
12027W        W83556  25.684  23.303  11.472
12028W        W83557  27.484   6.842  13.332
12029W        W83558  26.098  33.423   2.157
12030W        W83559   6.565  22.720  13.792
12031W        W83560  11.208  18.104  14.298
12032W        W83561  14.084   2.665   5.102
12033W        W83562   7.172  12.140  14.720
12034W        W83563  18.466  34.492  11.589
12035W        W83564  20.107  39.298  13.079
12036W        W83565  15.342  38.356  14.112
12037W        W83566  14.295  16.131   2.416
12038W        W83567  40.319  40.000  10.780
12039W        W83568   6.840  15.827  12.114
12040W        W83569  34.359  24.217   0.336
12041W        W83570   5.845  36.451  12.029
12042W        W83571  25.458  35.076  14.367
12043W        W83572  15.754  39.885   1.664
12044W        W83573   8.861  14.732   0.360
12045W        W83574  37.857   7.675   4.425
12046W        W83575   7.542  11.421   1.398
12047W        W83576  32.885  17.905   5.014
12048W        W83577  20.357  39.491  11.245
12049W        W83578   5.305  19.135   2.345
12050W        W83579   9.896  19.043  13.362
12051W        W83580  42.948   6.800  13.540
12052W        W83581  12.760   7.710   0.784
12053W        W83582  29.021   3.791  12.888
12054W        W83583  14.266  27.988  13.516
12055W        W83584  24.811  31.583  12.031
12056W        W83585  38.361  12.334  12.700
12057W        W83586  21.347   8.043  11.589
12058W        W83587  24.725  32.996  13.393
12059W        W83588  43.072  13.149   3.812
12060W        W83589  39.752  31.661   3.760
12061W        W83590  15.753  20.994   0.017
12062W        W83591  42.765  29.309  12.823
12063W        W83592  14.226  34.355   3.860
12064W        W83593  41.668  14.208   4.971
12065W        W83594   1.768  37.877  12.559
12066W        W83595  27.933   4.618   2.774
12067W        W83596  35.478  25.429  14.941
12068W        W83597  42.274  12.295  13.323
12069W        W83598  35.133  37.462  12.464
12070W        W83599  24.642  44.550  10.403
12071W        W83600  25.665  40.764  14.957
12072W        W83601  23.974  37.098   4.927
12073W        W83602   0.165  18.705  11.987
12074W        W83603  11.099   6.472  13.380
12075W        W83604  19.792  15.268   4.321
12076W        W83605   4.754  41.503   0.319
12077W        W83606  28.519  34.536   2.425
12078W        W83607   1.298  32.251  12.549
12079W        W83608  15.151  19.200   4.570
12080W        W83609  16.749  33.381  10.489
12081W        W83610  41.982  37.781   3.298
12082W        W83611  35.375  33.142   0.279
12083W        W83612  36.134  11.295  14.914
12084W        W83613  34.906  16.355   4.139
12085W        W83614   3.934   5.420   1.798
12086W        W83615  13.379  18.055  12.406
12087W        W83616  12.848  10.488   4.763
12088W        W83617   6.481  12.165  13.018
12089W        W83618  27.081  34.706   5.186
12090W        W83619   5.518   2.130   2.425
12091W        W83620  42.540  13.681   3.159
12092W        W83621  39.882  10.430   1.090
12093W        W83622  20.144   5.793   4.377
12094W        W83623  38.652  21.552  13.543
12095W        W83624  15.820  26.986   4.114
12096W        W83625  16.947  29.523  14.998
12097W        W83626  30.359  24.988  14.926
12098W        W83627  40.354  27.229  13.387
12099W        W83628  12.190  26.051  11.493
12100W        W83629   1.740  44.541   0.550
12101W        W83630  12.154  22.744  12.870
12102W        W83631  43.436  32.424  10.383
12103W        W83632  28.642  27.801   3.790
12104W        W83633  17.561  35.731   2.233
12105W        W83634   5.741  12.588   4.578
12106W        W83635  30.222  41.281   3.067
12107W        W83636  17.702  15.701  11.093
12108W        W83637   1.890  33.595   3.013
12109W        W83638   3.089  29.165  14.299
12110W        W83639  16.232  10.209   3.140
12111W        W83640  33.599  14.603   0.427
12112W        W83641  25.515  28.604   0.559
12113W        W83642  44.424   0.782  12.525
12114W        W83643   2.389  16.879  11.282
12115W        W83644   4.443  21.763  13.484
12116W        W83645   7.675  38.424   3.759
12117W        W83646  32.586   4.662   1.896
12118W        W83647   3.749  11.590   1.599
12119W        W83648  14.152  28.469   3.626
12120W        W83649   7.265  18.036  12.068
12121W        W83650   2.242  24.974   3.796
12122W        W83651  21.227   2.990   0.903
12123W        W83652  44.827  22.330   3.778
12124W        W83653  12.633  35.373   2.656
12125W        W83654  31.184  20.812  12.407
12126W        W83655  23.201  19.306  14.701
12127W        W83656  12.569  19.626   0.323
12128W        W83657   0.304  44.857   1.900
12129W        W83658  26.663   1.599   4.046
12130W        W83659  34.975  12.535  10.031
12131W        W83660  35.346  36.017  10.521
12132W        W83661   4.683  22.143   4.182
12133W        W83662  37.888  25.142  14.907
12134W        W83663  19.988  13.120   3.415
12135W        W83664  31.557  31.701   4.412
12136W        W83665  14.369  10.434  13.489
12137W        W83666  27.457   4.346  12.422
12138W        W83667  15.096  14.792   0.347
12139W        W83668  34.542  11.696  11.442
12140W        W83669  36.933  11.653   2.316
12141W        W83670  43.480  19.308   2.846
12142W        W83671  13.302  17.647  14.985
12143W        W83672  33.693  39.702   3.463
12144W        W83673  43.615   7.471   4.151
12145W        W83674   8.636   1.728  13.334
12146W        W83675   2.809  10.910   2.851
12147W        W83676  32.664   3.130   0.795
12148W        W83677  38.134   8.928  13.207
12149W        W83678  41.902  41.901   3.147
12150W        W83679  25.512   0.711  12.907
12151W        W83680   6.613   2.396   0.932
12152W        W83681  30.591  26.413  12.498
12153W        W83682   0.724  34.804  13.915
12154W        W83683  23.577  37.558  12.467
12155W        W83684   5.819  34.371   1.299
12156W        W83685  20.911  26.695  12.382
12157W        W83686  28.733   1.350  11.695
12158W        W83687  33.076  44.804   4.806
12159W        W83688  24.554  30.283  10.923
12160W        W83689  20.629  21.416   4.630
12161W        W83690  35.325  23.026  14.401
12162W        W83691   8.473  24.923   1.808
12163W        W83692   1.700   0.012   2.354
12164W        W83693   4.996  31.954  11.501
12165W        W83694  13.403   2.958  13.702
12166W        W83695  20.515   5.812  12.490
12167W        W83696  28.786   9.228   0.917
12168W        W83697   6.809   7.362   0.394
12169W        W83698  27.726  30.924  11.466
12170W        W83699  19.719  41.324  10.628
12171W        W83700  30.682  41.432  10.826
12172W        W83701  38.604  34.479   1.280
12173W        W83702  43.906  35.871   4.254
12174W        W83703  37.035  41.454  14.281
12175W        W83704  12.531   1.233   1.457
12176W        W83705   3.386  38.133  12.954
12177W        W83706  33.123  44.247  10.643
12178W        W83707  22.497  42.350  11.811
12179W        W83708  13.716  40.507  11.111
12180W        W83709   1.314  39.511   3.251
12181W        W83710  44.765   8.936  12.035
12182W        W83711  20.578  19.846   0.672
12183W        W83712  21.312  40.927   3.021
12184W        W83713  23.997  16.938  13.848
12185W        W83714   7.568  34.424  11.196
12186W        W83715  14.476  25.122   3.302
12187W        W83716  44.977  11.301   1.380
12188W        W83717   3.668  25.152  10.939
12189W        W83718  33.968  31.359  11.556
12190W        W83719  27.212  16.677   0.890
12191W        W83720  10.359   6.179  11.571
12192W        W83721   7.228  11.249  14.080
12193W        W83722  42.846  14.124  14.041
12194W        W83723   4.258  12.106   2.743
12195W        W83724  44.902   4.744   3.340
12196W        W83725  37.377   0.830   3.875
12197W        W83726  44.558  15.765   1.179
12198W        W83727   7.611   2.460   2.209
12199W        W83728  29.024  39.348   4.822
12200W        W83729   6.817  30.222  12.619
12201W        W83730   5.785  19.242  11.558
12202W        W83731  35.459  35.907   3.883
12203W        W83732   5.198  14.804  14.207
12204W        W83733   8.634  24.220  13.060
12205W        W83734   0.831  29.666  10.514
12206W        W83735   0.463  43.473  12.167
12207W        W83736   1.256  11.738  11.061
12208W        W83737  32.160  43.324  10.680
12209W        W83738  34.999  15.554  13.567
12210W        W83739  32.661  22.086   4.624
12211W        W83740  35.109  27.975   1.272
12212W        W83741  33.413  23.800   0.407
12213W        W83742  20.787  17.178  13.885
12214W        W83743   2.371  33.269   1.456
12215W        W83744   8.500  21.682   3.747
12216W        W83745  42.050  11.998   3.644
12217W        W83746  23.373  35.609  14.745
12218W        W83747  31.037  44.319  12.786
12219W        W83748  11.688  13.164  12.162
12220W        W83749  16.623  40.375  12.925
12221W        W83750  23.671  35.968   4.565
12222W        W83751  17.614  34.974  12.973
12223W        W83752   9.650  21.307   0.866
12224W        W83753   0.763  21.551   0.680
12225W        W83754  24.649  22.706   0.945
12226W        W83755  35.188  36.056   1.601
12227W        W83756   9.508  12.514   2.744
12228W        W83757  33.529   4.541  13.341
12229W        W83758  33.600  11.364   3.881
12230W        W83759  41.722  44.707  11.684
12231W        W83760  13.055   6.371   3.266
12232W        W83761  30.628  35.412   3.693
12233W        W83762  29.393   3.277   1.475
12234W        W83763   1.938  11.212  11.123
12235W        W83764   3.947   6.513   0.756
12236W        W83765  25.098  19.626  14.980
12237W        W83766  16.844  41.440   0.781
12238W        W83767  38.031  23.530  12.766
12239W        W83768  40.261  13.075  11.469
12240W        W83769  12.731  35.441  13.473
12241W        W83770  25.276  10.694   4.146
12242W        W83771  19.583  24.830  14.840
12243W        W83772  27.148  39.318   1.344
12244W        W83773  38.130  17.984   4.184
12245W        W83774   1.387  31.614   4.281
12246W        W83775   5.775  16.221   4.078
12247W        W83776  38.776  29.439   1.429
12248W        W83777   5.681  35.481   4.086
12249W        W83778  24.572  33.469  10.279
12250W        W83779  17.182  30.536   4.451
12251W        W83780  35.766  31.097  11.474
12252W        W83781  26.205  30.039  14.543
12253W        W83782  44.250  23.435   2.545
12254W        W83783  33.560  42.090  11.073
12255W        W83784   0.089  22.316   2.931
12256W        W83785  37.851  29.142  13.498
12257W        W83786   3.397  21.922   4.126
12258W        W83787  18.182  19.454   2.236
12259W        W83788  24.488  41.174   1.994
12260W        W83789  44.218   9.161   4.408
12261W        W83790  23.937  38.781   2.461
12262W        W83791  38.859  28.621  11.585
12263W        W83792  34.392  16.338   1.810
12264W        W83793  24.507   5.017  14.863
12265W        W83794  29.908  15.840   1.833
12266W        W83795  25.675  27.527  13.507
12267W        W83796  44.997  17.753   3.360
12268W        W83797  23.101  15.635  10.568
12269W        W83798   6.317  21.527  12.442
12270W        W83799  31.649   0.119   0.374
12271W        W83800  20.738  12.072   0.817
12272W        W83801  40.549  26.852  10.755
12273W        W83802   1.764   5.727   1.783
12274W        W83803  10.709  43.426  11.589
12275W        W83804   4.393  11.043  13.156
12276W        W83805   1.982   9.095  13.089
12277W        W83806  16.328  15.658   0.892
12278W        W83807  19.144  42.382  14.319
12279W        W83808  36.394  40.352  12.963
12280W        W83809  13.251  36.102  11.583
12281W        W83810  25.184  11.604  13.905
12282W        W83811  15.108  24.197  12.587
12283W        W83812  42.934  16.631  10.748
12284W        W83813   5.265  15.791  13.857
12285W        W83814   5.783  12.187  12.082
12286W        W83815  21.658   3.756   0.302
12287W        W83816   1.855   2.432   1.627
12288W        W83817  16.643  14.878   3.933
12289W        W83818   2.060  39.028   3.300
12290W        W83819  32.573  43.446  12.501
12291W        W83820  25.049  17.536   4.264
12292W        W83821  39.646  38.069  12.648
12293W        W83822  28.381  25.249   4.013
12294W        W83823  35.003   9.005  13.854
12295W        W83824  13.378   1.751  11.729
12296W        W83825  42.118  34.129   3.037
12297W        W83826  22.211  27.153  13.577
12298W        W83827  25.175  29.738   4.603
12299W        W83828  26.681  16.982   1.434
12300W        W83829  19.128  24.965  13.111
12301W        W83830  39.214  20.886  12.563
12302W        W83831   9.742  27.697   0.716
12303W        W83832   1.883  22.775   2.257
12304W        W83833   8.309  26.321  13.684
12305W        W83834   7.888  18.036   0.630
12306W        W83835   5.470  33.030  14.919
12307W        W83836  44.994  12.676  14.442
12308W        W83837  31.142  33.031  11.089
12309W        W83838  27.984   7.660   1.525
12310W        W83839  40.263   1.797  14.718
12311W        W83840   2.721  42.373  13.004
12312W        W83841  15.292   1.933  12.485
12313W        W83842  12.670   8.747  11.963
12314W        W83843  35.573  40.831   3.693
12315W        W83844  42.063  12.585  12.549
12316W        W83845  37.743  38.567  14.857
12317W        W83846   2.051  31.782   3.650
12318W        W83847  14.231  23.258  12.482
12319W        W83848  27.604  27.696  14.752
12320W        W83849  16.661  37.850  10.589
12321W        W83850  35.292  34.651   2.735
12322W        W83851  20.668  23.521   4.551
12323W        W83852  13.310  26.196  13.333
12324W        W83853   2.319  39.827  14.311
12325W        W83854  14.877  41.452  10.580
12326W        W83855  28.988  32.548  10.699
12327W        W83856  16.189  42.806  11.526
12328W        W83857  20.820  34.744  14.226
12329W        W83858   3.742  11.223  12.432
12330W        W83859  43.590  32.075  13.363
12331W        W83860  40.730   4.847   3.250
12332W        W83861  35.682   6.439   3.967
12333W        W83862   4.761   6.444   2.299
12334W        W83863   0.421   3.492   1.216
12335W        W83864  12.640   4.548   3.269
12336W        W83865  11.105  41.408   0.400
12337W        W83866   6.658   9.871   4.733
12338W        W83867  34.039  23.537  13.276
12339W        W83868   6.553  36.974   2.962
12340W        W83869   7.704   0.276  13.905
12341W        W83870  44.343  40.287   4.594
12342W        W83871  42.256  20.661  13.858
12343W        W83872   7.585   8.798   4.126
12344W        W83873  12.034  19.560   3.179
12345W        W83874  39.536  19.101   0.361
12346W        W83875  43.021  15.773   3.658
12347W        W83876  42.633  38.951  14.460
12348W        W83877  40.762  20.545   0.909
12349W        W83878  20.143   4.437   2.144
12350W        W83879  32.426  23.250  10.602
12351W        W83880  39.135   9.571   1.162
12352W        W83881  19.268  17.438   2.121
12353W        W83882  25.750   5.751  12.090
12354W        W83883   4.645  10.902  13.645
12355W        W83884  15.536  39.517  13.001
12356W        W83885  42.269  20.976   1.460
12357W        W83886  26.252   8.126  12.575
12358W        W83887   6.547   9.601   0.035
12359W        W83888  19.005  19.225  12.923
12360W        W83889  21.649   5.744  12.991
12361W        W83890  20.810  15.961   2.936
12362W        W83891  17.590   2.706   1.925
12363W        W83892   0.987  40.066  13.312
12364W        W83893  15.029  44.788  12.921
12365W        W83894  27.749  22.165   4.272
12366W        W83895  44.990   5.248  11.979
12367W        W83896  43.910  32.365  14.956
12368W        W83897  21.575   4.409  14.840
12369W        W83898  20.414  11.352   3.955
12370W        W83899   3.220  14.521  10.635
12371W        W83900  35.041  25.907  14.360
12372W        W83901  41.017   4.411   1.724
12373W        W83902  26.122  43.984  13.538
12374W        W83903  30.196  15.746  13.970
12375W        W83904  36.544  17.079   0.857
12376W        W83905  32.374  39.090   0.805
12377W        W83906  16.108   4.727  11.311
12378W        W83907  29.252   6.897   0.954
12379W        W83908  43.747  43.826  12.345
12380W        W83909  41.785  31.688  13.179
12381W        W83910   1.352  40.861   3.761
12382W        W83911  30.581  12.944   2.323
12383W        W83912  33.503   6.255   4.996
12384W        W83913  39.267  40.205   3.953
12385W        W83914  41.809  40.131  11.256
12386W        W83915   1.750  29.524   0.539
12387W        W83916  19.034  42.533  13.458
12388W        W83917  33.514  11.824  12.944
12389W        W83918   0.932  26.436  10.688
12390W        W83919  28.887   8.334  13.348
12391W        W83920  31.068  41.483   4.827
12392W        W83921  15.666  44.689   4.151
12393W        W83922  34.185  42.637   3.651
12394W        W83923  21.714  15.529  11.203
12395W        W83924  24.686   2.176  11.217
12396W        W83925  37.107  25.231  13.479
12397W        W83926   7.411  36.665   3.398
12398W        W83927  13.133  40.341   2.214
12399W        W83928  24.426  14.682  13.848
12400W        W83929  36.938  19.552   0.434
12401W        W83930   9.621  32.666   1.298
12402W        W83931  38.938  38.870   0.435
12403W        W83932  13.932   9.381  11.547
12404W        W83933   5.135  10.750  13.501
12405W        W83934  23.984  29.339   3.301
12406W        W83935  32.764  15.197   9.894
12407W        W83936  35.060  27.820  14.062
12408W        W83937  28.230   6.427   1.163
12409W        W83938  31.580  16.685  12.873
12410W        W83939  21.075   7.716   0.045
12411W        W83940  43.790   9.718  14.781
12412W        W83941   3.125  34.758  10.938
12413W        W83942   7.742   8.045   3.699
12414W        W83943  38.128  25.488   4.054
12415W        W83944   6.471  15.899  11.472
12416W        W83945  22.450  37.972  11.516
12417W        W83946  38.381  35.071  14.833
12418W        W83947   1.967  19.585  12.439
12419W        W83948   9.384  36.417  11.605
12420W        W83949  22.466  26.234   0.842
12421W        W83950  24.811   2.759   4.472
12422W        W83951  16.771  21.736  13.452
12423W        W83952   2.901   4.929   2.260
12424W        W83953   9.839   8.733   4.754
12425W        W83954  39.667  21.592   4.275
12426W        W83955  35.158  38.976   5.234
12427W        W83956  42.848  18.070  13.755
12428W        W83957  24.545  11.285  11.935
12429W        W83958  36.427  26.303   4.145
12430W        W83959  33.445  11.551  12.473
12431W        W83960  16.106  18.777  12.834
12432W        W83961  41.106  21.531   2.756
12433W        W83962   5.578   4.353  14.879
12434W        W83963  28.253  20.674   2.239
12435W        W83964  28.960  37.044  13.877
12436W        W83965  17.491  35.996   4.173
12437W        W83966   2.889  40.373  13.705
12438W        W83967  40.011   0.259  12.729
12439W        W83968  43.870   8.877   4.669
12440W        W83969  28.466  42.793  12.812
12441W        W83970  31.583  14.610  12.050
12442W        W83971  22.679   2.963  13.378
12443W        W83972  40.002  40.437  11.956
12444W        W83973  23.763  27.495  10.616
12445W        W83974  14.694  35.374   0.178
12446W        W83975  37.489  11.920   1.134
12447W        W83976  17.693  15.755   4.881
12448W        W83977  34.552  23.854  14.275
12449W        W83978  39.326   0.496   1.370
12450W        W83979   7.917  34.523  11.994
12451W        W83980  34.051  31.739   1.359
12452W        W83981   3.915  35.018   4.163
12453W        W83982  17.026  41.957   0.757
12454W        W83983   6.297  18.334   2.178
12455W        W83984   3.941   4.807  13.385
12456W        W83985  30.789   3.436  10.309
12457W        W83986  17.910   5.366  13.198
12458W        W83987  37.029  23.076   0.894
12459W        W83988  41.926  10.308   1.437
12460W        W83989   6.769   0.746   0.842
12461W        W83990  37.947  28.819  14.317
12462W        W83991   9.112   0.987  10.034
12463W        W83992  25.548  21.082   3.054
12464W        W83993  37.938  37.228   1.710
12465W        W83994  21.511  40.584  12.066
12466W        W83995   1.854  32.391   0.500
12467W        W83996  29.355  11.257  11.638
12468W        W83997   6.316  30.103  14.828
12469W        W83998  21.920  33.934  13.846
12470W        W83999   2.837  15.113  13.003
12471W        W84000   4.219  22.049   2.673
12472W        W84001  27.383  31.064   3.783
12473W        W84002  44.649   4.607   9.753
12474W        W84003   1.042  17.512   0.797
12475W        W84004   1.261   8.178   4.759
12476W        W84005  22.973  19.281  11.889
12477W        W84006   4.968  35.037  11.482
12478W        W84007  44.863  21.251   3.791
12479W        W84008  36.001   3.055   1.851
12480W        W84009  15.819  42.248   3.129
12481W        W84010   9.415  34.375   3.993
12482W        W84011   9.424  15.846   3.786
12483W        W84012  35.837  21.444   3.550
12484W        W84013  42.336   4.017   3.176
12485W        W84014  19.310  38.382  13.475
12486W        W84015  41.008  10.643   3.612
12487W        W84016   8.883  22.695   3.671
12488W        W84017  44.851  24.153   4.351
12489W        W84018  37.191  11.709  12.975
12490W        W84019  43.776  17.551   1.708
12491W        W84020   3.032  14.049  14.348
12492W        W84021   8.278  39.862  11.779
12493W        W84022  22.685  37.831  11.072
12494W        W84023  37.847  33.004  11.005
12495W        W84024   4.930  36.075  12.994
12496W        W84025  10.767  23.417   4.310
12497W        W84026  17.076  30.665   2.227
12498W        W84027  38.243  39.884  14.920
12499W        W84028  21.183  19.781   3.402
12500W        W84029  22.762  25.667  10.627
12501W        W84030  44.891  39.526  12.585
12502W        W84031  20.121  19.562   4.204
12503W        W84032  13.818  40.001  13.831
12504W        W84033  33.284  38.845  14.543
12505W        W84034  16.186   9.204  13.541
12506W        W84035   4.563  40.870  11.645
12507W        W84036  23.080  39.260   0.290
12508W        W84037   8.690  14.568  11.750
12509W        W84038  33.981  30.539   0.470
12510W        W84039  22.837  27.455  13.216
12511W        W84040  11.187  42.780  12.448
12512W        W84041  32.640  23.437  13.029
12513W        W84042   9.824  23.560  14.904
12514W        W84043  36.336   7.344   3.628
12515W        W84044  24.597   8.859   1.215
12516W        W84045  16.544   0.961  14.897
12517W        W84046  37.588  23.734   0.032
12518W        W84047  31.864  38.274   5.109
12519W        W84048  13.109  10.873   0.870
12520W        W84049  42.417   4.847  12.675
12521W        W84050  32.485  20.717  14.619
12522W        W84051  10.805   1.994   0.931
12523W        W84052   5.013  21.597  11.596
12524W        W84053  27.188  15.737   0.748
12525W        W84054   3.797  39.471   3.762
12526W        W84055  38.934  32.902   2.860
12527W        W84056  24.289  30.469  14.987
12528W        W84057  36.844   9.539   3.145
12529W        W84058   6.714  14.322  12.088
12530W        W84059  32.459  28.432  10.902
12531W        W84060   7.800  21.023  12.218
12532W        W84061  37.607   0.201  13.922
12533W        W84062  34.534  24.538  14.939
12534W        W84063  20.975   1.714  14.937
12535W        W84064   8.124  29.497  13.992
12536W        W84065  37.834   5.378   3.902
12537W        W84066  39.128  28.530  13.885
12538W        W84067  33.673  30.222  14.491
12539W        W84068   4.881  40.311  13.537
12540W        W84069  35.558  22.689  12.982
12541W        W84070  14.654   2.928  10.669
12542W        W84071  14.696  11.692  11.613
12543W        W84072  29.115  10.423   1.186
12544W        W84073  26.923  24.973   3.575
12545W        W84074  35.372  25.636   3.163
12546W        W84075  31.375  38.543   1.899
12547W        W84076   8.489  43.013   2.757
12548W        W84077  26.474  23.402  11.503
12549W        W84078   0.482  26.562   3.673
12550W        W84079   3.363   9.067   4.260
12551W        W84080  27.502   2.589  11.503
12552W        W84081   9.155  41.790   4.989
12553W        W84082  23.560  29.692  13.713
12554W        W84083  31.739  40.777  12.528
12555W        W84084  23.118  41.015   0.575
12556W        W84085   8.092  28.557   3.353
12557W        W84086  30.466  25.945   2.886
12558W        W84087  34.898   6.122   0.744
12559W        W84088  26.795  12.615   3.593
12560W        W84089  29.961  15.265  11.152
12561W        W84090  14.252  39.839  10.533
12562W        W84091   0.344  20.729  14.862
12563W        W84092   4.104  18.335  11.106
12564W        W84093  41.834  11.688  12.567
12565W        W84094  27.695  23.743   1.356
12566W        W84095  40.340  41.951   4.536
12567W        W84096   9.879  20.038  12.027
12568W        W84097  16.478  27.122  13.948
12569W        W84098  12.440  44.414   1.422
12570W        W84099  33.025   8.894   2.711
12571W        W84100  16.108  40.270  13.718
12572W        W84101   5.400  26.532  13.708
12573W        W84102  22.940   2.130   2.210
12574W        W84103  17.189  36.057  12.096
12575W        W84104  33.846   3.351  14.828
12576W        W84105   5.091   1.521  13.111
12577W        W84106  21.830  13.703   1.982
12578W        W84107   4.082  20.206   0.918
12579W        W84108  16.270  16.170   0.945
12580W        W84109  40.802  35.911   3.107
12581W        W84110  28.478  26.892  13.981
12582W        W84111  33.817   9.320   2.315
12583W        W84112  19.522  41.509   1.696
12584W        W84113  40.078  12.289   3.241
12585W        W84114   1.674  11.352   1.045
12586W        W84115  28.048  42.799  13.877
12587W        W84116   7.866   8.210  13.072
12588W        W84117  25.752  35.555   1.600
12589W        W84118  21.301   6.941  10.800
12590W        W84119  43.057   0.271  12.451
12591W        W84120  37.873  26.642   2.710
12592W        W84121  31.624  12.109   2.213
12593W        W84122  24.069  40.820  11.591
12594W        W84123  32.652   6.560  12.911
12595W        W84124  42.028  44.586   1.195
12596W        W84125  32.525  41.914  11.299
12597W        W84126  29.782  43.250  11.220
12598W        W84127  30.728  28.478  11.983
12599W        W84128   4.001   2.646   2.138
12600W        W84129  22.943  12.129   2.847
12601W        W84130  41.019  13.326  13.525
12602W        W84131  32.963  10.234  14.612
12603W        W84132  15.301  16.853   4.292
12604W        W84133  41.568  30.011  12.295
12605W        W84134  22.472   4.236  10.709
12606W        W84135  35.009  20.105   2.252
12607W        W84136  22.798   7.855  11.642
12608W        W84137   3.970  32.904   0.954
12609W        W84138  10.382  13.795  10.815
12610W        W84139   7.239   7.870   3.697
12611W        W84140  32.667  10.658  14.561
12612W        W84141  44.780   7.903  13.282
12613W        W84142  27.001  35.578   2.152
12614W        W84143  23.596  41.890   0.089
12615W        W84144  33.190  21.795  13.709
12616W        W84145  16.812   2.330  10.685
12617W        W84146  34.995   1.951   2.815
12618W        W84147  26.984   4.320   5.146
12619W        W84148   0.220  31.924  13.024
12620W        W84149  35.502  35.111   1.796
12621W        W84150  32.363  22.035   1.821
12622W        W84151  19.146  32.967   1.961
12623W        W84152  41.516   4.386   2.395
12624W        W84153  17.253   3.793   4.122
12625W        W84154   5.749   6.258  14.308
12626W        W84155  20.954  35.603  11.196
12627W        W84156   5.486  37.018   1.340
12628W        W84157   0.342  30.465   0.797
12629W        W84158  41.509   4.913  12.525
12630W        W84159   0.763  24.060   4.061
12631W        W84160  32.989  11.829   3.340
12632W        W84161  34.929  35.141   5.050
12633W        W84162   6.784  42.854  11.495
12634W        W84163   5.249  26.741  12.828
12635W        W84164  30.445  30.430  11.806
12636W        W84165  27.899  43.784  11.547
12637W        W84166  28.958  28.557   3.170
12638W        W84167  30.734  39.623   0.861
12639W        W84168  11.622  31.115  12.564
12640W        W84169  19.790  24.660   4.575
12641W        W84170  19.204  21.683  11.386
12642W        W84171  30.023  30.521  10.935
12643W        W84172   0.854  19.834   3.373
12644W        W84173  41.263  11.619   1.457
12645W        W84174   6.454  20.467   0.621
12646W        W84175   9.968  33.942  14.006
12647W        W84176   4.114  17.778   4.582
12648W        W84177  35.899  34.797   3.653
12649W        W84178  20.419  23.573  10.668
12650W        W84179  38.000  17.389   1.133
12651W        W84180  24.695  20.771  13.472
12652W        W84181  28.554   9.178   1.409
12653W        W84182  12.392  43.553   2.412
12654W        W84183  22.362  20.344  11.227
12655W        W84184  15.301  29.386  12.878
12656W        W84185  23.464  43.931  12.803
12657W        W84186  23.515  40.570   0.787
12658W        W84187   9.395  16.781   1.406
12659W        W84188  36.811  15.166  14.984
12660W        W84189  31.675  20.739  14.008
12661W        W84190  44.742  31.292  13.587
12662W        W84191  31.587   7.274  12.517
12663W        W84192  34.070  39.870  14.079
12664W        W84193  24.510  37.414   3.987
12665W        W84194   3.491  26.674   2.780
12666W        W84195   0.612  40.351   4.487
12667W        W84196  42.057  39.358   2.183
12668W        W84197  15.530   9.257   0.865
12669W        W84198  15.316  22.024   2.045
12670W        W84199  37.395  22.631   5.086
12671W        W84200  25.828   3.305  12.106
12672W        W84201   5.929  43.176   3.436
12673W        W84202  27.510   0.819   4.782
12674W        W84203  12.037   8.469  14.579
12675W        W84204  21.759  15.627   2.437
12676W        W84205  43.318  36.943  12.909
12677W        W84206  28.531  42.974   1.720
12678W        W84207  25.950  28.514  11.922
12679W        W84208  24.394   4.894   2.262
12680W        W84209  22.107  35.001   4.183
12681W        W84210  43.253  27.567   4.294
12682W        W84211  23.507  30.932  13.783
12683W        W84212   8.361   7.189   3.762
12684W        W84213  32.319  16.539   1.212
12685W        W84214   8.360  27.162   0.805
12686W        W84215   7.345   0.232  13.455
12687W        W84216  30.073   1.306   2.285
12688W        W84217  11.392  31.945  13.435
12689W        W84218  34.105  34.497  14.176
12690W        W84219   6.298  40.099  13.936
12691W        W84220  34.082  24.801  14.814
12692W        W84221  44.841  11.720   4.667
12693W        W84222  24.032  27.670   1.932
12694W        W84223  14.138  15.380  14.731
12695W        W84224  33.122  24.428   9.689
12696W        W84225  28.304  34.010  11.276
12697W        W84226   1.550   6.920  12.624
12698W        W84227  33.809  21.153  10.161
12699W        W84228  34.550  20.289   1.864
12700W        W84229  18.130  38.417   4.002
12701W        W84230  13.280   0.990   2.292
12702W        W84231   0.650   1.493  13.511
12703W        W84232  28.008  44.877  14.753
12704W        W84233   1.247  10.523   1.929
12705W        W84234   3.806  12.348   2.808
12706W        W84235   0.421  19.762  11.090
12707W        W84236  23.058  21.222  14.360
12708W        W84237  14.372  42.485  10.672
12709W        W84238   9.829  30.465  12.582
12710W        W84239  44.907  42.929   0.296
12711W        W84240  44.446   4.872   3.889
12712W        W84241  21.033  40.138  14.094
12713W        W84242  33.188   2.225  13.418
12714W        W84243   2.841  32.564  14.036
12715W        W84244   3.061  21.010   0.411
12716W        W84245  22.562  28.233  10.508
12717W        W84246  27.175   8.318   0.671
12718W        W84247  36.974  28.810   2.889
12719W        W84248   5.370  44.332   3.729
12720W        W84249  39.123  33.665  13.788
12721W        W84250  13.561  23.677  12.099
12722W        W84251  21.673  31.924  10.035
12723W        W84252  37.066   2.069  13.886
12724W        W84253  32.343  14.090   0.386
12725W        W84254  27.047  42.656   3.377
12726W        W84255  19.565  23.110   1.876
12727W        W84256  40.142  21.821   0.775
12728W        W84257  23.974  38.575  14.721
12729W        W84258  35.576  16.736  13.079
12730W        W84259  10.718  29.789   2.915
12731W        W84260  14.640  44.673  10.504
12732W        W84261  40.417  44.959  10.250
12733W        W84262  31.570  36.917   4.977
12734W        W84263  12.318  33.856  12.199
12735W        W84264  21.659  28.662  10.610
12736W        W84265   3.711  25.400   1.558
12737W        W84266  40.586  20.523  14.909
12738W        W84267  24.240  43.569   3.246
12739W        W84268  24.002  41.812  14.256
12740W        W84269  38.524  30.623  13.619
12741W        W84270   7.926  39.048   0.323
12742W        W84271  15.918  17.297   4.644
12743W        W84272  24.772  13.260  13.241
12744W        W84273   9.467   3.477  12.747
12745W        W84274  26.774  43.365  10.736
12746W        W84275   7.872   0.289   0.365
12747W        W84276  22.160  27.348  13.052
12748W        W84277  44.372   2.406   0.432
12749W        W84278  34.075  13.880  12.212
12750W        W84279  33.151   9.081   4.870
12751W        W84280  21.809  41.459  12.885
12752W        W84281  22.672  29.983   1.231
12753W        W84282   4.742  23.219  14.933
12754W        W84283   9.865  41.559  11.467
12755W        W84284  32.354   9.415  12.812
12756W        W84285   7.582  30.382  14.921
12757W        W84286  17.568  27.137   3.968
12758W        W84287  22.715  20.079   2.651
12759W        W84288   1.932  32.528  14.554
12760W        W84289  35.974  35.719   0.781
12761W        W84290  33.312   9.981   4.665
12762W        W84291  14.199  28.990   2.164
12763W        W84292  22.321  23.929   1.009
12764W        W84293   4.256  14.330  12.522
12765W        W84294  16.195  20.609  12.354
12766W        W84295  32.366  40.591   4.102
12767W        W84296   5.098  38.907  12.597
12768W        W84297  44.325   5.312   3.604
12769W        W84298  21.577  34.990   4.127
12770W        W84299  12.111   8.952  10.477
12771W        W84300  43.274  33.923   0.353
12772W        W84301  31.198  15.748  11.489
12773W        W84302  33.008  16.385  14.660
12774W        W84303  27.244   1.759   1.398
12775W        W84304  34.032  36.232   0.596
12776W        W84305  40.921   3.376   1.713
12777W        W84306  25.065  31.403  13.990
12778W        W84307   6.889  14.215  10.736
12779W        W84308  14.864   4.001   0.051
12780W        W84309  28.210  18.257   4.103
12781W        W84310  20.208  29.685   1.231
12782W        W84311  35.047  37.531   4.311
12783W        W84312  25.160   8.022  14.245
12784W        W84313  44.044  24.627   2.843
12785W        W84314  36.879   8.978   1.277
12786W        W84315  16.025  11.530   3.203
12787W        W84316  35.450  35.062   4.857
12788W        W84317  36.475  17.322   9.846
12789W        W84318  29.132  23.832  12.026
12790W        W84319  27.555   0.275  13.480
12791W        W84320  44.371  24.796  13.510
12792W        W84321  41.633  37.668  11.683
12793W        W84322  39.626  36.226  14.232
12794W        W84323  13.083  13.244   3.612
12795W        W84324  20.721  10.670   3.681
12796W        W84325  15.778  19.725  14.847
12797W        W84326  22.767  39.928   1.838
12798W        W84327  19.606  44.950  11.076
12799W        W84328   4.775   0.453   0.220
12800W        W84329  32.333  34.970   1.253
12801W        W84330  39.224  27.089  14.533
12802W        W84331  27.534  35.008  11.896
12803W        W84332  19.786  22.454   0.399
12804W        W84333  31.704  11.031  13.036
12805W        W84334  17.469  15.845   0.080
12806W        W84335   2.714   2.346   2.294
12807W        W84336   2.244  13.459   1.741
12808W        W84337  27.971  33.065  14.822
12809W        W84338  10.646  37.274  13.112
12810W        W84339   1.139  42.415   0.886
12811W        W84340   7.212   9.618  13.179
12812W        W84341   6.301   8.814   1.336
12813W        W84342  10.339  30.936  10.690
12814W        W84343  32.273   2.818   0.952
12815W        W84344  28.042  30.943   2.359
12816W        W84345  37.964   7.229  14.442
12817W        W84346   7.348  19.341  13.252
12818W        W84347  41.504  30.251  10.609
12819W        W84348  41.330  43.225   1.289
12820W        W84349  41.139  24.619  10.952
12821W        W84350  21.157  20.892  13.216
12822W        W84351  11.155  15.124  13.630
12823W        W84352  11.084   1.960  11.144
12824W        W84353  24.050  41.229  14.545
12825W        W84354  38.375  38.360   4.246
12826W        W84355  22.085  44.294  13.959
12827W        W84356   7.260  26.513   0.804
12828W        W84357  23.746  20.366   3.696
12829W        W84358  39.069  27.685   1.223
12830W        W84359  13.346  24.643  11.452
12831W        W84360   5.223   1.880   5.023
12832W        W84361  42.014  33.608   2.979
12833W        W84362   3.029  16.033   3.278
12834W        W84363  23.893  26.193  14.726
12835W        W84364  40.146  12.578   2.786
12836W        W84365  12.146   7.949  13.782
12837W        W84366  18.185  38.469  12.907
12838W        W84367  19.729   3.416   1.297
12839W        W84368  27.080   0.414   2.000
12840W        W84369  24.725  19.698  12.087
12841W        W84370  21.788   6.372  14.155
12842W        W84371  38.788   0.392   4.707
12843W        W84372  30.980   4.445   3.176
12844W        W84373   9.261  41.740  11.218
12845W        W84374  15.440  21.534   1.307
12846W        W84375  10.269  34.932  14.884
12847W        W84376  40.969  30.603   4.293
12848W        W84377   1.731  29.727   2.321
12849W        W84378  38.403  28.219  12.699
12850W        W84379  18.304  28.221   3.171
12851W        W84380  23.552  20.539  13.065
12852W        W84381  41.341  29.550  12.471
12853W        W84382  13.624   3.850   3.529
12854W        W84383  24.065  18.357   0.485
12855W        W84384  10.295  23.710  10.475
12856W        W84385  19.569  41.543  12.160
12857W        W84386  35.498  17.023  14.923
12858W        W84387  14.349  36.689  13.020
12859W        W84388   6.800  11.147  13.786
12860W        W84389  18.217  36.559   4.825
12861W        W84390  32.945  35.791  10.617
12862W        W84391  31.169   5.718  14.228
12863W        W84392   0.659  14.717   2.372
12864W        W84393  35.024  26.044  11.475
12865W        W84394   4.386  13.653  14.010
12866W        W84395  12.437  34.304   4.263
12867W        W84396  32.024  28.006  14.916
12868W        W84397   8.117  27.607  13.899
12869W        W84398  36.933  31.919   4.252
12870W        W84399  33.519   3.492  10.734
12871W        W84400   2.743   2.325   4.609
12872W        W84401   3.785   8.883  14.391
12873W        W84402  25.221  24.126   2.082
12874W        W84403  14.022  14.122  11.129
12875W        W84404  39.857   0.844   3.341
12876W        W84405  23.180  44.774  11.184
12877W        W84406  30.464  39.966  11.992
12878W        W84407  23.435   1.532   0.878
12879W        W84408  40.322  36.571  10.624
12880W        W84409  10.887  20.486  14.284
12881W        W84410  36.341  12.325  13.957
12882W        W84411  35.587  25.632   4.061
12883W        W84412  21.300  10.262  13.394
12884W        W84413  39.261  27.226   3.614
12885W        W84414   8.784  21.011   4.725
12886W        W84415  41.325  27.967  11.012
12887W        W84416  35.018  18.280   4.607
12888W        W84417  30.155  25.863   0.837
12889W        W84418  39.500  12.885  14.402
12890W        W84419  14.844  42.021  13.861
12891W        W84420  32.261  36.103   0.756
12892W        W84421  29.598  41.963   2.448
12893W        W84422  44.141  15.030  13.081
12894W        W84423  13.097  43.413   4.686
12895W        W84424  43.421  30.052  10.684
12896W        W84425  13.885  32.687   3.286
12897W        W84426  23.154   4.372  14.462
12898W        W84427  18.345  31.069  13.820
12899W        W84428  34.014   2.197  10.776
12900W        W84429   2.344  18.796   3.224
12901W        W84430   8.624  40.509  14.965
12902W        W84431  12.904  38.594  14.789
12903W        W84432  10.151  24.314   1.855
12904W        W84433   7.752  27.413   1.240
12905W        W84434   5.814   8.068  14.199
12906W        W84435  25.550   8.630  14.238
12907W        W84436   3.315  34.894   1.946
12908W        W84437   3.515  24.482  10.926
12909W        W84438   5.338   4.026   0.192
12910W        W84439  34.990  31.692   1.253
12911W        W84440   4.820  14.210   2.359
12912W        W84441  12.461   1.761  14.871
12913W        W84442  28.137  16.666  14.941
12914W        W84443  23.987  34.456   9.593
12915W        W84444  38.636  41.420  11.900
12916W        W84445  16.703  10.866  11.549
12917W        W84446  40.009  41.074  14.836
12918W        W84447  25.651  41.090   3.204
12919W        W84448  14.341  27.437   4.588
12920W        W84449  13.186   1.851  13.955
12921W        W84450  26.039  11.217  11.862
12922W        W84451  12.476  44.387  10.382
12923W        W84452   0.215   1.826  14.367
12924W        W84453  24.091  19.038  14.855
12925W        W84454  16.398  23.683  14.911
12926W        W84455  26.565  29.046  14.569
12927W        W84456  18.053  19.230   4.042
12928W        W84457  17.573   4.379   4.699
12929W        W84458  28.582   6.247  10.485
12930W        W84459  18.692   9.886  11.062
12931W        W84460  44.482  20.011   1.065
12932W        W84461  36.218   3.123  11.766
12933W        W84462  38.462  25.147  11.373
12934W        W84463  33.547   6.905  10.764
12935W        W84464  22.135  27.656  13.487
12936W        W84465  34.529  23.245  12.029
12937W        W84466  20.725  20.149   2.366
12938W        W84467   0.205  41.182   3.217
12939W        W84468  11.705   8.697   0.739
12940W        W84469  13.100  44.826  13.356
12941W        W84470   3.379  16.271  12.429
12942W        W84471  39.348   5.603   1.894
12943W        W84472  33.428   3.142   1.789
12944W        W84473  44.061   5.273  14.936
12945W        W84474   4.380  20.226   4.672
12946W        W84475  16.636   6.923  11.194
12947W        W84476  40.353  42.511  14.478
12948W        W84477   4.653  18.484  13.209
12949W        W84478  10.883   9.349  13.361
12950W        W84479   3.790  40.785  13.771
12951W        W84480  31.716  34.407  13.509
12952W        W84481  38.053   0.764  12.043
12953W        W84482   8.424  24.688  12.839
12954W        W84483  28.131  28.898  11.450
12955W        W84484   2.484  35.526  14.343
12956W        W84485  11.961  37.182   3.363
12957W        W84486  38.593  25.609   3.849
12958W        W84487   4.273  41.507   2.839
12959W        W84488  26.139  43.905  12.086
12960W        W84489  21.526  34.964  10.974
12961W        W84490  25.100  17.602   0.329
12962W        W84491  23.810   5.719  11.967
12963W        W84492  15.312  15.980  12.366
12964W        W84493   9.079   6.909   0.811
12965W        W84494  17.445  26.164  13.051
12966W        W84495  33.478  27.090  14.932
12967W        W84496  17.507  28.116  13.176
12968W        W84497  20.553  38.078  12.301
12969W        W84498  40.966   4.294  12.669
12970W        W84499  39.704   7.839  11.189
12971W        W84500  26.710   4.263  14.696
12972W        W84501  18.713  42.330  12.084
12973W        W84502  23.230  12.638   2.062
12974W        W84503  40.092  11.667  12.223
12975W        W84504  37.409  18.691  10.707
12976W        W84505  22.347  25.530  12.068
12977W        W84506  15.847   4.893   1.902
12978W        W84507  33.917   6.214  14.834
12979W        W84508  35.532  27.173   2.702
12980W        W84509  23.757  33.619   3.226
12981W        W84510   2.838   1.084  13.333
12982W        W84511  39.433  18.008   0.738
12983W        W84512   7.454  37.859   1.391
12984W        W84513  26.061  15.383   1.708
12985W        W84514  30.885  32.717   0.815
12986W        W84515   3.126   7.148   2.731
12987W        W84516   0.744  29.526  12.974
12988W        W84517  26.622  30.833  14.514
12989W        W84518  19.820  43.427   3.634
12990W        W84519  25.171  11.863   0.857
12991W        W84520  15.076  12.736   4.506
12992W        W84521  11.417  42.528  10.980
12993W        W84522   8.256  35.696   1.385
12994W        W84523  17.513  38.001  10.734
12995W        W84524  29.269  23.538  12.458
12996W        W84525  43.483  33.353  13.288
12997W        W84526  29.862   7.712   1.886
12998W        W84527   0.976  25.615  10.997
12999W        W84528  34.906   5.315  10.814
13000W        W84529  40.903  14.351  11.614
13001W        W84530  21.485  29.704  10.746
13002W        W84531  24.187   8.770  12.017
13003W        W84532   6.702   2.309   1.734
13004W        W84533  32.759  37.771   0.517
13005W        W84534  35.413  33.801   2.320
13006W        W84535  26.782  11.679   5.161
13007W        W84536  20.571  40.472   1.625
13008W        W84537  40.767  14.539   4.411
13009W        W84538   0.222  25.244  12.845
13010W        W84539  25.839  37.077  11.066
13011W        W84540   8.525   9.146  13.111
13012W        W84541  13.369  12.251   4.550
13013W        W84542  39.915   7.313  10.640
13014W        W84543  26.619  16.522  14.980
13015W        W84544  28.104  33.565  12.509
13016W        W84545  18.498  30.231  10.799
13017W        W84546   1.960  26.972   4.531
13018W        W84547  43.935  42.798   3.736
13019W        W84548  10.630  41.325   0.166
13020W        W84549  37.274  25.549   3.570
13021W        W84550  38.281  27.586  11.620
13022W        W84551  39.052   0.249   2.312
13023W        W84552  10.700  29.009   3.142
13024W        W84553  12.076  35.191   1.868
13025W        W84554   4.859  43.055  13.779
13026W        W84555  37.078  13.115   1.892
13027W        W84556   3.396  39.405   4.632
13028W        W84557  20.631   9.428  12.400
13029W        W84558   9.250  36.963  13.782
13030W        W84559  41.455  32.482   1.833
13031W        W84560  38.033  16.970  13.184
13032W        W84561  28.930  19.222   0.912
13033W        W84562  14.283  23.941   1.334
13034W        W84563   3.472  25.962  11.550
13035W        W84564   7.264  19.270   3.233
13036W        W84565  30.570   1.270  14.301
13037W        W84566  29.057   1.307  13.472
13038W        W84567  29.673  34.011   2.781
13039W        W84568  17.240  13.125  13.852
13040W        W84569  20.714  32.585  10.687
13041W        W84570  29.552  22.477   2.583
13042W        W84571  28.549   6.938   3.682
13043W        W84572  26.911  25.683  12.528
13044W        W84573  37.974  31.887   2.705
13045W        W84574   5.203  33.970  10.428
13046W        W84575  29.774   6.035   1.060
13047W        W84576  20.884  30.773   4.079
13048W        W84577  28.177  27.009   1.628
13049W        W84578  20.102  28.113   1.309
13050W        W84579  40.265  32.398   3.373
13051W        W84580   1.860  30.702   4.350
13052W        W84581  43.950   5.729   0.649
13053W        W84582   1.358  39.832  10.621
13054W        W84583  37.246  42.314   1.297
13055W        W84584  42.886   4.280   0.387
13056W        W84585   6.235  31.880   0.618
13057W        W84586  43.828   1.639   4.175
13058W        W84587  16.685  14.860  10.771
13059W        W84588  29.523  32.463   2.796
13060W        W84589  23.420  34.161   3.973
13061W        W84590   6.188  17.183  13.071
13062W        W84591  16.722  43.131   0.771
13063W        W84592   1.620  25.679  14.256
13064W        W84593  37.660   3.808   3.809
13065W        W84594   9.598  26.486   0.802
13066W        W84595  41.302  23.316  10.684
13067W        W84596  26.207  14.536   0.341
13068W        W84597  15.619  36.443  11.874
13069W        W84598   0.812  44.547   4.188
13070W        W84599  11.978  28.695  11.137
13071W        W84600  20.130  43.255   2.757
13072W        W84601  19.731   8.643   0.447
13073W        W84602  17.992  43.184   1.263
13074W        W84603  41.428  16.133   0.797
13075W        W84604  27.998  21.268  12.021
13076W        W84605  29.982  13.820   2.887
13077W        W84606  35.527   3.249  13.648
13078W        W84607  12.946  37.906   4.900
13079W        W84608  11.492  32.984  10.664
13080W        W84609  32.959  34.675   0.099
13081W        W84610  41.439  40.946  14.364
13082W        W84611  20.024  44.256  12.143
13083W        W84612  38.053  42.345   0.253
13084W        W84613  36.539  21.682  14.452
13085W        W84614  27.955   3.023  12.523
13086W        W84615   5.365  41.088  14.611
13087W        W84616  43.339  38.806   0.838
13088W        W84617  13.169  36.018   3.160
13089W        W84618  27.242  11.126  12.520
13090W        W84619  15.799   8.066  10.264
13091W        W84620  23.786  39.609  10.179
13092W        W84621  43.030  37.668   3.192
13093W        W84622  12.295  28.591  12.940
13094W        W84623  34.892  35.379  11.400
13095W        W84624  17.129  37.342   2.823
13096W        W84625  44.484   8.798  10.764
13097W        W84626   0.934  41.156  12.357
13098W        W84627   5.399  16.095   0.849
13099W        W84628  40.641  21.281   0.790
13100W        W84629  10.156  21.733   2.786
13101W        W84630  29.102  13.855   4.169
13102W        W84631  34.819  39.319  12.758
13103W        W84632  29.642   2.045  13.012
13104W        W84633   8.244  26.606   3.205
13105W        W84634  35.639  28.116  11.948
13106W        W84635  17.733  12.870   2.934
13107W        W84636  43.399  33.725   4.293
13108W        W84637  31.738  33.700   3.616
13109W        W84638   7.107   9.988  10.777
13110W        W84639  27.573  43.647   3.416
13111W        W84640  23.315   4.964  12.005
13112W        W84641   5.016  28.568   2.911
13113W        W84642  35.542  23.827   2.693
13114W        W84643   8.275  29.168  12.039
13115W        W84644  37.222  20.155   4.672
13116W        W84645   5.168  44.013  12.482
13117W        W84646  42.942  38.908   2.341
13118W        W84647  29.571   1.163   1.407
13119W        W84648  35.442  36.928   4.641
13120W        W84649  31.328   1.792  13.413
13121W        W84650   8.392  37.191  14.651
13122W        W84651   6.756  44.992   2.162
13123W        W84652  30.618  33.480  13.037
13124W        W84653  30.109  22.894   1.124
13125W        W84654  34.546  22.186   2.112
13126W        W84655  15.815  12.828   4.197
13127W        W84656  28.593  29.106  11.536
13128W        W84657  32.576  41.895   1.294
13129W        W84658  13.316  26.128   3.805
13130W        W84659  27.462  16.757  11.424
13131W        W84660  14.362  26.663  10.243
13132W        W84661   6.321  26.018  11.548
13133W        W84662   4.763   3.745   3.836
13134W        W84663  23.000   1.693  12.031
13135W        W84664  14.991  15.397  13.858
13136W        W84665  32.478  12.166  12.174
13137W        W84666  17.726  36.295   4.536
13138W        W84667  42.043  43.877   2.431
13139W        W84668  30.549  37.894   1.389
13140W        W84669  27.275   3.278  13.796
13141W        W84670   8.840   7.423  10.085
13142W        W84671  13.984   6.051   2.234
13143W        W84672   5.123  20.396  11.120
13144W        W84673   1.347  36.983   0.090
13145W        W84674  22.643  42.729   4.216
13146W        W84675  39.360  29.680  12.862
13147W        W84676  31.708  15.064   2.168
13148W        W84677  20.566  41.492  12.375
13149W        W84678   9.134  38.382  14.329
13150W        W84679  43.991   5.796  12.343
13151W        W84680  34.797  13.179   0.376
13152W        W84681   6.747   9.082  11.498
13153W        W84682   6.948   5.120  12.588
13154W        W84683  28.686  28.604   4.218
13155W        W84684  34.691  33.901   0.245
13156W        W84685  42.482  27.362  13.825
13157W        W84686   7.178   4.815  13.698
13158W        W84687  20.102   5.169  10.677
13159W        W84688  19.315  28.150   0.785
13160W        W84689  32.478   5.324  13.587
13161W        W84690  44.688  12.964  11.137
13162W        W84691  26.254  44.484  12.752
13163W        W84692   5.054  12.877   1.281
13164W        W84693  38.567  23.497   2.723
13165W        W84694  29.917  15.665   3.243
13166W        W84695  20.626  16.718  14.945
13167W        W84696  17.290  43.230   3.223
13168W        W84697  28.448   5.489  13.999
13169W        W84698  21.640  35.505  12.830
13170W        W84699  33.566  43.486   4.625
13171W        W84700  25.661  32.319  11.073
13172W        W84701  12.708  13.317   4.966
13173W        W84702  32.256  21.968   3.850
13174W        W84703   4.561  14.167  14.452
13175W        W84704  26.292  22.245   2.187
13176W        W84705   2.787  29.172   3.196
13177W        W84706   1.778  21.291  11.218
13178W        W84707  44.288  35.361   3.346
13179W        W84708   5.342  26.697   1.803
13180W        W84709   2.508   5.927   2.264
13181W        W84710  38.899  15.857   1.708
13182W        W84711   9.597   8.143   1.512
13183W        W84712  19.224   6.304  11.252
13184W        W84713  21.424   4.930  10.965
13185W        W84714  17.564  17.601   1.870
13186W        W84715   1.282  16.703   1.586
13187W        W84716  37.398   6.475  13.920
13188W        W84717   4.180   5.005  13.832
13189W        W84718  20.461  13.197  14.884
13190W        W84719  10.707   3.877   0.716
13191W        W84720  29.498   5.247  14.904
13192W        W84721  37.088   9.792   3.494
13193W        W84722  11.305   5.568  11.129
13194W        W84723  44.370   7.885   3.244
13195W        W84724  28.484  22.544  12.904
13196W        W84725  13.040  18.598   2.625
13197W        W84726   8.343  20.524   1.895
13198W        W84727   7.068  27.003   4.067
13199W        W84728  27.208   0.913  14.179
13200W        W84729  22.999  27.698   3.196
13201W        W84730  21.275  36.711  11.619
13202W        W84731  15.296  44.674  12.049
13203W        W84732  11.893   1.178   1.711
13204W        W84733   2.926  14.676   2.317
13205W        W84734  42.234  28.951  11.978
13206W        W84735   3.175  19.878  13.405
13207W        W84736  42.094  30.394  13.305
13208W        W84737  28.199  23.038  13.408
13209W        W84738  20.235  41.940  14.588
13210W        W84739  17.631  32.597  13.877
13211W        W84740  10.661  23.516  11.981
13212W        W84741  31.592  43.384   1.165
13213W        W84742   7.306  12.971  12.101
13214W        W84743  20.891  25.112  13.798
13215W        W84744  35.084   2.931   3.415
13216W        W84745   3.770  16.571  12.850
13217W        W84746  31.715  28.484  14.035
13218W        W84747  17.114  43.624  14.488
13219W        W84748  38.506  36.386  10.997
13220W        W84749  17.486  13.881  10.635
13221W        W84750   2.021  13.675   2.355
13222W        W84751   2.799  37.808   2.126
13223W        W84752  20.653   7.754   0.998
13224W        W84753  30.004  16.270  10.953
13225W        W84754  21.966  17.616  12.859
13226W        W84755   3.979  38.024   0.077
13227W        W84756  13.142   1.025   0.259
13228W        W84757  23.807  32.270   0.773
13229W        W84758  32.922  16.367  10.666
13230W        W84759  19.952  23.800  10.851
13231W        W84760  23.788  13.872  11.528
13232W        W84761  34.743  39.519   3.369
13233W        W84762  42.752   1.603  13.350
13234W        W84763  31.481  21.256   0.242
13235W        W84764  20.033  33.832   1.969
13236W        W84765  31.637  44.733  13.030
13237W        W84766   7.947   0.472  12.742
13238W        W84767  33.777   8.580  12.062
13239W        W84768  36.735  21.086  14.344
13240W        W84769  44.614  38.878   3.112
13241W        W84770   7.824   8.741   0.762
13242W        W84771  13.263  38.964   4.178
13243W        W84772  32.461  14.764   1.449
13244W        W84773  28.747   9.007   2.378
13245W        W84774  18.188  36.387   4.346
13246W        W84775  18.281   0.257  14.913
13247W        W84776  43.927  35.567  13.288
13248W        W84777  31.263   4.707  10.007
13249W        W84778  36.512  21.124  12.596
13250W        W84779  21.221   8.135   0.326
13251W        W84780  33.654  11.628  11.094
13252W        W84781  24.935  23.030  11.026
13253W        W84782   6.740  11.885  10.625
13254W        W84783  30.163  32.662  14.442
13255W        W84784  12.348  31.240  14.521
13256W        W84785  44.462  11.160   3.684
13257W        W84786  25.980   0.413  14.391
13258W        W84787   2.126  24.251  14.955
13259W        W84788  36.786  21.613  10.580
13260W        W84789  22.421   4.936  11.057
13261W        W84790  14.113  41.124  14.933
13262W        W84791  32.112   6.755   1.897
13263W        W84792  39.560   4.713  13.531
13264W        W84793  41.855  28.680   1.784
13265W        W84794  43.010   4.720  13.411
13266W        W84795  32.361  33.687   1.546
13267W        W84796  32.403  30.476   0.781
13268W        W84797  12.305  11.122   0.351
13269W        W84798  14.890  30.208  10.713
13270W        W84799  23.264  37.118  12.474
13271W        W84800   3.771  35.009   0.216
13272W        W84801  12.604   1.258  13.546
13273W        W84802  10.362  14.063   2.386
13274W        W84803  36.344  41.362  10.658
13275W        W84804   4.641  12.859  10.392
13276W        W84805  34.400  17.536   1.292
13277W        W84806  13.715  27.617  12.863
13278W        W84807  18.805  41.552   0.711
13279W        W84808  36.892   9.947   2.807
13280W        W84809  12.327   8.761   2.371
13281W        W84810  20.612  22.888   0.241
13282W        W84811  40.105  30.534  12.108
13283W        W84812  31.203   8.680  12.416
13284W        W84813  33.772  18.328   3.706
13285W        W84814  21.629   6.360  12.165
13286W        W84815  13.724   9.195  13.485
13287W        W84816  25.766  42.957  14.429
13288W        W84817  31.105  39.858   4.166
13289W        W84818   2.675  34.082   3.636
13290W        W84819  20.768  13.377   2.754
13291W        W84820  11.133  39.095  14.793
13292W        W84821  43.539   5.164  14.928
13293W        W84822  26.371  36.628   3.553
13294W        W84823  41.534   3.495  13.159
13295W        W84824   6.524  37.545   3.645
13296W        W84825   5.780  26.955   1.291
13297W        W84826  27.910  38.930   2.948
13298W        W84827  18.263  34.057   1.824
13299W        W84828  24.721  35.887  14.849
13300W        W84829   8.624  43.849   3.361
13301W        W84830   1.060   0.891   4.563
13302W        W84831  28.016  13.910  13.903
13303W        W84832  33.886  14.253  10.601
13304W        W84833  43.570  41.161  12.879
13305W        W84834   8.346  34.807   0.045
13306W        W84835  31.322  37.625  10.482
13307W        W84836  21.108  20.055  14.683
13308W        W84837  25.954  26.855   4.566
13309W        W84838  36.896  42.688   4.684
13310W        W84839  33.897  11.292   3.254
13311W        W84840  12.366   7.267   1.884
13312W        W84841  20.019  37.422   0.728
13313W        W84842  13.703  15.907   0.457
13314W        W84843  34.519  19.970   2.321
13315W        W84844  36.385   7.163  13.780
13316W        W84845  25.990  31.417  13.962
13317W        W84846  34.207  13.376  12.287
13318W        W84847  28.565  39.979  11.558
13319W        W84848  33.157   2.953  12.473
13320W        W84849  11.717  18.175   0.978
13321W        W84850  27.202  41.833  11.131
13322W        W84851  12.275   9.094   3.677
13323W        W84852  36.484  41.708   0.981
13324W        W84853   9.975  34.015  11.553
13325W        W84854  11.949  15.051   3.096
13326W        W84855  35.990  18.539   0.448
13327W        W84856  13.983  15.083  11.066
13328W        W84857  15.361  38.412   0.462
13329W        W84858  13.668  21.074   0.352
13330W        W84859  31.015  28.904  11.806
13331W        W84860   7.590  43.903  14.369
13332W        W84861   2.204   4.234  11.109
13333W        W84862  26.869  44.351  10.082
13334W        W84863  29.346   3.444  11.554
13335W        W84864   5.648  40.497  12.450
13336W        W84865   2.797  11.570  13.384
13337W        W84866  30.357  41.837   2.897
13338W        W84867  10.222  41.785  11.017
13339W        W84868  19.384   4.419   4.518
13340W        W84869  28.034   7.560  13.142
13341W        W84870  42.777  20.656  13.783
13342W        W84871  42.783   3.316   2.672
13343W        W84872  20.803  26.712  14.523
13344W        W84873  11.119  24.618   3.183
13345W        W84874  27.514  37.391  13.935
13346W        W84875  21.548  31.437   3.561
13347W        W84876  17.610   2.554  10.484
13348W        W84877   5.738  14.298  11.220
13349W        W84878  20.227  27.561  14.980
13350W        W84879  40.605  35.258   2.689
13351W        W84880   0.244  33.401   4.065
13352W        W84881   9.819  33.578   0.837
13353W        W84882  31.114  30.645  14.361
13354W        W84883  11.121   6.319   3.124
13355W        W84884  24.568  27.792  13.833
13356W        W84885  35.007  33.511   3.174
13357W        W84886  33.959   0.960  14.043
13358W        W84887  14.027  38.275   3.312
13359W        W84888  12.088  34.973  10.411
13360W        W84889  39.600   5.685   4.177
13361W        W84890  14.839   5.793  12.385
13362W        W84891  43.329  37.383   3.809
13363W        W84892  32.555  23.120   5.043
13364W        W84893  11.672  21.571  11.160
13365W        W84894  38.042  38.173   3.895
13366W        W84895   9.836  37.465   3.994
13367W        W84896  36.527  18.415  11.020
13368W        W84897   1.311   8.821   4.667
13369W        W84898   2.412  26.951  13.014
13370W        W84899  29.445  40.022   0.716
13371W        W84900  13.194  39.957  14.983
13372W        W84901  10.768  42.906  10.681
13373W        W84902  39.017  32.855  11.509
13374W        W84903  41.706  34.144  14.352
13375W        W84904   4.279  19.648   0.262
13376W        W84905  14.865  39.022   2.981
13377W        W84906  21.311   1.646   4.051
13378W        W84907  23.977  34.871  12.513
13379W        W84908   4.808   1.201   4.701
13380W        W84909  23.505   2.359  12.643
13381W        W84910   0.310  16.306  13.020
13382W        W84911  15.860   9.480   4.930
13383W        W84912  32.980  27.926  10.380
13384W        W84913  10.372  32.846   1.840
13385W        W84914  44.498  18.116   3.638
13386W        W84915  25.538  12.777  12.466
13387W        W84916   2.527  38.815   3.254
13388W        W84917  35.651  38.796  13.835
13389W        W84918  32.321   2.304   0.771
13390W        W84919  42.039  12.829   2.703
13391W        W84920   0.027   8.462  12.077
13392W        W84921  20.519  27.951  13.036
13393W        W84922  43.995  36.892  13.316
13394W        W84923  24.537  44.962   3.300
13395W        W84924  40.586   0.714   4.493
13396W        W84925  12.362   5.934  13.497
13397W        W84926  14.703  44.553   0.792
13398W        W84927  42.060  20.747  11.936
13399W        W84928   0.549  22.735   3.634
13400W        W84929  43.267  14.570   0.868
13401W        W84930  20.223  29.790  14.278
13402W        W84931   5.380   3.445  11.142
13403W        W84932  34.901  26.975   4.572
13404W        W84933  17.331   1.402   3.649
13405W        W84934   6.239  23.913   4.974
13406W        W84935  21.509  28.406  11.050
13407W        W84936  16.073  34.247   0.758
13408W        W84937  36.654  19.745  10.891
13409W        W84938   7.503  41.397   0.856
13410W        W84939  13.200  10.566  11.836
13411W        W84940  37.911  30.627  14.893
13412W        W84941  37.394  29.539  10.765
13413W        W84942  33.530  36.074  13.564
13414W        W84943  43.361  30.125   3.251
13415W        W84944  43.274  18.654  12.154
13416W        W84945  19.793   6.486  13.911
13417W        W84946   1.680  14.808   4.236
13418W        W84947  39.028  19.639  11.991
13419W        W84948  38.877  33.467   3.746
13420W        W84949   4.303  16.618   0.532
13421W        W84950  23.144   8.229   2.356
13422W        W84951   5.256  18.261   2.236
13423W        W84952  36.142  13.192  11.094
13424W        W84953  43.504  35.660   0.399
13425W        W84954  11.552  37.047  13.445
13426W        W84955  37.121  23.294  13.898
13427W        W84956  37.115  25.052  14.376
13428W        W84957  41.051  26.644  14.412
13429W        W84958  37.420   0.065  12.046
13430W        W84959   5.363  43.222  12.321
13431W        W84960  43.552   3.442  14.469
13432W        W84961  37.306   1.868   1.226
13433W        W84962  35.267  38.331   3.212
13434W        W84963  37.959  37.793  13.527
13435W        W84964  21.879  44.729   1.239
13436W        W84965  36.523  41.265  14.353
13437W        W84966  31.724  27.710  10.615
13438W        W84967   6.445  34.111   0.492
13439W        W84968  15.956  34.964   0.353
13440W        W84969   4.524   2.948  10.802
13441W        W84970  13.057  22.193  13.332
13442W        W84971  11.670  18.104   2.492
13443W        W84972  41.932  39.137  13.524
13444W        W84973  22.527  40.904  13.897
13445W        W84974  32.294  15.293  10.127
13446W        W84975  26.034  26.335   2.308
13447W        W84976  14.172  25.588   3.761
13448W        W84977  41.035  10.708   4.907
13449W        W84978  25.145  31.686   2.132
13450W        W84979  25.452   2.352  12.075
13451W        W84980  21.612   1.397  12.419
13452W        W84981  16.790  23.044  13.886
13453W        W84982  43.362  44.267  14.614
13454W        W84983  16.508  39.003  12.465
13455W        W84984   6.805  24.724   1.361
13456W        W84985  37.474  25.906   2.329
13457W        W84986   6.675   7.827  13.902
13458W        W84987   4.644  32.012  13.018
13459W        W84988  17.820  39.882  13.729
13460W        W84989  44.929  31.185  10.473
13461W        W84990  34.459  23.734   4.745
13462W        W84991  33.675  25.660   1.227
13463W        W84992   5.719   9.329  14.008
13464W        W84993  19.680   1.226  11.667
13465W        W84994  30.010   3.044   0.558
13466W        W84995  14.373  42.457  12.757
13467W        W84996  16.711  43.341   4.889
13468W        W84997  15.039  26.694   1.560
13469W        W84998  13.316  32.545   0.690
13470W        W84999   4.098  33.390  12.995
13471W        W85000  41.370   1.037  13.973
13472W        W85001  44.315   1.769   0.938
13473W        W85002   0.712  28.534   0.776
13474W        W85003  13.720  14.303   1.285
13475W        W85004   3.799  38.421  12.843
13476W        W85005  43.031  28.349   1.895
13477W        W85006  16.123  20.504  14.425
13478W        W85007  32.765  41.840  14.367
13479W        W85008  18.275   5.833   0.250
13480W        W85009  24.715  32.391   1.722
13481W        W85010  24.120  11.672  12.918
13482W        W85011  23.486   9.219  13.036
13483W        W85012  30.184  34.970  14.905
13484W        W85013  15.323   8.368  11.929
13485W        W85014  20.725  25.986  14.316
13486W        W85015   5.373  15.330   1.344
13487W        W85016  10.207  15.888   5.105
13488W        W85017  34.652  36.805   0.505
13489W        W85018  38.342  23.528   3.175
13490W        W85019  23.279  26.543   2.318
13491W        W85020  27.190   7.819  10.673
13492W        W85021  41.038  26.161  13.481
13493W        W85022  25.568  18.086  10.703
13494W        W85023  31.634  20.513  11.047
13495W        W85024  23.598   9.353  11.221
13496W        W85025  44.861   4.228  13.017
13497W        W85026  30.223  35.945  11.972
13498W        W85027   0.422  43.966  13.025
13499W        W85028   0.918  33.382   2.755
13500W        W85029  33.908   8.985   2.706
13501W        W85030  41.824  42.557   3.709
13502W        W85031  16.629  21.750  12.266
13503W        W85032  25.295   1.668   4.102
13504W        W85033  37.790   0.773  11.511
13505W        W85034   3.711   2.333   2.418
13506W        W85035  14.145  42.007  11.551
13507W        W85036  17.980  35.281   3.643
13508W        W85037  30.509   0.212  12.600
13509W        W85038  41.012   7.189  13.964
13510W        W85039   6.305  28.404  14.892
13511W        W85040  43.114   5.263   2.304
13512W        W85041  12.837  42.869  14.781
13513W        W85042  18.862  15.917   4.975
13514W        W85043  35.579   4.888   2.447
13515W        W85044  21.395  27.864  10.268
13516W        W85045   4.747  13.592  11.583
13517W        W85046  30.138  17.590  13.559
13518W        W85047  27.705  37.059  11.426
13519W        W85048  36.872  41.597   4.993
13520W        W85049   0.467  38.581  10.607
13521W        W85050   1.689   1.907  12.118
13522W        W85051  40.126   5.470  12.988
13523W        W85052  22.978  21.271   1.795
13524W        W85053  39.416  24.973   4.090
13525W        W85054  20.740  28.194   3.294
13526W        W85055   1.710  14.082   2.269
13527W        W85056  26.651  19.249   3.704
13528W        W85057  18.347  31.601  13.714
13529W        W85058  16.711  38.226  13.989
13530W        W85059  12.697  12.652   2.525
13531W        W85060  25.180  10.432   0.807
13532W        W85061  38.666  22.974  10.773
13533W        W85062  19.525  27.725  12.920
13534W        W85063   7.010  23.178  14.149
13535W        W85064  10.030  25.111   3.457
13536W        W85065   6.621  25.226  13.376
13537W        W85066   6.923  15.604   1.814
13538W        W85067   3.033  22.294  10.675
13539W        W85068  11.412  14.082  11.501
13540W        W85069  26.056   4.158  12.833
13541W        W85070  25.593  34.572  13.490
13542W        W85071   2.243   3.177   1.409
13543W        W85072  17.722  28.959  11.565
13544W        W85073  43.562   6.014   0.416
13545W        W85074  20.506  19.357   2.746
13546W        W85075  11.832   0.509   0.834
13547W        W85076   0.963  28.850  13.545
13548W        W85077   0.335  29.727   1.260
13549W        W85078  11.574  39.985  12.380
13550W        W85079  25.100  11.358   4.701
13551W        W85080   2.782  37.141   0.802
13552W        W85081  34.124   3.294  11.449
13553W        W85082  35.878  43.329  13.949
13554W        W85083  25.965  40.490  14.365
13555W        W85084  26.064  34.371   0.955
13556W        W85085  26.995  21.425   1.482
13557W        W85086  36.593   2.862  14.997
13558W        W85087  29.990  41.480   3.819
13559W        W85088  30.917  31.745   0.056
13560W        W85089  10.654  28.106  11.052
13561W        W85090   1.049  26.405   4.558
13562W        W85091  15.527  31.905   3.303
13563W        W85092  23.043  12.041   4.658
13564W        W85093  39.884   2.431  14.922
13565W        W85094  32.784  16.530   4.002
13566W        W85095  39.411   8.201   2.316
13567W        W85096  26.121   1.829   4.806
13568W        W85097  22.204  15.890   0.338
13569W        W85098  17.415  30.960  10.587
13570W        W85099   6.809  44.825   0.641
13571W        W85100  35.272  44.031   1.836
13572W        W85101  16.628  32.403   0.781
13573W        W85102  12.853  12.674  11.506
13574W        W85103   1.892  23.521   4.813
13575W        W85104  43.924   8.273   0.672
13576W        W85105   0.239  29.149  14.830
13577W        W85106  27.554  23.152   1.971
13578W        W85107  25.694  23.531  14.952
13579W        W85108  29.745  11.872   5.131
13580W        W85109  15.827  15.585   3.246
13581W        W85110  41.595   6.932  13.780
13582W        W85111  10.882   9.068   2.159
13583W        W85112  41.834  44.503  14.412
13584W        W85113  35.912  16.697   1.722
13585W        W85114  17.054  15.602   1.263
13586W        W85115  36.245  20.625  11.117
13587W        W85116   4.573  28.398   3.839
13588W        W85117   2.222  36.449  13.955
13589W        W85118   9.711  17.294   4.559
13590W        W85119  25.252  26.038  12.990
13591W        W85120  16.552  42.589  13.516
13592W        W85121  36.416  10.959   2.625
13593W        W85122  20.393  21.964  14.769
13594W        W85123  31.286   2.232   3.831
13595W        W85124  35.966  21.542   4.057
13596W        W85125   7.156  27.701  11.099
13597W        W85126   9.174   3.745  11.344
13598W        W85127  30.580  17.763   1.602
13599W        W85128  33.600  40.871   2.419
13600W        W85129  24.912  37.690  13.274
13601W        W85130  12.258  12.603  13.417
13602W        W85131  27.005  40.894  11.669
13603W        W85132  18.196  31.240   5.190
13604W        W85133  31.327  15.660  11.991
13605W        W85134  31.795  21.612  12.024
13606W        W85135  15.059  19.098   3.110
13607W        W85136  24.315  22.044   2.246
13608W        W85137  32.187  16.126  14.576
13609W        W85138  14.036  12.647  14.764
13610W        W85139   7.137  32.819  12.586
13611W        W85140   9.151  30.492  11.818
13612W        W85141   0.397  39.860  12.029
13613W        W85142  41.547  23.754  10.745
13614W        W85143   7.292  41.037  10.672
13615W        W85144   9.231  41.337   0.382
13616W        W85145  26.589  34.093   3.919
13617W        W85146   9.196  31.930   0.519
13618W        W85147  42.396  15.743  10.791
13619W        W85148  16.875  16.572   4.094
13620W        W85149   0.808  18.093   0.461
13621W        W85150  38.578  22.061  12.393
13622W        W85151  21.260  35.187  13.999
13623W        W85152  31.941  18.626  12.684
13624W        W85153   5.366  21.954   2.283
13625W        W85154  21.276  29.438   0.555
13626W        W85155   4.859  29.060   2.758
13627W        W85156  38.501  36.043  14.782
13628W        W85157   5.582   0.487   0.993
13629W        W85158  25.719   6.449   2.869
13630W        W85159  19.288  16.603   0.820
13631W        W85160   5.259  31.130   4.015
13632W        W85161  15.674  27.670   4.674
13633W        W85162  19.778  22.459   1.164
13634W        W85163   5.841   9.092   1.431
13635W        W85164  11.808  11.224  13.422
13636W        W85165  42.568  29.569  12.071
13637W        W85166  26.578  14.661   1.433
13638W        W85167  11.321  23.252   2.362
13639W        W85168  40.584  11.647  12.053
13640W        W85169   4.359   1.909  12.564
13641W        W85170  12.756  14.235  12.037
13642W        W85171  30.141  28.149   4.322
13643W        W85172  44.293  40.408   3.674
13644W        W85173  37.044  43.464  14.820
13645W        W85174  29.108  27.577  13.769
13646W        W85175  18.373  10.290  11.082
13647W        W85176  10.318  43.489  13.117
13648W        W85177   4.754  10.688  12.666
13649W        W85178  33.786  10.890  10.278
13650W        W85179  11.325  23.517  13.819
13651W        W85180   4.123  36.095  11.649
13652W        W85181  27.468  33.287  13.944
13653W        W85182   3.934  14.992   3.156
13654W        W85183  11.246  15.162   2.806
13655W        W85184  43.357   7.114   1.319
13656W        W85185  22.845  33.122  10.177
13657W        W85186  11.891  38.436  12.472
13658W        W85187  38.550  30.083   0.433
13659W        W85188  36.856  44.323   1.501
13660W        W85189  34.242  24.718   2.413
13661W        W85190  18.238  19.145  14.259
13662W        W85191  40.866  40.218   3.307
13663W        W85192  44.099  42.959   1.232
13664W        W85193   8.544  42.874  11.360
13665W        W85194  43.289  33.098  10.987
13666W        W85195  34.325  19.113  13.915
13667W        W85196  18.942  11.061  11.152
13668W        W85197   8.368  38.416  10.871
13669W        W85198  28.659  14.960  14.999
13670W        W85199  37.460   8.509   3.877
13671W        W85200  26.594  29.814  10.687
13672W        W85201   7.063   5.417  12.177
13673W        W85202  11.783  13.954  12.354
13674W        W85203  37.884  31.946   1.331
13675W        W85204  15.807  32.090  14.769
13676W        W85205  13.835   1.330  10.964
13677W        W85206  12.919   1.506   0.262
13678W        W85207  42.530  39.009   0.400
13679W        W85208  20.795  43.228   3.666
13680W        W85209  20.974  21.745   3.396
13681W        W85210  21.254  36.464   2.627
13682W        W85211  16.570   7.396   1.796
13683W        W85212  43.074  21.419  10.115
13684W        W85213  11.515  28.997  12.873
13685W        W85214   5.607  38.722  14.439
13686W        W85215   4.548   0.279   0.677
13687W        W85216  14.670   4.455  10.908
13688W        W85217   7.702  40.288  14.033
13689W        W85218  43.584  42.499   2.839
13690W        W85219  29.899  20.003  11.196
13691W        W85220  16.668  25.675   1.879
13692W        W85221  27.520   9.829   3.859
13693W        W85222  14.701  31.632   0.331
13694W        W85223  42.803   5.702  11.402
13695W        W85224   9.682  40.998   3.723
13696W        W85225  40.992  27.172  10.695
13697W        W85226   8.741  42.007   1.205
13698W        W85227   2.869  12.173  13.028
13699W        W85228  10.158  36.522   1.715
13700W        W85229  21.061  19.283   4.143
13701W        W85230  37.221   6.754   4.496
13702W        W85231  37.502  33.156   3.063
13703W        W85232  12.716  11.799  12.510
13704W        W85233   6.803  31.917   2.106
13705W        W85234  36.087  32.977   4.603
13706W        W85235   4.825  39.954   1.177
13707W        W85236  32.362  25.548  13.481
13708W        W85237  14.618  25.548   1.955
13709W        W85238  41.518  19.016   4.261
13710W        W85239  40.826  36.950   2.833
13711W        W85240  22.238  42.305  13.880
13712W        W85241  24.051  44.246  11.099
13713W        W85242  20.540  43.203  14.536
13714W        W85243  41.003  26.335   2.845
13715W        W85244  33.491  39.433   2.211
13716W        W85245  17.588  29.808  11.024
13717W        W85246  41.066   3.295  13.044
13718W        W85247  36.642  23.092  13.902
13719W        W85248  13.801  38.460  13.989
13720W        W85249  28.503  14.290  14.026
13721W        W85250  38.936  13.241   1.768
13722W        W85251  40.117  26.956  12.544
13723W        W85252  15.572  33.597   4.606
13724W        W85253  43.843  44.085  11.903
13725W        W85254  38.377  15.399   3.918
13726W        W85255  24.466  31.366   3.231
13727W        W85256  14.154  10.640  13.951
13728W        W85257  14.644  14.365  12.519
13729W        W85258  37.902  38.996   0.992
13730W        W85259   7.098  21.954   1.813
13731W        W85260  37.594   6.262  12.523
13732W        W85261  10.352  25.589   4.313
13733W        W85262  44.700   5.867  13.060
13734W        W85263   6.172   8.615  14.926
13735W        W85264  27.606   2.842   2.805
13736W        W85265  15.768  28.479  11.702
13737W        W85266   2.343  13.805   1.326
13738W        W85267  40.821   8.109   2.159
13739W        W85268  17.946   7.686   3.741
13740W        W85269  10.748  44.240   3.142
13741W        W85270  26.904  40.473  14.330
13742W        W85271  20.978  24.437   0.350
13743W        W85272  11.166  39.571   4.919
13744W        W85273  32.989  36.016   0.143
13745W        W85274   7.270   9.741   4.145
13746W        W85275  29.637  43.400   1.842
13747W        W85276  33.751   2.221  13.544
13748W        W85277  33.173  22.578   0.400
13749W        W85278  16.705  35.675  13.390
13750W        W85279  19.265  24.050   0.841
13751W        W85280  17.997  44.945  12.882
13752W        W85281  10.805  40.949   4.417
13753W        W85282   7.891  15.542  10.541
13754W        W85283  39.771  38.937  11.269
13755W        W85284   7.931  18.335  14.822
13756W        W85285  18.660   0.993   4.727
13757W        W85286  17.585   8.192   1.053
13758W        W85287  21.756   4.647   2.746
13759W        W85288  17.960  26.955  10.771
13760W        W85289   8.372  22.667  10.715
13761W        W85290  28.179  29.664   4.238
13762W        W85291  12.179  33.905   3.643
13763W        W85292  13.414   9.874  11.123
13764W        W85293  27.853  23.648  11.578
13765W        W85294  13.845  30.559   1.275
13766W        W85295   9.221  34.948  14.827
13767W        W85296  17.064   7.752  14.231
13768W        W85297  38.192  16.119   4.396
13769W        W85298  44.446   0.652   3.235
13770W        W85299  30.029  17.155   2.087
13771W        W85300   1.491   7.347  12.954
13772W        W85301  13.713  42.820  10.728
13773W        W85302   6.674  18.612  13.619
13774W        W85303  32.509  19.405  10.235
13775W        W85304  42.808  12.337   4.206
13776W        W85305  18.115  19.659  13.599
13777W        W85306  28.398   5.619  12.175
13778W        W85307  33.094  37.816   2.774
13779W        W85308  40.867  16.823   3.700
13780W        W85309  20.154  33.326   1.894
13781W        W85310  19.484  30.585   1.474
13782W        W85311  37.435  32.763  11.725
13783W        W85312   3.728  38.614   0.421
13784W        W85313   6.169  20.039   1.869
13785W        W85314  13.661   4.646   4.117
13786W        W85315  21.014   9.253   0.751
13787W        W85316   0.221  39.769   4.267
13788W        W85317  41.113  22.852   1.837
13789W        W85318   9.754  24.736  14.464
13790W        W85319  31.721  42.638  14.909
13791W        W85320  26.681  39.963  10.755
13792W        W85321  27.761  28.647  11.698
13793W        W85322  35.506  38.559  13.064
13794W        W85323  33.482  17.159   2.346
13795W        W85324  17.268   3.557   0.203
13796W        W85325  18.572  14.567   5.015
13797W        W85326  20.573  13.136  11.939
13798W        W85327  18.539  19.165   0.711
13799W        W85328  36.530  13.765  14.882
13800W        W85329   6.987  14.217   1.765
13801W        W85330   3.788  11.155   4.529
13802W        W85331   1.335  35.495  12.958
13803W        W85332  24.674  17.967  14.329
13804W        W85333   2.321  36.973  10.881
13805W        W85334   0.455  39.864  13.196
13806W        W85335  21.513  37.126   2.264
13807W        W85336   2.838  17.747   3.514
13808W        W85337  25.911  36.449   0.729
13809W        W85338  27.273  40.532   3.882
13810W        W85339  21.731  23.227  10.652
13811W        W85340  12.986  29.070   1.122
13812W        W85341  42.332  19.306  13.349
13813W        W85342   6.463  26.607   2.856
13814W        W85343   5.697  40.056   2.908
13815W        W85344  20.419  12.245  10.693
13816W        W85345  37.795   3.907   0.873
13817W        W85346  16.767   6.189   4.578
13818W        W85347  44.256  34.447  11.811
13819W        W85348  33.939  20.712   4.242
13820W        W85349   4.623  25.434  11.192
13821W        W85350  14.698  30.053   1.998
13822W        W85351  22.212   4.909   2.598
13823W        W85352  23.215  19.693  14.348
13824W        W85353  40.006  10.797   0.722
13825W        W85354  35.463  19.224   4.606
13826W        W85355  12.640   5.115   2.656
13827W        W85356  20.293   9.400   3.707
13828W        W85357  34.907   1.584  13.846
13829W        W85358   4.362  10.412   3.075
13830W        W85359  25.519  14.370  12.424
13831W        W85360  39.817  20.113  10.862
13832W        W85361  20.596  32.112  11.245
13833W        W85362  25.867  42.008  12.121
13834W        W85363   4.429  19.605   1.485
13835W        W85364   2.882  40.900  13.818
13836W        W85365  37.393  19.512   1.768
13837W        W85366  30.458  38.225   2.343
13838W        W85367   0.006  12.170  13.900
13839W        W85368   2.413  42.737   0.721
13840W        W85369  43.079  13.354  13.250
13841W        W85370  26.460  25.942  12.437
13842W        W85371  16.299  39.077  10.656
13843W        W85372   5.278  28.130  12.668
13844W        W85373  37.609  24.149  11.232
13845W        W85374  29.192   0.922  10.150
13846W        W85375  14.619  39.328   0.626
13847W        W85376  18.718  42.145   4.190
13848W        W85377  15.442  10.089   3.639
13849W        W85378  16.178   2.497   4.022
13850W        W85379  25.178   0.453   4.638
13851W        W85380  19.021  25.469   0.919
13852W        W85381  16.600  19.271  13.430
13853W        W85382   9.099  14.523   3.072
13854W        W85383  37.551  18.542   2.613
13855W        W85384  41.389  23.733  12.501
13856W        W85385  40.387  23.586   0.504
13857W        W85386  32.750  21.722  12.859
13858W        W85387  15.994  20.056   1.831
13859W        W85388  34.384   4.900  14.422
13860W        W85389  35.179  18.046   2.693
13861W        W85390  41.630  35.410   2.715
13862W        W85391  21.210   9.960   2.848
13863W        W85392  27.082  24.114  12.003
13864W        W85393  22.351  27.113   3.216
13865W        W85394   8.326  27.516  10.815
13866W        W85395  23.523  13.715  10.658
13867W        W85396  12.137  44.606   3.255
13868W        W85397  38.992  10.689   3.197
13869W        W85398  37.556  40.770   2.389
13870W        W85399  18.321  23.796   4.107
13871W        W85400  30.858  19.270   4.053
13872W        W85401  43.993   7.171   0.069
13873W        W85402  13.689  13.887   2.313
13874W        W85403  30.474  43.345   3.530
13875W        W85404   4.770  17.059  13.067
13876W        W85405  13.864  41.105  13.001
13877W        W85406  43.441  17.157   1.781
13878W        W85407  39.848  35.725  13.472
13879W        W85408   3.821  25.720  14.563
13880W        W85409   1.701  25.577  12.380
13881W        W85410  30.516  43.707   2.491
13882W        W85411   8.866  41.518  11.649
13883W        W85412  19.840  35.152   4.699
13884W        W85413  13.227  42.821   0.123
13885W        W85414  32.707  24.490   0.861
13886W        W85415   1.781  28.253   2.435
13887W        W85416  20.190  22.882  11.332
13888W        W85417  41.163  37.642  10.030
13889W        W85418  17.591  18.105   2.774
13890W        W85419  36.059  35.884  12.495
13891W        W85420   3.585  39.222  14.279
13892W        W85421  24.183  16.442  10.863
13893W        W85422  43.401  12.579  13.390
13894W        W85423  28.680  44.898   4.550
13895W        W85424  43.133  36.930   4.741
13896W        W85425  10.124  13.814   3.731
13897W        W85426   6.867  39.131   4.715
13898W        W85427  36.269  36.468  12.888
13899W        W85428  22.187  31.080  14.597
13900W        W85429  41.985  33.604   0.526
13901W        W85430  17.104  38.892  13.505
13902W        W85431  24.259  31.792   3.517
13903W        W85432   3.215  21.124  13.280
13904W        W85433  30.006  42.300   0.322
13905W        W85434  19.765   4.204  13.991
13906W        W85435  23.230   2.911   4.943
13907W        W85436  31.668  41.561  11.971
13908W        W85437  17.018  33.410  14.898
13909W        W85438  19.278  29.966  12.540
13910W        W85439  27.711  22.997  13.254
13911W        W85440  35.193  20.199   3.114
13912W        W85441  24.967  41.950  13.365
13913W        W85442  40.001  36.985  13.297
13914W        W85443  15.692   6.853   4.610
13915W        W85444  28.471  30.477  10.799
13916W        W85445  31.808   1.731  14.438
13917W        W85446  28.391   9.689  14.004
13918W        W85447  15.177  19.356   0.423
13919W        W85448  42.364  40.032  12.869
13920W        W85449   0.474  12.309  12.428
13921W        W85450  44.866   1.423   2.607
13922W        W85451  11.560  31.559   2.777
13923W        W85452  19.730  32.517   2.501
13924W        W85453  15.387  20.456   4.146
13925W        W85454  42.141  29.966  13.626
13926W        W85455  42.708  19.594  12.860
13927W        W85456   3.450  44.426  14.398
13928W        W85457  41.320  22.532  14.902
13929W        W85458  17.544  39.143   4.917
13930W        W85459  20.536  30.514  12.012
13931W        W85460  24.307  31.684  11.114
13932W        W85461  38.942   0.725  11.214
13933W        W85462  26.176   6.392  14.479
13934W        W85463  12.753   9.019  13.177
13935W        W85464  18.303  32.520   2.156
13936W        W85465  23.183   2.035  13.349
13937W        W85466  43.924  16.771   3.874
13938W        W85467  29.974   2.710   0.970
13939W        W85468  28.430   0.836  12.578
13940W        W85469  35.459  44.709   2.840
13941W        W85470  37.419   1.265   4.141
13942W        W85471  10.790  33.206   0.958
13943W        W85472  42.024   5.729  10.737
13944W        W85473  40.342  20.741  14.456
13945W        W85474   4.991  33.066   4.146
13946W        W85475  44.604  23.027  12.052
13947W        W85476  35.549  42.545  13.361
13948W        W85477  37.877  14.686  13.989
13949W        W85478  21.040  29.736  12.464
13950W        W85479  17.630   9.349  12.069
13951W        W85480   9.129  18.144  10.657
13952W        W85481  12.876  22.043  11.962
13953W        W85482   2.078   6.244  10.217
13954W        W85483  27.647  28.897   1.056
13955W        W85484   9.434  15.238   4.970
13956W        W85485   0.761  15.657  13.623
13957W        W85486  39.452  43.021  10.933
13958W        W85487  28.018  23.954   0.921
13959W        W85488   1.466  23.474   0.235
13960W        W85489  25.955  19.285  13.403
13961W        W85490  32.359  40.491   4.974
13962W        W85491  33.709  39.047  13.747
13963W        W85492  26.542  38.643   1.910
13964W        W85493  42.762  23.936  12.131
13965W        W85494  33.814  43.356   4.169
13966W        W85495   7.182  21.789   4.188
13967W        W85496   9.653  17.821   4.601
13968W        W85497  25.707   1.318   4.806
13969W        W85498  32.225  15.638  10.503
13970W        W85499  26.246  34.000  14.041
13971W        W85500   8.193  40.872   4.570
13972W        W85501   8.010  42.065  11.394
13973W        W85502   0.336  41.395   1.525
13974W        W85503  28.496  18.565  14.391
13975W        W85504  38.586  32.094   0.476
13976W        W85505  18.633  30.295   4.024
13977W        W85506  28.335   9.493  10.124
13978W        W85507  39.675  17.139  12.015
13979W        W85508  42.445  35.532  13.118
13980W        W85509  27.095  13.371   2.411
13981W        W85510  42.412  31.906   4.331
13982W        W85511   5.952  35.592  14.420
13983W        W85512  44.175  24.620   1.815
13984W        W85513  31.887  30.441  11.795
13985W        W85514   6.942   3.187   4.429
13986W        W85515  11.800  20.699   4.769
13987W        W85516  43.809  38.948  13.007
13988W        W85517  19.223   4.777   2.797
13989W        W85518  14.824  22.169  13.053
13990W        W85519  10.801  43.953  11.641
13991W        W85520  40.535  13.779   1.635
13992W        W85521  39.125  39.381  11.585
13993W        W85522   6.513   2.666   1.414
13994W        W85523  21.909  13.937   3.359
13995W        W85524  17.481  32.499   1.148
13996W        W85525   3.205   9.327   4.702
13997W        W85526   4.868  30.877   2.811
13998W        W85527  32.800   3.704   2.557
13999W        W85528  40.890  35.743   2.640
14000W        W85529  33.244  13.667   4.902
14001W        W85530  14.855  24.110   2.308
14002W        W85531   9.618   3.366  13.234
14003W        W85532  21.119   6.470  13.452
14004W        W85533  37.011  12.669   2.223
14005W        W85534  40.106  28.113   2.334
14006W        W85535  32.437   5.650  13.980
14007W        W85536  21.338  36.793   9.790
14008W        W85537  44.568  21.805  13.457
14009W        W85538  30.135  17.180   2.596
14010W        W85539  16.827  16.308   2.853
14011W        W85540  40.615   5.767  10.962
14012W        W85541  34.193  33.385   2.852
14013W        W85542  34.381   3.257   0.709
14014W        W85543  28.984   8.885   1.289
14015W        W85544  34.357  34.571  13.179
14016W        W85545  23.658  27.416  11.962
14017W        W85546   3.216  18.098  14.512
14018W        W85547  30.921  23.570   1.724
14019W        W85548   0.173  16.763   3.300
14020W        W85549  10.367   9.807   1.434
14021W        W85550  28.737  19.758  12.558
14022W        W85551   7.736  12.188  14.925
14023W        W85552  10.653  28.201  11.860
14024W        W85553  43.714  18.810  13.443
14025W        W85554  10.086   9.816   3.097
14026W        W85555   8.056   0.913  13.645
14027W        W85556  16.358  23.568   4.470
14028W        W85557  15.709   0.247   0.457
14029W        W85558  36.436  31.714   2.287
14030W        W85559  31.809  37.155  11.091
14031W        W85560  12.699  38.946   5.350
14032W        W85561  11.808  24.452  14.648
14033W        W85562   5.118  14.189   4.640
14034W        W85563  15.162  27.676   0.389
14035W        W85564   2.836  14.132  12.601
14036W        W85565  17.350  21.992  12.158
14037W        W85566  39.598   1.537  14.661
14038W        W85567  19.808   4.593   3.627
14039W        W85568  17.947   5.031  11.643
14040W        W85569  22.157  31.953  11.762
14041W        W85570  34.464  36.591  12.527
14042W        W85571  20.164  33.466   4.562
14043W        W85572   3.437  18.295  10.361
14044W        W85573  31.955  24.072  12.175
14045W        W85574  32.141  15.826  13.061
14046W        W85575  31.556  44.004  13.522
14047W        W85576  14.588   6.255   4.034
14048W        W85577  29.539  14.861  14.815
14049W        W85578  41.079  18.398   1.269
14050W        W85579   9.852  31.564  12.818
14051W        W85580  17.381  14.157   1.553
14052W        W85581  19.016  16.281   3.419
14053W        W85582  13.134  26.090  14.018
14054W        W85583  41.237  30.961   2.154
14055W        W85584   5.292  40.359  12.103
14056W        W85585  41.896   8.847  10.774
14057W        W85586  18.743   6.418   3.036
14058W        W85587   4.690  20.282  10.849
14059W        W85588   4.432  27.082  13.247
14060W        W85589   7.294  26.401  10.637
14061W        W85590  31.413  15.021   0.656
14062W        W85591  22.547  36.028   0.772
14063W        W85592  28.563  28.907   2.912
14064W        W85593  36.303  38.640   1.695
14065W        W85594  23.594   8.774   1.250
14066W        W85595  21.928   9.937  14.689
14067W        W85596  44.970  43.635  14.703
14068W        W85597  20.704  36.116   3.341
14069W        W85598  32.259  28.910   1.769
14070W        W85599  13.953  44.573   2.284
14071W        W85600  40.245  16.798   0.405
14072W        W85601  33.789  25.734   0.106
14073W        W85602  35.413  32.614   0.264
14074W        W85603  30.026  32.341   3.512
14075W        W85604  18.567  17.437   4.106
14076W        W85605  35.362   3.300   3.173
14077W        W85606  37.461  21.600   1.801
14078W        W85607  20.282  11.731   4.631
14079W        W85608  43.090  15.145  13.903
14080W        W85609  35.822  19.513   3.591
14081W        W85610  35.004  13.858   4.561
14082W        W85611   2.996  19.772  11.227
14083W        W85612  38.408  12.167  12.201
14084W        W85613   2.738   1.381   0.475
14085W        W85614  11.365   1.975   1.774
14086W        W85615  30.140  25.002  12.341
14087W        W85616   4.291  34.156   4.544
14088W        W85617  34.911  27.669   3.408
14089W        W85618  18.817   4.408  11.009
14090W        W85619  44.565  43.965   4.842
14091W        W85620  38.292   4.695  11.672
14092W        W85621   1.853   3.181  11.689
14093W        W85622  40.567  39.536   3.400
14094W        W85623  29.334   7.900  11.585
14095W        W85624   3.325  22.739   2.147
14096W        W85625  25.283  30.413  11.594
14097W        W85626  43.230   0.713   1.895
14098W        W85627  41.812  16.947   1.635
14099W        W85628  34.501   2.337  12.473
14100W        W85629  40.862  24.506   2.190
14101W        W85630  40.871  12.383   4.571
14102W        W85631   6.924  30.106   3.380
14103W        W85632  12.085   7.672   0.578
14104W        W85633   1.444  35.400  14.385
14105W        W85634  16.344   0.714   3.228
14106W        W85635   1.890  11.585   1.977
14107W        W85636  37.835  41.331   1.666
14108W        W85637  28.240  34.411  14.333
14109W        W85638  42.441   2.940   2.580
14110W        W85639  40.227   4.806   3.229
14111W        W85640  42.840   0.432   0.704
14112W        W85641  15.145  23.623   2.245
14113W        W85642   8.203  18.076  14.474
14114W        W85643   5.281  40.177  11.158
14115W        W85644  35.631   6.291   3.469
14116W        W85645  23.604  23.938   1.232
14117W        W85646  40.811  19.149  14.913
14118W        W85647  17.124  18.496  10.273
14119W        W85648  26.888  40.960   1.883
14120W        W85649  43.477   3.056  11.070
14121W        W85650  15.556  31.032   1.045
14122W        W85651   5.735  12.697   2.279
14123W        W85652  36.323  13.406  14.457
14124W        W85653  26.123  17.282   0.731
14125W        W85654  26.552  38.359   3.355
14126W        W85655  38.830   5.876   4.693
14127W        W85656  14.862  36.002   3.366
14128W        W85657  43.905  35.175  12.920
14129W        W85658   3.150  33.851  14.805
14130W        W85659  32.782   3.470   4.519
14131W        W85660  33.558  29.258   1.979
14132W        W85661   1.781   5.061  14.411
14133W        W85662  12.231   2.014  14.331
14134W        W85663  14.601  40.327   4.570
14135W        W85664  36.857  12.218  14.012
14136W        W85665   3.002  32.399   2.179
14137W        W85666  20.725  32.433   2.967
14138W        W85667  29.630  38.815   0.847
14139W        W85668  17.039   6.330  14.102
14140W        W85669   9.877   5.186  13.307
14141W        W85670  26.724  39.975   2.575
14142W        W85671  30.556  41.537   4.017
14143W        W85672  39.111  14.749   0.835
14144W        W85673  41.833  35.893   2.813
14145W        W85674  31.102  20.094  12.978
14146W        W85675   3.905  42.892  12.771
14147W        W85676  44.386  40.080  14.376
14148W        W85677  14.421  30.396   0.673
14149W        W85678  39.030  35.095   2.817
14150W        W85679  24.781  27.081   4.223
14151W        W85680  18.984   6.916   1.886
14152W        W85681  18.447  16.917   4.095
14153W        W85682   5.554  17.344  10.311
14154W        W85683  21.228  32.212   4.272
14155W        W85684  35.804  29.183  14.717
14156W        W85685  25.232  43.144  12.328
14157W        W85686   1.610  35.930   3.067
14158W        W85687   1.724  41.045  14.764
14159W        W85688  28.747   3.349   2.357
14160W        W85689   9.745  19.513  14.063
14161W        W85690  11.344  35.314   3.162
14162W        W85691  20.737  29.539  12.098
14163W        W85692  17.165  33.104  14.472
14164W        W85693  30.015  15.313   0.924
14165W        W85694  32.928  34.881  10.656
14166W        W85695  29.278   5.082   4.599
14167W        W85696  38.472  36.161   1.232
14168W        W85697   5.828   8.671  12.845
14169W        W85698  32.035  19.084  12.432
14170W        W85699  20.080   9.710   0.062
14171W        W85700  22.086  36.292  14.937
14172W        W85701   9.808   1.940  14.818
14173W        W85702   6.004   7.597  14.362
14174W        W85703  29.110  11.404   1.244
14175W        W85704   1.475   4.162   4.033
14176W        W85705  18.158  44.795   3.517
14177W        W85706  36.470   1.420  11.754
14178W        W85707   1.069  27.902  14.943
14179W        W85708  41.184   0.582  14.444
14180W        W85709  43.841   9.822   2.818
14181W        W85710  33.487   2.156   1.135
14182W        W85711  39.395  16.194   0.255
14183W        W85712  42.550  40.518  14.445
14184W        W85713  23.693  23.076   2.276
14185W        W85714  30.972  12.324  12.693
14186W        W85715  22.087   2.340   3.769
14187W        W85716   3.213  14.151   3.093
14188W        W85717   2.220  36.370  14.897
14189W        W85718  24.673  20.280  10.651
14190W        W85719  25.753  12.312   1.742
14191W        W85720  31.721  10.101   2.190
14192W        W85721  14.060  24.416  10.958
14193W        W85722  28.881  42.339   3.876
14194W        W85723  41.260   3.897   0.879
14195W        W85724  12.828   2.779  14.758
14196W        W85725  44.721  22.151   4.757
14197W        W85726  26.439  24.300   5.181
14198W        W85727  21.050  14.175   4.376
14199W        W85728  34.003  22.530   2.287
14200W        W85729   3.623   3.357   3.394
14201W        W85730  26.179   0.318   2.711
14202W        W85731  24.717  18.978  14.296
14203W        W85732  33.299  13.782  14.503
14204W        W85733  25.784  42.711  12.050
14205W        W85734  26.570   9.625  14.333
14206W        W85735  33.688  14.787   1.966
14207W        W85736  42.314  30.104  12.878
14208W        W85737  18.542  35.197  13.277
14209W        W85738  14.198  43.345  13.959
14210W        W85739  10.462  28.907   2.412
14211W        W85740  31.534  27.178  11.873
14212W        W85741  12.358  12.328   0.264
14213W        W85742  20.925  37.173  10.084
14214W        W85743  19.187  16.263   1.245
14215W        W85744   1.626  19.194   2.154
14216W        W85745  19.359  37.354  11.515
14217W        W85746   1.149  36.461   4.096
14218W        W85747  38.271  25.864  13.044
14219W        W85748   5.528  28.131  14.169
14220W        W85749  30.365  14.237  14.349
14221W        W85750  34.436  16.202   3.445
14222W        W85751  11.089  31.816  14.766
14223W        W85752   9.104  35.004  13.494
14224W        W85753  27.690  30.823   4.143
14225W        W85754   4.082  22.549   2.574
14226W        W85755  40.425  18.236  11.462
14227W        W85756  28.965  22.219   2.721
14228W        W85757  41.670  44.492   0.257
14229W        W85758  19.466   6.208  12.085
14230W        W85759  34.129  29.162   3.593
14231W        W85760  37.236   3.888   1.869
14232W        W85761  14.822  16.197  12.808
14233W        W85762  15.122  32.998   0.722
14234W        W85763  11.335  41.036  14.920
14235W        W85764  17.141  14.633   0.680
14236W        W85765  44.625   7.519  12.295
14237W        W85766  41.937   3.084   2.547
14238W        W85767  39.540  19.019   4.721
14239W        W85768  37.445  18.683  11.701
14240W        W85769   3.814  41.808   0.997
14241W        W85770  11.350  12.055   3.612
14242W        W85771  16.306  14.977   4.819
14243W        W85772  16.821  18.566  12.993
14244W        W85773   7.206   8.940  11.735
14245W        W85774  43.237   4.504  10.965
14246W        W85775  42.525  21.792   3.714
14247W        W85776  29.338   0.797  11.375
14248W        W85777  36.136   5.707  11.059
14249W        W85778  17.586   6.307  12.985
14250W        W85779  16.853  16.209   2.038
14251W        W85780  41.043   3.917  10.854
14252W        W85781  37.146  42.404  14.848
14253W        W85782  21.454  29.312  13.822
14254W        W85783  19.515  19.065  12.909
14255W        W85784  38.878  35.011  14.375
14256W        W85785  31.658  28.363   9.939
14257W        W85786   7.410  22.129   1.424
14258W        W85787   5.819  21.682   4.191
14259W        W85788   5.154  32.630  14.008
14260W        W85789  41.144  14.408   1.706
14261W        W85790  28.272  10.069  11.347
14262W        W85791   6.733  39.334  12.942
14263W        W85792  28.199  42.940  11.452
14264W        W85793  28.744   2.947   4.524
14265W        W85794  22.580  27.577   1.647
14266W        W85795  37.137  15.172   3.049
14267W        W85796  13.823  17.608   2.945
14268W        W85797  36.470   9.576  14.358
14269W        W85798  17.552  13.424  12.228
14270W        W85799  44.951   8.881  14.713
14271W        W85800  22.922  11.867  13.346
14272W        W85801  32.468  40.743   0.196
14273W        W85802  42.212   2.390  12.428
14274W        W85803  15.595  37.733   2.754
14275W        W85804  28.893  35.064   1.302
14276W        W85805  41.781  28.816  12.780
14277W        W85806  43.880  42.967   1.721
14278W        W85807  12.187  10.673  14.832
14279W        W85808  40.290  11.673   4.210
14280W        W85809   4.243  27.244  10.578
14281W        W85810  29.158   0.325   0.381
14282W        W85811  39.492  30.012   1.158
14283W        W85812  44.871  31.135   0.094
14284W        W85813  15.100  12.337  13.337
14285W        W85814  13.652  13.325  10.787
14286W        W85815  34.498   1.733   3.493
14287W        W85816  23.239   5.619   3.083
14288W        W85817  15.430  43.990  13.180
14289W        W85818  30.910  31.760  10.250
14290W        W85819  21.099  10.846  14.050
14291W        W85820  25.648  19.552   4.148
14292W        W85821  42.356  14.813  12.928
14293W        W85822  12.831  34.393  13.467
14294W        W85823  30.596   1.680   1.495
14295W        W85824  33.790  31.603   1.821
14296W        W85825   5.750  16.972  11.582
14297W        W85826  36.531  29.169  12.089
14298W        W85827  35.067  28.154  11.293
14299W        W85828  23.198  22.127  13.122
14300W        W85829  17.516  40.601  11.097
14301W        W85830   1.954   0.512  13.946
14302W        W85831   6.790   7.654   1.804
14303W        W85832  14.133  41.558   1.267
14304W        W85833  32.147  15.253   5.338
14305W        W85834  17.483  26.625   5.016
14306W        W85835   4.069  18.461   4.511
14307W        W85836  29.170  22.726   0.333
14308W        W85837  38.019  28.264  10.592
14309W        W85838  28.454  24.140   4.764
14310W        W85839  16.075  11.515  13.461
14311W        W85840  44.997  14.681   3.804
14312W        W85841  35.072   0.520  13.099
14313W        W85842   8.081  43.923   0.386
14314W        W85843   2.680  28.357  11.199
14315W        W85844  36.063  22.806   1.441
14316W        W85845  18.514  31.417   1.753
14317W        W85846  20.186  13.658   2.880
14318W        W85847  34.794  33.493   3.678
14319W        W85848  41.287  35.561  11.139
14320W        W85849  44.146  20.333   4.062
14321W        W85850  13.239   3.465  13.998
14322W        W85851  41.527  41.012   0.374
14323W        W85852   6.693  10.879   1.215
14324W        W85853  18.497  33.265   3.658
14325W        W85854  38.523  44.435  14.753
14326W        W85855  29.453  26.222  10.639
14327W        W85856   4.801  13.148   2.186
14328W        W85857  11.601  36.523   4.161
14329W        W85858  23.414  43.984  13.745
14330W        W85859   1.120  14.672   4.440
14331W        W85860   9.610  34.828  14.361
14332W        W85861  38.523   7.912  11.534
14333W        W85862  38.273  14.662   1.214
14334W        W85863   3.598  31.488   3.832
14335W        W85864  18.561  19.014  10.362
14336W        W85865  36.763  28.377   1.710
14337W        W85866   8.409   3.794  14.736
14338W        W85867  39.922   6.456  10.912
14339W        W85868  26.759  18.458   1.169
14340W        W85869   5.283  34.082  14.486
14341W        W85870  39.229   2.417  12.086
14342W        W85871  10.606   8.152  13.024
14343W        W85872   2.833  25.891  14.224
14344W        W85873   5.809  13.352  11.090
14345W        W85874  27.734  43.244  12.192
14346W        W85875  18.373  35.936   0.463
14347W        W85876  28.843  31.642  10.322
14348W        W85877  20.152   9.929  13.509
14349W        W85878  11.334  31.637  14.327
14350W        W85879  28.175  36.915   4.591
14351W        W85880   2.399  12.051   1.412
14352W        W85881  10.139  29.681   1.029
14353W        W85882   0.904  44.592   1.219
14354W        W85883  17.524   1.635  12.564
14355W        W85884  11.267  37.355  11.207
14356W        W85885  36.119  44.807   4.022
14357W        W85886  23.839  15.079  14.847
14358W        W85887  21.031  41.959   1.724
14359W        W85888  11.020  42.317  13.112
14360W        W85889  18.165  21.956  13.947
14361W        W85890  22.916  29.127  10.730
14362W        W85891   3.232  29.457   1.385
14363W        W85892  15.714  31.425   4.176
14364W        W85893  34.787  23.569  13.883
14365W        W85894  10.724   8.902   0.386
14366W        W85895  14.211  14.285   4.704
14367W        W85896  19.665   3.431  12.506
14368W        W85897  18.125  21.214   2.828
14369W        W85898   6.769   7.713   3.580
14370W        W85899  27.156  27.693  11.231
14371W        W85900  27.026  11.694   3.556
14372W        W85901  34.455  39.466   1.597
14373W        W85902   1.839  33.322   2.173
14374W        W85903  14.683  19.003   4.643
14375W        W85904  38.578  36.890  13.071
14376W        W85905  19.650   6.868   2.471
14377W        W85906  42.575   1.331  14.894
14378W        W85907  19.573  29.106   3.239
14379W        W85908  20.006   5.101  11.631
14380W        W85909   7.674  26.442   0.461
14381W        W85910  22.155  17.061   3.331
14382W        W85911   2.114   1.276   2.737
14383W        W85912  31.033  11.348   0.668
14384W        W85913   5.786  24.907   2.743
14385W        W85914  42.496  12.433   1.037
14386W        W85915  18.425  10.639   3.411
14387W        W85916  17.105  30.702  14.444
14388W        W85917  26.530  16.238   3.589
14389W        W85918  11.886  33.587  11.110
14390W        W85919  14.575  28.475   3.285
14391W        W85920  11.639  13.925   4.628
14392W        W85921  36.438  27.588   0.404
14393W        W85922  23.886  41.956   5.093
14394W        W85923  39.288  32.416   2.251
14395W        W85924  10.290  15.581  12.312
14396W        W85925  40.349  23.803   0.049
14397W        W85926   5.598   1.895   3.226
14398W        W85927  32.097  10.120   2.537
14399W        W85928  17.586  29.087  12.060
14400W        W85929   2.458  30.921  14.602
14401W        W85930  41.541  13.404  10.927
14402W        W85931   2.434  18.384   2.358
14403W        W85932  22.035  24.480   4.799
14404W        W85933  12.387   8.212   1.590
14405W        W85934   3.659  29.032   4.675
14406W        W85935  39.870  34.870  13.148
14407W        W85936  39.039  25.783   4.166
14408W        W85937  15.800  18.096   4.297
14409W        W85938   5.074  27.935  11.631
14410W        W85939   2.877  22.591  11.672
14411W        W85940  26.748  10.317   0.733
14412W        W85941  29.609  44.024  11.601
14413W        W85942  16.796  20.500   0.011
14414W        W85943  37.559  38.795  11.599
14415W        W85944  43.025  32.387   4.468
14416W        W85945  42.113  12.869   0.247
14417W        W85946   5.030   7.696   2.130
14418W        W85947  14.647  34.154   3.584
14419W        W85948  11.762  32.890  13.259
14420W        W85949  38.165   3.828   3.694
14421W        W85950  40.913   9.651  13.829
14422W        W85951  22.801   3.425  12.882
14423W        W85952  43.349  30.841   1.336
14424W        W85953  19.596  44.231   3.383
14425W        W85954   7.891   9.372  11.566
14426W        W85955  34.538  35.647  11.685
14427W        W85956   2.470  30.714  12.786
14428W        W85957  11.283  17.033   3.625
14429W        W85958  39.740   0.191   4.990
14430W        W85959  12.020  10.380   5.068
14431W        W85960  13.422  14.110   3.643
14432W        W85961  41.990  36.578   0.764
14433W        W85962  40.759  38.838   3.772
14434W        W85963  24.141  28.914  13.781
14435W        W85964   6.419   6.351  13.379
14436W        W85965  42.000  39.879   4.888
14437W        W85966  44.356  13.241  13.427
14438W        W85967  39.592  30.664   4.553
14439W        W85968   6.171  11.723  12.890
14440W        W85969   0.694  32.163  13.378
14441W        W85970   8.194   1.257   4.693
14442W        W85971   7.147  15.118   4.454
14443W        W85972  22.640  41.964   3.813
14444W        W85973  24.462  29.654  14.418
14445W        W85974  42.758  37.456   4.977
14446W        W85975   0.401  43.711  12.600
14447W        W85976  17.159  33.980  14.800
14448W        W85977  43.265   7.464  12.980
14449W        W85978  37.776   3.412  14.012
14450W        W85979  11.432  17.756   0.237
14451W        W85980  43.722   6.759  14.283
14452W        W85981  38.319  19.586  14.259
14453W        W85982   7.012  34.822  11.579
14454W        W85983  22.612  19.793   3.996
14455W        W85984  35.877  25.401  14.125
14456W        W85985  22.730   0.258   1.216
14457W        W85986   8.362  36.497  10.657
14458W        W85987  23.819  31.342   0.905
14459W        W85988   5.470   9.730   2.282
14460W        W85989  16.703   7.469  11.230
14461W        W85990  18.636  32.108  13.135
14462W        W85991  42.156  37.417  13.234
14463W        W85992  33.694  22.080   2.438
14464W        W85993  35.790  38.846   4.075
14465W        W85994  23.991  11.342  10.403
14466W        W85995  22.786  32.809   2.686
14467W        W85996  20.208  37.532   1.209
14468W        W85997  15.598  27.735   3.740
14469W        W85998  24.572  36.504   0.731
14470W        W85999  34.713  32.174   4.245
14471W        W86000  40.260   8.763   3.961
14472W        W86001  17.847  41.040  11.814
14473W        W86002  18.620  42.535  11.592
14474W        W86003   4.963   5.386   4.604
14475W        W86004  11.485  14.035   3.615
14476W        W86005  33.602   5.840   0.020
14477W        W86006  10.247   9.165   3.661
14478W        W86007  43.509  13.230   0.840
14479W        W86008  35.486  42.905   4.487
14480W        W86009  33.869  15.271  10.570
14481W        W86010  27.933   3.335   0.699
14482W        W86011   7.581   2.426  11.889
14483W        W86012  30.132  40.083  13.783
14484W        W86013  43.881  22.455  14.740
14485W        W86014  28.413  36.584  14.222
14486W        W86015   4.695  37.649  10.799
14487W        W86016  29.176  25.475   3.701
14488W        W86017  44.261  36.480  12.597
14489W        W86018  40.460  25.406  10.823
14490W        W86019  12.621  18.567  13.902
14491W        W86020  11.883   7.282   0.875
14492W        W86021   1.182  18.705   2.003
14493W        W86022  39.091   4.551  13.750
14494W        W86023  38.317  19.616  13.360
14495W        W86024  24.726  30.224   0.921
14496W        W86025  38.636   1.712  13.113
14497W        W86026  42.326   0.312   0.752
14498W        W86027  12.387  17.028  13.398
14499W        W86028  24.031   9.182  13.124
14500W        W86029  44.057  38.450  14.767
14501W        W86030  29.990   8.135   0.724
14502W        W86031  29.386  13.560  13.861
14503W        W86032  16.139  44.343  12.494
14504W        W86033  18.101   4.316  14.232
14505W        W86034  33.842   1.058  12.928
14506W        W86035  34.964   1.477  11.481
14507W        W86036  10.930  13.358  14.936
14508W        W86037  16.214  44.838  14.377
14509W        W86038  19.805  44.815  13.348
14510W        W86039  15.238  16.595   0.266
14511W        W86040  42.308  18.464   2.402
14512W        W86041  19.488  40.895   0.994
14513W        W86042  27.248  37.594   1.793
14514W        W86043  17.388  17.496  12.685
14515W        W86044  18.130  35.502   4.554
14516W        W86045  16.625  10.343   2.310
14517W        W86046  22.748   1.949   1.769
14518W        W86047  40.297  38.914  13.365
14519W        W86048  36.070  43.505   4.886
14520W        W86049  20.942  44.016  14.330
14521W        W86050   6.642   5.827  13.476
14522W        W86051  10.056  23.906   3.380
14523W        W86052  24.040   5.540   0.362
14524W        W86053  17.266  19.822   0.940
14525W        W86054  25.023  37.413  10.936
14526W        W86055  28.175  14.811   2.897
14527W        W86056  44.840   7.815   4.586
14528W        W86057   1.376   1.826  11.701
14529W        W86058  14.861  19.704  11.988
14530W        W86059  13.589  36.834   3.628
14531W        W86060  13.809  39.871  11.756
14532W        W86061  21.541  12.735   1.228
14533W        W86062  43.007   5.769  13.413
14534W        W86063   8.139   4.436   3.245
14535W        W86064  34.083  39.781   0.624
14536W        W86065   9.248  18.188   4.574
14537W        W86066  44.375  25.726  11.669
14538W        W86067   9.314   7.320   3.654
14539W        W86068  31.365  21.922  12.056
14540W        W86069   6.311  18.836  12.332
14541W        W86070  22.124  25.644   0.734
14542W        W86071  17.702  22.494  11.713
14543W        W86072  38.827  21.113  12.847
14544W        W86073   3.855   0.442   4.505
14545W        W86074  26.696  28.305  12.978
14546W        W86075  18.774  30.923   2.642
14547W        W86076  39.845  39.446   1.622
14548W        W86077  33.736  20.772  13.614
14549W        W86078  33.877  20.099  12.008
14550W        W86079  33.785  17.570   2.459
14551W        W86080  11.610  22.041   3.796
14552W        W86081  37.274  13.281  14.617
14553W        W86082  39.424  43.092  13.754
14554W        W86083  11.874  11.888   1.973
14555W        W86084  31.514  20.028   4.331
14556W        W86085   5.133  14.528  12.334
14557W        W86086  35.027  36.933   1.732
14558W        W86087  22.691   6.652   2.721
14559W        W86088  15.773  18.859   1.978
14560W        W86089  29.407  16.655  14.412
14561W        W86090  34.725  38.251  12.402
14562W        W86091   1.031  18.344  13.957
14563W        W86092  44.934  42.188   4.447
14564W        W86093  34.116   1.450   2.547
14565W        W86094  43.271  27.571  14.316
14566W        W86095   9.245  41.293   3.779
14567W        W86096  11.509   2.393   2.157
14568W        W86097  33.866  38.991  10.624
14569W        W86098  19.006  16.588  10.432
14570W        W86099  12.190  20.280   2.486
14571W        W86100  30.140  37.833  14.069
14572W        W86101  29.185  42.292  12.054
14573W        W86102   6.872   2.383   3.245
14574W        W86103  30.508  18.903   2.727
14575W        W86104  28.906  18.678   4.388
14576W        W86105  38.310  44.760   0.366
14577W        W86106   4.419  39.630  14.425
14578W        W86107  21.297  30.913  14.576
14579W        W86108  34.378  17.666   3.086
14580W        W86109  42.872  17.983   0.374
14581W        W86110  10.629  41.988   2.267
14582W        W86111  42.841  14.688   0.308
14583W        W86112  13.251  33.871   4.760
14584W        W86113  23.119  18.704   4.071
14585W        W86114  17.131  25.651  12.984
14586W        W86115  28.495  43.110   4.189
14587W        W86116  43.402   8.847  12.166
14588W        W86117  28.767   5.209   1.672
14589W        W86118   9.706  23.300  14.441
14590W        W86119  10.681   1.305  13.496
14591W        W86120  27.166  25.558   0.535
14592W        W86121  42.707  40.315   3.127
14593W        W86122   3.311  43.556   1.787
14594W        W86123  21.265  31.070  12.925
14595W        W86124   3.536  32.045   1.384
14596W        W86125  36.859  41.238  10.679
14597W        W86126   5.233  22.139  13.062
14598W        W86127   2.804  29.154   4.104
14599W        W86128   1.758  42.280  14.054
14600W        W86129  34.233  24.233   2.226
14601W        W86130  15.712  38.269   2.791
14602W        W86131  41.779  38.644  13.537
14603W        W86132   4.920  28.785   3.805
14604W        W86133   9.618  41.310   2.924
14605W        W86134  24.078  22.264  12.164
14606W        W86135  18.659  43.577   4.662
14607W        W86136  17.760   7.260  13.893
14608W        W86137  14.282  23.084   4.644
14609W        W86138  19.637  26.479   0.064
14610W        W86139  39.532  43.493   1.839
14611W        W86140  25.639  40.188   4.269
14612W        W86141  33.815  33.916   0.651
14613W        W86142  32.692  22.020  14.717
14614W        W86143  13.822  32.016  13.290
14615W        W86144  24.644   1.824  14.311
14616W        W86145   6.062  37.231  14.316
14617W        W86146  31.170  19.593  14.325
14618W        W86147  24.175  34.306   4.546
14619W        W86148  35.082  34.090   1.080
14620W        W86149   0.497  44.773  11.781
14621W        W86150  19.296  38.356  11.069
14622W        W86151  44.383  31.651  12.117
14623W        W86152   9.661  34.712  11.078
14624W        W86153  14.139   2.831  14.486
14625W        W86154  22.243  20.587  13.492
14626W        W86155  31.618   5.037  10.239
14627W        W86156   0.020  27.864  14.861
14628W        W86157  32.852   5.047   3.687
14629W        W86158  33.914   2.763   3.130
14630W        W86159  35.065  44.496   1.769
14631W        W86160  19.610  41.288   0.277
14632W        W86161   4.707  25.509  14.276
14633W        W86162  23.113  25.972   3.350
14634W        W86163  22.295  41.807  10.944
14635W        W86164  13.590   9.873   4.314
14636W        W86165  33.530  23.677  10.305
14637W        W86166  18.638  39.833  14.822
14638W        W86167  35.674  16.142   0.811
14639W        W86168   3.426  35.470   3.684
14640W        W86169  17.653  26.576  13.358
14641W        W86170  32.100  33.004  11.961
14642W        W86171  20.803  36.092  11.212
14643W        W86172  44.924   8.393   0.668
14644W        W86173  15.703  31.258  11.398
14645W        W86174  18.583   4.148  14.218
14646W        W86175  32.883  19.637   1.853
14647W        W86176  17.056  42.475   4.104
14648W        W86177   0.082   0.503  13.936
14649W        W86178  16.796  43.279   4.377
14650W        W86179  37.522   0.771   0.260
14651W        W86180  34.129  22.064  13.457
14652W        W86181  44.337  39.359   2.215
14653W        W86182   0.986  12.819   0.933
14654W        W86183  22.688   5.795   1.922
14655W        W86184  18.406  36.256   2.325
14656W        W86185  37.293  30.036  10.611
14657W        W86186  42.404  14.250   2.355
14658W        W86187  13.451   9.320  14.865
14659W        W86188  21.613  35.156   1.228
14660W        W86189  40.094  32.486   2.179
14661W        W86190  32.601  11.181   2.985
14662W        W86191   1.201  20.987   2.569
14663W        W86192   1.471  34.897  11.881
14664W        W86193  27.538  16.294  13.450
14665W        W86194  13.166  21.960  10.934
14666W        W86195  17.788  21.712  12.486
14667W        W86196  29.550  26.426  11.094
14668W        W86197  35.601  19.786  11.071
14669W        W86198   7.862  11.754   0.156
14670W        W86199  27.916  10.822   2.372
14671W        W86200  38.381  42.753   0.305
14672W        W86201  29.397  15.719   3.232
14673W        W86202  23.232  29.951   3.152
14674W        W86203   1.470  44.360  13.139
14675W        W86204  39.835  43.292   3.853
14676W        W86205  15.241  15.491   3.799
14677W        W86206  37.171   0.796   3.125
14678W        W86207  25.353  14.915   2.846
14679W        W86208  38.117  24.752   2.273
14680W        W86209  18.591  39.354   3.682
14681W        W86210   8.238  33.346  12.539
14682W        W86211  17.635  19.947  12.409
14683W        W86212  28.161  14.247   4.102
14684W        W86213  18.678   4.937   1.747
14685W        W86214  25.657  14.043   0.498
14686W        W86215  24.090  20.608   4.336
14687W        W86216  15.322  21.099  12.562
14688W        W86217   8.674   0.322  11.131
14689W        W86218  29.650   6.803  13.032
14690W        W86219  36.844  43.754  12.448
14691W        W86220  18.923  25.747   0.434
14692W        W86221  28.233  31.020  10.630
14693W        W86222  43.724  43.311  12.483
14694W        W86223  39.425  38.508   3.770
14695W        W86224  30.687  27.550  11.867
14696W        W86225   7.372  11.821   2.510
14697W        W86226  33.065   0.751  12.396
14698W        W86227  30.196   7.902   4.725
14699W        W86228   9.212   0.463  11.931
14700W        W86229  36.817   6.839   0.855
14701W        W86230   1.359  30.561  12.530
14702W        W86231  33.374   1.291  12.976
14703W        W86232  44.734  10.212   0.436
14704W        W86233  16.583  12.134   0.755
14705W        W86234   1.679  39.060  14.887
14706W        W86235  42.033  43.287   2.626
14707W        W86236  19.569  33.028  12.458
14708W        W86237   1.841  22.011  12.520
14709W        W86238   2.889   2.407   4.100
14710W        W86239   3.451   8.230   4.668
14711W        W86240  35.941  29.107   0.185
14712W        W86241  12.264  10.340  12.852
14713W        W86242  30.116  23.403  14.017
14714W        W86243  12.667  30.866  12.199
14715W        W86244  39.880  27.983  13.587
14716W        W86245   7.424   4.424  14.036
14717W        W86246  12.334  24.583  11.537
14718W        W86247   6.968  17.530  14.723
14719W        W86248  17.144   2.816   1.694
14720W        W86249   3.044  36.692   0.752
14721W        W86250  12.355   4.911  10.605
14722W        W86251   7.328  20.123  11.886
14723W        W86252  39.692  26.127  13.919
14724W        W86253  19.988  25.727  12.005
14725W        W86254  38.971  21.585   1.731
14726W        W86255  10.722  10.717  11.998
14727W        W86256   0.314  42.824  10.582
14728W        W86257  42.208  31.826   0.761
14729W        W86258  34.648  38.981   1.198
14730W        W86259  10.666  41.498   2.104
14731W        W86260   5.725  17.670   0.191
14732W        W86261  18.710  33.725   3.910
14733W        W86262  14.233  30.882   3.652
14734W        W86263  17.065   4.213  13.065
14735W        W86264   4.005   2.285   1.699
14736W        W86265   1.921  44.462  10.868
14737W        W86266  18.167  21.959  13.094
14738W        W86267  21.707  12.736   3.752
14739W        W86268  34.940  37.810   4.762
14740W        W86269  32.464  38.428  10.939
14741W        W86270  32.637  37.565   2.796
14742W        W86271   7.999   4.241   2.788
14743W        W86272  38.408  26.441   0.901
14744W        W86273   0.507   6.436  14.991
14745W        W86274  17.862  38.596  12.456
14746W        W86275  34.561   0.318   1.172
14747W        W86276  29.992  28.955   0.893
14748W        W86277  38.470   0.114  10.587
14749W        W86278  37.885   6.919  13.012
14750W        W86279  38.354  20.995  12.544
14751W        W86280  21.154  25.363  12.384
14752W        W86281  29.270   4.752  14.918
14753W        W86282  38.534  20.594   2.312
14754W        W86283   5.116   0.624   2.270
14755W        W86284  34.889   4.961   1.759
14756W        W86285  44.447  26.701  11.497
14757W        W86286  42.805   2.241  11.154
14758W        W86287  42.960  12.862  14.329
14759W        W86288  44.468  27.569   3.812
14760W        W86289  35.626  41.396  13.835
14761W        W86290  23.066  19.215   0.185
14762W        W86291   5.077  26.696   3.656
14763W        W86292  13.783  42.544  13.556
14764W        W86293  23.552   4.736  11.571
14765W        W86294  29.655   7.289  10.788
14766W        W86295  29.349  38.635  11.475
14767W        W86296   9.478  32.739  11.173
14768W        W86297  32.005   9.502   4.352
14769W        W86298  25.894  10.826  13.903
14770W        W86299  41.770  36.958  10.634
14771W        W86300  41.021  21.160  10.646
14772W        W86301   3.740  34.802  12.855
14773W        W86302   0.515  32.862   0.843
14774W        W86303  37.890  44.408   2.391
14775W        W86304   5.361  37.822   3.111
14776W        W86305  39.874  32.037   1.346
14777W        W86306  24.922  32.857   3.211
14778W        W86307  28.048   5.135  14.425
14779W        W86308  19.818  22.533  11.212
14780W        W86309  41.520  19.660  13.990
14781W        W86310  18.881  29.999  11.612
14782W        W86311  38.124  19.451   5.079
14783W        W86312  30.513  36.266  13.309
14784W        W86313  14.448  21.454  12.602
14785W        W86314  28.953  35.016   0.411
14786W        W86315  32.209  12.282  10.683
14787W        W86316   4.674  15.648   0.263
14788W        W86317  38.831  43.010   2.194
14789W        W86318  10.105  35.861   1.186
14790W        W86319  18.012  17.714  14.079
14791W        W86320  19.031  32.990   4.182
14792W        W86321  37.477  17.530   0.370
14793W        W86322  26.608  41.722   2.383
14794W        W86323  37.173  19.286   2.219
14795W        W86324  40.111   2.212   2.794
14796W        W86325  33.602  17.352  10.671
14797W        W86326  27.435  34.817   1.757
14798W        W86327  23.740  28.193  12.581
14799W        W86328   0.472  28.028   0.793
14800W        W86329  24.920  39.833  10.769
14801W        W86330  18.128  35.151  12.958
14802W        W86331  24.892   7.367  12.424
14803W        W86332  20.379  35.622   0.503
14804W        W86333   2.645  35.835   0.768
14805W        W86334  17.675   5.102   0.864
14806W        W86335  20.255   2.960   4.116
14807W        W86336  23.553  36.372   3.249
14808W        W86337  37.208   4.230  11.944
14809W        W86338   9.756   1.321   1.357
14810W        W86339  24.158   0.668  12.900
14811W        W86340  36.210  27.364   1.066
14812W        W86341   2.739  14.775   3.624
14813W        W86342   8.615  40.319  12.687
14814W        W86343   3.678  39.397  13.634
14815W        W86344  34.912  44.737  10.666
14816W        W86345   9.662  14.127  11.097
14817W        W86346  29.182  21.863  10.623
14818W        W86347   3.346  17.476   2.097
14819W        W86348  10.910  41.748  12.889
14820W        W86349  14.763  28.104  13.545
14821W        W86350  39.482  38.001   3.710
14822W        W86351   0.405  39.115  10.715
14823W        W86352   8.985  33.710   1.326
14824W        W86353   8.667  41.812   2.225
14825W        W86354  31.344  26.133   1.410
14826W        W86355  42.694  21.243   1.359
14827W        W86356  32.231   9.182   2.214
14828W        W86357  36.227  44.807   3.157
14829W        W86358  22.515   0.862  11.316
14830W        W86359   6.197   8.052  13.837
14831W        W86360  31.422  28.732  11.275
14832W        W86361  15.810  21.375  14.664
14833W        W86362  11.165  18.633  14.471
14834W        W86363  37.544   2.676   4.067
14835W        W86364  24.463  26.739   4.037
14836W        W86365   7.691  37.337  10.761
14837W        W86366   8.090  36.077   4.642
14838W        W86367  10.828  20.961   1.366
14839W        W86368  39.992  36.883   0.486
14840W        W86369   0.267  21.804  11.964
14841W        W86370   7.556  35.827  13.506
14842W        W86371  36.901  17.062  10.586
14843W        W86372  33.111  35.377   2.319
14844W        W86373  17.513  10.070  11.551
14845W        W86374  34.374  33.421  13.364
14846W        W86375  26.773  42.721   2.836
14847W        W86376  42.269   1.498  11.562
14848W        W86377  21.022  21.133   1.638
14849W        W86378  26.817  33.275  14.607
14850W        W86379  18.674  33.569   1.325
14851W        W86380  37.013   7.771   4.156
14852W        W86381  35.528   0.851   4.694
14853W        W86382  27.458  11.657  14.286
14854W        W86383   8.126  40.044  12.687
14855W        W86384  32.085  12.711   0.379
14856W        W86385  35.412  39.532   3.423
14857W        W86386   1.045   6.454  14.984
14858W        W86387  43.571  26.490   4.764
14859W        W86388   2.559  32.455   4.291
14860W        W86389  10.662  16.049  13.439
14861W        W86390  29.914   9.281  13.379
14862W        W86391  36.617  34.582  10.848
14863W        W86392  36.113  30.440   2.527
14864W        W86393  40.447  39.973   2.122
14865W        W86394  12.404  20.227   0.790
14866W        W86395  43.332  11.471  11.720
14867W        W86396  15.352  25.190  14.772
14868W        W86397  25.496   0.769   1.272
14869W        W86398  21.615   6.668  14.553
14870W        W86399   6.370  41.648   5.069
14871W        W86400  14.649  19.184   0.656
14872W        W86401  10.920  11.715  10.608
14873W        W86402  32.945  14.304   3.028
14874W        W86403   7.644   7.408   2.280
14875W        W86404   4.959  14.479  14.538
14876W        W86405  21.241  28.220   5.200
14877W        W86406  20.540  32.862  12.402
14878W        W86407  20.714  27.490  12.911
14879W        W86408  28.728  17.911  12.407
14880W        W86409  17.346  27.437  13.783
14881W        W86410  25.028  17.297   2.706
14882W        W86411  30.599   7.978   3.156
14883W        W86412  40.295  12.651  13.099
14884W        W86413  32.030  39.780   4.574
14885W        W86414  21.652  30.736  12.904
14886W        W86415  36.684  14.037  11.709
14887W        W86416  12.784  23.585   0.624
14888W        W86417  11.447  40.649   1.778
14889W        W86418   2.697  21.622   3.120
14890W        W86419  34.965  36.664  12.411
14891W        W86420  34.147   9.283  14.883
14892W        W86421   0.786  23.729   4.570
14893W        W86422   9.845  37.578   0.275
14894W        W86423   5.930  25.729   3.288
14895W        W86424  36.077  36.778  12.527
14896W        W86425  28.771   9.724   2.637
14897W        W86426  42.467  11.381  14.995
14898W        W86427  33.171  27.506  14.379
14899W        W86428  44.284  41.213   1.022
14900W        W86429  23.013  19.928   4.811
14901W        W86430  34.016  12.113   3.762
14902W        W86431  29.390  29.376   1.252
14903W        W86432  19.596  32.020  12.489
14904W        W86433  20.979  21.998   2.226
14905W        W86434   3.987  16.247   0.444
14906W        W86435   6.115  31.695   4.880
14907W        W86436  31.594  18.303  13.953
14908W        W86437  36.961   7.422  12.575
14909W        W86438  21.172  25.006  10.448
14910W        W86439  10.195  25.584   3.295
14911W        W86440  36.649  29.141  14.386
14912W        W86441  42.754  38.579  11.599
14913W        W86442   0.462   8.937   0.961
14914W        W86443  39.408   0.972  12.965
14915W        W86444   2.217  40.790   1.982
14916W        W86445  14.739   5.813   2.672
14917W        W86446  19.549  16.081  11.134
14918W        W86447  36.063  44.586  14.419
14919W        W86448   1.689  43.925   1.278
14920W        W86449  31.568  23.453   5.051
14921W        W86450  25.837   8.467   3.208
14922W        W86451  31.456  29.456   3.145
14923W        W86452  33.518  32.401   4.218
14924W        W86453  25.162  17.701  11.948
14925W        W86454  20.724  19.131  11.689
14926W        W86455  29.175  30.603   3.837
14927W        W86456  21.163  36.730  14.919
14928W        W86457   5.956  33.567  12.499
14929W        W86458  36.545  12.209  12.186
14930W        W86459   0.557  44.387   3.764
14931W        W86460  18.269   4.176  13.775
14932W        W86461  29.140   9.932   1.313
14933W        W86462  31.131  21.203   1.715
14934W        W86463   0.687  41.279  11.941
14935W        W86464  24.366  33.036   4.728
14936W        W86465   3.148  24.071   0.704
14937W        W86466  16.712  16.463   1.178
14938W        W86467  35.517  39.845  10.484
14939W        W86468  24.966  39.792   1.285
14940W        W86469   6.327   1.234   1.774
14941W        W86470  39.954   4.665  12.556
14942W        W86471  21.525  24.165   2.447
14943W        W86472  38.505  37.847  10.997
14944W        W86473   4.476  29.167   0.003
14945W        W86474  23.517  27.240  13.932
14946W        W86475  39.133  28.111  13.145
14947W        W86476  16.210  10.647   2.144
14948W        W86477  10.669  39.628   1.937
14949W        W86478  29.973  11.747  13.843
14950W        W86479  12.749  34.179  11.931
14951W        W86480  40.772  39.875   1.725
14952W        W86481  41.378  38.543   3.323
14953W        W86482   2.489   6.484   1.778
14954W        W86483  37.328  21.678   3.695
14955W        W86484   8.463  33.086   4.190
14956W        W86485   6.632  17.090   1.759
14957W        W86486   8.381  32.480  10.447
14958W        W86487  19.726  18.314   4.272
14959W        W86488  13.453  30.558   0.903
14960W        W86489  20.499  25.103  14.852
14961W        W86490  33.346  26.074  12.402
14962W        W86491  31.766   0.847   4.658
14963W        W86492  35.828   8.413  12.903
14964W        W86493  39.074  43.370  14.969
14965W        W86494  30.695  10.060   2.162
14966W        W86495  22.454  21.199   1.716
14967W        W86496   3.919  26.510  11.513
14968W        W86497  12.433  40.729   2.629
14969W        W86498  38.081   7.342  13.912
14970W        W86499   5.427  12.678   4.181
14971W        W86500  18.138  25.649   0.286
14972W        W86501  12.765  25.772   2.335
14973W        W86502   7.677  30.203  10.692
14974W        W86503  14.018  15.873   4.159
14975W        W86504   2.307  32.492   2.597
14976W        W86505  15.207  38.915  14.972
14977W        W86506  17.142  26.774   2.328
14978W        W86507   8.442  18.331  14.887
14979W        W86508  39.859   6.883   0.358
14980W        W86509  20.322  32.380   3.329
14981W        W86510  15.330  28.319  11.968
14982W        W86511  27.484  39.588  14.461
14983W        W86512  35.546  13.656   1.765
14984W        W86513  27.720   6.389   1.322
14985W        W86514  31.901  20.143  14.487
14986W        W86515  28.160  41.636  10.930
14987W        W86516  13.779  34.352   0.266
14988W        W86517  35.632  10.765  13.809
14989W        W86518  29.805  16.997   5.126
14990W        W86519  25.762   7.824   2.905
14991W        W86520  11.812  43.611   2.897
14992W        W86521  28.365  15.694  13.339
14993W        W86522  33.486   0.607   1.350
14994W        W86523   9.331  14.854   2.725
14995W        W86524  18.041  33.667  14.358
14996W        W86525   2.936  34.443   9.990
14997W        W86526  20.751   0.129  13.914
14998W        W86527   4.893  39.526  13.005
14999W        W86528  12.258   6.588  11.449
15000W        W86529  37.612  37.029  14.823
15001W        W86530   4.712   4.998  10.686
15002W        W86531   1.537   0.449  14.329
15003W        W86532  33.185  37.853  13.975
15004W        W86533  33.129  42.086  13.577
15005W        W86534   1.408  37.502   0.321
15006W        W86535  16.381  38.440   0.711
15007W        W86536   6.180   4.311   0.716
15008W        W86537   9.797  20.719   5.009
15009W        W86538  42.087  39.865   1.257
15010W        W86539  34.080  43.508  12.595
15011W        W86540  31.846  16.308   1.770
15012W        W86541  11.459  33.922   4.891
15013W        W86542  12.424   9.278  11.737
15014W        W86543  30.398  15.554   4.076
15015W        W86544   1.096   9.099  11.221
15016W        W86545  22.571  13.210  10.678
15017W        W86546  21.795   0.919  14.859
15018W        W86547  12.761  30.675  13.544
15019W        W86548  37.674  42.030   0.371
15020W        W86549  10.427  34.660   0.403
15021W        W86550  35.960  41.782   4.131
15022W        W86551   1.370  20.339  12.568
15023W        W86552   8.203   7.784  14.014
15024W        W86553  32.873  38.903   4.160
15025W        W86554  22.406   0.464  11.014
15026W        W86555  35.170   3.477  10.451
15027W        W86556  41.941   9.790   0.465
15028W        W86557  30.930   9.166  13.150
15029W        W86558  28.425  22.436   3.656
15030W        W86559   7.354  10.315  11.640
15031W        W86560   4.155  27.706   9.911
15032W        W86561  31.695   3.449  10.818
15033W        W86562  17.797  35.491  10.408
15034W        W86563  43.473  15.113  11.166
15035W        W86564   2.709  14.814   2.772
15036W        W86565  25.073  42.793   4.820
15037W        W86566   5.834   3.851  14.977
15038W        W86567  18.156  31.994   0.893
15039W        W86568  31.580  33.417   0.930
15040W        W86569   8.840  36.461   0.832
15041W        W86570  23.183  37.908   4.266
15042W        W86571   0.875  23.044   1.000
15043W        W86572   7.279  39.954   1.779
15044W        W86573  29.031  36.527   4.799
15045W        W86574  40.295  36.703   0.087
15046W        W86575  41.319  11.419   4.678
15047W        W86576  35.269  34.400   1.476
15048W        W86577  24.594  19.867   4.124
15049W        W86578   3.075  25.204   1.446
15050W        W86579   0.014  17.454  14.482
15051W        W86580  30.131  41.977   3.816
15052W        W86581  12.217  18.268  14.001
15053W        W86582   1.011  20.787   3.363
15054W        W86583  39.405  11.793  10.799
15055W        W86584   6.209  14.859  10.696
15056W        W86585  14.574  21.550   1.801
15057W        W86586   4.994   9.524   1.087
15058W        W86587  35.549  18.820   0.367
15059W        W86588  12.794  28.043   3.081
15060W        W86589   6.122  15.691  13.737
15061W        W86590  35.012  18.123   1.349
15062W        W86591  38.098  28.764   3.122
15063W        W86592   2.884   3.454  13.861
15064W        W86593  28.991  41.796  11.993
15065W        W86594  35.053   6.377   0.280
15066W        W86595  40.711  32.422  11.946
15067W        W86596  23.733   9.660  13.015
15068W        W86597  41.527   8.653   4.654
15069W        W86598   6.344  10.470  10.860
15070W        W86599  31.006  44.486  14.371
15071W        W86600  38.981   0.990  12.156
15072W        W86601   9.570  20.421   1.152
15073W        W86602   2.735   1.092   0.048
15074W        W86603  20.834  37.017   4.358
15075W        W86604   4.829  12.240  13.473
15076W        W86605  33.062  16.722  11.594
15077W        W86606  16.316   0.299  12.908
15078W        W86607   5.532  28.594   2.971
15079W        W86608  19.288  27.250   1.963
15080W        W86609  13.347  39.439   3.882
15081W        W86610  43.979  37.490   2.211
15082W        W86611  28.274  28.172   0.276
15083W        W86612  42.255  11.631  14.295
15084W        W86613  29.533  42.724  10.771
15085W        W86614  33.146  44.790  13.266
15086W        W86615  38.070  14.173  12.864
15087W        W86616   1.420  42.117  14.515
15088W        W86617  37.054  33.751   2.737
15089W        W86618  20.685  13.051  12.933
15090W        W86619  32.136  19.555   1.348
15091W        W86620   9.150  28.658  13.638
15092W        W86621   8.977  11.919  14.081
15093W        W86622  38.466   7.449  11.743
15094W        W86623  43.866  18.211  10.985
15095W        W86624  44.063  28.006  13.481
15096W        W86625  20.510  14.019  14.806
15097W        W86626  32.137   4.776   0.924
15098W        W86627   2.953  24.012  14.558
15099W        W86628  42.554  34.993   3.407
15100W        W86629  18.992   7.509  14.344
15101W        W86630   1.966  24.004   3.128
15102W        W86631  22.270   7.140  14.026
15103W        W86632  12.673  42.428   0.874
15104W        W86633  42.983   9.599   0.465
15105W        W86634  33.038  43.215  12.697
15106W        W86635  41.730  14.373   3.676
15107W        W86636  34.215   9.779   1.518
15108W        W86637  38.458   7.236   4.600
15109W        W86638  29.671  36.852   2.770
15110W        W86639  21.983  24.678   1.667
15111W        W86640  37.443   7.324   2.449
15112W        W86641  42.929  31.186   3.215
15113W        W86642  35.036  11.154  13.428
15114W        W86643  19.054  13.700   2.368
15115W        W86644  33.002  42.934  11.914
15116W        W86645  38.064   2.172   2.708
15117W        W86646  22.616  25.750   0.893
15118W        W86647   1.163  27.576  11.025
15119W        W86648  25.316  23.602   2.885
15120W        W86649  20.181   1.334  11.352
15121W        W86650  34.977  41.295   4.104
15122W        W86651  15.509   0.326  11.138
15123W        W86652  28.894  32.655   5.062
15124W        W86653  27.629  31.077  14.264
15125W        W86654  34.249  30.759   0.008
15126W        W86655  33.944  13.148   1.502
15127W        W86656  21.689  32.275   4.530
15128W        W86657  21.987  27.064  12.013
15129W        W86658  33.371   4.947   3.673
15130W        W86659  19.084   6.098  11.721
15131W        W86660  30.672   5.685  12.191
15132W        W86661  21.505  10.897  13.113
15133W        W86662  28.695  43.208  13.142
15134W        W86663  34.390   7.916   0.375
15135W        W86664   3.891  38.056   3.738
15136W        W86665  40.775  21.198   1.296
15137W        W86666  44.424  35.991  11.123
15138W        W86667  44.395   1.048  13.467
15139W        W86668   8.686  22.601  11.959
15140W        W86669  13.360  31.173   1.952
15141W        W86670  15.009  39.218  13.785
15142W        W86671  39.705   2.408   1.251
15143W        W86672  33.641  18.699   4.623
15144W        W86673  20.752  22.993   4.522
15145W        W86674  12.417   4.230  14.799
15146W        W86675  17.474  30.405  14.679
15147W        W86676  19.884   7.894  11.546
15148W        W86677  40.243  44.382  13.494
15149W        W86678  44.575  21.585  12.358
15150W        W86679   5.930  30.323  12.914
15151W        W86680   3.461  26.682   0.363
15152W        W86681  26.208   2.176   3.393
15153W        W86682   0.887   4.479   1.863
15154W        W86683  41.087  33.511   1.484
15155W        W86684  41.396  41.308   1.449
15156W        W86685  22.763  30.015  11.630
15157W        W86686   6.422   5.463   1.078
15158W        W86687  30.455  39.833   0.454
15159W        W86688   7.481  10.189   1.270
15160W        W86689  13.180  21.101  14.950
15161W        W86690  16.359  18.674  10.889
15162W        W86691  28.088  42.519  13.434
15163W        W86692  14.376  31.180   1.743
15164W        W86693  24.755  37.856  12.077
15165W        W86694  44.819   1.813  11.736
15166W        W86695   2.217  24.964  12.123
15167W        W86696   9.857  32.651   3.145
15168W        W86697   1.811  36.999   5.013
15169W        W86698  44.760  26.633   0.792
15170W        W86699   1.740   8.761  14.280
15171W        W86700  13.109  34.477   3.391
15172W        W86701   7.762  38.943  13.900
15173W        W86702  39.865  11.406   1.838
15174W        W86703  10.064  43.138   2.018
15175W        W86704  33.184  17.576  13.529
15176W        W86705   4.464   6.902  14.413
15177W        W86706  31.867  12.829   1.704
15178W        W86707  19.977   6.356   0.016
15179W        W86708   7.344  41.952   2.221
15180W        W86709  11.183  19.583  14.809
15181W        W86710   0.499  12.769  14.242
15182W        W86711  28.600  40.942  12.982
15183W        W86712   6.333  32.972   4.829
15184W        W86713  13.119  42.461  14.267
15185W        W86714   6.160  13.401  14.157
15186W        W86715   3.716  22.290   0.871
15187W        W86716  27.173  11.084  14.901
15188W        W86717   3.213  17.108   2.464
15189W        W86718  40.436  14.233  14.758
15190W        W86719  41.405   3.711  12.180
15191W        W86720  17.583  24.835  14.948
15192W        W86721  22.133  43.805   4.597
15193W        W86722   3.686  36.323  11.964
15194W        W86723  21.070  34.556   1.020
15195W        W86724  20.864  16.292  14.170
15196W        W86725   4.416  24.553  13.858
15197W        W86726  15.609  32.950  14.952
15198W        W86727  37.494  12.130  13.171
15199W        W86728   4.134  34.309  12.257
15200W        W86729  36.454  10.842  11.875
15201W        W86730  15.220  28.929  12.617
15202W        W86731  18.571   0.194  10.986
15203W        W86732   2.820  28.735  11.809
15204W        W86733  33.345  43.725  14.846
15205W        W86734   3.015  16.849  11.212
15206W        W86735  44.986  22.022   0.253
15207W        W86736  23.938   5.580  12.491
15208W        W86737   1.207  36.531  14.877
15209W        W86738   0.451  30.996   1.490
15210W        W86739  36.975  36.066   2.630
15211W        W86740  43.792  33.849   0.201
15212W        W86741  23.722  29.441  12.806
15213W        W86742  40.934  43.442   2.873
15214W        W86743  36.345  38.776   4.651
15215W        W86744  22.866  33.660  11.948
15216W        W86745  44.981  33.612   0.946
15217W        W86746  19.167  33.013   4.674
15218W        W86747  33.138  10.665   1.274
15219W        W86748   0.341  38.321   4.171
15220W        W86749   1.999  38.069  14.832
15221W        W86750  37.476   8.854  14.866
15222W        W86751  28.197  33.273   2.307
15223W        W86752  22.169  38.382  11.431
15224W        W86753  41.303  27.434  11.093
15225W        W86754  38.441   9.258   1.775
15226W        W86755  23.737  24.090   3.187
15227W        W86756  43.457   3.215   3.703
15228W        W86757  31.008  26.956  13.926
15229W        W86758   3.352  28.136  11.122
15230W        W86759  14.132  28.175   3.175
15231W        W86760  41.654  40.656   1.111
15232W        W86761  13.593  32.010   4.243
15233W        W86762  25.132  20.179  14.985
15234W        W86763  29.831   2.996  14.588
15235W        W86764  14.303  35.343  14.409
15236W        W86765  25.438  21.257  13.452
15237W        W86766   9.307  25.822   0.835
15238W        W86767   5.443  38.762  11.167
15239W        W86768  15.749  13.815   3.863
15240W        W86769  12.895   7.877   0.293
15241W        W86770  39.544  27.848   1.132
15242W        W86771   9.774   4.485   3.984
15243W        W86772   2.136  42.996   0.350
15244W        W86773   6.844  17.181   1.227
15245W        W86774  25.676  17.369  13.995
15246W        W86775  28.613  43.719  12.902
15247W        W86776  28.634  32.270   0.077
15248W        W86777  34.089  25.090  12.929
15249W        W86778  43.870  13.130  14.974
15250W        W86779  39.895  33.885  11.598
15251W        W86780  28.442  32.768  11.429
15252W        W86781  44.886  33.476  14.837
15253W        W86782   3.895  32.859  11.360
15254W        W86783  18.278  35.514   2.808
15255W        W86784   9.776  29.209  10.507
15256W        W86785   3.719  39.984   5.227
15257W        W86786  13.229  24.062  12.106
15258W        W86787  29.428  27.976   2.766
15259W        W86788  15.262   2.801  11.446
15260W        W86789  23.090  32.571  13.916
15261W        W86790   6.656  10.582   0.345
15262W        W86791  12.412  13.214   4.533
15263W        W86792  14.850  32.532   2.180
15264W        W86793   7.870  21.468  11.399
15265W        W86794  13.556   9.731  14.553
15266W        W86795  43.716  37.708   3.672
15267W        W86796  25.475   7.728   1.078
15268W        W86797  19.977  15.851  12.898
15269W        W86798   1.337  42.395   1.360
15270W        W86799  32.389  20.745  10.438
15271W        W86800  28.971   6.284  11.117
15272W        W86801  29.252  19.863   2.579
15273W        W86802  26.969  23.708   0.822
15274W        W86803  11.862  31.398  14.335
15275W        W86804  42.376  18.912  12.402
15276W        W86805  33.159  13.470  11.340
15277W        W86806  27.601  26.684   3.894
15278W        W86807   4.264  44.129   4.977
15279W        W86808  23.546  14.071  12.409
15280W        W86809  16.808  44.356   3.801
15281W        W86810  11.521  20.789   1.369
15282W        W86811  42.681  22.706  10.672
15283W        W86812  42.370  24.398   0.090
15284W        W86813  15.830   8.112   1.251
15285W        W86814  40.347  30.022   2.921
15286W        W86815  18.110  31.659   4.892
15287W        W86816  41.925   9.241  13.235
15288W        W86817  10.420  37.575  11.034
15289W        W86818  20.489   1.871  10.290
15290W        W86819  11.355   4.779   1.461
15291W        W86820  15.778   9.919   3.272
15292W        W86821  35.307  40.467  12.760
15293W        W86822  15.328  11.685   3.691
15294W        W86823   3.273  39.937   3.945
15295W        W86824  10.836   9.355   2.594
15296W        W86825   9.224  43.860  10.806
15297W        W86826  13.350   2.616   4.578
15298W        W86827  24.423  41.338   2.816
15299W        W86828  30.456  44.372  11.089
15300W        W86829   6.280  36.599   3.338
15301W        W86830  14.286   4.297  11.210
15302W        W86831  19.817  27.604  14.049
15303W        W86832   1.157   0.387   2.742
15304W        W86833  39.402  12.707  11.025
15305W        W86834  19.256  42.402   3.175
15306W        W86835  34.639   5.776   2.775
15307W        W86836   2.682   5.437   2.291
15308W        W86837  18.689   7.694   2.221
15309W        W86838  30.896  16.159  11.592
15310W        W86839  11.634  39.492  12.580
15311W        W86840  26.460   9.213  10.692
15312W        W86841  21.191  44.152  11.466
15313W        W86842   7.323  13.405  14.072
15314W        W86843  39.607  25.054  10.803
15315W        W86844  33.428  29.642  10.778
15316W        W86845   0.220   8.389   2.247
15317W        W86846   4.799   1.532   0.805
15318W        W86847  39.165  34.276   1.348
15319W        W86848  42.887  38.743   4.175
15320W        W86849  33.484  34.004  10.260
15321W        W86850  34.310  38.865   2.656
15322W        W86851  40.851  20.253   3.309
15323W        W86852  20.483  18.050   2.240
15324W        W86853  17.753  42.245  13.194
15325W        W86854  25.525  37.823   3.725
15326W        W86855  44.281  29.998  11.503
15327W        W86856   6.455  23.885   3.341
15328W        W86857  14.352  26.893  14.394
15329W        W86858  39.393  19.731   3.292
15330W        W86859  23.046  34.803   4.791
15331W        W86860   3.247  22.226  14.096
15332W        W86861  10.312  30.162   2.765
15333W        W86862  42.762  24.070  12.619
15334W        W86863  30.485  26.531  14.483
15335W        W86864  42.423  36.329  12.693
15336W        W86865   2.081  10.149  14.404
15337W        W86866  23.127  16.548   1.349
15338W        W86867  19.084   7.710   4.532
15339W        W86868   6.674  32.344  13.458
15340W        W86869   2.855  15.203   0.466
15341W        W86870  42.259  13.214   4.295
15342W        W86871  17.712  29.065  14.874
15343W        W86872  10.129  42.214  11.690
15344W        W86873   8.423  33.818  11.173
15345W        W86874  30.245  32.941   2.764
15346W        W86875   1.390  23.175   1.200
15347W        W86876  12.919  22.547  14.444
15348W        W86877  43.873  34.212  13.023
15349W        W86878  36.889  24.184  13.506
15350W        W86879  44.286   3.501  14.688
15351W        W86880  19.654  37.312   1.879
15352W        W86881  19.676  41.399   2.831
15353W        W86882  26.610   3.807  14.406
15354W        W86883  33.802  15.438  13.372
15355W        W86884   4.164   7.461  12.449
15356W        W86885  11.109  35.402   2.709
15357W        W86886   4.399  12.281  14.718
15358W        W86887   5.625  13.459   1.732
15359W        W86888   9.532  10.796  14.344
15360W        W86889  34.841  30.759  11.432
15361W        W86890  18.640  44.436  10.386
15362W        W86891  20.688  36.529   2.452
15363W        W86892  28.357  15.974   1.323
15364W        W86893  20.239  23.075  10.442
15365W        W86894   8.992  13.810   0.321
15366W        W86895  35.383  13.121  11.730
15367W        W86896   3.945  32.359  11.201
15368W        W86897   0.296  43.278   1.003
15369W        W86898  25.820   4.251  14.921
15370W        W86899  24.429  22.299   1.756
15371W        W86900  25.474  20.456   3.270
15372W        W86901  10.829  37.522   2.645
15373W        W86902  19.286   4.121   0.928
15374W        W86903  30.575  25.202  13.564
15375W        W86904   1.284  19.300  11.731
15376W        W86905   1.267  37.167   3.194
15377W        W86906  36.832  26.417   1.852
15378W        W86907  25.928  33.082   3.207
15379W        W86908  36.540  38.391   2.612
15380W        W86909  20.784  34.498   4.152
15381W        W86910   9.113  18.603   2.595
15382W        W86911  22.701  16.101   2.806
15383W        W86912  42.715   0.773   1.936
15384W        W86913  10.827  42.004   1.713
15385W        W86914  20.431  27.177  13.673
15386W        W86915  31.058  22.746  11.043
15387W        W86916  14.998  21.019  14.310
15388W        W86917  13.131  15.668   0.998
15389W        W86918  34.471   1.858   4.504
15390W        W86919  28.162   8.401  12.046
15391W        W86920  44.765   9.346   0.596
15392W        W86921  26.678  16.768   3.166
15393W        W86922  12.695  44.398  11.702
15394W        W86923  10.828   8.827   2.626
15395W        W86924   7.901  12.656   1.765
15396W        W86925  26.729   3.440  13.827
15397W        W86926  25.566  34.190   0.985
15398W        W86927   3.423  44.957  14.507
15399W        W86928   1.392  36.184  10.184
15400W        W86929  17.289  40.063  12.452
15401W        W86930  15.328  38.583  12.100
15402W        W86931  13.869  15.833  10.108
15403W        W86932  16.745  24.177  14.226
15404W        W86933  12.934   4.182  14.807
15405W        W86934  41.553  28.491   3.210
15406W        W86935  14.423   8.750   2.299
15407W        W86936  34.504   6.158  13.531
15408W        W86937  39.425   3.387   4.677
15409W        W86938  28.682  19.457   1.473
15410W        W86939  20.806  42.720  13.064
15411W        W86940  15.411  33.943   1.668
15412W        W86941  44.454  30.324  10.603
15413W        W86942  22.743   0.362   2.849
15414W        W86943   0.793  11.340   0.989
15415W        W86944  29.229  16.802   3.330
15416W        W86945   8.235  39.112   3.111
15417W        W86946  28.183   1.980   0.838
15418W        W86947  40.569   2.900  14.348
15419W        W86948  39.018  16.075  10.146
15420W        W86949  22.941  14.350   0.035
15421W        W86950  34.097  19.984  12.836
15422W        W86951  12.572  44.453  14.545
15423W        W86952  13.832  16.052   3.145
15424W        W86953  17.181   7.012   1.550
15425W        W86954  30.080   6.431   1.208
15426W        W86955  14.345  11.604   2.475
15427W        W86956  22.150  43.506  11.460
15428W        W86957  11.773  35.820  11.282
15429W        W86958   0.999   9.124  13.839
15430W        W86959  37.734  11.380  12.000
15431W        W86960  19.526  29.636   2.327
15432W        W86961  21.565  10.839  11.535
15433W        W86962  10.089   6.960  11.184
15434W        W86963  29.171  39.770  10.731
15435W        W86964  25.616  42.207  11.627
15436W        W86965  22.661  30.434  13.739
15437W        W86966  39.657   4.872  11.181
15438W        W86967  12.578   2.834  12.869
15439W        W86968   7.105   8.589   2.402
15440W        W86969  43.344  19.575   2.425
15441W        W86970   6.752  15.839  13.050
15442W        W86971   7.124   5.836   0.017
15443W        W86972  18.263  39.640   2.430
15444W        W86973   9.303  10.814  12.134
15445W        W86974  24.665   4.133  11.096
15446W        W86975  42.359   7.479  12.168
15447W        W86976   1.924  38.340   3.832
15448W        W86977   0.767  20.818   2.874
15449W        W86978  34.867  18.698  13.576
15450W        W86979  39.516   6.605  11.738
15451W        W86980   6.540  13.663  13.927
15452W        W86981  16.557  41.906   2.048
15453W        W86982  13.565  19.946   3.712
15454W        W86983  27.083  34.782  14.261
15455W        W86984  41.426   4.753   0.452
15456W        W86985  14.677   8.612   1.833
15457W        W86986  25.712  28.136  13.315
15458W        W86987  14.836  14.118  11.479
15459W        W86988  11.930   1.123  10.891
15460W        W86989   7.831  42.064   0.425
15461W        W86990   4.977  23.071   3.990
15462W        W86991   4.557  21.614   2.033
15463W        W86992  31.063   6.358  14.859
15464W        W86993   9.027  13.171  10.634
15465W        W86994  22.619  16.338   4.105
15466W        W86995  28.452  44.848   1.717
15467W        W86996  11.674  16.795  14.764
15468W        W86997  10.400  37.533  12.176
15469W        W86998  32.193  42.496  14.735
15470W        W86999  36.790  42.552  10.795
15471W        W87000   1.910  14.562   2.374
15472W        W87001  40.510   8.016  10.773
15473W        W87002  29.185  14.156  14.770
15474W        W87003  14.278  36.334  13.439
15475W        W87004   9.146  26.628  12.637
15476W        W87005  20.838  36.513   0.279
15477W        W87006  33.424  31.578  12.648
15478W        W87007  24.244  34.544   2.332
15479W        W87008  21.439   2.776   2.776
15480W        W87009  19.373   3.208   1.675
15481W        W87010   5.321  28.137  11.232
15482W        W87011  13.206  13.173   4.099
15483W        W87012   8.796  14.592  10.687
15484W        W87013  21.773  30.497   4.112
15485W        W87014  10.884  12.871   2.340
15486W        W87015   5.679   6.875   2.122
15487W        W87016  43.406   1.290  10.644
15488W        W87017  27.704   6.039  12.263
15489W        W87018  22.980   7.905   3.199
15490W        W87019  10.988  28.487   3.636
15491W        W87020  24.563  29.566  11.118
15492W        W87021  28.594  42.802  11.100
15493W        W87022  39.086  39.625  12.445
15494W        W87023  26.249  20.021  14.018
15495W        W87024  41.931   5.374  14.099
15496W        W87025   9.826  42.016   2.670
15497W        W87026  22.301  35.002  11.504
15498W        W87027  20.487  40.309   3.727
15499W        W87028  10.571  17.704  13.486
15500W        W87029   9.661   9.933  11.487
15501W        W87030  31.362  40.402   2.467
15502W        W87031  13.712  33.517   3.252
15503W        W87032  41.897  13.059  10.602
15504W        W87033  14.333  37.208  13.155
15505W        W87034  39.253  16.604  13.066
15506W        W87035  21.640  32.479  11.696
15507W        W87036  38.924  13.237  12.941
15508W        W87037   9.340  27.925   2.353
15509W        W87038  33.791   9.104  13.495
15510W        W87039  37.542  43.211   1.007
15511W        W87040  28.772  36.880  13.431
15512W        W87041   9.221  38.812   4.630
15513W        W87042  17.223  39.712   0.920
15514W        W87043  43.892  20.230   0.319
15515W        W87044  33.319  31.577   1.623
15516W        W87045  30.971  31.634  14.543
15517W        W87046   4.724  39.902   4.345
15518W        W87047   0.290  40.609   0.402
15519W        W87048  31.072  23.142  14.412
15520W        W87049  35.296  44.975   4.224
15521W        W87050  15.829  14.097  11.195
15522W        W87051   7.908  21.086   5.081
15523W        W87052   2.711  10.137   4.945
15524W        W87053  26.046  17.439   3.994
15525W        W87054  42.817   7.443   2.310
15526W        W87055  37.860  35.517   1.329
15527W        W87056  15.223  30.011   2.894
15528W        W87057  19.240  42.367  11.993
15529W        W87058   9.333  13.077   4.619
15530W        W87059  38.653  22.606   1.740
15531W        W87060  38.248  17.115  14.043
15532W        W87061   1.935   9.703   0.833
15533W        W87062  24.009  20.744   2.420
15534W        W87063  41.301  15.575   0.993
15535W        W87064  32.315  32.205  10.882
15536W        W87065  12.737   6.227  12.332
15537W        W87066   3.914  44.186   2.441
15538W        W87067   1.173  23.836   2.805
15539W        W87068  31.021  30.734   1.641
15540W        W87069   1.381  10.173   2.282
15541W        W87070  32.052  30.493  11.305
15542W        W87071   4.767  10.210   3.344
15543W        W87072  23.808  10.328  11.445
15544W        W87073  32.454  12.789  13.926
15545W        W87074  44.355  37.306   1.921
15546W        W87075  43.405  32.673  12.378
15547W        W87076  35.423   1.714   2.642
15548W        W87077   1.441  20.151  14.451
15549W        W87078  24.475  19.227   0.832
15550W        W87079  20.321   6.707   0.714
15551W        W87080  29.481  16.950   3.793
15552W        W87081  27.742  24.053   4.057
15553W        W87082   3.657  39.095  13.196
15554W        W87083   9.735  31.399  11.052
15555W        W87084   2.742  11.959   0.911
15556W        W87085  39.083  28.021  14.028
15557W        W87086  34.063  21.878  10.682
15558W        W87087   0.404   6.032  11.682
15559W        W87088  42.344  30.577   0.056
15560W        W87089   1.318  38.937   0.236
15561W        W87090  26.250  42.229  12.432
15562W        W87091  27.154  44.869   2.153
15563W        W87092   2.820  24.804   2.807
15564W        W87093   2.919  34.661   4.464
15565W        W87094  23.241  32.134   1.830
15566W        W87095  36.062  35.432  12.742
15567W        W87096  34.547  33.606   4.125
15568W        W87097   8.271  12.760  10.487
15569W        W87098   8.347  12.201   3.986
15570W        W87099  38.550  28.076   4.536
15571W        W87100  13.621  44.893  12.473
15572W        W87101  30.092  27.264  14.460
15573W        W87102   9.229  19.319  13.942
15574W        W87103   3.027  29.519   0.011
15575W        W87104  25.318  14.780   3.651
15576W        W87105  27.935   3.833  10.661
15577W        W87106  26.204  35.556   0.831
15578W        W87107   7.731  36.728  13.547
15579W        W87108  23.003  13.658   4.172
15580W        W87109  32.622  42.806   3.836
15581W        W87110  39.070  28.143   4.502
15582W        W87111  19.188  35.863  10.701
15583W        W87112   4.152   9.738  13.880
15584W        W87113   9.593  36.430  12.106
15585W        W87114  30.540  27.504   2.376
15586W        W87115  17.497   8.052   1.546
15587W        W87116  20.641  21.412  12.129
15588W        W87117  23.251   6.223  14.483
15589W        W87118  31.640  16.493   4.241
15590W        W87119  21.274  14.094  14.290
15591W        W87120  36.007   2.535   1.955
15592W        W87121  35.471  30.250  10.630
15593W        W87122  32.173  18.286  11.382
15594W        W87123  26.185   1.206   0.648
15595W        W87124  42.391  36.591  13.134
15596W        W87125  18.098  37.864  14.396
15597W        W87126  22.521  11.232  12.060
15598W        W87127  19.184   6.138   3.125
15599W        W87128  25.897   4.487  12.428
15600W        W87129  18.012  34.043  13.008
15601W        W87130  12.672   0.817   4.527
15602W        W87131  28.993   1.990  14.118
15603W        W87132   9.123  13.394   4.237
15604W        W87133  36.049   3.807  11.951
15605W        W87134  41.863  36.305  13.977
15606W        W87135  22.061   7.180   4.121
15607W        W87136   9.842  15.263   4.650
15608W        W87137  11.974   7.327  10.314
15609W        W87138   9.157   0.945  12.870
15610W        W87139  12.525   2.501  10.238
15611W        W87140  35.011  14.453  10.956
15612W        W87141  26.212  19.258  14.289
15613W        W87142  24.064  21.222   2.635
15614W        W87143  28.591   1.439   1.241
15615W        W87144  23.485   8.869   4.055
15616W        W87145  23.549  33.337   4.430
15617W        W87146   5.281  33.095   2.199
15618W        W87147  28.375  15.160  14.107
15619W        W87148   1.631  29.664  14.751
15620W        W87149  33.675  43.082   0.528
15621W        W87150   8.159  37.968  10.972
15622W        W87151  35.881  15.749   4.966
15623W        W87152  19.023  37.889  11.252
15624W        W87153  42.927   3.823   1.494
15625W        W87154   9.719  30.960  14.960
15626W        W87155  21.373   7.387   3.133
15627W        W87156   4.458  23.007   4.809
15628W        W87157  33.617   2.472   1.518
15629W        W87158  26.363   7.911  11.683
15630W        W87159  19.146   0.477   2.128
15631W        W87160  36.339  22.738  11.272
15632W        W87161  33.041  43.396   3.326
15633W        W87162  24.979  39.779   0.349
15634W        W87163   0.956   1.938   4.337
15635W        W87164  27.591  34.889  14.275
15636W        W87165   0.508  17.643   2.365
15637W        W87166  32.568  19.536   3.096
15638W        W87167  38.024  13.555  14.978
15639W        W87168  28.470  43.290   2.670
15640W        W87169   5.422  33.847  13.497
15641W        W87170   9.182  17.151  13.023
15642W        W87171  30.406   6.636   2.191
15643W        W87172  40.640  42.270   0.771
15644W        W87173   9.395  40.255  14.594
15645W        W87174   2.766  39.642   1.312
15646W        W87175  11.282  21.737  14.331
15647W        W87176   7.611  11.293   0.280
15648W        W87177  31.909  35.539   3.238
15649W        W87178   9.928   0.428  12.508
15650W        W87179  27.537   8.648   0.895
15651W        W87180  40.002   5.176  12.576
15652W        W87181  12.601  42.445  13.930
15653W        W87182  34.190  27.568  10.888
15654W        W87183  32.230  18.279   1.817
15655W        W87184   2.957   3.340  12.846
15656W        W87185  11.272  40.764   4.537
15657W        W87186  44.248   5.714  11.060
15658W        W87187  24.164  40.106  12.601
15659W        W87188  25.101  23.237  14.312
15660W        W87189  27.210  31.786   1.718
15661W        W87190  42.201   4.521  14.864
15662W        W87191  27.768  27.685   3.780
15663W        W87192   5.009  24.153   0.009
15664W        W87193  17.465   9.600   3.141
15665W        W87194  42.167  24.786   2.938
15666W        W87195  31.079   3.566   2.177
15667W        W87196  21.330  43.794   4.120
15668W        W87197  15.783  17.712  11.651
15669W        W87198  30.005  26.595  13.393
15670W        W87199  36.968  43.492  11.914
15671W        W87200  33.062  42.796   4.126
15672W        W87201  35.090   0.741   1.753
15673W        W87202  32.482  30.531  13.075
15674W        W87203  31.326   5.830   2.761
15675W        W87204  43.483  19.760   4.133
15676W        W87205  32.411  38.113  13.407
15677W        W87206  28.164  32.439   3.685
15678W        W87207  22.218  26.900  14.464
15679W        W87208  40.284  43.956   4.382
15680W        W87209  33.158  17.284  14.181
15681W        W87210  42.868  43.717   2.463
15682W        W87211  32.583   6.785  13.556
15683W        W87212  20.030   3.122  14.042
15684W        W87213  11.729  22.792  10.631
15685W        W87214  38.300  35.899  13.491
15686W        W87215  28.133   3.732   2.672
15687W        W87216  31.622  21.215   2.782
15688W        W87217  30.234   3.734  14.230
15689W        W87218  29.269   4.319  12.080
15690W        W87219  42.526  37.307   3.158
15691W        W87220  28.581  38.954  11.634
15692W        W87221  26.711  18.748   3.502
15693W        W87222  15.796  35.214   1.441
15694W        W87223   5.295  38.766  13.100
15695W        W87224  38.014  23.536  14.332
15696W        W87225   9.387   2.860   2.502
15697W        W87226  17.327  35.122  11.100
15698W        W87227  24.111  25.702   1.811
15699W        W87228   9.589   0.045   1.374
15700W        W87229  21.568  15.308   3.300
15701W        W87230   5.405  32.090  12.452
15702W        W87231  20.709  30.255   3.258
15703W        W87232  37.923  35.003   0.611
15704W        W87233  24.221  28.717   1.912
15705W        W87234  29.179  42.918   3.169
15706W        W87235  43.021  17.028   0.388
15707W        W87236  19.530  32.095   2.766
15708W        W87237  29.614   2.678   4.529
15709W        W87238   3.229  36.467   4.987
15710W        W87239  31.037  27.362   4.521
15711W        W87240  41.454   8.203  12.431
15712W        W87241  10.125   2.830   0.273
15713W        W87242  16.519   6.563   0.887
15714W        W87243  29.899   8.918  14.007
15715W        W87244  28.497  42.373   4.676
15716W        W87245  13.191   1.502  14.347
15717W        W87246  42.801   0.021   0.983
15718W        W87247  20.172  28.758  13.269
15719W        W87248  28.883   1.402   1.696
15720W        W87249  36.446   0.944   1.291
15721W        W87250  41.893  28.525  11.085
15722W        W87251  10.316  16.522  11.884
15723W        W87252   5.537  30.230   2.842
15724W        W87253  20.471   3.943  12.152
15725W        W87254   3.412   5.916   2.666
15726W        W87255  39.032   8.457   2.110
15727W        W87256   9.396  42.257   4.250
15728W        W87257  24.230  29.586  11.938
15729W        W87258  33.492   3.701  12.303
15730W        W87259  23.174  21.734  12.030
15731W        W87260  19.965   3.309   5.059
15732W        W87261  14.334   2.883   2.793
15733W        W87262   0.299   3.394  10.694
15734W        W87263   8.889  25.417   4.832
15735W        W87264   0.677   7.439  12.497
15736W        W87265   2.206  28.459   2.638
15737W        W87266  20.384  35.576  13.914
15738W        W87267  17.115  37.826   0.874
15739W        W87268  16.619  22.260   0.198
15740W        W87269  13.684   1.933  10.767
15741W        W87270  42.837  27.938   0.992
15742W        W87271  40.824  24.492   0.885
15743W        W87272  15.216  42.304   1.753
15744W        W87273  41.428  26.596   1.938
15745W        W87274  39.549  23.252  13.887
15746W        W87275  27.545  42.245   1.820
15747W        W87276  26.956   9.885  14.061
15748W        W87277  26.585  43.256   4.395
15749W        W87278   5.850   6.965   0.442
15750W        W87279  27.589   8.433  12.741
15751W        W87280   4.512  44.320  12.188
15752W        W87281  31.502  14.688   3.285
15753W        W87282  35.799  23.187  14.039
15754W        W87283  29.574  12.109  13.053
15755W        W87284  33.010  19.754   2.330
15756W        W87285  18.786  44.489   1.004
15757W        W87286  22.711  14.374   3.632
15758W        W87287  44.382  21.789   1.940
15759W        W87288  24.580  15.380   2.279
15760W        W87289  17.851  30.905  10.882
15761W        W87290  14.756  40.111   0.608
15762W        W87291  15.225  32.794   3.684
15763W        W87292   9.187  39.788   1.991
15764W        W87293  38.809   9.832  14.306
15765W        W87294  15.877  33.960   4.257
15766W        W87295  29.692   4.371  13.355
15767W        W87296  14.618  11.450   4.045
15768W        W87297   4.983   6.740  14.315
15769W        W87298  43.821  15.840   1.671
15770W        W87299   4.302  31.993   2.361
15771W        W87300  43.476   4.691   1.273
15772W        W87301  37.888  22.786   0.452
15773W        W87302  36.999  20.503   2.533
15774W        W87303   9.893  41.134   4.181
15775W        W87304  29.185  35.963  11.988
15776W        W87305  42.233  33.909  12.465
15777W        W87306   1.384  25.467  11.895
15778W        W87307  11.380  13.084  12.554
15779W        W87308   3.757  17.367  10.019
15780W        W87309  15.657  11.107   0.343
15781W        W87310  22.387  12.189   1.685
15782W        W87311  29.694  26.705  11.495
15783W        W87312   2.684  17.655  12.093
15784W        W87313   4.895  20.789  11.353
15785W        W87314  34.155  20.339  14.700
15786W        W87315  37.648  12.229  13.653
15787W        W87316  38.275  36.241  12.462
15788W        W87317   7.144  35.929   5.029
15789W        W87318  14.968   2.001  12.889
15790W        W87319   9.238  13.371  11.057
15791W        W87320  39.926  16.646  12.028
15792W        W87321  19.029  11.253   0.059
15793W        W87322  15.163  27.537  10.993
15794W        W87323   9.535  11.813  13.545
15795W        W87324   1.720  18.711  14.395
15796W        W87325  42.251  18.208   2.894
15797W        W87326  25.072  30.222  13.929
15798W        W87327  32.915  20.997  10.014
15799W        W87328  11.839  23.232   2.287
15800W        W87329  29.719  28.520   0.250
15801W        W87330  36.987  10.411  10.932
15802W        W87331  13.746  19.770   4.155
15803W        W87332  35.084  33.826  11.613
15804W        W87333  12.676   1.095   0.977
15805W        W87334  14.359  43.428  13.417
15806W        W87335  21.061  40.918   0.826
15807W        W87336   4.820  43.580  13.856
15808W        W87337   3.279  22.492  13.290
15809W        W87338  13.702  33.442  11.563
15810W        W87339  12.595  21.679   4.713
15811W        W87340  15.676  37.493  12.877
15812W        W87341  39.110  18.491  12.093
15813W        W87342  25.492  36.630  13.474
15814W        W87343  11.340  42.481   0.541
15815W        W87344  35.824  17.309  12.865
15816W        W87345  28.738  26.090  14.808
15817W        W87346   0.945  10.652  14.877
15818W        W87347  14.308  16.620   2.739
15819W        W87348  32.016  31.606  12.218
15820W        W87349  27.155  24.230   0.746
15821W        W87350  33.928  12.167  14.056
15822W        W87351   1.787  37.204   2.314
15823W        W87352   9.684   0.371  14.924
15824W        W87353  24.445  21.152  12.119
15825W        W87354  36.339  34.999   3.810
15826W        W87355  44.097  19.224   1.297
15827W        W87356  38.966  18.675   3.738
15828W        W87357   1.193  17.521  12.030
15829W        W87358  22.226  43.611  13.320
15830W        W87359  27.967  42.924   1.861
15831W        W87360  15.702   2.677  12.886
15832W        W87361  10.376  25.020   4.494
15833W        W87362  15.217  13.237   2.785
15834W        W87363  37.956  26.265  10.633
15835W        W87364   5.446   5.814  12.908
15836W        W87365  30.450  20.739  14.227
15837W        W87366   2.850  19.323  12.924
15838W        W87367  17.485  42.533   3.851
15839W        W87368  36.109  40.735  14.803
15840W        W87369   2.810  43.294  13.035
15841W        W87370   1.300   7.852  13.028
15842W        W87371  44.985  18.863   2.806
15843W        W87372   2.337  28.622  12.599
15844W        W87373  20.696  29.069  11.092
15845W        W87374  12.189  29.698   0.902
15846W        W87375  41.417  21.817  13.902
15847W        W87376  19.390  42.277  11.492
15848W        W87377  25.791  17.053  14.611
15849W        W87378  18.897  11.250   3.590
15850W        W87379  16.791  34.056  13.352
15851W        W87380  12.725  30.649   2.141
15852W        W87381  28.669  13.839  11.639
15853W        W87382  38.233  10.276   3.177
15854W        W87383  42.402   8.712  10.710
15855W        W87384  13.357  19.044  13.398
15856W        W87385  35.030   0.944   2.736
15857W        W87386   2.827  27.427   4.654
15858W        W87387   1.785   0.442   3.968
15859W        W87388  19.179   3.415   2.129
15860W        W87389  43.860   8.856  14.968
15861W        W87390  33.622  13.794  13.206
15862W        W87391  24.346   4.853   4.160
15863W        W87392  12.174   7.103  11.559
15864W        W87393   4.273  43.549   0.958
15865W        W87394  35.881  41.679  13.470
15866W        W87395  24.104  43.414  13.053
15867W        W87396  34.993  19.302   4.339
15868W        W87397  32.006  25.026   0.575
15869W        W87398   3.103  21.386   2.901
15870W        W87399  43.873  13.328  12.571
15871W        W87400  36.167  38.390  10.734
15872W        W87401  20.973   6.435   2.583
15873W        W87402   0.738   2.681   0.363
15874W        W87403   9.615  32.684  13.576
15875W        W87404  42.102  22.287  12.506
15876W        W87405  41.799  28.033  11.230
15877W        W87406   9.316  18.844   3.434
15878W        W87407  31.543  27.552   2.412
15879W        W87408  15.206  36.311   0.774
15880W        W87409  22.394  31.455   0.354
15881W        W87410  19.448  20.735  14.939
15882W        W87411  43.955  20.219  13.939
15883W        W87412   4.519  30.390   3.701
15884W        W87413  28.903  42.538  11.569
15885W        W87414  36.933  41.084   3.702
15886W        W87415  27.528  13.201   1.485
15887W        W87416  23.069  15.885  12.377
15888W        W87417   4.034   4.824  11.218
15889W        W87418  16.703  10.630   1.835
15890W        W87419  25.202  19.718   2.240
15891W        W87420  44.357  18.631  14.603
15892W        W87421  40.350   8.184   1.648
15893W        W87422  41.748  37.675  12.196
15894W        W87423  12.358  11.448  14.952
15895W        W87424  16.189  42.596   3.798
15896W        W87425  33.611   8.434  11.574
15897W        W87426   8.031  36.918  11.481
15898W        W87427  20.335  19.492  12.494
15899W        W87428  37.396   7.329  12.014
15900W        W87429   9.854   6.703   1.228
15901W        W87430   0.991  22.756   5.372
15902W        W87431   7.182   3.901  10.698
15903W        W87432  37.498  43.166   9.876
15904W        W87433  22.749   3.334   0.733
15905W        W87434  41.031   2.885  11.052
15906W        W87435   0.774  42.254   0.399
15907W        W87436  28.988   7.209   4.149
15908W        W87437   7.371  28.028   1.752
15909W        W87438  18.636  37.812  13.350
15910W        W87439  31.713  12.854   2.674
15911W        W87440  38.120  39.833   4.709
15912W        W87441  33.908  42.431   3.281
15913W        W87442   1.957  14.793   3.224
15914W        W87443  43.758  34.823  14.382
15915W        W87444  16.851  29.551  13.481
15916W        W87445  39.495   1.897  10.788
15917W        W87446  38.941  29.970   4.525
15918W        W87447  19.710  24.278  12.862
15919W        W87448   4.437   5.663   1.811
15920W        W87449  38.966  25.998   2.459
15921W        W87450  20.977  36.096   2.351
15922W        W87451  15.080   4.893   1.368
15923W        W87452  21.238   5.219   5.098
15924W        W87453  18.314  29.175   2.247
15925W        W87454  25.468  35.344   3.114
15926W        W87455  23.160   8.026  13.136
15927W        W87456  20.093  29.210   0.415
15928W        W87457  25.580  11.339  11.585
15929W        W87458  35.500  27.645  11.413
15930W        W87459  43.573  12.958   2.893
15931W        W87460  25.515  23.904  10.659
15932W        W87461  42.444   3.916   1.678
15933W        W87462  33.077   2.424   0.234
15934W        W87463  20.195  22.770   2.430
15935W        W87464  13.265  26.967  14.058
15936W        W87465   8.274  22.946  11.988
15937W        W87466  37.000   3.287  11.584
15938W        W87467   0.199  28.063   3.946
15939W        W87468  35.227  12.688   1.998
15940W        W87469   9.034  19.789  12.227
15941W        W87470  17.910  33.729  11.995
15942W        W87471  16.213  27.127   0.361
15943W        W87472  42.421  10.791   2.427
15944W        W87473  12.576  15.050  11.645
15945W        W87474  29.852  40.468   4.598
15946W        W87475  25.562   5.121   2.929
15947W        W87476  43.964  38.466   2.685
15948W        W87477  15.017   6.829  13.421
15949W        W87478  28.137  25.093  10.393
15950W        W87479  32.518   2.255  14.822
15951W        W87480  32.787  26.449  14.905
15952W        W87481  34.688  20.822  13.512
15953W        W87482  34.006  17.219  14.545
15954W        W87483   3.722  35.381   3.287
15955W        W87484  19.903  35.475  10.316
15956W        W87485  21.482  30.549   2.655
15957W        W87486  28.901  24.434  12.608
15958W        W87487   1.234  36.640   1.822
15959W        W87488  21.804  42.555  14.928
15960W        W87489   0.070  30.106  12.115
15961W        W87490  40.245  17.271  12.600
15962W        W87491  11.851   2.212  12.325
15963W        W87492  26.117   6.616  12.927
15964W        W87493  20.577  43.110   0.295
15965W        W87494  26.597  31.137  14.080
15966W        W87495   2.726  34.420   0.741
15967W        W87496  36.027  40.479   4.563
15968W        W87497  37.236   7.124   3.206
15969W        W87498   2.378  19.646   4.060
15970W        W87499   2.134  25.880   3.265
15971W        W87500   6.587  32.678   1.538
15972W        W87501  22.545  23.048   4.068
15973W        W87502  36.907  28.199  12.881
15974W        W87503  21.192  28.099  13.844
15975W        W87504  35.313  24.051   3.355
15976W        W87505   1.223  21.264  10.610
15977W        W87506  28.397   6.074   2.339
15978W        W87507  32.693  22.454   2.756
15979W        W87508  30.358  13.345   1.160
15980W        W87509  44.982  13.095  10.716
15981W        W87510  36.864  20.090   3.518
15982W        W87511  36.409   7.759   2.795
15983W        W87512  40.685  19.745   2.347
15984W        W87513  32.267  27.570  12.831
15985W        W87514  18.150  25.439   1.117
15986W        W87515   9.344  35.376   4.610
15987W        W87516  18.602  15.382  13.562
15988W        W87517  21.758  42.902   3.835
15989W        W87518   8.709  12.579  11.945
15990W        W87519   9.872   3.305  10.321
15991W        W87520  33.375  43.789   3.273
15992W        W87521   6.368  21.417   1.814
15993W        W87522  20.946  11.150  12.035
15994W        W87523   2.852  34.009   0.234
15995W        W87524  29.595  15.952  10.813
15996W        W87525  29.702   8.969  12.236
15997W        W87526   9.717  30.922   2.432
15998W        W87527  11.629   5.685  13.685
15999W        W87528   1.538   6.264  13.280
16000W        W87529  10.148  11.541   3.677
16001W        W87530  33.144  26.402  11.036
16002W        W87531  12.290  11.819   2.845
16003W        W87532   6.525  44.490  13.834
16004W        W87533  21.479   4.792   4.730
16005W        W87534   1.149  36.645   3.226
16006W        W87535  42.787   1.945  12.969
16007W        W87536   9.167  29.338   1.756
16008W        W87537  13.432  29.647  13.490
16009W        W87538  10.400  43.745   0.653
16010W        W87539  33.646  17.040   1.886
16011W        W87540  24.948  32.337  11.585
16012W        W87541  26.318  40.324  12.669
16013W        W87542  23.323  38.001  12.466
16014W        W87543  17.661  16.737   0.553
16015W        W87544   7.072  32.520   0.241
16016W        W87545   4.923   9.780   3.061
16017W        W87546  28.030   0.513  13.350
16018W        W87547  22.418  30.196  12.875
16019W        W87548  21.213  29.989  14.879
16020W        W87549  16.907  28.610  14.837
16021W        W87550  25.500  21.265   0.181
16022W        W87551   3.215  36.420   4.111
16023W        W87552  23.234  35.125  10.955
16024W        W87553  41.779  31.334  13.553
16025W        W87554  18.177   6.454  14.702
16026W        W87555  24.100  29.086  11.988
16027W        W87556  22.510  29.502  13.850
16028W        W87557  37.560  12.260  11.745
16029W        W87558  18.365  15.547  12.370
16030W        W87559  22.558  31.456  14.867
16031W        W87560   1.154  43.392   0.432
16032W        W87561  16.037  32.239   0.209
16033W        W87562  16.596   2.922   0.479
16034W        W87563  36.250  13.189   3.852
16035W        W87564  34.068  42.486  12.416
16036W        W87565  26.136  15.521   3.065
16037W        W87566  17.125  38.834  14.376
16038W        W87567  18.444  11.735   1.391
16039W        W87568  42.083  44.385   5.145
16040W        W87569  41.853  12.207  11.051
16041W        W87570   0.681  34.424   3.372
16042W        W87571  19.212  20.405  14.104
16043W        W87572   4.687  12.583  10.838
16044W        W87573  29.752  37.249   0.195
16045W        W87574  26.688   0.966  14.141
16046W        W87575  28.908  40.101  13.316
16047W        W87576  10.496   7.575  11.901
16048W        W87577  22.701  17.334   1.200
16049W        W87578  25.119  42.368  11.661
16050W        W87579  15.498  28.600   2.653
16051W        W87580  18.652  40.417   4.652
16052W        W87581   8.038   7.369   3.163
16053W        W87582  26.623  23.855   4.955
16054W        W87583  44.259  17.357  13.114
16055W        W87584  19.063  38.480  13.025
16056W        W87585  27.670   3.384   0.248
16057W        W87586  19.760  22.071   0.763
16058W        W87587  23.069  31.645  10.431
16059W        W87588  33.632  36.532  12.173
16060W        W87589  27.798   9.035  12.039
16061W        W87590  34.358  10.241  13.994
16062W        W87591   6.254   9.433  10.712
16063W        W87592  18.670  23.761   0.104
16064W        W87593  13.120  40.941  12.904
16065W        W87594  37.797  31.683   0.540
16066W        W87595  18.878  28.347  11.823
16067W        W87596  27.046   6.940  11.919
16068W        W87597  30.277  30.608  10.107
16069W        W87598  30.795  41.079   2.837
16070W        W87599   3.276  17.620   3.285
16071W        W87600  28.491  23.165  10.524
16072W        W87601  20.182  32.965   4.583
16073W        W87602   7.289   8.870   2.803
16074W        W87603   3.199  44.486   0.826
16075W        W87604   7.733  35.777   1.314
16076W        W87605  33.310  26.176  13.888
16077W        W87606   0.316   0.306   3.312
16078W        W87607  29.720  20.195  12.039
16079W        W87608  41.231  34.212  12.282
16080W        W87609  26.741  32.923   0.026
16081W        W87610  41.413  23.030   3.080
16082W        W87611  12.068   2.826  12.998
16083W        W87612  12.340  32.562   3.280
16084W        W87613  10.272  35.431  14.755
16085W        W87614   7.931  34.769   2.722
16086W        W87615  32.124  27.709   0.813
16087W        W87616  20.186  29.018  14.930
16088W        W87617  10.882   9.111  10.731
16089W        W87618  31.926  25.235  12.806
16090W        W87619  32.052  29.680  14.460
16091W        W87620  38.912  25.736   2.922
16092W        W87621  21.134  24.426   4.419
16093W        W87622  35.165  12.208   1.781
16094W        W87623  19.952  31.524  12.872
16095W        W87624  20.508  33.028   2.195
16096W        W87625  36.823  30.659  14.942
16097W        W87626  31.659  13.234  14.999
16098W        W87627  18.826  43.427  13.960
16099W        W87628   2.265  35.520   4.678
16100W        W87629  36.888   4.872  11.608
16101W        W87630   9.136   9.347  11.956
16102W        W87631  29.924   9.565   0.244
16103W        W87632   3.412  35.952   1.371
16104W        W87633  37.823   0.358  11.826
16105W        W87634   6.121  42.763   3.747
16106W        W87635   2.274  33.564  11.671
16107W        W87636  18.953  31.705  12.878
16108W        W87637  18.495  24.341  10.888
16109W        W87638   3.715  29.625   3.169
16110W        W87639  24.742   5.827   3.362
16111W        W87640  21.473  26.697  11.646
16112W        W87641  18.070   4.783   1.001
16113W        W87642  14.298  11.859   0.357
16114W        W87643  26.580   2.189   1.312
16115W        W87644  24.170  25.652  13.282
16116W        W87645  17.727  17.135   3.375
16117W        W87646   2.182  31.279   3.628
16118W        W87647  14.982  11.053   2.805
16119W        W87648   9.643   0.833  12.716
16120W        W87649   3.118  41.858   4.603
16121W        W87650  16.694  15.473  11.820
16122W        W87651  14.696  22.205  14.799
16123W        W87652   3.549  14.144   3.495
16124W        W87653  38.614  30.990  12.042
16125W        W87654  39.971  16.817   1.691
16126W        W87655  30.101  37.731   2.710
16127W        W87656  40.059  19.614  10.694
16128W        W87657   9.338   7.075   2.696
16129W        W87658  23.675  38.279   3.322
16130W        W87659  33.003  23.569   4.212
16131W        W87660   3.874   1.989  11.513
16132W        W87661   6.949  36.977  12.638
16133W        W87662   9.085  34.015   1.779
16134W        W87663  17.800  39.569   0.038
16135W        W87664   0.350  39.306   2.662
16136W        W87665  32.672  12.728   2.941
16137W        W87666  14.377   7.739   1.375
16138W        W87667  40.325  28.530   3.047
16139W        W87668  24.857  35.524  13.051
16140W        W87669  33.685  37.874   1.369
16141W        W87670  37.842  30.381   0.344
16142W        W87671  24.438  18.612   4.653
16143W        W87672   5.696   9.735  13.548
16144W        W87673   7.855  23.613  12.554
16145W        W87674  11.616  31.025  11.540
16146W        W87675  28.068  36.633   3.307
16147W        W87676   0.566   6.124  13.583
16148W        W87677  32.537  12.402   2.141
16149W        W87678  44.442  11.539   4.088
16150W        W87679   1.244  41.441   4.724
16151W        W87680   1.056   1.133   2.639
16152W        W87681  15.646   2.934  14.535
16153W        W87682  25.026  31.357  10.738
16154W        W87683  21.687  10.190  14.296
16155W        W87684  15.220  34.703  13.025
16156W        W87685  31.055  12.651   4.589
16157W        W87686  14.534  41.593   3.838
16158W        W87687  35.924  36.954   1.929
16159W        W87688   2.739  42.399  11.147
16160W        W87689  39.105  43.979   3.491
16161W        W87690  15.756  19.609   2.471
16162W        W87691   7.350  24.818  14.733
16163W        W87692  40.031  36.575  14.133
16164W        W87693  27.438  40.578   0.764
16165W        W87694  10.088  39.110   1.354
16166W        W87695  13.274  41.281   2.261
16167W        W87696  32.105  37.903  10.470
16168W        W87697  34.705   8.323  12.391
16169W        W87698   2.334   1.021  11.653
16170W        W87699  22.725  34.547   3.467
16171W        W87700  33.427   7.821   3.608
16172W        W87701  35.333  41.756  10.451
16173W        W87702  11.148  39.359  14.318
16174W        W87703   1.629  22.932   1.812
16175W        W87704  15.386  25.081   2.557
16176W        W87705  18.508  35.989   4.259
16177W        W87706  26.552  11.058   1.522
16178W        W87707  13.254   9.877   1.872
16179W        W87708  39.238   7.630  11.253
16180W        W87709  16.536   1.864  14.288
16181W        W87710  42.997  35.919   2.576
16182W        W87711  39.326  23.101  14.567
16183W        W87712  12.512  23.621   4.216
16184W        W87713  13.259  31.347  14.147
16185W        W87714  35.889   4.193  12.588
16186W        W87715   2.605  39.143   1.975
16187W        W87716  38.646  28.304   5.058
16188W        W87717   8.000  11.372  14.854
16189W        W87718  35.101  43.301   2.157
16190W        W87719  26.657  21.398   4.613
16191W        W87720  29.942   6.959   3.716
16192W        W87721  40.824  27.002  11.174
16193W        W87722  37.581   7.871   3.220
16194W        W87723  21.838  19.294  12.385
16195W        W87724  29.628  18.289   2.187
16196W        W87725  19.782  32.975   0.595
16197W        W87726   1.090  11.413   2.494
16198W        W87727  16.888  21.454   2.238
16199W        W87728  42.804  43.755   1.970
16200W        W87729  42.854  26.796   1.720
16201W        W87730  35.544  27.600  10.886
16202W        W87731   2.719  30.903   0.052
16203W        W87732  30.166  18.246   0.949
16204W        W87733  43.803   9.344   1.400
16205W        W87734  14.294   6.522   2.791
16206W        W87735  43.884  24.146  13.779
16207W        W87736   2.192  13.872  12.028
16208W        W87737  20.266  21.538   5.003
16209W        W87738  31.717   9.132  10.540
16210W        W87739  31.928  14.551  13.543
16211W        W87740  39.867   3.806   3.025
16212W        W87741  11.117  39.173   2.606
16213W        W87742   7.987  32.931   0.761
16214W        W87743  38.621  19.177  13.473
16215W        W87744   7.810   4.225  14.533
16216W        W87745  29.861  15.273  14.912
16217W        W87746  33.703  44.858  13.099
16218W        W87747   3.919  11.253  11.437
16219W        W87748   5.914  34.442  12.965
16220W        W87749   3.117   8.805   0.600
16221W        W87750   0.352  29.221  12.369
16222W        W87751  24.177   5.688  12.994
16223W        W87752  42.323  34.349   3.629
16224W        W87753  28.693  41.348   4.855
16225W        W87754  44.692   0.859  13.865
16226W        W87755   3.453  31.145   2.702
16227W        W87756   1.499   9.922   0.355
16228W        W87757  14.967  13.292   3.358
16229W        W87758  43.043  32.398  12.605
16230W        W87759  26.295  30.516   4.730
16231W        W87760   3.736  17.601  13.861
16232W        W87761  24.666   9.198  10.578
16233W        W87762  13.443   4.933  14.956
16234W        W87763  32.119  11.614   5.098
16235W        W87764  27.090  44.749  12.895
16236W        W87765  18.656  11.718   3.768
16237W        W87766  20.184  20.095   0.057
16238W        W87767  26.232  25.935  11.317
16239W        W87768   8.905  35.502   0.881
16240W        W87769   8.136  41.063  10.552
16241W        W87770  19.536  40.998   1.482
16242W        W87771  44.260  43.371  14.400
16243W        W87772  16.089  27.665  14.524
16244W        W87773  35.973   0.339  13.351
16245W        W87774  33.679  43.969  11.006
16246W        W87775   4.480  20.964  11.107
16247W        W87776  21.062  23.547  10.559
16248W        W87777  31.455   3.712   4.370
16249W        W87778   9.299  22.668  12.167
16250W        W87779   2.869   1.242   4.632
16251W        W87780   2.170  14.829   1.489
16252W        W87781  35.824  42.005  12.934
16253W        W87782  32.685  26.603  12.590
16254W        W87783  20.531  19.290  14.974
16255W        W87784   4.360  38.561  13.592
16256W        W87785  37.009  20.496   0.192
16257W        W87786  22.457   2.430  14.142
16258W        W87787  44.852  41.905  12.054
16259W        W87788   7.197  34.022  13.507
16260W        W87789  16.266  34.654   5.045
16261W        W87790  18.009  12.330   3.725
16262W        W87791  20.190   2.303  11.019
16263W        W87792  20.134  28.803  11.728
16264W        W87793  16.103   2.686  14.555
16265W        W87794   6.998   8.333  14.858
16266W        W87795  29.503   6.941  10.437
16267W        W87796  24.254  27.526  10.391
16268W        W87797  21.304   0.295   0.889
16269W        W87798   8.752  33.632  13.770
16270W        W87799  34.444  23.195  14.673
16271W        W87800   0.588  41.934  12.686
16272W        W87801   5.840  40.406   2.471
16273W        W87802   7.664  27.730  10.759
16274W        W87803  22.098   5.348   2.335
16275W        W87804  27.154   7.496  14.589
16276W        W87805  37.052  25.389  11.106
16277W        W87806  28.978   4.872   2.880
16278W        W87807  44.376  25.214   3.342
16279W        W87808  38.324   2.712  13.496
16280W        W87809  23.512  29.422  14.685
16281W        W87810  30.557  37.428   0.423
16282W        W87811  43.936  37.668  11.039
16283W        W87812  33.362  16.647  11.127
16284W        W87813  24.764  36.456   1.864
16285W        W87814   9.369  17.151   3.202
16286W        W87815  12.323  30.209   0.722
16287W        W87816   6.132  23.032   1.211
16288W        W87817   0.562  18.250   2.737
16289W        W87818  34.864   5.816  10.694
16290W        W87819   4.965  33.498   2.383
16291W        W87820  16.259  38.033  14.762
16292W        W87821  35.708   1.784   4.483
16293W        W87822  33.672   4.428   1.198
16294W        W87823  34.089   2.523   3.808
16295W        W87824  13.905   5.149   0.495
16296W        W87825   5.327  19.304  13.722
16297W        W87826   4.918  14.677  10.650
16298W        W87827  14.193   1.535   4.194
16299W        W87828  12.879   1.188  11.226
16300W        W87829   0.126   3.816   3.428
16301W        W87830  29.264  17.283   0.329
16302W        W87831  36.352   7.319  11.578
16303W        W87832  22.235  39.787   3.242
16304W        W87833  26.865  24.055   1.194
16305W        W87834  19.827  27.701   3.280
16306W        W87835  15.107  21.388   0.720
16307W        W87836   1.588  37.934  13.057
16308W        W87837   6.691  28.877   1.198
16309W        W87838  37.025  36.771  12.556
16310W        W87839  38.154  14.825   4.457
16311W        W87840  23.476  20.151  14.368
16312W        W87841  26.224  38.541  13.413
16313W        W87842  36.075  13.641  12.248
16314W        W87843  28.045   0.550  12.347
16315W        W87844  34.326  44.770   3.259
16316W        W87845   9.964   3.719   4.639
16317W        W87846  17.343  43.541   1.769
16318W        W87847   7.791  28.015   2.072
16319W        W87848  25.377  25.218  10.953
16320W        W87849  14.699  13.146   2.949
16321W        W87850   4.145  13.833  14.468
16322W        W87851  18.479   3.224   3.226
16323W        W87852   5.489  39.498  11.619
16324W        W87853  42.732  16.389  14.261
16325W        W87854  37.001  36.242  13.317
16326W        W87855  29.720   2.441   2.904
16327W        W87856  23.842  16.052   3.216
16328W        W87857  33.980  42.756  12.964
16329W        W87858  21.301  20.147   1.191
16330W        W87859  18.225  37.644  11.167
16331W        W87860  21.534  25.564  13.493
16332W        W87861  14.638  25.543   1.442
16333W        W87862  40.329   7.673   2.340
16334W        W87863  37.862  41.078   1.194
16335W        W87864   4.800  28.554  13.773
16336W        W87865  44.704  27.031   1.447
16337W        W87866   5.755   8.889   0.786
16338W        W87867  26.421   8.593  12.499
16339W        W87868  39.427  43.056   3.117
16340W        W87869   9.366  11.575  13.978
16341W        W87870  32.468   5.513  13.080
16342W        W87871  11.694  31.296   0.363
16343W        W87872  16.175  33.859   0.429
16344W        W87873  13.801  19.510   0.957
16345W        W87874  42.320  25.030   3.754
16346W        W87875  42.228  42.437  10.767
16347W        W87876  38.106  19.330   3.761
16348W        W87877  12.397   7.853  12.737
16349W        W87878  38.278   3.760  13.382
16350W        W87879   8.254   2.886  14.703
16351W        W87880  36.583   8.255   3.508
16352W        W87881  20.115  24.204  11.113
16353W        W87882  44.216  42.857  14.305
16354W        W87883  33.426  19.462   2.387
16355W        W87884  41.566  44.979   2.672
16356W        W87885   3.225  20.505   4.343
16357W        W87886  26.151   7.293   2.279
16358W        W87887  39.075  17.710  14.936
16359W        W87888  29.962  44.006  10.803
16360W        W87889   3.883  35.446  11.858
16361W        W87890   6.958   4.231  12.452
16362W        W87891  26.529  41.334   3.987
16363W        W87892  31.499  21.838   0.967
16364W        W87893  41.798  40.974   1.509
16365W        W87894   1.475  37.969   1.350
16366W        W87895  19.335   2.332   1.379
16367W        W87896  14.820  38.956   2.481
16368W        W87897  16.104  44.632   3.119
16369W        W87898  42.046  40.378   2.243
16370W        W87899  38.987  32.383  13.419
16371W        W87900  22.596  39.776   4.122
16372W        W87901  26.317  29.526  10.355
16373W        W87902  26.950   7.364  12.205
16374W        W87903   0.877  14.832  10.750
16375W        W87904  13.817  14.814   4.257
16376W        W87905   2.482   4.886   4.674
16377W        W87906  43.531  40.747   4.400
16378W        W87907  12.063  21.764   2.789
16379W        W87908  29.773  14.794  13.867
16380W        W87909   6.464  25.224   3.737
16381W        W87910  22.525  41.113  12.613
16382W        W87911  34.893   5.856   4.305
16383W        W87912  38.774   4.787  11.510
16384W        W87913  21.306  42.877   3.235
16385W        W87914  15.688  17.978  13.880
16386W        W87915  25.313  11.800   4.536
16387W        W87916   6.125   4.692  11.662
16388W        W87917  30.096  19.755  10.772
16389W        W87918  16.836  19.182   0.595
16390W        W87919  23.924  33.352   2.754
16391W        W87920  33.916  22.626   0.707
16392W        W87921  26.754  41.856   4.048
16393W        W87922   9.438  36.071   4.135
16394W        W87923   0.832   3.001  12.122
16395W        W87924  33.041  31.161   2.264
16396W        W87925  38.017  19.668  12.940
16397W        W87926  36.621  20.792  13.530
16398W        W87927  35.141  17.982  12.053
16399W        W87928  28.387  18.048  14.455
16400W        W87929  36.533  11.339   0.682
16401W        W87930   6.583   4.560   2.356
16402W        W87931   6.802  33.594   3.653
16403W        W87932  13.761  31.064   0.558
16404W        W87933   6.459  11.277  12.957
16405W        W87934  34.022  10.776   2.221
16406W        W87935  24.356  12.241  12.649
16407W        W87936  12.851  41.388  12.965
16408W        W87937   4.268  17.668  14.800
16409W        W87938  43.407  35.960  14.451
16410W        W87939  26.997  36.836  13.443
16411W        W87940  21.670  10.567   0.263
16412W        W87941  17.720  27.024   2.993
16413W        W87942  17.919  10.721  12.043
16414W        W87943   5.345   7.237   4.541
16415W        W87944  43.008  25.479  14.780
16416W        W87945  20.815  19.074   3.721
16417W        W87946   4.327  27.183   4.154
16418W        W87947   1.275  10.181  13.445
16419W        W87948  28.175   8.270  14.496
16420W        W87949  37.624   8.662  12.560
16421W        W87950  16.369  37.347   1.265
16422W        W87951  22.097  41.315   1.449
16423W        W87952  10.298  37.006   1.541
16424W        W87953  14.671   1.253  12.092
16425W        W87954  11.111  13.366  11.118
16426W        W87955  13.353  44.569   4.163
16427W        W87956   2.814  31.838  14.405
16428W        W87957  24.222  21.815  14.950
16429W        W87958  15.725  10.083   1.875
16430W        W87959  38.831  27.138   4.297
16431W        W87960  36.732  37.254   4.372
16432W        W87961  15.147  27.391   1.772
16433W        W87962   3.892   6.627   2.116
16434W        W87963  44.265  20.511  14.532
16435W        W87964  22.403  37.803  10.629
16436W        W87965  21.045   9.696  14.985
16437W        W87966  42.408   5.413  14.330
16438W        W87967  18.692   7.217  11.151
16439W        W87968  11.743  16.929   9.896
16440W        W87969  29.061  35.945   0.341
16441W        W87970  20.471  22.109  10.710
16442W        W87971   8.361  23.551   4.561
16443W        W87972  12.646  17.628   4.643
16444W        W87973  41.930  41.639   4.841
16445W        W87974  27.845   3.752   2.249
16446W        W87975   2.437   5.478  11.987
16447W        W87976  21.108   6.719  12.961
16448W        W87977  23.297  22.500  13.996
16449W        W87978  25.494  14.091   1.513
16450W        W87979   1.584  22.578   4.748
16451W        W87980  12.073  40.071   1.577
16452W        W87981  37.427   6.316  14.994
16453W        W87982   5.759   2.682   1.790
16454W        W87983  40.846  15.543   0.659
16455W        W87984   9.696  34.182  11.113
16456W        W87985  27.131   1.250  11.721
16457W        W87986  12.182  38.341  14.001
16458W        W87987  11.358   2.918   5.112
16459W        W87988   0.497   7.175   1.899
16460W        W87989  43.207  27.116  14.557
16461W        W87990   0.307  23.225   0.226
16462W        W87991   4.029  21.180  12.266
16463W        W87992  11.938  30.166  12.397
16464W        W87993  30.035  39.299   1.911
16465W        W87994  28.687  42.419  12.022
16466W        W87995  25.664  10.683   3.090
16467W        W87996  24.157  33.252  10.533
16468W        W87997   2.569  12.117  13.442
16469W        W87998  19.376   3.774   3.812
16470W        W87999  12.352  34.406   0.628
16471W        W88000  38.510  15.490  13.003
16472W        W88001  37.931  19.860  11.194
16473W        W88002  41.350  18.287  11.198
16474W        W88003   2.982  32.869   3.045
16475W        W88004  17.841  22.186   4.891
16476W        W88005  37.598  32.145   4.628
16477W        W88006  18.600  44.533   2.819
16478W        W88007  26.286   7.266  14.032
16479W        W88008   1.317   3.919  11.044
16480W        W88009  39.126  38.135  12.589
16481W        W88010  32.061   9.080  12.221
16482W        W88011  32.862  14.659   3.842
16483W        W88012  34.208  40.734  14.535
16484W        W88013  21.494  26.332  14.903
16485W        W88014  20.840  31.509  13.409
16486W        W88015  21.550  14.762   3.521
16487W        W88016   3.196   3.710   0.356
16488W        W88017   0.367  33.448  11.863
16489W        W88018  26.400  12.707  12.952
16490W        W88019  19.667  35.762  12.508
16491W        W88020  26.181  27.919   4.739
16492W        W88021  42.044  23.942   1.834
16493W        W88022  33.120   9.734   0.481
16494W        W88023  42.075  30.635   5.172
16495W        W88024   4.208  40.998   3.565
16496W        W88025  37.314   8.481  11.496
16497W        W88026   6.901  12.714   4.042
16498W        W88027   5.251   0.149   0.006
16499W        W88028  40.737  18.211   3.743
16500W        W88029   5.728  17.214  13.398
16501W        W88030  23.373  38.026  14.312
16502W        W88031  43.529  22.609  13.836
16503W        W88032   2.729  24.679  11.049
16504W        W88033  19.773  26.286   4.776
16505W        W88034   5.255  32.244   0.264
16506W        W88035  12.012  18.589  14.363
16507W        W88036  33.053  19.255  10.701
16508W        W88037  37.270  27.068   0.334
16509W        W88038   1.373  24.634  14.046
16510W        W88039  32.835  41.989   2.299
16511W        W88040   3.914   5.734  13.121
16512W        W88041  26.766  19.600   5.011
16513W        W88042   0.957  35.183  13.576
16514W        W88043  31.891   6.383   1.140
16515W        W88044  44.784  13.111   1.842
16516W        W88045  40.568   9.917   2.274
16517W        W88046   7.780  17.651   0.296
16518W        W88047  16.754  27.198  12.583
16519W        W88048   0.348  20.612   1.264
16520W        W88049  19.341   4.755   3.703
16521W        W88050  22.767  28.940  14.050
16522W        W88051  18.094  10.024  10.745
16523W        W88052  24.731   5.114  13.875
16524W        W88053  17.164  32.889   1.351
16525W        W88054  29.915  12.266   0.237
16526W        W88055  14.687  15.408   2.255
16527W        W88056  31.111  31.397  10.989
16528W        W88057  40.291  21.722  10.718
16529W        W88058   8.810  31.622   1.275
16530W        W88059   2.873  29.248  11.942
16531W        W88060   3.117  21.507   2.282
16532W        W88061  19.046  19.549   2.154
16533W        W88062  36.629  39.884  11.537
16534W        W88063  40.477  24.159  13.404
16535W        W88064  44.434  30.485  14.053
16536W        W88065   4.825   5.744   2.627
16537W        W88066  39.608  39.819   0.604
16538W        W88067  26.557   9.659  10.401
16539W        W88068  35.474  44.299  14.955
16540W        W88069   4.815  29.084   3.386
16541W        W88070  26.424  40.372   2.747
16542W        W88071  44.386  29.362  13.118
16543W        W88072  16.146  35.583   0.008
16544W        W88073  27.191  13.913   4.190
16545W        W88074  27.522  15.157  13.684
16546W        W88075  12.238  26.314   3.725
16547W        W88076  44.022  24.085   1.738
16548W        W88077  20.308  18.844  11.752
16549W        W88078  16.034  37.165   0.125
16550W        W88079  17.704  44.982   0.401
16551W        W88080  33.323  41.401  11.538
16552W        W88081  12.265   3.399  11.657
16553W        W88082  37.860  28.699  10.834
16554W        W88083   8.748   8.932  11.582
16555W        W88084  29.762  20.818  14.016
16556W        W88085   1.867  14.427   4.760
16557W        W88086   7.659  21.542  10.432
16558W        W88087  22.914  42.353  12.100
16559W        W88088  17.860  15.231   0.845
16560W        W88089  16.464  11.161  14.994
16561W        W88090  19.526  13.720   4.647
16562W        W88091  39.863  19.186   3.811
16563W        W88092  18.668  25.487   4.396
16564W        W88093  10.213  35.907   2.089
16565W        W88094   6.306  29.806   4.590
16566W        W88095   6.730   4.304   0.939
16567W        W88096  27.146  21.069   3.367
16568W        W88097  22.745  22.307  12.185
16569W        W88098   6.316   7.724  11.223
16570W        W88099   9.558   5.820   4.551
16571W        W88100  37.334  22.225  11.126
16572W        W88101   0.705  38.032  13.035
16573W        W88102   0.463  25.646   1.052
16574W        W88103   3.789  22.180  13.943
16575W        W88104  22.602  32.675  12.086
16576W        W88105  36.517  36.077  12.645
16577W        W88106  40.034  23.563  14.480
16578W        W88107  34.287  28.643   3.604
16579W        W88108  29.721  26.188   0.752
16580W        W88109  40.474  27.859  10.636
16581W        W88110  11.364  31.071   2.751
16582W        W88111   3.753  14.571   4.449
16583W        W88112  36.369  31.188   3.208
16584W        W88113  10.953  18.289  12.192
16585W        W88114   7.792  16.858  13.488
16586W        W88115  44.724   8.663   2.739
16587W        W88116   6.680  44.549   4.935
16588W        W88117  30.060   5.366   1.447
16589W        W88118   5.098  26.574  13.305
16590W        W88119  18.183  23.609   4.565
16591W        W88120  44.279  11.611  14.950
16592W        W88121  41.997  28.488   3.461
16593W        W88122  41.607  18.991   0.484
16594W        W88123   8.308   9.844  10.964
16595W        W88124  28.606  32.606   1.054
16596W        W88125  40.866  44.045   1.894
16597W        W88126  10.315  28.933   1.496
16598W        W88127  22.684   7.432  12.533
16599W        W88128  21.058   9.521   2.139
16600W        W88129  34.330  25.671   3.198
16601W        W88130  10.344  19.650   1.927
16602W        W88131  22.633  13.896  12.945
16603W        W88132   6.874  16.188   3.208
16604W        W88133  35.473  37.373  11.109
16605W        W88134  14.645  33.821   1.370
16606W        W88135  16.780  10.256  12.632
16607W        W88136   7.218  12.896  13.975
16608W        W88137  39.222  10.754  11.680
16609W        W88138   7.795   9.927   2.352
16610W        W88139  19.425  37.252   2.895
16611W        W88140  17.687  26.433   4.578
16612W        W88141  36.329  11.099   3.120
16613W        W88142  30.825  33.794   3.087
16614W        W88143  27.474  11.615  13.611
16615W        W88144  40.449  34.944   4.065
16616W        W88145  18.176  29.841  12.094
16617W        W88146  24.890   7.175  11.106
16618W        W88147  25.639   3.306   2.387
16619W        W88148  41.336  20.028  11.149
16620W        W88149  32.323  22.033   2.663
16621W        W88150   3.460  40.520   2.283
16622W        W88151   0.016  25.676   0.763
16623W        W88152   5.922  33.375  11.172
16624W        W88153  41.390  41.680  13.071
16625W        W88154  32.401  44.843  14.893
16626W        W88155  18.150   5.294   0.932
16627W        W88156   2.070  32.844  11.711
16628W        W88157   5.301  39.239  12.915
16629W        W88158  35.008   1.920  11.162
16630W        W88159  44.275  21.536  14.827
16631W        W88160  31.620  33.381   0.029
16632W        W88161  33.639  27.082   2.775
16633W        W88162   5.876  26.749   0.223
16634W        W88163   4.918   4.446  13.957
16635W        W88164  28.795  31.662  13.724
16636W        W88165  44.457  28.097   2.917
16637W        W88166  24.715  40.940   1.198
16638W        W88167  10.198   2.959   2.388
16639W        W88168   2.744   3.440   0.407
16640W        W88169  41.009  39.914   4.561
16641W        W88170   3.704  44.699   4.004
16642W        W88171  44.005  33.840  12.677
16643W        W88172  31.386   6.381  12.108
16644W        W88173  16.661   0.172  12.509
16645W        W88174  39.769  35.422   0.990
16646W        W88175  34.902  41.392  11.573
16647W        W88176  15.276   0.799   3.257
16648W        W88177  42.994  43.194  14.955
16649W        W88178  39.893  39.123   3.175
16650W        W88179  15.941   9.527   4.090
16651W        W88180  33.969  44.438   9.904
16652W        W88181  34.281   2.268  13.460
16653W        W88182  35.491   2.417   3.657
16654W        W88183  20.159  26.748   2.177
16655W        W88184  33.133  34.065  11.595
16656W        W88185   5.598  25.982   0.764
16657W        W88186  34.242   1.422   4.759
16658W        W88187   0.448  14.314   2.957
16659W        W88188  32.431  19.255   1.013
16660W        W88189  16.986   4.191   2.809
16661W        W88190  25.675  21.564   1.156
16662W        W88191   6.254   3.771  12.574
16663W        W88192  29.657  27.467   3.629
16664W        W88193  13.549  32.330  12.405
16665W        W88194  13.074  21.116   3.363
16666W        W88195  31.160  22.590   1.329
16667W        W88196  25.434  39.291   3.212
16668W        W88197  19.844   2.527   0.488
16669W        W88198   3.787  29.584  11.134
16670W        W88199  39.376  43.196   3.613
16671W        W88200  42.044   6.762   2.710
16672W        W88201  38.004  42.001  11.562
16673W        W88202  24.002  37.963   3.899
16674W        W88203  23.573  41.994  12.095
16675W        W88204   4.678   4.918  13.927
16676W        W88205  30.298  20.682   3.395
16677W        W88206   6.746   5.805  12.181
16678W        W88207  31.066  19.081  11.499
16679W        W88208  42.867  11.170   1.824
16680W        W88209   7.228  21.267  10.370
16681W        W88210  33.159   5.868   3.284
16682W        W88211   6.446  23.824  10.729
16683W        W88212  14.791  10.950  12.454
16684W        W88213   5.450  30.468  13.081
16685W        W88214  32.172  27.381   2.738
16686W        W88215  42.016  33.423   1.479
16687W        W88216   2.550   6.988   1.628
16688W        W88217   4.617  44.490  13.108
16689W        W88218  28.228  14.856  14.563
16690W        W88219  17.365  35.937   0.944
16691W        W88220   7.315  41.325   3.483
16692W        W88221  26.802  43.228   1.332
16693W        W88222  15.292   4.443   1.440
16694W        W88223  24.337  14.292   4.204
16695W        W88224  36.624   1.262   3.718
16696W        W88225  24.331  33.437   4.030
16697W        W88226  15.215   4.368   0.057
16698W        W88227  22.236   5.404   2.828
16699W        W88228  44.855  30.554  13.737
16700W        W88229   2.151  29.975   1.754
16701W        W88230  38.859  35.957   4.651
16702W        W88231  31.921  12.470   0.839
16703W        W88232  20.044  10.534   1.857
16704W        W88233  16.491  28.139   4.147
16705W        W88234  39.215  11.697  11.278
16706W        W88235   0.648  34.414  10.895
16707W        W88236  35.317  36.219  13.127
16708W        W88237  23.179  20.907  13.719
16709W        W88238   3.286  33.721  14.320
16710W        W88239  33.222   8.437   0.732
16711W        W88240  23.545  33.742   2.766
16712W        W88241  12.644  32.546  13.353
16713W        W88242   1.478  26.300   2.398
16714W        W88243  28.649  38.992  12.833
16715W        W88244  18.064  29.598  11.099
16716W        W88245  13.104  18.383   1.462
16717W        W88246  14.666   0.572  14.047
16718W        W88247  20.285  21.690   2.198
16719W        W88248  32.136  10.215  13.756
16720W        W88249  41.033  42.379   4.407
16721W        W88250  13.227  14.522   4.557
16722W        W88251  18.675  32.273  13.993
16723W        W88252  25.164  35.664   2.296
16724W        W88253  16.789   5.388  12.463
16725W        W88254  40.522  43.603   2.633
16726W        W88255  12.124  14.659   3.663
16727W        W88256  34.026  41.777  13.781
16728W        W88257  10.541  24.810  11.200
16729W        W88258  40.533   3.864   2.734
16730W        W88259  28.491  13.375   5.001
16731W        W88260  34.857  18.997  14.027
16732W        W88261  28.274   0.232   1.406
16733W        W88262  19.696  37.340  12.527
16734W        W88263  19.921   8.891   4.727
16735W        W88264  30.005   0.451   1.101
16736W        W88265  20.758  38.060   0.885
16737W        W88266  21.506  35.642   3.131
16738W        W88267  39.961  41.408   0.261
16739W        W88268  18.770  31.263   1.321
16740W        W88269  31.697   0.471  10.680
16741W        W88270  42.211  32.893   1.692
16742W        W88271  10.677  35.906   0.740
16743W        W88272  33.465  43.482  11.207
16744W        W88273  24.686  15.021   1.087
16745W        W88274  17.100   4.340   3.680
16746W        W88275   5.410  22.616   0.446
16747W        W88276  21.694  17.800  14.933
16748W        W88277  43.500  43.493   4.137
16749W        W88278  10.151  19.302  10.284
16750W        W88279  24.537  18.913  13.395
16751W        W88280  24.785  39.950  14.055
16752W        W88281  36.569  42.635   2.573
16753W        W88282  12.687  10.414   2.845
16754W        W88283  24.556  11.195   2.465
16755W        W88284   7.348  41.473  14.883
16756W        W88285  30.666   7.051  11.049
16757W        W88286  26.502  36.450  11.582
16758W        W88287   3.410  20.162   2.977
16759W        W88288  38.208  26.079   2.907
16760W        W88289  31.919  23.972  11.685
16761W        W88290  17.998  21.935   0.366
16762W        W88291  26.750   2.371   2.245
16763W        W88292  10.295   5.609   1.504
16764W        W88293   0.404  13.294  14.037
16765W        W88294   0.464  38.568   3.654
16766W        W88295  27.505  14.190  12.068
16767W        W88296  32.675  35.954   4.170
16768W        W88297  21.443  23.481  13.880
16769W        W88298   3.298   5.714   1.746
16770W        W88299  31.387  35.022   3.590
16771W        W88300  33.988  44.211  13.385
16772W        W88301  38.764  27.608  14.833
16773W        W88302   3.980  30.898   4.567
16774W        W88303  25.025  44.814   3.142
16775W        W88304  20.086  23.194   1.603
16776W        W88305  34.971   3.053   2.668
16777W        W88306  31.821  32.942  10.007
16778W        W88307  23.213  24.458  11.110
16779W        W88308   2.592  32.921  11.117
16780W        W88309  15.584  32.073  14.300
16781W        W88310  30.668  11.429   2.293
16782W        W88311  37.062   4.345   1.002
16783W        W88312  27.511  19.334   1.023
16784W        W88313  33.493  16.270  14.804
16785W        W88314  26.098  29.526   4.619
16786W        W88315  37.002  41.289   1.323
16787W        W88316  30.617   0.066   2.251
16788W        W88317  20.312   7.890   3.283
16789W        W88318  41.823  36.010  14.438
16790W        W88319  10.443  30.408   2.327
16791W        W88320   2.580  37.259   5.005
16792W        W88321  37.487  12.348  12.243
16793W        W88322   0.795  18.119   3.187
16794W        W88323  17.185  16.331  10.711
16795W        W88324   6.144   7.233  11.206
16796W        W88325  33.137  43.817  14.401
16797W        W88326  39.593  32.241   5.039
16798W        W88327   6.923  21.862  13.878
16799W        W88328  33.646  25.905  11.483
16800W        W88329   6.891  11.390  10.678
16801W        W88330  14.404  10.247   3.516
16802W        W88331  24.369  18.515  11.284
16803W        W88332  19.125  30.752   4.548
16804W        W88333  28.260  30.838   2.837
16805W        W88334  44.309   9.774  13.854
16806W        W88335   0.488  32.330  10.237
16807W        W88336  42.224   6.782   0.239
16808W        W88337   2.752  35.993   2.134
16809W        W88338  30.001  13.135  12.936
16810W        W88339  36.305  41.873  13.115
16811W        W88340  27.677   1.275  11.080
16812W        W88341   4.499   8.817  11.221
16813W        W88342  13.098  23.951   1.885
16814W        W88343  14.145   7.017   2.077
16815W        W88344   5.736   1.732   2.194
16816W        W88345  21.865   5.705  10.615
16817W        W88346  33.672   6.747  10.268
16818W        W88347  36.880   1.716   2.128
16819W        W88348  31.928  44.251  13.878
16820W        W88349  27.525  44.763  12.587
16821W        W88350  34.053  26.512   1.003
16822W        W88351  12.335  19.482   1.403
16823W        W88352  13.148  34.466  13.910
16824W        W88353  41.939  40.237   3.729
16825W        W88354   7.443   1.790  14.559
16826W        W88355  32.356  16.194   0.392
16827W        W88356  40.019  21.917  14.906
16828W        W88357   8.210  11.351  13.120
16829W        W88358   9.608  12.399   3.658
16830W        W88359  43.751  14.834   1.712
16831W        W88360  20.013  43.060   1.334
16832W        W88361  30.864  20.932  14.471
16833W        W88362  31.660  11.584   2.301
16834W        W88363   7.288  16.011  11.664
16835W        W88364  12.223  10.146  11.951
16836W        W88365  13.067  40.475  10.730
16837W        W88366  16.847  39.611   2.607
16838W        W88367   0.314  33.905   2.583
16839W        W88368   8.503  32.980   1.002
16840W        W88369  35.882  37.073  10.829
16841W        W88370  31.812  35.464   2.338
16842W        W88371   2.593   7.314  12.129
16843W        W88372  20.184   1.823  12.966
16844W        W88373  18.095   0.305   3.749
16845W        W88374   6.732   0.241   4.077
16846W        W88375  15.166  40.343   3.680
16847W        W88376  10.417   7.209  11.506
16848W        W88377  11.879  25.658   2.364
16849W        W88378  35.260  35.514   5.008
16850W        W88379   9.449  12.344  11.985
16851W        W88380   7.468   2.472  14.914
16852W        W88381  29.977   4.613   1.191
16853W        W88382   6.391  33.606  10.588
16854W        W88383  33.747  26.170  14.752
16855W        W88384  38.236   7.887  12.018
16856W        W88385  27.568  43.284   1.808
16857W        W88386  22.944   3.600  11.658
16858W        W88387   9.412  13.452   0.331
16859W        W88388   1.391  19.999  11.228
16860W        W88389  39.268  33.933  12.403
16861W        W88390  34.523  31.122  13.191
16862W        W88391  14.302  16.162   2.965
16863W        W88392  37.609   6.168  14.504
16864W        W88393   3.313  17.148   2.995
16865W        W88394  35.389  36.357  14.896
16866W        W88395  13.711  33.107   4.598
16867W        W88396  26.374  14.420  11.631
16868W        W88397  19.781  21.042  14.325
16869W        W88398  25.827   6.649   0.398
16870W        W88399  16.115  33.395  11.934
16871W        W88400   6.219  13.066   0.453
16872W        W88401  16.620  16.060   3.276
16873W        W88402  10.353  41.376  12.189
16874W        W88403  23.534  14.246  10.639
16875W        W88404  29.716  27.544   2.877
16876W        W88405  23.400  19.730  13.108
16877W        W88406  30.893   1.894  11.185
16878W        W88407  28.685  40.936  14.987
16879W        W88408  36.513  18.495  13.085
16880W        W88409  22.252  38.602   2.677
16881W        W88410  27.428  16.127  13.979
16882W        W88411  39.973  36.817   4.490
16883W        W88412  30.298  11.173   2.679
16884W        W88413  18.323  39.492   4.263
16885W        W88414  14.128   4.214  12.239
16886W        W88415  25.440   0.898   3.740
16887W        W88416  15.231  42.809   1.882
16888W        W88417   9.141  36.486  11.149
16889W        W88418  14.384   1.069  14.984
16890W        W88419  10.182  11.877   0.308
16891W        W88420  16.046  32.921   4.133
16892W        W88421  29.346   5.835  14.153
16893W        W88422  35.665  10.720  12.884
16894W        W88423  30.926  14.124  12.788
16895W        W88424  14.010  21.826  14.312
16896W        W88425  27.076   0.013   4.647
16897W        W88426   9.639  32.651   0.422
16898W        W88427  41.810  10.855   0.394
16899W        W88428   4.237  41.767   4.576
16900W        W88429  11.332  31.585   0.646
16901W        W88430  15.363  10.527  10.314
16902W        W88431  34.478  11.058   4.333
16903W        W88432  44.980  19.791   2.742
16904W        W88433  15.195   3.644   1.196
16905W        W88434  26.071  26.231  12.611
16906W        W88435  24.284  26.190   1.861
16907W        W88436  29.191  38.305  13.828
16908W        W88437  42.652  15.122   3.487
16909W        W88438  35.219  42.844  12.431
16910W        W88439  41.444  31.929   4.216
16911W        W88440   7.611  26.539  14.955
16912W        W88441  40.263  18.758   1.313
16913W        W88442  44.796   3.645  14.908
16914W        W88443  37.310   2.791   1.408
16915W        W88444  18.061  28.886  12.983
16916W        W88445  31.531  21.599  12.452
16917W        W88446  30.665  34.567   0.768
16918W        W88447  16.744   2.039   3.822
16919W        W88448  34.330  16.227  14.135
16920W        W88449  10.876   2.231   1.385
16921W        W88450  10.900   7.420  11.626
16922W        W88451   2.151   9.285   1.737
16923W        W88452  27.205  34.508   0.060
16924W        W88453  22.541  24.238   4.833
16925W        W88454  30.086  37.892   3.215
16926W        W88455  25.239  43.989   4.607
16927W        W88456  38.525  39.947  13.587
16928W        W88457  22.409  31.957  14.790
16929W        W88458  17.276  44.368   4.602
16930W        W88459  36.339  13.725  13.876
16931W        W88460  20.854   6.995  12.042
16932W        W88461  10.607  17.787  14.893
16933W        W88462  17.632  18.990  11.070
16934W        W88463  20.351  31.605   0.275
16935W        W88464  17.173  20.112  14.960
16936W        W88465  10.713   8.917  12.422
16937W        W88466  18.283  26.596  10.595
16938W        W88467  27.702  18.165   4.122
16939W        W88468  38.994  18.285   0.690
16940W        W88469  25.695  28.460   1.810
16941W        W88470  40.941  17.404  13.315
16942W        W88471  27.072   0.567  11.156
16943W        W88472   7.640  21.197   0.901
16944W        W88473  26.126   1.824  14.335
16945W        W88474  40.650   5.621  12.927
16946W        W88475   6.526  42.520   1.728
16947W        W88476   6.812   7.100  12.540
16948W        W88477  41.324   2.530  10.806
16949W        W88478   8.255  16.263   4.359
16950W        W88479   5.276   5.691   0.368
16951W        W88480  29.556   5.662   2.704
16952W        W88481  40.340  32.124   1.142
16953W        W88482  33.918   0.315  12.416
16954W        W88483  34.620  10.895  10.699
16955W        W88484  38.949  22.239   1.311
16956W        W88485  25.051   8.388   1.833
16957W        W88486  37.142  32.836  14.565
16958W        W88487  41.288  41.033   3.277
16959W        W88488  37.050  44.770  14.324
16960W        W88489   2.308   9.843  10.731
16961W        W88490  22.663  22.917  10.202
16962W        W88491  10.578  32.781  13.821
16963W        W88492   3.687   7.288  12.430
16964W        W88493  25.383  10.316  11.137
16965W        W88494  11.703   9.758  10.786
16966W        W88495  15.127  34.502   0.451
16967W        W88496  23.683  27.571   3.680
16968W        W88497  32.821  11.670   2.880
16969W        W88498   4.712  14.241  11.019
16970W        W88499  19.584  26.373  10.945
16971W        W88500   2.394   2.933   0.929
16972W        W88501   4.681  37.027   0.214
16973W        W88502  28.667  17.090  11.037
16974W        W88503   0.285  23.610  13.059
16975W        W88504  12.416  35.541   2.178
16976W        W88505  11.617  42.456  11.634
16977W        W88506  13.162  28.686  12.407
16978W        W88507   3.372  18.264  10.895
16979W        W88508   2.439   5.332   0.534
16980W        W88509  16.415   3.395   0.358
16981W        W88510   0.862   4.993   1.001
16982W        W88511  29.030  18.595   3.434
16983W        W88512  27.575  44.713  13.561
16984W        W88513  26.198   9.229  14.335
16985W        W88514  40.941  43.769   1.355
16986W        W88515  21.154  28.686  11.656
16987W        W88516  19.242  17.001   1.751
16988W        W88517  22.704  29.979  13.962
16989W        W88518  25.697   1.902  13.523
16990W        W88519  26.908  29.158  11.438
16991W        W88520  37.524  27.120  11.587
16992W        W88521   8.298  42.138  12.389
16993W        W88522  30.236  37.484   2.279
16994W        W88523   0.831  40.565  14.929
16995W        W88524  41.855   2.508  10.756
16996W        W88525  18.460  14.237   3.283
16997W        W88526  29.124  39.468   1.888
16998W        W88527  17.938  15.610   0.154
16999W        W88528   6.257  17.810  12.476
17000W        W88529  38.281   1.987  13.376
17001W        W88530  25.046  34.383  11.679
17002W        W88531  32.071   1.001   3.352
17003W        W88532   2.543  24.580  13.340
17004W        W88533  25.369  38.990  11.066
17005W        W88534  41.210  21.148  14.431
17006W        W88535  39.581  24.595  13.446
17007W        W88536  41.013  30.624  11.796
17008W        W88537  13.392  14.688  12.481
17009W        W88538   9.333  36.017   2.242
17010W        W88539  17.740  40.973  12.306
17011W        W88540  20.172  43.879  14.077
17012W        W88541  13.296  35.592   0.515
17013W        W88542   1.863  28.299   0.097
17014W        W88543  20.171  21.622   4.478
17015W        W88544   3.445   9.651  14.581
17016W        W88545  38.846   7.625   4.378
17017W        W88546  34.399  44.930  10.655
17018W        W88547  14.682  20.263   1.270
17019W        W88548   3.444  39.487  10.694
17020W        W88549   3.088   5.471  10.458
17021W        W88550  32.591  30.054   0.505
17022W        W88551  39.010  19.135   0.325
17023W        W88552  10.207  36.912  13.009
17024W        W88553  13.213  19.104  11.755
17025W        W88554   4.263  24.270  12.575
17026W        W88555  31.641  33.385   4.578
17027W        W88556  31.426  44.470  11.128
17028W        W88557   7.957  38.004   1.588
17029W        W88558  35.315  33.945  10.709
17030W        W88559  28.950  31.822   4.872
17031W        W88560  14.799  15.553   3.252
17032W        W88561   7.143  16.190   2.672
17033W        W88562  33.254  39.039  11.064
17034W        W88563  20.863   1.495   4.242
17035W        W88564  33.117  28.251   3.841
17036W        W88565  35.721  42.892  12.450
17037W        W88566  36.930   9.392   4.130
17038W        W88567  28.947  42.428   0.393
17039W        W88568  37.000  21.588   0.679
17040W        W88569  12.029  34.486  11.049
17041W        W88570   0.916  19.530   1.556
17042W        W88571  10.171  28.670   2.761
17043W        W88572  16.107  20.892   3.588
17044W        W88573  26.688  33.428   3.331
17045W        W88574  37.347  18.986   1.655
17046W        W88575  40.599   7.268  12.890
17047W        W88576  15.081  22.715  14.389
17048W        W88577  36.971  28.195  13.377
17049W        W88578   7.236  27.237   2.280
17050W        W88579   5.493   0.213  12.793
17051W        W88580  28.149   9.407   1.915
17052W        W88581  37.896  26.343  13.783
17053W        W88582  38.369  36.462   1.657
17054W        W88583  11.756  43.241  10.721
17055W        W88584  39.580  18.727  12.076
17056W        W88585  36.952  35.924  12.920
17057W        W88586  11.750   3.154   3.078
17058W        W88587  41.757  20.711  14.005
17059W        W88588  33.820   0.423   2.603
17060W        W88589   4.712  18.835   3.743
17061W        W88590  12.098  33.842   2.747
17062W        W88591  17.202   8.889  12.318
17063W        W88592  43.535   5.731  12.103
17064W        W88593  25.828  19.821  12.534
17065W        W88594  33.382  28.870  11.290
17066W        W88595  38.544  38.003   3.780
17067W        W88596  42.085  29.161   3.712
17068W        W88597  41.962   7.826  11.552
17069W        W88598  21.233  22.146   3.584
17070W        W88599  26.875   2.931   1.787
17071W        W88600  27.430  43.833  10.643
17072W        W88601  35.249  37.051  14.232
17073W        W88602  40.868  38.296   1.796
17074W        W88603  12.576  22.766  14.779
17075W        W88604  39.921  11.422   4.521
17076W        W88605  37.967  43.433   3.570
17077W        W88606   4.515  43.201  10.573
17078W        W88607  18.024   9.809  13.109
17079W        W88608   2.736   3.668  11.171
17080W        W88609  32.389  34.161   1.790
17081W        W88610   0.414  29.313  10.637
17082W        W88611  38.271  29.567   3.731
17083W        W88612   1.461  27.474  12.196
17084W        W88613  44.423  42.471   5.075
17085W        W88614  18.725  39.700  12.892
17086W        W88615  35.135  38.332  13.373
17087W        W88616   2.100  19.275   2.370
17088W        W88617  44.132  36.171   5.067
17089W        W88618   9.800   3.748  11.930
17090W        W88619   7.825   1.071  14.098
17091W        W88620  22.661  21.417  12.971
17092W        W88621  19.950  23.420   0.310
17093W        W88622  39.458  19.424  12.524
17094W        W88623  34.404  21.480  10.652
17095W        W88624  24.437  23.148  11.090
17096W        W88625  41.421  41.463  11.066
17097W        W88626  21.615  37.376  11.138
17098W        W88627   7.418  14.096  13.428
17099W        W88628  39.249   5.616  13.096
17100W        W88629  16.580   7.707   3.264
17101W        W88630  23.080  44.829   2.356
17102W        W88631   1.562  10.219   4.047
17103W        W88632  35.857  16.240   4.468
17104W        W88633   1.228  21.236   0.802
17105W        W88634  38.938  39.406   1.472
17106W        W88635  13.784  21.134  11.424
17107W        W88636  31.455   5.351   1.771
17108W        W88637  21.589  40.883   0.687
17109W        W88638  34.240  29.030   3.115
17110W        W88639   7.975  22.668  14.767
17111W        W88640  11.158  18.246  11.719
17112W        W88641  12.870  31.794  10.307
17113W        W88642   8.338  29.611  14.454
17114W        W88643  42.050  30.377  10.784
17115W        W88644  32.632  41.675  12.141
17116W        W88645  20.213  10.819  13.818
17117W        W88646  33.691  25.001  11.508
17118W        W88647   7.755  12.436   3.162
17119W        W88648  44.409  35.782   4.151
17120W        W88649  26.203  32.650  13.487
17121W        W88650  10.631  24.108   1.412
17122W        W88651  23.152  16.049   2.150
17123W        W88652  29.538  26.873  14.807
17124W        W88653   1.854  30.221   2.126
17125W        W88654  40.527  38.046   4.372
17126W        W88655  32.278  40.261   4.510
17127W        W88656  32.116  39.933  14.190
17128W        W88657  28.150  42.980   0.843
17129W        W88658   7.002  30.884  13.839
17130W        W88659  34.608  10.265   0.303
17131W        W88660   8.736   1.561   0.377
17132W        W88661   7.596  20.184   3.185
17133W        W88662  42.004  41.135   0.529
17134W        W88663  42.674   5.996  13.728
17135W        W88664  28.606  32.130   0.847
17136W        W88665  26.017  22.008  12.634
17137W        W88666  23.029  20.604  12.743
17138W        W88667  41.950  42.547   0.676
17139W        W88668  43.567   6.173   2.232
17140W        W88669  39.772  17.307   1.771
17141W        W88670  31.894  38.632   1.827
17142W        W88671  41.662  12.383  13.764
17143W        W88672  18.432  43.851  12.842
17144W        W88673   9.760  27.170  12.642
17145W        W88674  24.531  21.852  12.833
17146W        W88675  24.992  44.031  11.997
17147W        W88676  38.249   8.927   0.178
17148W        W88677   6.821  43.370  11.568
17149W        W88678   7.475  34.491  14.793
17150W        W88679  10.195  10.318   1.366
17151W        W88680  26.450  29.948   0.013
17152W        W88681  44.517  13.301   3.604
17153W        W88682   0.914  16.361   4.637
17154W        W88683   8.168  16.428   0.241
17155W        W88684  42.108  39.581  12.924
17156W        W88685  36.826  34.306   2.057
17157W        W88686  16.242  40.715  12.858
17158W        W88687   7.349  21.084  13.504
17159W        W88688  41.588  11.887   0.044
17160W        W88689  29.552  15.368  11.965
17161W        W88690  11.449  35.992   4.890
17162W        W88691  40.641  25.985  14.913
17163W        W88692  25.746  15.611  11.358
17164W        W88693  36.520  43.850   4.444
17165W        W88694  26.904  14.202   2.795
17166W        W88695  19.727   8.213   4.542
17167W        W88696   5.242  14.466   4.215
17168W        W88697  24.060  41.430   1.811
17169W        W88698  35.278  11.525  14.254
17170W        W88699  19.537   7.323   2.231
17171W        W88700  13.857  28.027   4.662
17172W        W88701   8.319  40.891  14.779
17173W        W88702  41.203  12.499   4.204
17174W        W88703  36.294   8.003   0.233
17175W        W88704  30.648  16.542   3.233
17176W        W88705   8.909   7.465  14.559
17177W        W88706  10.584  27.224   3.181
17178W        W88707  33.772  10.610   0.201
17179W        W88708   4.377  33.437  13.438
17180W        W88709  34.504  17.614   4.224
17181W        W88710  39.324   3.939   2.949
17182W        W88711   3.703  28.838  12.980
17183W        W88712  29.901  37.971   0.754
17184W        W88713  25.630   8.815   3.830
17185W        W88714  15.112  29.403  14.907
17186W        W88715   2.370  36.787  10.004
17187W        W88716  26.173   0.522  10.674
17188W        W88717  30.833  36.545   0.077
17189W        W88718  10.841  14.723  13.151
17190W        W88719  36.388  22.478   3.860
17191W        W88720  40.552   4.673  14.825
17192W        W88721  42.985  30.209   3.610
17193W        W88722  39.212  30.329  13.973
17194W        W88723  23.336   6.551  14.880
17195W        W88724   2.319  29.864  10.652
17196W        W88725  12.421   6.352   3.572
17197W        W88726  32.589  30.211  10.728
17198W        W88727   5.392   8.536  11.072
17199W        W88728  37.000  20.883   3.127
17200W        W88729  37.997  41.369  12.173
17201W        W88730  13.119  16.204  11.507
17202W        W88731  21.476  33.856   3.107
17203W        W88732  35.522  10.931  14.846
17204W        W88733  34.295  34.784  13.786
17205W        W88734   9.828  39.574   0.390
17206W        W88735  11.535   6.399   0.021
17207W        W88736  33.714   9.985   4.246
17208W        W88737   7.281  23.809   1.284
17209W        W88738  29.978  17.102  11.883
17210W        W88739  26.197  29.015  13.579
17211W        W88740  30.856  40.397   2.239
17212W        W88741  23.068  38.244  14.754
17213W        W88742  44.549  24.541   4.131
17214W        W88743  43.450  25.685   2.396
17215W        W88744  26.518  43.440  12.204
17216W        W88745  12.092  29.812  11.601
17217W        W88746  36.864   0.862  11.670
17218W        W88747  34.959  11.401   3.135
17219W        W88748  19.608   3.638  11.644
17220W        W88749  38.929  17.290   3.329
17221W        W88750  24.927  21.143   1.473
17222W        W88751  12.783  13.777  13.375
17223W        W88752  11.237   9.348   3.190
17224W        W88753  34.045   9.790  12.027
17225W        W88754  19.091   5.299  13.348
17226W        W88755  23.059  18.786  14.869
17227W        W88756  28.166  43.079   1.346
17228W        W88757  17.996  10.874   3.616
17229W        W88758  19.141  38.979  13.054
17230W        W88759  14.015  43.325   2.109
17231W        W88760  38.868  39.743  11.923
17232W        W88761  29.200   9.432  13.976
17233W        W88762  26.280  21.554  11.580
17234W        W88763  22.990  28.529   2.342
17235W        W88764  13.379   0.252  13.567
17236W        W88765  25.006  37.307   4.138
17237W        W88766  27.120  42.158  14.952
17238W        W88767  11.137   5.277   3.890
17239W        W88768  39.505  27.841   4.547
17240W        W88769  16.156  30.342  14.487
17241W        W88770  39.956  22.005   3.441
17242W        W88771   1.224  43.952  10.672
17243W        W88772   1.225  19.496  12.949
17244W        W88773  26.091  23.129  11.704
17245W        W88774   6.825   4.258   0.449
17246W        W88775  18.376  41.383  14.835
17247W        W88776  43.829  28.215   0.800
17248W        W88777  33.452  35.005   4.785
17249W        W88778  16.829  44.379  10.555
17250W        W88779  32.851  39.440  13.664
17251W        W88780  22.160   7.407   1.358
17252W        W88781  18.794   9.124   1.403
17253W        W88782  36.783  39.054  14.880
17254W        W88783  40.599  18.812   2.256
17255W        W88784   4.052  14.163   3.620
17256W        W88785  30.437  22.511  13.586
17257W        W88786  14.242  32.648  13.984
17258W        W88787  15.879   5.906   3.660
17259W        W88788  33.267  27.704  11.454
17260W        W88789  43.767  37.919   1.239
17261W        W88790  26.561  31.781  11.554
17262W        W88791  36.306  35.299   0.684
17263W        W88792   1.405  44.912   3.641
17264W        W88793  15.888  17.168  14.341
17265W        W88794  32.194  38.774   2.207
17266W        W88795  31.858  16.577  11.152
17267W        W88796  29.463   0.512   2.285
17268W        W88797  19.564   5.329  11.929
17269W        W88798  33.532  30.192  13.837
17270W        W88799  12.610  27.128   3.162
17271W        W88800  42.067   7.656   3.720
17272W        W88801  35.447  41.114  14.527
17273W        W88802   7.799   1.887  10.167
17274W        W88803   9.471  26.968  11.298
17275W        W88804  34.587  21.129   0.051
17276W        W88805  28.132  11.225  11.050
17277W        W88806  27.362  24.019  12.454
17278W        W88807  21.653  10.568   2.736
17279W        W88808  27.222  20.641   2.160
17280W        W88809  29.261   1.082   1.822
17281W        W88810  39.953  20.691   3.259
17282W        W88811   7.809  20.324   3.635
17283W        W88812  20.522  37.087   3.651
17284W        W88813  38.629  16.679  12.420
17285W        W88814  38.546  30.678  11.379
17286W        W88815  27.569  10.573  11.456
17287W        W88816  21.006   3.196  14.812
17288W        W88817  40.593   3.937  13.348
17289W        W88818   5.643  15.239  14.855
17290W        W88819  43.917  33.789  13.941
17291W        W88820  15.853  19.739   4.607
17292W        W88821  44.825  24.472   2.194
17293W        W88822  18.015   5.367   0.439
17294W        W88823  36.313  15.660  13.851
17295W        W88824  20.850  22.539   4.290
17296W        W88825   0.992  14.769   1.552
17297W        W88826  35.450  24.581   4.702
17298W        W88827   7.498  25.349   1.333
17299W        W88828  11.396  33.500  12.373
17300W        W88829  40.569  14.132  10.718
17301W        W88830  21.532  33.542  14.554
17302W        W88831  21.758   2.676   1.667
17303W        W88832  20.255  13.683  12.428
17304W        W88833   1.199  23.226  14.852
17305W        W88834  11.696   7.227  14.498
17306W        W88835   0.026  22.948   4.504
17307W        W88836  10.254  12.086  13.054
17308W        W88837  25.380  18.503   1.319
17309W        W88838  42.920  33.856  11.205
17310W        W88839  24.076  30.942  13.951
17311W        W88840   1.977   7.562  12.945
17312W        W88841  43.300  33.992  11.505
17313W        W88842  35.628  25.423  12.275
17314W        W88843   8.056  35.784  14.891
17315W        W88844  10.135  27.424  11.726
17316W        W88845  44.960  40.015   3.120
17317W        W88846  22.236   3.399   1.711
17318W        W88847  41.763  16.354  12.863
17319W        W88848   1.364   4.246  11.971
17320W        W88849  33.907  19.312   2.511
17321W        W88850   8.755  43.562   4.351
17322W        W88851  10.093   1.813   4.218
17323W        W88852   9.731  37.726  12.953
17324W        W88853  20.068   3.479   4.190
17325W        W88854  17.668  38.397   2.511
17326W        W88855   2.207   4.663  11.458
17327W        W88856   4.866   8.442  12.145
17328W        W88857  33.499  27.651   4.984
17329W        W88858   1.683  28.828  12.474
17330W        W88859  41.481  15.495  12.094
17331W        W88860   8.743   1.688  12.802
17332W        W88861  43.987   5.243   2.009
17333W        W88862  11.580  35.392  11.045
17334W        W88863   9.222  20.347  11.051
17335W        W88864   2.377  15.687   0.074
17336W        W88865   1.803   1.889   4.506
17337W        W88866  20.094  14.885   0.825
17338W        W88867  32.144  42.696   4.004
17339W        W88868  10.345  35.113  13.518
17340W        W88869  43.913   5.446  13.571
17341W        W88870  34.013  20.927  14.484
17342W        W88871  32.642  27.123   4.708
17343W        W88872  17.774  27.104  11.548
17344W        W88873  40.502   0.699  11.989
17345W        W88874  20.267  13.578   3.368
17346W        W88875  39.921  29.064  12.807
17347W        W88876  24.161  32.132  13.196
17348W        W88877  42.777   0.532  14.303
17349W        W88878  35.095   5.755   1.054
17350W        W88879  11.279   7.399  12.350
17351W        W88880  42.275   6.368   3.416
17352W        W88881  13.169   2.521  14.451
17353W        W88882  37.480  12.219   4.181
17354W        W88883  30.074  38.580   4.598
17355W        W88884  34.860  33.975   4.293
17356W        W88885  37.479  41.679  14.533
17357W        W88886   5.464  36.936   3.117
17358W        W88887  32.182   8.982   1.713
17359W        W88888  22.616  29.970  11.152
17360W        W88889  12.824  10.297  14.415
17361W        W88890  34.483  24.649  11.092
17362W        W88891  44.350  30.205   1.878
17363W        W88892  23.260  23.582   4.071
17364W        W88893   7.282  13.054   4.156
17365W        W88894   3.703   3.748  14.027
17366W        W88895   0.539  37.091  11.112
17367W        W88896   8.886  18.847  13.975
17368W        W88897  43.480  22.747   1.995
17369W        W88898  25.500  35.085  13.501
17370W        W88899  18.793  29.083   0.838
17371W        W88900  19.882  13.045  14.154
17372W        W88901  24.692  43.920  13.426
17373W        W88902  17.211   9.273  11.342
17374W        W88903  38.440   4.415  14.767
17375W        W88904  18.733  10.884  14.852
17376W        W88905   3.225  27.820  10.129
17377W        W88906   4.844  39.873   3.816
17378W        W88907  26.998  36.040   1.869
17379W        W88908   6.386  43.914  12.971
17380W        W88909  36.417  27.943  14.997
17381W        W88910  33.609  20.269  10.220
17382W        W88911  10.765  32.473   2.894
17383W        W88912  25.031   7.680   4.165
17384W        W88913  32.930  26.275   2.280
17385W        W88914  25.390   5.447  12.402
17386W        W88915  44.368  22.426  12.114
17387W        W88916  31.515  44.061   0.386
17388W        W88917  21.093  16.346   3.194
17389W        W88918  35.256  38.527  14.009
17390W        W88919  15.661  34.861  12.792
17391W        W88920  31.990  28.004  12.831
17392W        W88921  37.769  36.014  13.521
17393W        W88922  20.835  38.344   0.220
17394W        W88923  22.354  37.848   1.784
17395W        W88924  16.632   7.901  13.979
17396W        W88925  20.314  10.519  14.811
17397W        W88926  35.270  23.280  13.928
17398W        W88927  42.889  25.451  11.868
17399W        W88928  42.266   2.905  13.154
17400W        W88929  23.269  37.530   3.577
17401W        W88930   1.413  17.699  11.611
17402W        W88931  29.595  24.682  11.488
17403W        W88932  39.438  25.096  11.707
17404W        W88933   7.678   5.700  11.216
17405W        W88934  10.559  40.213  13.923
17406W        W88935  21.818   2.846  11.687
17407W        W88936  35.877  41.446   2.215
17408W        W88937  19.187  26.719  11.068
17409W        W88938  20.776  40.628   0.480
17410W        W88939  22.216  33.791  14.891
17411W        W88940   3.234  17.339   4.266
17412W        W88941  24.767  15.283   4.818
17413W        W88942   2.721  23.908   0.948
17414W        W88943  10.932  14.783  11.143
17415W        W88944   4.242   5.998  12.457
17416W        W88945  13.778  32.508  14.509
17417W        W88946  14.932   3.677  13.366
17418W        W88947  22.965  43.956  12.798
17419W        W88948  14.324  42.828   4.077
17420W        W88949  23.688   6.132   1.785
17421W        W88950  10.308  15.546  10.866
17422W        W88951   2.839   6.805  14.335
17423W        W88952  22.768  30.357   2.457
17424W        W88953  30.254  12.285   4.595
17425W        W88954   4.296   4.204  14.453
17426W        W88955  37.259   9.756   1.916
17427W        W88956   4.644  27.591   4.685
17428W        W88957  41.987  10.538  10.864
17429W        W88958  32.593  12.718  13.413
17430W        W88959  22.800   1.697  11.016
17431W        W88960  31.672  14.632   4.202
17432W        W88961  10.184  23.721  11.967
17433W        W88962  10.268  37.304   3.795
17434W        W88963   6.041   7.453   1.334
17435W        W88964  20.358   3.527   3.267
17436W        W88965  26.390  23.901  12.450
17437W        W88966  17.593   4.663   1.163
17438W        W88967  44.774  14.358   2.120
17439W        W88968  32.337   8.932  10.684
17440W        W88969  36.396  17.221   1.316
17441W        W88970   2.774  43.832  12.916
17442W        W88971  21.732  24.275  14.870
17443W        W88972  37.649  28.610  12.468
17444W        W88973  29.045   4.015  13.347
17445W        W88974   9.639   7.368  14.061
17446W        W88975  35.598  39.098   3.667
17447W        W88976  32.602  18.943   2.379
17448W        W88977  12.491  18.962   4.204
17449W        W88978  27.661  11.893   1.853
17450W        W88979  30.748   1.668  12.088
17451W        W88980  37.394   0.661  11.205
17452W        W88981   5.139  32.944  10.589
17453W        W88982  44.182   0.905   3.622
17454W        W88983  38.638  35.028   1.181
17455W        W88984  44.874  36.308  11.162
17456W        W88985  31.694  29.918  10.663
17457W        W88986   6.286   5.845   0.009
17458W        W88987  20.114  29.696   0.189
17459W        W88988  34.856  28.840  13.780
17460W        W88989   0.691  18.845   0.873
17461W        W88990  24.723  11.356  10.902
17462W        W88991  10.179  33.844  10.235
17463W        W88992  22.724  27.853   4.629
17464W        W88993  24.417  10.325   2.884
17465W        W88994   4.735  16.885   0.444
17466W        W88995  18.524  39.426   0.844
17467W        W88996  32.116   8.821   3.729
17468W        W88997  42.283  29.905  14.483
17469W        W88998  31.311  42.856   1.330
17470W        W88999  18.179   3.420  11.580
17471W        W89000  38.395  20.302  10.362
17472W        W89001  36.986  40.954  11.951
17473W        W89002   5.293  33.708   2.018
17474W        W89003  16.851  39.403   3.078
17475W        W89004  22.001   7.312   3.635
17476W        W89005  16.155  22.899   5.074
17477W        W89006  39.018   3.413  11.332
17478W        W89007   4.809  18.090   0.917
17479W        W89008  39.397   7.693   2.330
17480W        W89009  17.295  42.501  12.433
17481W        W89010   6.380  13.813   2.343
17482W        W89011  15.534  11.136  12.061
17483W        W89012  14.180  26.124  11.415
17484W        W89013   6.808  21.126  10.126
17485W        W89014  13.259  43.741  13.858
17486W        W89015   4.879  23.944   4.156
17487W        W89016   7.204   0.545  14.770
17488W        W89017   2.189  43.226  12.492
17489W        W89018  12.658   9.426  14.936
17490W        W89019   8.931   9.389  14.454
17491W        W89020  33.258  43.316  14.520
17492W        W89021  38.040  12.343  14.446
17493W        W89022  23.342   8.857  14.259
17494W        W89023  14.707  18.279  11.659
17495W        W89024  42.202   2.467  13.473
17496W        W89025  15.068  37.941  14.334
17497W        W89026  37.302  21.653  10.483
17498W        W89027  26.210  13.139  10.711
17499W        W89028  25.512  35.455   4.042
17500W        W89029   9.795  39.224  12.534
17501W        W89030   2.723  37.360   3.182
17502W        W89031  27.952  27.689  13.571
17503W        W89032   3.727   9.177  12.819
17504W        W89033  22.969  40.555   0.820
17505W        W89034  10.969  10.441  12.455
17506W        W89035  18.766   5.944  13.086
17507W        W89036  18.600  30.677   2.204
17508W        W89037  17.623  16.596   1.854
17509W        W89038   3.355  37.734  12.038
17510W        W89039  24.689  40.699  11.551
17511W        W89040  27.525  11.819  11.163
17512W        W89041  33.538   2.829   2.769
17513W        W89042  10.728  14.732  10.667
17514W        W89043  24.423  24.510   2.241
17515W        W89044  32.204  27.999   4.804
17516W        W89045  15.788  22.760  13.025
17517W        W89046  20.555  35.150   0.338
17518W        W89047  27.149  35.089  10.743
17519W        W89048  26.535  19.084   4.358
17520W        W89049  10.395  35.677   0.201
17521W        W89050   7.652  15.732   0.975
17522W        W89051  37.826  17.311  11.508
17523W        W89052   7.710   3.189  13.907
17524W        W89053  34.639  26.149  13.540
17525W        W89054  43.467  24.027   1.774
17526W        W89055  35.900   0.368  14.826
17527W        W89056  16.558  27.452   3.557
17528W        W89057   7.548   1.508  11.623
17529W        W89058  17.160   6.076  10.395
17530W        W89059  26.704   7.637   4.124
17531W        W89060   0.872  24.067   0.463
17532W        W89061  29.145  13.103   0.692
17533W        W89062  12.805  12.847   0.693
17534W        W89063  14.469  43.282   0.873
17535W        W89064  10.619   6.765   1.751
17536W        W89065  15.286  25.124  10.625
17537W        W89066  33.049  30.946   1.260
17538W        W89067  44.035  44.874   0.230
17539W        W89068  18.168  40.418   3.721
17540W        W89069  35.093  33.069   0.946
17541W        W89070  32.846  35.584  13.504
17542W        W89071  34.926  24.753   2.730
17543W        W89072  27.836   1.453   0.266
17544W        W89073  11.640  41.576   2.721
17545W        W89074  19.601  10.392   4.173
17546W        W89075  16.087  10.820   0.394
17547W        W89076  25.742  26.072   1.214
17548W        W89077  28.010  17.755   0.319
17549W        W89078  31.905  23.754  10.588
17550W        W89079  41.493  32.924  14.002
17551W        W89080  14.757  11.936  12.083
17552W        W89081  23.279   0.350   1.379
17553W        W89082  40.244  14.636   4.386
17554W        W89083  27.061   3.598  14.190
17555W        W89084  11.907  31.730  11.004
17556W        W89085  32.680  37.991  13.866
17557W        W89086   7.174   7.507  11.238
17558W        W89087  43.249  14.831  11.540
17559W        W89088   6.693  20.244   4.909
17560W        W89089  10.572  18.194   0.261
17561W        W89090  21.629  23.981  10.257
17562W        W89091  32.957  25.945  14.209
17563W        W89092   6.193  26.264  11.095
17564W        W89093  18.480  37.585   1.077
17565W        W89094   8.370  20.811  14.850
17566W        W89095  44.048  22.936   3.672
17567W        W89096  30.498  15.509   0.906
17568W        W89097  19.046  10.720  14.481
17569W        W89098  33.594  26.908  11.521
17570W        W89099   5.223  28.145   1.796
17571W        W89100  34.921  11.075  14.985
17572W        W89101   1.328  18.976  11.285
17573W        W89102   7.666  37.401   3.377
17574W        W89103  12.771  30.727  14.097
17575W        W89104  12.620  34.187  10.882
17576W        W89105  38.630  36.441  13.406
17577W        W89106  13.423   5.954  13.541
17578W        W89107  35.445  41.940   0.856
17579W        W89108  27.223  33.597   2.182
17580W        W89109  17.333  42.816   2.902
17581W        W89110  16.613  28.513  14.409
17582W        W89111  12.773  18.160  10.424
17583W        W89112   8.105  34.865   0.959
17584W        W89113   9.848  31.943   4.201
17585W        W89114  38.376  29.836   0.914
17586W        W89115  10.595  16.249   4.200
17587W        W89116  40.283  19.735  11.590
17588W        W89117  25.205  30.965   2.778
17589W        W89118  15.213  33.878  13.413
17590W        W89119  29.008  37.997  12.355
17591W        W89120  33.135   0.683  14.828
17592W        W89121  20.601   9.696  13.383
17593W        W89122  26.587  30.659  12.901
17594W        W89123  39.386   4.774  10.195
17595W        W89124   1.874  42.304   4.563
17596W        W89125  40.816  33.892   4.157
17597W        W89126  22.148  32.892  13.315
17598W        W89127  12.974  11.217   2.255
17599W        W89128  13.949  38.305   4.118
17600W        W89129  18.299   9.674   9.771
17601W        W89130  11.827  25.564   3.727
17602W        W89131  40.415  31.613   3.252
17603W        W89132  41.830  29.678  11.532
17604W        W89133  12.589  27.586  13.504
17605W        W89134   9.858  30.489  14.719
17606W        W89135  27.802  22.762   3.355
17607W        W89136  20.950  33.686  11.654
17608W        W89137   3.465  24.826  14.413
17609W        W89138  26.176  10.249   3.821
17610W        W89139  10.537  18.268  12.492
17611W        W89140   3.851  28.186  10.508
17612W        W89141  14.798  35.618  12.047
17613W        W89142   4.420  26.008   2.589
17614W        W89143  12.134   1.972   0.261
17615W        W89144  37.810  10.331  12.001
17616W        W89145   9.689   7.247   3.303
17617W        W89146  32.561   9.367   4.269
17618W        W89147  22.158  25.498   3.287
17619W        W89148  15.191  17.404   4.208
17620W        W89149  31.530  21.507  14.317
17621W        W89150   3.532  19.163  14.445
17622W        W89151  36.862   8.416  12.722
17623W        W89152  14.783  29.010  13.474
17624W        W89153   2.277  21.945   3.238
17625W        W89154   8.456  15.091  14.394
17626W        W89155  10.682  15.766  10.589
17627W        W89156   3.882   5.856   3.031
17628W        W89157  30.149  34.068   4.067
17629W        W89158  44.420  16.772  14.271
17630W        W89159  27.864  35.044   1.178
17631W        W89160   2.225   7.467   4.870
17632W        W89161  11.452   7.566  13.767
17633W        W89162  33.384   3.965  10.925
17634W        W89163  33.498  44.567   3.722
17635W        W89164  18.235  30.632   0.351
17636W        W89165  41.932  21.983   2.303
17637W        W89166   8.390  36.560   1.077
17638W        W89167  42.886  19.763   4.379
17639W        W89168  24.291  43.293   4.150
17640W        W89169  32.063  42.976   1.819
17641W        W89170  23.597  18.719  11.718
17642W        W89171   1.515  27.031  13.555
17643W        W89172  19.005   1.794  11.579
17644W        W89173   4.030   9.781   4.593
17645W        W89174  31.122  41.786   3.187
17646W        W89175  21.930  33.062   2.279
17647W        W89176  38.965  25.002   1.036
17648W        W89177   1.789  17.721  11.247
17649W        W89178   8.344  39.058   3.629
17650W        W89179  18.803  36.559   2.172
17651W        W89180  24.509  41.452   1.032
17652W        W89181  33.639  21.530  11.098
17653W        W89182  16.876  30.508   0.782
17654W        W89183  24.055  35.337   2.691
17655W        W89184  32.084  18.966  14.608
17656W        W89185  13.755  16.599   1.868
17657W        W89186  13.708  34.145   3.639
17658W        W89187  14.104   1.864   1.781
17659W        W89188  24.490  27.876   2.215
17660W        W89189  27.457  34.276  13.893
17661W        W89190   9.771  11.470  12.369
17662W        W89191   6.473  26.110  12.943
17663W        W89192   6.766  31.593  11.113
17664W        W89193  36.519  20.999  13.085
17665W        W89194  20.210   8.198   2.867
17666W        W89195  11.430  35.386  14.440
17667W        W89196  26.241  25.040   4.564
17668W        W89197  22.253  21.648  13.908
17669W        W89198  12.376  28.410   1.277
17670W        W89199  31.445  33.710  12.480
17671W        W89200  28.500  26.028  11.128
17672W        W89201  39.474  10.607   1.850
17673W        W89202  21.048  20.688   4.868
17674W        W89203  42.974  13.811   4.322
17675W        W89204  32.008  37.975  10.985
17676W        W89205  37.417  29.082   3.083
17677W        W89206  25.626  18.760   0.407
17678W        W89207  43.822  26.008   3.683
17679W        W89208  16.614   2.137   2.332
17680W        W89209  24.064  28.928  13.280
17681W        W89210  28.426  33.285  11.390
17682W        W89211   2.892  17.160   4.603
17683W        W89212   4.712  34.175  12.418
17684W        W89213  29.113  38.053  11.531
17685W        W89214   7.140  42.842  13.371
17686W        W89215   2.320  41.947  14.316
17687W        W89216  20.055  41.582   2.541
17688W        W89217  26.341  37.300   3.332
17689W        W89218  28.894  38.513   1.742
17690W        W89219   1.439  25.083  14.319
17691W        W89220  40.340  36.013  12.602
17692W        W89221  42.779  44.205   2.744
17693W        W89222  22.686  10.699   3.706
17694W        W89223   5.250  30.199  11.174
17695W        W89224   0.718   0.753   2.721
17696W        W89225  43.405   1.864  14.361
17697W        W89226   5.692  28.208   2.038
17698W        W89227   1.470  14.349   2.650
17699W        W89228  39.485  25.863  13.106
17700W        W89229  26.254  24.443  14.026
17701W        W89230  41.530  36.528   4.643
17702W        W89231  32.773  13.210  10.554
17703W        W89232  29.997  27.523   2.320
17704W        W89233  41.306  44.916   1.312
17705W        W89234   9.712   1.237   1.879
17706W        W89235  23.498  18.793  13.066
17707W        W89236  36.713   4.318  12.000
17708W        W89237  30.927  34.830   0.314
17709W        W89238  36.460   0.785  13.089
17710W        W89239   5.931  35.457   3.106
17711W        W89240  29.993  25.272   0.175
17712W        W89241  24.098   3.213   0.907
17713W        W89242  36.064  33.969   1.184
17714W        W89243  36.005  41.250   2.799
17715W        W89244  28.302  11.681  13.953
17716W        W89245  21.599  24.174  12.177
17717W        W89246   6.423   6.678   1.444
17718W        W89247  18.480   9.783   3.200
17719W        W89248  12.456  11.179   2.237
17720W        W89249  20.094   3.743   1.496
17721W        W89250  34.957  42.049   3.675
17722W        W89251  33.136  12.069  13.238
17723W        W89252   6.621  15.540  13.847
17724W        W89253   7.243  29.643  13.083
17725W        W89254  27.243  10.472  11.061
17726W        W89255  32.872   0.871  13.862
17727W        W89256  26.493   4.887   1.078
17728W        W89257  15.552   6.711  10.280
17729W        W89258  28.982  24.337  12.114
17730W        W89259  41.929  17.759   1.269
17731W        W89260  27.270   8.100  14.011
17732W        W89261   9.539  37.554  12.525
17733W        W89262  38.003  27.275  10.742
17734W        W89263  22.164  15.335  11.518
17735W        W89264  32.633  12.589   0.454
17736W        W89265  40.885  13.423   1.748
17737W        W89266  40.669  25.936   2.898
17738W        W89267   2.805   5.351  14.292
17739W        W89268  31.430  14.106  11.204
17740W        W89269  27.922  42.198   9.691
17741W        W89270  24.773  10.665   2.699
17742W        W89271  12.789  30.426   3.500
17743W        W89272  28.355   8.227   2.721
17744W        W89273  29.660  43.767   2.827
17745W        W89274  24.604  11.776   3.399
17746W        W89275  29.528  42.823  14.403
17747W        W89276  26.027  44.883   1.305
17748W        W89277   0.013   3.257  13.939
17749W        W89278   6.552  40.434  11.074
17750W        W89279   0.076  44.910   1.281
17751W        W89280  36.236  27.750  13.388
17752W        W89281  10.766  14.529   4.582
17753W        W89282  44.570  21.176   0.066
17754W        W89283  13.077   9.355   1.716
17755W        W89284   6.935  24.459  13.022
17756W        W89285  16.773  35.954  12.482
17757W        W89286  21.001   2.509  12.065
17758W        W89287  23.076   1.160   2.532
17759W        W89288  22.242  28.799  13.019
17760W        W89289   9.426  19.281  14.766
17761W        W89290  25.675   9.131  14.446
17762W        W89291  23.845  25.083  11.157
17763W        W89292   3.358  26.565  13.877
17764W        W89293   8.136  10.980   1.126
17765W        W89294  31.702   9.188   4.635
17766W        W89295   1.839  31.448   2.336
17767W        W89296  18.402   3.163   1.003
17768W        W89297   2.367  32.912  12.459
17769W        W89298  40.702  41.713  10.109
17770W        W89299  38.014  18.174  13.407
17771W        W89300  19.697  16.207   4.763
17772W        W89301   0.696  31.951  11.126
17773W        W89302  34.390  43.160   0.483
17774W        W89303  27.068   7.967   1.513
17775W        W89304   3.413  15.883  13.954
17776W        W89305  15.489  26.517   1.695
17777W        W89306  17.258  41.893  12.607
17778W        W89307   9.408  21.560   3.983
17779W        W89308   8.116  21.921  12.064
17780W        W89309  18.690  35.545   0.027
17781W        W89310   5.941  21.725  13.708
17782W        W89311   3.814  28.652  12.530
17783W        W89312  27.693  36.570  11.228
17784W        W89313  29.687   7.821   4.616
17785W        W89314  33.534  43.252   3.268
17786W        W89315  22.172  41.128  11.915
17787W        W89316   6.191  24.731   0.474
17788W        W89317  13.908  44.211  10.942
17789W        W89318  13.140  10.423   5.183
17790W        W89319  34.597  23.750  11.095
17791W        W89320  18.524  12.945  12.093
17792W        W89321  40.205   3.974  11.119
17793W        W89322   7.495  31.382   4.580
17794W        W89323  16.437  28.471   1.766
17795W        W89324  42.899  15.200   0.219
17796W        W89325  35.124   6.688  14.817
17797W        W89326  15.067  25.002  13.523
17798W        W89327  17.553  43.910   3.681
17799W        W89328  23.678  44.825  12.853
17800W        W89329  35.491  26.683   2.787
17801W        W89330  33.623   7.747  11.627
17802W        W89331   2.246  11.663   0.189
17803W        W89332  38.820  22.579  14.916
17804W        W89333  39.256  37.403  14.452
17805W        W89334   9.012   6.417   0.413
17806W        W89335  37.038  14.143   1.805
17807W        W89336  18.690  28.349  12.761
17808W        W89337  16.782  19.795  14.759
17809W        W89338  23.283  17.585  12.588
17810W        W89339  17.201  42.914   0.884
17811W        W89340  22.004  15.082   0.002
17812W        W89341  13.192  44.148   1.703
17813W        W89342  18.690  25.874  12.039
17814W        W89343  41.390   6.929   0.813
17815W        W89344  38.343  11.928   1.958
17816W        W89345  25.729  41.203   1.936
17817W        W89346  41.006   9.664  11.167
17818W        W89347  21.514  29.585  12.531
17819W        W89348  39.444  44.716  12.360
17820W        W89349  22.371  43.052  14.380
17821W        W89350  22.195  17.337  14.302
17822W        W89351  35.211  11.650   1.315
17823W        W89352   3.046  36.324   2.466
17824W        W89353  15.311  23.205   3.687
17825W        W89354  29.639  38.014  10.328
17826W        W89355  24.211  29.926   3.222
17827W        W89356  26.687  19.950   4.622
17828W        W89357  32.648   3.915   4.259
17829W        W89358  25.038  35.950  10.518
17830W        W89359  19.087  43.872   1.427
17831W        W89360  39.993  22.525   4.617
17832W        W89361  13.715   0.837  11.067
17833W        W89362  15.114  26.552   2.079
17834W        W89363  12.526  27.169  14.837
17835W        W89364   3.545  38.750  13.600
17836W        W89365   8.493  14.226  13.851
17837W        W89366  39.052   5.960   0.811
17838W        W89367  34.664  26.906   2.351
17839W        W89368  16.891  22.190   4.571
17840W        W89369  44.665  34.953   1.791
17841W        W89370  35.654  21.135   4.098
17842W        W89371  18.326  21.302   2.336
17843W        W89372   8.443  38.284   1.834
17844W        W89373  11.572  21.170   4.728
17845W        W89374  24.091  28.404  11.361
17846W        W89375  12.863  17.147   4.549
17847W        W89376  44.757  27.702  14.419
17848W        W89377   0.255  29.242  12.896
17849W        W89378  25.118  32.135   2.969
17850W        W89379  13.338   8.239  13.276
17851W        W89380  39.848  40.369  11.459
17852W        W89381  44.888  23.317  14.371
17853W        W89382   5.971  12.241  10.627
17854W        W89383  37.514  16.021   1.711
17855W        W89384   0.973  44.422   2.276
17856W        W89385  31.927  15.571   2.292
17857W        W89386  11.648  35.258   5.258
17858W        W89387  36.678  37.079   2.742
17859W        W89388  23.249  23.102  13.023
17860W        W89389  28.647   5.733  14.476
17861W        W89390  44.419  14.813   3.698
17862W        W89391  27.583  26.228  11.098
17863W        W89392  23.588  36.408  10.453
17864W        W89393  18.050  40.645   2.650
17865W        W89394  37.272  11.519  12.410
17866W        W89395  23.958  43.389  14.954
17867W        W89396  20.415  21.494  13.243
17868W        W89397  35.322  32.410   1.497
17869W        W89398  14.713   5.891  14.698
17870W        W89399  32.281  23.093  12.198
17871W        W89400  18.092  44.373  14.634
17872W        W89401  31.432   7.176   4.631
17873W        W89402   3.510  14.576   3.208
17874W        W89403  11.407  31.616  11.059
17875W        W89404  38.036  12.136  13.301
17876W        W89405  26.769  33.326   2.192
17877W        W89406  22.531  16.152  12.464
17878W        W89407  17.617  38.148  14.766
17879W        W89408  41.849  19.274  14.125
17880W        W89409  10.172  30.285  12.950
17881W        W89410   7.891   0.088  10.997
17882W        W89411  43.895  14.549  11.887
17883W        W89412  13.788  22.069  11.584
17884W        W89413   9.843  41.916   0.565
17885W        W89414  36.423   8.597  10.644
17886W        W89415   1.822  35.898   0.190
17887W        W89416  15.249  16.021   3.906
17888W        W89417  11.811  23.514   2.776
17889W        W89418   5.901  13.837   4.777
17890W        W89419  44.437  27.108   0.998
17891W        W89420   1.008   1.809   0.531
17892W        W89421  39.592   8.479  10.998
17893W        W89422  25.019  27.513  14.768
17894W        W89423  28.372  30.246   4.228
17895W        W89424  30.383  22.502   1.440
17896W        W89425   3.426  10.849   3.286
17897W        W89426  20.169  26.133  13.844
17898W        W89427  31.190  22.564   3.694
17899W        W89428  11.263   1.470   4.059
17900W        W89429   1.407  29.641  10.650
17901W        W89430  36.610  17.789   1.278
17902W        W89431  16.741   3.037   4.183
17903W        W89432   7.966  43.032   2.702
17904W        W89433  20.709  25.175   1.609
17905W        W89434  37.500  44.694   2.743
17906W        W89435   6.363   0.213  14.956
17907W        W89436  14.213  42.426  14.221
17908W        W89437   8.331   4.946   4.553
17909W        W89438  26.686  18.738  12.594
17910W        W89439  25.915  37.507   3.589
17911W        W89440   9.440  12.705   1.367
17912W        W89441  30.838  22.158  12.051
17913W        W89442  41.026  28.196   2.822
17914W        W89443   7.761  24.674  10.567
17915W        W89444  12.367   3.281  13.011
17916W        W89445  33.459  10.880  10.714
17917W        W89446   9.778   8.255  13.465
17918W        W89447  42.062   1.967  11.609
17919W        W89448  18.810  41.504   1.252
17920W        W89449  31.443  33.918  11.496
17921W        W89450  11.467  27.218  14.927
17922W        W89451  42.106  20.697  14.380
17923W        W89452  22.949  43.574  11.573
17924W        W89453  21.877  10.934   0.642
17925W        W89454   1.015  41.003   2.189
17926W        W89455  31.810   6.445  11.348
17927W        W89456  12.979   2.713   3.771
17928W        W89457   1.213  11.500   4.129
17929W        W89458  27.721   5.898   4.692
17930W        W89459   5.078   7.085   2.927
17931W        W89460  44.337   3.266  13.817
17932W        W89461  42.775  15.553  13.916
17933W        W89462  13.225   8.120   0.632
17934W        W89463  29.649  32.268   4.626
17935W        W89464  39.106  36.430  13.797
17936W        W89465  33.104  15.545   1.275
17937W        W89466  12.822  33.436  12.644
17938W        W89467  17.217   1.936   4.655
17939W        W89468   1.930  29.080   1.308
17940W        W89469  28.590   5.667   2.615
17941W        W89470  15.517  42.865  14.831
17942W        W89471   4.773   7.319  11.264
17943W        W89472  40.055   2.832   1.308
17944W        W89473  14.651  23.529   0.346
17945W        W89474  24.878  41.891  10.441
17946W        W89475  29.653  28.199   1.822
17947W        W89476  42.668  16.231   1.392
17948W        W89477  41.229   7.727   2.836
17949W        W89478   0.026  37.758   0.223
17950W        W89479  10.892   0.415  13.176
17951W        W89480  21.585  30.572  12.319
17952W        W89481   2.071   8.509   2.673
17953W        W89482  37.153  33.503   2.269
17954W        W89483   7.752  29.933   1.749
17955W        W89484  12.710  26.672  11.565
17956W        W89485  18.202  27.638   0.953
17957W        W89486  19.319  39.857  13.295
17958W        W89487  21.775   5.048  10.575
17959W        W89488  31.265  20.753  13.686
17960W        W89489   6.428   2.720  11.071
17961W        W89490  14.344  44.899   0.937
17962W        W89491   2.296  19.147   0.820
17963W        W89492  21.513  12.263   3.724
17964W        W89493  39.490   9.123   4.616
17965W        W89494   5.420  23.387   0.259
17966W        W89495  36.761  29.435  13.607
17967W        W89496  38.174   2.369   0.545
17968W        W89497   0.352  42.958  12.926
17969W        W89498   8.292  13.913   1.925
17970W        W89499  38.051   8.338  12.576
17971W        W89500  42.042  29.466  13.445
17972W        W89501  33.527  22.755   4.027
17973W        W89502   5.159  11.670  10.775
17974W        W89503  11.705  43.864   3.385
17975W        W89504  39.776  15.294  13.446
17976W        W89505  18.240  24.277  11.338
17977W        W89506  38.439  16.509   0.235
17978W        W89507  34.632  25.807  13.942
17979W        W89508   2.203  13.765  14.717
17980W        W89509   2.899  25.980  13.189
17981W        W89510  25.394  27.853   2.340
17982W        W89511  30.411  10.836  14.037
17983W        W89512  18.272  19.688   3.547
17984W        W89513   0.616  24.471   0.900
17985W        W89514   1.293  36.371   2.265
17986W        W89515   8.680  16.017   0.199
17987W        W89516  41.128  17.796   3.832
17988W        W89517  40.153  31.053  13.730
17989W        W89518  20.758  18.600  10.964
17990W        W89519  27.755  12.754   1.328
17991W        W89520  18.262  16.813  14.704
17992W        W89521  42.593   1.473   3.060
17993W        W89522  16.338  15.067  12.505
17994W        W89523  25.359  15.800  10.261
17995W        W89524   4.896  38.468   1.811
17996W        W89525  26.325  44.061  14.864
17997W        W89526  38.165  30.948  11.128
17998W        W89527   0.309  15.956  12.044
17999W        W89528  19.016   2.421  11.882
18000W        W89529  28.390  16.395  11.481
18001W        W89530   1.471  25.061  11.567
18002W        W89531  42.797  41.398   4.622
18003W        W89532  30.052  23.734  10.456
18004W        W89533  21.837  31.130  10.727
18005W        W89534  31.289  18.601   4.299
18006W        W89535  28.702  35.460  13.424
18007W        W89536  23.276  33.969  14.445
18008W        W89537  40.489   3.000   2.755
18009W        W89538   4.720  14.520  14.062
18010W        W89539  27.057  33.285   4.141
18011W        W89540  12.680  22.470  11.560
18012W        W89541  14.536  29.513  14.215
18013W        W89542  43.870  42.567   0.942
18014W        W89543  22.661  10.363   3.268
18015W        W89544  34.927   5.354   2.806
18016W        W89545   0.473  29.860   2.091
18017W        W89546  43.891   1.140   1.432
18018W        W89547   0.045   2.725  14.958
18019W        W89548  44.899  40.485   2.889
18020W        W89549  25.534  38.457  12.375
18021W        W89550   8.113   9.306  13.993
18022W        W89551  18.995  37.837   0.354
18023W        W89552  17.533  30.140  13.724
18024W        W89553  20.353  23.001  13.938
18025W        W89554  42.034  33.872  14.794
18026W        W89555  36.313  21.676  10.411
18027W        W89556   3.409  15.022  13.610
18028W        W89557   6.186  30.111  10.777
18029W        W89558  14.176  15.207   3.461
18030W        W89559  43.458  32.169  14.757
18031W        W89560   3.790  15.936  13.538
18032W        W89561  36.596  25.472   4.269
18033W        W89562  25.400  37.735  10.696
18034W        W89563  28.145   7.045   4.010
18035W        W89564  21.164  34.353   2.810
18036W        W89565  21.899  22.169   4.912
18037W        W89566  10.343   7.354   2.507
18038W        W89567  20.245  24.150  14.890
18039W        W89568  43.723  28.387  12.752
18040W        W89569   1.203  34.977  11.281
18041W        W89570  26.439  15.035   1.802
18042W        W89571  39.859  30.425  12.574
18043W        W89572  43.455   1.642  14.834
18044W        W89573   8.823  13.830  13.960
18045W        W89574  39.387  24.868  13.021
18046W        W89575  36.804  27.147  12.052
18047W        W89576  25.573  27.937   1.824
18048W        W89577   2.996  31.801  13.514
18049W        W89578  26.711  39.986  14.162
18050W        W89579  25.154   9.901   1.961
18051W        W89580   2.466  28.232  13.820
18052W        W89581   0.813  17.117  13.969
18053W        W89582  35.706  23.654  14.808
18054W        W89583   2.405   6.995   4.766
18055W        W89584   1.786   5.635   3.648
18056W        W89585  26.995  34.057  13.607
18057W        W89586  38.831  13.478  12.126
18058W        W89587  16.099  12.229  10.680
18059W        W89588  24.151  27.797  12.639
18060W        W89589   7.752   3.426   0.182
18061W        W89590  33.119  36.465  11.237
18062W        W89591  38.340  10.344  10.751
18063W        W89592  27.086  31.904  14.026
18064W        W89593  29.241  12.305   4.463
18065W        W89594   5.295   1.313   1.036
18066W        W89595   7.385  15.572  11.420
18067W        W89596   8.875  34.013  12.392
18068W        W89597  44.223   9.206  11.606
18069W        W89598  19.884  43.482   1.706
18070W        W89599  21.982  15.801  12.921
18071W        W89600  36.019  29.128   1.149
18072W        W89601  11.341  38.066   0.007
18073W        W89602  24.923  13.531   0.485
18074W        W89603   1.950  30.089   3.560
18075W        W89604   3.519  43.430  10.690
18076W        W89605  38.681   0.524   2.618
18077W        W89606  26.901  38.865  12.498
18078W        W89607  31.055  15.800   0.119
18079W        W89608  39.542  19.655  10.786
18080W        W89609   2.772  31.743   4.160
18081W        W89610  11.204  39.042   3.304
18082W        W89611  10.173  23.559   1.018
18083W        W89612  24.069  23.413   2.439
18084W        W89613  30.199  38.972   3.213
18085W        W89614  31.432  31.208  11.666
18086W        W89615   4.563  34.873   3.290
18087W        W89616  11.202  10.876   0.793
18088W        W89617  23.605  10.678  13.035
18089W        W89618  33.959  22.899  13.547
18090W        W89619  26.877  15.677   1.364
18091W        W89620  17.683   7.761   0.813
18092W        W89621  23.639  22.689   3.652
18093W        W89622   5.586  36.422  14.255
18094W        W89623   0.749  29.558  12.421
18095W        W89624  25.971   2.158   4.351
18096W        W89625  39.314  21.434   0.472
18097W        W89626  41.113   7.502  11.973
18098W        W89627  19.565  44.064  14.248
18099W        W89628   2.717  12.261   1.784
18100W        W89629  41.927  15.861  10.118
18101W        W89630  25.196   2.454   4.592
18102W        W89631  42.997   8.248  13.349
18103W        W89632  14.232   6.151  13.804
18104W        W89633  22.751  14.527  14.559
18105W        W89634   3.271  28.116   2.367
18106W        W89635  39.427   1.236   1.933
18107W        W89636  23.746  12.664   1.503
18108W        W89637   2.486  15.182   2.316
18109W        W89638  13.302  23.152  12.971
18110W        W89639  27.238  37.620   0.431
18111W        W89640  35.460  25.742  14.028
18112W        W89641  29.220   8.862   2.232
18113W        W89642  43.019  12.395   0.315
18114W        W89643  33.479   4.961   1.215
18115W        W89644  12.788   5.956   3.502
18116W        W89645  17.808  30.875   1.191
18117W        W89646  20.860  14.816   4.605
18118W        W89647   5.075  24.929   2.246
18119W        W89648  32.494   8.124  14.776
18120W        W89649  37.875   8.752  10.457
18121W        W89650  18.964  34.903  14.603
18122W        W89651   2.544  42.383   2.482
18123W        W89652  35.516  37.480  12.114
18124W        W89653   9.933  28.561  12.437
18125W        W89654  39.083   4.261  11.585
18126W        W89655   1.195  19.659  14.450
18127W        W89656   0.846   9.184  13.323
18128W        W89657  24.634  23.549   2.298
18129W        W89658  26.029   3.962  12.374
18130W        W89659  28.276  43.759   4.862
18131W        W89660  17.189   8.443  13.503
18132W        W89661  28.647  14.662   0.433
18133W        W89662  14.210  15.352   4.412
18134W        W89663  36.114  30.813  12.535
18135W        W89664  13.834  28.048   1.130
18136W        W89665   6.421  39.326  13.469
18137W        W89666  15.254   4.250   3.331
18138W        W89667  30.519   0.832  11.576
18139W        W89668  15.577   6.893  12.108
18140W        W89669   7.529  31.404   0.796
18141W        W89670  18.864  15.075   1.148
18142W        W89671   9.382  34.003   4.918
18143W        W89672  24.906  22.746  14.325
18144W        W89673  18.111   7.839  11.467
18145W        W89674  12.353  34.392  14.292
18146W        W89675   5.364   6.407  12.521
18147W        W89676  27.220  37.310  14.913
18148W        W89677  42.835  25.479   2.204
18149W        W89678  26.069  39.729  12.568
18150W        W89679  13.623  36.790   0.457
18151W        W89680  30.004   0.896   1.336
18152W        W89681  38.441  38.047   0.397
18153W        W89682  39.247  12.123   1.805
18154W        W89683  13.287  13.688   4.269
18155W        W89684   3.295  18.781   2.782
18156W        W89685  20.828  40.902  13.453
18157W        W89686  18.747  16.714   3.601
18158W        W89687   6.986   1.787   3.788
18159W        W89688  24.789  15.775   5.082
18160W        W89689  16.362  38.710   1.782
18161W        W89690  44.983  19.812   1.834
18162W        W89691  24.349   4.985  11.374
18163W        W89692  40.979  21.241   1.773
18164W        W89693   5.453  14.375  14.451
18165W        W89694  29.906  34.897   0.368
18166W        W89695  30.626  17.543   4.178
18167W        W89696  26.548  37.123  13.417
18168W        W89697  26.096  23.543   4.558
18169W        W89698  14.726  31.869  11.617
18170W        W89699  32.858  19.732  13.382
18171W        W89700  13.208  18.219   3.386
18172W        W89701  44.438  34.086  12.504
18173W        W89702  42.941  36.473   1.648
18174W        W89703   9.797  14.572   1.966
18175W        W89704  21.307  20.145  13.760
18176W        W89705   6.645  21.597   3.346
18177W        W89706  31.362  27.902  11.023
18178W        W89707  12.050  24.614   0.509
18179W        W89708  21.263   5.228  14.390
18180W        W89709  20.646  36.829  12.995
18181W        W89710  35.549   4.662  11.677
18182W        W89711  13.635  13.343   2.273
18183W        W89712  21.484  24.524   0.261
18184W        W89713  38.660   3.664   3.582
18185W        W89714  42.249  38.102   4.625
18186W        W89715  41.756  15.523   0.650
18187W        W89716  41.382  10.456   2.492
18188W        W89717   9.378  14.595   0.211
18189W        W89718  17.904   7.897  10.445
18190W        W89719  44.856  44.700   1.709
18191W        W89720  25.158  26.012  11.569
18192W        W89721  40.852  25.640  14.539
18193W        W89722  12.562  10.312   2.375
18194W        W89723   0.374  24.888   4.432
18195W        W89724  38.579  42.853  13.746
18196W        W89725  10.402   4.274  11.357
18197W        W89726  14.721  38.116  10.683
18198W        W89727  34.019   2.418  11.623
18199W        W89728  23.064  35.121   4.351
18200W        W89729  34.523   3.288  14.291
18201W        W89730  20.118  37.500  10.494
18202W        W89731  12.419  13.738  14.793
18203W        W89732  20.862  33.856  11.167
18204W        W89733  16.610  29.929   0.143
18205W        W89734  39.329   4.318   4.132
18206W        W89735  14.288  38.157   3.732
18207W        W89736  34.609  38.448   3.818
18208W        W89737  39.560   8.416  11.987
18209W        W89738  27.826  23.786  12.941
18210W        W89739  26.916   6.683   0.800
18211W        W89740  32.353   4.288  14.103
18212W        W89741  32.540  43.993   3.655
18213W        W89742   1.889  12.256   0.249
18214W        W89743  18.625  30.057  13.129
18215W        W89744   4.850   6.404   4.048
18216W        W89745  29.011   1.846   1.435
18217W        W89746  24.955  35.214  14.360
18218W        W89747  26.911  38.466  11.534
18219W        W89748  13.054  33.891   2.904
18220W        W89749   9.289  32.567  14.917
18221W        W89750  19.035  19.853  11.169
18222W        W89751   0.470  38.458   2.106
18223W        W89752  10.422  33.435   3.731
18224W        W89753  25.550   1.336  11.831
18225W        W89754  22.114  24.220  12.830
18226W        W89755  35.486  27.411   1.967
18227W        W89756  32.507  33.551  14.520
18228W        W89757  31.705  14.784  12.795
18229W        W89758   4.916  38.090   3.723
18230W        W89759  15.214  27.827  11.860
18231W        W89760  20.447  15.307  12.879
18232W        W89761  13.079   0.860  12.493
18233W        W89762  23.278  20.720   2.835
18234W        W89763  42.925  41.847   2.676
18235W        W89764  21.976  27.912  14.479
18236W        W89765  12.839   4.231   2.640
18237W        W89766  18.724   0.795  10.733
18238W        W89767  43.006  26.998   2.210
18239W        W89768   1.696   1.015   5.151
18240W        W89769  28.357  24.183   3.419
18241W        W89770  18.707  13.264   1.448
18242W        W89771  43.707  26.627  13.625
18243W        W89772  28.876  21.295   5.093
18244W        W89773  19.508  21.306   2.808
18245W        W89774   2.441  39.269  13.430
18246W        W89775   3.264  42.110  12.532
18247W        W89776  37.831  22.121  12.766
18248W        W89777   6.394  11.688   3.619
18249W        W89778  16.440  18.618  13.732
18250W        W89779  44.315   9.135   4.911
18251W        W89780   8.683   1.772   2.679
18252W        W89781   2.196  14.682   0.988
18253W        W89782  23.013  34.126   3.359
18254W        W89783  20.345  30.010   4.550
18255W        W89784  23.900  40.097   1.216
18256W        W89785   2.519  20.683  13.381
18257W        W89786   0.510  20.303  11.121
18258W        W89787  36.497  39.057  11.915
18259W        W89788  11.288   7.286  13.366
18260W        W89789  22.299  16.850   2.882
18261W        W89790  37.408  35.762  14.888
18262W        W89791  10.795  26.034  11.853
18263W        W89792  36.823  41.562   3.860
18264W        W89793  14.924   3.449  14.376
18265W        W89794  13.006  23.473   0.002
18266W        W89795   2.332  43.587  13.948
18267W        W89796  42.067  38.290   0.902
18268W        W89797   7.316  35.792   0.479
18269W        W89798   4.307  44.898  13.334
18270W        W89799  33.380  18.232   4.528
18271W        W89800   5.947   3.137   3.630
18272W        W89801  21.613  34.085   2.649
18273W        W89802   5.423   4.378   1.894
18274W        W89803  30.531   5.351   1.214
18275W        W89804  26.469  20.451  14.910
18276W        W89805  18.026  44.310   0.875
18277W        W89806  33.236   5.980  10.783
18278W        W89807  21.653  25.979  10.983
18279W        W89808  23.398  23.550  12.773
18280W        W89809  10.501  24.073   3.579
18281W        W89810  18.307  15.647  12.877
18282W        W89811  13.727   4.764  13.706
18283W        W89812  35.024  44.966   1.947
18284W        W89813  26.310   6.487   0.361
18285W        W89814  17.769   1.798   2.821
18286W        W89815  24.690  13.619  11.998
18287W        W89816   8.619  14.746  13.979
18288W        W89817  44.450  28.071   3.452
18289W        W89818  31.610  21.966  14.538
18290W        W89819  37.557  28.546  14.449
18291W        W89820  30.425  26.342  12.011
18292W        W89821  33.111   2.127  14.807
18293W        W89822  17.872  39.921   4.719
18294W        W89823  11.871  29.901  10.603
18295W        W89824  29.047  41.775   0.759
18296W        W89825  11.057  31.494   2.775
18297W        W89826  41.904   9.714   2.289
18298W        W89827  14.835   0.743   4.376
18299W        W89828   1.437  18.541   3.334
18300W        W89829  22.721   6.846   1.170
18301W        W89830  14.357  32.117  12.402
18302W        W89831  35.504  19.992  12.967
18303W        W89832  40.538   9.862   4.090
18304W        W89833  32.654  11.874   3.729
18305W        W89834  29.866  27.940  10.225
18306W        W89835  11.734  13.302  11.680
18307W        W89836  31.628  40.943   0.771
18308W        W89837  39.257  12.229   3.585
18309W        W89838  21.089  14.329  13.522
18310W        W89839  43.815  26.949   3.310
18311W        W89840  17.816  41.945   0.337
18312W        W89841  28.919   1.632  12.090
18313W        W89842  26.642  34.453   0.163
18314W        W89843   5.084  12.769  12.953
18315W        W89844  14.798  31.426  11.346
18316W        W89845  43.942  12.866  14.503
18317W        W89846  14.612  22.505  14.356
18318W        W89847   5.270  25.507   3.190
18319W        W89848  23.983  30.932   1.793
18320W        W89849  22.235   9.795   2.493
18321W        W89850   6.878  32.089  12.657
18322W        W89851  25.181  13.511  13.443
18323W        W89852  44.330  14.693  12.180
18324W        W89853   0.189  32.626   1.288
18325W        W89854  21.684  39.068   1.918
18326W        W89855  33.171   7.991  13.943
18327W        W89856  25.613  25.731   1.612
18328W        W89857   5.972   8.387   0.430
18329W        W89858  44.836  23.672  13.290
18330W        W89859  14.891   7.750   1.402
18331W        W89860  25.606  28.995  14.439
18332W        W89861  36.045  36.231  10.222
18333W        W89862  16.904  15.274  12.975
18334W        W89863  17.433   6.119  12.062
18335W        W89864  37.401  25.944   3.874
18336W        W89865  15.081  31.597  10.599
18337W        W89866  28.649   8.028  13.829
18338W        W89867  30.062   6.289   4.671
18339W        W89868  37.051   8.709   0.323
18340W        W89869  22.491  12.683   4.403
18341W        W89870  36.355  18.736  10.094
18342W        W89871  37.344  40.619  11.067
18343W        W89872   1.240  39.022  14.287
18344W        W89873  42.898  38.763  13.625
18345W        W89874  35.298  33.058   3.318
18346W        W89875  31.027  24.519   9.969
18347W        W89876  19.572  20.046  14.428
18348W        W89877  13.819   4.508  10.552
18349W        W89878   7.980  44.908   4.563
18350W        W89879  30.325  16.868   3.567
18351W        W89880  18.352   1.437   0.125
18352W        W89881  14.649  34.608  12.878
18353W        W89882  20.302  11.205  14.477
18354W        W89883  42.782  20.533  12.292
18355W        W89884  30.962  21.559   1.388
18356W        W89885  20.520  21.969  14.020
18357W        W89886  26.846  20.274  11.394
18358W        W89887  17.231  15.724   4.609
18359W        W89888  27.573  23.985  14.291
18360W        W89889  28.086   5.940  11.929
18361W        W89890  17.700  37.492   4.225
18362W        W89891  43.941  44.800  10.502
18363W        W89892  37.503  14.106  11.239
18364W        W89893  42.584  21.241   3.302
18365W        W89894  34.257   1.278   3.337
18366W        W89895  13.249   9.891  14.926
18367W        W89896  18.369  14.095  14.314
18368W        W89897  40.037  36.487  12.459
18369W        W89898   6.596  19.944   5.725
18370W        W89899  28.309  28.010   2.144
18371W        W89900  25.564  24.105   4.102
18372W        W89901  32.110  35.964  14.937
18373W        W89902   7.377  10.900  12.557
18374W        W89903  26.879  18.713   4.133
18375W        W89904  33.882  11.289   2.339
18376W        W89905  17.206  43.572  11.588
18377W        W89906  40.811  18.513  11.675
18378W        W89907  26.034  38.761   1.846
18379W        W89908   0.321  23.691   4.824
18380W        W89909  23.578   6.144   0.824
18381W        W89910  37.185   9.582   1.057
18382W        W89911  37.362  44.283   3.881
18383W        W89912  15.024   1.836  10.974
18384W        W89913  16.209   2.374  13.480
18385W        W89914   4.465  36.940  12.158
18386W        W89915  28.262   8.967  10.189
18387W        W89916  11.631  39.077   3.694
18388W        W89917  39.177  23.796   1.250
18389W        W89918   5.103   5.783   4.923
18390W        W89919  11.174  12.781  14.459
18391W        W89920  35.083  34.014  13.445
18392W        W89921  21.776   3.171   1.811
18393W        W89922  22.022  31.477  12.561
18394W        W89923  39.553  19.247   3.415
18395W        W89924   0.798  42.714   0.639
18396W        W89925  40.611  24.427  11.067
18397W        W89926  32.464  44.479   0.383
18398W        W89927  22.771  39.502  14.939
18399W        W89928  30.091  34.962  14.348
18400W        W89929   5.308  10.975  14.449
18401W        W89930   7.305  27.727  13.622
18402W        W89931  13.969  30.631   0.775
18403W        W89932  26.184  23.183  10.720
18404W        W89933  29.518  30.461  12.632
18405W        W89934  39.870  12.320   4.373
18406W        W89935  36.443  42.937  12.997
18407W        W89936  34.447  40.341  10.562
18408W        W89937  25.455  20.471  13.917
18409W        W89938  44.906  10.072   3.017
18410W        W89939  28.925  21.772   0.283
18411W        W89940   7.447  44.214  13.574
18412W        W89941  26.521  32.280  10.819
18413W        W89942  24.825  43.227   4.955
18414W        W89943   6.911  18.620   3.460
18415W        W89944   9.957  34.125  12.420
18416W        W89945  22.741  29.420   3.722
18417W        W89946  29.061  34.900  14.491
18418W        W89947   5.216   4.845  14.974
18419W        W89948  29.114   6.270   1.233
18420W        W89949  26.958   5.700   4.183
18421W        W89950   4.089  16.418   5.658
18422W        W89951  34.002   6.266  13.330
18423W        W89952  28.964  11.623  12.478
18424W        W89953   5.544   8.669   0.356
18425W        W89954  10.782  29.029   0.755
18426W        W89955  39.367  38.510  10.833
18427W        W89956  18.681  26.890   4.111
18428W        W89957  30.304  26.197   1.256
18429W        W89958  24.265  38.386   2.627
18430W        W89959  26.484  42.558   0.106
18431W        W89960  11.670  23.038   4.170
18432W        W89961   1.479  16.030  12.478
18433W        W89962  37.981  27.207  13.047
18434W        W89963  35.368  28.550   1.452
18435W        W89964  30.979  10.998   1.483
18436W        W89965  19.806  21.835   1.984
18437W        W89966  20.814   3.972  14.048
18438W        W89967  32.073  25.046   1.799
18439W        W89968  31.438  38.122   3.374
18440W        W89969  15.243   3.691   2.379
18441W        W89970  31.089   4.906  14.405
18442W        W89971  14.550  31.935   4.597
18443W        W89972   4.370   0.311  11.613
18444W        W89973  39.223  16.399   3.614
18445W        W89974   8.689  32.416   1.887
18446W        W89975  23.777  16.092  14.814
18447W        W89976  23.550   2.245   3.921
18448W        W89977  13.349  25.087  11.145
18449W        W89978  17.686  44.181   2.810
18450W        W89979  15.082  18.485   1.091
18451W        W89980   9.447  15.758  11.069
18452W        W89981   5.902  25.876  10.330
18453W        W89982   7.242  16.140   3.644
18454W        W89983  29.287  34.950   2.735
18455W        W89984  34.761  30.104   2.648
18456W        W89985  23.055  22.758  14.927
18457W        W89986  14.511   6.962  13.408
18458W        W89987  38.851  16.160   3.901
18459W        W89988  20.879  25.196   0.669
18460W        W89989  43.907   0.756   0.025
18461W        W89990  42.271  41.835  12.465
18462W        W89991   4.219  18.605   2.957
18463W        W89992   9.607  44.014  10.507
18464W        W89993   1.773  42.603   3.143
18465W        W89994  32.656  36.360   1.903
18466W        W89995  36.138   1.776   0.506
18467W        W89996  41.527  25.464  11.660
18468W        W89997  30.011   6.979   2.903
18469W        W89998  21.841  23.610   1.697
18470W        W89999  28.080  42.935   3.295
18471W        W90000   2.726  34.897  11.584
18472W        W90001  37.177  23.571   4.886
18473W        W90002  26.547  32.904  12.525
18474W        W90003  22.348  11.742   0.872
18475W        W90004  16.557   6.253  12.953
18476W        W90005  24.740  43.798  12.401
18477W        W90006   0.535  23.172   1.758
18478W        W90007  42.578  40.968   1.900
18479W        W90008  37.990  15.165  10.988
18480W        W90009  37.593  20.427   1.410
18481W        W90010  13.088   4.842   3.271
18482W        W90011  12.200  36.141   3.827
18483W        W90012  36.843  14.236  14.900
18484W        W90013  23.998  42.439   4.136
18485W        W90014  44.926  31.951   3.962
18486W        W90015   1.967   0.771  10.684
18487W        W90016  15.641  23.943  14.362
18488W        W90017  14.165  13.698   1.320
18489W        W90018  19.179  27.286  14.880
18490W        W90019  21.723   0.261  12.067
18491W        W90020  24.733  22.073  11.420
18492W        W90021  19.650   6.851  12.546
18493W        W90022  26.217  22.768   0.162
18494W        W90023   6.970  26.099  12.634
18495W        W90024  29.067   6.721  13.675
18496W        W90025  44.919  35.446   2.633
18497W        W90026   5.235  36.274   0.197
18498W        W90027  35.702  32.367   2.371
18499W        W90028  19.724  18.560  13.050
18500W        W90029  27.350  26.015  14.550
18501W        W90030  23.490  34.862  12.881
18502W        W90031   7.730  10.227  13.069
18503W        W90032  30.344   7.422   0.092
18504W        W90033  40.502  12.177  12.071
18505W        W90034  29.120  28.129   3.458
18506W        W90035   4.804  37.150  14.651
18507W        W90036   8.562  21.931  11.222
18508W        W90037   2.012  23.613  11.647
18509W        W90038  23.792  39.480   9.681
18510W        W90039  43.513  41.538  13.618
18511W        W90040  29.442  22.300   0.256
18512W        W90041  21.837  11.201  14.553
18513W        W90042  27.833  41.327  12.257
18514W        W90043  41.534   1.337   1.216
18515W        W90044  40.132  43.851   2.395
18516W        W90045  44.780  40.876  14.461
18517W        W90046   2.887  39.549   1.807
18518W        W90047  36.118  30.729   4.116
18519W        W90048  31.787  28.218   3.530
18520W        W90049  41.716  39.171  10.123
18521W        W90050  36.246  13.293   1.351
18522W        W90051  38.268  31.118   0.773
18523W        W90052  37.947  35.842  12.556
18524W        W90053  24.127  24.048  12.513
18525W        W90054   6.670   4.777  11.607
18526W        W90055  22.956   1.335   2.045
18527W        W90056  18.681  35.824   0.902
18528W        W90057   7.535  11.270  14.594
18529W        W90058  42.071  12.589   1.283
18530W        W90059   9.442   5.429  12.419
18531W        W90060   9.340  25.247  10.990
18532W        W90061  26.439  21.901   1.778
18533W        W90062  40.280   8.587   1.307
18534W        W90063  30.477   8.369   3.480
18535W        W90064   4.696   7.435   3.146
18536W        W90065  36.655  20.082   2.679
18537W        W90066  37.585  26.531  11.034
18538W        W90067  19.090   1.507  14.058
18539W        W90068   4.486  34.436  14.385
18540W        W90069  42.213  31.093  13.429
18541W        W90070  12.598  31.588  14.817
18542W        W90071  40.681   5.790  11.577
18543W        W90072  28.420   4.726  14.454
18544W        W90073  38.441  32.849   2.202
18545W        W90074  19.763  11.218   3.316
18546W        W90075  23.681  41.039   4.634
18547W        W90076  33.384  44.394  11.063
18548W        W90077  31.909  21.067   3.187
18549W        W90078  30.846  31.511  12.527
18550W        W90079   9.160   0.310   2.743
18551W        W90080  42.002  12.204   0.915
18552W        W90081  31.624  10.256  11.138
18553W        W90082  14.011  20.758  12.735
18554W        W90083  19.543  30.905   4.305
18555W        W90084  29.537  32.491   3.360
18556W        W90085  29.615  43.563  13.935
18557W        W90086  22.784  22.480  10.432
18558W        W90087   9.374  13.052   2.801
18559W        W90088  36.877  10.990   2.871
18560W        W90089   3.311  11.661   2.766
18561W        W90090  29.518  41.959   4.985
18562W        W90091   1.659  40.038  13.119
18563W        W90092  14.266  27.719  14.981
18564W        W90093  29.855  26.292   0.238
18565W        W90094  32.730   4.347  11.998
18566W        W90095  28.917  19.735   1.118
18567W        W90096  27.941  28.592   0.204
18568W        W90097   2.277   4.012   0.943
18569W        W90098  42.832  16.236   2.704
18570W        W90099  36.998  17.117  14.269
18571W        W90100  17.550  33.059   1.668
18572W        W90101  38.373  13.893   3.621
18573W        W90102  10.748  25.285  12.608
18574W        W90103  31.600  15.890   5.047
18575W        W90104  10.393  13.293   4.459
18576W        W90105  37.473  12.080  10.721
18577W        W90106   9.495   9.950  14.883
18578W        W90107  15.342  44.120  14.480
18579W        W90108   9.262  22.102   1.360
18580W        W90109  38.067   9.686  11.153
18581W        W90110   7.348  30.931  12.774
18582W        W90111  28.513  29.143   2.117
18583W        W90112   3.590  23.663  10.219
18584W        W90113   5.266  33.899  10.927
18585W        W90114  13.016  40.757  12.029
18586W        W90115   0.459  29.591   0.479
18587W        W90116  13.828  35.464  12.563
18588W        W90117  13.217  31.953  14.974
18589W        W90118  38.784  35.489  12.889
18590W        W90119  10.487  19.656   2.435
18591W        W90120  26.182  18.766   2.812
18592W        W90121  11.816   3.281  11.122
18593W        W90122  29.577  27.983   3.681
18594W        W90123   1.837  11.370   0.061
18595W        W90124  25.061  30.672   2.364
18596W        W90125   0.718  18.089   2.187
18597W        W90126  17.048  40.771  11.215
18598W        W90127  30.581  13.070   0.700
18599W        W90128  41.434  15.810  12.497
18600W        W90129  21.258  35.396   2.678
18601W        W90130  13.314  31.555   0.531
18602W        W90131   8.899  28.727   4.330
18603W        W90132  14.544   3.437   3.300
18604W        W90133  11.084   8.332  11.412
18605W        W90134  21.306  26.514  12.117
18606W        W90135   1.487   9.969   4.507
18607W        W90136  43.879  23.561  14.970
18608W        W90137   1.693  12.799   2.339
18609W        W90138  37.317  24.956  13.900
18610W        W90139  16.711  28.704   4.110
18611W        W90140   2.866   3.269   2.750
18612W        W90141  25.019  40.937   2.719
18613W        W90142  21.549   4.266   0.335
18614W        W90143  33.577   7.937  10.651
18615W        W90144  24.582  39.975   3.211
18616W        W90145  30.639  12.919  11.192
18617W        W90146  37.832  41.401   4.575
18618W        W90147   7.228  20.894   0.895
18619W        W90148  38.504  34.220  11.603
18620W        W90149  12.371   1.986   3.074
18621W        W90150   0.344   4.430  10.605
18622W        W90151  42.352   8.387   0.864
18623W        W90152   7.855  20.401  13.478
18624W        W90153  43.517   4.896   0.421
18625W        W90154  44.277  28.283   4.279
18626W        W90155  18.736  14.364  14.579
18627W        W90156   4.680  35.468   4.271
18628W        W90157  18.667  39.885  14.292
18629W        W90158  19.315  24.568  14.309
18630W        W90159  18.041  29.605   0.719
18631W        W90160  22.016  25.948  12.626
18632W        W90161  31.043  43.787   1.701
18633W        W90162  18.781  24.077  13.439
18634W        W90163   0.570  29.512   1.669
18635W        W90164  23.837   8.292  14.761
18636W        W90165   8.619   5.385  14.955
18637W        W90166  33.181  12.641   2.902
18638W        W90167  39.144  21.372  13.559
18639W        W90168  39.549  36.990  14.243
18640W        W90169  43.558  14.170  12.749
18641W        W90170   2.371  39.390   1.566
18642W        W90171  30.565  28.217   4.612
18643W        W90172   5.285  34.591   2.286
18644W        W90173  12.563  21.204   3.432
18645W        W90174  30.205  42.139  11.988
18646W        W90175  18.194  30.522  11.137
18647W        W90176  16.810  17.021  12.017
18648W        W90177  19.311  12.329   4.107
18649W        W90178  21.990   9.212   1.927
18650W        W90179  17.635  23.060   4.901
18651W        W90180   5.492  14.207  12.544
18652W        W90181  32.181   3.648   1.845
18653W        W90182  23.255  40.393  12.498
18654W        W90183  31.189   7.122   4.147
18655W        W90184  26.281  43.937   4.766
18656W        W90185  36.159   0.500   1.360
18657W        W90186  42.010  21.331   0.937
18658W        W90187  24.009  41.945  11.815
18659W        W90188  22.845  44.063  13.571
18660W        W90189   5.272   2.883   1.826
18661W        W90190   4.881  12.782  14.406
18662W        W90191  26.649   6.426   1.149
18663W        W90192  22.905  14.123   1.352
18664W        W90193  12.225  38.863  13.992
18665W        W90194  36.970  34.611   1.180
18666W        W90195  37.411  20.597  11.046
18667W        W90196  39.270  36.156  12.570
18668W        W90197  35.130  16.027  12.646
18669W        W90198  11.710  18.173  14.479
18670W        W90199  43.265   9.883   1.818
18671W        W90200  18.072   6.884  14.097
18672W        W90201  27.901  28.101  12.162
18673W        W90202   0.966  13.087  12.198
18674W        W90203  37.265   3.310  11.131
18675W        W90204  20.602  30.114  10.310
18676W        W90205  30.843  20.175  14.494
18677W        W90206  23.967  34.139  11.989
18678W        W90207  19.070  20.035   0.520
18679W        W90208  10.837   8.814   4.567
18680W        W90209  14.881  17.113  10.798
18681W        W90210  15.340   3.806   0.735
18682W        W90211  43.990  36.070   2.870
18683W        W90212   9.354  38.913   3.800
18684W        W90213  23.160  42.013   0.337
18685W        W90214  36.644  18.074   2.662
18686W        W90215   2.940  28.452   3.142
18687W        W90216  35.919  23.299  10.971
18688W        W90217  30.600  42.553   0.562
18689W        W90218  10.208  30.973   3.230
18690W        W90219  35.585  30.960   4.548
18691W        W90220  17.220  27.550  14.424
18692W        W90221   3.632  27.407   0.343
18693W        W90222  23.939  17.324   4.698
18694W        W90223  16.578  11.094  11.093
18695W        W90224  37.483  29.943  11.078
18696W        W90225  42.360  25.430   4.707
18697W        W90226  42.536  28.444   4.289
18698W        W90227  34.642   7.197   2.381
18699W        W90228  35.931  24.214   0.381
18700W        W90229   0.565  42.997  14.098
18701W        W90230  30.379  25.590   0.405
18702W        W90231  41.017  34.733  14.109
18703W        W90232  12.326   9.282   2.353
18704W        W90233  31.535   8.709   2.229
18705W        W90234  33.389  34.402   2.540
18706W        W90235  40.721   7.431   0.409
18707W        W90236  10.155  33.437   4.528
18708W        W90237   6.875  40.938  12.026
18709W        W90238  15.195  42.541  12.956
18710W        W90239   3.933  25.202   3.307
18711W        W90240  29.411  22.604   3.446
18712W        W90241   3.193  38.725  11.756
18713W        W90242  32.649  42.378  14.445
18714W        W90243  38.379  37.561   2.176
18715W        W90244  16.912  37.937   1.836
18716W        W90245  42.063  22.659  14.401
18717W        W90246   2.253   1.509  11.629
18718W        W90247  26.139  31.033  14.302
18719W        W90248  10.404  20.539  13.284
18720W        W90249   3.973  33.548  14.922
18721W        W90250  34.154  36.727   3.537
18722W        W90251  10.611  24.917   0.266
18723W        W90252  24.481  27.251  13.931
18724W        W90253   9.640  22.057   0.614
18725W        W90254  20.326  44.025   3.329
18726W        W90255  30.990  20.669   2.432
18727W        W90256  32.705   3.787  12.986
18728W        W90257  39.959  38.808   2.757
18729W        W90258  42.293   5.156  11.921
18730W        W90259  38.824  10.872   4.611
18731W        W90260  32.097  20.048   4.051
18732W        W90261  39.480  12.525  13.362
18733W        W90262  44.533  39.273   4.818
18734W        W90263  32.537  14.755  14.830
18735W        W90264  32.975   8.658   0.320
18736W        W90265  14.386  43.085  11.996
18737W        W90266  18.185   7.028  14.579
18738W        W90267  39.576  33.641   2.685
18739W        W90268   9.226   8.823   0.725
18740W        W90269  32.101  26.670  13.479
18741W        W90270  14.347  43.752   4.785
18742W        W90271  35.141  26.180   0.242
18743W        W90272  40.187  26.604  11.970
18744W        W90273  24.174  25.424  12.823
18745W        W90274  21.021  37.626   4.648
18746W        W90275   5.689  36.609   1.034
18747W        W90276  44.850  31.664  13.961
18748W        W90277  10.771  11.300   4.543
18749W        W90278   2.981  38.031  13.360
18750W        W90279  14.805  33.877  14.454
18751W        W90280  35.788   3.029   4.410
18752W        W90281  11.668  12.312  11.556
18753W        W90282  30.572  25.470  14.811
18754W        W90283  36.999  41.127  12.999
18755W        W90284  20.218  41.331   0.928
18756W        W90285  24.485  11.763  12.532
18757W        W90286  37.064  26.692   5.065
18758W        W90287   4.926  19.518   3.146
18759W        W90288  43.848  13.413  13.641
18760W        W90289  36.589  28.600  14.405
18761W        W90290   7.393  11.808   1.998
18762W        W90291  26.228  13.624   0.003
18763W        W90292   0.428  24.796  12.588
18764W        W90293  13.841  41.217  13.823
18765W        W90294  44.905  18.922   4.951
18766W        W90295   6.393  29.694   0.977
18767W        W90296  31.940  29.680  13.520
18768W        W90297   7.150  25.917  13.596
18769W        W90298  26.332   2.517   3.738
18770W        W90299  41.041   8.591   2.240
18771W        W90300  28.874  10.780  13.806
18772W        W90301  44.749  34.986  11.099
18773W        W90302  17.336  28.898  11.180
18774W        W90303  44.116  14.305  13.627
18775W        W90304  44.672  36.492  13.954
18776W        W90305  24.948  15.305  12.385
18777W        W90306  35.031  26.124  13.223
18778W        W90307  41.265  21.236   2.206
18779W        W90308   1.784  16.208   2.645
18780W        W90309   3.912   4.300  13.506
18781W        W90310   0.453  33.377   1.684
18782W        W90311  28.604  39.669  11.057
18783W        W90312  25.672   9.635   4.568
18784W        W90313  42.238  44.350   1.624
18785W        W90314  44.008   4.761  14.923
18786W        W90315  16.578  13.750  12.573
18787W        W90316   2.811  35.334   0.821
18788W        W90317  37.769  12.619   1.783
18789W        W90318  31.592  26.641   1.426
18790W        W90319  28.983  14.239   1.415
18791W        W90320  18.097  13.194   0.787
18792W        W90321  42.040  44.709  14.007
18793W        W90322  36.119   5.727   1.271
18794W        W90323  15.374  43.257   3.130
18795W        W90324  30.422  28.504   1.670
18796W        W90325   5.494  31.670   3.605
18797W        W90326   3.783  40.566  11.120
18798W        W90327  34.964  42.045  10.962
18799W        W90328  29.518  32.881  12.830
18800W        W90329  12.333  31.080   1.821
18801W        W90330  28.080   2.004   2.816
18802W        W90331  20.158  21.839   2.718
18803W        W90332  17.844  27.166  14.973
18804W        W90333  25.744  19.601   3.280
18805W        W90334  21.001  28.386   1.116
18806W        W90335   6.120  32.636   0.274
18807W        W90336   3.328   0.244  11.231
18808W        W90337  16.758  25.723   4.408
18809W        W90338  15.653  14.311  14.905
18810W        W90339   0.724  28.291  13.929
18811W        W90340   4.376  11.439  14.525
18812W        W90341  11.911   4.720  12.746
18813W        W90342  44.938   0.765  14.853
18814W        W90343   9.628  26.092   1.147
18815W        W90344  11.241  41.225   3.604
18816W        W90345   4.169   2.228  14.936
18817W        W90346  24.494  23.133   0.497
18818W        W90347  22.591  39.558  14.062
18819W        W90348  41.715  35.944   4.209
18820W        W90349   7.564  41.415   4.528
18821W        W90350  22.571  33.015  11.097
18822W        W90351   5.096  40.936  11.931
18823W        W90352  30.026  15.094  13.000
18824W        W90353   7.889   7.920   2.302
18825W        W90354  18.265   7.310  13.817
18826W        W90355   6.778  36.485   2.263
18827W        W90356   5.912  26.238   3.252
18828W        W90357  10.846  44.531  12.606
18829W        W90358  24.530  21.406   4.061
18830W        W90359   5.830   2.648  13.721
18831W        W90360  36.643   8.614  10.108
18832W        W90361  37.401  11.150   2.884
18833W        W90362  40.825  43.490   0.300
18834W        W90363  28.141  38.948   4.557
18835W        W90364  27.021  43.493  13.285
18836W        W90365  16.030  32.184  12.986
18837W        W90366  40.744  23.096   2.853
18838W        W90367  32.744  16.797  14.859
18839W        W90368  38.743   8.461  14.045
18840W        W90369  12.382  22.504   2.325
18841W        W90370  33.179  20.069  12.583
18842W        W90371  17.090  11.311  12.365
18843W        W90372  21.739  16.089  12.006
18844W        W90373  17.422   2.053   0.406
18845W        W90374  29.441   1.899  10.696
18846W        W90375  31.372  28.014   0.716
18847W        W90376  29.028  40.497   1.028
18848W        W90377  25.498  21.562   3.816
18849W        W90378  28.922  24.590  13.093
18850W        W90379  12.670  41.655  14.437
18851W        W90380  23.658   9.913   0.842
18852W        W90381  17.030   7.247  12.892
18853W        W90382   7.393  27.228  13.398
18854W        W90383  26.617  15.026  13.165
18855W        W90384   9.821   4.374  14.307
18856W        W90385  38.625  41.802  13.225
18857W        W90386  40.881  18.029  11.144
18858W        W90387  38.885  33.207  10.652
18859W        W90388  38.812  31.059  13.064
18860W        W90389  42.982   7.317   0.356
18861W        W90390   1.392  27.964   0.429
18862W        W90391  36.149  27.818  10.277
18863W        W90392  33.523  39.059   0.384
18864W        W90393   2.838   5.311  14.797
18865W        W90394   6.036  35.849  14.974
18866W        W90395  31.753  39.844  13.835
18867W        W90396  39.158  22.204  11.534
18868W        W90397  12.261   5.838   3.594
18869W        W90398  18.324  31.562   4.061
18870W        W90399  41.437   3.268   2.469
18871W        W90400  41.928  15.578   4.538
18872W        W90401  43.402  35.599  14.069
18873W        W90402  23.014  14.628  11.991
18874W        W90403  19.249  26.210   0.328
18875W        W90404  39.997  27.395   2.927
18876W        W90405   5.275  40.872   4.774
18877W        W90406  27.649  11.326   3.109
18878W        W90407   5.493  18.646  14.940
18879W        W90408  43.457  22.662  11.964
18880W        W90409  36.516  43.575  14.632
18881W        W90410  31.382  36.461   4.166
18882W        W90411  16.238  35.450  13.978
18883W        W90412  31.520  28.600   3.170
18884W        W90413   1.833   8.211   3.224
18885W        W90414  39.263  43.301   2.271
18886W        W90415  12.663  24.179  11.553
18887W        W90416  16.503  27.870   0.550
18888W        W90417   3.199   5.817  14.566
18889W        W90418   3.326  12.829  12.280
18890W        W90419  32.285   6.439   0.466
18891W        W90420  26.930   2.419  11.641
18892W        W90421  19.376  21.305  12.307
18893W        W90422   6.450  17.188   3.336
18894W        W90423  14.686   4.876   4.226
18895W        W90424  24.247  18.767   0.786
18896W        W90425  39.359  40.357  12.984
18897W        W90426  15.411  12.577  11.293
18898W        W90427  23.196  13.081  14.506
18899W        W90428   8.597  27.904  11.070
18900W        W90429  13.222  12.832   1.004
18901W        W90430  41.695  14.236  13.631
18902W        W90431   6.979  18.828  11.647
18903W        W90432  26.286   2.032   0.237
18904W        W90433  29.453  11.222   3.841
18905W        W90434  22.956  38.085  11.519
18906W        W90435  42.300  31.761   4.825
18907W        W90436  30.755  40.766  13.382
18908W        W90437  36.961   0.963  11.168
18909W        W90438  27.948  12.833   2.693
18910W        W90439  34.590  30.036   3.884
18911W        W90440   5.912   3.496   3.253
18912W        W90441   6.778  13.665   0.955
18913W        W90442  17.649   8.341  14.094
18914W        W90443  40.301  39.575  13.807
18915W        W90444  22.647  29.432   1.248
18916W        W90445  37.501   6.674  14.406
18917W        W90446  17.676  38.637   4.195
18918W        W90447  32.104  15.033  14.865
18919W        W90448   0.964  17.975  14.476
18920W        W90449   1.378  32.676   2.618
18921W        W90450   7.447  24.206   0.981
18922W        W90451  16.184  36.604  11.959
18923W        W90452  27.488  31.947  14.379
18924W        W90453  16.747   3.499   1.950
18925W        W90454  16.325  21.257  13.712
18926W        W90455  13.359   1.883   1.479
18927W        W90456  30.650  37.967   1.903
18928W        W90457  30.388  16.453  10.192
18929W        W90458  23.242  23.925   3.266
18930W        W90459  38.987  10.151  11.498
18931W        W90460  26.183   6.202   2.986
18932W        W90461  25.242  28.676   1.885
18933W        W90462  39.863  29.450   0.389
18934W        W90463  15.697  27.232   3.640
18935W        W90464   1.715  12.899   4.838
18936W        W90465   2.787   2.660   3.645
18937W        W90466  24.001   7.929   0.772
18938W        W90467  25.232  31.033  14.344
18939W        W90468  19.641   3.828  14.825
18940W        W90469  41.561  30.874   5.091
18941W        W90470  17.792  18.354   4.566
18942W        W90471   8.585  18.620  13.609
18943W        W90472  37.222  21.596   4.594
18944W        W90473  21.146  26.450   0.487
18945W        W90474  18.239   5.733  11.965
18946W        W90475  10.010  12.452   2.843
18947W        W90476  11.927  39.767   0.785
18948W        W90477   7.399  12.418  12.984
18949W        W90478  19.542  29.058  13.542
18950W        W90479  18.497  28.379  10.619
18951W        W90480  26.539  23.474  13.337
18952W        W90481  10.029  13.235   1.874
18953W        W90482  14.867  16.588   4.489
18954W        W90483   9.812  29.690  11.159
18955W        W90484  34.657  19.557  11.974
18956W        W90485  27.779  39.490   1.847
18957W        W90486  10.717  29.958  12.700
18958W        W90487  38.419  40.608  12.450
18959W        W90488   5.866  12.127  13.929
18960W        W90489   9.267  20.299   2.385
18961W        W90490  23.011  13.364  11.555
18962W        W90491   4.173   6.258   3.355
18963W        W90492  23.302  33.095   4.015
18964W        W90493   3.987  19.289   2.899
18965W        W90494   1.800  29.594  11.515
18966W        W90495  16.346  14.470   1.662
18967W        W90496  12.690  39.917   2.770
18968W        W90497  31.977  22.820   0.735
18969W        W90498  43.622  29.700   3.247
18970W        W90499  44.315  42.815  11.990
18971W        W90500  25.880  41.882  13.883
18972W        W90501  11.810   5.658  12.445
18973W        W90502  22.200  18.739   1.746
18974W        W90503   5.436  21.480   0.926
18975W        W90504  33.099  24.299   4.979
18976W        W90505  33.329  11.796  11.974
18977W        W90506   4.547   2.965  11.318
18978W        W90507  20.061   0.342   4.089
18979W        W90508  26.607  43.438   3.905
18980W        W90509   8.691  38.321  11.653
18981W        W90510  32.338   6.192  12.006
18982W        W90511  42.168  22.653  10.681
18983W        W90512  26.404   0.444   0.637
18984W        W90513  20.852   7.299  13.966
18985W        W90514  27.935   7.624  11.299
18986W        W90515  17.757  25.193   3.215
18987W        W90516  17.382  32.950  11.702
18988W        W90517  40.121  11.777  14.924
18989W        W90518  38.248  24.731  14.901
18990W        W90519  36.618  11.658  12.940
18991W        W90520  21.622  32.113  13.755
18992W        W90521  10.222  41.293  11.196
18993W        W90522  35.200   7.188  10.216
18994W        W90523  14.026  18.995   3.967
18995W        W90524  40.889  16.633   2.768
18996W        W90525  20.494  17.854   2.817
18997W        W90526   2.192  41.787   2.333
18998W        W90527  33.788  15.701   1.734
18999W        W90528  18.683  29.957   0.065
19000W        W90529  19.627  17.845  10.750
19001W        W90530  27.109  38.609  14.653
19002W        W90531   2.905  35.124  14.634
19003W        W90532  25.114   6.631  13.616
19004W        W90533   4.500   0.765  11.390
19005W        W90534  41.540  16.740   4.287
19006W        W90535  13.686  16.352  12.922
19007W        W90536   7.255  31.413  11.164
19008W        W90537   5.705  18.960  14.066
19009W        W90538  20.740  31.598  14.933
19010W        W90539  20.650  15.522   2.668
19011W        W90540   4.981  42.416  10.517
19012W        W90541  41.940  12.260   4.614
19013W        W90542  17.075   0.369  12.062
19014W        W90543   5.468  20.080  14.926
19015W        W90544  15.493  42.773  11.043
19016W        W90545  25.264   4.922  12.898
19017W        W90546   1.358  22.745  11.446
19018W        W90547  34.211  13.285  10.934
19019W        W90548  31.031  26.695   2.230
19020W        W90549  26.231  19.432   3.436
19021W        W90550  16.107  11.505  12.560
19022W        W90551  16.591  15.698  11.291
19023W        W90552  18.160  24.702  13.311
19024W        W90553  13.617  22.530   4.498
19025W        W90554  14.689   1.128  12.995
19026W        W90555   3.493  31.103   5.093
19027W        W90556   2.696  22.158   0.909
19028W        W90557  18.420  28.607   0.121
19029W        W90558  28.910  35.121   4.472
19030W        W90559  14.340   9.680   2.247
19031W        W90560  28.643  43.141  14.678
19032W        W90561  15.128  33.639   1.226
19033W        W90562  23.079  41.964  13.125
19034W        W90563  21.910  18.263  10.719
19035W        W90564  43.547  10.562  14.755
19036W        W90565   9.752  20.377  13.815
19037W        W90566  22.529  37.058   2.433
19038W        W90567  16.894  39.608  12.896
19039W        W90568  11.631  26.431  10.026
19040W        W90569   7.073  34.126  14.822
19041W        W90570  15.030   2.859   2.029
19042W        W90571   6.500  10.705  13.962
19043W        W90572  11.787  29.659   1.297
19044W        W90573  11.985   4.827   4.611
19045W        W90574   7.655  16.247   1.706
19046W        W90575  38.050  15.137   3.575
19047W        W90576  33.420  44.748   1.928
19048W        W90577   3.482  28.989  13.409
19049W        W90578   2.062  43.684   3.894
19050W        W90579  22.562   7.318   1.012
19051W        W90580   8.689  27.209  13.413
19052W        W90581   9.610  40.938   4.595
19053W        W90582  40.551  36.440  12.417
19054W        W90583  38.927  44.707  11.644
19055W        W90584  39.956  41.354  11.843
19056W        W90585  38.146  41.336   0.824
19057W        W90586  37.427  25.932  10.711
19058W        W90587   3.509  27.906  12.934
19059W        W90588  15.351  33.501   0.320
19060W        W90589  38.637  27.974  13.113
19061W        W90590  35.950  34.685  12.394
19062W        W90591   9.668  14.238  14.833
19063W        W90592  10.320  33.169   0.253
19064W        W90593  37.361  15.080   1.465
19065W        W90594   9.253  24.901   0.198
19066W        W90595  18.319   7.598   1.857
19067W        W90596  25.556   6.294   2.024
19068W        W90597  39.591  23.089   0.019
19069W        W90598  42.938  38.924  10.516
19070W        W90599  23.417  38.727   5.165
19071W        W90600  27.607  11.138  12.123
19072W        W90601  25.171  26.039   2.769
19073W        W90602  42.434  40.973   0.250
19074W        W90603  26.981  34.618   3.336
19075W        W90604   5.620  36.835   3.633
19076W        W90605  16.691  18.857  11.606
19077W        W90606  32.075  31.052  13.427
19078W        W90607  41.864  18.618   0.766
19079W        W90608  24.982  23.792   3.787
19080W        W90609  39.153  26.192  14.012
19081W        W90610  16.775   2.221   1.428
19082W        W90611  31.874  17.545   1.405
19083W        W90612  18.777   2.692  11.423
19084W        W90613  14.777  30.811  13.516
19085W        W90614  44.381  32.869   1.123
19086W        W90615   4.016  31.548  11.457
19087W        W90616  31.492  37.770   3.761
19088W        W90617  10.452  27.239   1.425
19089W        W90618  12.086  21.164   4.747
19090W        W90619  20.099  21.633  11.463
19091W        W90620  17.103  37.515  11.902
19092W        W90621   3.824   7.250   1.243
19093W        W90622  40.820  36.571  13.352
19094W        W90623  15.405   8.782  11.477
19095W        W90624  32.704  40.825   0.651
19096W        W90625  39.882  12.814  11.194
19097W        W90626  19.646  16.095  14.822
19098W        W90627  37.483  25.211  10.250
19099W        W90628  30.474  18.869   2.186
19100W        W90629  22.246  16.068  13.853
19101W        W90630  38.034  32.478  13.836
19102W        W90631  28.025  11.248   0.407
19103W        W90632  14.879   1.943   0.151
19104W        W90633  24.090   6.731  10.316
19105W        W90634  24.250  11.697  12.089
19106W        W90635   8.180  17.321   2.863
19107W        W90636  38.310  28.185   2.794
19108W        W90637  32.620  13.808  11.877
19109W        W90638   1.769  37.368  12.501
19110W        W90639  42.758  34.377   1.896
19111W        W90640  39.894  31.164   2.236
19112W        W90641  37.940  42.999   2.318
19113W        W90642  25.290  44.969  12.232
19114W        W90643  28.186  41.322  13.185
19115W        W90644  32.442   6.721  12.482
19116W        W90645  19.310  35.384  13.868
19117W        W90646  23.695   4.101   3.708
19118W        W90647  36.912  27.885   1.699
19119W        W90648   8.331   2.926   1.739
19120W        W90649  43.472  12.922   1.813
19121W        W90650  40.579  31.239   4.018
19122W        W90651  24.081  17.769   4.963
19123W        W90652   7.418  34.706   3.351
19124W        W90653  32.623  30.198  12.093
19125W        W90654  32.325  26.256   0.364
19126W        W90655  26.006  17.005   3.651
19127W        W90656   3.666   3.202   0.471
19128W        W90657  40.362   8.744  14.184
19129W        W90658  28.406   3.184   3.304
19130W        W90659  37.165  38.606  10.578
19131W        W90660  21.550  20.108   3.631
19132W        W90661  40.545  39.130   1.579
19133W        W90662  38.994   0.173   2.830
19134W        W90663  18.635   1.252   4.255
19135W        W90664  43.703  21.716   1.254
19136W        W90665  30.131  28.071   1.001
19137W        W90666  43.297  25.056   2.922
19138W        W90667  44.926  39.575   2.818
19139W        W90668  35.592  27.570  12.459
19140W        W90669  12.200   2.336   4.487
19141W        W90670  18.141  11.585   3.115
19142W        W90671  27.053  17.267  14.777
19143W        W90672  40.489  29.699   0.500
19144W        W90673   0.430   5.420   1.703
19145W        W90674  20.898  41.837  11.876
19146W        W90675  26.453  10.870   3.862
19147W        W90676  44.879   5.709   2.534
19148W        W90677  34.167  10.160   1.871
19149W        W90678  24.906  44.320   4.981
19150W        W90679  37.395  32.066   5.074
19151W        W90680  43.602  42.028   3.126
19152W        W90681  27.430   1.955  13.989
19153W        W90682  41.248  21.697   1.345
19154W        W90683  13.046  26.359   2.757
19155W        W90684   7.416   5.365  12.530
19156W        W90685  23.511  30.928   0.885
19157W        W90686  43.301  19.263  12.342
19158W        W90687  20.642   4.255   3.842
19159W        W90688   5.826  16.117   3.572
19160W        W90689  25.944  41.470   0.835
19161W        W90690   2.122  25.230  11.643
19162W        W90691  17.647  41.557   3.158
19163W        W90692   6.399  37.916   4.381
19164W        W90693  26.674  40.747   3.191
19165W        W90694  19.438  31.880  13.603
19166W        W90695  34.426  44.834   4.156
19167W        W90696  29.225   0.229  13.423
19168W        W90697  42.088  33.184   3.607
19169W        W90698  22.579   8.245  10.955
19170W        W90699  37.446  36.576   1.908
19171W        W90700  24.561  19.599  14.001
19172W        W90701  32.148  18.323  13.938
19173W        W90702  34.887  10.830   1.727
19174W        W90703  21.847   6.817   3.761
19175W        W90704   8.074  37.575  14.484
19176W        W90705  32.407  34.965   2.649
19177W        W90706  24.520  16.201  12.471
19178W        W90707  13.152   0.221  11.235
19179W        W90708  40.640  22.945  10.255
19180W        W90709   6.674  28.579   0.240
19181W        W90710   0.389   1.438   2.829
19182W        W90711   6.417  28.722   2.374
19183W        W90712  32.316  19.564   4.061
19184W        W90713  14.104  28.778  11.804
19185W        W90714  22.195   0.363  13.493
19186W        W90715  15.797  14.935   0.028
19187W        W90716  13.876  32.496  11.552
19188W        W90717   2.383  21.039  12.361
19189W        W90718  22.080  15.970   4.027
19190W        W90719  17.454  31.565   3.870
19191W        W90720  42.038  37.499   9.903
19192W        W90721  42.373  12.443  11.115
19193W        W90722  20.301  35.378   0.964
19194W        W90723  32.062   6.972   3.281
19195W        W90724  42.452  26.625  12.544
19196W        W90725  41.485  40.289   1.461
19197W        W90726  42.793   8.271   1.278
19198W        W90727  23.267   9.439  12.586
19199W        W90728  32.559  11.272  11.128
19200W        W90729  16.233  27.154  14.414
19201W        W90730  10.233  35.869  10.602
19202W        W90731  20.111  18.702  13.851
19203W        W90732  24.084  37.104  11.395
19204W        W90733  42.030  17.112   2.081
19205W        W90734  40.538  11.963   0.854
19206W        W90735   0.871  42.056   2.603
19207W        W90736  39.910  39.126   4.703
19208W        W90737  27.783  32.341  12.458
19209W        W90738  40.064  36.183   2.215
19210W        W90739  33.959  38.253   4.360
19211W        W90740  43.243  44.310  10.672
19212W        W90741  10.100  24.942   4.025
19213W        W90742  16.426  18.806  13.257
19214W        W90743  25.206   2.900  13.613
19215W        W90744  26.221  11.825   2.982
19216W        W90745  39.450  30.131  14.410
19217W        W90746  39.404  38.561  11.354
19218W        W90747   8.804  20.132   2.978
19219W        W90748  34.992  31.151  13.490
19220W        W90749  15.144  34.000   0.273
19221W        W90750  10.160   3.512  14.341
19222W        W90751  28.875  36.381   2.806
19223W        W90752  15.239  34.377  10.728
19224W        W90753   5.672  42.958   3.861
19225W        W90754  25.606   8.682   4.724
19226W        W90755   3.010   8.824  11.162
19227W        W90756  16.500  13.358   2.351
19228W        W90757  27.848  23.442   0.855
19229W        W90758  43.424  13.555   3.554
19230W        W90759   1.392  30.158  11.752
19231W        W90760  38.068  33.451  10.951
19232W        W90761  42.967   4.256  14.408
19233W        W90762  36.363  11.769  11.939
19234W        W90763  40.018  25.947  12.482
19235W        W90764  34.837  19.641   1.358
19236W        W90765  21.385  39.433   3.187
19237W        W90766  29.123  33.554  11.211
19238W        W90767  14.134  32.136  13.732
19239W        W90768  11.902  22.211  12.388
19240W        W90769  37.517  32.623  13.821
19241W        W90770   4.888  36.481  13.326
19242W        W90771   5.175  18.723  11.970
19243W        W90772  20.062  42.732   1.743
19244W        W90773  27.083  40.992   4.009
19245W        W90774  41.074  11.164  13.457
19246W        W90775  18.582  13.588  13.024
19247W        W90776  33.577  27.540  14.687
19248W        W90777  22.368  43.912   3.197
19249W        W90778   2.733  44.737   3.383
19250W        W90779  33.965  25.887   4.784
19251W        W90780  41.255   3.940   3.839
19252W        W90781  14.402  13.257   3.352
19253W        W90782  12.942  30.748   0.037
19254W        W90783  26.702  40.066   4.569
19255W        W90784  41.384  29.626   0.535
19256W        W90785  30.013  28.801  11.046
19257W        W90786  12.261  40.743  11.420
19258W        W90787   7.153  10.449  12.489
19259W        W90788   9.467  12.205   0.743
19260W        W90789  10.535   8.230   5.149
19261W        W90790  20.717  18.541  11.888
19262W        W90791  31.906   1.434  11.575
19263W        W90792  20.494  40.024  14.912
19264W        W90793  38.065  29.875   0.381
19265W        W90794  34.773  12.248  10.733
19266W        W90795   4.741  19.830   1.144
19267W        W90796  27.599  42.939  10.952
19268W        W90797  28.466   5.425  14.901
19269W        W90798  11.055  19.041   0.683
19270W        W90799  32.563  10.273  13.351
19271W        W90800   5.491   1.541  11.315
19272W        W90801   5.996  37.003  11.874
19273W        W90802  24.932  30.558  11.171
19274W        W90803  28.921  24.392   1.707
19275W        W90804  22.595  30.942   4.606
19276W        W90805  12.091  26.697  14.224
19277W        W90806  22.027  13.956  13.382
19278W        W90807   2.687  26.939  11.546
19279W        W90808   2.420  23.888   4.053
19280W        W90809  34.986   7.199   1.193
19281W        W90810  43.768  27.922  12.539
19282W        W90811  34.674  27.655  10.757
19283W        W90812   2.722   7.080   3.362
19284W        W90813  38.989  19.877   4.646
19285W        W90814  10.296  29.376   2.319
19286W        W90815  15.822   3.699  13.456
19287W        W90816  13.385  15.094   2.161
19288W        W90817  24.662  41.826   0.371
19289W        W90818  28.373  42.573   2.070
19290W        W90819  14.424  30.389  13.550
19291W        W90820  18.582   6.923  12.027
19292W        W90821   1.794  36.924  14.336
19293W        W90822  22.029  22.583  12.575
19294W        W90823  15.618   5.681  12.853
19295W        W90824   7.410  16.043  14.825
19296W        W90825  41.322  15.288  14.383
19297W        W90826  44.914   6.956  14.481
19298W        W90827   7.837  10.413   5.131
19299W        W90828  29.925  16.666   4.757
19300W        W90829  12.791  27.190  13.996
19301W        W90830  44.776  32.974  14.730
19302W        W90831  40.932   1.012  10.747
19303W        W90832  42.743  41.559  13.969
19304W        W90833  28.803  12.482   1.422
19305W        W90834  37.981  14.376   2.810
19306W        W90835  23.243  39.443  10.896
19307W        W90836  33.169   8.772   3.581
19308W        W90837   1.840  22.130   4.767
19309W        W90838  23.565  27.257  13.025
19310W        W90839  13.911  10.316  14.322
19311W        W90840  21.704  24.583   3.269
19312W        W90841   2.974   7.877   4.654
19313W        W90842   1.342  34.815  13.596
19314W        W90843  42.345  44.543   2.087
19315W        W90844   8.335  18.890   3.760
19316W        W90845  23.663  36.788   3.890
19317W        W90846  10.281  32.065   1.401
19318W        W90847  24.230  31.999   0.467
19319W        W90848  41.039  42.344  13.751
19320W        W90849  23.223  22.246  11.958
19321W        W90850   0.940  19.172   4.840
19322W        W90851   1.449  22.278  14.556
19323W        W90852  22.696  12.436  13.432
19324W        W90853  17.354  44.813  11.031
19325W        W90854  33.546  10.287   3.568
19326W        W90855   4.880  30.104  14.004
19327W        W90856   6.742  18.486  11.330
19328W        W90857  21.586  36.077  12.045
19329W        W90858  41.792  16.578  12.017
19330W        W90859  41.914  26.663  14.282
19331W        W90860  32.507  24.963  12.908
19332W        W90861  10.925  39.510   1.497
19333W        W90862  15.535  14.148   1.374
19334W        W90863   0.916  33.672  11.556
19335W        W90864  16.653  39.060   3.655
19336W        W90865   8.784  11.319  12.609
19337W        W90866  32.880  43.016  14.672
19338W        W90867  20.678  37.969  10.174
19339W        W90868  40.373  22.302   4.263
19340W        W90869   6.290  12.438   4.090
19341W        W90870  34.982  41.683  10.067
19342W        W90871  33.094   4.268   2.655
19343W        W90872  36.845  43.581  13.848
19344W        W90873  43.979  35.321  12.411
19345W        W90874   6.374  28.651   0.865
19346W        W90875  43.222   8.220  11.623
19347W        W90876  22.492  17.615  11.059
19348W        W90877  14.106  36.820   0.690
19349W        W90878   7.652  28.687   3.609
19350W        W90879  35.624  19.816  11.934
19351W        W90880  40.418   3.136   4.372
19352W        W90881  43.398  25.003  10.277
19353W        W90882  10.448  43.833  13.514
19354W        W90883   1.350  13.261   4.705
19355W        W90884  17.617   9.160   2.430
19356W        W90885   4.024  33.886  11.166
19357W        W90886  37.385  22.037  13.029
19358W        W90887   5.205   2.495   2.615
19359W        W90888  21.547  41.780  14.792
19360W        W90889  16.810  31.497  14.309
19361W        W90890  32.344  16.775   2.521
19362W        W90891  10.567  17.263  11.523
19363W        W90892  17.330   6.428  12.560
19364W        W90893  32.563  15.536   5.294
19365W        W90894  40.110  10.665  14.842
19366W        W90895  21.252  15.793  11.142
19367W        W90896  11.253  42.466   1.629
19368W        W90897  26.663  16.045   2.630
19369W        W90898  36.144  34.882  13.456
19370W        W90899   4.590  17.793   5.354
19371W        W90900  20.565   0.404  11.510
19372W        W90901   6.374  13.537   2.795
19373W        W90902  36.463   7.880   2.303
19374W        W90903  16.562  40.972  11.155
19375W        W90904  26.992   2.534  13.075
19376W        W90905  16.705   0.882  11.779
19377W        W90906  40.855  44.239   2.427
19378W        W90907  27.662  17.841   4.704
19379W        W90908   1.668  29.504  14.249
19380W        W90909  30.206  25.479  11.049
19381W        W90910  28.053  33.626   4.274
19382W        W90911  17.560  20.221   0.426
19383W        W90912   0.979  34.464   2.380
19384W        W90913   9.061  20.976  13.014
19385W        W90914  13.262  25.630   2.242
19386W        W90915   0.873   5.819  14.375
19387W        W90916   0.758  20.210  13.431
19388W        W90917  18.871   4.253   1.894
19389W        W90918  12.982   4.494  11.904
19390W        W90919  33.382  24.232  12.894
19391W        W90920   7.243   5.438   3.130
19392W        W90921  38.507   1.684   3.890
19393W        W90922  15.175  15.056  11.975
19394W        W90923  27.375   8.314   2.244
19395W        W90924  33.133  30.640   3.389
19396W        W90925  44.146  23.550   0.418
19397W        W90926  18.363  20.509  12.045
19398W        W90927  17.185  10.854   2.128
19399W        W90928   9.302  10.025   1.388
19400W        W90929  39.348   4.754   0.312
19401W        W90930  27.083  19.173   4.343
19402W        W90931  11.394  30.951  10.640
19403W        W90932  39.877  29.929  13.371
19404W        W90933  22.621   3.308   5.004
19405W        W90934  35.903  18.826   0.923
19406W        W90935   3.399  15.272   1.284
19407W        W90936  29.723  30.521   3.754
19408W        W90937   9.437  36.533  13.989
19409W        W90938  23.691  28.656  11.137
19410W        W90939   0.488   6.660  11.978
19411W        W90940  26.962  43.449  12.474
19412W        W90941  23.728  31.385   1.777
19413W        W90942  21.336  34.126   0.812
19414W        W90943  21.022  16.594   3.656
19415W        W90944  30.527  12.299   5.492
19416W        W90945  38.522   0.444   3.132
19417W        W90946   7.753  21.403  13.357
19418W        W90947  23.009  13.178   0.013
19419W        W90948  15.990  18.635   3.105
19420W        W90949  24.619  27.555  12.648
19421W        W90950  20.608  14.921  12.546
19422W        W90951  20.506   3.069  14.802
19423W        W90952   6.844  36.408  13.575
19424W        W90953  15.865  18.108  14.348
19425W        W90954  12.387  15.475   2.118
19426W        W90955  38.383   0.772   2.281
19427W        W90956  26.082  36.656   2.184
19428W        W90957  42.143  26.637   4.353
19429W        W90958  21.565  37.972   0.450
19430W        W90959  34.015  36.070   0.105
19431W        W90960  18.776  16.086  11.486
19432W        W90961  11.693  38.886  11.066
19433W        W90962  10.339  12.685  11.742
19434W        W90963  38.918  31.433   0.536
19435W        W90964  39.306  24.614  10.910
19436W        W90965   0.950   2.712  14.762
19437W        W90966  21.165  10.930   3.693
19438W        W90967   8.233  38.550   4.566
19439W        W90968  42.164   9.311   0.640
19440W        W90969   0.743  42.319  11.531
19441W        W90970  37.215  13.119   3.785
19442W        W90971   4.537   0.311   2.220
19443W        W90972  19.998  35.038   2.236
19444W        W90973  35.627   3.158  14.976
19445W        W90974  15.392   1.265   3.954
19446W        W90975  29.347  22.997   2.650
19447W        W90976   5.848   4.753   3.619
19448W        W90977  40.521  35.383   0.437
19449W        W90978  18.781   7.905  10.804
19450W        W90979  21.609   2.718   0.361
19451W        W90980  29.148  16.790  11.666
19452W        W90981  24.362  22.629   0.465
19453W        W90982  20.929  27.701   4.206
19454W        W90983  32.130  28.673   2.241
19455W        W90984  15.727  24.960  14.533
19456W        W90985   2.198  36.365   0.962
19457W        W90986  33.128  28.382   0.722
19458W        W90987  35.682  28.084  12.527
19459W        W90988  38.075   8.705   1.382
19460W        W90989  17.176   6.523   4.561
19461W        W90990   7.169  40.403   2.120
19462W        W90991   9.222   5.502   3.867
19463W        W90992   8.892  42.164   4.220
19464W        W90993  38.689  26.206  13.101
19465W        W90994   1.936  11.272  10.594
19466W        W90995  26.430  33.514   2.557
19467W        W90996  28.481  28.891   4.614
19468W        W90997  19.236  25.138   2.332
19469W        W90998  19.201  34.003   3.732
19470W        W90999  15.247   7.525   9.828
19471W        W91000  16.597  17.061  14.930
19472W        W91001  39.424  11.320  12.470
19473W        W91002   9.660  21.079   2.617
19474W        W91003  41.877  29.777   0.758
19475W        W91004  24.575  26.655   1.717
19476W        W91005   4.687  20.613  14.973
19477W        W91006  43.921  16.585  10.889
19478W        W91007   0.956  39.354  11.539
19479W        W91008  16.349  26.968   4.236
19480W        W91009  37.910   9.628  12.016
19481W        W91010  25.034  36.995   0.681
19482W        W91011  26.950   9.278   3.342
19483W        W91012  23.959   8.336  13.959
19484W        W91013  37.838   0.984   1.202
19485W        W91014   3.516  22.780   3.740
19486W        W91015  25.891  33.467  14.812
19487W        W91016  41.003  40.329   0.525
19488W        W91017  13.319  19.418   0.628
19489W        W91018  42.852   3.278  10.382
19490W        W91019  18.239  40.312   3.063
19491W        W91020  42.486   7.203   3.383
19492W        W91021  22.168  19.496  12.782
19493W        W91022  18.067  19.156  13.781
19494W        W91023  11.173  13.233   4.602
19495W        W91024  13.677  41.022   0.184
19496W        W91025  11.898  37.443   0.220
19497W        W91026  37.879  36.968  13.911
19498W        W91027   2.117   7.098   1.105
19499W        W91028  37.781  35.490  12.933
19500W        W91029  31.148   7.184  11.519
19501W        W91030  15.738  21.170   1.066
19502W        W91031  34.322  31.572   1.776
19503W        W91032  38.884  39.486  12.943
19504W        W91033   5.207  44.050   0.848
19505W        W91034  15.947  13.088  13.220
19506W        W91035  21.154   1.521  13.654
19507W        W91036   7.384   2.600  10.944
19508W        W91037  37.965  44.502  12.996
19509W        W91038  14.715   6.728  11.987
19510W        W91039  11.739  11.907  11.250
19511W        W91040  25.512   7.626  10.695
19512W        W91041   7.816  29.102   3.315
19513W        W91042  31.601   4.596  10.527
19514W        W91043  20.515  32.561   0.924
19515W        W91044  27.628  27.564   1.195
19516W        W91045  36.084   2.719  12.665
19517W        W91046   6.459  28.661  13.497
19518W        W91047  17.239  41.854   3.768
19519W        W91048  29.450  32.235  12.579
19520W        W91049  15.759  33.499   2.252
19521W        W91050  13.408  34.832  11.107
19522W        W91051  11.659  29.548  10.281
19523W        W91052   7.552  23.730  13.387
19524W        W91053   8.452  44.066  13.857
19525W        W91054  11.057  20.280   3.583
19526W        W91055  41.079  41.931   0.900
19527W        W91056  17.026  22.599   1.900
19528W        W91057  19.694  34.081   4.266
19529W        W91058  24.251  33.736   4.811
19530W        W91059  41.329   6.431   4.837
19531W        W91060   6.136  36.088  14.472
19532W        W91061   0.829  11.846   4.701
19533W        W91062  43.474  28.216   4.559
19534W        W91063  13.767  31.030  11.491
19535W        W91064  25.266  31.991   0.705
19536W        W91065  16.527   1.702   3.315
19537W        W91066  28.293  16.609   3.140
19538W        W91067   3.610  26.110   1.579
19539W        W91068  31.690   9.216   3.723
19540W        W91069  34.413  22.731   4.663
19541W        W91070  22.328  21.144   4.403
19542W        W91071  25.933   8.703   2.641
19543W        W91072  18.093  44.062  12.481
19544W        W91073  24.551  31.359  12.444
19545W        W91074  27.973  33.682   3.346
19546W        W91075   4.353  40.033   3.863
19547W        W91076  32.645  25.048   3.971
19548W        W91077   0.436  35.491  10.740
19549W        W91078  24.065  30.592   0.444
19550W        W91079  25.284  30.341   2.042
19551W        W91080  28.431  44.893   3.568
19552W        W91081  18.693  41.534  10.517
19553W        W91082   7.484   8.834   0.369
19554W        W91083   9.863  36.135  10.855
19555W        W91084   5.420  16.651  14.507
19556W        W91085  11.028  26.671   4.505
19557W        W91086  28.569  21.641  14.951
19558W        W91087   1.861  10.346  12.583
19559W        W91088  12.443  23.604   2.923
19560W        W91089  30.229  12.919   3.638
19561W        W91090   9.246  17.706  11.375
19562W        W91091  19.508  34.706   4.541
19563W        W91092   4.091  34.896  12.016
19564W        W91093  24.665   4.970  11.768
19565W        W91094  35.197  44.193  14.208
19566W        W91095   4.829  29.626  13.534
19567W        W91096  20.728  34.534   3.057
19568W        W91097  28.884   6.337   4.149
19569W        W91098  33.112  19.193   1.671
19570W        W91099  39.026   6.340   4.883
19571W        W91100  34.815   2.708   2.251
19572W        W91101  21.130  44.980   1.319
19573W        W91102  39.305  33.620  10.132
19574W        W91103   8.254  27.146  11.157
19575W        W91104  38.002  20.716   4.620
19576W        W91105  39.763  39.261   4.201
19577W        W91106  22.210  11.505  14.362
19578W        W91107  16.299  15.012  11.125
19579W        W91108  33.949  22.629  12.875
19580W        W91109  41.752  31.502  14.440
19581W        W91110  44.854  20.722   3.746
19582W        W91111  34.391  32.844  11.660
19583W        W91112  43.999  31.494  14.347
19584W        W91113  23.227  17.597   0.014
19585W        W91114   4.449  37.004  13.879
19586W        W91115   2.361   1.381  14.805
19587W        W91116  36.721   3.869   1.970
19588W        W91117   8.237  25.723  11.756
19589W        W91118  36.888  23.372  13.069
19590W        W91119  41.456   0.425  13.060
19591W        W91120   1.960  12.894  13.938
19592W        W91121  33.720  44.813   2.448
19593W        W91122  22.345   2.139  13.320
19594W        W91123  17.336  25.153   0.913
19595W        W91124  28.096  16.481  13.510
19596W        W91125  42.394  12.060   2.002
19597W        W91126  41.003   0.630  12.188
19598W        W91127   4.425  22.581   3.588
19599W        W91128   6.897  18.627   1.812
19600W        W91129  14.978  43.713  13.060
19601W        W91130  17.138   5.986   2.982
19602W        W91131  15.367   5.209   3.978
19603W        W91132  38.793  17.009  11.903
19604W        W91133   6.815  44.697   3.543
19605W        W91134  39.450  43.694   3.761
19606W        W91135  39.566  28.459   4.107
19607W        W91136   5.390  16.351   1.346
19608W        W91137  15.970  28.873  11.140
19609W        W91138  42.614  20.526  11.112
19610W        W91139  39.352   8.880  11.936
19611W        W91140  20.139  32.527   4.816
19612W        W91141   8.932  11.250  13.940
19613W        W91142  38.837  19.664   0.144
19614W        W91143  43.368  33.587  11.147
19615W        W91144  22.569   1.811   4.113
19616W        W91145  11.613  25.324   1.759
19617W        W91146   9.365  20.705  13.344
19618W        W91147  26.756  32.399   3.230
19619W        W91148  18.583  32.607  13.356
19620W        W91149  42.944  26.604   4.079
19621W        W91150  21.036  40.048   2.250
19622W        W91151  11.857  13.079   1.394
19623W        W91152  28.737  33.453  10.897
19624W        W91153   6.312  36.179   0.317
19625W        W91154  24.069  42.833  13.757
19626W        W91155   7.958  16.331   2.126
19627W        W91156  28.916   7.514  12.663
19628W        W91157  15.065  23.730  12.357
19629W        W91158  31.379  34.083   0.205
19630W        W91159  16.808  25.475   3.389
19631W        W91160  28.176   9.191   0.519
19632W        W91161  31.158  30.491   4.586
19633W        W91162  17.953  26.077  13.071
19634W        W91163  13.534  26.552   1.482
19635W        W91164   7.708   4.440  11.412
19636W        W91165  18.569   7.159   3.771
19637W        W91166  37.301  19.310  11.537
19638W        W91167   9.467  21.488  13.789
19639W        W91168   7.675  16.378  12.158
19640W        W91169  23.442  14.260  11.523
19641W        W91170  29.598  21.179   1.279
19642W        W91171  22.993  20.172   0.275
19643W        W91172  31.420  38.981  14.913
19644W        W91173  26.330  44.925   2.382
19645W        W91174  12.558  25.682   1.847
19646W        W91175  44.630   1.452  12.071
19647W        W91176   9.032  26.542   0.474
19648W        W91177  42.022  11.109   0.001
19649W        W91178  25.219  25.106   0.290
19650W        W91179  37.455  37.237  10.302
19651W        W91180   7.090  32.434   0.758
19652W        W91181   2.405  41.973   2.766
19653W        W91182  34.511  43.713   3.308
19654W        W91183  35.025   1.358  12.044
19655W        W91184  23.090   1.383  11.328
19656W        W91185  31.555  30.681  14.031
19657W        W91186  19.590  39.388   2.432
19658W        W91187  30.469  40.051   1.607
19659W        W91188  15.715  17.171  10.844
19660W        W91189  21.756  25.492  11.140
19661W        W91190  22.633  33.407  12.796
19662W        W91191  14.672  20.767  13.174
19663W        W91192  25.606  43.355  13.107
19664W        W91193   4.685  38.093  11.684
19665W        W91194  13.107  42.207   3.856
19666W        W91195  21.622  21.756  12.100
19667W        W91196  35.480  18.985  12.877
19668W        W91197  40.544  42.267  14.877
19669W        W91198  44.369  31.454  13.914
19670W        W91199  30.912  21.545   3.682
19671W        W91200  40.943  32.046  14.087
19672W        W91201  18.513  42.269   4.656
19673W        W91202   2.675  24.657   1.548
19674W        W91203  14.772  41.812   1.204
19675W        W91204  21.722  21.156   4.809
19676W        W91205   0.066   0.609  12.929
19677W        W91206  35.009  15.850  14.474
19678W        W91207  28.521  26.947  10.528
19679W        W91208  44.983  17.698   2.351
19680W        W91209   4.192  19.776   2.930
19681W        W91210  14.632  34.121  11.932
19682W        W91211  44.844   0.830   3.737
19683W        W91212   8.181  35.640  10.895
19684W        W91213  17.131   1.122   0.351
19685W        W91214  14.137  44.806  10.544
19686W        W91215  20.723  30.101  12.279
19687W        W91216   2.285   1.253   4.050
19688W        W91217  29.735  42.359  14.404
19689W        W91218  33.163  44.198  12.388
19690W        W91219  20.968  44.626  11.344
19691W        W91220  14.752  18.275   0.733
19692W        W91221  42.697  44.881  12.407
19693W        W91222   3.966  29.441  11.971
19694W        W91223  42.914   7.653  12.408
19695W        W91224  36.373  39.847  12.801
19696W        W91225  38.866  19.479  11.136
19697W        W91226  21.029   0.733   0.900
19698W        W91227   1.215   6.732   1.467
19699W        W91228  20.483  33.519  12.405
19700W        W91229  34.289  26.883  14.020
19701W        W91230  21.221   0.837  14.014
19702W        W91231  44.763  18.426   5.108
19703W        W91232  22.500  16.361  11.628
19704W        W91233  43.518  36.397   2.320
19705W        W91234  42.645  29.251  13.959
19706W        W91235   6.607  23.383   3.312
19707W        W91236  21.994  43.369   3.798
19708W        W91237  24.275  26.425   3.218
19709W        W91238  22.228  41.890   3.075
19710W        W91239  43.705  26.747   4.092
19711W        W91240  30.288  30.032   3.144
19712W        W91241   4.210  40.261   1.852
19713W        W91242  39.863   9.574  13.357
19714W        W91243  11.364  14.123   0.948
19715W        W91244   9.934   0.455   1.311
19716W        W91245   7.272   1.722  12.405
19717W        W91246   7.687   3.718   4.230
19718W        W91247  23.133  44.917   3.371
19719W        W91248  30.507  31.424  11.578
19720W        W91249  17.284  28.365  11.172
19721W        W91250  14.199  30.019   2.248
19722W        W91251   3.650  39.954  14.955
19723W        W91252  24.584  18.191   2.941
19724W        W91253  30.172  36.488  10.532
19725W        W91254  23.712  16.729  13.448
19726W        W91255  14.181  28.199   4.090
19727W        W91256  13.348  34.938  12.000
19728W        W91257   0.030   6.660  12.423
19729W        W91258  21.315  24.644  12.168
19730W        W91259  42.466  34.571  12.837
19731W        W91260  33.033  14.052   2.064
19732W        W91261   1.459  10.434  11.104
19733W        W91262  30.998   2.294   3.389
19734W        W91263   1.388  33.432   4.361
19735W        W91264   3.894  39.622   4.764
19736W        W91265  23.212  41.455   0.292
19737W        W91266  12.372   0.333  13.240
19738W        W91267  24.570  34.060   2.777
19739W        W91268  33.454  20.488  13.951
19740W        W91269  38.926  27.200  13.768
19741W        W91270   2.264   0.888   0.015
19742W        W91271  41.249  21.295   3.585
19743W        W91272  35.453  37.984   0.877
19744W        W91273  11.893  19.822  11.091
19745W        W91274  20.060  19.194   4.598
19746W        W91275  24.162   0.467  12.411
19747W        W91276  36.908   0.363   1.937
19748W        W91277   1.915  26.454  11.286
19749W        W91278  38.364  27.053   0.193
19750W        W91279  12.697  15.274   3.696
19751W        W91280  42.938  10.411  10.367
19752W        W91281  12.740  33.507   3.110
19753W        W91282  38.118  28.360  11.108
19754W        W91283  13.527  28.440   2.449
19755W        W91284  36.125  33.438   4.351
19756W        W91285   5.792  40.766   3.537
19757W        W91286   3.356   0.327  11.742
19758W        W91287  17.696  38.886   2.263
19759W        W91288   4.996  43.728  14.374
19760W        W91289  11.904   1.734  12.545
19761W        W91290  22.962  39.100  11.697
19762W        W91291   6.158  27.093   4.539
19763W        W91292  18.169  13.423  13.944
19764W        W91293  12.335   6.729   2.172
19765W        W91294   0.773  38.862  14.077
19766W        W91295  28.705  22.617   4.053
19767W        W91296  29.899  44.993   0.864
19768W        W91297  41.449   2.828   1.541
19769W        W91298  17.065  14.633   3.727
19770W        W91299   1.312  25.990   1.994
19771W        W91300  32.675  14.848  10.977
19772W        W91301  22.952  20.155  14.389
19773W        W91302  10.695  30.591  14.928
19774W        W91303  29.968  11.329  12.459
19775W        W91304   3.643  21.133   3.168
19776W        W91305  28.377  11.068   3.609
19777W        W91306  43.340  15.622   1.709
19778W        W91307  16.772   3.354  12.341
19779W        W91308  16.525  35.019   2.589
19780W        W91309  30.082  43.618  14.161
19781W        W91310  23.551  12.892   2.383
19782W        W91311  11.069  12.668  12.485
19783W        W91312  35.431  39.936   1.856
19784W        W91313  10.766  22.068  10.643
19785W        W91314   4.457   0.801   1.921
19786W        W91315  17.574  42.978   4.129
19787W        W91316  41.003  39.025   1.366
19788W        W91317  11.226   8.348   4.075
19789W        W91318  10.748  12.590  12.078
19790W        W91319   1.416  18.994   3.624
19791W        W91320  11.860  34.318   2.191
19792W        W91321  20.703  37.666  12.581
19793W        W91322   0.820   0.045  11.060
19794W        W91323  10.366  44.490   2.576
19795W        W91324  27.961  37.947   3.848
19796W        W91325  36.213   5.374  14.118
19797W        W91326  26.859  18.788   1.644
19798W        W91327  27.737   1.868   0.569
19799W        W91328   3.341  42.918  10.583
19800W        W91329  28.638  26.177   3.167
19801W        W91330  19.837  27.888  14.932
19802W        W91331  20.851  14.176   3.400
19803W        W91332  16.738  26.742  12.321
19804W        W91333  42.854  20.218  13.471
19805W        W91334  29.072  25.022  10.731
19806W        W91335  21.778  44.827  12.866
19807W        W91336  18.908  17.540  13.635
19808W        W91337  27.759  29.981  13.156
19809W        W91338  16.192  29.166   1.730
19810W        W91339  11.778  12.308  10.633
19811W        W91340  27.943  34.912   5.402
19812W        W91341  28.977  41.101  11.167
19813W        W91342  18.572  42.258   3.279
19814W        W91343  34.511  40.054   1.606
19815W        W91344  32.487  10.364   4.726
19816W        W91345   0.562   3.974   0.323
19817W        W91346  33.061  38.917  13.684
19818W        W91347   6.741  16.297   3.721
19819W        W91348  39.080  12.867   1.439
19820W        W91349   4.079  38.667  11.922
19821W        W91350  26.780  13.325  13.924
19822W        W91351  32.002  22.941   1.940
19823W        W91352  19.285  44.347   1.220
19824W        W91353  43.310  24.773  12.202
19825W        W91354  43.292  33.067  14.261
19826W        W91355   0.195  22.051  14.019
19827W        W91356  30.640  20.342   0.507
19828W        W91357   0.189   6.261   1.281
19829W        W91358  24.196  41.384  11.024
19830W        W91359  34.775  38.089   3.169
19831W        W91360   3.441  13.914  11.566
19832W        W91361  21.077   3.416   0.672
19833W        W91362   1.948   9.861  12.364
19834W        W91363  25.929  10.070   4.668
19835W        W91364  40.473   0.299  14.509
19836W        W91365  18.987  13.353   3.040
19837W        W91366  36.506  44.668   0.080
19838W        W91367  16.331   0.916   1.434
19839W        W91368  19.619  44.760   3.612
19840W        W91369  37.024  22.064  11.664
19841W        W91370   2.979  11.562  11.883
19842W        W91371   6.372   7.953  14.313
19843W        W91372   7.947  27.114  13.309
19844W        W91373  33.667  41.830   4.666
19845W        W91374   1.919  28.915  13.351
19846W        W91375  15.066  10.667   4.050
19847W        W91376  35.088   2.277   1.064
19848W        W91377  36.319  23.051  14.774
19849W        W91378   9.687  24.192   1.648
19850W        W91379  32.781   1.991   0.212
19851W        W91380  27.643  35.513   2.403
19852W        W91381  32.552  24.452   1.833
19853W        W91382  27.754  17.930   1.986
19854W        W91383  16.735  21.714   3.004
19855W        W91384  41.572  16.044   3.650
19856W        W91385   1.831  36.643   2.239
19857W        W91386   3.857   3.941  14.487
19858W        W91387  36.516  25.936  14.375
19859W        W91388   4.851  20.292   4.858
19860W        W91389  20.003  36.939   3.693
19861W        W91390   5.194  38.469   0.467
19862W        W91391   1.039  29.341   2.718
19863W        W91392  43.110  26.144  13.128
19864W        W91393   1.285  17.373   2.828
19865W        W91394  31.655  14.122   2.491
19866W        W91395  27.481  19.763   3.706
19867W        W91396   3.826  25.493   0.810
19868W        W91397  35.921  39.527   0.789
19869W        W91398  27.578  11.535  11.651
19870W        W91399   5.288   5.539   2.810
19871W        W91400   8.642  17.850  11.927
19872W        W91401  41.553  44.284  14.806
19873W        W91402   9.770  29.971   3.969
19874W        W91403  34.273  26.043   5.183
19875W        W91404  28.205   8.288   3.426
19876W        W91405  18.284  21.656  12.660
19877W        W91406  21.247  17.092   3.601
19878W        W91407  20.147  38.058  14.483
19879W        W91408  39.837  36.961  11.062
19880W        W91409   1.944  41.752   4.469
19881W        W91410  10.086  17.435  11.436
19882W        W91411  36.158   2.172  14.008
19883W        W91412   5.890  10.385  12.535
19884W        W91413  36.150   7.847  14.326
19885W        W91414  25.651  43.363   3.298
19886W        W91415   3.351  18.647   0.751
19887W        W91416  27.650  26.799   1.758
19888W        W91417  42.316  11.184  12.609
19889W        W91418  15.525  43.998   1.132
19890W        W91419  11.886  33.544   3.122
19891W        W91420  12.426  37.771   4.060
19892W        W91421  38.442   6.583  12.964
19893W        W91422  26.519  11.811  12.390
19894W        W91423  21.269  33.862   1.307
19895W        W91424  35.470  30.581   4.151
19896W        W91425  16.706  35.685  12.056
19897W        W91426  13.977  25.050   3.247
19898W        W91427  37.429   5.789   1.868
19899W        W91428  30.942   5.393  11.441
19900W        W91429  33.024  20.614  13.053
19901W        W91430  21.726   5.901   4.201
19902W        W91431  33.344   2.510   4.579
19903W        W91432  22.258  19.153   1.418
19904W        W91433  43.372  14.822  13.530
19905W        W91434  13.491   7.781   2.496
19906W        W91435  14.668  24.726   3.038
19907W        W91436   3.477  35.477  11.387
19908W        W91437  34.427  19.182   3.606
19909W        W91438  14.769   2.377   2.231
19910W        W91439  12.324  28.178   4.591
19911W        W91440  44.862  40.364  14.415
19912W        W91441  35.069  30.883  13.929
19913W        W91442  24.026   9.265  12.131
19914W        W91443  37.833   3.006   3.797
19915W        W91444  32.069   1.504   1.111
19916W        W91445  13.963  16.363   3.962
19917W        W91446  36.409  10.848   0.850
19918W        W91447  21.040   3.269  12.499
19919W        W91448  44.516  43.949   0.550
19920W        W91449  28.830  30.641   2.851
19921W        W91450  30.168  18.610  10.655
19922W        W91451  13.183  30.384  10.584
19923W        W91452  19.755   9.675  13.260
19924W        W91453  17.295  30.171  10.803
19925W        W91454  21.090  18.492   5.139
19926W        W91455  36.893  25.164  10.660
19927W        W91456  10.768   9.170   3.593
19928W        W91457  10.006   6.523  12.514
19929W        W91458  24.469  38.463  12.881
19930W        W91459   6.262   5.560   2.079
19931W        W91460  43.745   3.050   2.700
19932W        W91461  11.923  15.632   1.479
19933W        W91462   6.922  29.630   2.319
19934W        W91463  16.278  39.227  14.055
19935W        W91464  37.016  27.117  11.589
19936W        W91465  16.114  10.843  10.933
19937W        W91466  24.120  37.907   5.250
19938W        W91467  15.213  26.474  13.466
19939W        W91468  15.615   7.890   4.604
19940W        W91469  23.477  22.781   0.257
19941W        W91470  27.188  21.074  13.901
19942W        W91471  23.620  23.588   3.136
19943W        W91472  22.470   6.120   4.721
19944W        W91473  38.177  16.894  10.083
19945W        W91474  14.586  19.636  11.561
19946W        W91475  19.508  38.635   1.294
19947W        W91476   1.302  14.937   3.565
19948W        W91477  42.948  17.328  14.728
19949W        W91478   6.985   4.454  11.965
19950W        W91479   6.446  39.885   3.633
19951W        W91480  40.397  43.899   1.696
19952W        W91481  16.615   3.865   2.615
19953W        W91482  44.097   1.909   3.727
19954W        W91483  42.211  17.224  14.444
19955W        W91484   0.728   2.423  14.356
19956W        W91485  36.235  28.061   2.282
19957W        W91486  30.987  10.723   0.402
19958W        W91487   9.870  27.107   1.956
19959W        W91488  44.379  24.703   1.032
19960W        W91489  31.182  33.484  14.743
19961W        W91490   1.938  34.764  13.981
19962W        W91491  13.515   4.169   4.275
19963W        W91492  13.857   5.696  13.349
19964W        W91493  40.800  12.377   3.652
19965W        W91494  38.008  35.782  12.048
19966W        W91495  11.383   4.401   2.786
19967W        W91496  40.557  43.031   3.854
19968W        W91497  15.835  24.621  13.467
19969W        W91498  11.467   6.892  11.053
19970W        W91499   9.768  20.504  10.467
19971W        W91500   4.719  27.044  13.876
19972W        W91501   3.243  17.023   3.865
19973W        W91502  12.350  11.428  11.819
19974W        W91503   4.024   5.924  14.837
19975W        W91504  38.623  11.643   3.601
19976W        W91505  36.308  29.418  13.900
19977W        W91506  22.958  44.896  11.632
19978W        W91507  43.007  12.893   0.251
19979W        W91508  29.604   6.107   3.641
19980W        W91509   8.833   2.804   2.453
19981W        W91510  34.912  21.659  12.561
19982W        W91511  20.614  43.891  12.475
19983W        W91512  16.602  19.083  11.133
19984W        W91513   8.380   6.215   0.483
19985W        W91514  39.779   7.378   0.321
19986W        W91515  34.585  13.473   4.566
19987W        W91516  10.009  29.364  11.519
19988W        W91517  23.964  32.951  12.321
19989W        W91518  19.355   3.373  12.088
19990W        W91519  23.513  26.691   4.868
19991W        W91520  16.362   8.345   0.410
19992W        W91521   0.357   4.810  11.048
19993W        W91522  15.501  43.718   1.598
19994W        W91523  23.106  37.992   0.225
19995W        W91524   5.901   2.151  13.584
19996W        W91525  34.933   0.815   0.406
19997W        W91526  32.211  39.001  13.947
19998W        W91527  42.559  12.153  12.912
19999W        W91528  39.234   5.344  14.483
20000W        W91529  36.352  44.382  12.464
20001W        W91530  32.460  42.094  11.783
20002W        W91531  39.849  22.644  14.898
20003W        W91532  41.594  34.048   2.993
20004W        W91533  39.333  12.293  13.807
20005W        W91534  33.423  15.551  12.408
20006W        W91535   9.986  26.608  10.727
20007W        W91536   6.440  20.242   4.445
20008W        W91537  20.527  24.444   1.064
20009W        W91538  31.496  16.114   2.256
20010W        W91539  21.196  31.466   1.841
20011W        W91540  23.982  32.623  14.398
20012W        W91541  31.474  20.830  10.401
20013W        W91542  12.354  33.819   1.385
20014W        W91543  37.098  43.731  13.377
20015W        W91544  32.658  36.097  11.910
20016W        W91545  42.644  24.006  14.916
20017W        W91546  21.078  40.986  14.850
20018W        W91547  44.947  23.929  13.722
20019W        W91548  29.033   6.289  12.079
20020W        W91549   5.425   2.034  11.460
20021W        W91550  24.766  35.148   3.663
20022W        W91551   6.457   2.931  12.095
20023W        W91552  41.944  29.602  12.933
20024W        W91553  11.806  18.725  12.505
20025W        W91554  26.900  37.510  11.668
20026W        W91555  12.157   5.829   4.584
20027W        W91556  13.299   9.116   4.631
20028W        W91557  44.678  27.047   0.457
20029W        W91558   1.670  43.262   0.393
20030W        W91559  15.346  11.720   2.311
20031W        W91560   1.882  40.656  10.720
20032W        W91561  34.571   4.123  13.365
20033W        W91562  36.423  41.272   3.726
20034W        W91563  28.160   2.925  13.816
20035W        W91564  15.388  31.501   1.929
20036W        W91565  41.370  30.363  14.003
20037W        W91566  38.454   0.703   3.594
20038W        W91567  41.510  42.994  13.265
20039W        W91568  17.301  36.782   3.959
20040W        W91569  33.838  22.964   1.513
20041W        W91570  11.826  40.479  13.028
20042W        W91571  18.690  21.104   0.710
20043W        W91572  16.167   0.211   3.128
20044W        W91573  36.453  39.268  14.492
20045W        W91574  21.668  28.863  13.224
20046W        W91575  14.653  31.623  12.243
20047W        W91576  38.305  27.144   1.344
20048W        W91577   8.691   9.120   1.873
20049W        W91578   9.169  10.908   0.204
20050W        W91579  21.078  16.190   1.140
20051W        W91580  16.890   8.058  10.284
20052W        W91581  29.650  17.708  10.845
20053W        W91582   4.412  19.972  11.154
20054W        W91583  29.110  10.704   0.740
20055W        W91584  44.059  16.131  11.105
20056W        W91585  16.499  34.208  12.078
20057W        W91586  10.719   2.521  12.413
20058W        W91587  15.588   6.905   2.860
20059W        W91588   2.978  10.654  11.866
20060W        W91589  38.553  34.404   2.168
20061W        W91590  38.204   5.615  13.078
20062W        W91591  35.026   8.312   0.747
20063W        W91592  23.751  42.388   0.996
20064W        W91593  17.163  14.464   5.009
20065W        W91594   5.237  13.365  14.945
20066W        W91595   2.372  36.405   2.865
20067W        W91596  42.491  12.146  14.253
20068W        W91597  22.218   7.147   0.178
20069W        W91598   4.902   6.448  11.039
20070W        W91599  10.267  10.020  14.348
20071W        W91600  37.665  19.943   2.735
20072W        W91601  30.039  20.637  13.023
20073W        W91602  17.685  34.588   0.284
20074W        W91603  39.696  30.944  10.675
20075W        W91604   4.885  24.751  11.420
20076W        W91605  44.857   4.912   4.771
20077W        W91606  42.459  21.834  11.579
20078W        W91607   1.850  15.816  14.490
20079W        W91608   5.342  16.289  13.995
20080W        W91609  36.446   5.690   3.733
20081W        W91610  19.013  12.769  13.442
20082W        W91611  31.252  37.623   1.329
20083W        W91612  42.524  34.160  11.109
20084W        W91613  43.854  32.863   1.258
20085W        W91614   3.428  19.521   2.284
20086W        W91615  35.909  38.540   4.469
20087W        W91616  42.472  13.260  11.901
20088W        W91617  39.833   9.385  11.700
20089W        W91618  30.416  30.479  10.606
20090W        W91619  10.354  31.994   3.107
20091W        W91620  41.792   8.330   2.666
20092W        W91621   2.733  14.147   1.224
20093W        W91622  42.764   5.262  11.697
20094W        W91623  42.085  33.565  12.830
20095W        W91624  43.143  24.089  14.904
20096W        W91625  26.558  20.530   3.939
20097W        W91626  43.014   4.709  14.711
20098W        W91627  24.982   6.468   0.701
20099W        W91628  41.730  17.245   4.518
20100W        W91629  24.983  19.297   0.869
20101W        W91630  22.663  42.652  14.088
20102W        W91631  40.306  29.443  12.005
20103W        W91632  12.048  23.478   0.467
20104W        W91633  39.828   8.348  13.019
20105W        W91634  20.252  25.604   0.916
20106W        W91635   2.160  38.365  13.326
20107W        W91636  40.999  32.014   4.510
20108W        W91637  41.492  12.020   2.338
20109W        W91638  30.652   6.407   3.263
20110W        W91639  31.693  38.246  12.808
20111W        W91640  44.776  22.666   4.146
20112W        W91641  31.600  39.121   3.229
20113W        W91642  14.683  25.510   2.992
20114W        W91643  37.584  24.687  13.557
20115W        W91644   7.409  22.836   4.934
20116W        W91645  34.018  40.449   1.793
20117W        W91646   9.601  33.489   2.278
20118W        W91647  44.364  17.599   1.479
20119W        W91648  18.293  39.926  10.735
20120W        W91649   9.217  35.581   4.162
20121W        W91650  37.009  21.983   1.011
20122W        W91651  33.016  18.580  10.603
20123W        W91652   2.990  36.007  10.717
20124W        W91653  24.139  26.681  12.043
20125W        W91654  10.320   6.846  14.485
20126W        W91655  23.882  42.028  13.798
20127W        W91656  17.839  28.082   2.824
20128W        W91657  33.253  24.284  10.178
20129W        W91658  11.690  33.443   4.141
20130W        W91659  30.668  17.025   0.662
20131W        W91660  36.457   5.891  12.417
20132W        W91661  42.324  35.727  11.286
20133W        W91662   1.767  18.653  12.959
20134W        W91663  11.764  11.639  10.238
20135W        W91664  42.595  29.908   1.751
20136W        W91665   1.959  14.168   3.725
20137W        W91666  17.308  17.101  11.074
20138W        W91667  33.072  37.511  13.339
20139W        W91668  17.245  10.709   0.052
20140W        W91669  32.022   4.278   4.908
20141W        W91670  40.314  11.157   2.000
20142W        W91671  27.382   6.297   4.887
20143W        W91672  15.715  16.122   4.109
20144W        W91673  10.555  34.469   2.353
20145W        W91674  36.653   2.457   2.741
20146W        W91675  37.752  34.133   4.508
20147W        W91676   6.895  30.088  11.074
20148W        W91677  28.693  18.291   2.711
20149W        W91678  21.151  35.999   1.432
20150W        W91679  26.975  22.973  13.963
20151W        W91680  27.247  38.506  10.677
20152W        W91681  38.920   6.982  10.663
20153W        W91682   9.196  35.397  11.612
20154W        W91683  12.826   6.872   3.965
20155W        W91684  38.288   1.782  11.381
20156W        W91685  28.560  23.818   3.701
20157W        W91686  12.056  17.776  14.390
20158W        W91687  26.947  18.281  10.477
20159W        W91688  30.035   4.554  11.844
20160W        W91689  11.864  38.503   1.764
20161W        W91690  41.865  13.873  12.790
20162W        W91691  14.729  11.659  14.574
20163W        W91692  21.644  16.682   1.448
20164W        W91693  10.812  33.688   1.963
20165W        W91694   2.820  31.513   3.295
20166W        W91695  43.685   5.495  14.046
20167W        W91696   5.904  36.764  10.636
20168W        W91697   9.437  39.262  12.922
20169W        W91698   0.248  10.090   0.394
20170W        W91699  37.043  21.474   2.066
20171W        W91700  28.024  22.964   2.767
20172W        W91701  32.374  27.595  13.806
20173W        W91702   6.330  44.500  10.167
20174W        W91703  31.526  43.071   3.307
20175W        W91704  17.212  19.988   3.170
20176W        W91705   7.862  43.984  13.362
20177W        W91706  14.154  16.287   4.914
20178W        W91707  38.880   2.489   4.563
20179W        W91708   9.627   8.679  12.018
20180W        W91709  23.255   6.353  11.609
20181W        W91710  30.165   7.651   3.128
20182W        W91711  41.064  14.040  10.659
20183W        W91712  15.747  25.467   4.610
20184W        W91713  27.760  24.262  10.865
20185W        W91714   5.989  24.121  13.619
20186W        W91715   3.478  29.340  14.877
20187W        W91716  43.037  29.043  13.639
20188W        W91717  38.043  14.825   0.701
20189W        W91718  13.015  40.891   4.090
20190W        W91719  14.521  11.127  11.999
20191W        W91720  41.982  37.309   0.068
20192W        W91721  25.632   5.261  11.984
20193W        W91722  29.687  33.208  12.291
20194W        W91723  40.524  34.531  10.632
20195W        W91724  29.564   1.311   2.873
20196W        W91725   1.784  33.515   0.883
20197W        W91726   2.635  20.224   2.281
20198W        W91727  15.156  10.062  13.011
20199W        W91728  15.331  31.030  11.673
20200W        W91729  18.236  33.552   2.366
20201W        W91730   8.785  28.394  13.111
20202W        W91731  16.043   6.838  14.397
20203W        W91732  21.258  15.138   4.658
20204W        W91733  22.259  15.666   1.253
20205W        W91734  30.558  23.982   3.649
20206W        W91735  37.892  28.146  12.381
20207W        W91736  11.009  28.869  14.497
20208W        W91737   8.833  39.167   1.854
20209W        W91738  36.486   7.736  10.687
20210W        W91739   2.923  28.455  13.979
20211W        W91740  19.354   9.380  11.608
20212W        W91741  34.822   8.505  12.929
20213W        W91742  29.835   7.259   2.174
20214W        W91743  32.420   2.168  13.900
20215W        W91744  17.487  14.491  14.884
20216W        W91745  36.323  29.947   2.659
20217W        W91746   3.508  37.290   4.423
20218W        W91747  20.055   9.744  12.402
20219W        W91748  15.875  32.945  12.039
20220W        W91749  32.308  17.637   3.229
20221W        W91750  16.592  12.749   3.637
20222W        W91751  19.063  32.995  12.172
20223W        W91752  44.396   8.166  14.440
20224W        W91753   2.253  13.054   0.473
20225W        W91754   0.855  10.929  13.391
20226W        W91755  37.914  18.807   2.883
20227W        W91756  31.061  23.465  11.594
20228W        W91757  17.775  29.721   0.279
20229W        W91758  22.693  11.362  14.548
20230W        W91759  24.547  43.834   1.767
20231W        W91760  20.673   4.986  13.892
20232W        W91761   6.409  29.398   0.076
20233W        W91762  41.018  14.709   1.284
20234W        W91763   5.452   5.324   0.029
20235W        W91764  36.520   1.588   3.276
20236W        W91765  43.044   4.339   1.347
20237W        W91766  27.139  20.688   1.642
20238W        W91767  19.561  39.884  11.773
20239W        W91768  38.102   2.537   2.343
20240W        W91769   1.701   9.521   4.245
20241W        W91770  14.401  32.130   0.937
20242W        W91771  37.018  44.770  13.442
20243W        W91772  20.102  40.303  12.066
20244W        W91773   2.360  34.543  14.738
20245W        W91774  19.156  18.173   2.683
20246W        W91775  11.429  33.682  10.871
20247W        W91776  43.922  23.564   0.923
20248W        W91777  18.760  37.663  12.887
20249W        W91778  24.198  27.101   4.788
20250W        W91779  30.123  10.077  13.075
20251W        W91780  40.338  10.158  11.642
20252W        W91781  35.276  38.053  11.867
20253W        W91782  43.068   6.957  12.028
20254W        W91783  30.085   5.740   0.183
20255W        W91784  41.116   5.799   0.534
20256W        W91785  37.528   6.948   3.630
20257W        W91786  43.772  36.565  13.874
20258W        W91787  36.991  17.284   4.757
20259W        W91788  12.343  33.501  10.893
20260W        W91789  24.970  17.018   3.177
20261W        W91790   4.381  36.574  12.963
20262W        W91791   7.146   3.904  12.084
20263W        W91792  23.320  40.806   1.556
20264W        W91793  31.132  39.544   3.675
20265W        W91794  12.090  38.111  13.079
20266W        W91795   9.640  24.503   0.347
20267W        W91796  21.283  35.542  14.402
20268W        W91797  24.668  37.024   2.601
20269W        W91798  39.345   7.322  10.562
20270W        W91799  29.300  31.119  14.065
20271W        W91800  32.055   5.788  14.297
20272W        W91801  42.284  16.703  10.723
20273W        W91802  26.810  13.529   4.099
20274W        W91803  34.476  13.248  14.931
20275W        W91804   0.875  25.346  12.459
20276W        W91805  16.761  36.058   1.691
20277W        W91806  12.515  44.408   4.324
20278W        W91807  21.468  30.502   3.172
20279W        W91808  22.612  38.774  14.509
20280W        W91809  24.010  42.366   0.080
20281W        W91810  20.445  12.634   4.104
20282W        W91811  14.276   1.424   0.359
20283W        W91812  21.003  14.371   0.638
20284W        W91813  12.308  30.645  13.310
20285W        W91814  40.019  11.189  12.542
20286W        W91815  10.753  18.450   3.224
20287W        W91816  31.428  31.692  13.798
20288W        W91817  37.151  31.233  11.113
20289W        W91818  40.914  38.817  11.669
20290W        W91819  14.648  36.809   2.752
20291W        W91820  14.789  25.658  13.336
20292W        W91821  26.108  29.891   1.821
20293W        W91822   6.116  31.148  10.716
20294W        W91823  39.755  25.765  11.114
20295W        W91824  42.299  36.572   1.424
20296W        W91825   8.951  37.131   3.701
20297W        W91826   5.897  37.797  14.852
20298W        W91827  35.384  34.933   4.361
20299W        W91828  43.487  41.037  13.400
20300W        W91829  26.429   1.117   2.548
20301W        W91830   8.430  42.890   4.812
20302W        W91831  15.151  37.078   4.731
20303W        W91832  40.107  38.491  13.011
20304W        W91833  41.366  21.816  12.556
20305W        W91834  29.829  11.828  10.744
20306W        W91835  18.512  37.722   0.208
20307W        W91836  44.513  25.652  13.050
20308W        W91837  35.788   1.805  10.704
20309W        W91838   5.951  13.874   4.255
20310W        W91839   5.200  35.566   3.333
20311W        W91840  30.870  29.645   3.960
20312W        W91841  36.719  11.909   2.878
20313W        W91842  27.780  28.077   0.284
20314W        W91843  42.486  36.989  13.991
20315W        W91844  20.898  41.354  11.995
20316W        W91845  31.991  28.970   0.290
20317W        W91846  20.687  30.472   3.715
20318W        W91847   3.078   4.406  12.442
20319W        W91848   0.971  23.095   2.010
20320W        W91849  35.124  34.497  12.848
20321W        W91850  11.624   2.385   2.652
20322W        W91851  30.481  35.680  12.420
20323W        W91852   8.068   8.965   4.918
20324W        W91853  40.322   5.714   2.236
20325W        W91854  15.518   9.896  14.770
20326W        W91855  35.799  32.235   5.006
20327W        W91856  17.632  38.756   0.693
20328W        W91857  36.911  40.943  14.469
20329W        W91858  10.267  27.658   0.708
20330W        W91859  42.041   1.354  14.859
20331W        W91860  32.030   5.113   1.704
20332W        W91861  13.272  40.271  11.175
20333W        W91862  35.066  41.477   0.868
20334W        W91863  35.078  27.706  11.073
20335W        W91864  12.847  38.331  12.016
20336W        W91865  33.396   0.184  10.176
20337W        W91866  21.809  28.794  12.730
20338W        W91867  43.902   1.441   1.013
20339W        W91868  34.895  30.181  12.420
20340W        W91869  19.932  17.150   4.112
20341W        W91870  34.601  39.818  14.852
20342W        W91871  17.263  28.853  13.934
20343W        W91872  44.904  13.655  12.017
20344W        W91873   2.202  42.562  13.136
20345W        W91874   2.814  31.469  12.828
20346W        W91875   9.127  13.601   1.701
20347W        W91876  15.290  16.822  13.924
20348W        W91877  39.881  12.359  13.062
20349W        W91878  25.382  13.212   2.342
20350W        W91879  40.371  13.625  11.372
20351W        W91880  11.786  33.514  13.862
20352W        W91881   4.026  41.984   1.891
20353W        W91882  36.328  14.567   0.171
20354W        W91883   3.997  42.978   1.804
20355W        W91884  10.911  30.676  11.124
20356W        W91885  40.582   9.992  11.129
20357W        W91886  41.502  16.677  14.107
20358W        W91887  16.808  18.606  11.165
20359W        W91888   3.740  17.968  11.096
20360W        W91889  23.769   2.893  12.440
20361W        W91890   8.248  41.435   3.089
20362W        W91891  24.580  30.854   3.145
20363W        W91892  17.134   3.728   0.674
20364W        W91893  29.509  36.487   1.239
20365W        W91894  35.281  30.118   2.687
20366W        W91895  13.128   7.585   2.818
20367W        W91896  22.342  40.115   2.831
20368W        W91897   9.688  25.093  12.973
20369W        W91898  27.969  20.198  12.282
20370W        W91899  16.659  40.566  11.476
20371W        W91900  38.089  20.565  14.524
20372W        W91901   1.792  20.303  11.128
20373W        W91902   3.833   2.947  12.022
20374W        W91903  18.737  18.323   1.924
20375W        W91904  13.068  37.587   1.257
20376W        W91905  24.011  31.022  13.061
20377W        W91906   8.195  26.687   3.691
20378W        W91907  28.590  32.419   1.912
20379W        W91908  21.016   1.544   3.373
20380W        W91909   6.906  13.336  12.959
20381W        W91910  28.026  12.799   3.585
20382W        W91911  26.471  15.259  14.548
20383W        W91912  23.175   9.333   4.644
20384W        W91913   1.685  38.942   1.542
20385W        W91914  35.735  32.892   2.396
20386W        W91915  27.582   9.767   4.379
20387W        W91916  23.137  20.208  13.055
20388W        W91917   8.256  15.159  11.138
20389W        W91918  42.785  37.903  13.576
20390W        W91919   9.951   4.199   2.639
20391W        W91920  32.522  15.953   2.358
20392W        W91921  43.014  29.723   5.059
20393W        W91922  27.717  25.233   3.402
20394W        W91923  35.578  24.885  14.307
20395W        W91924   5.322  42.245  13.463
20396W        W91925  34.088  35.609  12.950
20397W        W91926  41.933  17.566   4.147
20398W        W91927  26.697   1.822  13.472
20399W        W91928  30.636  22.506  14.068
20400W        W91929  40.264  25.097   0.398
20401W        W91930  13.620   6.788  12.017
20402W        W91931  10.773  21.430   4.434
20403W        W91932   5.347  11.360  14.108
20404W        W91933  15.576  44.542  11.623
20405W        W91934  36.034  22.429   1.072
20406W        W91935  10.768  14.174   3.392
20407W        W91936   1.726  30.074  11.314
20408W        W91937  13.708   7.962  14.804
20409W        W91938  40.365   4.192   0.981
20410W        W91939  44.211  16.626   0.274
20411W        W91940  20.202   5.360   3.577
20412W        W91941  28.736  41.090   4.113
20413W        W91942   7.884  36.842   3.286
20414W        W91943  31.705  24.004  11.190
20415W        W91944  26.028   0.975   2.253
20416W        W91945   1.630   6.937  11.977
20417W        W91946   2.398  22.567   1.033
20418W        W91947  28.560   0.102  14.953
20419W        W91948   5.646  10.820   4.206
20420W        W91949   5.269  22.804  10.746
20421W        W91950  10.371   3.469  10.463
20422W        W91951  38.009  16.151  10.509
20423W        W91952  24.479  16.866   3.186
20424W        W91953  11.641  44.772  13.299
20425W        W91954  36.491  38.148   1.807
20426W        W91955  15.766  12.790  14.579
20427W        W91956   5.193  41.250  12.580
20428W        W91957  28.009   6.452  12.127
20429W        W91958  38.614   9.894  12.423
20430W        W91959  28.372  34.472  12.006
20431W        W91960  10.259  12.898   3.603
20432W        W91961  25.947  22.617  13.458
20433W        W91962  19.583   7.315   0.944
20434W        W91963   4.348   2.698  13.018
20435W        W91964   7.339  16.971   3.106
20436W        W91965   6.770  20.225   9.700
20437W        W91966  10.012  10.960  14.428
20438W        W91967  41.343  29.746   4.547
20439W        W91968   5.973   9.803  13.977
20440W        W91969   4.272  43.084  14.915
20441W        W91970  26.922  28.420   0.336
20442W        W91971  24.814  43.398  13.552
20443W        W91972  13.791  24.979   2.759
20444W        W91973  40.002  43.002   2.968
20445W        W91974  14.167   3.088   3.343
20446W        W91975  34.945   3.998   4.293
20447W        W91976  13.405  29.439  12.033
20448W        W91977   4.172   7.957   1.694
20449W        W91978  37.537  23.282  11.555
20450W        W91979  11.815  32.975  13.972
20451W        W91980   0.827  30.580   0.923
20452W        W91981  33.412  10.168  14.388
20453W        W91982  44.991  26.600  12.907
20454W        W91983   4.182  17.579  10.238
20455W        W91984  17.233  42.328   3.090
20456W        W91985  34.297  30.900   2.180
20457W        W91986  42.973  39.276   0.402
20458W        W91987  35.119   1.379   2.403
20459W        W91988  24.461  20.363   4.094
20460W        W91989  10.668  20.557   2.262
20461W        W91990  19.272  12.876  12.993
20462W        W91991  34.897  42.890  10.370
20463W        W91992  37.083  43.926   3.672
20464W        W91993  32.884  37.309   3.632
20465W        W91994   6.386  23.367   0.462
20466W        W91995  31.852  37.710   2.192
20467W        W91996  26.959  28.523  11.980
20468W        W91997  38.276  10.472  14.347
20469W        W91998  11.672   0.044   4.110
20470W        W91999  10.925   4.828   4.660
20471W        W92000  44.441  24.933   2.798
20472W        W92001  25.555  44.782  13.036
20473W        W92002  32.406  14.833   3.491
20474W        W92003  39.368  31.462   3.492
20475W        W92004  22.708   8.536   2.405
20476W        W92005  15.182  26.228   1.392
20477W        W92006   8.170  25.473  10.832
20478W        W92007  21.234  40.788  12.576
20479W        W92008  14.694  20.091   0.220
20480W        W92009  18.810   9.938  13.137
20481W        W92010   8.918  23.603   3.632
20482W        W92011  13.994  18.046  13.927
20483W        W92012  38.482  25.591  11.125
20484W        W92013  14.690  42.603   3.607
20485W        W92014   3.496   2.839   2.203
20486W        W92015  44.721   9.873  12.006
20487W        W92016   8.763  18.269   1.873
20488W        W92017  38.777  11.185   0.489
20489W        W92018   4.854  28.085  12.987
20490W        W92019  31.567  20.176   3.428
20491W        W92020  30.617   0.864   1.668
20492W        W92021  34.543   3.932   2.374
20493W        W92022  12.151  10.768   1.292
20494W        W92023  44.457   2.292  13.594
20495W        W92024  44.021  26.986   3.774
20496W        W92025  11.847  10.398   1.855
20497W        W92026  41.386   7.419  13.113
20498W        W92027  12.849   5.381   2.237
20499W        W92028  40.536   1.394   4.784
20500W        W92029  26.446  21.169   3.176
20501W        W92030  13.288   1.491   5.014
20502W        W92031   2.070  11.414   1.356
20503W        W92032  22.976  42.326  10.563
20504W        W92033   4.414  17.796  13.797
20505W        W92034  41.384  13.338  13.906
20506W        W92035   1.200  39.932  11.558
20507W        W92036  44.362  29.537  11.203
20508W        W92037  42.348  35.088   4.728
20509W        W92038  40.766  10.388  12.412
20510W        W92039  23.939  20.049  11.143
20511W        W92040   8.377   1.331  11.024
20512W        W92041  11.205  38.698   4.751
20513W        W92042  29.535  13.210  10.506
20514W        W92043  42.925  42.684  14.891
20515W        W92044  12.642  11.733  11.510
20516W        W92045  16.943  26.122  13.033
20517W        W92046  30.412   1.842  10.980
20518W        W92047   3.792  22.256  13.029
20519W        W92048  17.872  14.707  13.549
20520W        W92049   2.760  44.684  10.841
20521W        W92050  33.898  40.330  14.327
20522W        W92051  15.854   7.889   3.729
20523W        W92052   5.392  35.318  13.143
20524W        W92053   0.918  17.896  12.273
20525W        W92054   2.200   9.253   4.817
20526W        W92055  24.218   3.259  10.450
20527W        W92056  24.999  35.106   3.183
20528W        W92057  31.616  36.427   3.679
20529W        W92058  20.527  14.602   0.782
20530W        W92059  44.541  42.364   4.152
20531W        W92060   1.431   2.653  10.537
20532W        W92061   8.677   3.405  13.631
20533W        W92062   4.705  39.010   0.455
20534W        W92063  27.370  24.136   1.249
20535W        W92064  27.847  28.646  12.197
20536W        W92065  29.986   1.922   2.967
20537W        W92066  44.100   7.600  12.391
20538W        W92067  43.455   4.992  11.069
20539W        W92068  18.323   2.866  12.437
20540W        W92069  29.160  44.649   3.529
20541W        W92070  42.012   5.874  13.386
20542W        W92071  19.975  14.564  12.190
20543W        W92072  32.307  27.316  12.384
20544W        W92073  44.465  18.919   2.736
20545W        W92074  16.123  40.119   1.358
20546W        W92075  11.614  19.075   2.509
20547W        W92076  14.523  22.824   2.183
20548W        W92077  44.950  16.030   2.848
20549W        W92078  34.582  41.601   2.471
20550W        W92079   6.655  22.139  11.740
20551W        W92080  41.802  43.454   2.209
20552W        W92081  40.275  39.568   1.360
20553W        W92082  32.750   9.748  14.567
20554W        W92083  38.959  16.356   1.851
20555W        W92084  17.708  20.211  10.917
20556W        W92085  27.612  43.024  10.434
20557W        W92086  44.641   6.093  10.327
20558W        W92087   3.769   9.521   3.617
20559W        W92088  11.833  33.510  10.095
20560W        W92089  27.461   0.878  11.845
20561W        W92090  37.297  38.818  11.049
20562W        W92091  11.143   2.366   2.838
20563W        W92092  21.738  17.059  11.996
20564W        W92093   3.296  36.088   4.662
20565W        W92094   4.943  12.719   0.324
20566W        W92095  44.751  17.527  12.528
20567W        W92096  23.526   3.098   3.752
20568W        W92097  26.623  18.606  10.711
20569W        W92098   1.489  14.341  12.522
20570W        W92099   5.934  34.572   0.532
20571W        W92100  23.945   1.346   1.741
20572W        W92101   3.374  43.258   2.818
20573W        W92102  35.867  39.236  11.127
20574W        W92103  15.108   9.252  13.615
20575W        W92104  15.222  43.102   2.397
20576W        W92105  26.057  18.291  14.983
20577W        W92106  41.049   3.440   0.718
20578W        W92107  11.916  38.822  14.404
20579W        W92108  29.631  13.093   1.168
20580W        W92109  11.184  27.769  12.644
20581W        W92110  31.997  16.664   2.145
20582W        W92111  39.611   8.715   1.282
20583W        W92112  15.207  32.679  14.794
20584W        W92113   3.951   5.755  14.020
20585W        W92114  35.064   3.549  11.698
20586W        W92115   8.399  31.407   4.599
20587W        W92116  40.347   4.347   2.875
20588W        W92117  11.547  40.578  13.948
20589W        W92118  30.762  41.054  11.163
20590W        W92119  19.582   4.924  13.442
20591W        W92120  44.990  26.696   3.726
20592W        W92121  15.597  17.499  12.646
20593W        W92122   5.753   8.211  10.961
20594W        W92123  38.481  12.759  10.974
20595W        W92124   4.157  25.727  12.565
20596W        W92125  12.015  37.274   4.726
20597W        W92126  13.545   7.825   1.979
20598W        W92127   0.483   0.211   0.662
20599W        W92128   6.274  35.874  12.969
20600W        W92129  15.304  14.230   2.315
20601W        W92130  24.510  32.053   0.921
20602W        W92131  43.541   0.849  11.437
20603W        W92132  36.046  39.432  12.763
20604W        W92133   7.161   6.321  13.862
20605W        W92134  37.217  28.619   0.296
20606W        W92135  10.250  24.928  10.166
20607W        W92136  13.361  20.963   0.857
20608W        W92137  15.228   7.289  12.303
20609W        W92138  15.791   9.300   2.673
20610W        W92139  26.566  40.806  10.614
20611W        W92140  14.259   2.229   1.310
20612W        W92141  38.324  15.900   3.712
20613W        W92142  10.245  26.061   4.517
20614W        W92143  33.840  43.457  12.145
20615W        W92144  36.188  44.375  10.650
20616W        W92145  44.803  37.872  10.705
20617W        W92146  42.343  32.078   3.313
20618W        W92147  29.948  17.588   2.857
20619W        W92148  16.803  21.912   2.445
20620W        W92149  27.465  36.894   4.299
20621W        W92150  35.866  31.466  13.134
20622W        W92151  19.205   2.064   3.192
20623W        W92152  15.833  13.092  13.717
20624W        W92153  41.228   0.932  11.367
20625W        W92154   1.014  17.660  11.274
20626W        W92155   3.692  19.837   0.167
20627W        W92156   1.141  37.827   1.770
20628W        W92157  16.149  30.241   3.408
20629W        W92158  41.528  21.726   3.649
20630W        W92159  35.400  39.847  10.991
20631W        W92160  38.751  44.566   1.502
20632W        W92161  40.407  35.710  14.920
20633W        W92162  17.813  30.949   3.726
20634W        W92163  22.053   1.355   1.923
20635W        W92164  13.413   7.089   0.741
20636W        W92165  16.786  44.535  11.486
20637W        W92166  28.937  27.137   3.160
20638W        W92167  12.563  25.370  14.693
20639W        W92168  36.649  19.241   1.289
20640W        W92169   2.843  15.993  14.684
20641W        W92170  36.637  14.302   5.121
20642W        W92171  30.280  33.494   1.458
20643W        W92172  40.483  32.022  14.307
20644W        W92173  37.024  26.645  13.328
20645W        W92174   0.751  27.574   0.754
20646W        W92175  37.951  33.481   1.885
20647W        W92176  34.451  38.352  14.174
20648W        W92177   1.253   6.614  11.782
20649W        W92178   8.120  39.862   1.272
20650W        W92179  14.599  30.713   3.960
20651W        W92180  10.238  44.232   0.706
20652W        W92181   4.761  10.378  10.452
20653W        W92182   6.675   8.706   0.947
20654W        W92183  31.119  39.356   4.138
20655W        W92184  16.255  43.033  13.307
20656W        W92185  34.624  14.835  14.971
20657W        W92186  40.885   7.389  13.344
20658W        W92187  31.864   3.853  13.117
20659W        W92188   9.908  17.084   3.254
20660W        W92189  18.445  16.397   0.953
20661W        W92190   7.890  16.090  11.171
20662W        W92191  35.632  25.958  12.400
20663W        W92192  42.336  43.536   2.198
20664W        W92193  31.835  21.698   2.657
20665W        W92194  15.100  28.020   3.740
20666W        W92195  27.509   3.916  14.069
20667W        W92196  23.280   6.870   3.038
20668W        W92197  33.840  18.680   1.676
20669W        W92198  39.687   4.896  14.903
20670W        W92199  21.556   3.266   0.477
20671W        W92200   8.781  32.181   3.251
20672W        W92201  18.202  15.641   0.697
20673W        W92202  42.519  33.430   3.792
20674W        W92203  39.838  44.015  13.001
20675W        W92204  15.653   4.177  14.874
20676W        W92205  24.618  38.431   0.373
20677W        W92206   2.276   4.533   1.063
20678W        W92207   5.178  38.403   2.259
20679W        W92208  34.181  39.968  14.578
20680W        W92209   5.729   6.006   2.165
20681W        W92210  44.871  33.480   3.686
20682W        W92211   9.277   2.988   4.130
20683W        W92212  37.388  40.765   4.213
20684W        W92213  21.061  40.570   4.943
20685W        W92214  23.352  34.988   3.932
20686W        W92215  13.826  39.136   2.036
20687W        W92216  24.207  35.459  11.633
20688W        W92217  16.690   2.770   1.427
20689W        W92218  21.302   2.073  10.767
20690W        W92219   3.294  41.437  14.480
20691W        W92220  22.449   5.008   4.218
20692W        W92221  14.445   9.422  11.511
20693W        W92222  36.533  29.118   2.308
20694W        W92223  27.322  36.514   4.622
20695W        W92224  41.439  37.787   2.766
20696W        W92225  23.976  43.046   0.399
20697W        W92226  15.010  22.684   2.419
20698W        W92227  31.598  21.290   1.893
20699W        W92228  15.676  13.812  14.797
20700W        W92229  22.047  23.647  12.018
20701W        W92230  33.063  20.912   2.680
20702W        W92231   3.246  41.494   0.951
20703W        W92232  20.297  41.338  10.694
20704W        W92233  37.417  35.096   2.955
20705W        W92234  23.453  18.395   3.767
20706W        W92235  42.066  36.447   0.260
20707W        W92236  27.195  38.393  14.189
20708W        W92237  16.653   2.174   0.046
20709W        W92238  42.630  31.497  10.692
20710W        W92239  36.461  32.128   1.383
20711W        W92240  41.295   2.701   3.210
20712W        W92241   2.880  15.100   3.194
20713W        W92242   5.897  44.773  14.412
20714W        W92243  36.304  23.230   1.218
20715W        W92244  41.319  37.527   3.203
20716W        W92245   9.675   4.271   3.087
20717W        W92246  36.040   9.871  13.247
20718W        W92247  32.976   7.371   4.491
20719W        W92248  32.884  22.737   1.607
20720W        W92249  42.696   9.743   5.048
20721W        W92250  16.980  33.883  12.865
20722W        W92251  34.990   4.679  12.980
20723W        W92252  10.879  13.304  13.784
20724W        W92253  44.028  32.915  13.547
20725W        W92254   4.048   6.209  11.207
20726W        W92255  34.007  35.008   4.578
20727W        W92256  38.026  15.818   1.872
20728W        W92257   8.138  15.633  10.999
20729W        W92258   8.241  14.611  13.626
20730W        W92259  14.571   9.440   3.996
20731W        W92260  30.511  42.710  13.365
20732W        W92261  18.259  19.996   2.248
20733W        W92262  10.651  10.858  12.510
20734W        W92263  15.158  44.785  13.939
20735W        W92264   6.243  16.053   4.148
20736W        W92265  27.876  35.626  14.862
20737W        W92266  14.465  34.276  14.696
20738W        W92267  27.092  42.904  10.776
20739W        W92268  20.428  30.692   3.333
20740W        W92269  33.407  28.061  11.003
20741W        W92270  13.742  25.503  14.513
20742W        W92271   8.385  33.526   2.889
20743W        W92272  42.102   5.835  14.310
20744W        W92273   6.448   0.423   2.328
20745W        W92274  15.028   3.256   3.269
20746W        W92275  14.804   3.214   3.728
20747W        W92276  25.020  37.846   1.303
20748W        W92277   5.721  37.430  13.973
20749W        W92278   9.634  29.136   1.931
20750W        W92279  20.273  42.038   4.323
20751W        W92280  10.361  37.950   0.962
20752W        W92281   3.753   2.268   0.812
20753W        W92282  36.996   2.363   3.113
20754W        W92283  37.159  43.106  11.637
20755W        W92284  41.959  27.672  14.485
20756W        W92285   8.803  17.237  13.785
20757W        W92286  18.019   1.840   4.269
20758W        W92287   3.179  21.136  11.113
20759W        W92288  19.187  28.074  10.938
20760W        W92289   8.603  29.713   5.046
20761W        W92290  12.513   5.290  11.516
20762W        W92291  29.921  17.443  14.010
20763W        W92292  31.173  42.936   3.723
20764W        W92293   3.190  19.702   0.881
20765W        W92294  17.629  22.588  12.747
20766W        W92295  16.153  16.844   9.902
20767W        W92296  14.488  28.569  11.479
20768W        W92297  22.480   1.621   3.615
20769W        W92298  19.489   2.707   4.572
20770W        W92299   5.195  37.902  14.338
20771W        W92300  44.559  23.141  11.025
20772W        W92301  15.611  44.912  14.849
20773W        W92302  30.942  40.792  14.800
20774W        W92303  14.834  44.182  10.559
20775W        W92304  43.988  11.229   3.906
20776W        W92305  44.779  44.838   3.472
20777W        W92306   3.987  10.440   2.205
20778W        W92307  23.661  20.652   4.635
20779W        W92308   5.248  22.160  13.600
20780W        W92309  22.162  39.142   2.676
20781W        W92310  20.970  24.700   0.786
20782W        W92311  40.336  38.887   4.533
20783W        W92312  26.060  19.362  12.488
20784W        W92313  20.794  35.399   4.659
20785W        W92314   1.434  18.243  14.268
20786W        W92315  29.598  10.475  12.013
20787W        W92316   2.551  30.465  11.149
20788W        W92317   3.415  43.344   3.851
20789W        W92318   1.804   2.759   2.611
20790W        W92319  39.306  35.434   0.749
20791W        W92320   3.992   0.931  13.496
20792W        W92321   8.739  41.074  11.969
20793W        W92322  29.065  31.680   1.224
20794W        W92323  24.286  14.578  14.325
20795W        W92324  11.288  34.974  11.114
20796W        W92325  23.759  29.156  12.388
20797W        W92326   7.876  40.863  11.940
20798W        W92327  38.914  39.672   1.947
20799W        W92328   3.866  34.443   3.007
20800W        W92329  44.089  30.469  11.592
20801W        W92330  19.201  34.360  12.118
20802W        W92331   8.895  13.657   2.657
20803W        W92332  19.337   4.713  12.985
20804W        W92333  37.122   5.655  12.976
20805W        W92334  12.717   9.645   0.831
20806W        W92335  22.927  28.550   1.355
20807W        W92336  18.056  31.254  14.693
20808W        W92337  26.634  15.499  14.959
20809W        W92338  12.306   3.831   4.367
20810W        W92339  32.114   3.496  10.510
20811W        W92340  10.567  41.772  12.479
20812W        W92341  21.731   0.892  10.673
20813W        W92342   3.380   4.677  10.744
20814W        W92343  23.924   8.731   4.917
20815W        W92344   8.015   0.534   3.378
20816W        W92345  40.977  28.404  13.877
20817W        W92346  34.291  37.880   3.172
20818W        W92347  20.280  22.439  14.659
20819W        W92348  31.892  18.646   1.948
20820W        W92349  41.273  38.086  11.095
20821W        W92350   6.298  20.484  13.098
20822W        W92351  30.539  44.562   2.137
20823W        W92352  24.991  39.046   5.020
20824W        W92353  24.184  38.618   1.450
20825W        W92354  22.262  19.074  13.103
20826W        W92355   1.974  40.995   0.787
20827W        W92356   5.788   4.760  13.228
20828W        W92357  38.067  37.888  10.719
20829W        W92358   0.797  35.322  11.194
20830W        W92359  20.329  11.658  11.147
20831W        W92360  34.000  11.808  10.758
20832W        W92361   9.224  42.745   0.299
20833W        W92362  28.249  42.349  12.960
20834W        W92363   6.379   8.415   2.788
20835W        W92364  41.375  32.839   4.152
20836W        W92365  27.047  35.763  14.544
20837W        W92366  35.038  15.857   4.391
20838W        W92367  43.746  44.939   1.894
20839W        W92368   9.530  10.126  13.162
20840W        W92369  30.564  13.777  14.480
20841W        W92370  13.689  41.395   1.959
20842W        W92371  16.168  12.221   2.211
20843W        W92372  40.525  11.628   2.908
20844W        W92373   2.844  21.000  14.408
20845W        W92374   2.699  37.947  10.968
20846W        W92375  38.813  33.943   2.259
20847W        W92376   2.269  17.093  13.094
20848W        W92377  27.947  37.445   3.572
20849W        W92378  18.774  15.137   3.559
20850W        W92379  18.262  12.188   0.032
20851W        W92380  30.098  41.691   4.279
20852W        W92381  43.913  35.093  11.487
20853W        W92382  35.858   6.645  14.205
20854W        W92383  22.024   1.809  13.593
20855W        W92384  44.033  13.160  10.876
20856W        W92385  43.017  40.778  12.621
20857W        W92386   8.445  27.095   1.931
20858W        W92387  26.060  36.253   2.518
20859W        W92388  30.161  22.543  12.934
20860W        W92389   6.690  21.337   9.662
20861W        W92390  39.347  23.357   1.896
20862W        W92391  42.905  24.227  10.498
20863W        W92392  37.898  10.112  14.562
20864W        W92393  12.922  21.089  10.576
20865W        W92394  25.055  20.531  11.680
20866W        W92395   1.436  43.022  13.777
20867W        W92396  12.611  42.968   0.792
20868W        W92397  22.113   0.233  13.976
20869W        W92398  18.365  16.063   3.706
20870W        W92399  39.885  17.266   3.661
20871W        W92400  18.320   2.920   2.437
20872W        W92401  27.891  19.197   1.385
20873W        W92402  39.891  40.796   1.805
20874W        W92403  20.463  22.993   4.082
20875W        W92404  16.220  44.579  13.459
20876W        W92405  29.484  40.900   0.384
20877W        W92406  43.834  23.922   4.637
20878W        W92407  39.575  34.349  12.457
20879W        W92408  39.084   1.769  14.396
20880W        W92409  17.498  32.441  12.043
20881W        W92410  15.996  42.261   0.511
20882W        W92411  32.229  15.221  12.198
20883W        W92412  31.101  29.218   1.768
20884W        W92413  40.375   2.308   4.432
20885W        W92414  25.963  26.892  11.103
20886W        W92415  26.458  15.257   0.388
20887W        W92416  20.191  24.691  11.280
20888W        W92417  25.440  37.233  10.725
20889W        W92418  22.700  18.589   1.911
20890W        W92419   6.920   5.014   3.230
20891W        W92420  15.800  36.805  12.240
20892W        W92421  17.647  27.485  11.041
20893W        W92422  16.710   8.147   1.055
20894W        W92423  17.237  44.605  14.589
20895W        W92424  12.387  30.537   1.763
20896W        W92425  20.580  17.696  12.359
20897W        W92426  15.184   1.841  11.569
20898W        W92427   5.839  15.395  12.940
20899W        W92428  37.559  22.218  13.915
20900W        W92429   0.853  41.376  13.241
20901W        W92430  35.812  28.887  11.189
20902W        W92431  41.316  26.932  11.018
20903W        W92432  18.538  18.477   4.033
20904W        W92433  37.416  30.062  13.566
20905W        W92434  20.053  12.810   2.656
20906W        W92435   9.287  20.851  11.161
20907W        W92436  26.437  34.331  12.981
20908W        W92437  27.405  29.467  10.725
20909W        W92438  37.155   7.196   1.037
20910W        W92439  18.554  17.778  12.437
20911W        W92440  29.732   8.521   2.445
20912W        W92441   1.869  16.347  14.769
20913W        W92442  15.640  25.188   1.788
20914W        W92443  26.087  11.178   4.773
20915W        W92444  44.790  22.147   1.938
20916W        W92445  43.995  16.494  14.127
20917W        W92446  41.931  28.173  13.392
20918W        W92447  42.358  40.367   2.731
20919W        W92448  21.682  27.515  13.245
20920W        W92449  37.826   3.842   4.618
20921W        W92450  30.592  44.194  13.567
20922W        W92451   7.424  35.916   4.056
20923W        W92452   3.709   0.528  14.407
20924W        W92453  39.517  15.213  12.585
20925W        W92454  24.892   8.262  12.601
20926W        W92455  25.628   4.796   1.609
20927W        W92456   5.666  30.046   1.371
20928W        W92457  25.448  24.649  11.974
20929W        W92458  32.578  22.230  10.626
20930W        W92459  33.982  32.102  12.900
20931W        W92460  35.969  14.856   0.399
20932W        W92461  39.098  34.601   4.027
20933W        W92462  10.567  35.046   4.153
20934W        W92463  26.930   1.347   1.421
20935W        W92464  14.760  26.861   0.414
20936W        W92465  33.684  23.124   3.708
20937W        W92466   5.258   3.939   2.846
20938W        W92467   2.921  27.702   1.911
20939W        W92468  35.424  20.010   4.131
20940W        W92469  36.537  31.426  11.836
20941W        W92470  15.134  25.697  12.922
20942W        W92471   7.036  15.685  14.727
20943W        W92472  20.675  37.627  13.919
20944W        W92473  43.258   0.244  14.331
20945W        W92474  21.620  13.595  10.674
20946W        W92475  17.593   4.902  13.869
20947W        W92476  34.020  43.043  13.832
20948W        W92477  11.864  22.227   2.470
20949W        W92478  18.483  17.530  13.282
20950W        W92479  41.646  11.807   4.560
20951W        W92480   8.330  21.736   1.713
20952W        W92481   7.363  40.871  12.520
20953W        W92482   9.114  41.986   3.376
20954W        W92483   5.494  29.156  12.613
20955W        W92484  39.467   0.419   3.119
20956W        W92485   6.715   2.174  12.362
20957W        W92486  37.665  14.724   4.164
20958W        W92487   0.209   8.242   3.089
20959W        W92488  21.171  22.709   4.692
20960W        W92489  12.601  28.883  12.171
20961W        W92490  19.830  16.859   1.147
20962W        W92491  32.446  36.611   2.295
20963W        W92492  20.901  15.362   1.067
20964W        W92493  15.326  30.739   1.415
20965W        W92494   8.786   7.707  13.932
20966W        W92495  19.517  37.574   0.866
20967W        W92496   0.481  26.405  13.978
20968W        W92497  31.534  40.867  12.044
20969W        W92498  35.838  14.452  13.777
20970W        W92499  44.376   0.558  13.556
20971W        W92500  10.213  22.085   4.895
20972W        W92501  42.810  12.762   3.182
20973W        W92502  12.042  34.957  13.059
20974W        W92503  33.478  14.322  14.945
20975W        W92504   9.085  32.015   2.279
20976W        W92505  29.567   8.325   3.381
20977W        W92506  40.094  39.037   1.823
20978W        W92507  19.348  21.580   3.272
20979W        W92508  26.287  43.289  10.870
20980W        W92509  26.430  36.536   4.867
20981W        W92510  30.624  32.832  12.083
20982W        W92511   0.209  15.101  14.063
20983W        W92512  31.015   1.830   4.993
20984W        W92513  31.921  11.346   1.898
20985W        W92514   1.536  22.350   4.233
20986W        W92515  22.453  42.441   3.706
20987W        W92516   9.847  28.511   3.138
20988W        W92517  41.322  38.993   3.094
20989W        W92518   9.759  24.709   3.646
20990W        W92519   2.983  23.252  11.654
20991W        W92520  25.672   3.752   1.044
20992W        W92521  20.287  19.748   1.755
20993W        W92522  24.929  41.462   2.783
20994W        W92523  25.933   4.208   3.233
20995W        W92524  23.210  31.771   0.395
20996W        W92525  15.106  40.953   4.046
20997W        W92526  37.450  28.921  10.007
20998W        W92527  29.594  40.513  10.669
20999W        W92528   5.637  41.518  11.700
21000W        W92529  25.248  32.090  14.316
21001W        W92530  41.938  38.591   2.833
21002W        W92531  31.094  35.603   1.491
21003W        W92532  16.763   8.507  13.226
21004W        W92533  41.844  24.407  14.900
21005W        W92534  11.866  29.125  10.034
21006W        W92535   4.359  27.407   3.280
21007W        W92536  38.815  36.364  11.683
21008W        W92537  44.049  38.531  13.898
21009W        W92538  19.838   0.760  10.835
21010W        W92539   1.709  28.719  14.858
21011W        W92540   5.723   6.894  13.611
21012W        W92541  20.179  42.351  14.263
21013W        W92542  38.122  35.821  14.484
21014W        W92543  43.047  17.753  12.548
21015W        W92544  25.613  21.131   1.464
21016W        W92545  44.355  34.205  13.247
21017W        W92546  25.382  13.378   5.036
21018W        W92547  21.328  17.872   3.136
21019W        W92548  18.100  42.932   4.893
21020W        W92549  35.046  10.683  14.661
21021W        W92550   9.926  25.699  13.144
21022W        W92551  35.117  40.780  14.827
21023W        W92552   1.006  20.752   2.152
21024W        W92553   5.266  23.626  12.147
21025W        W92554  44.466  29.036   0.426
21026W        W92555  11.371  14.364  10.568
21027W        W92556  13.311  40.940  10.441
21028W        W92557   6.660   8.656  12.437
21029W        W92558  32.447  23.988  13.079
21030W        W92559   9.369  32.216  11.249
21031W        W92560  39.530   2.915   1.310
21032W        W92561  41.047  32.428  11.517
21033W        W92562  11.274  10.774  12.797
21034W        W92563  36.350  18.547   4.929
21035W        W92564   5.648  17.757  14.243
21036W        W92565  31.087  12.520   3.704
21037W        W92566  43.452  41.484  14.517
21038W        W92567  14.165  20.239   1.363
21039W        W92568  34.662  16.463  14.980
21040W        W92569  10.624  10.610   1.250
21041W        W92570   2.882  42.478  12.520
21042W        W92571   2.159  12.234   3.690
21043W        W92572  26.377   2.931   1.681
21044W        W92573  27.185  15.629  10.810
21045W        W92574  43.198  43.237   0.447
21046W        W92575   5.304   7.966   0.858
21047W        W92576  38.958  40.060  14.223
21048W        W92577  28.998  35.347  11.645
21049W        W92578  33.336   5.564   0.375
21050W        W92579  21.339  39.179  12.625
21051W        W92580   5.979  21.250   4.940
21052W        W92581  19.287  38.067  12.077
21053W        W92582  10.361   5.369  13.970
21054W        W92583   3.914  29.374   1.812
21055W        W92584  32.656   6.798  14.555
21056W        W92585   3.815  43.485   1.722
21057W        W92586  27.647  20.609   0.245
21058W        W92587   0.178  37.969   2.839
21059W        W92588   8.811   5.725   0.481
21060W        W92589  43.989  13.177   0.953
21061W        W92590   6.967  26.895  10.807
21062W        W92591  28.159  32.027  10.681
21063W        W92592  41.080   9.792   1.405
21064W        W92593  41.378   6.713  11.977
21065W        W92594  28.086  10.374  11.775
21066W        W92595  14.179  12.336  13.057
21067W        W92596  15.411  24.213  11.101
21068W        W92597  21.219  34.881   2.770
21069W        W92598   0.865  28.982   2.334
21070W        W92599  44.888   3.006   2.886
21071W        W92600   6.306   4.276   1.221
21072W        W92601  35.540  25.408   1.256
21073W        W92602   1.800  44.201   2.085
21074W        W92603  39.983  34.118  12.059
21075W        W92604  27.285  26.519  10.779
21076W        W92605   8.106  12.118   1.522
21077W        W92606   2.987   9.735   3.119
21078W        W92607   0.058  44.473  12.402
21079W        W92608   6.367  21.246  10.478
21080W        W92609  12.078  28.318   2.423
21081W        W92610  18.248  27.142   3.172
21082W        W92611  17.378  28.547  12.432
21083W        W92612  23.528  32.713   3.709
21084W        W92613  16.608  31.376   2.545
21085W        W92614   5.151   7.755  13.508
21086W        W92615  19.981  40.069   2.974
21087W        W92616   4.514  17.777   1.548
21088W        W92617  42.531  31.640   1.481
21089W        W92618  30.678  10.068  14.800
21090W        W92619  22.997  24.514  13.781
21091W        W92620   6.727  32.471  11.648
21092W        W92621   4.869  18.305  12.053
21093W        W92622  31.620  43.149   1.631
21094W        W92623  26.166  16.075   4.804
21095W        W92624  33.287  29.948  14.742
21096W        W92625  29.661  30.914   2.813
21097W        W92626  11.301  20.188  14.429
21098W        W92627  29.041  37.094  13.052
21099W        W92628  31.502  40.587   3.111
21100W        W92629  18.341  42.536  13.899
21101W        W92630   8.743  37.004   4.694
21102W        W92631  11.754   2.314  11.350
21103W        W92632  30.412  28.891  11.948
21104W        W92633  30.499  43.327  14.010
21105W        W92634  27.074  36.763   1.377
21106W        W92635  28.640  19.797  10.720
21107W        W92636  23.993  33.443  14.714
21108W        W92637  24.504  32.648  14.346
21109W        W92638  19.758  17.400   2.350
21110W        W92639  35.928   7.157  12.438
21111W        W92640  16.253  10.583  13.599
21112W        W92641   7.648  19.096  12.907
21113W        W92642  32.446   4.256   3.650
21114W        W92643   5.178   1.315   0.549
21115W        W92644  31.797  40.805   2.755
21116W        W92645  24.711  12.314   3.203
21117W        W92646  35.402   4.522  14.227
21118W        W92647  11.162  23.730  12.933
21119W        W92648  24.380  39.980   4.242
21120W        W92649   6.767  23.539   4.166
21121W        W92650  23.198  33.600   3.224
21122W        W92651   4.576  27.528   3.753
21123W        W92652   5.321  15.381   3.120
21124W        W92653  39.594  15.640  11.450
21125W        W92654   7.087  20.751   3.741
21126W        W92655  30.438  29.887   2.259
21127W        W92656   3.750  38.994  11.116
21128W        W92657  16.006  38.818  12.496
21129W        W92658  13.261  35.203   4.230
21130W        W92659  30.041   8.065   3.397
21131W        W92660  27.035  13.532  11.115
21132W        W92661  42.038   3.008  10.750
21133W        W92662  27.021  32.458  14.094
21134W        W92663  42.014  24.876  12.916
21135W        W92664   4.576   5.164   3.417
21136W        W92665  24.197  27.170  14.384
21137W        W92666   0.257  13.646   4.224
21138W        W92667  41.219  44.413  12.949
21139W        W92668   9.140  39.991   4.414
21140W        W92669  28.144  22.759   0.161
21141W        W92670  32.474   8.838   5.238
21142W        W92671   6.839  25.535  13.733
21143W        W92672  22.718  32.054   1.150
21144W        W92673  27.684   9.355  14.759
21145W        W92674   9.646  10.146   9.955
21146W        W92675  22.197  43.599   1.803
21147W        W92676  15.275  31.502   1.010
21148W        W92677  16.982  41.398   3.800
21149W        W92678  23.972  29.771   4.438
21150W        W92679  24.923  29.246   0.244
21151W        W92680  12.589   4.972   0.413
21152W        W92681  18.736  29.853   3.139
21153W        W92682  29.030  24.723   3.147
21154W        W92683  37.171   0.384   2.412
21155W        W92684   4.738   3.547  14.100
21156W        W92685  21.565  30.462   4.574
21157W        W92686  13.595  36.366  12.725
21158W        W92687  26.178  13.245   3.793
21159W        W92688  40.594  15.758   0.245
21160W        W92689   2.493  30.847   2.306
21161W        W92690  31.407   1.030   2.095
21162W        W92691  27.912  30.481   2.600
21163W        W92692  12.819  18.682  13.441
21164W        W92693   9.686  19.102   0.189
21165W        W92694  24.134  21.998  14.461
21166W        W92695  13.744   2.543  11.986
21167W        W92696  11.702  35.109  13.969
21168W        W92697  13.850   2.695   2.798
21169W        W92698   3.541  23.194   0.834
21170W        W92699  13.847  36.762   2.306
21171W        W92700  14.681  32.140   4.140
21172W        W92701  16.915  38.399  11.243
21173W        W92702  39.444  33.927   3.111
21174W        W92703  12.999   6.891   4.935
21175W        W92704  15.822  24.496   1.371
21176W        W92705   8.233  31.715  11.993
21177W        W92706  27.562  23.110  10.471
21178W        W92707  22.193   0.731   2.319
21179W        W92708  19.085   0.803   5.012
21180W        W92709   7.712  44.862   0.619
21181W        W92710  28.683  39.557  12.393
21182W        W92711  34.943  37.839  12.185
21183W        W92712   5.918  18.722  11.556
21184W        W92713  25.664  34.483   3.702
21185W        W92714  26.241  24.496   0.740
21186W        W92715  25.667  23.021   1.930
21187W        W92716   9.328  20.749   1.463
21188W        W92717  43.534  24.884   1.834
21189W        W92718  36.465   7.094  12.022
21190W        W92719   7.457  43.120   4.694
21191W        W92720  20.182  18.180  13.090
21192W        W92721   5.546  19.860  10.405
21193W        W92722  17.859  37.142   2.316
21194W        W92723   5.084   7.829   3.928
21195W        W92724  39.796  21.485  11.477
21196W        W92725  22.623  19.204   4.643
21197W        W92726  38.531  43.354  11.520
21198W        W92727  17.067  21.666  14.789
21199W        W92728  34.334  19.299   0.016
21200W        W92729  32.067   2.478  10.624
21201W        W92730  43.031  30.387  14.747
21202W        W92731  19.379  35.795  11.627
21203W        W92732  42.794  17.644  10.861
21204W        W92733  35.579  35.079   3.363
21205W        W92734  39.977  14.908   1.803
21206W        W92735  23.053  25.130   2.683
21207W        W92736   4.370   6.169   4.242
21208W        W92737  10.284  38.775   3.035
21209W        W92738  16.667  30.169  14.084
21210W        W92739  42.451  17.737   4.680
21211W        W92740  10.895  42.474   3.734
21212W        W92741   1.360  15.813  10.916
21213W        W92742  41.283  34.979  12.469
21214W        W92743  19.668  41.918  12.693
21215W        W92744  33.287  16.783  14.826
21216W        W92745  34.860  22.832   5.012
21217W        W92746   6.654  25.824  11.877
21218W        W92747   6.819  16.475  14.065
21219W        W92748   6.344   1.922   4.618
21220W        W92749  42.955   4.139  12.604
21221W        W92750  13.867  20.502  13.609
21222W        W92751  31.595  35.302  10.341
21223W        W92752   6.413  10.776  12.876
21224W        W92753   3.498  40.450  11.578
21225W        W92754  29.249  36.075  13.126
21226W        W92755   1.370  34.478   2.768
21227W        W92756   2.851  20.469  14.236
21228W        W92757  28.121  15.773  11.116
21229W        W92758   7.937  25.269   2.629
21230W        W92759  16.978  18.779  12.526
21231W        W92760  26.669  39.415   4.656
21232W        W92761  15.415  26.665   1.177
21233W        W92762  34.754  12.275  12.978
21234W        W92763  42.567   5.837   0.690
21235W        W92764   3.245  15.332   0.796
21236W        W92765   8.178  10.306   3.444
21237W        W92766  32.919  10.343   3.182
21238W        W92767   4.722  31.989  12.025
21239W        W92768   9.410   2.344  10.593
21240W        W92769  32.794   0.472   3.780
21241W        W92770  31.070   5.514   1.003
21242W        W92771  10.665  36.602   1.596
21243W        W92772  38.978   2.001  10.888
21244W        W92773   4.377  39.797   2.508
21245W        W92774  42.328  14.017  13.934
21246W        W92775   8.215  26.277  11.721
21247W        W92776   6.183  24.358  10.641
21248W        W92777  16.667  20.847  12.384
21249W        W92778   3.393  37.880  13.827
21250W        W92779  37.855   6.615   0.295
21251W        W92780  33.785  11.853   2.706
21252W        W92781  38.558  43.495   0.828
21253W        W92782  12.305   8.085  14.822
21254W        W92783  44.837  37.960   0.653
21255W        W92784  40.505  18.525  12.083
21256W        W92785  14.267  40.109  14.096
21257W        W92786  13.642  44.409   1.869
21258W        W92787  15.533  23.522   4.927
21259W        W92788   1.314  22.802   0.847
21260W        W92789  41.015  35.526  14.250
21261W        W92790  34.048  28.169   1.457
21262W        W92791  19.404  12.864  14.241
21263W        W92792  40.876  33.437   2.792
21264W        W92793  44.857   4.174  14.919
21265W        W92794   9.325   3.692   2.720
21266W        W92795  18.725   5.316  10.551
21267W        W92796  27.709  22.082   2.118
21268W        W92797  25.793  12.335  14.900
21269W        W92798  39.024   3.860  13.218
21270W        W92799  16.862  11.754  14.431
21271W        W92800  41.212  20.269  12.565
21272W        W92801   3.294  32.880  13.972
21273W        W92802  33.358  10.044   3.148
21274W        W92803  27.180  29.558  13.431
21275W        W92804   3.917  13.177   2.177
21276W        W92805  27.567  29.367   1.287
21277W        W92806   3.695  42.882   3.054
21278W        W92807  19.317  31.168  14.865
21279W        W92808  27.905  41.330  14.764
21280W        W92809  44.235  31.567   2.835
21281W        W92810  39.856  31.527   1.417
21282W        W92811  19.678   3.927  13.597
21283W        W92812  33.071  16.171  12.045
21284W        W92813  12.742  36.550  10.737
21285W        W92814  23.167  35.546   3.199
21286W        W92815   9.769  12.839  12.860
21287W        W92816  32.173  24.174  11.308
21288W        W92817  26.673   7.763  10.685
21289W        W92818  32.448  34.604  11.631
21290W        W92819  39.984  19.195  13.043
21291W        W92820  12.895   3.373  10.486
21292W        W92821  40.448   2.567  11.620
21293W        W92822  44.297  37.718   5.092
21294W        W92823   9.723  13.184   1.392
21295W        W92824  32.012  14.628   2.258
21296W        W92825  19.199   1.178   0.443
21297W        W92826  29.780  33.652   3.175
21298W        W92827   2.007  25.421   3.705
21299W        W92828   2.728  25.425  12.415
21300W        W92829   6.918  41.162  12.502
21301W        W92830  18.954   7.991   4.081
21302W        W92831  12.127  26.087   4.450
21303W        W92832  37.086  37.266   3.320
21304W        W92833  10.246  21.701  10.521
21305W        W92834  42.866   8.856   2.169
21306W        W92835  43.684  27.682   0.049
21307W        W92836  33.165  16.161  11.070
21308W        W92837  28.833   7.903  11.435
21309W        W92838  40.486  23.979   1.365
21310W        W92839   8.121   3.303  12.413
21311W        W92840  37.047  17.511  10.835
21312W        W92841  16.205  12.096  12.369
21313W        W92842   5.832   9.211  13.527
21314W        W92843  19.690  27.508   1.780
21315W        W92844  26.102  33.022   4.498
21316W        W92845  29.447  20.687  13.571
21317W        W92846  13.892  11.561   4.683
21318W        W92847  43.821  39.827  12.831
21319W        W92848  33.052  42.714   2.601
21320W        W92849  31.553  25.209   1.765
21321W        W92850  13.714   8.798  13.949
21322W        W92851   3.639  37.867  11.627
21323W        W92852  13.720  25.460   2.084
21324W        W92853  25.147  34.313  13.416
21325W        W92854   5.803   2.672   3.816
21326W        W92855  15.619  11.749  11.851
21327W        W92856  38.802   3.558  10.392
21328W        W92857   0.554  34.089  12.439
21329W        W92858   6.389  32.496   2.648
21330W        W92859  41.326   9.133   0.273
21331W        W92860  26.176  40.028  11.477
21332W        W92861   8.278  20.094  13.356
21333W        W92862  39.781  11.551   1.348
21334W        W92863   9.411   5.440   1.266
21335W        W92864  40.805   5.437   3.704
21336W        W92865  31.511  40.832   2.213
21337W        W92866  41.264  38.055   3.198
21338W        W92867  12.722  36.358  12.595
21339W        W92868  12.657  24.442  13.450
21340W        W92869  40.747   1.517  14.324
21341W        W92870  37.861  18.742  10.461
21342W        W92871   2.867   4.959   5.209
21343W        W92872  41.420  11.412  12.494
21344W        W92873  22.465   1.187   2.205
21345W        W92874   1.069  41.296   1.770
21346W        W92875  24.269  18.608   2.920
21347W        W92876  44.404  40.914   1.442
21348W        W92877  27.904   5.267   0.847
21349W        W92878  28.099  32.193  14.979
21350W        W92879  30.504  29.080   4.718
21351W        W92880  39.444  37.150   1.322
21352W        W92881  26.112  24.599   1.776
21353W        W92882  24.392   5.958  14.879
21354W        W92883  39.924  32.614   3.708
21355W        W92884  10.728   2.218   3.158
21356W        W92885   8.160  14.412   4.539
21357W        W92886  41.345  13.764  11.975
21358W        W92887   6.432  23.302  10.814
21359W        W92888  18.349  39.360  12.038
21360W        W92889   4.583  31.699  14.762
21361W        W92890  15.758  11.916   3.920
21362W        W92891  44.023  28.067  14.932
21363W        W92892  17.124  35.106   4.507
21364W        W92893  30.424  27.783   3.197
21365W        W92894  22.086  20.547   2.229
21366W        W92895   8.431   9.383   0.929
21367W        W92896  26.888   6.920  13.101
21368W        W92897  36.390   0.583  13.553
21369W        W92898  10.286  22.738   0.347
21370W        W92899  18.681  34.451   2.583
21371W        W92900   1.436  33.212  12.631
21372W        W92901  34.435  25.200   3.434
21373W        W92902  22.777   0.397  10.667
21374W        W92903  34.487   9.077   1.216
21375W        W92904  33.815  13.774   2.762
21376W        W92905   6.432  26.465  14.530
21377W        W92906   4.990  21.100  12.144
21378W        W92907  11.631   9.093  10.681
21379W        W92908  29.783   0.389   2.690
21380W        W92909  30.465  10.864   1.430
21381W        W92910  43.343   4.130  11.312
21382W        W92911   3.678   9.408   1.795
21383W        W92912  27.582  32.664  11.065
21384W        W92913   1.796  22.638  14.775
21385W        W92914   0.744  13.383  13.593
21386W        W92915  13.388  41.949   4.240
21387W        W92916  11.691   8.563   3.183
21388W        W92917  27.202  38.252   1.257
21389W        W92918  17.358  20.214   2.287
21390W        W92919  34.415  36.909  12.082
21391W        W92920   2.274  28.978   1.918
21392W        W92921  14.032  37.772  14.497
21393W        W92922   1.736  23.153  14.557
21394W        W92923   6.814  43.978  13.263
21395W        W92924   3.261   3.951   4.499
21396W        W92925  42.151  13.093   5.012
21397W        W92926  34.761   2.628   1.266
21398W        W92927   4.455  40.362  11.649
21399W        W92928  19.258  10.701  10.913
21400W        W92929  11.803  40.187   2.636
21401W        W92930  39.213  25.898   3.329
21402W        W92931  11.254  37.060  10.780
21403W        W92932  44.325   7.857   2.237
21404W        W92933   5.745  33.071   2.559
21405W        W92934  34.444  25.632  12.078
21406W        W92935  39.955  15.302  12.885
21407W        W92936  26.185  44.265  11.419
21408W        W92937  17.551   3.705  11.972
21409W        W92938   1.563  12.291   2.275
21410W        W92939  14.814  29.490  13.759
21411W        W92940  27.099   7.433   0.495
21412W        W92941  19.683  22.936   3.821
21413W        W92942  32.480  36.997   3.757
21414W        W92943  16.345  38.786  12.895
21415W        W92944  34.045  14.765  10.660
21416W        W92945   2.254  11.616  11.121
21417W        W92946  13.835   6.302   2.766
21418W        W92947   0.378   2.957   1.291
21419W        W92948  21.667  20.763  10.673
21420W        W92949  35.702  35.184  14.104
21421W        W92950  13.341  35.908   1.331
21422W        W92951  28.212  44.806  10.226
21423W        W92952  35.286  28.070   2.851
21424W        W92953  32.961  12.732  10.525
21425W        W92954  24.587  31.014  11.458
21426W        W92955  25.773  24.276  13.883
21427W        W92956  32.929  33.747  14.800
21428W        W92957  26.133  20.695   4.731
21429W        W92958   0.927  36.560  14.423
21430W        W92959  19.141  18.009   1.692
21431W        W92960   8.495  36.183  13.022
21432W        W92961  31.457  40.191  13.518
21433W        W92962  23.464  33.343   2.440
21434W        W92963   1.179  43.804   1.132
21435W        W92964  11.726  16.879  10.834
21436W        W92965   0.960  25.250  10.081
21437W        W92966   6.370  28.769   3.677
21438W        W92967   8.273  21.199  14.503
21439W        W92968   0.726  38.588   3.194
21440W        W92969  39.906  34.131   3.208
21441W        W92970  13.245   6.856   2.192
21442W        W92971  38.059  38.916   2.832
21443W        W92972  32.602  23.767   3.952
21444W        W92973  18.638   0.026  12.257
21445W        W92974  22.849   3.310  14.727
21446W        W92975  13.624  44.810  13.359
21447W        W92976  30.641  17.317   5.039
21448W        W92977  16.015  26.886   4.610
21449W        W92978  44.633  37.439  11.746
21450W        W92979   2.761  13.134  11.986
21451W        W92980  25.730  18.268  14.283
21452W        W92981  42.707  18.649  11.963
21453W        W92982  34.021  32.059   4.098
21454W        W92983   0.990  27.169   3.240
21455W        W92984  39.061  23.609  11.469
21456W        W92985  27.324  37.389   2.868
21457W        W92986  38.359  36.137   4.611
21458W        W92987  21.715  13.260   4.627
21459W        W92988  25.218  26.615   3.624
21460W        W92989  12.920  40.826  14.090
21461W        W92990  13.108  20.251  12.715
21462W        W92991  36.518  29.038   1.282
21463W        W92992  10.810  10.833   2.639
21464W        W92993   4.879  15.275   1.152
21465W        W92994  35.871  17.908  14.141
21466W        W92995  24.480  23.617   3.674
21467W        W92996  24.805   3.354   3.185
21468W        W92997  31.282   8.234  11.865
21469W        W92998   6.939  15.454   4.043
21470W        W92999  30.422   7.809   2.710
21471W        W93000  15.213  38.382   1.846
21472W        W93001  19.755  29.088   1.400
21473W        W93002  30.313  33.646   3.251
21474W        W93003  19.034  25.498  14.588
21475W        W93004  36.834  36.207  14.244
21476W        W93005   3.641  12.239   0.601
21477W        W93006  16.991  34.379  11.479
21478W        W93007   4.111  39.420  13.892
21479W        W93008  25.533   5.488  14.846
21480W        W93009   9.803  32.534  14.950
21481W        W93010   3.215  43.539  11.797
21482W        W93011  10.264  15.468   3.924
21483W        W93012  38.875  36.245   1.561
21484W        W93013  31.238   6.607   4.137
21485W        W93014   1.117   3.231  14.868
21486W        W93015  28.110  16.670  10.633
21487W        W93016  29.557  24.223  10.730
21488W        W93017  22.912   0.888  12.435
21489W        W93018  28.402  10.697   1.440
21490W        W93019  26.243   2.448  11.105
21491W        W93020  12.927  37.331  14.786
21492W        W93021  30.609  24.207  10.591
21493W        W93022  30.970  27.231   3.255
21494W        W93023  19.225  44.752  13.118
21495W        W93024  42.669   3.713   2.959
21496W        W93025  12.542  37.844  11.213
21497W        W93026  24.953   7.765   1.222
21498W        W93027  25.926  11.655   3.409
21499W        W93028   2.930  12.035   4.545
21500W        W93029  24.699  12.934  11.068
21501W        W93030  28.369   3.314  13.502
21502W        W93031  15.183  26.913   4.786
21503W        W93032   3.672   6.270   3.345
21504W        W93033   5.748  13.831   0.797
21505W        W93034  33.614  13.704   3.236
21506W        W93035  34.102  18.497   2.070
21507W        W93036  38.049  37.893   2.897
21508W        W93037  39.405   8.417  14.291
21509W        W93038  40.868   5.212  12.569
21510W        W93039   3.278  36.567  10.645
21511W        W93040  30.604  27.911   3.656
21512W        W93041   6.526  34.331   2.930
21513W        W93042  30.267   4.612   2.778
21514W        W93043  37.819   9.140   3.154
21515W        W93044  33.085  19.046   2.647
21516W        W93045  40.909  32.416   2.749
21517W        W93046  38.768  10.664  10.795
21518W        W93047   3.208  37.366   0.042
21519W        W93048  40.279  10.694   1.743
21520W        W93049  39.860  26.937  13.465
21521W        W93050  28.032  26.576  11.623
21522W        W93051  10.178  16.274   0.389
21523W        W93052  39.910  10.814  13.882
21524W        W93053  26.036  24.761   1.284
21525W        W93054  17.617  25.119   4.974
21526W        W93055  31.445  41.387   0.947
21527W        W93056   0.486  33.118   0.297
21528W        W93057  29.254  38.913   3.577
21529W        W93058  31.496  10.258  13.325
21530W        W93059   1.223  34.010  13.024
21531W        W93060   6.188   2.394   1.708
21532W        W93061  17.844   0.807  14.349
21533W        W93062  24.242  16.339   0.001
21534W        W93063  31.003   7.862  13.777
21535W        W93064  43.120   2.681  11.140
21536W        W93065  31.175  41.236  14.917
21537W        W93066   2.907   1.037  11.030
21538W        W93067  11.194  14.873   0.805
21539W        W93068   2.070   0.905  12.944
21540W        W93069   0.471  14.869  11.172
21541W        W93070  13.928  39.085   4.548
21542W        W93071   5.733  11.133   1.544
21543W        W93072  17.210   8.792  11.512
21544W        W93073   8.824  35.971   0.714
21545W        W93074  25.532  42.795  10.437
21546W        W93075  20.104   4.401   4.029
21547W        W93076   6.739  26.485  10.569
21548W        W93077   9.219  41.844   0.281
21549W        W93078  26.582  10.542   0.280
21550W        W93079  42.097  32.621  14.621
21551W        W93080  21.785  44.999  13.620
21552W        W93081  28.964  28.881   0.384
21553W        W93082  43.636  14.393   3.178
21554W        W93083  37.353  11.282   0.934
21555W        W93084  31.520  31.713  11.455
21556W        W93085   4.147   5.307  12.922
21557W        W93086  37.440  37.782  13.967
21558W        W93087  10.768  21.162  12.603
21559W        W93088  43.494   3.103   0.395
21560W        W93089  43.267   7.654   3.160
21561W        W93090  26.544  34.546  10.371
21562W        W93091  14.791  38.294   3.691
21563W        W93092  31.163  14.300   1.858
21564W        W93093  18.676  35.655  11.550
21565W        W93094  15.587  40.291  12.653
21566W        W93095  19.648  11.076  13.126
21567W        W93096   3.729  41.924   2.331
21568W        W93097  10.477  16.216  14.971
21569W        W93098  19.095  19.049  13.920
21570W        W93099  43.582   6.721  13.779
21571W        W93100  44.784  35.464   3.610
21572W        W93101  29.864  42.014   4.610
21573W        W93102  11.374  10.513  10.840
21574W        W93103  23.523  32.473  10.507
21575W        W93104   8.841   1.735   1.894
21576W        W93105  12.365   6.840   3.720
21577W        W93106  39.369  25.589  10.823
21578W        W93107   9.176  41.248   2.667
21579W        W93108  10.355  36.821   2.693
21580W        W93109  26.799  10.380  13.875
21581W        W93110   0.097  39.252   3.176
21582W        W93111  19.903  35.639   0.770
21583W        W93112  33.943  37.044  11.940
21584W        W93113  34.018  40.630   4.092
21585W        W93114  38.732  40.017  12.341
21586W        W93115  36.613   2.946  14.491
21587W        W93116  40.861  17.166  14.252
21588W        W93117  23.668  14.052  13.957
21589W        W93118  34.547  25.798   4.362
21590W        W93119  23.892  40.961  14.930
21591W        W93120  12.949  33.415   5.156
21592W        W93121  33.260  32.668  11.988
21593W        W93122  27.584   6.083  10.470
21594W        W93123  39.970   6.797  11.504
21595W        W93124   4.716  43.262  14.746
21596W        W93125   6.989  43.345   4.539
21597W        W93126   7.709  21.993   5.030
21598W        W93127  26.375  31.525  12.995
21599W        W93128  30.298   8.888  11.638
21600W        W93129   6.031   4.240  11.039
21601W        W93130  27.302  34.978  10.266
21602W        W93131  20.711  30.656  13.932
21603W        W93132  10.690  34.780  12.826
21604W        W93133   6.886  42.700   5.091
21605W        W93134  10.368  25.261  11.062
21606W        W93135   8.079  10.331   3.994
21607W        W93136  19.025   1.913  13.412
21608W        W93137  21.483  23.393   1.261
21609W        W93138   1.209  39.310  14.879
21610W        W93139   9.266  22.373  13.533
21611W        W93140  19.067   7.266  13.408
21612W        W93141  25.124   6.583   2.759
21613W        W93142  25.935  33.037  10.649
21614W        W93143  29.013  40.828  14.229
21615W        W93144  41.740  31.569  12.283
21616W        W93145  24.543   6.264   0.949
21617W        W93146  23.058  36.469   4.695
21618W        W93147   1.535  35.890   1.449
21619W        W93148  36.355  19.351  11.137
21620W        W93149  29.987  18.546  11.226
21621W        W93150  30.905  40.830   1.502
21622W        W93151  29.745   1.743   0.293
21623W        W93152  41.365  43.344   4.721
21624W        W93153   3.337   1.214   3.408
21625W        W93154  37.396  18.198   3.738
21626W        W93155  13.088  40.016   0.487
21627W        W93156  29.994  44.764   3.262
21628W        W93157  36.625  42.109   0.543
21629W        W93158  28.394  26.910  12.083
21630W        W93159   2.866  33.915  11.090
21631W        W93160  36.038   6.790  13.238
21632W        W93161   7.636  29.240  11.533
21633W        W93162  22.253  23.058  12.640
21634W        W93163   2.317  28.181   0.322
21635W        W93164  38.831  28.041   3.210
21636W        W93165  41.364  32.124  14.882
21637W        W93166   1.789   4.949  11.575
21638W        W93167   9.833  21.534   2.402
21639W        W93168  18.210  10.125   4.219
21640W        W93169  15.604  35.912  12.863
21641W        W93170  12.816  33.847  12.332
21642W        W93171  22.220  30.820   0.952
21643W        W93172   8.159   6.400   2.514
21644W        W93173   6.860  28.982  13.356
21645W        W93174  21.488  16.723  12.986
21646W        W93175   6.213  41.400   4.596
21647W        W93176   2.972  20.048   4.499
21648W        W93177  26.583  25.371   3.596
21649W        W93178  19.013  11.221  12.434
21650W        W93179   6.916  17.326  13.237
21651W        W93180  40.402   3.389  14.405
21652W        W93181  20.126   1.363  10.856
21653W        W93182   1.697   6.689  13.042
21654W        W93183  44.920  41.059   1.343
21655W        W93184  26.083  41.332   3.734
21656W        W93185   5.252  34.524  14.804
21657W        W93186   2.759   1.392   1.365
21658W        W93187   3.153  36.010  14.536
21659W        W93188  37.607   8.746   1.597
21660W        W93189  28.331  17.207   4.622
21661W        W93190  16.032   5.886  12.604
21662W        W93191  12.266  35.184  13.460
21663W        W93192  13.253  43.959   3.364
21664W        W93193  40.104  30.132   4.501
21665W        W93194  17.871  18.863  13.397
21666W        W93195  32.663   8.057  13.910
21667W        W93196  22.952  12.179  12.358
21668W        W93197  16.337  13.448  10.236
21669W        W93198  12.555  14.303   1.858
21670W        W93199  10.942  11.266  14.820
21671W        W93200  24.259  41.069  12.030
21672W        W93201  14.316  15.533  13.228
21673W        W93202  40.393  40.440   3.396
21674W        W93203   2.860  24.916  12.504
21675W        W93204  24.119  10.564   0.450
21676W        W93205   5.817   4.402   1.341
21677W        W93206  10.960   0.451   0.965
21678W        W93207  38.605  35.982   2.411
21679W        W93208  12.751  20.132   0.389
21680W        W93209   2.750   3.949   0.299
21681W        W93210  29.951   3.305   3.117
21682W        W93211  43.025  36.227  14.144
21683W        W93212  23.568  35.130   0.290
21684W        W93213  44.951  25.674   4.526
21685W        W93214  31.717  36.725   0.229
21686W        W93215   8.397  12.591  11.500
21687W        W93216  17.862  32.050  14.991
21688W        W93217  17.756  25.619   2.890
21689W        W93218  11.363  29.742  11.145
21690W        W93219  13.189  11.593  10.638
21691W        W93220  29.180  35.620  13.391
21692W        W93221   5.371  37.828   2.199
21693W        W93222  10.664  16.651   0.955
21694W        W93223  38.556  21.601  14.428
21695W        W93224   0.876  16.124  10.819
21696W        W93225  21.890  14.245   2.653
21697W        W93226  41.447  39.177   0.924
21698W        W93227  16.211  41.962   4.647
21699W        W93228  21.338  26.615   4.568
21700W        W93229  31.837  21.218  11.106
21701W        W93230  32.544  24.741  12.401
21702W        W93231   0.359   5.494  14.858
21703W        W93232  19.611  38.540  13.061
21704W        W93233   0.371  20.779   1.742
21705W        W93234  33.415  23.478  12.287
21706W        W93235  39.439   7.978   3.674
21707W        W93236   2.229  24.039   2.676
21708W        W93237   2.880  11.645  12.374
21709W        W93238  18.721  35.675  14.034
21710W        W93239  22.751  22.191   2.359
21711W        W93240   3.744  16.146   3.865
21712W        W93241  34.919  19.992  11.881
21713W        W93242   6.987  33.846  11.620
21714W        W93243   3.263  23.688  11.081
21715W        W93244  18.691   2.204  11.508
21716W        W93245  30.248  33.122   4.078
21717W        W93246  30.727  13.804  11.833
21718W        W93247  41.349  42.295  14.523
21719W        W93248   2.934   5.119   1.690
21720W        W93249   8.948  18.675  12.616
21721W        W93250  13.840  16.613  13.846
21722W        W93251   6.354  33.117   0.335
21723W        W93252  41.470  18.779  12.370
21724W        W93253   1.090  33.270   1.946
21725W        W93254  32.192  33.383   1.945
21726W        W93255  12.667  30.758   3.141
21727W        W93256  17.518   6.231  13.958
21728W        W93257  24.987  40.981   2.169
21729W        W93258   6.358  28.909  14.946
21730W        W93259  16.740  22.574  12.971
21731W        W93260  18.891  14.121  14.128
21732W        W93261  39.840  22.239   0.908
21733W        W93262   0.953   5.495  12.856
21734W        W93263   9.165  38.997  14.952
21735W        W93264  36.084  20.625   4.097
21736W        W93265  10.655  44.430  13.578
21737W        W93266   7.218  32.633  10.773
21738W        W93267  21.199  30.220  12.499
21739W        W93268  15.779   0.367  10.686
21740W        W93269  14.337  11.333   4.886
21741W        W93270  30.226  31.459   2.407
21742W        W93271  24.393  19.097   2.788
21743W        W93272  16.135  23.777   9.999
21744W        W93273  27.723  31.857   3.321
21745W        W93274  24.202  21.741   1.338
21746W        W93275  27.985  32.963   2.811
21747W        W93276   6.152   2.271  14.874
21748W        W93277  40.834  40.033  10.804
21749W        W93278  43.759   5.367   2.907
21750W        W93279  11.242  43.574  13.600
21751W        W93280  11.891  11.390   3.569
21752W        W93281  28.888  41.030   3.252
21753W        W93282  10.224  15.554  11.816
21754W        W93283   5.755  12.391   1.876
21755W        W93284  33.330  41.381   2.942
21756W        W93285   3.770  41.284   3.515
21757W        W93286   6.456  32.959   4.296
21758W        W93287  19.157  31.957   1.700
21759W        W93288  30.389  33.089  13.863
21760W        W93289  32.738  31.574  10.660
21761W        W93290   6.628  12.031   1.400
21762W        W93291  26.108  42.561  10.702
21763W        W93292   7.440  36.880  10.679
21764W        W93293  38.736  15.495  12.475
21765W        W93294  33.392  17.564   1.009
21766W        W93295  33.625  15.289   1.982
21767W        W93296  20.042  11.804   2.168
21768W        W93297   8.593  22.089  12.167
21769W        W93298  32.376  27.643  14.331
21770W        W93299  13.880  16.265  11.078
21771W        W93300  24.991  31.383  14.899
21772W        W93301   1.339  37.100  12.550
21773W        W93302  16.715  40.795  11.971
21774W        W93303  11.749  21.704  12.446
21775W        W93304  22.960  33.941   3.829
21776W        W93305  14.647  38.446  12.790
21777W        W93306  34.160  10.679   4.569
21778W        W93307  36.474   4.928  11.263
21779W        W93308   3.989  42.893  13.810
21780W        W93309   9.392   6.306   4.459
21781W        W93310   1.313   2.148  13.933
21782W        W93311  17.577  12.278   4.619
21783W        W93312  11.389   1.784  12.465
21784W        W93313  20.236  37.517  13.594
21785W        W93314  10.329   6.463   4.669
21786W        W93315  41.895  32.982   4.111
21787W        W93316  25.333   6.105   2.811
21788W        W93317  17.009  39.882   3.240
21789W        W93318  31.871  25.642  14.386
21790W        W93319   9.082  10.253   1.866
21791W        W93320  32.833  13.181   4.588
21792W        W93321  43.374  33.634   0.802
21793W        W93322   8.967  25.702  12.904
21794W        W93323  39.933  13.839  11.182
21795W        W93324   4.889  25.816   5.085
21796W        W93325  43.121  20.155   4.146
21797W        W93326  23.036   3.255  12.462
21798W        W93327   3.727   9.533   4.986
21799W        W93328  32.246   0.445  10.581
21800W        W93329   6.895  34.200  11.207
21801W        W93330   5.729  19.531  11.123
21802W        W93331  20.032  39.784  12.100
21803W        W93332  37.194   6.594  12.548
21804W        W93333   5.602  14.649   1.087
21805W        W93334  21.537  25.347   3.706
21806W        W93335  40.221   2.812  14.760
21807W        W93336  36.611  44.347   4.289
21808W        W93337   6.442  20.260  11.855
21809W        W93338  30.609  10.731  12.099
21810W        W93339  18.913  40.190   0.072
21811W        W93340  37.819  15.253  11.476
21812W        W93341   1.417  32.939   4.588
21813W        W93342   1.813  22.122  13.024
21814W        W93343  12.070  15.568  13.477
21815W        W93344  15.634   5.558  13.397
21816W        W93345  19.407  35.460  10.462
21817W        W93346  26.198   5.295  11.078
21818W        W93347   5.340  20.742  12.012
21819W        W93348   0.985  20.540   4.628
21820W        W93349  44.844   7.255   3.763
21821W        W93350   3.030  38.878   5.127
21822W        W93351  38.775  26.970  11.145
21823W        W93352  37.010  31.466   1.747
21824W        W93353  17.249  13.079  12.446
21825W        W93354  27.074   4.286   1.105
21826W        W93355   1.828  39.518  12.038
21827W        W93356   8.386  28.469   0.763
21828W        W93357  25.267  28.282  13.584
21829W        W93358  13.571  34.944   0.896
21830W        W93359  14.824  29.198  12.797
21831W        W93360   9.328  12.581  12.792
21832W        W93361  36.844  27.577  11.706
21833W        W93362  42.953  12.116  13.923
21834W        W93363  28.661  22.277   4.437
21835W        W93364  14.215  21.282   4.336
21836W        W93365  35.814  38.892   2.812
21837W        W93366  19.556   2.854   2.849
21838W        W93367  10.036  18.550  13.778
21839W        W93368  29.061   1.332   2.776
21840W        W93369  23.302  31.397   0.775
21841W        W93370  24.916  36.065   3.863
21842W        W93371  37.947  20.639  13.647
21843W        W93372  34.308  36.158   1.295
21844W        W93373  11.086  18.759   4.418
21845W        W93374  40.828   8.676  13.896
21846W        W93375  10.393  15.915  14.276
21847W        W93376   0.528  43.705   1.806
21848W        W93377  40.281  11.216  12.059
21849W        W93378  11.627  19.117   1.479
21850W        W93379  32.698  12.110   0.202
21851W        W93380  37.757  36.435  13.874
21852W        W93381  11.094   6.571   3.874
21853W        W93382   4.734  23.040  11.486
21854W        W93383  35.925   0.252   1.826
21855W        W93384  19.656  18.366   2.739
21856W        W93385  11.250  13.411  11.992
21857W        W93386  30.556  11.291  11.869
21858W        W93387  17.502  37.416  12.865
21859W        W93388  13.212  10.419  14.934
21860W        W93389  18.717  22.204   4.509
21861W        W93390  26.429  13.750   3.148
21862W        W93391  27.086  11.675  11.530
21863W        W93392  41.522  16.108  10.930
21864W        W93393   9.460  16.797  11.811
21865W        W93394  19.144  13.849   0.764
21866W        W93395  19.071   6.628   0.011
21867W        W93396  21.852  17.683   4.202
21868W        W93397  34.842  13.657   2.796
21869W        W93398   2.888  35.076   3.169
21870W        W93399  22.550  22.838   4.533
21871W        W93400  43.360  27.350  12.031
21872W        W93401  28.433  11.262   4.631
21873W        W93402   8.724  28.030   1.508
21874W        W93403  43.302   9.384  14.429
21875W        W93404   7.364  41.427  12.405
21876W        W93405   1.241  24.064   3.828
21877W        W93406  10.194  21.154   4.366
21878W        W93407  16.003  26.433  14.875
21879W        W93408  22.009  43.777  14.807
21880W        W93409  24.407  34.771  12.803
21881W        W93410  10.797  44.881   2.614
21882W        W93411  15.085   9.762   2.865
21883W        W93412  12.561  19.409  10.372
21884W        W93413  40.621   7.156  11.101
21885W        W93414   7.403  22.654  12.177
21886W        W93415   7.905   7.710   4.399
21887W        W93416  22.561  41.977  10.517
21888W        W93417   4.838  41.094  10.660
21889W        W93418  39.683  26.524   1.496
21890W        W93419  28.209  35.172   3.407
21891W        W93420  30.460  15.056   3.224
21892W        W93421  38.157  23.030   2.174
21893W        W93422  12.772  19.811   2.198
21894W        W93423  28.875  38.528   4.631
21895W        W93424  41.498  24.070   3.174
21896W        W93425   7.362   3.411   3.609
21897W        W93426  17.844   8.188  12.534
21898W        W93427  38.927  16.210  10.662
21899W        W93428  35.304  17.550   2.731
21900W        W93429  23.701  13.070   1.902
21901W        W93430  33.415  13.855   3.800
21902W        W93431   5.391  29.994   3.340
21903W        W93432   8.708  11.208   3.586
21904W        W93433  23.568  31.434   3.110
21905W        W93434  19.514   0.098   1.032
21906W        W93435  44.060   7.362  13.144
21907W        W93436  31.724  23.611   0.769
21908W        W93437  29.944  33.848   1.252
21909W        W93438  39.172  10.253   4.153
21910W        W93439  44.050   0.817   0.556
21911W        W93440   1.528   5.369   0.920
21912W        W93441  29.476  18.486   2.638
21913W        W93442  16.358  30.431   0.818
21914W        W93443  20.513  43.714   3.707
21915W        W93444  32.626  17.334  11.866
21916W        W93445  12.162  29.270  11.601
21917W        W93446  21.528  42.316  10.667
21918W        W93447  37.971  33.599   2.396
21919W        W93448   8.711   4.696   1.966
21920W        W93449   6.877  27.529   4.297
21921W        W93450   2.022  18.537  11.641
21922W        W93451   0.016   1.942   4.167
21923W        W93452  15.608   8.690   4.184
21924W        W93453   9.196  28.546  11.498
21925W        W93454  33.599  32.616   2.930
21926W        W93455  39.444  11.346   2.168
21927W        W93456  20.239  19.777   3.338
21928W        W93457  24.539  11.458   4.161
21929W        W93458  33.023  31.494  14.438
21930W        W93459  11.551  15.063  14.937
21931W        W93460  11.767   9.153  12.555
21932W        W93461   8.944  38.739   0.769
21933W        W93462  19.826  16.493   0.774
21934W        W93463   7.964   0.181  12.293
21935W        W93464  30.379  26.436  12.989
21936W        W93465  12.940  13.102   1.386
21937W        W93466  16.343  33.804   4.121
21938W        W93467   0.316  15.812   1.225
21939W        W93468  41.020  33.923   0.791
21940W        W93469  15.286  38.404  13.591
21941W        W93470  28.691  35.885  11.075
21942W        W93471   7.497  24.212  10.592
21943W        W93472  34.796  22.680   2.748
21944W        W93473  28.166  20.577  10.798
21945W        W93474  15.668  38.889   1.352
21946W        W93475  31.175   9.826  13.418
21947W        W93476  41.487  22.135   3.362
21948W        W93477   2.670  21.072  10.941
21949W        W93478  37.920  11.228   2.843
21950W        W93479   8.936  14.347   4.081
21951W        W93480   9.745  33.182  11.044
21952W        W93481  37.700  17.757  12.126
21953W        W93482  30.341  43.401   0.798
21954W        W93483  39.231  26.261  12.879
21955W        W93484  40.313   9.428   1.437
21956W        W93485  36.448  25.433   0.247
21957W        W93486  31.836  27.991   2.008
21958W        W93487  38.486  35.634   4.884
21959W        W93488  33.320   4.381  13.810
21960W        W93489   8.562   8.991  12.075
21961W        W93490   1.384   8.677   1.451
21962W        W93491  25.241  18.506   3.304
21963W        W93492   7.618  18.663   1.120
21964W        W93493  31.940  20.930  10.637
21965W        W93494  36.316  42.330  10.992
21966W        W93495  26.308  26.517   0.322
21967W        W93496  15.754  44.643   1.958
21968W        W93497  29.540  14.080  13.923
21969W        W93498  26.737  10.589  11.067
21970W        W93499  35.525   0.846  13.116
21971W        W93500  16.584   5.287   3.232
21972W        W93501  18.748  11.374  13.330
21973W        W93502  33.589  41.582  11.119
21974W        W93503   3.085  28.137  14.440
21975W        W93504   7.133  19.685   2.348
21976W        W93505   1.084  34.446  11.245
21977W        W93506   5.095  10.964  12.953
21978W        W93507   7.392  18.097   0.793
21979W        W93508  21.596  18.541   2.672
21980W        W93509  22.253  10.179   1.825
21981W        W93510  33.835   4.369  12.959
21982W        W93511  30.610  37.259  14.003
21983W        W93512  10.855  25.195   3.348
21984W        W93513  30.492  18.322  14.449
21985W        W93514  20.585  18.306   4.016
21986W        W93515  19.529  30.592  10.786
21987W        W93516  29.221  23.733   1.249
21988W        W93517  31.558   1.842   1.857
21989W        W93518  12.641  29.547   0.322
21990W        W93519  30.713  14.261   2.136
21991W        W93520   1.516   2.328  14.789
21992W        W93521  34.425  36.916  11.204
21993W        W93522  28.697  42.009   2.193
21994W        W93523  30.021  39.999  15.000
21995W        W93524   5.131  18.529   3.925
21996W        W93525   9.569  17.149   2.237
21997W        W93526   1.471  31.661   0.044
21998W        W93527  16.740  36.601  12.038
21999W        W93528   8.760  19.714  11.218
22000W        W93529  29.912  38.529  12.433
22001W        W93530  36.770  40.880  13.438
22002W        W93531  39.858  17.772   3.585
22003W        W93532  13.542   6.376   3.182
22004W        W93533  16.663   4.249   0.217
22005W        W93534  38.575   2.034   0.561
22006W        W93535  23.090   4.660   1.313
22007W        W93536   6.326   0.154  12.526
22008W        W93537  21.128   9.350   1.666
22009W        W93538   6.775  29.320  12.377
22010W        W93539  26.376  27.943   1.406
22011W        W93540  41.589  33.993   3.748
22012W        W93541  10.813  20.915   5.125
22013W        W93542  19.673  11.130   0.729
22014W        W93543  39.280  10.605   4.523
22015W        W93544   6.813  27.398  10.830
22016W        W93545  21.602  20.804  12.598
22017W        W93546  14.979  37.423   3.414
22018W        W93547  25.455  10.029   4.881
22019W        W93548  39.496  14.658   4.510
22020W        W93549  43.694  22.167   4.429
22021W        W93550  34.743  19.686   4.580
22022W        W93551  32.498  19.718  12.997
22023W        W93552  14.963  23.582   4.581
22024W        W93553   9.189   4.892  13.936
22025W        W93554  36.820  17.311  12.391
22026W        W93555  42.456  23.963   0.404
22027W        W93556   9.945   6.291   3.737
22028W        W93557  27.964  41.509   2.157
22029W        W93558   5.857   2.924   0.764
22030W        W93559  29.579  11.365  10.796
22031W        W93560  23.962  22.993   0.430
22032W        W93561   5.395   1.377  13.519
22033W        W93562  35.410  17.508   3.250
22034W        W93563  25.919  29.017   3.142
22035W        W93564  19.998  38.794   1.363
22036W        W93565  44.373   7.619   4.578
22037W        W93566   2.378  32.206  13.075
22038W        W93567  27.012  10.535   3.244
22039W        W93568   6.496  12.914   4.992
22040W        W93569  39.014  12.196  11.470
22041W        W93570  25.655   8.739  12.950
22042W        W93571   1.975  40.066   1.198
22043W        W93572   2.879  29.463   2.384
22044W        W93573  29.136   2.507   2.666
22045W        W93574  20.510  26.631   1.277
22046W        W93575  38.884  31.620   4.221
22047W        W93576  37.014  14.281  11.253
22048W        W93577  11.726  10.698   2.323
22049W        W93578  17.318  11.980  14.542
22050W        W93579  21.329  35.927   1.923
22051W        W93580  31.501  28.051  11.867
22052W        W93581   7.161   6.458   2.363
22053W        W93582   2.201  32.623   0.179
22054W        W93583   5.749  13.236   2.171
22055W        W93584  15.611  22.288  13.955
22056W        W93585   7.697  15.962   4.108
22057W        W93586  35.412  22.983  12.212
22058W        W93587  39.430  30.598  10.954
22059W        W93588  18.040  22.622  10.597
22060W        W93589  27.193  12.267  14.466
22061W        W93590  19.678  36.151  13.845
22062W        W93591  16.124  36.414  10.688
22063W        W93592  33.792  19.176  13.825
22064W        W93593  34.911  21.116   3.626
22065W        W93594  31.594   7.204  13.393
22066W        W93595  36.019  26.021   2.399
22067W        W93596  10.401  16.561  13.323
22068W        W93597  44.402  29.871   0.278
22069W        W93598  20.780  34.444  13.452
22070W        W93599  44.840  21.531   3.362
22071W        W93600   5.200  29.583   0.263
22072W        W93601  36.954  14.097   2.714
22073W        W93602   6.459  37.467   0.853
22074W        W93603  18.533  31.564  10.637
22075W        W93604   9.866  39.023   1.930
22076W        W93605  35.903  29.280   1.741
22077W        W93606   2.735   7.771   2.198
22078W        W93607  42.399  28.186   1.098
22079W        W93608  16.325  34.594   0.490
22080W        W93609  31.424  41.722   1.734
22081W        W93610  34.817   2.043  14.040
22082W        W93611   2.517  38.342  14.280
22083W        W93612  28.542  38.173   3.408
22084W        W93613  35.110   8.785  14.333
22085W        W93614   7.750  42.401  10.593
22086W        W93615   7.775  44.427   4.664
22087W        W93616   9.617   5.272   3.624
22088W        W93617  28.428   8.851   4.200
22089W        W93618  36.086  38.729   3.289
22090W        W93619  11.796  37.516  12.480
22091W        W93620  23.398   2.851   2.577
22092W        W93621  25.161   5.387   4.664
22093W        W93622  19.396   8.935   0.172
22094W        W93623  17.248  26.483   0.494
22095W        W93624  14.243   0.779  12.936
22096W        W93625  41.017  27.595   3.352
22097W        W93626  34.377  29.734  14.942
22098W        W93627   7.341  23.847  12.016
22099W        W93628  14.854  19.034  14.501
22100W        W93629  10.891   4.945  13.053
22101W        W93630  16.874  18.807  13.509
22102W        W93631  34.570   4.695  11.080
22103W        W93632  10.836  35.535   3.211
22104W        W93633  37.623  24.612   1.377
22105W        W93634  17.533  42.368   0.464
22106W        W93635  42.057   1.220  11.186
22107W        W93636   8.375   1.511   1.788
22108W        W93637  32.455   9.616   3.215
22109W        W93638  33.882  24.168   1.830
22110W        W93639  37.844  28.854   4.438
22111W        W93640  36.171  30.856  11.174
22112W        W93641  11.282  26.325  10.427
22113W        W93642  10.130  22.196   3.362
22114W        W93643  34.506  28.991  12.983
22115W        W93644  15.791  23.053  10.411
22116W        W93645  29.496  32.019   3.569
22117W        W93646  43.371  34.591   3.322
22118W        W93647  22.478  43.957  12.610
22119W        W93648  20.575  11.045   0.831
22120W        W93649   8.181  18.274  12.687
22121W        W93650  27.147  29.713   4.088
22122W        W93651   6.732  14.269  11.229
22123W        W93652  21.885  19.827  14.815
22124W        W93653  19.724  21.356  12.952
22125W        W93654  36.883  28.722   2.332
22126W        W93655   1.895  38.603  14.928
22127W        W93656  42.052   4.272   3.536
22128W        W93657  40.375   6.931  14.055
22129W        W93658  25.653  28.052   4.609
22130W        W93659  44.741  27.079  11.705
22131W        W93660  15.506  31.002  12.425
22132W        W93661  11.312  33.202  14.745
22133W        W93662   5.842  18.581   1.664
22134W        W93663  36.369  24.302   0.060
22135W        W93664  34.544  13.919  12.456
22136W        W93665  14.218  11.257  14.655
22137W        W93666  26.707  27.538   3.651
22138W        W93667  34.870  36.014  11.960
22139W        W93668   2.500  30.975  14.034
22140W        W93669  27.790   4.791  10.637
22141W        W93670  10.864  35.907  12.698
22142W        W93671   1.304  28.036   2.896
22143W        W93672  17.356   5.854  11.630
22144W        W93673   0.071   4.157  11.576
22145W        W93674   1.241  36.719  11.624
22146W        W93675  39.969   4.007  14.935
22147W        W93676   5.418   4.211  11.898
22148W        W93677  11.897   7.622  14.141
22149W        W93678   0.294  40.535  14.168
22150W        W93679   0.428  26.284  12.386
22151W        W93680   6.123   5.962   2.859
22152W        W93681   7.445  31.018  14.066
22153W        W93682  15.356  31.480   4.537
22154W        W93683  17.650   9.142  11.557
22155W        W93684  44.517  10.995  13.269
22156W        W93685  39.345  22.998   0.469
22157W        W93686  34.575  40.986   2.050
22158W        W93687  29.619  22.879  11.178
22159W        W93688  41.398  35.841   2.496
22160W        W93689   9.559  10.800  10.566
22161W        W93690   0.267   5.925   2.837
22162W        W93691  34.551  17.331  14.502
22163W        W93692  42.898  35.849  14.458
22164W        W93693  27.503  16.101  14.503
22165W        W93694  33.895  37.154   3.748
22166W        W93695  40.359  35.858   1.341
22167W        W93696  27.006  37.869   0.962
22168W        W93697  15.030  22.203  11.250
22169W        W93698   0.021  39.535  10.670
22170W        W93699  31.301  39.999   1.350
22171W        W93700  23.002   1.790  13.807
22172W        W93701   6.961  27.439  12.457
22173W        W93702   0.026   8.830  12.466
22174W        W93703  22.091  17.296   1.823
22175W        W93704  34.014  27.704   3.258
22176W        W93705   3.906  38.398  13.776
22177W        W93706   2.909  38.041  12.845
22178W        W93707  12.369   1.509   0.325
22179W        W93708  16.683  29.005   3.005
22180W        W93709  19.100  37.848   3.229
22181W        W93710   6.041  36.916   0.084
22182W        W93711  12.320  29.896  10.844
22183W        W93712   1.197   7.831   0.885
22184W        W93713   5.367  14.157  12.044
22185W        W93714  25.594  40.845  13.227
22186W        W93715  26.397  33.093   0.371
22187W        W93716  28.193  34.155  13.866
22188W        W93717  39.748   7.397  13.109
22189W        W93718   5.287  41.867  11.539
22190W        W93719  38.049  39.141   3.847
22191W        W93720  19.331  28.534  11.858
22192W        W93721   1.672  23.579  14.223
22193W        W93722  12.135  21.818  11.171
22194W        W93723  11.692   0.340  14.783
22195W        W93724  18.685  23.806  13.002
22196W        W93725  22.592  33.456   2.384
22197W        W93726   1.772  41.472   2.293
22198W        W93727   9.065  28.435   3.546
22199W        W93728  18.597  10.636   0.268
22200W        W93729   7.386   2.886   2.002
22201W        W93730  40.196   8.311  13.889
22202W        W93731   2.963  44.318   3.882
22203W        W93732  44.008  38.692   0.796
22204W        W93733  34.070  18.577  11.166
22205W        W93734  30.492   0.975   2.181
22206W        W93735   8.210   7.664   2.767
22207W        W93736  31.906  13.701   5.542
22208W        W93737  43.477  11.277  11.235
22209W        W93738   9.325   5.722  10.362
22210W        W93739  39.488  44.310   1.410
22211W        W93740  26.029  17.769  13.364
22212W        W93741  30.480  33.598  11.464
22213W        W93742  17.760   8.184  11.269
22214W        W93743   6.825  18.746   0.456
22215W        W93744   9.958  15.269   0.412
22216W        W93745   0.645  17.101   2.423
22217W        W93746  29.141  12.138  13.329
22218W        W93747   4.262  13.069  13.139
22219W        W93748  15.638  20.457   2.892
22220W        W93749  27.087  38.242   3.322
22221W        W93750  42.084   7.417   2.058
22222W        W93751   6.447   2.397   4.222
22223W        W93752  35.527  23.199   2.693
22224W        W93753  22.283  13.687  14.922
22225W        W93754  11.696  34.513  11.478
22226W        W93755   0.416  43.024   3.609
22227W        W93756  23.862  43.342  12.139
22228W        W93757  16.562   1.005   2.853
22229W        W93758  33.402  34.416  12.153
22230W        W93759   0.932  36.937   2.865
22231W        W93760  34.821   0.970   1.390
22232W        W93761  25.207  25.563  12.090
22233W        W93762  16.191  43.942   2.747
22234W        W93763   7.770  44.461   3.262
22235W        W93764  17.725   1.950  12.944
22236W        W93765  26.716  41.021   4.396
22237W        W93766   3.258  13.703   3.339
22238W        W93767  29.902  24.697  10.807
22239W        W93768  42.559  32.647   0.375
22240W        W93769   0.262  38.315  13.258
22241W        W93770  20.071  39.800   1.279
22242W        W93771  29.958  11.025  10.890
22243W        W93772  38.606  23.918   2.414
22244W        W93773  11.886  37.467  13.393
22245W        W93774   3.300  34.901   0.500
22246W        W93775   6.389   4.964  12.002
22247W        W93776   5.174  12.294   2.205
22248W        W93777  25.683  11.253  10.555
22249W        W93778  34.452  21.253   2.170
22250W        W93779  18.294  22.242  10.309
22251W        W93780  20.552  33.246  13.712
22252W        W93781  30.210  36.963   4.773
22253W        W93782   0.215  26.756  11.126
22254W        W93783  12.344   9.093   0.204
22255W        W93784   8.500  20.193  14.224
22256W        W93785   2.993  16.492  13.388
22257W        W93786  36.937   4.393   2.800
22258W        W93787   6.936  28.688   2.363
22259W        W93788   5.218  39.029  10.743
22260W        W93789  31.162   0.470  14.321
22261W        W93790  31.258  33.115   4.082
22262W        W93791  26.627  42.093   3.620
22263W        W93792  27.557  39.393   4.497
22264W        W93793  22.719  41.003   0.883
22265W        W93794  21.273  32.934   0.405
22266W        W93795   9.408  38.166   0.036
22267W        W93796   9.420  44.697   3.783
22268W        W93797  21.206  12.347   0.947
22269W        W93798  30.016  18.640  14.513
22270W        W93799  28.401  13.414  11.012
22271W        W93800   1.976  35.609   1.644
22272W        W93801  35.961   6.506   3.087
22273W        W93802  44.914  14.727  10.458
22274W        W93803  26.870  27.967   1.237
22275W        W93804   3.575   6.378  11.237
22276W        W93805   2.486  21.989   0.272
22277W        W93806   5.489  40.515  10.382
22278W        W93807  43.308  30.376   1.048
22279W        W93808   5.478  34.112  13.995
22280W        W93809  20.113  21.320  10.374
22281W        W93810  36.200  16.096   0.802
22282W        W93811  11.254  23.028  10.668
22283W        W93812  21.177   1.839  14.053
22284W        W93813  20.395  19.397   3.716
22285W        W93814   3.011  15.101  14.104
22286W        W93815  33.667  35.954  14.566
22287W        W93816   7.784  35.925  12.492
22288W        W93817  29.729  37.561   2.326
22289W        W93818  13.262  10.596  13.707
22290W        W93819  32.894  27.509   3.290
22291W        W93820  34.329  28.931   1.820
22292W        W93821  44.675  25.112  10.661
22293W        W93822   0.648   4.164   3.643
22294W        W93823  34.802  22.337  11.898
22295W        W93824  25.770   4.494   4.182
22296W        W93825   9.067  19.926   5.021
22297W        W93826  35.109  32.034   2.752
22298W        W93827   5.894  19.142  12.328
22299W        W93828  24.901  19.183  12.030
22300W        W93829  25.977   8.072   0.457
22301W        W93830  40.816   1.582   2.632
22302W        W93831  13.781  18.124  14.376
22303W        W93832  35.612  16.846   0.441
22304W        W93833  15.828  15.895   0.819
22305W        W93834  30.186  25.152   1.615
22306W        W93835  14.234  13.674  12.609
22307W        W93836   5.799  21.026  13.995
22308W        W93837  24.469  23.978   1.319
22309W        W93838  25.406   8.391  11.711
22310W        W93839  26.217  28.422   1.781
22311W        W93840  30.264  14.692  14.075
22312W        W93841  17.619  16.294  12.904
22313W        W93842  22.656  31.492  10.165
22314W        W93843   6.238  36.971   1.874
22315W        W93844  29.087  36.022  10.300
22316W        W93845  42.495  23.493  10.958
22317W        W93846  43.712  36.013  13.105
22318W        W93847  13.054  41.910   0.877
22319W        W93848  15.848  32.601   0.525
22320W        W93849  25.480  41.834   2.676
22321W        W93850  17.345   2.890   3.689
22322W        W93851  12.183  18.481  13.525
22323W        W93852  34.341   1.929   0.406
22324W        W93853  19.537  34.545  11.778
22325W        W93854  30.464  20.203  14.139
22326W        W93855  41.512  23.571  14.324
22327W        W93856  18.199   3.986  12.492
22328W        W93857   3.017  31.331  13.285
22329W        W93858  29.560  13.291   3.185
22330W        W93859   3.419  28.418   0.962
22331W        W93860  37.134  31.395  13.027
22332W        W93861  35.631  20.694   3.809
22333W        W93862  38.322  27.194  14.301
22334W        W93863  30.150  11.885  14.719
22335W        W93864  40.596  22.719  11.965
22336W        W93865  38.506  20.721  10.062
22337W        W93866  43.914   7.012   1.928
22338W        W93867  18.347  33.374  12.470
22339W        W93868  17.692   1.666  14.845
22340W        W93869  15.072  34.400   3.753
22341W        W93870  15.209   7.836  10.671
22342W        W93871  13.258  34.107  12.378
22343W        W93872   8.191  40.548  10.662
22344W        W93873   7.336  38.295  12.497
22345W        W93874  39.493  25.044  12.210
22346W        W93875  24.430   9.952   1.239
22347W        W93876  15.550  29.297  12.024
22348W        W93877  42.923  21.236   0.900
22349W        W93878  29.688  18.161   0.705
22350W        W93879  32.910  10.656  13.529
22351W        W93880  20.657  32.654  12.963
22352W        W93881  37.569  26.811  12.419
22353W        W93882  19.246  38.827  14.946
22354W        W93883  28.670   2.989  12.934
22355W        W93884  25.511   8.606   1.717
22356W        W93885  42.334  12.901  10.902
22357W        W93886  42.278  37.639   2.827
22358W        W93887  17.691  35.509  14.364
22359W        W93888   0.602   4.700   0.278
22360W        W93889  14.225  33.229   4.612
22361W        W93890  17.101  10.245  13.875
22362W        W93891  36.989  42.470   2.832
22363W        W93892   0.296   8.550   4.640
22364W        W93893  41.101  19.064   3.824
22365W        W93894  28.840  24.211  11.145
22366W        W93895   3.178  20.065   4.012
22367W        W93896  20.358  29.208  13.064
22368W        W93897  35.215  11.927  14.562
22369W        W93898  24.216  27.715  12.029
22370W        W93899   9.655  23.244   1.998
22371W        W93900   5.261  34.079   2.953
22372W        W93901  31.608  34.100   2.732
22373W        W93902   8.385  29.189  12.957
22374W        W93903  36.513   0.697   4.241
22375W        W93904  30.238  10.129  14.460
22376W        W93905  10.304  25.447  13.994
22377W        W93906   9.347   0.997   3.277
22378W        W93907  20.831  39.461  10.762
22379W        W93908  10.664  26.018   1.290
22380W        W93909   0.506  39.348  11.874
22381W        W93910  18.033  41.298   4.634
22382W        W93911   2.810  30.770  12.070
22383W        W93912  37.567  20.344  11.605
22384W        W93913  40.613  29.227   1.429
22385W        W93914  33.233   6.935  14.183
22386W        W93915  44.389   5.636   3.195
22387W        W93916  32.428  44.120  13.985
22388W        W93917  16.660   1.696   0.804
22389W        W93918   8.693  31.876   1.948
22390W        W93919  28.728  37.070   0.754
22391W        W93920  38.950  16.717  11.523
22392W        W93921  16.832   9.386  11.031
22393W        W93922  39.243  14.757   4.071
22394W        W93923  42.182  39.285  13.980
22395W        W93924   4.715   5.305  12.311
22396W        W93925   6.290   4.411  14.328
22397W        W93926   4.200  22.104   0.908
22398W        W93927  39.122  35.790   2.364
22399W        W93928   5.901  33.718   3.872
22400W        W93929  12.839  28.058   3.615
22401W        W93930  30.408  15.560  13.537
22402W        W93931  29.908   7.603  12.996
22403W        W93932  27.303  13.840  13.376
22404W        W93933  12.773   0.739   5.030
22405W        W93934  36.425   9.219   1.314
22406W        W93935  17.260   5.138   1.781
22407W        W93936  32.397  13.632   3.365
22408W        W93937  42.088   2.732   2.925
22409W        W93938  26.612  12.246  12.994
22410W        W93939  18.777  29.479   0.291
22411W        W93940  18.442  36.486  11.788
22412W        W93941  18.759  29.957  12.572
22413W        W93942  16.196  23.423   4.967
22414W        W93943  33.511  34.446   3.036
22415W        W93944  18.243  34.891   1.555
22416W        W93945  17.277  24.269   0.925
22417W        W93946  15.193  15.741  12.809
22418W        W93947  18.570  14.132  13.166
22419W        W93948   2.326  44.971   3.595
22420W        W93949  38.253  35.037   3.247
22421W        W93950  22.906  27.513   4.278
22422W        W93951  42.859  39.051   0.860
22423W        W93952  40.826  44.709   0.069
22424W        W93953  15.585  12.333  13.059
22425W        W93954  21.961  14.931  11.749
22426W        W93955  26.773  21.042  10.964
22427W        W93956  30.576  36.392   1.301
22428W        W93957  30.066  36.446  14.359
22429W        W93958  23.650  38.789   3.408
22430W        W93959  12.184  31.966   4.641
22431W        W93960  26.585  42.528   0.636
22432W        W93961  24.162   3.407   5.137
22433W        W93962   5.182   5.821   4.387
22434W        W93963   9.749  15.542   0.026
22435W        W93964  41.905  13.588  13.225
22436W        W93965  34.728  39.271  12.235
22437W        W93966  16.607  42.315   3.859
22438W        W93967   3.444  27.582   2.662
22439W        W93968  21.877  42.521   1.891
22440W        W93969  33.843   0.960   3.263
22441W        W93970   8.566  37.435   3.018
22442W        W93971   0.021  34.636   4.144
22443W        W93972  31.888  33.734   0.624
22444W        W93973   1.758  43.894   3.529
22445W        W93974  43.432   6.360  14.138
22446W        W93975  24.726  10.689  12.353
22447W        W93976  33.550  10.108  13.464
22448W        W93977   8.143  21.228   0.833
22449W        W93978  42.281  39.044  12.068
22450W        W93979  44.563   2.129   0.009
22451W        W93980  13.663  26.105  10.797
22452W        W93981  27.616  13.151   0.545
22453W        W93982  44.292   3.712   3.419
22454W        W93983   9.089  36.048   1.170
22455W        W93984  31.670  24.716   1.748
22456W        W93985  28.699  32.045   4.484
22457W        W93986  43.681  16.678   2.495
22458W        W93987  10.297   1.464   0.434
22459W        W93988  42.728  10.200  12.455
22460W        W93989  24.940  16.586  10.497
22461W        W93990  28.119  21.804  13.987
22462W        W93991  15.280  36.004   4.765
22463W        W93992   2.000  16.662   2.764
22464W        W93993  43.906  40.840   1.327
22465W        W93994  32.960   1.005  12.841
22466W        W93995  37.650  23.044   3.572
22467W        W93996  12.831  22.357  11.043
22468W        W93997  20.260   6.836   4.484
22469W        W93998  21.271  18.239   1.432
22470W        W93999  32.416  28.129  14.562
22471W        W94000  27.094  25.643  10.779
22472W        W94001   7.301   6.355   1.880
22473W        W94002   7.951  42.825  13.039
22474W        W94003   8.228  11.950  13.582
22475W        W94004  26.244  20.560   1.736
22476W        W94005  17.209  33.422   1.418
22477W        W94006  21.683  29.140   1.265
22478W        W94007   8.213   0.562  14.976
22479W        W94008  20.120  16.140   0.046
22480W        W94009  24.529   6.044  10.700
22481W        W94010   3.760  39.462  14.715
22482W        W94011  17.116  19.025   2.937
22483W        W94012  29.502  14.285  11.985
22484W        W94013  13.389  23.091   0.876
22485W        W94014  10.764  12.940   2.835
22486W        W94015  21.028  29.580   1.238
22487W        W94016   8.101  12.167  11.549
22488W        W94017  28.383   3.082  11.695
22489W        W94018  10.472  42.579  12.469
22490W        W94019  39.455  32.106  11.220
22491W        W94020   4.462  41.520  14.876
22492W        W94021  36.009   3.336   0.922
22493W        W94022   2.458  43.730   4.294
22494W        W94023  29.484  28.720   3.154
22495W        W94024  38.001  39.376   1.813
22496W        W94025   8.624  43.537   2.947
22497W        W94026  20.750  15.126   2.968
22498W        W94027  44.243  19.149   3.147
22499W        W94028  15.281   4.221   4.361
22500W        W94029  39.278  12.703   3.786
22501W        W94030   1.474  42.891   1.143
22502W        W94031  25.980  42.999   4.930
22503W        W94032  32.467  38.794  10.566
22504W        W94033  35.139   5.635  13.015
22505W        W94034  29.802   4.844   1.627
22506W        W94035  28.399  34.910  10.893
22507W        W94036  20.877  30.085  14.506
22508W        W94037  31.665  27.952  13.333
22509W        W94038  20.917  16.275  12.365
22510W        W94039   8.214  14.785   3.289
22511W        W94040  24.565  15.896   3.897
22512W        W94041   5.165  21.350  13.972
22513W        W94042  16.619  35.596   0.373
22514W        W94043  16.259  31.730   1.999
22515W        W94044  21.318  17.155  13.917
22516W        W94045   5.176  17.560  13.390
22517W        W94046   8.358  37.325  14.132
22518W        W94047  24.412   8.942   1.705
22519W        W94048   9.249  27.281   4.476
22520W        W94049  10.366  23.798  13.440
22521W        W94050  32.465  11.979  11.655
22522W        W94051   1.292  24.507  12.049
22523W        W94052   7.363  22.830  13.483
22524W        W94053  25.433   4.389   1.883
22525W        W94054  42.758   4.470  10.723
22526W        W94055  21.167  25.110  11.914
22527W        W94056   8.309  21.734   2.836
22528W        W94057  13.897   2.411  10.660
22529W        W94058  30.601  11.674   3.930
22530W        W94059  42.026  36.654   2.570
22531W        W94060   6.340   3.694   4.836
22532W        W94061  22.412   6.223  13.376
22533W        W94062   4.713  44.708  13.564
22534W        W94063  22.290  42.971  10.452
22535W        W94064  31.493  36.822   3.384
22536W        W94065   5.753  44.788  12.867
22537W        W94066   6.309  24.476   3.018
22538W        W94067  42.973  24.402  10.982
22539W        W94068  35.854   0.081   0.350
22540W        W94069  23.911   4.861   4.477
22541W        W94070  39.928  28.679  14.901
22542W        W94071  26.967  11.177  11.590
22543W        W94072  39.714   1.402   0.179
22544W        W94073  13.060  34.119  10.544
22545W        W94074  44.374  16.858  12.336
22546W        W94075  25.174  29.528   1.948
22547W        W94076  29.215  23.131  10.994
22548W        W94077   4.312  19.576  11.581
22549W        W94078  23.001  43.424   2.203
22550W        W94079  43.874  26.734   1.776
22551W        W94080   6.556  20.124   3.938
22552W        W94081   8.376  20.579  11.645
22553W        W94082  19.044  29.195  11.476
22554W        W94083  16.589  11.386  13.546
22555W        W94084  38.959  23.354   4.136
22556W        W94085  29.589   1.408  13.592
22557W        W94086   9.274   1.480   1.775
22558W        W94087   1.840  27.096   2.363
22559W        W94088   8.750  30.370  12.114
22560W        W94089   1.267  31.551   0.968
22561W        W94090  38.468  10.748   0.484
22562W        W94091  28.701  43.669  12.339
22563W        W94092  23.512  23.583  13.280
22564W        W94093  21.737  19.313  14.044
22565W        W94094  33.891  27.332  14.318
22566W        W94095  10.275  19.028  13.003
22567W        W94096  19.923  19.699  13.736
22568W        W94097  42.826   4.242   3.213
22569W        W94098  28.110  31.174  14.087
22570W        W94099  22.603   1.744   1.318
22571W        W94100  44.781  19.329   2.743
22572W        W94101  35.288   5.857   0.206
22573W        W94102  34.059   7.443   0.976
22574W        W94103  10.989  37.346  10.412
22575W        W94104  14.745  14.881   2.313
22576W        W94105  44.328  43.953   3.735
22577W        W94106  36.917  10.385   1.411
22578W        W94107   6.610  31.333  11.514
22579W        W94108  29.560  39.306   1.673
22580W        W94109  25.724  18.692  14.585
22581W        W94110  38.070   0.503   1.983
22582W        W94111  18.309  31.065   3.768
22583W        W94112  19.215  37.291  11.028
22584W        W94113  13.835  34.580  13.321
22585W        W94114  13.616   8.407  12.464
22586W        W94115   9.386   5.904  13.740
22587W        W94116  26.172  13.558  11.663
22588W        W94117  21.840  37.782   5.023
22589W        W94118  39.051   5.918  14.767
22590W        W94119  33.365  42.778  14.517
22591W        W94120   1.640  20.217   3.168
22592W        W94121  12.105  42.362   0.038
22593W        W94122  18.113  20.192   1.806
22594W        W94123  40.976  41.437  12.777
22595W        W94124  21.721  35.709  13.290
22596W        W94125   6.302   4.684   3.243
22597W        W94126  32.065  43.927   0.763
22598W        W94127  10.646  26.199  14.210
22599W        W94128  20.011   9.588   4.087
22600W        W94129  29.572  25.222  11.568
22601W        W94130  31.404  39.560  11.181
22602W        W94131  12.765  32.218   1.416
22603W        W94132  44.767  36.627   4.528
22604W        W94133  10.772  15.858   2.773
22605W        W94134  11.446  44.326   1.431
22606W        W94135   6.835  41.393  12.975
22607W        W94136  11.908  11.163  11.844
22608W        W94137  14.807  11.734  13.583
22609W        W94138  23.853  24.411   4.226
22610W        W94139  16.763  23.786   1.845
22611W        W94140  18.311  12.005   2.807
22612W        W94141  26.110  14.317  13.492
22613W        W94142  34.322   9.793  12.452
22614W        W94143  27.970  10.037   3.624
22615W        W94144  21.723  38.504   3.387
22616W        W94145   6.871  41.323  14.721
22617W        W94146  34.396  19.301   1.796
22618W        W94147  29.830  30.423   2.893
22619W        W94148  29.037   9.420  11.923
22620W        W94149  28.010  26.679   3.520
22621W        W94150  41.654   8.391  14.866
22622W        W94151   7.830   5.915  12.590
22623W        W94152  22.472  22.242  14.332
22624W        W94153  37.391  44.410   2.303
22625W        W94154   8.436   1.016  14.051
22626W        W94155  17.641  43.567   2.433
22627W        W94156  26.577  27.011   3.723
22628W        W94157  41.745  16.295   2.898
22629W        W94158  17.350   6.793   0.691
22630W        W94159  19.661  21.861  11.675
22631W        W94160  41.510   3.208  12.094
22632W        W94161  22.731  35.348  11.578
22633W        W94162  24.562  30.716   0.740
22634W        W94163  30.014  10.916   0.346
22635W        W94164  28.438  24.940   4.413
22636W        W94165  40.136  29.193   3.761
22637W        W94166  28.184   1.851   9.995
22638W        W94167  26.145  43.318   4.064
22639W        W94168  34.055  35.677  13.826
22640W        W94169  28.169  24.489   2.644
22641W        W94170  39.655  30.405   1.456
22642W        W94171  44.947  40.900   3.994
22643W        W94172  28.599  13.085   0.575
22644W        W94173  31.013  21.424  14.424
22645W        W94174   1.975  43.952   2.996
22646W        W94175  31.932  26.455  12.150
22647W        W94176  42.624  25.985  13.245
22648W        W94177  35.585   6.305   2.148
22649W        W94178  34.013  37.114  10.992
22650W        W94179  21.151  16.704   4.535
22651W        W94180  17.045  18.355  10.786
22652W        W94181  43.067   4.756   0.217
22653W        W94182  41.935  35.643   4.581
22654W        W94183  34.834  43.921   0.033
22655W        W94184  10.957   6.326  10.584
22656W        W94185  25.155  16.581   3.437
22657W        W94186  39.803  14.634   4.103
22658W        W94187   3.441  11.437  14.931
22659W        W94188  16.719  23.071  12.202
22660W        W94189   2.444  36.858  12.751
22661W        W94190   6.075  16.717   0.866
22662W        W94191   7.829  17.497   5.005
22663W        W94192  12.614   3.739  10.811
22664W        W94193  14.329   7.193   4.354
22665W        W94194  43.335  13.592  13.624
22666W        W94195  12.798  42.943  13.845
22667W        W94196   7.198  26.525  12.409
22668W        W94197  14.726  31.506   3.119
22669W        W94198   9.006  40.105  10.360
22670W        W94199  21.743  35.444   3.847
22671W        W94200  11.875  12.954  12.618
22672W        W94201  12.575  32.038  12.540
22673W        W94202  40.318  24.535  10.657
22674W        W94203  33.281  36.570  11.790
22675W        W94204  20.171  22.125   1.154
22676W        W94205  16.274  42.307   0.947
22677W        W94206   2.274   7.272  14.685
22678W        W94207   8.772   2.213  14.489
22679W        W94208  28.539  33.484   4.340
22680W        W94209  21.306  39.123   3.680
22681W        W94210  34.534   9.325   3.688
22682W        W94211  37.279  36.575   4.202
22683W        W94212  43.958  25.477  14.857
22684W        W94213  37.197   9.249  10.718
22685W        W94214  19.345  20.941  14.071
22686W        W94215  39.272  18.108   0.254
22687W        W94216  43.449  13.127   0.324
22688W        W94217  44.699  11.262   0.903
22689W        W94218   7.841  37.970   4.604
22690W        W94219  34.040   1.716  10.999
22691W        W94220  22.763  44.558   4.534
22692W        W94221  28.705  17.417  10.618
22693W        W94222   1.801   9.840  10.897
22694W        W94223   9.269  12.277  13.505
22695W        W94224  12.326  40.115  12.175
22696W        W94225  20.299  41.466   0.035
22697W        W94226  38.152  25.660  14.865
22698W        W94227   3.276  34.023  11.365
22699W        W94228  10.407  35.127  11.272
22700W        W94229  12.797  38.268  11.313
22701W        W94230  25.615  36.521   2.396
22702W        W94231  26.702  12.290   4.451
22703W        W94232  27.023  41.029  14.369
22704W        W94233  21.338  28.783  13.640
22705W        W94234  13.615   4.397  11.416
22706W        W94235  19.200  23.255   2.718
22707W        W94236  31.647  15.385  13.950
22708W        W94237  28.937  29.482   4.198
22709W        W94238   2.442  23.604   4.593
22710W        W94239  24.178   7.902   1.842
22711W        W94240   0.190   0.498   5.020
22712W        W94241  42.970  27.993  14.329
22713W        W94242  44.039  26.142  14.384
22714W        W94243   9.611  29.819   4.479
22715W        W94244   3.724  22.590   1.285
22716W        W94245  35.971  37.763  12.766
22717W        W94246  26.462  20.204  13.563
22718W        W94247   7.693  37.534   2.423
22719W        W94248  20.557  24.030  13.126
22720W        W94249  15.789   7.567   2.213
22721W        W94250  42.254  21.800  12.628
22722W        W94251   9.441  35.318  14.488
22723W        W94252  41.662  36.360  14.912
22724W        W94253  40.974  41.470  13.307
22725W        W94254   3.716  37.351  13.284
22726W        W94255  24.708  40.866  11.035
22727W        W94256  28.523  31.798   1.258
22728W        W94257   9.348  27.056  11.790
22729W        W94258  18.070   6.881  13.574
22730W        W94259   1.266  38.625   3.176
22731W        W94260  30.251  34.979  12.922
22732W        W94261  27.387  11.668   2.233
22733W        W94262  34.832  27.962  12.617
22734W        W94263  20.091  35.365  11.746
22735W        W94264   0.414  13.187  10.983
22736W        W94265  15.694  31.615  11.807
22737W        W94266   8.793  40.445   1.428
22738W        W94267  18.235  16.185   1.787
22739W        W94268  12.641  44.905   4.423
22740W        W94269  38.878   1.551   2.717
22741W        W94270  10.593  17.959   3.330
22742W        W94271  24.168  29.182   1.628
22743W        W94272  13.779  30.099  12.483
22744W        W94273  44.812  34.671   1.231
22745W        W94274  30.085  30.404   0.980
22746W        W94275  41.018  10.759   3.099
22747W        W94276  38.934  14.326   1.431
22748W        W94277  27.577   9.701   3.330
22749W        W94278  32.616  24.149   2.280
22750W        W94279  34.326  24.174  11.208
22751W        W94280  30.483  16.800   1.461
22752W        W94281  33.585  40.761  12.506
22753W        W94282  18.993  35.783  11.962
22754W        W94283  33.051   8.623   1.249
22755W        W94284   5.338  28.885   2.599
22756W        W94285  38.413   0.592  12.399
22757W        W94286  37.223  32.181  13.760
22758W        W94287   6.497   6.228  11.200
22759W        W94288  43.413  37.978  11.167
22760W        W94289  14.983  22.193   0.686
22761W        W94290  38.900   5.732   3.336
22762W        W94291   3.498  12.065  11.601
22763W        W94292  40.958   9.440   2.715
22764W        W94293  16.797   2.336  12.120
22765W        W94294  42.315  34.936  12.501
22766W        W94295   1.332  38.828  13.833
22767W        W94296  19.856  33.124  14.830
22768W        W94297   3.933  21.940  14.550
22769W        W94298   0.946  18.971  10.944
22770W        W94299   0.573   3.269  11.106
22771W        W94300  29.220  44.788   0.333
22772W        W94301  37.674   3.240   1.374
22773W        W94302   2.262  16.094   4.485
22774W        W94303   6.219  32.611  11.631
22775W        W94304   2.455   4.980  14.265
22776W        W94305  21.241   6.008  12.107
22777W        W94306   7.106   3.977  14.242
22778W        W94307  24.450  32.448  11.600
22779W        W94308  20.206  20.266  12.798
22780W        W94309  23.550  37.930  12.914
22781W        W94310  38.993  15.241   0.977
22782W        W94311  36.838  20.070  13.459
22783W        W94312  23.228  11.141   0.920
22784W        W94313   9.348  27.218   3.526
22785W        W94314  18.847   8.491   3.162
22786W        W94315  39.449  18.297   3.138
22787W        W94316  13.892  17.231   4.200
22788W        W94317  38.334  34.845  12.766
22789W        W94318  26.091  11.836   3.882
22790W        W94319  41.256  16.436   3.721
22791W        W94320  39.974  13.554   2.796
22792W        W94321  14.889   3.814   3.271
22793W        W94322   2.524  15.930  13.847
22794W        W94323   2.331  30.411  12.404
22795W        W94324  11.172  37.951  14.143
22796W        W94325  27.197   2.128  11.325
22797W        W94326  31.620  33.444   1.931
22798W        W94327  22.117  31.115   0.093
22799W        W94328  20.182   6.880   2.570
22800W        W94329  26.483   9.913   2.324
22801W        W94330   2.956  24.899  14.433
22802W        W94331  35.668  42.407   2.768
22803W        W94332  15.307  35.924   3.692
22804W        W94333  40.570  40.272   9.745
22805W        W94334   6.278   9.375   3.838
22806W        W94335  34.504  43.392  13.411
22807W        W94336   5.710  23.310   1.097
22808W        W94337   8.806  21.523  10.966
22809W        W94338   2.010  38.187   2.170
22810W        W94339   0.388   4.939  10.523
22811W        W94340   1.260  17.044  14.322
22812W        W94341  23.676  35.084   1.609
22813W        W94342  39.388  34.374  14.033
22814W        W94343  30.431  20.543  11.856
22815W        W94344   0.880  29.875   4.510
22816W        W94345  28.009  31.174   0.447
22817W        W94346  37.290  35.005   4.065
22818W        W94347  20.484  33.883   0.619
22819W        W94348  29.145  14.207   1.939
22820W        W94349  40.670  19.285  11.018
22821W        W94350  32.966  11.263   1.623
22822W        W94351  14.837  39.482   3.652
22823W        W94352  17.668   6.982  12.526
22824W        W94353  42.800  13.617   1.823
22825W        W94354  19.985  18.126   2.162
22826W        W94355  12.082   0.125   3.221
22827W        W94356  18.411  38.982  10.673
22828W        W94357  28.628   4.477   3.861
22829W        W94358  21.773   3.252   0.958
22830W        W94359  21.221  34.097  11.860
22831W        W94360   1.278  25.664  13.828
22832W        W94361  11.668   0.012  12.268
22833W        W94362  13.908  34.904   1.835
22834W        W94363  22.606   2.815   3.785
22835W        W94364  24.408  23.068   4.386
22836W        W94365  23.681  22.739  13.747
22837W        W94366  20.958  28.605  11.195
22838W        W94367  38.843  39.756  11.410
22839W        W94368  14.732  27.962   4.154
22840W        W94369  36.068   7.770   1.390
22841W        W94370  23.388   6.747   4.051
22842W        W94371  34.705  21.146  11.421
22843W        W94372   2.298  33.498   1.939
22844W        W94373   9.556   2.027  13.490
22845W        W94374  27.043   1.474  12.589
22846W        W94375  31.399   3.223   1.300
22847W        W94376   5.495   2.962  11.360
22848W        W94377  21.721  20.801   3.166
22849W        W94378   5.535  34.431   2.717
22850W        W94379  21.185  41.856  10.634
22851W        W94380  21.834  43.326   0.560
22852W        W94381  38.351  10.641   2.239
22853W        W94382  32.960  39.291   3.799
22854W        W94383  31.404  35.788  13.506
22855W        W94384   6.779  18.330  12.144
22856W        W94385  27.723   7.395   3.212
22857W        W94386  27.913  25.274   2.341
22858W        W94387  10.376  18.671   0.551
22859W        W94388  32.732  22.149  13.345
22860W        W94389   8.884  10.880  11.519
22861W        W94390  10.828  38.458  13.667
22862W        W94391  14.132  43.298  14.490
22863W        W94392  29.839   2.216   1.135
22864W        W94393  31.401   0.369   0.760
22865W        W94394   9.250  23.326   2.336
22866W        W94395  31.936  41.258  11.636
22867W        W94396  21.748  19.156  12.880
22868W        W94397  43.590  34.981  14.866
22869W        W94398  38.925  37.041   2.753
22870W        W94399   7.382  27.549  13.010
22871W        W94400  22.821  32.630   1.011
22872W        W94401  18.056  44.120   0.081
22873W        W94402  32.428  37.056  12.773
22874W        W94403  26.620   0.932   0.503
22875W        W94404   9.332  34.268   4.478
22876W        W94405  13.245  29.878   1.338
22877W        W94406  33.477  27.573   9.826
22878W        W94407  41.966  29.477   1.235
22879W        W94408  31.018  43.505  14.014
22880W        W94409  31.086  25.799  12.912
22881W        W94410  37.882  32.246   4.223
22882W        W94411  38.712  17.315   4.263
22883W        W94412   3.340  10.940  12.650
22884W        W94413  13.757  26.250  13.868
22885W        W94414  43.761   3.311  10.729
22886W        W94415  40.288  13.290   3.817
22887W        W94416   7.345  34.245   3.563
22888W        W94417  43.814   1.310  11.566
22889W        W94418   9.813  13.127  13.317
22890W        W94419  22.232  30.639  14.957
22891W        W94420  31.886  23.334  14.848
22892W        W94421   4.731  13.262  11.988
22893W        W94422   9.179  33.411   4.026
22894W        W94423  25.022  13.741  13.896
22895W        W94424  22.791   6.907  10.512
22896W        W94425  30.497  37.076  12.981
22897W        W94426   9.280  34.696   2.600
22898W        W94427  10.197   4.863  12.340
22899W        W94428  34.353  14.349   2.709
22900W        W94429  26.469  10.825   0.716
22901W        W94430  23.722  40.101   0.724
22902W        W94431   6.384  16.422  10.620
22903W        W94432  28.021   1.934   4.176
22904W        W94433  10.250  41.890   5.361
22905W        W94434   9.930  12.560   1.350
22906W        W94435  24.732  13.331  11.538
22907W        W94436   2.395  11.171  11.344
22908W        W94437  17.766   8.418  13.030
22909W        W94438   6.107   5.169   0.756
22910W        W94439  38.464  41.076  11.198
22911W        W94440  41.337  40.643  11.777
22912W        W94441  13.271  32.950  13.953
22913W        W94442  17.082  32.895  11.236
22914W        W94443   3.194   7.874  11.620
22915W        W94444  41.921   4.670   9.799
22916W        W94445  25.921  33.982  11.197
22917W        W94446  16.996  22.345  11.275
22918W        W94447  40.389  28.866  12.858
22919W        W94448  10.821   5.223   0.409
22920W        W94449   6.949   1.052   1.256
22921W        W94450   5.266  23.066   1.159
22922W        W94451  13.222  42.468   4.277
22923W        W94452  44.717  34.988   3.396
22924W        W94453  35.515  17.044  13.514
22925W        W94454  40.386  28.862   1.797
22926W        W94455  41.885  33.493  12.354
22927W        W94456  23.957  22.761   3.216
22928W        W94457  20.577  44.377  13.421
22929W        W94458  31.151  18.075  13.786
22930W        W94459   9.157  10.808   2.621
22931W        W94460  30.113  11.273  11.583
22932W        W94461  30.427  34.075  14.795
22933W        W94462  39.076  43.538  12.944
22934W        W94463  32.285  43.858   3.175
22935W        W94464  10.579  25.655  11.279
22936W        W94465  19.039  19.175   0.744
22937W        W94466  34.473  20.657   2.837
22938W        W94467  31.657  17.263   0.315
22939W        W94468   9.465  12.118  13.966
22940W        W94469  18.443  10.132   2.676
22941W        W94470  14.317  33.039  11.019
22942W        W94471   4.177  36.532  11.096
22943W        W94472  27.257   0.521   0.616
22944W        W94473  44.102   9.317  13.972
22945W        W94474  29.606  27.669  13.924
22946W        W94475   1.438  40.680   1.225
22947W        W94476  40.686  43.376  11.872
22948W        W94477  10.624   9.793  11.803
22949W        W94478  19.352  43.333  13.117
22950W        W94479  12.603  37.659   9.946
22951W        W94480  36.352  19.297   5.198
22952W        W94481   1.854   3.540  10.669
22953W        W94482  17.115  18.593   0.020
22954W        W94483  44.187   0.022   1.076
22955W        W94484  34.199  38.936  12.088
22956W        W94485  27.333  42.722  10.121
22957W        W94486  28.730  18.486   4.821
22958W        W94487  28.663   5.945  11.338
22959W        W94488  43.823  27.759  10.695
22960W        W94489   3.694   4.467  11.093
22961W        W94490  38.833  30.690  14.014
22962W        W94491  33.076   9.251  12.447
22963W        W94492  18.092  16.655  11.551
22964W        W94493  41.468  37.848   1.246
22965W        W94494  10.282  28.109  13.445
22966W        W94495  18.600  11.875   3.245
22967W        W94496   1.579  40.040   3.969
22968W        W94497  21.572  36.513   3.353
22969W        W94498  38.946  29.573  14.616
22970W        W94499   5.743  38.426  13.057
22971W        W94500  44.512  27.116  13.561
22972W        W94501  32.224  18.752  12.035
22973W        W94502  39.529  36.561  12.419
22974W        W94503  39.143  36.588   0.614
22975W        W94504   4.951  14.220  13.321
22976W        W94505  17.723  30.677   4.185
22977W        W94506   0.191  21.113  12.923
22978W        W94507   8.869  23.449  11.604
22979W        W94508  13.195  18.007   4.389
22980W        W94509   7.910  10.340  11.236
22981W        W94510  13.721   4.808  12.738
22982W        W94511   5.101   1.790  11.126
22983W        W94512   7.287  22.301   4.040
22984W        W94513  22.078  35.793  12.886
22985W        W94514  38.855  13.574  10.813
22986W        W94515  25.246  13.716   2.297
22987W        W94516  13.474  24.704   0.201
22988W        W94517  42.041  35.843   3.640
22989W        W94518  19.556  18.567   3.323
22990W        W94519  42.569  25.561   2.979
22991W        W94520  38.494  12.186   0.638
22992W        W94521  42.593  15.895  14.250
22993W        W94522   7.844  31.201  11.624
22994W        W94523  32.504  34.398   3.324
22995W        W94524  12.611   8.274  12.504
22996W        W94525  13.042  18.300  13.745
22997W        W94526   4.394   5.813  12.935
22998W        W94527  22.484  18.305  10.331
22999W        W94528   7.828  28.891   4.647
23000W        W94529  11.359  34.175  10.644
23001W        W94530  18.098  43.943   1.858
23002W        W94531  12.029  41.386   1.495
23003W        W94532  13.513  38.030  13.822
23004W        W94533  11.359  26.396   1.279
23005W        W94534  36.805  25.487  14.385
23006W        W94535  31.212  44.530  10.670
23007W        W94536  12.684   7.295   2.693
23008W        W94537  42.523   9.336   3.360
23009W        W94538  39.502   9.765   3.302
23010W        W94539  14.083  38.304  11.517
23011W        W94540  43.018  24.135  11.726
23012W        W94541  26.222   0.816   3.259
23013W        W94542  33.962   3.917   0.934
23014W        W94543  23.913  14.030   2.384
23015W        W94544  26.203  12.256  12.459
23016W        W94545  36.109   4.173  10.813
23017W        W94546  41.930  32.466   1.612
23018W        W94547   7.817  37.637  12.147
23019W        W94548  15.201  32.145  14.791
23020W        W94549   4.779  14.352   0.856
23021W        W94550  13.723  21.873   3.625
23022W        W94551  12.171  13.268  12.028
23023W        W94552   5.522  43.527   3.313
23024W        W94553  35.728  22.354   2.820
23025W        W94554   0.790  27.419   3.642
23026W        W94555  39.408  24.186  12.179
23027W        W94556   3.718  25.619  11.198
23028W        W94557  11.370  39.272   1.701
23029W        W94558  36.762  36.984  11.992
23030W        W94559  11.409  35.098   4.459
23031W        W94560  33.231  18.135   2.181
23032W        W94561  40.223  25.059   2.840
23033W        W94562  17.673   0.007  11.555
23034W        W94563  33.987   2.710  10.611
23035W        W94564   5.249  33.094   2.730
23036W        W94565  13.770  34.456   4.052
23037W        W94566  37.125   8.742  12.423
23038W        W94567  10.182  28.226  11.583
23039W        W94568  18.139  44.974  13.745
23040W        W94569   4.323  18.700   2.474
23041W        W94570   8.114  20.165  13.854
23042W        W94571  13.490  17.684   0.463
23043W        W94572  18.262  30.054   2.044
23044W        W94573   6.887  25.086  10.420
23045W        W94574   2.209   8.302  14.094
23046W        W94575  42.979   3.143  13.443
23047W        W94576   7.211   4.679   1.398
23048W        W94577  37.065   4.755  10.639
23049W        W94578  33.468   7.217   4.553
23050W        W94579  36.362  42.873   0.299
23051W        W94580   2.761  36.167  11.143
23052W        W94581  14.171  36.362   3.135
23053W        W94582   0.009  40.126   1.269
23054W        W94583   9.461  11.612   1.471
23055W        W94584  23.617  14.815   2.325
23056W        W94585  14.860  43.879  11.498
23057W        W94586  21.006  30.589   0.491
23058W        W94587  21.996  24.689  13.045
23059W        W94588  13.842  12.678   0.665
23060W        W94589  35.697  10.826   0.323
23061W        W94590  23.580  24.789   4.452
23062W        W94591  39.341   6.606  13.073
23063W        W94592  10.844  11.127  13.894
23064W        W94593  42.742   5.208   0.403
23065W        W94594  33.569   9.893  13.002
23066W        W94595  10.433  22.967   4.727
23067W        W94596  22.136   5.307  10.832
23068W        W94597  15.191  37.436  10.152
23069W        W94598  29.091  24.467  10.746
23070W        W94599   6.685  24.017   3.816
23071W        W94600  31.590  21.200   4.868
23072W        W94601  30.166  16.533   9.720
23073W        W94602  35.535  24.514   1.607
23074W        W94603  10.812   5.903  11.570
23075W        W94604  31.077  11.344   1.906
23076W        W94605  24.207  17.170  10.515
23077W        W94606  41.998  31.607   1.608
23078W        W94607  11.710   5.285   3.394
23079W        W94608  43.868   0.920  11.908
23080W        W94609   0.317  12.156   0.593
23081W        W94610  35.028   4.471  10.939
23082W        W94611  21.205  38.660  11.603
23083W        W94612   0.822  17.253   0.116
23084W        W94613  43.771  31.464  14.837
23085W        W94614  20.758   7.337  13.063
23086W        W94615  21.993  29.451  13.741
23087W        W94616   5.800  13.500  14.825
23088W        W94617  11.761  36.598  13.536
23089W        W94618  21.090  32.569   1.764
23090W        W94619  11.946   2.403   1.388
23091W        W94620  31.097  36.779  12.826
23092W        W94621  31.869  16.075  12.080
23093W        W94622  29.956  21.613  11.144
23094W        W94623  22.782  14.201   3.138
23095W        W94624  27.586   5.115   1.310
23096W        W94625  26.590  44.081   2.663
23097W        W94626   6.394  41.349   0.207
23098W        W94627  34.754  20.468   3.266
23099W        W94628  28.714  19.520  14.747
23100W        W94629  43.759  18.580   0.993
23101W        W94630  32.026  11.630   3.182
23102W        W94631  14.801  29.044  14.016
23103W        W94632  18.144  11.180   0.425
23104W        W94633  11.791  23.719   0.843
23105W        W94634  41.760  28.330   1.430
23106W        W94635  12.250  35.124   3.854
23107W        W94636  20.345  28.902   2.686
23108W        W94637   5.970  20.419   2.178
23109W        W94638  32.489  19.089  14.343
23110W        W94639  20.631   4.305   1.994
23111W        W94640  21.834  31.578   4.499
23112W        W94641  24.626   4.799   0.743
23113W        W94642  36.355  34.361  13.489
23114W        W94643  40.870  22.089   3.681
23115W        W94644  28.629  15.127   2.256
23116W        W94645  13.254  34.509   0.968
23117W        W94646  34.984  17.141   2.561
23118W        W94647  30.052  23.018  14.371
23119W        W94648  39.712  16.169  12.088
23120W        W94649  14.089  22.786   2.495
23121W        W94650  27.580   3.072   4.729
23122W        W94651  32.573  42.183  10.447
23123W        W94652  32.807   0.089   3.362
23124W        W94653  13.679  34.962  12.522
23125W        W94654  42.745  41.745  14.844
23126W        W94655  31.401   9.936   4.157
23127W        W94656  43.752  40.761  11.665
23128W        W94657  38.614  32.664  14.817
23129W        W94658   8.337  23.650  12.776
23130W        W94659   6.422  14.370  10.481
23131W        W94660   2.871  25.044  10.321
23132W        W94661   8.011  11.387  12.139
23133W        W94662  43.091   6.693  14.970
23134W        W94663   2.920  35.265   1.835
23135W        W94664  43.584   7.781   4.654
23136W        W94665  29.370  23.687   0.456
23137W        W94666   6.875  28.472  11.995
23138W        W94667  34.935  16.858   3.877
23139W        W94668  24.411  14.552   2.800
23140W        W94669   8.454   8.963  11.164
23141W        W94670  40.580  30.005   4.326
23142W        W94671   0.272  16.169  13.981
23143W        W94672   1.463  18.856   4.132
23144W        W94673  13.869  36.931  11.340
23145W        W94674  41.258  16.552  10.763
23146W        W94675   2.819  34.735  12.295
23147W        W94676  28.729  14.103   3.400
23148W        W94677  35.405  43.425  14.517
23149W        W94678   3.245   0.755   1.213
23150W        W94679  38.114  15.378   2.566
23151W        W94680  32.609  39.290   0.359
23152W        W94681  17.088  13.261   0.881
23153W        W94682  25.215  25.662   4.127
23154W        W94683  22.697  42.498   2.786
23155W        W94684  17.196  24.446   2.302
23156W        W94685  43.491  27.442  13.846
23157W        W94686  41.467  21.261  10.368
23158W        W94687  30.072  42.453  13.278
23159W        W94688   6.340  32.013   1.123
23160W        W94689  16.411  35.905  13.844
23161W        W94690  19.093  26.873  10.196
23162W        W94691  37.130  29.170  13.054
23163W        W94692  10.895  43.860   4.038
23164W        W94693   8.721  12.129   0.819
23165W        W94694  24.700   5.242  14.397
23166W        W94695   5.957  42.423  10.874
23167W        W94696  24.764   0.925  14.404
23168W        W94697  30.502   8.379  10.734
23169W        W94698  10.199  41.827   0.939
23170W        W94699   5.518  16.685  12.876
23171W        W94700  12.716  18.179  10.936
23172W        W94701  12.800  44.120  10.702
23173W        W94702   3.344   5.459   1.241
23174W        W94703  23.743  41.002  12.095
23175W        W94704  24.065   8.870   3.956
23176W        W94705  10.384  35.905   4.360
23177W        W94706   8.944  40.739  12.731
23178W        W94707  20.921   4.235  12.881
23179W        W94708  38.088   7.384   1.038
23180W        W94709  39.984  12.013   0.449
23181W        W94710  19.521  26.994   3.694
23182W        W94711  13.734  14.156   1.812
23183W        W94712  29.628  37.259  12.513
23184W        W94713  44.347  29.643  12.698
23185W        W94714  24.815   5.339   1.263
23186W        W94715  41.960  40.996  13.526
23187W        W94716   7.389  23.455   3.667
23188W        W94717  24.669  31.953  11.370
23189W        W94718  16.556  17.812   3.616
23190W        W94719  19.617  31.533   3.933
23191W        W94720  30.463   6.551  11.914
23192W        W94721  42.551   6.919  11.954
23193W        W94722  38.508  36.686  12.597
23194W        W94723  44.440  42.615   4.581
23195W        W94724  40.383   6.816   3.624
23196W        W94725  34.518   1.752  14.361
23197W        W94726  40.678   0.260   4.280
23198W        W94727   7.921  10.323  14.965
23199W        W94728  24.281   5.858   0.735
23200W        W94729  10.979  34.527   3.291
23201W        W94730  29.542  23.995   3.803
23202W        W94731  11.308   8.283   2.309
23203W        W94732  18.369   3.189  12.012
23204W        W94733  13.793  27.820  12.388
23205W        W94734   6.282  30.154   0.708
23206W        W94735  16.326  37.004   3.878
23207W        W94736  43.886  31.319  13.836
23208W        W94737  37.709  28.583   0.509
23209W        W94738   1.492   6.814  10.522
23210W        W94739  35.955  16.867  14.351
23211W        W94740  40.736  23.462   4.158
23212W        W94741   6.698  20.359   2.773
23213W        W94742  10.647  19.780  12.501
23214W        W94743  17.525  29.417   2.843
23215W        W94744   1.467  24.742  11.158
23216W        W94745  17.300  21.159   2.358
23217W        W94746  35.952   7.865   2.431
23218W        W94747  39.473  28.124  10.671
23219W        W94748   6.918   2.941   3.391
23220W        W94749  41.318  26.614  14.941
23221W        W94750  42.799  29.229   2.363
23222W        W94751  22.524   4.217   3.311
23223W        W94752   4.938   9.585   1.587
23224W        W94753  25.198  38.632  13.327
23225W        W94754  43.023  25.603   1.720
23226W        W94755  41.873  44.193  13.972
23227W        W94756  23.566  33.874  14.927
23228W        W94757  14.071  18.531  14.048
23229W        W94758  40.049   4.509  14.923
23230W        W94759  36.337  12.098   1.385
23231W        W94760  42.266  13.860   4.138
23232W        W94761  11.902  24.096  12.039
23233W        W94762   2.976  27.604  10.534
23234W        W94763  22.186  26.049   1.677
23235W        W94764  24.966   7.195   1.811
23236W        W94765  29.752  33.980   1.948
23237W        W94766  31.349  35.046   2.723
23238W        W94767  40.417  44.207   2.135
23239W        W94768  41.192   0.679  13.482
23240W        W94769  30.525   7.337   1.424
23241W        W94770  14.747  22.259  12.111
23242W        W94771  17.644  19.806  14.353
23243W        W94772   1.699  13.197  14.266
23244W        W94773  19.180  24.905   0.499
23245W        W94774  30.405  28.010  11.109
23246W        W94775  37.365  38.398   4.699
23247W        W94776   7.609  29.648  12.403
23248W        W94777  13.736   5.788   2.763
23249W        W94778  18.063   2.536   1.749
23250W        W94779   0.240  40.975   1.804
23251W        W94780  41.889  16.053  12.467
23252W        W94781  24.164  17.664   4.384
23253W        W94782   1.294   9.863  13.037
23254W        W94783   2.946   8.882  12.070
23255W        W94784  11.472   9.984  12.477
23256W        W94785   0.474  16.799  13.102
23257W        W94786  12.250  36.902  12.148
23258W        W94787  44.438   8.303  12.954
23259W        W94788  34.000  13.740  10.775
23260W        W94789  28.414  23.540   0.768
23261W        W94790  36.043  43.318   0.910
23262W        W94791  12.915  43.510   2.396
23263W        W94792  39.097  11.371   3.760
23264W        W94793  21.264  37.835   1.315
23265W        W94794  39.215   0.205  13.085
23266W        W94795  16.035  28.262  12.641
23267W        W94796  38.797  35.546  12.129
23268W        W94797  14.770   0.520  10.747
23269W        W94798  31.058   4.477   0.296
23270W        W94799  12.770  37.458  11.508
23271W        W94800  10.577  20.983   4.646
23272W        W94801  26.724  14.805  13.626
23273W        W94802  27.660  33.004   1.197
23274W        W94803  34.997  34.842   1.758
23275W        W94804  37.125   3.397   4.376
23276W        W94805   3.855  12.800   0.364
23277W        W94806  15.178  11.827  12.449
23278W        W94807  34.977  39.932  13.977
23279W        W94808   1.762  37.116  14.815
23280W        W94809  23.545  37.199  13.621
23281W        W94810  42.302  40.376   0.981
23282W        W94811  27.670  31.337   0.093
23283W        W94812  27.158  34.086   0.370
23284W        W94813   0.528   6.165  11.193
23285W        W94814   6.086  37.447   0.230
23286W        W94815  13.305  19.477   4.174
23287W        W94816  34.137  43.044   2.182
23288W        W94817  20.012  24.413   0.997
23289W        W94818  29.251  41.502   3.333
23290W        W94819  38.114  15.654  11.623
23291W        W94820   2.705  20.115   3.143
23292W        W94821   8.678  21.644  14.705
23293W        W94822   7.387  31.571   2.184
23294W        W94823  23.625   7.032  14.040
23295W        W94824   4.806  14.611   3.539
23296W        W94825  44.806   6.193  10.802
23297W        W94826  15.528  41.113   3.074
23298W        W94827  37.539  27.940  13.537
23299W        W94828  20.142  41.129   4.095
23300W        W94829  28.211  42.870   3.819
23301W        W94830  44.060   3.784   0.082
23302W        W94831   5.429   2.349   4.939
23303W        W94832  37.104  23.695  12.396
23304W        W94833   3.890  27.747   1.346
23305W        W94834  13.609  14.793  11.860
23306W        W94835   0.872  23.658  14.812
23307W        W94836  22.359  32.073   3.222
23308W        W94837  10.371  10.924  13.991
23309W        W94838  25.796  12.680   2.696
23310W        W94839  32.179  26.108  13.578
23311W        W94840  22.055   8.411   1.564
23312W        W94841  10.587  11.693   3.204
23313W        W94842  22.751   7.137   2.956
23314W        W94843  43.282  23.248  11.578
23315W        W94844  43.793  36.518   0.608
23316W        W94845  36.914  29.502   4.804
23317W        W94846  10.569  35.101   3.340
23318W        W94847  42.148  24.243  13.199
23319W        W94848  28.858  40.360   2.961
23320W        W94849  39.911  19.113   1.157
23321W        W94850  41.874   8.962   1.780
23322W        W94851  26.066  37.404  12.076
23323W        W94852   9.645  28.614  13.868
23324W        W94853   1.573   6.126  13.971
23325W        W94854   2.253   7.669   4.387
23326W        W94855   6.927  24.642   2.264
23327W        W94856  27.899   1.073  12.460
23328W        W94857   3.212  31.189   3.647
23329W        W94858  32.802  19.534   3.662
23330W        W94859  16.695  40.757   1.834
23331W        W94860  40.993  16.259   4.534
23332W        W94861   8.623   6.656   1.791
23333W        W94862  26.150  43.497   2.559
23334W        W94863  35.516  21.013  11.487
23335W        W94864  12.815  24.692   0.837
23336W        W94865   0.491  26.224  14.501
23337W        W94866  10.679  20.732  12.887
23338W        W94867  27.289  36.468   1.725
23339W        W94868  22.220  17.154  12.803
23340W        W94869  14.033  20.224  10.199
23341W        W94870  27.224   3.240  10.098
23342W        W94871  16.718  40.570  10.848
23343W        W94872  12.700  16.186  12.640
23344W        W94873  41.143  22.358   1.681
23345W        W94874  14.184  14.404   1.935
23346W        W94875  41.753  11.594   3.223
23347W        W94876   6.367   7.280   2.702
23348W        W94877  30.941  15.661   0.597
23349W        W94878   0.716  23.465   4.140
23350W        W94879  36.130  22.180   0.636
23351W        W94880   8.643  19.075  12.420
23352W        W94881   3.263  32.207  12.809
23353W        W94882   9.089  18.028   2.250
23354W        W94883   0.731   4.497  12.678
23355W        W94884   1.821  42.564   1.379
23356W        W94885  10.384   6.680  11.486
23357W        W94886   1.793  37.086  13.842
23358W        W94887   9.850   3.666  12.443
23359W        W94888  37.527  11.308   3.802
23360W        W94889  17.187  42.067  13.975
23361W        W94890  32.515  28.461   1.870
23362W        W94891  27.697  25.148   4.798
23363W        W94892  15.166   9.318   0.393
23364W        W94893  14.578   2.007   2.627
23365W        W94894   8.366  38.771  11.825
23366W        W94895   9.830  14.709  14.707
23367W        W94896  22.951  25.996  14.932
23368W        W94897  17.637  26.436  13.859
23369W        W94898  18.673  18.177  12.161
23370W        W94899  44.013  18.951  11.560
23371W        W94900  13.323  15.550  13.471
23372W        W94901  22.461   0.874   4.117
23373W        W94902   4.413   2.060   1.435
23374W        W94903  18.678  26.258  10.595
23375W        W94904  26.117  42.332   0.654
23376W        W94905  16.603   5.455   2.359
23377W        W94906   5.889  38.876  12.346
23378W        W94907   6.622  14.811   0.829
23379W        W94908  11.670   3.820  12.898
23380W        W94909  36.404  31.689  10.541
23381W        W94910   8.231   8.946   2.794
23382W        W94911  17.591  42.928  14.830
23383W        W94912  40.724   6.918   4.453
23384W        W94913  15.181  26.555  10.618
23385W        W94914  39.072  22.082   3.677
23386W        W94915   5.895  35.575  10.420
23387W        W94916  23.687  21.265   0.003
23388W        W94917  33.634  11.894  14.837
23389W        W94918   8.388  37.076   1.045
23390W        W94919  24.508  27.693   1.149
23391W        W94920   1.337  38.313   1.715
23392W        W94921   7.274   9.289   1.265
23393W        W94922  44.931  40.626  14.906
23394W        W94923   6.892  41.901   4.573
23395W        W94924   4.384  21.183   4.413
23396W        W94925  19.994  33.928  13.288
23397W        W94926  43.377  25.688  13.830
23398W        W94927  27.065   2.677  12.556
23399W        W94928  26.960  16.787   3.690
23400W        W94929  25.278  36.415   2.024
23401W        W94930   4.992  14.778  11.599
23402W        W94931  44.854   6.024   0.746
23403W        W94932  29.739  41.414   3.211
23404W        W94933   3.181  42.879   3.126
23405W        W94934  14.742  15.803  14.553
23406W        W94935  44.922   1.302   4.683
23407W        W94936  18.305   0.385   4.230
23408W        W94937  31.857   8.525  12.895
23409W        W94938  19.770  18.832   2.931
23410W        W94939   2.645   8.623  13.885
23411W        W94940  19.424  34.364   1.297
23412W        W94941  42.861  12.511  11.290
23413W        W94942  42.576  12.138   0.113
23414W        W94943   5.077  44.612   0.037
23415W        W94944  30.793  12.612  14.389
23416W        W94945  11.328  42.754  12.946
23417W        W94946  12.067  25.959  12.385
23418W        W94947   8.249  22.412   2.339
23419W        W94948  18.718  26.211   1.549
23420W        W94949   8.831  17.321   3.036
23421W        W94950  26.513  30.087  12.876
23422W        W94951  12.718  28.979  14.595
23423W        W94952  11.431  41.365   2.305
23424W        W94953  19.349  15.767   1.225
23425W        W94954  22.231  28.340  12.142
23426W        W94955  35.630  23.132  12.685
23427W        W94956   4.900  18.956   1.318
23428W        W94957  33.317  19.482   0.486
23429W        W94958  29.058  13.328   3.038
23430W        W94959  39.337  12.250   4.754
23431W        W94960  15.247  28.351  10.988
23432W        W94961  29.878  34.837   3.895
23433W        W94962   9.784  24.497   4.108
23434W        W94963   4.906  25.438  14.742
23435W        W94964   7.209  27.791   2.356
23436W        W94965  39.502  19.971  13.357
23437W        W94966  39.817  20.054  14.997
23438W        W94967  10.662  12.358  12.540
23439W        W94968  26.953  15.327  14.391
23440W        W94969  24.099  43.827   1.331
23441W        W94970  30.250  35.420  14.183
23442W        W94971  42.572   3.866   1.106
23443W        W94972   0.233  11.562  13.378
23444W        W94973  14.746   4.253   2.568
23445W        W94974  18.110   9.834   3.618
23446W        W94975   6.193  37.702   2.599
23447W        W94976  23.096  14.591   2.484
23448W        W94977   2.747  25.120   0.418
23449W        W94978  11.360  23.277   0.245
23450W        W94979  39.096   8.812  14.928
23451W        W94980  10.357  40.398  12.855
23452W        W94981   0.465  39.593  10.920
23453W        W94982  25.701   9.724  10.361
23454W        W94983  39.874  42.901  13.921
23455W        W94984   6.372  24.244  14.720
23456W        W94985  42.953  11.121  11.523
23457W        W94986  40.261  19.357   5.050
23458W        W94987  16.316  39.881   4.505
23459W        W94988  41.173  25.076   0.877
23460W        W94989  33.917  16.655  12.457
23461W        W94990   3.880  36.277  10.754
23462W        W94991  36.948  40.276   1.472
23463W        W94992   5.520  13.845  13.482
23464W        W94993  25.690   5.822  12.596
23465W        W94994  33.043  12.623   2.393
23466W        W94995  14.167  20.047   4.142
23467W        W94996  34.020  17.122   2.260
23468W        W94997  32.564  17.998  11.636
23469W        W94998  17.098  16.745   1.908
23470W        W94999  22.544   5.936  12.460
23471W        W95000  26.470  11.431  11.478
23472W        W95001  23.506   3.356   2.345
23473W        W95002  26.975  34.704   3.827
23474W        W95003  10.769  37.415  11.399
23475W        W95004   2.513   5.368   3.264
23476W        W95005  36.011  30.715   5.217
23477W        W95006  13.200  15.072   0.151
23478W        W95007  34.060  44.478  14.001
23479W        W95008   1.367   4.870  13.602
23480W        W95009  21.683  36.054   1.260
23481W        W95010   5.780  28.048  12.884
23482W        W95011  27.475   9.717  11.586
23483W        W95012  40.115  21.184  13.363
23484W        W95013  35.644  26.560  12.751
23485W        W95014   6.283  29.253  14.091
23486W        W95015  38.119  19.781   2.912
23487W        W95016  18.111  42.771  14.991
23488W        W95017   6.901  33.185  11.051
23489W        W95018  30.033   7.714  14.031
23490W        W95019   1.777  12.801   0.353
23491W        W95020   6.893   8.454   1.377
23492W        W95021   0.331  17.093   0.145
23493W        W95022  17.816  12.730   0.744
23494W        W95023  19.328   2.433  13.968
23495W        W95024   5.900  33.389  14.842
23496W        W95025  18.600  35.945   9.997
23497W        W95026   1.035   7.730   4.105
23498W        W95027  31.617   5.145  12.559
23499W        W95028  13.008  42.012   4.591
23500W        W95029  34.250  12.590   3.347
23501W        W95030  33.684  42.539   3.736
23502W        W95031  23.242  44.262  13.141
23503W        W95032  12.174  26.629  10.720
23504W        W95033   5.711   7.354  12.040
23505W        W95034   5.356   5.234  11.681
23506W        W95035  29.255  41.084   4.079
23507W        W95036  34.239  42.999  12.575
23508W        W95037  40.286  12.466   3.683
23509W        W95038  32.314  18.963  12.854
23510W        W95039  18.463   9.965  12.348
23511W        W95040  12.862   4.645   4.463
23512W        W95041   0.278   9.677  12.882
23513W        W95042   1.879   2.981  13.025
23514W        W95043  23.187  25.481   3.145
23515W        W95044   8.495  12.406  14.806
23516W        W95045  27.866   4.652  13.601
23517W        W95046  19.170  14.072  14.652
23518W        W95047  20.664  33.537   4.688
23519W        W95048  35.487  33.391   0.724
23520W        W95049   5.844  29.940   3.585
23521W        W95050  15.770  29.004  11.620
23522W        W95051  24.768  23.530  13.954
23523W        W95052   1.739  31.148   2.777
23524W        W95053   6.396  14.063  10.884
23525W        W95054  16.326  10.304   5.479
23526W        W95055  22.149  26.540  11.153
23527W        W95056   9.871  20.514  13.304
23528W        W95057  20.310   2.793  13.465
23529W        W95058  41.755  34.462  13.059
23530W        W95059  25.700   9.957   3.746
23531W        W95060   7.577  33.196  13.378
23532W        W95061  38.615  10.217   2.174
23533W        W95062   4.995  12.096  12.484
23534W        W95063  13.818  15.545   3.179
23535W        W95064  23.978  14.242   1.528
23536W        W95065  22.423   9.392   2.238
23537W        W95066  27.868  14.146   3.652
23538W        W95067  26.200   6.996   0.501
23539W        W95068   7.808  37.012   4.626
23540W        W95069  24.626   7.850   2.767
23541W        W95070  13.315  16.932  10.788
23542W        W95071  44.276   0.281  13.133
23543W        W95072   7.266  27.023  12.265
23544W        W95073  12.380  33.468   4.884
23545W        W95074  43.685  24.314  10.209
23546W        W95075   3.127  25.707  12.573
23547W        W95076   3.164   9.428   1.847
23548W        W95077  37.653  13.652  13.884
23549W        W95078  39.603  32.204  14.240
23550W        W95079   6.640   7.322  14.881
23551W        W95080  21.623  44.047  13.926
23552W        W95081  28.750  42.809   4.536
23553W        W95082   4.306  16.785  14.016
23554W        W95083  32.539  24.975  14.061
23555W        W95084  22.587  32.289   4.806
23556W        W95085  15.772  14.051  13.977
23557W        W95086  12.614  11.329  10.694
23558W        W95087  30.896   7.372   0.104
23559W        W95088  31.502  19.999  10.993
23560W        W95089  27.716  10.113  13.546
23561W        W95090  25.952  13.690   1.809
23562W        W95091   5.772  36.611  12.801
23563W        W95092   5.126   1.144   2.335
23564W        W95093   8.670  31.206   3.226
23565W        W95094   9.619  17.642  14.461
23566W        W95095  33.673  14.214  12.387
23567W        W95096   5.960  41.993  13.005
23568W        W95097  37.076  19.769  11.220
23569W        W95098  13.177  30.916  10.627
23570W        W95099  30.021  10.210   2.662
23571W        W95100  16.720  24.644  13.989
23572W        W95101   1.236   7.627  12.560
23573W        W95102  41.045   9.355  10.752
23574W        W95103  27.037  28.480   1.208
23575W        W95104  24.870  16.154   4.742
23576W        W95105  42.999  29.888  13.401
23577W        W95106  32.811  41.409   4.644
23578W        W95107  16.787  35.397  12.504
23579W        W95108  33.028  37.358   0.287
23580W        W95109   2.533   0.407  12.336
23581W        W95110   2.743  44.178  10.710
23582W        W95111  14.802  26.595  12.997
23583W        W95112  33.896  16.323  14.441
23584W        W95113   6.125  33.566  13.001
23585W        W95114  33.118  15.645   0.380
23586W        W95115   6.666  15.282  14.875
23587W        W95116  22.461   6.319  14.961
23588W        W95117  20.343  23.719  11.169
23589W        W95118  44.650  19.413   1.796
23590W        W95119  18.984   2.774   0.157
23591W        W95120  16.732  15.776   4.825
23592W        W95121   4.754   1.480   2.257
23593W        W95122  19.989  37.985  10.637
23594W        W95123  40.444   1.251   3.800
23595W        W95124  16.409  40.345   0.993
23596W        W95125   9.288  23.783   0.695
23597W        W95126   2.312  10.388   4.701
23598W        W95127  10.136  16.870  10.755
23599W        W95128   9.161  12.227   3.049
23600W        W95129  33.041  36.337  12.957
23601W        W95130  24.654  13.186   3.776
23602W        W95131  16.512  37.996  11.497
23603W        W95132   9.183  39.424  11.927
23604W        W95133   6.402  10.708   0.801
23605W        W95134  26.118  25.526   4.392
23606W        W95135  14.602  20.139   3.794
23607W        W95136  13.617  26.591   3.817
23608W        W95137  14.686   9.961  12.812
23609W        W95138  27.107  44.729  11.427
23610W        W95139  32.234   8.207  13.065
23611W        W95140   6.821  37.951   0.849
23612W        W95141  38.607  34.136   0.000
23613W        W95142  21.469  22.596  12.448
23614W        W95143  23.276  13.072  11.221
23615W        W95144  21.385  36.948   2.759
23616W        W95145  12.873  10.423  10.674
23617W        W95146  29.631  28.411   1.241
23618W        W95147  31.892  37.838  12.521
23619W        W95148  26.078  41.265  13.414
23620W        W95149   1.226   3.663  10.620
23621W        W95150  32.539  37.326   0.008
23622W        W95151   1.151  31.442   3.855
23623W        W95152  27.678  42.724  12.108
23624W        W95153   1.226   0.952  12.069
23625W        W95154  14.226  22.728  12.644
23626W        W95155   3.643  10.767  13.629
23627W        W95156  40.118   6.182   2.629
23628W        W95157  21.182  13.571   0.223
23629W        W95158  31.031  32.668  14.435
23630W        W95159  11.720  42.077   2.721
23631W        W95160   9.676   5.940  14.950
23632W        W95161  12.347  19.408  14.866
23633W        W95162   9.189   8.858   1.896
23634W        W95163  33.092  27.410  12.429
23635W        W95164  16.650   3.995  11.059
23636W        W95165  33.800  36.100   1.387
23637W        W95166  23.703  25.237  13.954
23638W        W95167  44.999  33.355   1.966
23639W        W95168  11.023  12.677  13.436
23640W        W95169  35.700   5.433   4.930
23641W        W95170  22.179   4.873   1.576
23642W        W95171  18.095  37.018   0.432
23643W        W95172  16.050   8.716  13.745
23644W        W95173   1.484  36.096  12.398
23645W        W95174  28.645  34.534   3.803
23646W        W95175   0.088  26.020   1.430
23647W        W95176  34.882  11.778   1.675
23648W        W95177  16.671  34.707   1.380
23649W        W95178  35.854  34.744  13.844
23650W        W95179  41.323   5.829   1.295
23651W        W95180   8.273  22.864   0.959
23652W        W95181  23.624  13.905   2.797
23653W        W95182  17.510  32.109   3.285
23654W        W95183  21.975   1.724  12.057
23655W        W95184  23.501  24.552  14.492
23656W        W95185   2.482   4.358  13.980
23657W        W95186  11.804  11.865   3.756
23658W        W95187  40.002   9.684   3.318
23659W        W95188   4.346  35.102   2.326
23660W        W95189   1.870  14.975   4.684
23661W        W95190   3.377   0.692   4.123
23662W        W95191  21.637  15.250   5.107
23663W        W95192   9.323  10.681  13.613
23664W        W95193   9.677   7.671  12.585
23665W        W95194  27.622   4.217  14.509
23666W        W95195  17.790   4.978   1.518
23667W        W95196  30.604   0.002  11.922
23668W        W95197  24.736   0.275  11.445
23669W        W95198  21.061  24.630  13.845
23670W        W95199  21.564  14.647  12.491
23671W        W95200  35.831  40.406   3.595
23672W        W95201   9.256  17.625   2.917
23673W        W95202  20.358  24.458  14.502
23674W        W95203  14.067  37.403  14.104
23675W        W95204  40.306  31.632   0.290
23676W        W95205  13.314   0.203  14.075
23677W        W95206   9.010  15.069   4.648
23678W        W95207  27.369   3.793   0.066
23679W        W95208  19.578   9.661   2.229
23680W        W95209  21.274  40.514  10.675
23681W        W95210  19.628  42.743  11.509
23682W        W95211  39.448   3.329   1.618
23683W        W95212  10.369  42.763   2.251
23684W        W95213  24.850  17.783   2.787
23685W        W95214  20.882   3.484  13.883
23686W        W95215  35.584  16.125  12.421
23687W        W95216  38.089  31.406  10.861
23688W        W95217   9.778  14.795   0.465
23689W        W95218  40.853   0.695  13.066
23690W        W95219  22.501  39.406   2.953
23691W        W95220  19.941  15.119   2.413
23692W        W95221  15.779  34.059   4.746
23693W        W95222  33.668   7.130   3.101
23694W        W95223  37.906  29.268   3.037
23695W        W95224   7.705  11.206   4.590
23696W        W95225  32.852   1.715   1.751
23697W        W95226  21.638  36.109   0.169
23698W        W95227  17.792  10.870   2.275
23699W        W95228  39.076  19.014  11.213
23700W        W95229  31.720  26.025   2.675
23701W        W95230  24.936  12.816   0.770
23702W        W95231  25.073  22.980   0.730
23703W        W95232  17.142  39.032  14.875
23704W        W95233  39.885  27.060   0.344
23705W        W95234  39.958  44.039  13.872
23706W        W95235  22.715  25.554  14.891
23707W        W95236  19.111   3.869  11.976
23708W        W95237  44.907  20.751   1.490
23709W        W95238   1.756  16.652   3.211
23710W        W95239  21.261  23.489  11.069
23711W        W95240  20.304   9.151   4.145
23712W        W95241  30.424  12.619   0.919
23713W        W95242  32.432   4.839   1.427
23714W        W95243  28.744  18.872  10.684
23715W        W95244  32.085  32.538  12.822
23716W        W95245  43.963  11.165  13.903
23717W        W95246  16.027   2.326   0.743
23718W        W95247  12.369  36.915  13.902
23719W        W95248  10.460  44.998  11.919
23720W        W95249  13.312   5.873  11.599
23721W        W95250   5.338  28.878  10.801
23722W        W95251  30.363   4.884   1.456
23723W        W95252  34.358  11.883   4.124
23724W        W95253  43.500   2.377  11.268
23725W        W95254   5.135  31.478   1.250
23726W        W95255  36.935  30.483  11.535
23727W        W95256   2.437   0.189   3.118
23728W        W95257  34.058  29.703  11.916
23729W        W95258  20.131   3.184  11.430
23730W        W95259  36.996   1.849   4.528
23731W        W95260  10.990  43.681  10.227
23732W        W95261   9.428  44.359   2.463
23733W        W95262  10.125  21.121   4.877
23734W        W95263   2.398  12.547  10.691
23735W        W95264  13.182  24.677  14.750
23736W        W95265  29.601  12.389   2.165
23737W        W95266  27.077  18.520   2.696
23738W        W95267   1.769  13.603  11.660
23739W        W95268  36.552  17.789   0.340
23740W        W95269   5.436   9.756   3.874
23741W        W95270  40.818   9.306   0.312
23742W        W95271   0.465  36.975   2.393
23743W        W95272  34.429  20.507   4.138
23744W        W95273  17.387  40.494   2.658
23745W        W95274  10.200   2.322  12.566
23746W        W95275  11.307  34.282  13.873
23747W        W95276  19.506  22.345  11.571
23748W        W95277   4.751   0.687   2.946
23749W        W95278   6.124  34.007  12.278
23750W        W95279  41.325   6.261   2.437
23751W        W95280  10.944  29.176   3.582
23752W        W95281  10.673  38.114  13.318
23753W        W95282  44.791  17.761   3.850
23754W        W95283  37.663   5.976  14.026
23755W        W95284  36.540  18.152   4.638
23756W        W95285  17.960  24.056   3.847
23757W        W95286  20.308   8.887  12.579
23758W        W95287  18.602  30.723   4.507
23759W        W95288  11.193  14.635   2.797
23760W        W95289   7.133  33.399   2.644
23761W        W95290  19.975  17.497   1.356
23762W        W95291  38.881  42.483  10.692
23763W        W95292  22.147   2.533   4.653
23764W        W95293  17.394  15.482   0.846
23765W        W95294  41.869  20.709   0.374
23766W        W95295   6.139  15.096   4.182
23767W        W95296   8.293  25.918   0.870
23768W        W95297  42.976  34.463  13.525
23769W        W95298  32.076  42.449  11.175
23770W        W95299   7.819  23.244  10.988
23771W        W95300  26.448   8.808  14.815
23772W        W95301   5.242  13.406  12.550
23773W        W95302  30.559   8.589   2.184
23774W        W95303  26.935  41.310  13.361
23775W        W95304  25.593  21.820  14.326
23776W        W95305   8.238  38.156  11.495
23777W        W95306  11.781  16.404   3.148
23778W        W95307  39.407  11.635   1.741
23779W        W95308  16.724   0.509   2.873
23780W        W95309  30.028  43.226   3.315
23781W        W95310  23.200  35.946   0.089
23782W        W95311  33.627  32.636   4.661
23783W        W95312  39.829  25.246   4.296
23784W        W95313  40.308  41.002   1.275
23785W        W95314   1.772  24.914   2.670
23786W        W95315  21.098  26.232  14.044
23787W        W95316  28.191  34.018   3.660
23788W        W95317   7.633  39.784   1.409
23789W        W95318  29.837   2.884  13.445
23790W        W95319   8.290   8.259  12.352
23791W        W95320  28.604  43.397  10.375
23792W        W95321  31.520  13.790   2.892
23793W        W95322  26.548  43.345   0.887
23794W        W95323  21.911   0.321  13.045
23795W        W95324  15.670  36.179  10.813
23796W        W95325   2.926  40.096  14.381
23797W        W95326   7.230  29.896   3.726
23798W        W95327   4.670  11.829  12.873
23799W        W95328  41.901   0.021   1.450
23800W        W95329  18.324   5.084  13.015
23801W        W95330  11.742  28.531  12.986
23802W        W95331  37.213  33.171   0.862
23803W        W95332  15.157   0.689  11.158
23804W        W95333  17.733  26.930   0.999
23805W        W95334  11.643  35.787  11.771
23806W        W95335  44.903  30.112   0.093
23807W        W95336  16.536  32.157  12.122
23808W        W95337  35.118  16.600   1.257
23809W        W95338   0.932  32.125  13.852
23810W        W95339  34.794  17.589  12.147
23811W        W95340  39.346  22.001   4.218
23812W        W95341  38.044  16.757   2.443
23813W        W95342  33.684  40.853   1.897
23814W        W95343  31.386   4.999  13.918
23815W        W95344  24.033  25.074  14.814
23816W        W95345  44.241  21.469   2.322
23817W        W95346   8.191  31.863   1.301
23818W        W95347  39.089  28.991   4.627
23819W        W95348  29.011  24.486  11.619
23820W        W95349  26.232   0.639  14.793
23821W        W95350  30.934  17.279  14.659
23822W        W95351  15.312  30.657  10.848
23823W        W95352  36.854  41.388  14.763
23824W        W95353  10.277  36.230   0.835
23825W        W95354  13.478  22.704   1.204
23826W        W95355  38.724  40.152  10.706
23827W        W95356  27.663  25.156   2.891
23828W        W95357   0.869  14.293  10.769
23829W        W95358  43.783  32.884  12.102
23830W        W95359   5.890  33.203  12.115
23831W        W95360  43.733  41.423   4.489
23832W        W95361  29.584  37.628  14.838
23833W        W95362  39.915  14.528   2.751
23834W        W95363  29.646  27.019  14.320
23835W        W95364  20.087   9.832  14.043
23836W        W95365  26.514  37.483   1.382
23837W        W95366  42.582  30.435  11.625
23838W        W95367  32.195  16.084  12.518
23839W        W95368   0.245  36.690   3.317
23840W        W95369  42.447  17.704   4.161
23841W        W95370  41.585  32.136  13.512
23842W        W95371  20.132   9.340   4.580
23843W        W95372  28.311  19.231   1.765
23844W        W95373  22.982  16.704  13.014
23845W        W95374  40.184   1.957  12.456
23846W        W95375  41.967   9.376   2.719
23847W        W95376  23.085  19.013   1.715
23848W        W95377  34.418  29.733  13.085
23849W        W95378  12.569  29.625  11.659
23850W        W95379  18.070  31.785  13.310
23851W        W95380  18.746   6.051  14.344
23852W        W95381  12.837  25.174   0.640
23853W        W95382  21.026   2.995  13.954
23854W        W95383  23.420  35.644  12.110
23855W        W95384  17.704  29.466  13.361
23856W        W95385  18.786  28.700   1.202
23857W        W95386   9.329  37.405  10.772
23858W        W95387   0.172  40.893  12.758
23859W        W95388   8.631  11.071  13.022
23860W        W95389   7.189  40.888   3.732
23861W        W95390  40.828   8.121  13.016
23862W        W95391  24.178  26.012   0.249
23863W        W95392   7.246  13.197  12.581
23864W        W95393   5.378  22.701  12.857
23865W        W95394  33.203  41.015   1.761
23866W        W95395   5.710  12.654  10.789
23867W        W95396  10.731  29.744   0.475
23868W        W95397  25.172  38.496  14.249
23869W        W95398   6.652  42.615  13.148
23870W        W95399  23.889   1.795   0.873
23871W        W95400  42.619  43.614   4.232
23872W        W95401  41.893   9.870   2.800
23873W        W95402  41.798   6.294  13.587
23874W        W95403  17.125  27.368  11.111
23875W        W95404  15.542  20.164   3.300
23876W        W95405  34.547   8.395   0.592
23877W        W95406  23.154  19.508  10.822
23878W        W95407  13.133  29.249  13.384
23879W        W95408  18.170  21.372  11.139
23880W        W95409  21.007   5.188  11.085
23881W        W95410  23.736  18.573  12.632
23882W        W95411  17.564   5.190  12.322
23883W        W95412  39.104   7.076  11.150
23884W        W95413   4.216  16.790   3.327
23885W        W95414  17.070  30.621  10.722
23886W        W95415  11.714   8.097  14.414
23887W        W95416  24.406  14.868  13.052
23888W        W95417   1.324  42.276  13.276
23889W        W95418  16.746  25.151  11.577
23890W        W95419  38.383   0.799  13.789
23891W        W95420  26.428  27.223  12.962
23892W        W95421  33.862   7.854   0.400
23893W        W95422  36.937  37.638  12.750
23894W        W95423  23.742  15.358  12.466
23895W        W95424  30.689  33.383   1.144
23896W        W95425  36.844  16.590  12.047
23897W        W95426  13.201   4.892   4.119
23898W        W95427  43.172   6.368   1.880
23899W        W95428  27.609  26.296   1.908
23900W        W95429  22.736  44.413  11.540
23901W        W95430  27.892  38.656   4.138
23902W        W95431  14.804   5.449   2.252
23903W        W95432   2.929   4.421  10.731
23904W        W95433  35.039  42.716   1.385
23905W        W95434   4.837  15.097   4.508
23906W        W95435   7.276  30.432   0.374
23907W        W95436  36.509  27.971  11.772
23908W        W95437   0.717   7.361   2.814
23909W        W95438   8.176  28.041   2.667
23910W        W95439  32.819  21.760   5.016
23911W        W95440  37.305  39.780  14.772
23912W        W95441  10.420  11.781  10.684
23913W        W95442  17.070  15.320   2.354
23914W        W95443  24.716   0.498  10.973
23915W        W95444  39.293   3.364  10.432
23916W        W95445  38.250   8.238  11.122
23917W        W95446  39.282  15.278   3.758
23918W        W95447  34.267  26.160  13.890
23919W        W95448  13.628  40.297  12.538
23920W        W95449  41.548   4.415   1.878
23921W        W95450  10.717  20.554  11.976
23922W        W95451  13.093   5.432  14.263
23923W        W95452  26.451  17.223   3.403
23924W        W95453   7.735   5.256   2.234
23925W        W95454  13.244  15.251  14.330
23926W        W95455  28.839  15.824  11.610
23927W        W95456  33.539  20.694   2.615
23928W        W95457  10.040  43.287   4.169
23929W        W95458   3.576   5.165   0.329
23930W        W95459  13.951  37.566   2.694
23931W        W95460  35.188  43.006  13.773
23932W        W95461  28.405  11.127  13.246
23933W        W95462   2.020   5.099   4.537
23934W        W95463  32.894   7.017  12.872
23935W        W95464  34.518  29.392  14.595
23936W        W95465  24.491  38.527  14.852
23937W        W95466  44.813  32.024   0.713
23938W        W95467  10.940   6.165   3.592
23939W        W95468  24.800  19.945  14.656
23940W        W95469  34.798  28.788   4.284
23941W        W95470  35.432  15.745  10.894
23942W        W95471  28.186  29.294   3.780
23943W        W95472  29.105   9.122   1.792
23944W        W95473  18.920  42.116  11.669
23945W        W95474  39.384  34.515   0.518
23946W        W95475  28.274   7.845   4.217
23947W        W95476  26.192  28.733   2.398
23948W        W95477   9.111   0.291  14.067
23949W        W95478  41.809   1.068   0.792
23950W        W95479  14.363  24.964  13.158
23951W        W95480  22.998  17.607  14.551
23952W        W95481  34.685  42.500  11.618
23953W        W95482  30.616   1.277  11.805
23954W        W95483  38.102   1.915   0.308
23955W        W95484   0.337  30.329   2.253
23956W        W95485  39.289  28.037   0.018
23957W        W95486   4.196  19.731   4.628
23958W        W95487  39.793  39.283   0.655
23959W        W95488  44.302  16.140  13.910
23960W        W95489  42.959   7.799  14.779
23961W        W95490  37.812  23.267   0.196
23962W        W95491   1.399  16.686  10.735
23963W        W95492  41.448  10.634  14.479
23964W        W95493  16.404  29.225  11.122
23965W        W95494  26.685   5.804  12.579
23966W        W95495  24.923  11.092   4.275
23967W        W95496  14.763  43.817   2.479
23968W        W95497  24.060   1.922   4.446
23969W        W95498  27.161   4.314   0.564
23970W        W95499  40.431  15.629  12.989
23971W        W95500  29.553  31.419   2.727
23972W        W95501  29.474  16.828   0.223
23973W        W95502  10.660  36.354   4.393
23974W        W95503  37.666  44.433  10.375
23975W        W95504  34.020  35.518   2.349
23976W        W95505   0.782   8.337   2.235
23977W        W95506  32.815   9.677  11.057
23978W        W95507  10.781  34.944   2.487
23979W        W95508   4.439  33.746   4.799
23980W        W95509  15.230   3.750  13.777
23981W        W95510  31.168  20.843   0.878
23982W        W95511  40.667  42.539   4.733
23983W        W95512  30.741  13.385  13.964
23984W        W95513  36.651   8.167  10.422
23985W        W95514  17.016  15.635  10.363
23986W        W95515  42.353   4.875   1.395
23987W        W95516  37.940  19.489   3.304
23988W        W95517  43.997   6.195  13.436
23989W        W95518  23.326  19.131   3.840
23990W        W95519  20.167  44.025   1.316
23991W        W95520  32.846  33.562  10.379
23992W        W95521  10.150  21.176   0.803
23993W        W95522  31.856   6.317  13.315
23994W        W95523  12.684  31.152  10.777
23995W        W95524  15.166  32.877  14.323
23996W        W95525   4.243  32.409  12.480
23997W        W95526   2.698  16.184   0.167
23998W        W95527   8.169   8.687   1.159
23999W        W95528  26.478   7.909   4.501
24000W        W95529  38.000  31.251   4.175
24001W        W95530  10.835   6.949  11.321
24002W        W95531  37.077   2.996  14.247
24003W        W95532  16.652  33.503  11.868
24004W        W95533  25.942   5.858   4.553
24005W        W95534  26.396  24.957  13.424
24006W        W95535   2.756  10.917  11.059
24007W        W95536  23.276  13.789  11.583
24008W        W95537  37.495  12.366  14.536
24009W        W95538  36.179  20.746  13.811
24010W        W95539  39.292  32.618  12.095
24011W        W95540  38.453  28.014   0.480
24012W        W95541  11.801  41.618   0.403
24013W        W95542  16.544   8.198   2.805
24014W        W95543  24.368  19.628   4.558
24015W        W95544  13.551   0.828  11.547
24016W        W95545  25.264  16.809  13.334
24017W        W95546  36.034  19.471   4.098
24018W        W95547  43.513  35.401  11.541
24019W        W95548  26.382  33.421  13.339
24020W        W95549  31.032  26.157   2.278
24021W        W95550  14.945  16.358  11.174
24022W        W95551  14.802  23.053   4.609
24023W        W95552  37.657  14.589   5.036
24024W        W95553  29.984  44.345   4.179
24025W        W95554   1.418  29.103  13.484
24026W        W95555  25.607   7.021   4.451
24027W        W95556  13.161  19.214  10.958
24028W        W95557  22.881  31.368   0.450
24029W        W95558  24.948  26.095   4.219
24030W        W95559  24.452  42.226   3.974
24031W        W95560   5.736  40.693  14.750
24032W        W95561   5.221  15.269  11.634
24033W        W95562  33.177  22.041   4.638
24034W        W95563  40.296  32.437  10.965
24035W        W95564  40.176  31.049   4.791
24036W        W95565  28.980  33.113  14.868
24037W        W95566   4.382  43.055   4.241
24038W        W95567  18.707   6.589  12.373
24039W        W95568  17.813  19.672  10.801
24040W        W95569   1.302  29.573   3.117
24041W        W95570  22.478   5.757  14.287
24042W        W95571  15.929   9.967   5.486
24043W        W95572  14.367   9.764  14.113
24044W        W95573  11.443  23.006   3.690
24045W        W95574   9.651  14.263  12.888
24046W        W95575  33.828  28.056  14.410
24047W        W95576  13.695   5.766   3.665
24048W        W95577  28.498  15.212   4.134
24049W        W95578  29.247  10.882   1.872
24050W        W95579  18.952  16.836   4.054
24051W        W95580  22.206  34.796   0.045
24052W        W95581   8.657   0.067  13.856
24053W        W95582   5.855   2.613   4.780
24054W        W95583   8.649  30.477   1.896
24055W        W95584  27.709  38.322   1.271
24056W        W95585   0.901   7.848   4.581
24057W        W95586  22.772  28.104  12.591
24058W        W95587  17.706   4.262  12.456
24059W        W95588  11.368  17.326   2.359
24060W        W95589  29.500  21.413  11.916
24061W        W95590  25.153   4.270  13.004
24062W        W95591  37.471  33.027  14.178
24063W        W95592   2.908   0.769  13.766
24064W        W95593  17.003  12.632  13.158
24065W        W95594  30.083  21.705   0.465
24066W        W95595   7.187  25.972  14.300
24067W        W95596  12.581  44.031   3.547
24068W        W95597  24.201  40.731   2.129
24069W        W95598  44.736  33.264   5.366
24070W        W95599   4.050  19.721   1.126
24071W        W95600  21.789  18.984   1.318
24072W        W95601  44.283  36.939  12.863
24073W        W95602   0.017  37.302   0.451
24074W        W95603   9.660  13.590  14.034
24075W        W95604   9.970   9.733   0.508
24076W        W95605  18.265  21.937   5.093
24077W        W95606   8.484   2.444  14.849
24078W        W95607  32.811  42.875   5.148
24079W        W95608  41.301  40.543  13.076
24080W        W95609   2.613   2.463  14.527
24081W        W95610   1.210  32.491   4.795
24082W        W95611  32.102   0.946  10.586
24083W        W95612  27.515  40.911   2.674
24084W        W95613   9.586  18.204   2.260
24085W        W95614  31.851  27.186  10.660
24086W        W95615  14.362  23.023   3.730
24087W        W95616  29.669  25.141   1.467
24088W        W95617   7.777  27.451   0.371
24089W        W95618  30.656  17.365  11.211
24090W        W95619  35.052  18.189   3.179
24091W        W95620  42.797  15.639   0.512
24092W        W95621  16.281  33.064   1.180
24093W        W95622   7.590  30.157  13.350
24094W        W95623   1.454  36.443  14.395
24095W        W95624  42.906  35.545   1.401
24096W        W95625  29.914   8.646  11.909
24097W        W95626  42.449   8.167   4.086
24098W        W95627  23.289  27.502   1.377
24099W        W95628  14.259   4.229  10.677
24100W        W95629   5.409  36.981  10.560
24101W        W95630  42.541  22.966  14.899
24102W        W95631  33.357  43.009   3.722
24103W        W95632  26.141   4.662   1.382
24104W        W95633  39.882  25.473   0.361
24105W        W95634  36.629   7.939   0.653
24106W        W95635  37.446   8.971  11.608
24107W        W95636  20.296   7.507  13.983
24108W        W95637  26.611  38.884  11.629
24109W        W95638  18.890  39.353  11.185
24110W        W95639   9.806  15.560  12.147
24111W        W95640  25.699  40.027   4.864
24112W        W95641  11.791  39.150  11.510
24113W        W95642  28.821   4.717  10.887
24114W        W95643  22.888  14.951  13.263
24115W        W95644  29.254  36.477   1.697
24116W        W95645   8.946  28.595   1.788
24117W        W95646   0.387  14.247   1.496
24118W        W95647  18.286   9.612   2.733
24119W        W95648  10.266  10.571   0.870
24120W        W95649   9.167  35.874   3.722
24121W        W95650  30.972  17.982   1.868
24122W        W95651  32.520  44.725   4.150
24123W        W95652   0.443  23.176  12.415
24124W        W95653  12.244  42.804   2.771
24125W        W95654   2.181  44.546   0.270
24126W        W95655  14.019  13.057  11.078
24127W        W95656  10.151  38.324   1.271
24128W        W95657  15.263  43.996  12.676
24129W        W95658   4.687  34.840   5.098
24130W        W95659  23.106  38.257  12.875
24131W        W95660  27.044  35.749  12.639
24132W        W95661  20.262  12.745   3.622
24133W        W95662  13.574  38.809   0.283
24134W        W95663  25.434  19.536   0.828
24135W        W95664  32.930   5.623  13.826
24136W        W95665  13.621  43.916   2.757
24137W        W95666  39.936   8.935  14.883
24138W        W95667  20.611  37.976  11.772
24139W        W95668  44.662   0.330  12.795
24140W        W95669  11.926  22.195   4.192
24141W        W95670  42.903  37.348   1.353
24142W        W95671  13.932  42.877   3.753
24143W        W95672   7.247  37.734   3.347
24144W        W95673  32.982  30.582   2.483
24145W        W95674   0.650  14.540  12.919
24146W        W95675  12.652   0.731   1.349
24147W        W95676  17.271  30.639  12.569
24148W        W95677  11.540  43.720  12.120
24149W        W95678  13.631  19.243  13.002
24150W        W95679  26.064  23.758  10.748
24151W        W95680   1.313  44.893   4.507
24152W        W95681   6.772  27.317   0.410
24153W        W95682  18.523  35.320   1.654
24154W        W95683  35.975  10.811  12.047
24155W        W95684  41.912   0.054   0.926
24156W        W95685  22.023  12.797   2.145
24157W        W95686   4.177  41.748  13.939
24158W        W95687  14.356  14.112   2.333
24159W        W95688  42.227   4.144  12.867
24160W        W95689   2.687  31.163   3.696
24161W        W95690   5.396  24.743   4.850
24162W        W95691  25.516  17.061  11.761
24163W        W95692  23.078  10.863  10.699
24164W        W95693  33.855  34.437  10.946
24165W        W95694  22.972  17.195   0.801
24166W        W95695   4.011  37.401   0.866
24167W        W95696  30.374   1.084   3.648
24168W        W95697  40.987   6.244  12.598
24169W        W95698   7.945  44.413   2.378
24170W        W95699  19.285  21.509  11.855
24171W        W95700   3.389   5.880   3.188
24172W        W95701  39.559   0.394   2.230
24173W        W95702  34.607  33.571  14.498
24174W        W95703  22.817  44.680  12.070
24175W        W95704   2.248  11.744  12.502
24176W        W95705   8.633  43.890  14.354
24177W        W95706  26.159  17.513  13.812
24178W        W95707  43.571  28.851  13.800
24179W        W95708  20.724  12.025  13.181
24180W        W95709  39.076   6.654  11.460
24181W        W95710  15.235  38.954   4.716
24182W        W95711  37.034   5.786  13.974
24183W        W95712  33.054  43.337   0.037
24184W        W95713  16.650  10.846  13.872
24185W        W95714   9.413  36.538   2.302
24186W        W95715  37.977  16.280   0.280
24187W        W95716   1.691  33.452  14.625
24188W        W95717  26.920  20.153   4.047
24189W        W95718  30.524   2.677  11.880
24190W        W95719  27.477  10.733   3.268
24191W        W95720  16.164  16.157   4.368
24192W        W95721  14.351   6.866  11.007
24193W        W95722  40.644  24.888  10.825
24194W        W95723  29.968  33.133   0.110
24195W        W95724  27.723  24.409  11.845
24196W        W95725  24.234  24.654  13.505
24197W        W95726  10.151  38.599   0.436
24198W        W95727  40.579   0.184  12.005
24199W        W95728   5.069  43.766   3.202
24200W        W95729  27.193  11.420  12.004
24201W        W95730   3.430  21.020  14.870
24202W        W95731  30.895  17.916   4.511
24203W        W95732  27.951  44.666   4.177
24204W        W95733  12.911  31.080   4.145
24205W        W95734  11.764   8.566   2.259
24206W        W95735  43.012  19.743   3.355
24207W        W95736  16.747  17.558   0.008
24208W        W95737  36.964   5.892   3.727
24209W        W95738  42.532   2.778  12.147
24210W        W95739   5.543  36.010   4.174
24211W        W95740  44.581  29.969  11.974
24212W        W95741  15.917  23.770   4.682
24213W        W95742  26.698  15.524  10.617
24214W        W95743   8.265   0.915  12.678
24215W        W95744  44.233  25.742  13.474
24216W        W95745  23.646  21.479  12.072
24217W        W95746  43.401  32.464   4.112
24218W        W95747  10.896   5.802   3.234
24219W        W95748  20.140  28.870  12.742
24220W        W95749  22.088  33.967   1.843
24221W        W95750   0.182  17.370  11.830
24222W        W95751  22.588  21.836  10.501
24223W        W95752  24.037  32.864   3.655
24224W        W95753  16.730   6.407   2.646
24225W        W95754  32.849  26.378  13.914
24226W        W95755  44.676  16.349   1.959
24227W        W95756  31.111  43.782   2.241
24228W        W95757  22.602   0.470  13.815
24229W        W95758  21.264   0.820   3.643
24230W        W95759  43.548   1.397  12.957
24231W        W95760  40.583   7.530  14.662
24232W        W95761  11.813   0.125   2.780
24233W        W95762  19.287   2.918  14.628
24234W        W95763  11.333  26.924   1.297
24235W        W95764  43.294  20.600   4.376
24236W        W95765  28.932  22.773  13.054
24237W        W95766   4.104   5.320   3.312
24238W        W95767   3.696  16.678  14.169
24239W        W95768   0.447  22.212  14.897
24240W        W95769  41.822   4.308  10.646
24241W        W95770  27.473   6.676   4.522
24242W        W95771  32.057  44.875  11.901
24243W        W95772  17.538   7.344   3.760
24244W        W95773  27.263  27.873   4.524
24245W        W95774   1.810  39.441  13.050
24246W        W95775   9.780  34.023   4.585
24247W        W95776  21.821  10.558  12.182
24248W        W95777   5.931   6.072  11.693
24249W        W95778  16.321   4.129  12.154
24250W        W95779  11.625   7.802   1.786
24251W        W95780  18.026  25.990   4.577
24252W        W95781  16.540  11.041  12.187
24253W        W95782  10.693  18.683  14.834
24254W        W95783  40.791  31.682   2.345
24255W        W95784  22.856  42.312  11.426
24256W        W95785  34.074  18.687  12.635
24257W        W95786   7.926   2.292  10.470
24258W        W95787  25.430  14.560  11.485
24259W        W95788  12.375  41.214  14.248
24260W        W95789   8.381  31.511  14.530
24261W        W95790   8.165  34.081   1.414
24262W        W95791  36.126  19.091  11.509
24263W        W95792  14.132  44.044   1.413
24264W        W95793  35.412  41.097  11.221
24265W        W95794   2.508  40.874  14.521
24266W        W95795  37.933  30.586   2.238
24267W        W95796  11.253  29.230  11.148
24268W        W95797  20.580  21.553  11.634
24269W        W95798  27.527  20.430  12.008
24270W        W95799  36.439  25.962   0.357
24271W        W95800  35.772  29.715   1.472
24272W        W95801  23.833  44.687  11.472
24273W        W95802   0.769   8.371  11.680
24274W        W95803   3.302  41.855   1.345
24275W        W95804  40.722  12.641  12.096
24276W        W95805  13.608  31.563   4.523
24277W        W95806  23.209  28.378  13.417
24278W        W95807  37.967  22.528  11.838
24279W        W95808  10.086   2.482   2.227
24280W        W95809  29.065   7.407   2.617
24281W        W95810  31.353  13.062  12.845
24282W        W95811  20.084  21.214   2.137
24283W        W95812  14.266  15.496   0.238
24284W        W95813  32.796  27.949   1.829
24285W        W95814  24.077  25.996   4.308
24286W        W95815  26.075  22.312   2.706
24287W        W95816   6.139   7.618  10.220
24288W        W95817   9.907  15.541  11.172
24289W        W95818  42.020  14.554  11.687
24290W        W95819  11.205  35.262  13.992
24291W        W95820  20.824   3.759   3.131
24292W        W95821   9.578   3.973  11.545
24293W        W95822   0.124   6.246  13.854
24294W        W95823  19.543   4.898   2.418
24295W        W95824   0.288  37.096   1.902
24296W        W95825  36.024  28.241   4.020
24297W        W95826  12.330  35.011  11.411
24298W        W95827  27.505  21.720  10.685
24299W        W95828  22.475  44.467   2.389
24300W        W95829  21.597  22.470   1.767
24301W        W95830  18.075  39.550  13.375
24302W        W95831   0.930   9.754   0.835
24303W        W95832   5.334   0.898   3.679
24304W        W95833  41.608  25.200  10.458
24305W        W95834  28.229  38.971  14.308
24306W        W95835  38.256  31.171   2.358
24307W        W95836  26.719  41.565  11.118
24308W        W95837  28.538   3.183   1.887
24309W        W95838   1.020   8.197   2.686
24310W        W95839  21.500  13.634   4.912
24311W        W95840  33.108  12.617   0.818
24312W        W95841   1.987   8.428   0.775
24313W        W95842  23.682  25.902   0.340
24314W        W95843  26.440  12.617  11.347
24315W        W95844  32.007  15.310  10.856
24316W        W95845  32.446  14.226  12.648
24317W        W95846   0.376  12.095  11.574
24318W        W95847  44.661  27.228   4.202
24319W        W95848  22.133  42.477   0.831
24320W        W95849  19.748  42.418   4.828
24321W        W95850  30.163  44.832   4.149
24322W        W95851  24.856  36.396  11.751
24323W        W95852  26.071  39.087  12.058
24324W        W95853  15.694  19.398   5.386
24325W        W95854  18.775  17.802   2.764
24326W        W95855  27.537  41.391   2.429
24327W        W95856  28.688  27.060   1.840
24328W        W95857  31.253  22.432  11.921
24329W        W95858  43.282  14.758  12.408
24330W        W95859  17.086  32.156  14.494
24331W        W95860  13.334   7.359  13.503
24332W        W95861  32.033  30.963  13.957
24333W        W95862  35.806  38.981  12.907
24334W        W95863  34.471  13.843  11.519
24335W        W95864  11.596  35.437   0.915
24336W        W95865  38.785  23.091  14.559
24337W        W95866  17.216  27.034   2.792
24338W        W95867  22.720  23.723   0.732
24339W        W95868  14.396  21.883   2.149
24340W        W95869  37.386  10.071  10.677
24341W        W95870  22.654  26.810  12.996
24342W        W95871  33.827  15.049  11.035
24343W        W95872  22.696  10.748   0.315
24344W        W95873  44.917  31.629   3.566
24345W        W95874  14.477  43.529  12.478
24346W        W95875  19.773   8.317   0.038
24347W        W95876   6.394  25.480   0.149
24348W        W95877  27.643  30.065  12.667
24349W        W95878  25.214  19.603  12.094
24350W        W95879  19.463   2.370  13.464
24351W        W95880  30.953   2.811  13.479
24352W        W95881  32.010  37.942   3.634
24353W        W95882   6.742  28.690   3.308
24354W        W95883  40.566  36.028  12.104
24355W        W95884  39.743  44.288  11.671
24356W        W95885   5.414  32.095   4.460
24357W        W95886  40.028   9.856   1.468
24358W        W95887   3.455  42.790  11.604
24359W        W95888   1.964  22.437   3.957
24360W        W95889  22.354   7.870  11.372
24361W        W95890  42.087   5.237   2.285
24362W        W95891  22.707   2.406  14.600
24363W        W95892   9.770   8.864  11.501
24364W        W95893  19.731  19.695   1.573
24365W        W95894  13.233  36.115   5.146
24366W        W95895  28.430  26.248  11.581
24367W        W95896  42.888  10.742   2.156
24368W        W95897  34.849  33.122   0.226
24369W        W95898  27.068  40.025   1.793
24370W        W95899   6.901  25.229  12.523
24371W        W95900  21.069   9.251  13.143
24372W        W95901  13.700  13.934   4.081
24373W        W95902  38.332  10.258  14.809
24374W        W95903   7.289  32.522   3.142
24375W        W95904  33.297   2.879  13.929
24376W        W95905  32.926   0.258  13.405
24377W        W95906  42.777  10.904   0.305
24378W        W95907  44.814  21.691   1.190
24379W        W95908   6.632  22.947  11.130
24380W        W95909  20.505  20.232   1.902
24381W        W95910  26.220  29.095  12.006
24382W        W95911   5.793  24.996   1.714
24383W        W95912  43.906   8.285  12.892
24384W        W95913  18.829  20.722   4.539
24385W        W95914  25.429  40.010  11.967
24386W        W95915  13.789  22.740   3.236
24387W        W95916   7.816  31.896   0.923
24388W        W95917  19.564   4.351  12.165
24389W        W95918  26.479  15.782   0.389
24390W        W95919  13.806  11.722   3.781
24391W        W95920  15.758  40.007  14.962
24392W        W95921  28.003  44.813  12.853
24393W        W95922  19.703  21.057  11.145
24394W        W95923  23.536  11.583  12.591
24395W        W95924  12.629  44.864   2.142
24396W        W95925  41.300  15.995   4.991
24397W        W95926  38.050   8.919   1.850
24398W        W95927   7.555   8.879  12.497
24399W        W95928   1.956  27.737  10.922
24400W        W95929  25.430  11.519  14.706
24401W        W95930   7.750  10.449   3.207
24402W        W95931  41.027  42.488   1.782
24403W        W95932  19.235  21.543   0.285
24404W        W95933  16.080  36.146  12.939
24405W        W95934   4.908  16.684   1.356
24406W        W95935  24.684  16.119   1.206
24407W        W95936  14.503  30.717   2.585
24408W        W95937  40.965  31.995  11.771
24409W        W95938  40.227  10.763   4.220
24410W        W95939  16.600  39.852   1.399
24411W        W95940  25.870  13.702   4.104
24412W        W95941  44.984  23.044   1.441
24413W        W95942  20.291  43.245   3.685
24414W        W95943  27.889  20.491   1.894
24415W        W95944  25.586   5.131  10.251
24416W        W95945  16.684  35.280   2.174
24417W        W95946  27.241  17.561   3.272
24418W        W95947  35.569  15.365  12.895
24419W        W95948  27.474  30.466  14.834
24420W        W95949  10.840  42.755   3.300
24421W        W95950  18.485  29.873  11.199
24422W        W95951   2.068  38.069  12.933
24423W        W95952  44.078  43.420   2.847
24424W        W95953  12.820   8.165  14.828
24425W        W95954  39.056  37.600  11.084
24426W        W95955  21.164  44.217   1.999
24427W        W95956   9.792   1.613  10.874
24428W        W95957  12.667  22.012   0.935
24429W        W95958  18.608   0.946   2.913
24430W        W95959   5.937   3.459   1.300
24431W        W95960   8.189   6.471   4.251
24432W        W95961  21.545  26.486   4.112
24433W        W95962  17.328  25.697  11.605
24434W        W95963   7.166  33.441   1.733
24435W        W95964  35.071  16.688  11.497
24436W        W95965  36.567  33.138   4.594
24437W        W95966   7.093   6.713  10.688
24438W        W95967  30.893   3.488  11.700
24439W        W95968  21.448  22.042   2.043
24440W        W95969   2.360   4.297   2.020
24441W        W95970  25.186   0.875   0.387
24442W        W95971  26.133   2.476  14.962
24443W        W95972  29.454  40.790   1.267
24444W        W95973   6.672  17.495  14.289
24445W        W95974  41.923   2.464  11.622
24446W        W95975  26.276  24.930  14.397
24447W        W95976  34.300  20.963   0.448
24448W        W95977  16.699   9.286  14.748
24449W        W95978  42.718  34.081  14.318
24450W        W95979  44.078  35.628  11.009
24451W        W95980  31.262  17.155   1.859
24452W        W95981  14.373  14.560  13.133
24453W        W95982  25.748  26.666   3.297
24454W        W95983  17.681  35.412  13.829
24455W        W95984  32.558  44.760  12.852
24456W        W95985  36.585  41.937  12.679
24457W        W95986   0.900  13.195  13.143
24458W        W95987  16.077  21.223   2.800
24459W        W95988  23.728  28.508   1.797
24460W        W95989  32.620   3.082   3.699
24461W        W95990  15.246  33.855  10.701
24462W        W95991  32.532   2.481   3.365
24463W        W95992  38.711  13.381  13.378
24464W        W95993  32.909  21.430  11.541
24465W        W95994  19.520  31.402  11.082
24466W        W95995   6.882  35.088   0.018
24467W        W95996   8.915  15.218   0.537
24468W        W95997  41.851   7.273  12.949
24469W        W95998  32.281  25.749   3.134
24470W        W95999  20.879  29.332   5.022
24471W        W96000   5.868  31.420   1.790
24472W        W96001  37.978   7.107   0.453
24473W        W96002  18.579  22.733  12.796
24474W        W96003  40.600  33.595  12.853
24475W        W96004  23.239   4.871   3.775
24476W        W96005  19.646   8.706  11.960
24477W        W96006  15.011  42.783  13.375
24478W        W96007   4.890  28.345  10.925
24479W        W96008  30.991  14.018  10.921
24480W        W96009   8.878  43.469  13.993
24481W        W96010  41.664   0.891  13.564
24482W        W96011  23.131  41.757  14.863
24483W        W96012  11.364  43.401   1.146
24484W        W96013   2.878  40.125   1.163
24485W        W96014  31.018  22.218  13.352
24486W        W96015  38.303  33.906   2.132
24487W        W96016  35.170   9.403   0.036
24488W        W96017   7.676  24.244  12.006
24489W        W96018  36.400  39.070  13.522
24490W        W96019  15.628  17.001   2.781
24491W        W96020  37.828   6.249   2.754
24492W        W96021  12.057  27.837   4.304
24493W        W96022  34.401  26.543   2.670
24494W        W96023  12.325   3.037  14.346
24495W        W96024  19.040  30.388  14.413
24496W        W96025  13.873  18.231  13.057
24497W        W96026  21.482  27.540   0.770
24498W        W96027  27.521  36.961  12.796
24499W        W96028  36.596  17.041  14.584
24500W        W96029   5.873  32.670  12.937
24501W        W96030  20.443  25.052  13.556
24502W        W96031  37.045  24.030   0.896
24503W        W96032  31.413  32.597  11.634
24504W        W96033  38.365  18.451  10.847
24505W        W96034  22.382  26.504   1.866
24506W        W96035   0.891  11.133   2.876
24507W        W96036   4.874  20.760   3.545
24508W        W96037  39.278  10.771  10.793
24509W        W96038  10.217  34.018   4.265
24510W        W96039  21.484  36.834   5.099
24511W        W96040  43.861  24.716   1.146
24512W        W96041  19.281  32.098   0.806
24513W        W96042   6.166   5.508   2.591
24514W        W96043  39.111  20.150  14.398
24515W        W96044   2.415  15.637  10.753
24516W        W96045   4.593   4.048  13.056
24517W        W96046  24.104  20.573   0.493
24518W        W96047  38.831  27.010  13.296
24519W        W96048   1.479   2.731   3.328
24520W        W96049  41.829  42.046   0.169
24521W        W96050   0.039  18.191   3.665
24522W        W96051   7.674  31.952  12.048
24523W        W96052  33.593   5.912   4.203
24524W        W96053  17.696  26.413  11.895
24525W        W96054  14.248   7.921  12.998
24526W        W96055  35.747  32.215  13.873
24527W        W96056  20.274  29.392  11.079
24528W        W96057  33.026  23.424   2.647
24529W        W96058  25.294  39.873   1.704
24530W        W96059  34.296   0.834  13.660
24531W        W96060   3.997  24.332  10.892
24532W        W96061  32.528  11.747  12.551
24533W        W96062  16.051  14.844  12.037
24534W        W96063  20.228  19.709  13.318
24535W        W96064  43.408  42.466  14.228
24536W        W96065   3.512  24.928   1.554
24537W        W96066  40.949  28.535  10.633
24538W        W96067  30.819  28.919  12.273
24539W        W96068  16.643   8.770   1.717
24540W        W96069   2.699  27.285  12.726
24541W        W96070  33.971  24.482   2.799
24542W        W96071   9.216  42.484   3.201
24543W        W96072   2.810   4.239   1.126
24544W        W96073  44.705  15.457   4.194
24545W        W96074   7.803  24.173  12.494
24546W        W96075  11.602  20.978  14.080
24547W        W96076  23.436   7.647   4.592
24548W        W96077  41.109  12.317  13.704
24549W        W96078   2.014  15.769   2.784
24550W        W96079  17.726  23.066   2.889
24551W        W96080  41.056  13.879  14.361
24552W        W96081  32.041  21.323  12.521
24553W        W96082  17.110   7.695   3.209
24554W        W96083   4.193  23.576  11.046
24555W        W96084  17.780  24.529   3.834
24556W        W96085  38.341   7.602  12.955
24557W        W96086  25.419   3.171  14.205
24558W        W96087  33.930   7.361  10.933
24559W        W96088   2.785  33.080  13.908
24560W        W96089  22.522  36.586  12.975
24561W        W96090   8.445  43.599   2.078
24562W        W96091  23.463  17.746   2.702
24563W        W96092   6.377  15.702  14.717
24564W        W96093  35.015   7.209  12.517
24565W        W96094  22.243  23.864   4.118
24566W        W96095   0.764   4.671  10.788
24567W        W96096  12.935  39.477  14.846
24568W        W96097  39.977  33.375  14.939
24569W        W96098  44.567  34.919   4.099
24570W        W96099  10.990  28.774  13.481
24571W        W96100  20.993  42.462   4.905
24572W        W96101  12.570  17.750  14.483
24573W        W96102  41.477  43.426  13.587
24574W        W96103   4.293  41.976  13.479
24575W        W96104   4.230  18.040   3.694
24576W        W96105  40.049   4.790   2.732
24577W        W96106  29.428  19.165  12.437
24578W        W96107   2.464  26.156   4.181
24579W        W96108  26.216  20.650  14.404
24580W        W96109  33.273  44.877  14.852
24581W        W96110   0.044  38.691  12.920
24582W        W96111  32.582   3.253   4.913
24583W        W96112  33.294  32.022  11.177
24584W        W96113  24.811  36.876  14.694
24585W        W96114  13.767  17.140  12.445
24586W        W96115  32.455  33.782   2.141
24587W        W96116  32.333  36.851  13.693
24588W        W96117  25.433  22.818  14.358
24589W        W96118  23.217  42.136  11.750
24590W        W96119  26.436  27.062   2.709
24591W        W96120  29.960  20.772   2.371
24592W        W96121  31.405  11.334   0.282
24593W        W96122  10.717   6.753  12.350
24594W        W96123   7.203  32.858   3.810
24595W        W96124  38.263  41.064   4.132
24596W        W96125   4.260  44.772  12.354
24597W        W96126   8.848  39.285  10.727
24598W        W96127  28.216  19.994  13.279
24599W        W96128  43.481  27.265   2.330
24600W        W96129   4.341  39.502  13.436
24601W        W96130  10.359   5.874  14.097
24602W        W96131  11.354   5.921  14.965
24603W        W96132  29.473  37.313   1.903
24604W        W96133   6.136   1.885   3.106
24605W        W96134   8.788  21.164  13.399
24606W        W96135  28.179  11.201  13.723
24607W        W96136  37.434  42.193  13.598
24608W        W96137  39.519   0.899   2.312
24609W        W96138  43.998   0.390   3.065
24610W        W96139  33.101  17.146  11.874
24611W        W96140  19.030  31.445   1.761
24612W        W96141  28.052   9.381  10.926
24613W        W96142  24.079  13.242  14.989
24614W        W96143  14.873  25.418  10.680
24615W        W96144   4.344  35.469  12.091
24616W        W96145   5.387  33.473   4.621
24617W        W96146   0.749  26.535  14.830
24618W        W96147  29.048  20.503   2.899
24619W        W96148  36.901  34.401   4.713
24620W        W96149  44.831  43.978   2.916
24621W        W96150   4.759  32.200   3.802
24622W        W96151  16.060  29.552   1.254
24623W        W96152  32.565  16.494  14.443
24624W        W96153  14.675   5.131   3.203
24625W        W96154  40.856  37.650   2.367
24626W        W96155  40.460   9.642   0.031
24627W        W96156  28.565  13.131   4.190
24628W        W96157  10.733  25.737   0.841
24629W        W96158  25.728  38.908   4.828
24630W        W96159  26.622   1.783  12.451
24631W        W96160  24.182  28.400  10.407
24632W        W96161  36.001  22.075   4.622
24633W        W96162  44.399  26.240   0.813
24634W        W96163  16.812  19.615   0.877
24635W        W96164  39.745  18.812  14.335
24636W        W96165  31.588   2.843  14.911
24637W        W96166  13.687  18.049   3.174
24638W        W96167  25.035  12.272  10.579
24639W        W96168  40.219  34.058  14.275
24640W        W96169   2.676  42.937   0.312
24641W        W96170   6.881  15.193   2.127
24642W        W96171  28.653  24.544   2.135
24643W        W96172   5.854  31.944   4.247
24644W        W96173  37.830  10.178   4.585
24645W        W96174   7.292  37.043   1.754
24646W        W96175  35.524  19.798   3.227
24647W        W96176  14.263  36.518  13.926
24648W        W96177  38.539  20.778  14.408
24649W        W96178  42.760  35.273   1.807
24650W        W96179   8.457  18.023   3.477
24651W        W96180  39.125   4.860  11.107
24652W        W96181   8.254  39.734  12.284
24653W        W96182  13.432  26.500  12.922
24654W        W96183  36.419  21.387  11.615
24655W        W96184   8.635  40.376   4.009
24656W        W96185  22.687  42.322  10.119
24657W        W96186  24.652  25.667   4.194
24658W        W96187  26.986  41.404  14.732
24659W        W96188  23.314  36.986  14.404
24660W        W96189  36.347  26.912  13.033
24661W        W96190  31.947   7.711   0.958
24662W        W96191  31.906   8.656  10.614
24663W        W96192  38.148  36.062   4.124
24664W        W96193  28.795  40.223   4.489
24665W        W96194  36.565   6.886   2.181
24666W        W96195  37.818   7.145  12.234
24667W        W96196   3.494  36.717   3.236
24668W        W96197  41.394  19.204  13.375
24669W        W96198  22.967  28.758   4.260
24670W        W96199   0.574  22.532   2.735
24671W        W96200  39.357  23.526  13.416
24672W        W96201   6.948   7.299   3.889
24673W        W96202   5.800   1.557  13.110
24674W        W96203   3.999  42.356   2.234
24675W        W96204   8.136  24.061   3.706
24676W        W96205  37.946  10.897  11.996
24677W        W96206  27.739  32.360   3.422
24678W        W96207   3.242  22.230  10.184
24679W        W96208  28.689   4.490  14.052
24680W        W96209  32.362  18.583  14.364
24681W        W96210  21.730  29.392  11.076
24682W        W96211  16.778  33.451   0.757
24683W        W96212  33.026  26.868  14.634
24684W        W96213  42.942  44.572  14.546
24685W        W96214   6.755  25.173  11.394
24686W        W96215  40.502   5.307  11.484
24687W        W96216   5.153  44.216  10.298
24688W        W96217  44.531  26.952   3.802
24689W        W96218  14.233  36.083  11.360
24690W        W96219  20.285   1.028   2.388
24691W        W96220  38.250  38.366  14.865
24692W        W96221  22.431  28.565   3.629
24693W        W96222  27.391   1.130   3.443
24694W        W96223  43.544  16.153  11.065
24695W        W96224  18.471   9.199   4.724
24696W        W96225  39.870  29.966   4.075
24697W        W96226  31.640  25.640   4.402
24698W        W96227  29.227  15.633   1.375
24699W        W96228  26.240   6.417  13.540
24700W        W96229  28.421  25.770   1.410
24701W        W96230   6.772  15.038   1.263
24702W        W96231  22.048   3.042   1.380
24703W        W96232  25.763  25.246   0.212
24704W        W96233  29.874  33.192  13.791
24705W        W96234  28.110   4.789  12.817
24706W        W96235  18.655  26.662  13.984
24707W        W96236   1.420  23.650  14.698
24708W        W96237   3.698  24.668   4.277
24709W        W96238   4.899  11.620   4.630
24710W        W96239  31.496   6.170  11.647
24711W        W96240  13.422  21.886   4.924
24712W        W96241  23.512  20.785  10.778
24713W        W96242  11.461  33.790   3.359
24714W        W96243   9.194  37.114   0.286
24715W        W96244  35.968   4.825  11.189
24716W        W96245  27.722  36.188   0.756
24717W        W96246  18.460  10.421  12.060
24718W        W96247  22.152   4.504  14.776
24719W        W96248  34.849  18.789  10.785
24720W        W96249  41.373  22.855   1.305
24721W        W96250   9.403  26.080  11.275
24722W        W96251   5.103  22.960   0.211
24723W        W96252  27.104  38.558   0.184
24724W        W96253   8.777   0.168   1.802
24725W        W96254  31.647  42.457   0.398
24726W        W96255   7.924  32.115   0.401
24727W        W96256   8.326  26.540   4.772
24728W        W96257  41.822  30.240   2.390
24729W        W96258  41.005  31.655   1.472
24730W        W96259  22.336  18.141   5.040
24731W        W96260  22.719  36.928   1.501
24732W        W96261   7.402   6.274  11.628
24733W        W96262  17.186  28.429  12.900
24734W        W96263  13.916  37.395  11.564
24735W        W96264  17.113  17.289   3.683
24736W        W96265  13.709  20.632  10.148
24737W        W96266  13.321  40.012  12.864
24738W        W96267  14.686  31.534  14.301
24739W        W96268   4.409  16.357   2.789
24740W        W96269  34.015  33.604  13.033
24741W        W96270  35.448  33.134  13.086
24742W        W96271  16.999   6.351   0.943
24743W        W96272  15.783  27.219   1.690
24744W        W96273   2.796   5.600   1.817
24745W        W96274  13.849   6.941   0.971
24746W        W96275  22.698  13.229  14.574
24747W        W96276  16.857  29.457  12.491
24748W        W96277  38.758   8.897   0.327
24749W        W96278   3.928  39.232  10.687
24750W        W96279  31.054  17.610  13.434
24751W        W96280  32.097  43.199   4.949
24752W        W96281  37.596  30.009   0.610
24753W        W96282  21.443  12.241   1.383
24754W        W96283  35.436  34.586   3.494
24755W        W96284  28.021  23.333  11.185
24756W        W96285  36.005  10.328   0.951
24757W        W96286   9.476  15.987  14.920
24758W        W96287  24.120  19.979   2.808
24759W        W96288  39.973  24.024   2.164
24760W        W96289  16.059   1.787  14.058
24761W        W96290  21.104  13.205  12.184
24762W        W96291   7.024  16.737   0.039
24763W        W96292  34.007  38.759   0.325
24764W        W96293   8.768  16.277  11.965
24765W        W96294  17.162   9.255  12.872
24766W        W96295  31.527  25.731  12.557
24767W        W96296  23.982   7.409   0.833
24768W        W96297  31.919  23.049   3.332
24769W        W96298  28.546   1.831  11.790
24770W        W96299  42.967  26.817  12.373
24771W        W96300  18.145  14.193  12.377
24772W        W96301  13.594  43.347   4.586
24773W        W96302  30.039   8.341  12.766
24774W        W96303  15.738   7.764  10.710
24775W        W96304  25.723  32.551   1.822
24776W        W96305  39.884  15.924  10.528
24777W        W96306   5.793  22.533  14.985
24778W        W96307   5.269  17.553  12.530
24779W        W96308  17.799  23.657   4.122
24780W        W96309  42.930  43.546   0.977
24781W        W96310   4.906   1.798  14.338
24782W        W96311  39.226   9.279  13.751
24783W        W96312   1.601  35.830  13.390
24784W        W96313  25.826  11.633   4.655
24785W        W96314  40.382  44.740  12.914
24786W        W96315   9.691  29.881  13.857
24787W        W96316   3.882   3.146   1.968
24788W        W96317  21.613  36.573  12.884
24789W        W96318  43.049  33.423   4.576
24790W        W96319  40.955  25.745  13.111
24791W        W96320  35.909  27.021   0.817
24792W        W96321  24.981  29.644  13.556
24793W        W96322  21.230   5.499  12.219
24794W        W96323  38.510  27.428  11.169
24795W        W96324  32.778  26.871  13.751
24796W        W96325   8.967  38.122   1.813
24797W        W96326  38.804  16.821   0.445
24798W        W96327  44.290   2.253  14.089
24799W        W96328   5.715  19.259   0.308
24800W        W96329  40.333  37.449  14.386
24801W        W96330  22.612  30.662  11.992
24802W        W96331  31.481  15.298   1.712
24803W        W96332  19.242  43.502  14.875
24804W        W96333  38.842  44.417   4.606
24805W        W96334   8.316  13.740  13.985
24806W        W96335  34.081  32.347  14.717
24807W        W96336  35.427  24.114   4.372
24808W        W96337  44.110  20.723   0.433
24809W        W96338  13.549  22.750  13.388
24810W        W96339  42.509  11.183  14.067
24811W        W96340  34.445  11.721  13.811
24812W        W96341   0.992   9.893   4.623
24813W        W96342   2.319  18.156  14.768
24814W        W96343  28.233  43.271  13.834
24815W        W96344  16.938  11.385   4.229
24816W        W96345  35.123  12.916   3.289
24817W        W96346  28.231   6.737  12.543
24818W        W96347  38.869  17.254  11.459
24819W        W96348  29.876  31.692   1.448
24820W        W96349  35.920   4.871   3.803
24821W        W96350   1.900   7.875  12.470
24822W        W96351  29.619  21.621  14.087
24823W        W96352  14.580  42.793   3.107
24824W        W96353  19.346  32.946   3.720
24825W        W96354  16.353  35.406  10.733
24826W        W96355  36.869  11.835   4.051
24827W        W96356   7.288  39.133   1.318
24828W        W96357  10.074  30.484  10.770
24829W        W96358  34.591   8.810   2.411
24830W        W96359  24.090  44.629  14.366
24831W        W96360   9.766  11.605  11.007
24832W        W96361  31.186  27.541  11.767
24833W        W96362  21.602  43.496   2.935
24834W        W96363  20.586  28.470   2.873
24835W        W96364  18.563  41.457  11.053
24836W        W96365  31.983  37.301  12.661
24837W        W96366  20.763   5.187  11.955
24838W        W96367  29.529  28.555   4.518
24839W        W96368  13.326  21.791  13.136
24840W        W96369   3.240  44.891  10.734
24841W        W96370  11.889  19.612  13.836
24842W        W96371  19.602   1.430  13.881
24843W        W96372   8.855  35.183  13.961
24844W        W96373  16.941  41.814  12.188
24845W        W96374  30.949  15.196   1.797
24846W        W96375   1.012  38.849  11.413
24847W        W96376   2.400  11.188  10.330
24848W        W96377  16.832  38.909   1.730
24849W        W96378  35.794  24.478  12.517
24850W        W96379  39.921  13.837   0.467
24851W        W96380  12.282  39.846   2.437
24852W        W96381  40.048  15.957  11.384
24853W        W96382  19.786  38.378   0.323
24854W        W96383  43.820  18.021   1.897
24855W        W96384  19.379  10.252  11.161
24856W        W96385  37.586  20.266  10.697
24857W        W96386  22.138  21.046   2.116
24858W        W96387  28.933  15.763  12.639
24859W        W96388  36.208  30.828  13.857
24860W        W96389  23.457  26.392  10.738
24861W        W96390  43.869  41.263  12.470
24862W        W96391  21.274  29.727   2.174
24863W        W96392  21.876  35.336   3.341
24864W        W96393  21.604   4.230   3.067
24865W        W96394  11.161  22.493  14.925
24866W        W96395  21.226  18.682   0.005
24867W        W96396   5.703   7.665   0.987
24868W        W96397  40.993  21.077  11.570
24869W        W96398  44.507  26.519  13.953
24870W        W96399  25.716  21.444  13.959
24871W        W96400  36.993  20.151   2.166
24872W        W96401  34.558  15.857   3.075
24873W        W96402  42.791  16.186   4.627
24874W        W96403  20.873  31.192  11.632
24875W        W96404  18.473  11.687  10.883
24876W        W96405   3.322  26.223   0.584
24877W        W96406  35.276   6.382   4.632
24878W        W96407  33.101   3.528   0.018
24879W        W96408  43.294  28.063   1.243
24880W        W96409  42.436  34.420  10.670
24881W        W96410   8.749  38.384   4.614
24882W        W96411  27.992  34.780  14.566
24883W        W96412   7.648  38.057   2.583
24884W        W96413  11.694  22.650  10.136
24885W        W96414  20.395   7.297   2.782
24886W        W96415  21.524  30.122   1.259
24887W        W96416   1.509   3.677   1.454
24888W        W96417   7.131  20.700   1.374
24889W        W96418  30.089  20.948   1.413
24890W        W96419   4.384   1.624  12.145
24891W        W96420  36.583  39.019   4.257
24892W        W96421  43.527  42.920   3.153
24893W        W96422  12.346  36.878   4.179
24894W        W96423   4.262  38.202  12.004
24895W        W96424  13.767  27.734   2.031
24896W        W96425  13.556  16.118   1.790
24897W        W96426  25.739  32.190   0.831
24898W        W96427  13.185  11.724   0.349
24899W        W96428  19.332   6.402  12.547
24900W        W96429  41.028  15.183  11.521
24901W        W96430   5.732  23.029  10.552
24902W        W96431   4.355   2.934   3.742
24903W        W96432  39.646  18.516   2.096
24904W        W96433  11.310  30.171   4.117
24905W        W96434  13.152   5.466  13.376
24906W        W96435  36.115   2.150   2.344
24907W        W96436   3.615  12.404   0.111
24908W        W96437  35.389  41.868  13.919
24909W        W96438  16.690  32.542  13.678
24910W        W96439  34.547  35.700   1.271
24911W        W96440   6.744  42.895   0.970
24912W        W96441  25.903  10.247  11.111
24913W        W96442  17.621  36.295  13.957
24914W        W96443   0.791   8.344   4.543
24915W        W96444  10.775  29.308  14.439
24916W        W96445  31.439  42.768   0.776
24917W        W96446   2.260  25.462   1.981
24918W        W96447  16.587  10.903  13.355
24919W        W96448   4.816   8.743   1.780
24920W        W96449  19.301  13.408  12.054
24921W        W96450   0.811  33.713   1.810
24922W        W96451  23.927  43.749  14.227
24923W        W96452  37.583  37.398   4.571
24924W        W96453  39.329   4.030   4.552
24925W        W96454  38.936  38.465  10.562
24926W        W96455  23.075  27.550  13.932
24927W        W96456  11.367   7.754   2.310
24928W        W96457  13.623   6.409   2.315
24929W        W96458   5.743  31.813   0.409
24930W        W96459   1.067  12.099   2.224
24931W        W96460  39.122   5.378  12.108
24932W        W96461  22.650  29.657   4.161
24933W        W96462  42.408  42.216  13.464
24934W        W96463  12.351  43.320   0.306
24935W        W96464  10.914  28.399  12.515
24936W        W96465  33.918   7.732  12.813
24937W        W96466  30.936  27.637  12.825
24938W        W96467  20.525   4.476   2.511
24939W        W96468  25.556  10.721   0.977
24940W        W96469  25.129   4.508   0.904
24941W        W96470   9.662  23.163   3.779
24942W        W96471   7.597  28.981  14.375
24943W        W96472  30.171   6.323  12.679
24944W        W96473  33.087  44.217   2.990
24945W        W96474  27.207  14.593  11.082
24946W        W96475  29.671  22.330   3.075
24947W        W96476  37.594   3.130   4.276
24948W        W96477   8.686  14.908   1.377
24949W        W96478  28.408  21.120  11.026
24950W        W96479  24.921  11.793  10.704
24951W        W96480  23.152  14.789   1.930
24952W        W96481  19.737  42.239   3.278
24953W        W96482  43.373  40.415   1.889
24954W        W96483  13.939  41.877  14.872
24955W        W96484  13.867   0.690  14.277
24956W        W96485   0.735  11.408  13.387
24957W        W96486   7.198  36.808   1.288
24958W        W96487  16.747   9.741  11.878
24959W        W96488  42.000   5.691   2.609
24960W        W96489   9.966  12.134  14.867
24961W        W96490  42.507  32.596   1.319
24962W        W96491   7.471  24.214   1.513
24963W        W96492  13.277   3.220   0.452
24964W        W96493  33.933  17.712   1.492
24965W        W96494   7.639  17.744  10.781
24966W        W96495  27.378  23.874   3.694
24967W        W96496  26.265  24.082   0.374
24968W        W96497  12.852  22.221   2.301
24969W        W96498   9.125  29.136  13.400
24970W        W96499   1.393  32.433   3.747
24971W        W96500  11.170  25.440  10.755
24972W        W96501  32.116   0.938   4.269
24973W        W96502   9.330  34.332   0.867
24974W        W96503  10.451   1.149   0.804
24975W        W96504   8.944  10.418   4.137
24976W        W96505  22.739  18.355  13.562
24977W        W96506  15.189   7.806  14.985
24978W        W96507  40.460  19.653   1.241
24979W        W96508  18.249  40.047  14.038
24980W        W96509   6.777  39.500   3.810
24981W        W96510  43.878  31.466  11.223
24982W        W96511  10.234  34.991   3.733
24983W        W96512  13.734  11.090   1.976
24984W        W96513  16.288   5.589   3.542
24985W        W96514   3.550  34.395   4.062
24986W        W96515  22.047  12.114  14.997
24987W        W96516  38.961  42.645  12.995
24988W        W96517   2.430   5.172   4.240
24989W        W96518   5.726  12.180  14.450
24990W        W96519   3.326  39.159  11.991
24991W        W96520   2.210   1.341  10.746
24992W        W96521  23.772  12.808  10.652
24993W        W96522  11.831   9.885   1.856
24994W        W96523  21.667  12.486  14.865
24995W        W96524  12.146   2.032  13.429
24996W        W96525  19.375   3.374   0.902
24997W        W96526  29.717   2.201   3.357
24998W        W96527  26.456   8.701   1.770
24999W        W96528  21.766  40.791  14.250
25000W        W96529  13.339  42.116   3.379
25001W        W96530  31.963  12.395   2.799
25002W        W96531  19.715  12.592  14.529
25003W        W96532  33.797  28.072  10.108
25004W        W96533  32.074  43.006  14.799
25005W        W96534  14.252  39.018  14.780
25006W        W96535  26.673   0.787   2.199
25007W        W96536  35.405  14.147  13.689
25008W        W96537   9.790   4.441   1.124
25009W        W96538  35.914   5.885  12.011
25010W        W96539   4.325  42.826  12.019
25011W        W96540   1.357  24.626   4.594
25012W        W96541  30.544  30.078   4.043
25013W        W96542   2.424  17.011   4.790
25014W        W96543  29.434  43.539  11.471
25015W        W96544  17.825   1.456  13.003
25016W        W96545  20.668  21.995   2.959
25017W        W96546  39.413   2.070  13.741
25018W        W96547  42.351  20.570   0.699
25019W        W96548  43.631  41.818   1.766
25020W        W96549  13.105  34.045   0.240
25021W        W96550  43.045  28.914   2.851
25022W        W96551   1.783   8.853  10.665
25023W        W96552  44.942  26.042  12.550
25024W        W96553  37.251  33.509   5.071
25025W        W96554  13.154  38.106   3.703
25026W        W96555  23.760  23.493  10.481
25027W        W96556  31.350  44.860   0.827
25028W        W96557   6.419   1.053   1.259
25029W        W96558   6.986  31.219   0.310
25030W        W96559   9.006   7.473   2.664
25031W        W96560   0.843  38.200   4.351
25032W        W96561   6.880   9.518   4.400
25033W        W96562  15.183  34.453  11.616
25034W        W96563  19.660  35.193  12.387
25035W        W96564  40.898  36.822   3.567
25036W        W96565  13.342   1.609   4.522
25037W        W96566   3.622  16.276   0.086
25038W        W96567  21.678  38.832  14.336
25039W        W96568  22.300  28.914   4.525
25040W        W96569  43.783  20.264   3.682
25041W        W96570   8.756  30.535   9.870
25042W        W96571   7.844   9.804   0.260
25043W        W96572  44.849  44.867  13.635
25044W        W96573  42.239  14.228   3.685
25045W        W96574  16.755  30.142   3.648
25046W        W96575  33.067  24.426   2.613
25047W        W96576  40.327  36.351   1.787
25048W        W96577   2.775  29.674   0.922
25049W        W96578  38.142  23.793  11.779
25050W        W96579  16.527  20.614   3.416
25051W        W96580  13.570  43.203   0.768
25052W        W96581  12.203  27.148  12.952
25053W        W96582   0.249  27.644   3.219
25054W        W96583  37.503  44.198   4.386
25055W        W96584  10.141  32.386  13.001
25056W        W96585  28.043  26.040   1.711
25057W        W96586  24.556  41.071   3.284
25058W        W96587  26.215   0.323   1.094
25059W        W96588  14.287  22.169   1.685
25060W        W96589  35.011  27.504  11.538
25061W        W96590  37.419   6.891   2.176
25062W        W96591  22.822  21.260  11.120
25063W        W96592  19.528  23.598  12.473
25064W        W96593   4.336  37.312  10.968
25065W        W96594  16.137  37.822  11.140
25066W        W96595  30.100  36.960  14.307
25067W        W96596  26.223  27.242  12.478
25068W        W96597  30.950  30.029   2.316
25069W        W96598   5.408  40.809  12.872
25070W        W96599   7.729   5.410   3.274
25071W        W96600  42.093  19.383   3.721
25072W        W96601  19.236  18.972   0.306
25073W        W96602  30.914   0.202  14.976
25074W        W96603   8.648  18.809  14.882
25075W        W96604  31.972  13.584  14.482
25076W        W96605  18.312  30.698  12.567
25077W        W96606   0.757  36.550  11.996
25078W        W96607  30.049  35.582   1.333
25079W        W96608  14.160  20.485  10.924
25080W        W96609   8.022  41.341   1.625
25081W        W96610  31.893   5.319   3.967
25082W        W96611  42.164  28.457  12.014
25083W        W96612  34.521  12.431   4.679
25084W        W96613  12.328  40.899   2.159
25085W        W96614   2.868   8.381  12.020
25086W        W96615   7.727  38.493   2.896
25087W        W96616  32.578  36.812   1.347
25088W        W96617  12.136  14.123   2.668
25089W        W96618  21.757  21.201  14.944
25090W        W96619  23.139  18.093  13.828
25091W        W96620  43.397  15.264  12.435
25092W        W96621  10.874  16.067   3.436
25093W        W96622  33.002  37.394  14.733
25094W        W96623   1.841  40.878   3.932
25095W        W96624  24.549  42.772   1.847
25096W        W96625  26.620  28.537  12.517
25097W        W96626  17.951   9.551  11.663
25098W        W96627  12.716  24.286  12.404
25099W        W96628  40.307  39.516   1.880
25100W        W96629  38.004   1.802  14.430
25101W        W96630  37.956   6.908   1.246
25102W        W96631   6.387  43.273   1.241
25103W        W96632  24.103  19.527   4.111
25104W        W96633  13.917  38.946  14.275
25105W        W96634   0.421  21.162  10.193
25106W        W96635  30.098  44.303   2.282
25107W        W96636  25.707   3.673   3.222
25108W        W96637  12.464  17.654   0.333
25109W        W96638  12.252  22.508  13.863
25110W        W96639  34.552   8.710  14.276
25111W        W96640  17.537  23.636   3.115
25112W        W96641  15.832  37.042  14.495
25113W        W96642  12.904  30.502  11.506
25114W        W96643  20.222  36.906   0.836
25115W        W96644   1.432  23.004   4.494
25116W        W96645  18.530  26.086   2.959
25117W        W96646   2.173  41.600   9.705
25118W        W96647  39.314  18.629  10.790
25119W        W96648  20.776  23.237  14.815
25120W        W96649  36.062  38.468  11.477
25121W        W96650   6.100  20.709   5.178
25122W        W96651  15.763  30.522   2.802
25123W        W96652  16.678   2.632  13.753
25124W        W96653  16.124  39.457   2.420
25125W        W96654  42.363   6.713   1.685
25126W        W96655  29.439  18.834   4.317
25127W        W96656  32.342   9.817   4.100
25128W        W96657  35.536  20.139   2.232
25129W        W96658  38.669   9.497   0.954
25130W        W96659  29.382  31.575   1.800
25131W        W96660  40.820  35.100  12.724
25132W        W96661  25.515   7.934   4.079
25133W        W96662  26.599  14.129  11.121
25134W        W96663   4.890  11.609   4.076
25135W        W96664  37.967  17.320   4.782
25136W        W96665  11.891  26.609   2.887
25137W        W96666  20.736  32.932  11.417
25138W        W96667  15.623  16.424  11.337
25139W        W96668  26.958  40.652   0.877
25140W        W96669  15.194  20.980  12.083
25141W        W96670  44.450  23.217   2.957
25142W        W96671  13.692  41.310   1.459
25143W        W96672  39.401  29.228   5.011
25144W        W96673  43.959  10.423   4.590
25145W        W96674  23.150  35.527  12.548
25146W        W96675  13.689  19.219   0.017
25147W        W96676  20.142  27.467  10.623
25148W        W96677  32.043   3.769  14.638
25149W        W96678  34.576  10.679   2.363
25150W        W96679  11.035  19.986  10.968
25151W        W96680  39.498  41.386   1.308
25152W        W96681  38.619  17.648   0.624
25153W        W96682  44.505  41.085   4.259
25154W        W96683  27.749  25.065   9.713
25155W        W96684  44.882  44.363   4.670
25156W        W96685  32.291  32.798  13.303
25157W        W96686  37.353   3.459  14.326
25158W        W96687  43.824  26.318   0.351
25159W        W96688  36.384  44.860  10.686
25160W        W96689  23.074  37.721  13.988
25161W        W96690  28.690  31.499   4.580
25162W        W96691  42.033  17.811   3.683
25163W        W96692  20.484  21.581  10.716
25164W        W96693  30.193  32.150   0.322
25165W        W96694  31.597  39.816  14.759
25166W        W96695  19.923  20.759  14.766
25167W        W96696  26.081  20.567  11.506
25168W        W96697  35.532   2.446  13.827
25169W        W96698  37.175  33.165   3.808
25170W        W96699  18.939   9.083  12.302
25171W        W96700   4.509  35.389   1.695
25172W        W96701  44.628  25.834   4.163
25173W        W96702  31.649  42.574  10.596
25174W        W96703   9.497  18.776   2.916
25175W        W96704   6.301  11.091  11.132
25176W        W96705   9.741  18.326   4.674
25177W        W96706   5.789  25.539   0.953
25178W        W96707  35.006  32.037  10.698
25179W        W96708   1.659  14.386   3.136
25180W        W96709  18.523  23.975  12.062
25181W        W96710  20.463  20.564   0.211
25182W        W96711   6.764  40.756   3.430
25183W        W96712  34.614  43.381  11.543
25184W        W96713  38.915  38.325   0.259
25185W        W96714  38.902  14.033  11.926
25186W        W96715  35.023  23.713   3.706
25187W        W96716   0.457   7.958  11.213
25188W        W96717  40.108  26.259  10.246
25189W        W96718  14.124  17.516   1.782
25190W        W96719   7.587  12.556  13.961
25191W        W96720  39.487  12.552   0.745
25192W        W96721  32.978  28.148  13.322
25193W        W96722   7.459  16.668   4.380
25194W        W96723  40.235  16.201   4.259
25195W        W96724  24.862   3.675   2.347
25196W        W96725  41.061  14.170   3.178
25197W        W96726  24.228  21.530  14.114
25198W        W96727  31.789  11.334   4.737
25199W        W96728  13.929  18.894   1.863
25200W        W96729  14.074  18.096  12.594
25201W        W96730  17.582  36.330  13.460
25202W        W96731   7.179  37.995  13.001
25203W        W96732  21.179  29.190  13.376
25204W        W96733  24.716  35.869  13.920
25205W        W96734  25.699  20.127  12.938
25206W        W96735  25.416  30.551  14.108
25207W        W96736  28.911   1.477   3.277
25208W        W96737  14.419  18.780   4.256
25209W        W96738  31.129  39.293  14.618
25210W        W96739  14.912  12.456  11.110
25211W        W96740  28.375  37.724   1.935
25212W        W96741  15.659  35.328   2.106
25213W        W96742  31.927   7.251  12.006
25214W        W96743  23.598  39.269  13.251
25215W        W96744  42.046  11.683   1.881
25216W        W96745   0.037  20.094  11.062
25217W        W96746  40.851  24.584  13.302
25218W        W96747  17.473   3.108   3.247
25219W        W96748  30.812   5.782   2.614
25220W        W96749  30.684  39.850  11.527
25221W        W96750  12.370  22.566  12.440
25222W        W96751  25.717  43.315   2.316
25223W        W96752  42.733  31.173  13.477
25224W        W96753  41.424  15.332   1.943
25225W        W96754  25.960   2.197  11.489
25226W        W96755  17.719  17.994  14.954
25227W        W96756  15.753  23.311   2.387
25228W        W96757  11.783  28.528   3.763
25229W        W96758   4.541  25.122   1.486
25230W        W96759  33.267  20.759   3.466
25231W        W96760   1.296  11.895  12.644
25232W        W96761   7.654   6.293   4.144
25233W        W96762  25.510   6.574   0.850
25234W        W96763  37.300  22.110   3.224
25235W        W96764  35.933  29.544  10.651
25236W        W96765  29.809   0.017  12.607
25237W        W96766   7.927   9.990  14.007
25238W        W96767  22.651  26.812   4.880
25239W        W96768  10.057  19.470   4.321
25240W        W96769  38.778  21.779  11.545
25241W        W96770   8.230  16.088  12.813
25242W        W96771  21.121  39.249   0.575
25243W        W96772  24.936  11.335  14.721
25244W        W96773  33.542  18.508  13.808
25245W        W96774  43.585  21.662  10.846
25246W        W96775  33.650  14.065  11.014
25247W        W96776  38.067  33.526  14.514
25248W        W96777   6.602  24.097  13.212
25249W        W96778   0.801  37.403  10.775
25250W        W96779  22.648   6.341  13.839
25251W        W96780  29.249   3.019   4.402
25252W        W96781  13.851  44.706   0.200
25253W        W96782  39.349  33.143   3.649
25254W        W96783  18.478   1.178   1.329
25255W        W96784   9.073  22.138  10.165
25256W        W96785   2.607  43.443   0.468
25257W        W96786  39.829  23.561   1.950
25258W        W96787  41.008  18.134   0.331
25259W        W96788   0.499  21.855   4.753
25260W        W96789  22.076  28.962  10.744
25261W        W96790  41.478  42.958   3.836
25262W        W96791  28.496  15.324  10.714
25263W        W96792  33.117  37.426  11.985
25264W        W96793  41.573   3.804   1.277
25265W        W96794  27.394  28.811  12.006
25266W        W96795  19.212  32.925  14.455
25267W        W96796  13.384  22.699  12.748
25268W        W96797  33.668  32.925   4.196
25269W        W96798  16.092  13.433  14.043
25270W        W96799  27.382  22.767   1.667
25271W        W96800  40.536  37.342   2.690
25272W        W96801  10.146   1.243  13.498
25273W        W96802  28.348  13.113  13.945
25274W        W96803  25.760  17.903  13.898
25275W        W96804  19.226  19.515   0.283
25276W        W96805  10.755  12.844   1.641
25277W        W96806  29.782  32.121   3.113
25278W        W96807  29.131  26.993   2.680
25279W        W96808  22.191  17.074  13.339
25280W        W96809  40.632  18.013  10.634
25281W        W96810   7.813   4.408  13.090
25282W        W96811  37.463  24.223  14.877
25283W        W96812   4.516  11.447   2.302
25284W        W96813  42.859  29.144   3.282
25285W        W96814  35.468  19.121   1.871
25286W        W96815  19.762  21.532   0.345
25287W        W96816  11.244  33.009   1.176
25288W        W96817  40.171  22.758  12.985
25289W        W96818  38.445   7.941  10.744
25290W        W96819   9.266  40.962  11.723
25291W        W96820  39.422  16.088   1.725
25292W        W96821  44.517   8.468  11.193
25293W        W96822  37.555  38.077   0.307
25294W        W96823  41.336  22.638   3.511
25295W        W96824  13.866  35.119  11.182
25296W        W96825  35.148  32.358   2.331
25297W        W96826   6.195  12.240   0.747
25298W        W96827  38.396  19.679  11.042
25299W        W96828  11.471   9.208  14.848
25300W        W96829   3.153  31.852   4.529
25301W        W96830  29.962  29.900  14.024
25302W        W96831  18.106  43.198  12.097
25303W        W96832   0.824  31.673   2.357
25304W        W96833   5.116  19.710  11.951
25305W        W96834  14.885  38.102   4.162
25306W        W96835  28.667  13.361   2.678
25307W        W96836   9.591  30.339   4.343
25308W        W96837  40.548  15.345  10.720
25309W        W96838   1.760  18.908   2.606
25310W        W96839   5.248  17.468  11.229
25311W        W96840  34.620  22.512  12.376
25312W        W96841   7.953  10.288  13.567
25313W        W96842  44.844  38.396  12.528
25314W        W96843  12.880  42.499   1.895
25315W        W96844  13.395  36.250  13.838
25316W        W96845  39.736  25.038  12.654
25317W        W96846  25.935  33.343   0.725
25318W        W96847  16.293  10.541  12.327
25319W        W96848   8.177  11.429  13.634
25320W        W96849   0.181  24.647   3.170
25321W        W96850  10.244  31.337  13.080
25322W        W96851  40.397  44.187  11.179
25323W        W96852   3.379  15.367  14.912
25324W        W96853  14.675  20.600   0.471
25325W        W96854  18.728   7.951  12.167
25326W        W96855  15.507   2.745   3.262
25327W        W96856   1.348  16.140   4.892
25328W        W96857   5.881   9.818   4.209
25329W        W96858  37.176  26.683   3.797
25330W        W96859  27.622   2.056   0.091
25331W        W96860   2.804   0.451  11.550
25332W        W96861   8.889  13.604   1.204
25333W        W96862   0.246  38.773  11.071
25334W        W96863   1.285  30.918   2.629
25335W        W96864  23.799  29.535   1.714
25336W        W96865  27.941   1.308  14.369
25337W        W96866  31.007   2.903  11.925
25338W        W96867  35.076   7.645   0.856
25339W        W96868  28.084   0.250   2.391
25340W        W96869  12.988  40.377  13.845
25341W        W96870  24.192  11.370  14.020
25342W        W96871  12.761  25.174  10.611
25343W        W96872  31.478   2.740   2.224
25344W        W96873  20.325  25.021   3.214
25345W        W96874  17.310  15.112   3.674
25346W        W96875  16.201  11.130   2.295
25347W        W96876  38.850  42.145  12.910
25348W        W96877   3.383  15.552   3.709
25349W        W96878   9.633  13.822  12.602
25350W        W96879  24.400  28.568   3.717
25351W        W96880  38.068   1.602   3.646
25352W        W96881  43.279  33.321   2.203
25353W        W96882  33.080  12.516  13.511
25354W        W96883   1.470  33.718  12.544
25355W        W96884  31.054  40.026  12.648
25356W        W96885  18.208  10.743  13.005
25357W        W96886   2.667  14.624  12.813
25358W        W96887   2.801  33.388  10.963
25359W        W96888  24.969  32.756  12.464
25360W        W96889  20.021  40.586  10.363
25361W        W96890  13.549   3.324   4.180
25362W        W96891   8.737  14.633  13.492
25363W        W96892  23.049  20.737   1.234
25364W        W96893  18.003  32.626   4.692
25365W        W96894   4.328  32.531   0.857
25366W        W96895   1.289   9.460   4.662
25367W        W96896   0.278  27.695  14.433
25368W        W96897   3.770  31.502   0.269
25369W        W96898  15.032  39.360   2.137
25370W        W96899  28.018  19.114   4.359
25371W        W96900  14.126  24.309  12.685
25372W        W96901  32.143  30.969  10.540
25373W        W96902  14.553  16.088   1.810
25374W        W96903  14.516  43.819  10.387
25375W        W96904  22.160  27.948   4.365
25376W        W96905  30.359  18.348  13.574
25377W        W96906  35.944  17.756  13.108
25378W        W96907   7.875  14.865   1.004
25379W        W96908  31.055  22.582   1.900
25380W        W96909  22.535   9.743  14.938
25381W        W96910   7.255   3.918   4.492
25382W        W96911  14.571  11.369  13.320
25383W        W96912  30.414  25.891   1.665
25384W        W96913  26.629  14.109   2.184
25385W        W96914  17.504  39.584   4.639
25386W        W96915  26.408  41.926  13.876
25387W        W96916  41.252  22.245  10.819
25388W        W96917  37.864  26.058  14.728
25389W        W96918  22.730   2.971   1.758
25390W        W96919  25.661  34.981   3.878
25391W        W96920   4.953  22.631  11.191
25392W        W96921  36.955  27.044   4.116
25393W        W96922  13.902  28.375   0.675
25394W        W96923   6.232  38.780   2.199
25395W        W96924  14.251   8.658   4.322
25396W        W96925  39.793   2.326   3.211
25397W        W96926   5.312  43.922  10.725
25398W        W96927  18.930  42.029  13.431
25399W        W96928  44.408  13.216  12.894
25400W        W96929  31.864  41.706   1.385
25401W        W96930  23.118   5.814  12.953
25402W        W96931   3.214  13.854   1.783
25403W        W96932  27.128  11.215   2.145
25404W        W96933  22.063  14.380   1.223
25405W        W96934  18.827  28.230  10.232
25406W        W96935   7.687  35.401  14.796
25407W        W96936   4.727  39.472  12.090
25408W        W96937  10.967   8.696  11.041
25409W        W96938  27.121  36.982   1.852
25410W        W96939   6.391  11.261  13.474
25411W        W96940  40.422  17.595   4.900
25412W        W96941  25.470  32.712   0.009
25413W        W96942   5.940  39.066  13.414
25414W        W96943  42.576   1.827  13.770
25415W        W96944  13.737  34.980  11.676
25416W        W96945  20.230  19.636   4.755
25417W        W96946  10.275  24.524  12.377
25418W        W96947  13.803  15.213   2.782
25419W        W96948   2.437   7.185   0.720
25420W        W96949  25.392  42.513   2.006
25421W        W96950   5.094  15.011   9.991
25422W        W96951  37.529  32.959   2.590
25423W        W96952  16.162  44.636   2.268
25424W        W96953   0.027  14.731  10.951
25425W        W96954   6.188  39.226  11.738
25426W        W96955   1.174  10.390   4.576
25427W        W96956   9.311  27.605   0.397
25428W        W96957  32.275  11.156   3.395
25429W        W96958  29.101  20.343   2.408
25430W        W96959  34.951  41.978   0.708
25431W        W96960   5.330  12.080  13.359
25432W        W96961  44.760  26.490   3.242
25433W        W96962  37.050  32.890  12.539
25434W        W96963  14.790   2.072  11.934
25435W        W96964  19.899  11.256   3.849
25436W        W96965   4.739  12.787   4.996
25437W        W96966  21.676  17.636   1.709
25438W        W96967  30.579  37.155   0.885
25439W        W96968  26.128  14.475  14.429
25440W        W96969  43.151  37.035   4.136
25441W        W96970  26.541  27.141  14.860
25442W        W96971  19.161  18.545  13.953
25443W        W96972  26.406  19.097   1.692
25444W        W96973  33.905  14.138  13.993
25445W        W96974   9.121   0.661   3.606
25446W        W96975   0.220  24.743   1.715
25447W        W96976  39.001   4.958  10.501
25448W        W96977  32.854  34.994  11.585
25449W        W96978  18.089  25.410   1.628
25450W        W96979   4.943   0.452  10.752
25451W        W96980   4.702  23.634  10.159
25452W        W96981  29.025  32.692   1.334
25453W        W96982  22.692  31.413   1.559
25454W        W96983  42.441   6.150   2.422
25455W        W96984  27.486   4.346  11.655
25456W        W96985  28.625  29.084  12.372
25457W        W96986  35.334   1.346   0.945
25458W        W96987  23.277  15.366   0.982
25459W        W96988  24.743  31.068   1.111
25460W        W96989  37.362  10.444  12.723
25461W        W96990   1.792  13.602  12.174
25462W        W96991   0.868  16.120  11.334
25463W        W96992  42.379  41.607   3.864
25464W        W96993  30.514   6.032  12.987
25465W        W96994  28.444  19.582  14.115
25466W        W96995  41.832  43.154   4.585
25467W        W96996  38.062   5.435  12.606
25468W        W96997  18.840  10.834   3.172
25469W        W96998  12.074  28.149  12.880
25470W        W96999  16.400  32.510   2.457
25471W        W97000  11.649  18.214   3.362
25472W        W97001  11.372  26.740  11.338
25473W        W97002   9.921  19.644   3.355
25474W        W97003   4.628  31.845   4.596
25475W        W97004  11.802   1.838   4.660
25476W        W97005  18.715  15.060  13.145
25477W        W97006   0.766  24.870  14.885
25478W        W97007  17.691  37.910   2.287
25479W        W97008  37.828  20.891  10.970
25480W        W97009   5.689  27.927  14.619
25481W        W97010  18.888  39.786   3.634
25482W        W97011  15.030  28.708   4.363
25483W        W97012  40.019  43.480   2.745
25484W        W97013   7.201  41.956   0.032
25485W        W97014  25.498  41.991   3.596
25486W        W97015  30.351  42.823   2.381
25487W        W97016  29.657  28.041   4.582
25488W        W97017  27.178   9.727   1.307
25489W        W97018  23.878   7.504  12.535
25490W        W97019   6.004   4.178   4.090
25491W        W97020  36.518  28.648  12.066
25492W        W97021  37.667  35.115   1.048
25493W        W97022  12.225  18.873  14.005
25494W        W97023  39.753  32.563  13.048
25495W        W97024  29.382  26.460   2.423
25496W        W97025  34.463  31.205   0.835
25497W        W97026  37.331   5.680  11.550
25498W        W97027   0.926  16.661  10.920
25499W        W97028  20.203  37.503  11.507
25500W        W97029   6.793  11.977   3.356
25501W        W97030  41.360  31.419  11.058
25502W        W97031   1.903  19.315  13.536
25503W        W97032  25.888  37.499  10.760
25504W        W97033  11.571  33.917  14.448
25505W        W97034  41.019   7.449  14.963
25506W        W97035  34.066  41.133   4.101
25507W        W97036  15.724  16.168  10.586
25508W        W97037  17.248  41.430  12.366
25509W        W97038   8.156  10.769   2.663
25510W        W97039  28.504  34.317   3.355
25511W        W97040  29.120  33.308   3.729
25512W        W97041   8.964  34.275  13.062
25513W        W97042   0.753  38.566  12.193
25514W        W97043  41.594  43.178  11.994
25515W        W97044   3.398  43.979  11.963
25516W        W97045  34.026  18.161  14.490
25517W        W97046  15.652   6.196   3.302
25518W        W97047  24.659  39.202   0.932
25519W        W97048  29.528  43.800   1.482
25520W        W97049  24.177  34.939  11.645
25521W        W97050   1.242  42.932   2.105
25522W        W97051  42.363  15.400  11.647
25523W        W97052   2.692  36.024   4.688
25524W        W97053  34.190  12.379   4.228
25525W        W97054  31.913  42.131   4.169
25526W        W97055  22.027   4.703   4.058
25527W        W97056  20.753  38.625  13.873
25528W        W97057  14.021  25.042  14.514
25529W        W97058   6.299  16.148  13.086
25530W        W97059  15.789  34.587   4.835
25531W        W97060  12.911  44.824  11.484
25532W        W97061  33.019  21.889   1.006
25533W        W97062  20.255  25.449  14.353
25534W        W97063  43.494  11.785  11.343
25535W        W97064  15.234  43.722  14.823
25536W        W97065  23.960  17.782   1.306
25537W        W97066  14.939  15.263  13.000
25538W        W97067  14.999  30.883   1.808
25539W        W97068  16.589  30.858   2.288
25540W        W97069   2.659  34.186   2.671
25541W        W97070  25.712   6.376  13.565
25542W        W97071  33.941  18.166  10.882
25543W        W97072   4.927  32.102   2.927
25544W        W97073  30.983  23.811  11.954
25545W        W97074  26.377  15.127  10.512
25546W        W97075  11.593   8.880   1.849
25547W        W97076  20.644  11.711  14.464
25548W        W97077  44.784  26.243   3.905
25549W        W97078  31.856  25.566  13.545
25550W        W97079   6.170  38.175  10.991
25551W        W97080   7.900  41.545   3.757
25552W        W97081  29.663  39.999  10.712
25553W        W97082  34.469   1.795   3.993
25554W        W97083  30.174  42.947   2.912
25555W        W97084  34.448   1.371   4.287
25556W        W97085  11.769  22.759  11.863
25557W        W97086  37.005  16.199  13.818
25558W        W97087   5.901  26.955  14.366
25559W        W97088  13.640  34.963   0.027
25560W        W97089  28.918  21.810   1.251
25561W        W97090  28.768  25.311   4.614
25562W        W97091  31.433  26.727   0.566
25563W        W97092   4.235  41.489   0.957
25564W        W97093  30.971  16.187   0.459
25565W        W97094   2.778  28.676   4.326
25566W        W97095  19.953   0.073  12.506
25567W        W97096  27.841  32.499   2.262
25568W        W97097  36.055  11.633   0.303
25569W        W97098  32.387  44.477  14.408
25570W        W97099  42.756  37.877  12.038
25571W        W97100  17.433  11.794   4.855
25572W        W97101  16.782  33.432  12.693
25573W        W97102  40.372  14.456   0.223
25574W        W97103   2.520  13.694   2.210
25575W        W97104  23.621  11.208   1.603
25576W        W97105  20.527   2.191  12.044
25577W        W97106  39.036  24.482   0.242
25578W        W97107  16.860  11.079  12.956
25579W        W97108  34.587  17.266   3.360
25580W        W97109  35.110  43.447  11.656
25581W        W97110  14.891   6.169   3.007
25582W        W97111  35.536  43.501   0.934
25583W        W97112  34.113  21.693   0.760
25584W        W97113  21.068  17.590   0.823
25585W        W97114   3.481  13.414   1.890
25586W        W97115   7.490  21.846  14.489
25587W        W97116  24.765  36.416  11.229
25588W        W97117   9.627  31.850  12.436
25589W        W97118  23.658  18.618  10.614
25590W        W97119  16.556   0.942   1.932
25591W        W97120  30.503   0.480  14.012
25592W        W97121  25.501   4.964  14.786
25593W        W97122  44.989  11.995   0.234
25594W        W97123   4.095  20.204  13.745
25595W        W97124  20.392  41.898  14.081
25596W        W97125  25.132  40.035   2.177
25597W        W97126  21.386  14.219  12.764
25598W        W97127   2.379  38.520   4.081
25599W        W97128  13.570  24.270  11.184
25600W        W97129  34.012  28.564  14.280
25601W        W97130   3.681  33.727  11.512
25602W        W97131  31.973  26.217   2.253
25603W        W97132  44.641  30.928   2.228
25604W        W97133  38.670  44.376   0.267
25605W        W97134  39.340  43.557   3.250
25606W        W97135  41.333   2.259   4.139
25607W        W97136  15.954  36.539  11.496
25608W        W97137  26.713   8.764  13.797
25609W        W97138  27.985  36.751  13.998
25610W        W97139  23.772  30.588   4.035
25611W        W97140   0.977  18.997   3.887
25612W        W97141  30.132  31.208   0.441
25613W        W97142  41.210  36.867   1.322
25614W        W97143  29.313  23.495  13.419
25615W        W97144   4.471  10.216  13.160
25616W        W97145  23.222  37.452   4.486
25617W        W97146  19.356  41.565  14.758
25618W        W97147  36.074  39.949  14.511
25619W        W97148  25.691  43.298  13.938
25620W        W97149  19.140  21.638  10.552
25621W        W97150  12.305  24.452   1.884
25622W        W97151  44.478  32.405   0.873
25623W        W97152  33.845  41.560  12.308
25624W        W97153  22.695   7.813   1.573
25625W        W97154  37.773  34.038   1.182
25626W        W97155  11.189  30.556   0.193
25627W        W97156  41.959  44.255   4.657
25628W        W97157  11.333  11.374   1.262
25629W        W97158   6.664   5.954   0.345
25630W        W97159  38.631  37.388   1.770
25631W        W97160   3.918  30.662  10.570
25632W        W97161   3.379  26.468  11.604
25633W        W97162  11.709  44.860  12.784
25634W        W97163  38.038  28.315   0.195
25635W        W97164   9.605  24.942  10.666
25636W        W97165   6.414  35.074   2.252
25637W        W97166   6.895  28.678  12.859
25638W        W97167  26.049  10.430   4.321
25639W        W97168  21.490  41.373   2.163
25640W        W97169  31.247   0.969   0.285
25641W        W97170  24.942  28.043   1.446
25642W        W97171  22.467  22.960   0.347
25643W        W97172   4.730  39.262  12.553
25644W        W97173  25.714   1.578  11.397
25645W        W97174  34.495   1.915  14.885
25646W        W97175  25.661  27.000  14.211
25647W        W97176  40.628  10.768   4.534
25648W        W97177  39.375  42.464  10.665
25649W        W97178  33.925  19.331  10.730
25650W        W97179   6.365  22.206   2.303
25651W        W97180  34.377   2.946  11.754
25652W        W97181  15.865   5.309  11.988
25653W        W97182  14.587  30.031   0.986
25654W        W97183  22.211  14.657  12.668
25655W        W97184  14.998  25.307  14.396
25656W        W97185  14.575  37.326  10.916
25657W        W97186   2.323  34.907   2.350
25658W        W97187  32.545  27.754   1.320
25659W        W97188  20.679   4.206   3.323
25660W        W97189   8.419  10.791   4.546
25661W        W97190   1.183  44.750   3.193
25662W        W97191  16.971  26.105  14.971
25663W        W97192  25.946  13.897   4.996
25664W        W97193  29.016  11.840   4.597
25665W        W97194  12.254  35.198   1.266
25666W        W97195  38.813  29.548  10.124
25667W        W97196  40.336  25.831   4.577
25668W        W97197  33.427  40.797  14.960
25669W        W97198  30.652   4.355  10.754
25670W        W97199   4.302  44.030   0.760
25671W        W97200  34.103  14.595  13.042
25672W        W97201   1.813   4.224  13.311
25673W        W97202   9.165   4.558  12.877
25674W        W97203  17.231   0.451   4.661
25675W        W97204  32.553  13.943   5.169
25676W        W97205   5.610  33.590  13.905
25677W        W97206   5.428  41.676  14.914
25678W        W97207  40.052  37.944   4.825
25679W        W97208   7.905  39.498  14.294
25680W        W97209  31.535   6.879  11.186
25681W        W97210   2.486  15.075  11.907
25682W        W97211  21.626  13.061   4.157
25683W        W97212  38.991  16.315   1.349
25684W        W97213  26.140  44.506   2.115
25685W        W97214  29.641  24.994   4.896
25686W        W97215   0.364  39.796   3.353
25687W        W97216   2.310   7.200  10.869
25688W        W97217  44.450   0.495   3.812
25689W        W97218  30.307  34.332  13.343
25690W        W97219  24.511  34.065   1.903
25691W        W97220  43.027  31.921  12.422
25692W        W97221  29.752  26.498  14.249
25693W        W97222  28.176   2.810  10.438
25694W        W97223  21.086  28.556   3.026
25695W        W97224  27.475  22.450  11.662
25696W        W97225  38.230  16.705   2.980
25697W        W97226  39.413  39.111   0.156
25698W        W97227   7.211  12.847   0.177
25699W        W97228  41.981  27.477   3.808
25700W        W97229  25.011   7.936  11.863
25701W        W97230   5.861  25.051  11.855
25702W        W97231  41.555  20.659   2.809
25703W        W97232  16.343  23.588  11.728
25704W        W97233  22.774  21.287   5.009
25705W        W97234  36.862  12.659  12.027
25706W        W97235  32.497  22.436   1.397
25707W        W97236   9.384  35.878  14.872
25708W        W97237  43.505  28.591  10.680
25709W        W97238   2.751  13.958  13.496
25710W        W97239  23.572   2.182  13.670
25711W        W97240   2.750  17.889  14.900
25712W        W97241  11.847  30.470   0.713
25713W        W97242  13.695  38.401   1.475
25714W        W97243  29.492  12.342  14.950
25715W        W97244  43.325   2.832   1.810
25716W        W97245   8.299  12.686  14.369
25717W        W97246   6.482   7.293   4.173
25718W        W97247  42.411  31.599  13.592
25719W        W97248  12.383  32.775   0.712
25720W        W97249   6.627   3.238  12.458
25721W        W97250  27.692  35.506   3.708
25722W        W97251   1.418  24.196  13.770
25723W        W97252  30.995  41.549   2.676
25724W        W97253  42.584  22.049  14.815
25725W        W97254  15.843  36.470   4.058
25726W        W97255  32.150   3.915   0.453
25727W        W97256  31.097  21.936  14.401
25728W        W97257  16.471  40.833   1.346
25729W        W97258  25.145  28.974   4.110
25730W        W97259  36.478  36.119   9.949
25731W        W97260  19.099   0.320  14.495
25732W        W97261  19.236  10.215  13.485
25733W        W97262  23.517  11.130  10.605
25734W        W97263  39.385  13.231   1.208
25735W        W97264  28.837  22.844  10.763
25736W        W97265   8.316  38.110  10.465
25737W        W97266   3.910  36.600   0.344
25738W        W97267  26.547   6.082  10.623
25739W        W97268   5.161   7.453  13.048
25740W        W97269  13.619  17.370  11.105
25741W        W97270  29.164  14.893  12.564
25742W        W97271  29.940  22.088  10.896
25743W        W97272   0.205  10.897  12.398
25744W        W97273  23.556  39.657  12.028
25745W        W97274  24.741  33.540  12.513
25746W        W97275  18.560  41.937  13.039
25747W        W97276  40.423  42.478  11.929
25748W        W97277  11.071  15.246  14.956
25749W        W97278   5.953   9.213   2.423
25750W        W97279  27.579  37.813  12.424
25751W        W97280  21.454  37.885  12.369
25752W        W97281  33.531  38.717  14.981
25753W        W97282  30.170  27.279   4.140
25754W        W97283  18.293   4.057  11.636
25755W        W97284  16.752  41.291   1.272
25756W        W97285  16.083  12.944  11.136
25757W        W97286   7.887  23.295   4.463
25758W        W97287  22.108  37.600   4.218
25759W        W97288  42.850   7.221   1.243
25760W        W97289  30.377  37.634   0.917
25761W        W97290  16.140  34.347   1.518
25762W        W97291  34.625   3.475   0.211
25763W        W97292  38.663   5.837  10.464
25764W        W97293   0.300  42.318  14.522
25765W        W97294   1.040  28.555   4.090
25766W        W97295  24.121  33.368   0.212
25767W        W97296  37.301  10.185   4.518
25768W        W97297  31.309  24.340   3.211
25769W        W97298  36.659  31.631  14.281
25770W        W97299  43.277   0.011  14.785
25771W        W97300  35.556  42.724   1.428
25772W        W97301  13.100  31.813  12.929
25773W        W97302   2.459  40.228   2.099
25774W        W97303  34.443  27.484   1.400
25775W        W97304   2.453  28.267   3.066
25776W        W97305  30.001  17.818   4.412
25777W        W97306  10.724   7.203  12.601
25778W        W97307  18.825  28.215   0.948
25779W        W97308  35.638  26.012   0.594
25780W        W97309  29.924  24.168  14.941
25781W        W97310  19.112  17.605  14.956
25782W        W97311  17.320  44.281   2.474
25783W        W97312  44.318  43.102   4.587
25784W        W97313  27.037  44.245  11.529
25785W        W97314  30.860  25.006  14.887
25786W        W97315  15.475  19.636   3.881
25787W        W97316  41.687  28.298  11.833
25788W        W97317  10.746  25.143  14.098
25789W        W97318  20.948  15.868   4.096
25790W        W97319  19.763   0.954  14.041
25791W        W97320  11.169   9.882  13.822
25792W        W97321   3.612  39.147   1.590
25793W        W97322  11.748  21.418  14.326
25794W        W97323  16.793  37.520   0.410
25795W        W97324  42.385  33.393   0.814
25796W        W97325  27.151  20.474   2.665
25797W        W97326  27.145  17.820   4.567
25798W        W97327  23.959  11.590   3.425
25799W        W97328   3.248   1.361   0.531
25800W        W97329  18.993   9.186   0.941
25801W        W97330  15.340  44.919  12.493
25802W        W97331  27.306  32.579   2.245
25803W        W97332  27.795   7.264   2.719
25804W        W97333  39.407  16.263   2.687
25805W        W97334  44.319   9.460  13.425
25806W        W97335  12.637   1.243  14.934
25807W        W97336  30.949  28.753  11.058
25808W        W97337  14.275  43.822   4.272
25809W        W97338   1.983  27.875  12.680
25810W        W97339  16.071  24.741  14.189
25811W        W97340  29.188  25.615   4.639
25812W        W97341  16.699   6.926  14.998
25813W        W97342  44.056  18.698  11.098
25814W        W97343  22.216  21.768  14.536
25815W        W97344   5.911  38.618   2.812
25816W        W97345  33.092  37.293   2.765
25817W        W97346  16.383  12.152  10.243
25818W        W97347  41.453  21.549   3.159
25819W        W97348  32.133  28.565   4.247
25820W        W97349  20.024  18.581   0.326
25821W        W97350  22.609  24.050   3.343
25822W        W97351  33.474  26.469   3.632
25823W        W97352  42.010  11.922   2.373
25824W        W97353   5.361  37.067   0.852
25825W        W97354  14.286  24.339   1.658
25826W        W97355  30.033  35.919  14.513
25827W        W97356  18.037  32.065   4.121
25828W        W97357   9.447  10.427  11.412
25829W        W97358   3.206  22.233   0.836
25830W        W97359  40.784  33.572   9.678
25831W        W97360   0.352  15.565   1.732
25832W        W97361  18.842  15.598   1.261
25833W        W97362  20.502  12.647   2.241
25834W        W97363  19.295   3.658   0.218
25835W        W97364   4.363  32.221   0.466
25836W        W97365  37.695  39.828  11.633
25837W        W97366  11.844   9.240  11.657
25838W        W97367  12.391  41.980  14.775
25839W        W97368  10.233  16.516  14.559
25840W        W97369  33.795  44.795  14.952
25841W        W97370  29.424  12.911  14.349
25842W        W97371  42.110  23.383   0.769
25843W        W97372  14.223  16.755  11.960
25844W        W97373  30.135  18.098   1.467
25845W        W97374  26.565  22.098   2.608
25846W        W97375  15.435  43.552  12.819
25847W        W97376  38.274  18.138   0.250
25848W        W97377  23.169   7.463   1.726
25849W        W97378  36.601  42.948  12.485
25850W        W97379  17.698  42.840   0.325
25851W        W97380  10.682  37.348   4.100
25852W        W97381  20.321  17.742  13.331
25853W        W97382  26.563   4.019   2.846
25854W        W97383  23.626  32.462   1.238
25855W        W97384   4.280  34.102  14.040
25856W        W97385   7.588  19.544  12.618
25857W        W97386  17.537   1.777   1.916
25858W        W97387  41.005  18.380  13.306
25859W        W97388  19.490   7.874  13.840
25860W        W97389  18.173  31.442  12.910
25861W        W97390  29.924   9.703  14.483
25862W        W97391  12.747   8.544  12.944
25863W        W97392  25.130  17.444  12.578
25864W        W97393  17.481  28.168   1.313
25865W        W97394  35.670   9.386  14.909
25866W        W97395  28.218  23.674  11.958
25867W        W97396  39.631  43.888   2.316
25868W        W97397   5.765   7.799  14.784
25869W        W97398  36.935  18.488   4.229
25870W        W97399   8.806  16.052  10.670
25871W        W97400   9.607   9.261   4.896
25872W        W97401  37.837   2.238   0.923
25873W        W97402   1.971   5.199  11.159
25874W        W97403  29.011   4.398   1.145
25875W        W97404  29.002   4.371  14.670
25876W        W97405   9.003  12.099  11.079
25877W        W97406  36.648  19.098  11.671
25878W        W97407  34.452   6.901  13.749
25879W        W97408  14.980  36.404   2.672
25880W        W97409   6.094   3.177  12.401
25881W        W97410  36.223  40.761   2.783
25882W        W97411   3.348  23.603  13.845
25883W        W97412  32.601  40.232  14.567
25884W        W97413  27.249  18.559   1.356
25885W        W97414  44.930  10.208  13.573
25886W        W97415  23.913   1.807   3.421
25887W        W97416  24.557   1.506   0.133
25888W        W97417   2.638  10.290   1.239
25889W        W97418  20.142  26.970  14.309
25890W        W97419  30.508  43.231  13.467
25891W        W97420  29.092  12.383   3.304
25892W        W97421  31.718  10.267   0.361
25893W        W97422  36.322  28.636  10.736
25894W        W97423   6.232  18.674  12.827
25895W        W97424  10.688   5.735   0.276
25896W        W97425   5.183  38.434   4.562
25897W        W97426  10.657  11.450   3.677
25898W        W97427   1.380  32.051   1.701
25899W        W97428  29.633   9.306  12.606
25900W        W97429  15.819   1.907  12.395
25901W        W97430  26.170   9.365  13.809
25902W        W97431  42.664  37.455  13.345
25903W        W97432   1.282   7.653  11.646
25904W        W97433   1.456  32.077  13.860
25905W        W97434  10.147  18.063   4.494
25906W        W97435  33.298  17.646   2.329
25907W        W97436  33.079  36.277   2.777
25908W        W97437  20.345  44.519  14.819
25909W        W97438  27.943   3.292   3.573
25910W        W97439  13.153  20.525  14.473
25911W        W97440   8.368  30.702  12.086
25912W        W97441  10.728  39.179  13.056
25913W        W97442  19.792   0.270   4.906
25914W        W97443   3.840  10.443  10.948
25915W        W97444  43.034  33.445  14.537
25916W        W97445  28.381  40.377  13.431
25917W        W97446  10.155  38.093  13.547
25918W        W97447  12.759  10.218  12.614
25919W        W97448  40.729  23.187   1.904
25920W        W97449  29.468  17.995   3.649
25921W        W97450  43.281   9.069  10.445
25922W        W97451  22.994  32.520   3.906
25923W        W97452  42.522  16.934   0.413
25924W        W97453  43.312   1.905   1.152
25925W        W97454   6.196  31.991  12.050
25926W        W97455   8.566  29.663  11.647
25927W        W97456  12.625  23.002  13.042
25928W        W97457  17.285  40.332   3.148
25929W        W97458  22.726  16.837  11.621
25930W        W97459  15.641  14.615   2.343
25931W        W97460  19.799  27.048  11.631
25932W        W97461  31.974  42.101   0.551
25933W        W97462  26.151  29.636   1.346
25934W        W97463  17.745  17.445  11.976
25935W        W97464  15.332  34.995   0.319
25936W        W97465  30.647  39.363  10.751
25937W        W97466  40.968  19.297  14.070
25938W        W97467   1.239  17.950   5.277
25939W        W97468   0.768  25.178   2.684
25940W        W97469   9.466  27.692   1.171
25941W        W97470  44.450   7.862  10.607
25942W        W97471  33.199   8.224   3.354
25943W        W97472   6.229  39.488   3.240
25944W        W97473  34.918  13.689  11.290
25945W        W97474  38.013  11.910  11.950
25946W        W97475  41.916  40.982  11.131
25947W        W97476  10.839  43.223  11.108
25948W        W97477  14.400   5.382  12.952
25949W        W97478   2.284   1.632   3.682
25950W        W97479  35.969   0.721   2.237
25951W        W97480  32.243  13.766  13.273
25952W        W97481  20.541  18.375  14.909
25953W        W97482  18.180  43.545   3.203
25954W        W97483  10.766  11.662   0.176
25955W        W97484  18.055  24.956   1.870
25956W        W97485  34.623  22.028   3.577
25957W        W97486  26.012  24.232   2.598
25958W        W97487  30.840  25.558   2.759
25959W        W97488  24.573   5.687   0.324
25960W        W97489  25.949  19.227   4.440
25961W        W97490  15.121  12.847  13.369
25962W        W97491  31.259  22.579   0.421
25963W        W97492  39.790  33.869  12.470
25964W        W97493  36.971  29.845   3.123
25965W        W97494   8.600  32.572   4.168
25966W        W97495  35.334  37.268  13.103
25967W        W97496   9.225  10.701   1.648
25968W        W97497  43.061  10.889  11.997
25969W        W97498  24.273  17.741  14.066
25970W        W97499  39.945  32.964   4.552
25971W        W97500  35.408  17.758  11.424
25972W        W97501  39.299  21.631  10.577
25973W        W97502  43.430  41.411   4.916
25974W        W97503  32.245  26.903  11.223
25975W        W97504  26.486  36.592  13.383
25976W        W97505  43.728  24.184  11.017
25977W        W97506  17.579   2.304  13.411
25978W        W97507  34.115  28.881   0.818
25979W        W97508   7.893  41.314  13.978
25980W        W97509  41.703   0.531  14.398
25981W        W97510   9.367   3.365  13.821
25982W        W97511  39.281  19.770  11.224
25983W        W97512   0.682  10.281   4.453
25984W        W97513   9.543  30.578  14.328
25985W        W97514   0.475  36.543   3.793
25986W        W97515  22.640  31.976  13.446
25987W        W97516   0.866   3.293  11.530
25988W        W97517  37.499  28.368   0.937
25989W        W97518  21.730  25.582  10.637
25990W        W97519   7.338  31.120   2.853
25991W        W97520  24.002  41.805  11.324
25992W        W97521  10.195  18.539  12.775
25993W        W97522  30.644  17.513   0.783
25994W        W97523  24.699  14.696  11.171
25995W        W97524   9.612  37.430  11.626
25996W        W97525   8.443  42.545  12.069
25997W        W97526   2.423  15.673  14.529
25998W        W97527  36.049  33.934   0.323
25999W        W97528   5.006   7.763  14.502
26000W        W97529  12.330  31.952   1.257
26001W        W97530  35.118  23.088   2.404
26002W        W97531  16.756  15.259   1.585
26003W        W97532  17.308   0.012  12.358
26004W        W97533   7.267   4.537   0.396
26005W        W97534  17.801  34.770  13.459
26006W        W97535   0.836  35.563  10.282
26007W        W97536  33.113  17.708   1.850
26008W        W97537  18.270  20.031  13.195
26009W        W97538  38.912  32.657   3.308
26010W        W97539   0.013   7.517   0.961
26011W        W97540   6.747   7.372  12.087
26012W        W97541  29.283  25.699   9.622
26013W        W97542   2.442  33.770  10.836
26014W        W97543  17.068  28.365  12.001
26015W        W97544  40.556   5.846  13.472
26016W        W97545  25.513   3.964  13.579
26017W        W97546  25.452  21.477   2.699
26018W        W97547  23.843  28.022  14.751
26019W        W97548  41.423  19.136  13.883
26020W        W97549  26.971  41.886  14.530
26021W        W97550  37.501  17.243   4.574
26022W        W97551   0.599  20.548   0.811
26023W        W97552  29.410  34.541  11.962
26024W        W97553  37.526   7.451   3.503
26025W        W97554   2.388  34.377   3.306
26026W        W97555   4.939  26.785  10.426
26027W        W97556  13.624  11.076  12.541
26028W        W97557  36.874  22.248   1.456
26029W        W97558  42.256  27.592   4.608
26030W        W97559   5.294   0.075   0.839
26031W        W97560  14.811   9.020  12.571
26032W        W97561   9.643  14.176   2.367
26033W        W97562  12.277  14.333  12.901
26034W        W97563  34.868  24.077   4.097
26035W        W97564  33.527   2.441  10.737
26036W        W97565  17.514  24.283   2.841
26037W        W97566   7.615   7.751  12.966
26038W        W97567  18.148  26.991   2.668
26039W        W97568  21.273  42.946  12.998
26040W        W97569  13.546  37.790   0.317
26041W        W97570  35.832  25.072   3.036
26042W        W97571  14.081   6.532  13.293
26043W        W97572  22.294  28.169  14.950
26044W        W97573  42.392  26.716   1.406
26045W        W97574   1.021  28.362   0.371
26046W        W97575  13.062  10.164  13.958
26047W        W97576   0.035  42.633   2.735
26048W        W97577  27.494   2.977  11.165
26049W        W97578  43.820   6.848   0.432
26050W        W97579  19.991  27.232   4.563
26051W        W97580  30.532   5.333   1.722
26052W        W97581  17.271  25.619   3.653
26053W        W97582   0.481  16.652  10.655
26054W        W97583  34.817  23.748   9.945
26055W        W97584  38.482  44.826  11.881
26056W        W97585   3.748  44.509   3.406
26057W        W97586  44.688  11.878   2.351
26058W        W97587  30.142  37.926  13.039
26059W        W97588   6.291  26.139   4.207
26060W        W97589  25.393  28.305   1.430
26061W        W97590  44.977  23.379  12.289
26062W        W97591  25.974  20.571  13.006
26063W        W97592  30.792  16.027   3.247
26064W        W97593  34.812  13.221   3.604
26065W        W97594  10.127  35.056   1.845
26066W        W97595  18.571  26.734  10.170
26067W        W97596  32.596  34.825  11.134
26068W        W97597  20.644   5.429  12.992
26069W        W97598   2.376  34.401   2.276
26070W        W97599  37.354  44.016   3.206
26071W        W97600   6.932  22.542   0.170
26072W        W97601  29.967   9.054  12.906
26073W        W97602   5.825  21.096   0.940
26074W        W97603   9.127   2.469   2.211
26075W        W97604  43.286  10.316  14.316
26076W        W97605  14.060  36.557  11.026
26077W        W97606  19.677  32.029   0.423
26078W        W97607  37.949  10.704   3.136
26079W        W97608   3.403  30.918   3.257
26080W        W97609  26.698   5.872   5.086
26081W        W97610   5.440  43.997  14.412
26082W        W97611  11.365  28.900   3.727
26083W        W97612   8.746  31.128  11.596
26084W        W97613  12.811  35.461  10.517
26085W        W97614   4.763  33.972   2.853
26086W        W97615  31.729  44.562  10.728
26087W        W97616  14.801   3.874  12.479
26088W        W97617  20.671  41.022   2.214
26089W        W97618  26.076  40.761  13.422
26090W        W97619  27.940  21.519   2.623
26091W        W97620  15.590  15.797  11.215
26092W        W97621  17.839   2.802   3.806
26093W        W97622  38.550   0.573  10.356
26094W        W97623   6.404  34.323   3.659
26095W        W97624  10.756  15.359   2.811
26096W        W97625  21.432  14.954  12.933
26097W        W97626  32.335   1.926  14.354
26098W        W97627  34.707  15.354  11.125
26099W        W97628  15.572  17.129  12.303
26100W        W97629  13.923  11.833  13.095
26101W        W97630  34.807  27.147  12.383
26102W        W97631  22.012  23.944  13.536
26103W        W97632  28.929  37.418   2.704
26104W        W97633  20.803  16.966  14.364
26105W        W97634  17.319  44.586   0.359
26106W        W97635  14.905   7.845   0.417
26107W        W97636  33.686  27.848   5.474
26108W        W97637  17.251   2.454   4.568
26109W        W97638  20.679  11.693   3.654
26110W        W97639  32.131   2.969  10.466
26111W        W97640   4.497  27.857   2.704
26112W        W97641  18.039  35.544   1.809
26113W        W97642  19.101  30.134   2.908
26114W        W97643   9.820   7.320   3.783
26115W        W97644  18.362   3.487  13.168
26116W        W97645  41.403  27.422  11.602
26117W        W97646  37.564  14.207  12.709
26118W        W97647  11.614  12.162   2.356
26119W        W97648  12.335  26.616  12.888
26120W        W97649  22.564  13.367   3.578
26121W        W97650   9.083  33.014  14.741
26122W        W97651  36.500  17.938  14.398
26123W        W97652  22.978  38.541   1.923
26124W        W97653   8.359  17.801   2.837
26125W        W97654   9.954  10.237   3.658
26126W        W97655  22.453   8.844   4.390
26127W        W97656  20.783   7.369  14.747
26128W        W97657  44.912   4.039  12.516
26129W        W97658  31.448   5.754   4.991
26130W        W97659  35.074  16.843   4.894
26131W        W97660  38.994   2.960   3.082
26132W        W97661  31.373  13.885  13.383
26133W        W97662  38.939   2.856   4.149
26134W        W97663  26.382  23.679  14.513
26135W        W97664  29.409  18.618  11.239
26136W        W97665  14.305   2.728   1.383
26137W        W97666  32.404  33.566  12.482
26138W        W97667  39.845  37.368   0.341
26139W        W97668  13.218  10.349  12.844
26140W        W97669  31.719   7.700  13.525
26141W        W97670   2.916   0.536  11.056
26142W        W97671  40.327  23.987  11.189
26143W        W97672  13.030  28.386   2.309
26144W        W97673  19.720  24.687  13.940
26145W        W97674  25.017   9.113   4.152
26146W        W97675  36.978  36.470   1.665
26147W        W97676  14.065  17.266  11.953
26148W        W97677  22.208  13.766  12.327
26149W        W97678  30.549  24.538  10.178
26150W        W97679  11.856  15.525   3.584
26151W        W97680   1.304  13.401   1.802
26152W        W97681  35.366  30.085   2.178
26153W        W97682  16.058  20.274   4.074
26154W        W97683   5.941  23.677   1.392
26155W        W97684   4.250  18.578   3.780
26156W        W97685  12.754  24.946  13.402
26157W        W97686   3.956  39.845  13.617
26158W        W97687  39.181   2.367   1.387
26159W        W97688  36.397   1.794   2.705
26160W        W97689  24.962  32.168   2.143
26161W        W97690  37.195   8.569   1.305
26162W        W97691  16.751  26.973  13.536
26163W        W97692  18.761  23.068  10.598
26164W        W97693  18.451  18.709  14.479
26165W        W97694  31.942   2.184  11.015
26166W        W97695  18.721  38.515   4.705
26167W        W97696  33.843   3.818   1.883
26168W        W97697   5.857  44.383  12.531
26169W        W97698   4.160   3.764   0.717
26170W        W97699   1.522  32.154   5.019
26171W        W97700  11.121  33.377  13.805
26172W        W97701  25.173  18.362  13.436
26173W        W97702  19.440  24.726  11.988
26174W        W97703   8.501  44.299  11.968
26175W        W97704  21.601   9.405  14.654
26176W        W97705  44.406  20.677   0.009
26177W        W97706  34.421  35.887   3.096
26178W        W97707  38.482  38.795   3.139
26179W        W97708  21.064  12.180  14.555
26180W        W97709  16.048  17.085  12.514
26181W        W97710  31.465   9.410  14.976
26182W        W97711  23.412   0.291   4.289
26183W        W97712  31.266  29.653  11.040
26184W        W97713  16.775  44.905   0.812
26185W        W97714  44.345   3.959   2.440
26186W        W97715  12.829  39.300   1.299
26187W        W97716  34.694  19.490  13.904
26188W        W97717  25.008   8.838   0.429
26189W        W97718  23.967  18.754   3.336
26190W        W97719  43.419  25.033   5.198
26191W        W97720   8.832  11.779  11.433
26192W        W97721   6.310  33.412   3.653
26193W        W97722  16.837  19.330  11.545
26194W        W97723  25.652  34.646   0.758
26195W        W97724  21.238  41.519  14.052
26196W        W97725   4.630  26.668  13.499
26197W        W97726  18.693  33.361  12.833
26198W        W97727  33.848  32.648   3.389
26199W        W97728   6.383  40.863  11.877
26200W        W97729  41.445  39.489   3.242
26201W        W97730  22.413  30.738   5.037
26202W        W97731  11.872  27.595   4.730
26203W        W97732   7.816  25.423   3.614
26204W        W97733  31.933  20.511  13.057
26205W        W97734  22.483  23.105  14.546
26206W        W97735  28.570   6.120  11.836
26207W        W97736  40.400  42.995   4.769
26208W        W97737  19.590  31.279   3.478
26209W        W97738  15.391  44.179  12.183
26210W        W97739  32.977  26.383   2.789
26211W        W97740  43.055  14.183  12.937
26212W        W97741  27.176  34.490   2.851
26213W        W97742   6.326   0.254   2.810
26214W        W97743   6.061   1.007  11.122
26215W        W97744  14.660  16.139   4.705
26216W        W97745  41.793  32.573  13.748
26217W        W97746  12.938  19.644  11.159
26218W        W97747  10.556  38.320  12.860
26219W        W97748   9.462  22.733  13.180
26220W        W97749  18.240  26.716  11.121
26221W        W97750  39.968  42.901   0.977
26222W        W97751  19.134  11.744  13.324
26223W        W97752   7.443   8.675   2.010
26224W        W97753  28.971  29.639   1.331
26225W        W97754  22.167  16.262  11.120
26226W        W97755  14.314  29.847   3.728
26227W        W97756  41.894  44.442  10.715
26228W        W97757  34.268  33.435   3.736
26229W        W97758   1.781  35.365  12.649
26230W        W97759  14.396  16.714   4.680
26231W        W97760  36.984  13.248   0.080
26232W        W97761  11.149   1.492   1.740
26233W        W97762  33.303  14.199  12.799
26234W        W97763  25.221  24.646   0.889
26235W        W97764  38.125  29.173  10.769
26236W        W97765   4.370  42.487  13.425
26237W        W97766  16.888   0.795   4.079
26238W        W97767  10.763  25.376   4.617
26239W        W97768  35.996   1.332  11.558
26240W        W97769  32.514  22.527   1.909
26241W        W97770   5.978   6.948   1.264
26242W        W97771  14.047  15.771   2.726
26243W        W97772  38.726  27.486  12.995
26244W        W97773  16.212  20.914  12.770
26245W        W97774  34.319   5.308  13.092
26246W        W97775  13.077  35.032   0.810
26247W        W97776   4.220  26.914   3.167
26248W        W97777   0.794  21.299   2.686
26249W        W97778  14.315   5.753  14.115
26250W        W97779  28.262  24.205   0.483
26251W        W97780   8.792  16.373  13.221
26252W        W97781   3.801  40.228  12.426
26253W        W97782   5.931  11.435  13.307
26254W        W97783  34.620  11.380   4.733
26255W        W97784  36.761  27.136   1.283
26256W        W97785  12.238   2.302  13.893
26257W        W97786  43.730  15.331   0.018
26258W        W97787   1.796  15.258  14.233
26259W        W97788  36.066  21.468   1.310
26260W        W97789  16.275   8.702  12.021
26261W        W97790  23.970  12.563   3.215
26262W        W97791  23.053  36.917  11.145
26263W        W97792   7.414  22.436   0.386
26264W        W97793   7.382  27.399   4.206
26265W        W97794  23.499  22.122   2.755
26266W        W97795  25.163  20.235   0.508
26267W        W97796   9.228  18.047   3.231
26268W        W97797  33.182  18.104  13.976
26269W        W97798  33.741   4.233  10.620
26270W        W97799  12.108  25.751  11.901
26271W        W97800   0.821  29.153  10.354
26272W        W97801  41.501  38.606  13.072
26273W        W97802  17.028  29.931  11.192
26274W        W97803  20.169   0.376   2.577
26275W        W97804  39.759  13.402  13.161
26276W        W97805  42.002  38.795  13.107
26277W        W97806   3.678   7.526  14.295
26278W        W97807  30.994  25.976  14.218
26279W        W97808  42.914   3.866   0.713
26280W        W97809  17.343  25.738  14.863
26281W        W97810  12.811  16.249  12.065
26282W        W97811  42.268  36.853  12.027
26283W        W97812  36.350  17.503  12.378
26284W        W97813  37.994  40.348   0.257
26285W        W97814  34.678  32.616  13.569
26286W        W97815   2.670  27.664   1.338
26287W        W97816   6.157  17.570  13.408
26288W        W97817   8.243  35.605  12.341
26289W        W97818   0.744  22.568  10.836
26290W        W97819  32.643  37.806   1.447
26291W        W97820  21.727  30.020   0.654
26292W        W97821  42.624   2.743  11.219
26293W        W97822   9.797  44.393  11.732
26294W        W97823  25.521  33.235  10.958
26295W        W97824  28.663  42.479   2.511
26296W        W97825  26.733   2.679   1.318
26297W        W97826  35.027  20.705  14.382
26298W        W97827  24.925  37.340  14.873
26299W        W97828  30.890  34.040   3.568
26300W        W97829  31.620  43.584   3.338
26301W        W97830   3.782  44.863  12.149
26302W        W97831  39.958  44.324  14.913
26303W        W97832   2.212  27.606  13.305
26304W        W97833  33.403  14.059   2.934
26305W        W97834  43.944  29.027  11.510
26306W        W97835   8.199  18.378  14.018
26307W        W97836   6.809  36.450  11.873
26308W        W97837  20.217  38.376   2.658
26309W        W97838  32.013  10.778  10.735
26310W        W97839   7.868  21.247   3.788
26311W        W97840  35.466  32.611  12.975
26312W        W97841  29.417  13.307   0.203
26313W        W97842  19.994  11.595   5.151
26314W        W97843  12.665  44.597   0.456
26315W        W97844  32.566  19.060   0.307
26316W        W97845  20.994  16.732  13.009
26317W        W97846  43.271  29.862   1.025
26318W        W97847   0.490  38.389   2.732
26319W        W97848  21.661  17.788  10.522
26320W        W97849  31.797  31.065  12.977
26321W        W97850  27.009   6.419   4.507
26322W        W97851  39.921  39.187  10.495
26323W        W97852  23.659  33.893  14.064
26324W        W97853  15.485  28.638   4.106
26325W        W97854  33.263  37.343  10.850
26326W        W97855  27.147  26.055   1.206
26327W        W97856  17.150   2.877   0.720
26328W        W97857  12.198  43.503  10.866
26329W        W97858  22.508  37.324   4.065
26330W        W97859   0.819  37.037  11.625
26331W        W97860  33.739  43.562  12.990
26332W        W97861  12.327  32.272   0.853
26333W        W97862  13.891  18.495   1.537
26334W        W97863  42.476  13.028  14.904
26335W        W97864  32.423   5.010  13.181
26336W        W97865  34.091  39.369   0.941
26337W        W97866   2.857  41.213   3.389
26338W        W97867  17.223   1.839   2.883
26339W        W97868  34.375  26.587  13.502
26340W        W97869  31.433  12.207  13.966
26341W        W97870   6.908   3.785  11.510
26342W        W97871  21.762  27.143   4.072
26343W        W97872  35.342  28.282  13.008
26344W        W97873  30.231  43.872   4.215
26345W        W97874  39.724  41.384  12.821
26346W        W97875  38.607  20.515  11.490
26347W        W97876   7.747  44.883  14.271
26348W        W97877  31.722  17.526  14.403
26349W        W97878  27.940  18.801  12.048
26350W        W97879  41.753  35.040  12.095
26351W        W97880  18.762  26.523   4.974
26352W        W97881  22.213  38.398  12.878
26353W        W97882   6.070  13.963  10.468
26354W        W97883   8.605  32.887   3.729
26355W        W97884   5.813   8.599   1.202
26356W        W97885  41.285  28.718   3.665
26357W        W97886   0.159  28.701  14.592
26358W        W97887  16.078   6.304   0.322
26359W        W97888  25.127  23.958  12.588
26360W        W97889  44.259  40.469   3.147
26361W        W97890  15.189  17.151   1.806
26362W        W97891   9.893  10.127  13.982
26363W        W97892  23.597  17.773  13.321
26364W        W97893  27.224  21.307  10.803
26365W        W97894  25.661  37.957  13.565
26366W        W97895  25.423   4.136   3.391
26367W        W97896  16.936  41.991   4.178
26368W        W97897  44.843   1.666  13.038
26369W        W97898  22.139  41.912   4.544
26370W        W97899  39.421  39.079   4.946
26371W        W97900  38.006  14.658  14.489
26372W        W97901  33.987   0.899   0.795
26373W        W97902  17.194  16.252   1.201
26374W        W97903  36.038  34.889  11.170
26375W        W97904   2.839  15.381  12.137
26376W        W97905  24.092  24.061   0.420
26377W        W97906  11.825  14.361   0.904
26378W        W97907  19.692  41.100   4.471
26379W        W97908  10.664  14.681  12.397
26380W        W97909  10.658  29.273   0.280
26381W        W97910   9.809   3.625   4.148
26382W        W97911  31.414  23.729   1.618
26383W        W97912  28.541  27.255   0.371
26384W        W97913   3.001  14.603   3.231
26385W        W97914  24.261  17.621  14.948
26386W        W97915  36.968  18.533  11.800
26387W        W97916  22.122  28.690  14.938
26388W        W97917  13.380  42.739  13.876
26389W        W97918  27.019  10.877  13.179
26390W        W97919  33.191  28.038   4.834
26391W        W97920  41.797  17.539   3.325
26392W        W97921  24.309  24.377  13.084
26393W        W97922  28.678  29.291  14.688
26394W        W97923  35.813  21.369   0.462
26395W        W97924   0.820   9.348   4.422
26396W        W97925  31.584  29.913  14.459
26397W        W97926  18.622  37.350   4.570
26398W        W97927  23.271  18.776   0.852
26399W        W97928  32.481  37.322   3.256
26400W        W97929  14.828  10.906  12.963
26401W        W97930   8.222  13.669  11.478
26402W        W97931   8.379  19.597  12.030
26403W        W97932  15.585  32.507  13.031
26404W        W97933  10.411   4.504  11.871
26405W        W97934   7.421  36.416   0.026
26406W        W97935   4.956  20.149   2.761
26407W        W97936  15.670   9.435   3.182
26408W        W97937  31.737  29.231   4.513
26409W        W97938  14.668   7.283  14.059
26410W        W97939   9.409  29.591  13.455
26411W        W97940  17.850  21.659   5.001
26412W        W97941  24.589  37.731  11.625
26413W        W97942  11.806  41.944   3.773
26414W        W97943   4.838  23.585  11.471
26415W        W97944  37.129   8.107  14.073
26416W        W97945  29.060  31.250  10.753
26417W        W97946  18.101  28.850  13.497
26418W        W97947  34.276  20.743   3.307
26419W        W97948  32.851   8.168   0.439
26420W        W97949  30.024   9.057   1.152
26421W        W97950  44.367  44.438  10.608
26422W        W97951  26.977  29.668  12.168
26423W        W97952   6.470  19.726   4.238
26424W        W97953  11.636   6.843   0.749
26425W        W97954  23.717  27.103  11.035
26426W        W97955  32.459  37.599  12.616
26427W        W97956  20.732  17.055   4.439
26428W        W97957  13.009   8.274  14.259
26429W        W97958  32.963   5.303  13.401
26430W        W97959  39.777  33.046   4.040
26431W        W97960   5.237   5.927   3.867
26432W        W97961  42.728  40.606  13.042
26433W        W97962  26.763  21.481  10.667
26434W        W97963  41.680  24.983   0.910
26435W        W97964  39.956  25.699  12.935
26436W        W97965  14.160  14.840   4.652
26437W        W97966  28.226  44.477   1.400
26438W        W97967  32.419  30.055   3.292
26439W        W97968  22.717  30.981  10.040
26440W        W97969  21.093  34.703  10.702
26441W        W97970   9.286  39.319  12.413
26442W        W97971  26.250   5.783   2.163
26443W        W97972   7.638   1.299  14.542
26444W        W97973  30.191  44.448  10.630
26445W        W97974  13.015  10.759  14.569
26446W        W97975  13.634   2.390   4.944
26447W        W97976  40.227  27.999   1.302
26448W        W97977  42.802  25.909  12.751
26449W        W97978  21.474   5.980   1.348
26450W        W97979  31.823  23.561  11.996
26451W        W97980  14.715  27.096  13.175
26452W        W97981  11.311  14.914  14.108
26453W        W97982  15.798  39.063  10.757
26454W        W97983   7.082  31.599  10.709
26455W        W97984  26.282  32.368   4.960
26456W        W97985   5.294  23.209   4.557
26457W        W97986  30.088  16.558  14.573
26458W        W97987  17.509  36.793  13.860
26459W        W97988  31.424   6.744  14.905
26460W        W97989  20.326   5.425  12.126
26461W        W97990  11.588  17.574  10.718
26462W        W97991  17.605   4.342   3.743
26463W        W97992  34.171  33.182  13.854
26464W        W97993  37.231  29.093  10.993
26465W        W97994  30.353   8.274   1.658
26466W        W97995  38.583  16.936  11.208
26467W        W97996  13.624  19.468  14.412
26468W        W97997  12.640   7.200  13.830
26469W        W97998  31.960   8.171   4.433
26470W        W97999   5.281  21.001   0.956
26471W        W98000  33.289   7.758   2.281
26472W        W98001  22.001   6.588   3.325
26473W        W98002  20.130   5.845   3.361
26474W        W98003  28.533  36.188   1.106
26475W        W98004  15.000   3.400   2.035
26476W        W98005  15.110  39.320  12.739
26477W        W98006  36.524  35.528  10.654
26478W        W98007  33.081  22.078  12.688
26479W        W98008  36.634  38.278   3.610
26480W        W98009  17.282  43.396   4.199
26481W        W98010  31.018   9.841   0.928
26482W        W98011   5.750  13.732   3.388
26483W        W98012  33.397  30.912   4.420
26484W        W98013  31.702  30.585  12.467
26485W        W98014  37.272  24.165  14.379
26486W        W98015  41.626  13.200   0.747
26487W        W98016  28.658  18.392  12.589
26488W        W98017  27.997   9.903  10.029
26489W        W98018  37.667  36.600  11.092
26490W        W98019  41.599  12.665  10.407
26491W        W98020  18.894  22.758   4.995
26492W        W98021  28.283  17.517  10.338
26493W        W98022   3.459  11.842   5.036
26494W        W98023  34.528  13.091   2.336
26495W        W98024  20.574  40.401  11.834
26496W        W98025  15.978  41.131  14.705
26497W        W98026  41.557   2.670   4.804
26498W        W98027  14.265   3.644   5.106
26499W        W98028  30.478  36.130   1.789
26500W        W98029  44.094  29.685  14.566
26501W        W98030  32.702  39.102  14.009
26502W        W98031  37.537   2.422  14.919
26503W        W98032  42.053  29.046   2.757
26504W        W98033  12.187   0.932   1.190
26505W        W98034  20.158  21.869  11.032
26506W        W98035   1.548  31.079  14.319
26507W        W98036  37.852  19.105   4.157
26508W        W98037  27.957   4.780  11.979
26509W        W98038  23.216  40.555  13.396
26510W        W98039  28.718  22.169  13.824
26511W        W98040  12.386  12.013   1.950
26512W        W98041  44.753  14.585  13.454
26513W        W98042  16.387  26.277   0.676
26514W        W98043  23.519  20.122  11.971
26515W        W98044  22.480  32.442   1.397
26516W        W98045   7.385  39.882  10.742
26517W        W98046   0.953  30.852   4.839
26518W        W98047  14.135  12.817   3.414
26519W        W98048  42.051   8.303  13.333
26520W        W98049  40.857  44.965  11.488
26521W        W98050   7.346  32.529   1.568
26522W        W98051   3.448   8.848   4.713
26523W        W98052  10.216   6.210   4.204
26524W        W98053  10.672  41.492   3.712
26525W        W98054  11.163   4.331  14.498
26526W        W98055  17.958  43.437  14.239
26527W        W98056  42.051  42.435  14.300
26528W        W98057  21.655  44.244   4.124
26529W        W98058  20.262   5.661  10.770
26530W        W98059  44.050  34.821  10.658
26531W        W98060  13.844  23.646   3.086
26532W        W98061  32.347   2.324   4.777
26533W        W98062  31.514  20.736   0.089
26534W        W98063  15.599  36.125  11.476
26535W        W98064   0.500  14.075  13.340
26536W        W98065  30.082   7.663   4.290
26537W        W98066  15.622  31.931   4.632
26538W        W98067  21.981  18.615  13.055
26539W        W98068  34.093  19.723   0.896
26540W        W98069  20.292  31.074  14.937
26541W        W98070  13.170  32.946  12.141
26542W        W98071   6.469  42.302   0.367
26543W        W98072   1.002  20.777   0.557
26544W        W98073   2.997  24.511  14.794
26545W        W98074  32.170   9.950  11.993
26546W        W98075  23.105  38.776  14.869
26547W        W98076  30.456  11.152   4.089
26548W        W98077  15.369   1.293  13.372
26549W        W98078  13.905  29.289  11.888
26550W        W98079  29.080  35.756  10.736
26551W        W98080  17.675   1.784  13.417
26552W        W98081  20.784   9.695   0.834
26553W        W98082  14.633  34.431   1.974
26554W        W98083  16.686  13.925   3.421
26555W        W98084  23.138   8.855  13.790
26556W        W98085  18.080  29.713  12.579
26557W        W98086  41.252  16.328  12.854
26558W        W98087  22.230  11.226  13.909
26559W        W98088  23.525  28.693  13.116
26560W        W98089  13.337  34.663   0.459
26561W        W98090  40.328   9.145   1.866
26562W        W98091  30.804  32.030   1.368
26563W        W98092  11.343  22.009  14.967
26564W        W98093  30.034  43.819  14.747
26565W        W98094  28.517   5.849  13.611
26566W        W98095  39.840  21.582   1.209
26567W        W98096  36.661  20.818   1.422
26568W        W98097   1.465  32.485  14.359
26569W        W98098  16.830   7.280   1.302
26570W        W98099  19.507   4.995   3.218
26571W        W98100  37.675  33.615  10.143
26572W        W98101  28.934  27.967  12.830
26573W        W98102   2.392   2.196   2.991
26574W        W98103  27.288  12.802  14.583
26575W        W98104  14.155  18.282   2.439
26576W        W98105  27.054  19.557  13.941
26577W        W98106  34.491  39.528   3.892
26578W        W98107  17.686  41.093   0.768
26579W        W98108  39.248  11.214  11.050
26580W        W98109  31.849  29.487  11.609
26581W        W98110  28.471  23.454   0.229
26582W        W98111   3.439  23.185   2.386
26583W        W98112  33.597  34.889  11.020
26584W        W98113  39.974   2.054   1.937
26585W        W98114  12.851  41.759   1.361
26586W        W98115  14.156  14.730   3.745
26587W        W98116  24.417  13.691  12.457
26588W        W98117  40.293   1.558   2.437
26589W        W98118  18.085  14.574   1.253
26590W        W98119  22.030  27.479   2.882
26591W        W98120  20.325  27.951   2.636
26592W        W98121  17.385  35.826  13.957
26593W        W98122   8.241  27.976   1.671
26594W        W98123  35.332  23.295  14.865
26595W        W98124   5.867  16.156  11.243
26596W        W98125  23.132  19.179   4.339
26597W        W98126  12.250  19.967   1.525
26598W        W98127   4.992   2.954  10.598
26599W        W98128  25.605  18.195  11.681
26600W        W98129  30.414  40.177   2.117
26601W        W98130   5.861  34.479  13.999
26602W        W98131  31.921  35.361  11.569
26603W        W98132  40.830   2.186   2.425
26604W        W98133  24.148  13.767   0.190
26605W        W98134  14.295  32.290   0.466
26606W        W98135  16.420  10.275   4.629
26607W        W98136  42.592  12.591  12.532
26608W        W98137  18.194  21.378  12.032
26609W        W98138  37.214  28.581  13.591
26610W        W98139   3.277  16.275   1.813
26611W        W98140  12.211   6.415   4.044
26612W        W98141   2.013   4.358   0.633
26613W        W98142  38.430  28.218  14.560
26614W        W98143  35.942  15.637   0.714
26615W        W98144  11.242  44.033   3.148
26616W        W98145   4.178  10.106  11.164
26617W        W98146  18.233  20.349   3.357
26618W        W98147  16.172  18.156   5.131
26619W        W98148  22.157  14.813  11.289
26620W        W98149   1.230  35.132  12.586
26621W        W98150  24.399   2.366  12.094
26622W        W98151  12.526  43.975   4.039
26623W        W98152  19.544  12.737   2.353
26624W        W98153  28.527  11.164  11.795
26625W        W98154  25.681  29.602   1.804
26626W        W98155  24.302   6.951   4.458
26627W        W98156  36.039   9.544   0.267
26628W        W98157   7.895   6.365  11.201
26629W        W98158   8.848  44.374   1.068
26630W        W98159  19.270  15.110  10.757
26631W        W98160   1.821  29.529   4.489
26632W        W98161   0.772  33.394  13.949
26633W        W98162  40.693  24.667   1.742
26634W        W98163   6.776  21.820   4.651
26635W        W98164  42.980  32.573   0.033
26636W        W98165  23.192  18.210  11.068
26637W        W98166  29.155  38.421   3.663
26638W        W98167   1.344  34.012  11.595
26639W        W98168  33.503  44.032   3.721
26640W        W98169  15.395  44.645  14.423
26641W        W98170  34.292  11.199  13.666
26642W        W98171  23.706  31.859   3.639
26643W        W98172  14.710  27.131  11.043
26644W        W98173  22.505   9.390   4.080
26645W        W98174  10.015   7.440  11.838
26646W        W98175  24.284  15.186  11.309
26647W        W98176  12.100  26.817   3.727
26648W        W98177  42.955  27.152  10.591
26649W        W98178  20.071  35.377  14.500
26650W        W98179   2.951  17.820   2.021
26651W        W98180  12.234  42.240  12.437
26652W        W98181  26.943  12.366   1.178
26653W        W98182  32.119   9.727   1.289
26654W        W98183  10.359  32.088   4.163
26655W        W98184   3.517   7.774  12.425
26656W        W98185  20.846  26.625  12.923
26657W        W98186  44.620  39.300   1.337
26658W        W98187   0.971  11.188  10.824
26659W        W98188   6.652  33.431  11.746
26660W        W98189  33.372   7.181  12.973
26661W        W98190  11.881   6.289  14.028
26662W        W98191  36.981  37.266  12.397
26663W        W98192   0.763   6.913  11.627
26664W        W98193  16.714  12.818  14.986
26665W        W98194  10.910  24.725  14.854
26666W        W98195  39.254  42.670  14.496
26667W        W98196   8.511   4.528   2.406
26668W        W98197  40.059   7.462  14.853
26669W        W98198  32.489   6.960  11.660
26670W        W98199  21.878  34.948  10.612
26671W        W98200   0.949  13.730   1.973
26672W        W98201  12.776  17.808   1.277
26673W        W98202   5.433  13.092   0.960
26674W        W98203  37.075  35.010  13.428
26675W        W98204  13.907  24.688  12.058
26676W        W98205  25.947  34.235  14.448
26677W        W98206  27.255  29.935   0.415
26678W        W98207   8.102  10.946  11.892
26679W        W98208  25.403   6.829  14.570
26680W        W98209  42.819  30.820  11.164
26681W        W98210  26.470  23.263   0.768
26682W        W98211  29.506   1.787   3.101
26683W        W98212  36.458   4.671   1.333
26684W        W98213  31.733   9.180   2.384
26685W        W98214  23.612  22.253  14.397
26686W        W98215  31.625   7.890  12.616
26687W        W98216  42.495   4.358  11.429
26688W        W98217  43.580  23.130  14.981
26689W        W98218  27.791  36.343   1.614
26690W        W98219  30.925  22.995  14.939
26691W        W98220  11.209  36.278   2.895
26692W        W98221  38.133  26.445  11.952
26693W        W98222   7.675  23.629   1.013
26694W        W98223  41.949  11.732   4.151
26695W        W98224  38.160  23.743   1.355
26696W        W98225  15.388  40.275   1.819
26697W        W98226  34.441  35.235   2.555
26698W        W98227  32.968   0.242   2.879
26699W        W98228  38.795  13.932  11.195
26700W        W98229  37.641  31.550  14.057
26701W        W98230   0.332  40.776  12.272
26702W        W98231  23.283  25.477   4.050
26703W        W98232  14.981  34.250  14.816
26704W        W98233  42.372  10.799   2.935
26705W        W98234  21.270   4.387   2.708
26706W        W98235   5.446  32.570   2.675
26707W        W98236  20.645  11.387   2.648
26708W        W98237  27.455  31.172   0.553
26709W        W98238  11.900  32.599   3.576
26710W        W98239  22.424  13.792   3.322
26711W        W98240   4.757  15.079   3.717
26712W        W98241  32.960  11.151   2.128
26713W        W98242  19.926  27.241   2.150
26714W        W98243   6.338  40.736  11.403
26715W        W98244   1.902  26.656   2.624
26716W        W98245  31.906  30.967  11.556
26717W        W98246  23.432  13.641  13.377
26718W        W98247   5.029  30.322   3.649
26719W        W98248  29.660  24.516   3.763
26720W        W98249  29.096  15.722   4.445
26721W        W98250  30.778   3.967   3.183
26722W        W98251   6.863  10.948   3.319
26723W        W98252  17.148   8.377   1.264
26724W        W98253  10.321   2.370  13.989
26725W        W98254  42.720  37.478   4.088
26726W        W98255  19.775   9.144   4.235
26727W        W98256  14.103   8.527  10.996
26728W        W98257   4.189  21.537  11.948
26729W        W98258   2.872  29.609  12.728
26730W        W98259  20.107  18.191  14.010
26731W        W98260   9.356  31.999  13.382
26732W        W98261  18.919  32.106  11.145
26733W        W98262  17.742  44.107  13.344
26734W        W98263   6.884  35.926   2.331
26735W        W98264  15.574  19.315   4.858
26736W        W98265  32.992   8.351  13.558
26737W        W98266  23.492  23.191   2.822
26738W        W98267   6.474  20.538  14.388
26739W        W98268  43.507  24.171  11.896
26740W        W98269   0.724  12.275   0.913
26741W        W98270  41.071  13.601  12.376
26742W        W98271  24.234  12.888  10.875
26743W        W98272  19.035   9.820   0.460
26744W        W98273   0.689  44.211   1.844
26745W        W98274   2.671  23.097  14.084
26746W        W98275   8.256  37.118   4.902
26747W        W98276  16.043   0.904   0.327
26748W        W98277  29.182   0.275   1.345
26749W        W98278  36.104  26.461  13.001
26750W        W98279  11.077  42.562  11.649
26751W        W98280  21.174  10.204  11.706
26752W        W98281  18.413   9.187  12.899
26753W        W98282  36.827  15.979   1.540
26754W        W98283  10.254  43.035  12.821
26755W        W98284  24.971   7.818  10.455
26756W        W98285   9.182  20.513  12.830
26757W        W98286  15.164   0.313  14.028
26758W        W98287  31.089  20.235  12.440
26759W        W98288   4.818  30.340  12.852
26760W        W98289  36.602  34.907   0.892
26761W        W98290  24.960  41.446  13.042
26762W        W98291  35.792   3.274   3.664
26763W        W98292  17.054   2.859  11.101
26764W        W98293  35.434  30.785   3.216
26765W        W98294  32.032  18.063   5.068
26766W        W98295  29.155  38.317  11.094
26767W        W98296  12.176  32.689  14.508
26768W        W98297   1.899  21.055  11.662
26769W        W98298   2.799  10.624  10.638
26770W        W98299  15.839  23.143   4.669
26771W        W98300  44.196  35.468   2.220
26772W        W98301  42.476  22.613  12.378
26773W        W98302  39.055   1.434   4.576
26774W        W98303   1.008  37.420  11.265
26775W        W98304  11.910   6.763   3.460
26776W        W98305  35.383  28.021   4.628
26777W        W98306  26.317  10.700  13.030
26778W        W98307  19.925  39.537  14.433
26779W        W98308   0.023   5.403   4.775
26780W        W98309  14.706  20.501  14.264
26781W        W98310  31.661  29.912  11.938
26782W        W98311  42.585  38.300  11.200
26783W        W98312  31.885  10.383   0.834
26784W        W98313  40.749   6.898   0.401
26785W        W98314  21.454   1.792  11.171
26786W        W98315   9.487  42.483  12.452
26787W        W98316  35.955  37.031   4.828
26788W        W98317   7.129  12.142   4.612
26789W        W98318  33.832   4.007  10.077
26790W        W98319   4.522  26.243   4.634
26791W        W98320   5.311  28.575  13.888
26792W        W98321   0.011  18.093   1.018
26793W        W98322  24.567  44.421  14.605
26794W        W98323  44.440  31.270   0.353
26795W        W98324  32.584  11.364   3.788
26796W        W98325  30.912  16.178   2.220
26797W        W98326   0.176  23.483  13.872
26798W        W98327  42.067  38.289  13.872
26799W        W98328  18.215   9.479  10.258
26800W        W98329  22.634  42.174   3.284
26801W        W98330   3.350  23.639   2.660
26802W        W98331  26.251  25.662   0.198
26803W        W98332  35.829  42.308   0.753
26804W        W98333   9.770  18.180   1.710
26805W        W98334  13.684  39.840  14.327
26806W        W98335  31.496  21.441   3.213
26807W        W98336  21.596  14.446  10.947
26808W        W98337   0.817   7.320  10.681
26809W        W98338  42.716   7.163  12.373
26810W        W98339   6.171  28.562   0.398
26811W        W98340  24.265  34.608   0.010
26812W        W98341  33.371  19.676  11.545
26813W        W98342  31.135  29.246  14.773
26814W        W98343   5.353  42.082   4.204
26815W        W98344  29.224   3.826  14.685
26816W        W98345  36.643  25.020  13.410
26817W        W98346   2.563  13.354   2.620
26818W        W98347  28.423   3.363  11.279
26819W        W98348  34.843   1.862   1.295
26820W        W98349  29.512   3.990   2.100
26821W        W98350  22.814   8.470   4.554
26822W        W98351  11.096  22.085   2.737
26823W        W98352  10.878  26.486   1.390
26824W        W98353  16.647  34.395   4.782
26825W        W98354  21.981  16.130  12.485
26826W        W98355  36.622   3.415   4.254
26827W        W98356  18.544  20.825  14.714
26828W        W98357  33.385  37.473   2.165
26829W        W98358  33.116  29.420  12.031
26830W        W98359  38.083   3.677   0.499
26831W        W98360   6.621   9.656  12.566
26832W        W98361  35.045  29.397  10.337
26833W        W98362  18.841  22.658   1.329
26834W        W98363  40.183  35.338   4.631
26835W        W98364  26.977  20.582  14.845
26836W        W98365  28.425  44.089  13.287
26837W        W98366   7.953  38.298   4.209
26838W        W98367  33.420   0.226  10.698
26839W        W98368  17.175   3.878  13.448
26840W        W98369  19.934   5.272   0.488
26841W        W98370  15.853  30.496   4.157
26842W        W98371  35.170   1.491   5.047
26843W        W98372  40.918   1.644  12.132
26844W        W98373  43.063  20.766  11.038
26845W        W98374   4.301  10.923   0.380
26846W        W98375  36.521   6.205   3.727
26847W        W98376  21.318  37.376  14.495
26848W        W98377   5.715  32.126  13.450
26849W        W98378   0.164  14.289   2.501
26850W        W98379  14.162  25.446  14.804
26851W        W98380  31.372  23.265  14.826
26852W        W98381  13.819   0.271   1.803
26853W        W98382  19.755  29.081  13.044
26854W        W98383  23.135  23.232   1.833
26855W        W98384   8.414  21.407   2.078
26856W        W98385   7.604   9.865  13.436
26857W        W98386  23.528  39.359   1.508
26858W        W98387  25.971  32.086   1.289
26859W        W98388  36.501  20.308   2.225
26860W        W98389  39.660  19.877  13.817
26861W        W98390   7.884  12.591  11.707
26862W        W98391  36.073  22.654   0.407
26863W        W98392   5.045  29.586   3.319
26864W        W98393  27.482  11.826   3.302
26865W        W98394   0.704  28.308  10.638
26866W        W98395  19.277   1.794   2.745
26867W        W98396  44.596  10.387  12.028
26868W        W98397  15.734   2.397  14.776
26869W        W98398  12.779  15.294   4.662
26870W        W98399  12.731  33.674  13.999
26871W        W98400   8.221  16.275   1.695
26872W        W98401  44.083  25.091   4.588
26873W        W98402  20.535  37.356   0.730
26874W        W98403  12.569  33.481   1.680
26875W        W98404   5.789   4.449   2.269
26876W        W98405   3.247   7.742   2.029
26877W        W98406  39.476  11.102  12.931
26878W        W98407  20.487  23.805   3.677
26879W        W98408  24.674  24.610   3.977
26880W        W98409  24.951  33.348  11.624
26881W        W98410  10.505  38.466  10.218
26882W        W98411  15.581  21.475   1.989
26883W        W98412  10.183   9.268  13.923
26884W        W98413  32.262   1.804   4.622
26885W        W98414  25.979   9.230   2.709
26886W        W98415  32.268  33.136  12.902
26887W        W98416  12.331   8.893  14.546
26888W        W98417  11.207  39.522   3.014
26889W        W98418  24.594  42.748  13.050
26890W        W98419  35.025  17.232   3.063
26891W        W98420  25.455  12.471   3.602
26892W        W98421  33.434  17.010   3.280
26893W        W98422  12.359  30.482  13.814
26894W        W98423  27.709  32.143   4.747
26895W        W98424  16.278  13.086  14.908
26896W        W98425  14.074  37.082   4.478
26897W        W98426   6.326  28.747   4.595
26898W        W98427  38.318  18.976  10.808
26899W        W98428  32.508  19.103   4.968
26900W        W98429   5.186  26.144  12.114
26901W        W98430  30.083   0.922   0.822
26902W        W98431  26.856  34.698  14.716
26903W        W98432  34.461  38.945   1.718
26904W        W98433  39.243   3.596   0.731
26905W        W98434  24.308   0.867  11.946
26906W        W98435  29.487  44.776  14.496
26907W        W98436  14.951  29.118   3.428
26908W        W98437   3.389   7.306  10.754
26909W        W98438   0.609  13.857   1.155
26910W        W98439   5.442  30.658   4.519
26911W        W98440  16.799  35.527   2.668
26912W        W98441  33.894  33.443  10.740
26913W        W98442   5.885   8.630   1.706
26914W        W98443   5.028  35.519   1.173
26915W        W98444  17.116  29.387  12.063
26916W        W98445   0.503  34.889   3.546
26917W        W98446   2.025   5.417  11.630
26918W        W98447  23.663   6.862   0.423
26919W        W98448  35.192  10.846  11.454
26920W        W98449  34.538  43.354  14.493
26921W        W98450   9.331  11.540  13.166
26922W        W98451  44.683   4.364  11.191
26923W        W98452   2.473  43.302   2.848
26924W        W98453  21.945  27.103  14.035
26925W        W98454  10.389   4.705   1.043
26926W        W98455   7.940  32.973   2.879
26927W        W98456  25.495  19.589  13.998
26928W        W98457  10.692  31.525   0.074
26929W        W98458  26.507  32.881   4.813
26930W        W98459  34.653  19.136   2.245
26931W        W98460  35.961  14.552   1.427
26932W        W98461  22.631  25.760   4.575
26933W        W98462   8.400  31.240  11.968
26934W        W98463  17.834  41.873   2.281
26935W        W98464  11.429  24.481   0.014
26936W        W98465  14.027   0.428   1.324
26937W        W98466  34.289  29.053  11.175
26938W        W98467  21.719  17.023  11.098
26939W        W98468  18.197  20.303   1.041
26940W        W98469  11.619  23.994   2.785
26941W        W98470  16.134  23.179  14.904
26942W        W98471  22.674  25.570  11.503
26943W        W98472   2.053  14.432   4.175
26944W        W98473  14.960  14.180  14.279
26945W        W98474  17.888   5.412   1.812
26946W        W98475  35.644  36.594   2.232
26947W        W98476  19.048  22.966  12.928
26948W        W98477  19.634  39.838  12.443
26949W        W98478  10.816  38.901   2.245
26950W        W98479  31.764  22.610   0.315
26951W        W98480  25.635   6.810  12.707
26952W        W98481  16.534  20.634   1.266
26953W        W98482   5.183  33.414  10.798
26954W        W98483  11.558   2.084   5.077
26955W        W98484  42.420  21.051   2.418
26956W        W98485  20.644  44.499  10.518
26957W        W98486  38.943  23.117   3.659
26958W        W98487   4.911  21.101  13.586
26959W        W98488  22.006  19.660  13.772
26960W        W98489  23.677  34.726  11.665
26961W        W98490  21.732  10.372  11.721
26962W        W98491  27.636   1.770   2.888
26963W        W98492  42.946  12.751   2.238
26964W        W98493  35.095  21.479  12.117
26965W        W98494   2.294  24.573   4.799
26966W        W98495   4.508  21.088   3.711
26967W        W98496   9.614  20.037   3.186
26968W        W98497  25.497  32.124   2.172
26969W        W98498  24.036  33.649  13.263
26970W        W98499  11.608  27.945  13.759
26971W        W98500   8.080   0.611  14.050
26972W        W98501   0.319  40.908  10.848
26973W        W98502  43.869  21.695   3.811
26974W        W98503  27.942  17.800  14.404
26975W        W98504  23.265  13.359   1.900
26976W        W98505  27.706  13.815   1.643
26977W        W98506   2.981  30.092  12.582
26978W        W98507  38.833  13.638   3.574
26979W        W98508  27.585  20.897   1.845
26980W        W98509  29.676  20.782   3.564
26981W        W98510  37.638  28.628   1.817
26982W        W98511  35.696  30.307  11.929
26983W        W98512  28.878  12.862   1.792
26984W        W98513  22.923  43.567   0.467
26985W        W98514  40.763  38.544   0.255
26986W        W98515  23.983   3.367   3.670
26987W        W98516  14.192  37.124   0.275
26988W        W98517  22.594  43.929  13.138
26989W        W98518  44.973  22.556  11.328
26990W        W98519  33.522  40.547  14.042
26991W        W98520  42.065  34.514   4.037
26992W        W98521  11.078  27.434   2.190
26993W        W98522  36.773  12.277   0.409
26994W        W98523  43.205   3.823   4.160
26995W        W98524  29.007   2.479  14.393
26996W        W98525  10.302   9.310  12.507
26997W        W98526   1.431  31.088   4.097
26998W        W98527  23.177  14.376  11.094
26999W        W98528  42.434  18.665   3.111
27000W        W98529  37.042  41.734  10.672
27001W        W98530   5.810  11.084   2.065
27002W        W98531  21.223  33.375   3.734
27003W        W98532  11.627  20.676  11.056
27004W        W98533  14.778  34.359  12.431
27005W        W98534  42.573  19.986   2.703
27006W        W98535  22.275  15.297   0.877
27007W        W98536  18.255  22.601   1.290
27008W        W98537  34.708   0.119  13.021
27009W        W98538   6.780  40.033   2.052
27010W        W98539   5.140  39.531  13.841
27011W        W98540  11.210   2.978   1.870
27012W        W98541  17.083  15.084   0.961
27013W        W98542  16.243   9.032  10.438
27014W        W98543  13.296   3.058   2.121
27015W        W98544  10.605   1.883   0.457
27016W        W98545  37.801  12.673  12.457
27017W        W98546   3.330   3.226  10.583
27018W        W98547  14.534  42.940  13.366
27019W        W98548  13.374  27.115   0.953
27020W        W98549  20.528  14.532  14.828
27021W        W98550  22.403  27.451   4.277
27022W        W98551   0.540  14.116  11.594
27023W        W98552  18.739  25.578  10.254
27024W        W98553  38.566  15.816   4.182
27025W        W98554  39.040  28.081  11.652
27026W        W98555  42.538  26.241  12.112
27027W        W98556  25.008  29.084   1.640
27028W        W98557  13.597  25.660   0.603
27029W        W98558  32.060  40.010   4.099
27030W        W98559  35.948  42.473   3.696
27031W        W98560  23.816   8.868  14.003
27032W        W98561  24.738   1.739   4.780
27033W        W98562  31.259   4.362   4.055
27034W        W98563  29.065  41.558  10.906
27035W        W98564  39.464   8.724   2.292
27036W        W98565  44.765   0.497   2.575
27037W        W98566   1.355  20.389   1.407
27038W        W98567   3.851  13.076   4.193
27039W        W98568  32.863  14.315   4.649
27040W        W98569  41.476  21.033   4.398
27041W        W98570  38.941  44.506  11.165
27042W        W98571  10.462  32.470   2.204
27043W        W98572  34.476  20.987  10.547
27044W        W98573  34.784   1.328   3.325
27045W        W98574  17.017  12.647  12.642
27046W        W98575  34.600  28.656  13.358
27047W        W98576  15.042  25.537   0.413
27048W        W98577  32.878  21.204   2.297
27049W        W98578  38.355  17.627   0.200
27050W        W98579   3.450  13.548   4.773
27051W        W98580  23.236  35.330  13.585
27052W        W98581   7.234  16.069  13.097
27053W        W98582  17.138  20.478  12.220
27054W        W98583   3.084  39.126  14.405
27055W        W98584  29.449  18.922   3.302
27056W        W98585  34.291  17.715   2.573
27057W        W98586  19.253  41.154  12.641
27058W        W98587  19.233  17.631   2.605
27059W        W98588  27.170  35.636  14.054
27060W        W98589  35.486  42.990  14.234
27061W        W98590   9.247  44.844   2.246
27062W        W98591  24.384  37.567  10.762
27063W        W98592  39.503   4.735   2.127
27064W        W98593   8.860  43.405   1.474
27065W        W98594  11.324   9.116   3.665
27066W        W98595  21.408   9.894  14.637
27067W        W98596   9.957  11.982  10.682
27068W        W98597  13.781   6.311  12.119
27069W        W98598   1.343   7.212  11.230
27070W        W98599  42.810  43.750   2.963
27071W        W98600  25.597  35.344  13.943
27072W        W98601  43.508  14.642   4.150
27073W        W98602  39.630  19.031  13.439
27074W        W98603  11.615   3.381  10.316
27075W        W98604  15.282   4.972   2.758
27076W        W98605  42.864  19.798   3.857
27077W        W98606  43.564  34.509  10.727
27078W        W98607  28.212   3.752   0.906
27079W        W98608  42.620  37.611  11.601
27080W        W98609  27.753  27.074   0.351
27081W        W98610   5.700  32.726  13.887
27082W        W98611  29.370  19.815   1.338
27083W        W98612  15.818   3.135   1.789
27084W        W98613   8.990   0.425   0.923
27085W        W98614  35.760  21.298  12.537
27086W        W98615  15.516   7.073   9.803
27087W        W98616  33.404   0.500  13.551
27088W        W98617  15.323  25.664  10.641
27089W        W98618  34.893  44.801   3.945
27090W        W98619  23.695  41.399  11.156
27091W        W98620  18.738  19.547   1.044
27092W        W98621  35.589  39.928   0.270
27093W        W98622   0.472  27.501   0.323
27094W        W98623   6.737  42.424   3.266
27095W        W98624  15.918   7.349   5.409
27096W        W98625  17.373  24.949  14.446
27097W        W98626  34.723   7.883   3.652
27098W        W98627  37.448  21.038   2.844
27099W        W98628  43.922  19.522   3.002
27100W        W98629  37.215   0.341   3.723
27101W        W98630  18.745   6.229  11.058
27102W        W98631  13.738   5.988  12.524
27103W        W98632  33.207  14.588   0.797
27104W        W98633  19.646   9.856  13.752
27105W        W98634  30.061  19.069  12.988
27106W        W98635  21.888   7.835  12.625
27107W        W98636   2.545   4.803   3.835
27108W        W98637  14.640   7.754  14.934
27109W        W98638  18.988   8.803  13.823
27110W        W98639  30.112   1.438  13.503
27111W        W98640   5.657  19.670  12.947
27112W        W98641  29.903  16.848   0.569
27113W        W98642  33.978  32.877  14.217
27114W        W98643  32.313  26.976   3.224
27115W        W98644  25.894  28.254  11.112
27116W        W98645   7.237  35.525   3.764
27117W        W98646  15.628  18.184  11.421
27118W        W98647  28.423  17.228  13.118
27119W        W98648  33.482  13.039   3.123
27120W        W98649  11.897  18.702  10.060
27121W        W98650   0.599  43.074   1.414
27122W        W98651  44.698  35.812  14.860
27123W        W98652   8.185  43.283   3.096
27124W        W98653  28.072  21.183   0.553
27125W        W98654  24.801   2.773   3.658
27126W        W98655   6.646  28.262  10.451
27127W        W98656  34.195  11.696   2.432
27128W        W98657  24.619   2.925   0.699
27129W        W98658   3.844  27.668  12.188
27130W        W98659  27.620  39.662  13.542
27131W        W98660  29.632  20.326  13.884
27132W        W98661  12.833  44.910  13.809
27133W        W98662  35.615   1.282  14.936
27134W        W98663  20.329   4.273   1.573
27135W        W98664  42.801   8.309   2.744
27136W        W98665  28.574   6.931  11.565
27137W        W98666  18.262  33.524   3.274
27138W        W98667  15.806  27.933   3.276
27139W        W98668   7.924   4.355  10.921
27140W        W98669   2.718  11.817  13.871
27141W        W98670  22.290   3.775   0.328
27142W        W98671   5.199  38.400  14.488
27143W        W98672  40.281   6.122  10.757
27144W        W98673   6.830   9.509   3.085
27145W        W98674   5.387  27.724   3.168
27146W        W98675  35.885  40.322   3.067
27147W        W98676  39.973  23.981  13.523
27148W        W98677  15.742  19.439  13.321
27149W        W98678  20.623  20.968  14.883
27150W        W98679  18.717  18.514  14.907
27151W        W98680   5.366  30.678   1.752
27152W        W98681   6.266  28.755  13.965
27153W        W98682  39.762  18.163   0.329
27154W        W98683  35.395  34.349   2.334
27155W        W98684   1.695   6.359   2.266
27156W        W98685   1.197  25.463   4.183
27157W        W98686  40.091   6.164  14.354
27158W        W98687   4.561  44.558  14.850
27159W        W98688  35.383  33.936   4.269
27160W        W98689  34.802  15.325  14.912
27161W        W98690   6.486  22.877   0.327
27162W        W98691  19.067  21.866  13.905
27163W        W98692   4.853  43.808   2.719
27164W        W98693   8.660   7.700  14.973
27165W        W98694  39.428  28.381  12.203
27166W        W98695  32.142  24.213  13.573
27167W        W98696  25.579   6.471   4.474
27168W        W98697  24.181  27.595   4.608
27169W        W98698  21.868  33.747  10.242
27170W        W98699   8.236  18.723   2.407
27171W        W98700  33.394  37.537   1.666
27172W        W98701  37.320  36.286   2.316
27173W        W98702  35.645  16.307  13.889
27174W        W98703  16.542  42.008  11.910
27175W        W98704   1.802   8.382  12.596
27176W        W98705  17.524  17.672  10.743
27177W        W98706  44.098  15.191  14.054
27178W        W98707   2.833  34.483   3.966
27179W        W98708   1.959  13.844   4.252
27180W        W98709  17.916  40.076   3.385
27181W        W98710  40.302   7.882   4.496
27182W        W98711  24.684  15.722  12.552
27183W        W98712  43.037  12.872  12.539
27184W        W98713  44.876  22.479   0.532
27185W        W98714  37.971  17.089   0.707
27186W        W98715  24.725   4.774   3.549
27187W        W98716  43.288  20.011   0.932
27188W        W98717   2.046  32.507  12.120
27189W        W98718  26.933  35.706   4.451
27190W        W98719  31.748  26.928  11.095
27191W        W98720   7.434  11.561   3.890
27192W        W98721  30.227  10.656  13.567
27193W        W98722  22.655  22.829  12.070
27194W        W98723  44.496  39.305   2.748
27195W        W98724  19.605  18.822  13.956
27196W        W98725  44.931  23.849  11.873
27197W        W98726  25.434  39.774  10.757
27198W        W98727  43.077  27.578   4.816
27199W        W98728  20.133  27.499  10.102
27200W        W98729  31.413   0.725  11.053
27201W        W98730   4.235   7.269   0.506
27202W        W98731  42.790  18.550   4.122
27203W        W98732  37.898  33.022   4.669
27204W        W98733  25.570  34.180   4.560
27205W        W98734  12.287  25.489  10.630
27206W        W98735  27.787  31.585  11.163
27207W        W98736  40.816  10.244  12.912
27208W        W98737   5.208  43.917  13.935
27209W        W98738  36.741   5.217  12.128
27210W        W98739  24.952  14.803   4.674
27211W        W98740  11.330   7.278  14.962
27212W        W98741   3.769  23.248   1.978
27213W        W98742   5.099  37.346   1.467
27214W        W98743  22.519  36.569  11.850
27215W        W98744  26.005  30.406  13.624
27216W        W98745  11.675   7.027   3.075
27217W        W98746  22.644  27.339   2.095
27218W        W98747  19.344  31.180   4.721
27219W        W98748  21.108  41.413   1.811
27220W        W98749  37.668  11.878   0.274
27221W        W98750  25.600   0.564  11.502
27222W        W98751  42.152   1.190   4.950
27223W        W98752  42.244  41.730  13.311
27224W        W98753  23.657  13.913   0.293
27225W        W98754  34.545  17.331   2.329
27226W        W98755  14.110  26.998   2.321
27227W        W98756  10.660  30.231  11.186
27228W        W98757  41.272  33.856   0.274
27229W        W98758  11.837  35.340   3.616
27230W        W98759  27.197  38.865  13.476
27231W        W98760  42.855  32.472   0.952
27232W        W98761  38.068  27.075   0.769
27233W        W98762  38.410  37.009  12.204
27234W        W98763  15.273   5.208   0.207
27235W        W98764  28.676  25.159   3.160
27236W        W98765  30.602  13.684  12.761
27237W        W98766  40.961  30.911   3.880
27238W        W98767  34.516  28.735  10.836
27239W        W98768   2.969  14.651  11.434
27240W        W98769  11.061  29.512  10.759
27241W        W98770  32.924   6.689   2.182
27242W        W98771  41.959  41.451  10.961
27243W        W98772  21.782  32.258  12.734
27244W        W98773  34.629  35.063   2.067
27245W        W98774   8.365   0.749   0.457
27246W        W98775  25.667  13.729   4.591
27247W        W98776   2.392  15.843   3.675
27248W        W98777  39.532  35.927   3.656
27249W        W98778  10.694   8.881  11.423
27250W        W98779  43.954   5.286  14.432
27251W        W98780  29.406  37.360  13.401
27252W        W98781  13.639  42.596  12.133
27253W        W98782   3.305   1.481  14.012
27254W        W98783  17.547  41.475   4.659
27255W        W98784   1.344  21.851   4.194
27256W        W98785  34.847   8.674   1.481
27257W        W98786   4.493  29.586  10.718
27258W        W98787  13.904  44.904   0.665
27259W        W98788  33.890   1.866  12.516
27260W        W98789   0.543  26.645  12.909
27261W        W98790  38.909  39.556   3.332
27262W        W98791  26.575   4.831   1.649
27263W        W98792  10.317   7.219   1.776
27264W        W98793  35.947  29.676   3.234
27265W        W98794  39.314  18.071  14.467
27266W        W98795  15.067  12.245  10.673
27267W        W98796  27.738   4.799  11.537
27268W        W98797  21.293  23.343  14.584
27269W        W98798  17.326  19.481   3.116
27270W        W98799   2.451  34.753  12.869
27271W        W98800   2.041   6.718  10.485
27272W        W98801  17.467   6.328   3.801
27273W        W98802  13.947  21.724   4.984
27274W        W98803  44.130  15.528  12.840
27275W        W98804  23.725  40.591   1.292
27276W        W98805  33.403  23.696  10.801
27277W        W98806  37.288   4.981  12.470
27278W        W98807  31.992  28.671  10.703
27279W        W98808  36.056  23.994   2.729
27280W        W98809  37.458   6.785   1.203
27281W        W98810   4.886  20.776  10.857
27282W        W98811  14.750  21.668  12.116
27283W        W98812  14.667  25.020   1.906
27284W        W98813  35.991  19.520  12.138
27285W        W98814  13.224  15.644   3.660
27286W        W98815  31.022  22.773   4.138
27287W        W98816  10.430   9.857   3.500
27288W        W98817  26.413  27.668  11.584
27289W        W98818  26.149   3.336   3.108
27290W        W98819  23.608  27.151   2.821
27291W        W98820  16.169  24.037   1.869
27292W        W98821   4.658  41.910  11.261
27293W        W98822   1.754  10.344  13.473
27294W        W98823  31.181  14.573  11.257
27295W        W98824  34.126   5.388   3.891
27296W        W98825  27.105  26.707  12.594
27297W        W98826   6.782  35.999   0.479
27298W        W98827  29.668  13.846  11.760
27299W        W98828  43.906  21.995  13.349
27300W        W98829  18.454  33.204  11.159
27301W        W98830   8.683   3.296  11.187
27302W        W98831  12.342  19.538   3.635
27303W        W98832  40.092  14.374   1.716
27304W        W98833   3.770  31.504  11.900
27305W        W98834  24.529   4.936  13.431
27306W        W98835  19.112  41.185  13.860
27307W        W98836  15.662   1.694   3.890
27308W        W98837   5.661  19.653  13.524
27309W        W98838  33.549   6.917  13.385
27310W        W98839  29.499  35.735   0.188
27311W        W98840  26.234   3.192  12.948
27312W        W98841  35.257  34.519  12.046
27313W        W98842   9.725  26.155  13.569
27314W        W98843  41.518   4.199   3.416
27315W        W98844  18.230  39.869   0.563
27316W        W98845   4.873   4.120  12.604
27317W        W98846  26.146  39.344   4.672
27318W        W98847  42.107  30.079   1.934
27319W        W98848  35.125  41.075   4.577
27320W        W98849  14.106  17.199   2.737
27321W        W98850   8.623  13.657   1.643
27322W        W98851  13.859  12.074   4.631
27323W        W98852   2.878  11.661  12.884
27324W        W98853   9.087  20.499  14.515
27325W        W98854  43.724  19.129   3.273
27326W        W98855   8.609  33.788  11.992
27327W        W98856  30.822  21.449   2.822
27328W        W98857   6.171  30.649   1.410
27329W        W98858  15.094  22.579  10.862
27330W        W98859   7.884  44.250   1.387
27331W        W98860  22.403  37.816  14.476
27332W        W98861  13.300  11.869   0.864
27333W        W98862  16.868  44.533   2.797
27334W        W98863  18.340  32.141  13.586
27335W        W98864  12.788  18.790   1.242
27336W        W98865  19.538  16.936   3.123
27337W        W98866  28.943  17.583  11.034
27338W        W98867  39.299   2.528   1.856
27339W        W98868  12.227  20.817  13.597
27340W        W98869  24.761  18.463  14.313
27341W        W98870   7.701  42.318   2.317
27342W        W98871   3.793  30.001  10.350
27343W        W98872  10.640  43.742  12.085
27344W        W98873   1.894  44.776  10.458
27345W        W98874  18.769   9.136   2.565
27346W        W98875  40.075  28.985   0.290
27347W        W98876  36.053   5.374   3.911
27348W        W98877  34.937   9.701   3.944
27349W        W98878  35.037  41.362  14.311
27350W        W98879  26.980   5.941  13.933
27351W        W98880  16.883  28.072  14.254
27352W        W98881  22.977  44.826   1.323
27353W        W98882  39.311  15.649   1.466
27354W        W98883   0.351  11.058  13.465
27355W        W98884   4.242  32.076   3.692
27356W        W98885  28.161  33.780   2.194
27357W        W98886  35.029  41.827   4.124
27358W        W98887  27.612  42.995   2.271
27359W        W98888  30.998  26.902   1.757
27360W        W98889  13.077  23.628  13.014
27361W        W98890  17.744   1.404   2.361
27362W        W98891  17.397  30.544   0.652
27363W        W98892  28.369  14.266  11.594
27364W        W98893  30.358  31.887  13.582
27365W        W98894  40.997   3.878  11.887
27366W        W98895  35.050  23.737  14.327
27367W        W98896  32.037  27.142   9.805
27368W        W98897   9.972  20.344  11.583
27369W        W98898   8.316  34.294   4.233
27370W        W98899  33.837  18.460   3.110
27371W        W98900  14.725  23.196  11.244
27372W        W98901  17.032  20.637  12.706
27373W        W98902  14.934   5.321  14.267
27374W        W98903  19.903   5.376   3.154
27375W        W98904  12.745  19.040   2.696
27376W        W98905  22.493   1.332  11.163
27377W        W98906  41.922   5.348  14.607
27378W        W98907  36.482  36.641   1.851
27379W        W98908  39.996  38.806  14.403
27380W        W98909  28.462  30.942  13.793
27381W        W98910   8.413  39.681  10.381
27382W        W98911  39.387   1.564   1.532
27383W        W98912   3.707  23.506  13.452
27384W        W98913  10.810  37.064   2.880
27385W        W98914  43.982  18.685   3.172
27386W        W98915  21.495  15.852  12.794
27387W        W98916  30.667  31.749   3.102
27388W        W98917  42.879  33.127  10.691
27389W        W98918  16.219  18.551  10.040
27390W        W98919  20.794  39.223  11.261
27391W        W98920  30.050  35.404  10.603
27392W        W98921  33.954  39.368   1.940
27393W        W98922  24.608  31.125  11.953
27394W        W98923  10.625   8.350  11.187
27395W        W98924  11.991  33.678  14.306
27396W        W98925  14.848  40.937  11.683
27397W        W98926  37.580  19.485  11.160
27398W        W98927  39.071  19.606  12.835
27399W        W98928  18.249  44.269  10.683
27400W        W98929  36.540  32.779  13.487
27401W        W98930  18.758  30.173   2.188
27402W        W98931   4.208   4.807   0.713
27403W        W98932  40.844  32.944  12.440
27404W        W98933  14.244  35.990   0.184
27405W        W98934  20.699   9.731  12.007
27406W        W98935  25.472  12.253   1.292
27407W        W98936   4.001  30.022  13.302
27408W        W98937   0.991  11.745  10.153
27409W        W98938  26.291  34.038   3.157
27410W        W98939  38.262   2.154   3.764
27411W        W98940  29.586  14.534   0.725
27412W        W98941  38.379  26.602   2.753
27413W        W98942  14.268  10.671   4.491
27414W        W98943  31.850   0.584   0.874
27415W        W98944  29.452  43.892   4.628
27416W        W98945   6.382  17.664   4.136
27417W        W98946  16.386  36.824   1.413
27418W        W98947  43.353  14.341  14.975
27419W        W98948  34.985  20.670   2.857
27420W        W98949  17.732  35.336  11.821
27421W        W98950  25.779  25.121  14.403
27422W        W98951  32.027  43.303   3.189
27423W        W98952  44.968  31.649   4.694
27424W        W98953  26.827   9.228  13.546
27425W        W98954  23.608  31.028  12.118
27426W        W98955  38.999  10.333  13.003
27427W        W98956  18.230  16.557   3.768
27428W        W98957   2.357  19.187   4.278
27429W        W98958  32.009  43.486   1.736
27430W        W98959  18.547   3.466   1.389
27431W        W98960   3.253   9.648   0.628
27432W        W98961   1.837  28.369   3.491
27433W        W98962  36.360  42.769   3.824
27434W        W98963  12.620  43.735  13.047
27435W        W98964  35.070  37.681  10.939
27436W        W98965  27.094  44.551   0.777
27437W        W98966  28.083  42.181   1.868
27438W        W98967  40.034  11.875   1.674
27439W        W98968  14.581  23.785  12.128
27440W        W98969  19.710  15.262   4.894
27441W        W98970  30.053  23.082   0.507
27442W        W98971  20.967  30.458  12.940
27443W        W98972   3.719  37.502   3.622
27444W        W98973  27.453  35.059   2.236
27445W        W98974  19.481  43.042   3.705
27446W        W98975  16.744  37.398  10.317
27447W        W98976  42.307   8.754   3.814
27448W        W98977  16.267  44.068  13.414
27449W        W98978   9.884   4.801  14.629
27450W        W98979  31.384  41.947  13.805
27451W        W98980  25.050  25.641  14.335
27452W        W98981  25.511   1.998  11.683
27453W        W98982  25.566  36.557   0.337
27454W        W98983  13.909  39.875   0.860
27455W        W98984  30.498  33.180  12.621
27456W        W98985   5.433   7.977   3.557
27457W        W98986  35.184  11.096   0.432
27458W        W98987  42.988  38.349  12.035
27459W        W98988   3.994  42.354   3.972
27460W        W98989   9.350  30.987  13.559
27461W        W98990  35.939  33.850  12.837
27462W        W98991  31.583  32.901  12.006
27463W        W98992  34.501  23.140   4.325
27464W        W98993  29.696   8.062  13.067
27465W        W98994  39.390  18.876  12.517
27466W        W98995  27.049  44.505   1.791
27467W        W98996  12.255  35.361   3.272
27468W        W98997  21.087  26.238  14.593
27469W        W98998   2.266  24.043  12.546
27470W        W98999  13.400  26.117   2.443
27471W        W99000  37.831  39.835   1.614
27472W        W99001  37.553   1.032  14.322
27473W        W99002  21.318   1.063   2.388
27474W        W99003  24.501   9.421  13.532
27475W        W99004   4.233   0.010   1.015
27476W        W99005  36.010  31.302   3.735
27477W        W99006  28.024  38.416   4.601
27478W        W99007  18.588  39.576  13.372
27479W        W99008   7.381  15.868  10.593
27480W        W99009   4.320   4.663  14.214
27481W        W99010   2.748  33.547  11.444
27482W        W99011  40.203  22.620   0.835
27483W        W99012  11.744  18.040  13.975
27484W        W99013  44.000  18.175   0.416
27485W        W99014  17.565  21.514  14.713
27486W        W99015  19.133  25.968   2.285
27487W        W99016  15.124  33.854   4.761
27488W        W99017  41.233  31.905   1.885
27489W        W99018  25.453  33.103  11.465
27490W        W99019  35.445  15.419  13.843
27491W        W99020   6.933   1.582   1.211
27492W        W99021  44.820  14.043  14.292
27493W        W99022  23.440   8.344   1.480
27494W        W99023  18.531  40.815  11.138
27495W        W99024   0.579  16.038   1.723
27496W        W99025  44.579  27.985  13.506
27497W        W99026  30.904  28.680   0.787
27498W        W99027  31.115   7.278   1.995
27499W        W99028  12.036  28.915   0.451
27500W        W99029  33.517  39.795  12.199
27501W        W99030  40.361  31.400  11.985
27502W        W99031  35.918  43.023  12.950
27503W        W99032  41.665  42.352   3.212
27504W        W99033  43.434   0.271   3.700
27505W        W99034  35.357  29.617  13.987
27506W        W99035  36.726  44.927   0.816
27507W        W99036   4.448  19.001  10.523
27508W        W99037   7.716  30.687  12.484
27509W        W99038  18.680  36.581   2.687
27510W        W99039   0.797  26.542   4.987
27511W        W99040  13.254  41.068  14.892
27512W        W99041  38.901  40.524   4.177
27513W        W99042  25.798  10.418   1.782
27514W        W99043  22.728  20.018  13.939
27515W        W99044   9.078  40.016  13.890
27516W        W99045  13.306  27.464   3.539
27517W        W99046   1.843  42.308  13.462
27518W        W99047  35.789  13.659   2.758
27519W        W99048  44.900  28.019   3.157
27520W        W99049  36.383  20.132   3.702
27521W        W99050  24.295  41.831   4.312
27522W        W99051  24.183   6.255   2.749
27523W        W99052  11.409  25.532   2.205
27524W        W99053   9.484  14.849   4.636
27525W        W99054  16.713   5.748  12.844
27526W        W99055   1.261   9.417   2.840
27527W        W99056  30.171  37.512   1.392
27528W        W99057  43.986  43.285  13.486
27529W        W99058   8.616  18.078  10.609
27530W        W99059  17.338   0.760   0.692
27531W        W99060  44.953   4.742  10.753
27532W        W99061   7.096  31.131  12.363
27533W        W99062  29.266  10.180   0.261
27534W        W99063  31.878  44.426  14.339
27535W        W99064  14.370  10.161   4.444
27536W        W99065  25.101  34.078   3.268
27537W        W99066  44.752   8.765  12.906
27538W        W99067  35.423  30.583   0.409
27539W        W99068   3.426  39.487   4.124
27540W        W99069   5.645  37.935  12.945
27541W        W99070  40.900  16.616  11.136
27542W        W99071  15.725  40.140   3.270
27543W        W99072  12.818  35.542   3.117
27544W        W99073  30.930  39.988   0.247
27545W        W99074   2.888   6.833   4.673
27546W        W99075  27.445  23.119  12.364
27547W        W99076  36.846   5.140   3.144
27548W        W99077  38.586  27.504   4.030
27549W        W99078  15.429   3.428   0.417
27550W        W99079  18.234  24.366  11.851
27551W        W99080  10.336  23.278  13.439
27552W        W99081  10.012  37.470  11.309
27553W        W99082  24.454   8.464   1.986
27554W        W99083  39.944  13.973  13.966
27555W        W99084  13.167  25.611   0.302
27556W        W99085   4.259  26.668   4.063
27557W        W99086  41.765  23.203   2.743
27558W        W99087  34.941  31.044   2.758
27559W        W99088  34.146  23.696  14.511
27560W        W99089  35.605  15.846  11.946
27561W        W99090  22.933  31.900   4.611
27562W        W99091   8.368  21.724   0.919
27563W        W99092  30.385  35.131  11.523
27564W        W99093  20.252  22.358   2.788
27565W        W99094  34.558   8.144   2.147
27566W        W99095   2.418  20.055  12.469
27567W        W99096  34.127  14.816  12.149
27568W        W99097  30.782   4.913  14.830
27569W        W99098  28.070  24.746  10.000
27570W        W99099  22.631  28.553   0.012
27571W        W99100  37.888  30.717   0.780
27572W        W99101  19.775  13.816   0.180
27573W        W99102  20.211   9.200   1.680
27574W        W99103   6.304   6.866   4.429
27575W        W99104   3.358  18.990   0.356
27576W        W99105  17.542   0.418   3.845
27577W        W99106   6.875  16.310  12.258
27578W        W99107   8.722  34.190   1.276
27579W        W99108   9.090  43.997   2.301
27580W        W99109  29.010  31.201  13.092
27581W        W99110   4.839  42.312   1.927
27582W        W99111  19.540   8.700   4.411
27583W        W99112  13.672  16.863  12.010
27584W        W99113  15.124   4.688  10.994
27585W        W99114   0.001  28.097  10.008
27586W        W99115   6.476  33.121  13.876
27587W        W99116  11.140  27.207   4.510
27588W        W99117  29.638  12.804   5.247
27589W        W99118  34.231  26.402  14.693
27590W        W99119  10.795  32.128   3.335
27591W        W99120  31.961  20.648   1.288
27592W        W99121  38.168  25.465   0.788
27593W        W99122  37.977  38.664   4.031
27594W        W99123  30.843  24.191   4.043
27595W        W99124   4.224  16.095  14.432
27596W        W99125  37.454  35.974   0.890
27597W        W99126   8.876  39.552   4.229
27598W        W99127   1.282  20.249  10.791
27599W        W99128  32.646  17.639   4.085
27600W        W99129  33.121   0.301   0.178
27601W        W99130  21.118  17.382  11.163
27602W        W99131  36.801  26.279  13.653
27603W        W99132   7.287  34.489   1.427
27604W        W99133  11.070   2.992   4.710
27605W        W99134   7.866  22.671   0.267
27606W        W99135  11.382   5.633   1.467
27607W        W99136  21.762   2.915  10.775
27608W        W99137  29.956  41.964  12.449
27609W        W99138  20.732  42.900   1.958
27610W        W99139  22.740   7.968  14.038
27611W        W99140   2.094  41.871   3.682
27612W        W99141  43.692  10.124   0.285
27613W        W99142  32.906  22.437  11.680
27614W        W99143   9.229  35.836   1.620
27615W        W99144   7.349  42.013  12.616
27616W        W99145   7.880   9.596   1.945
27617W        W99146  26.090   0.362   4.102
27618W        W99147   8.863  27.599   1.265
27619W        W99148  10.438  42.597  13.747
27620W        W99149  20.655  42.622   4.518
27621W        W99150   5.295  17.172  14.438
27622W        W99151   1.443   6.724   3.183
27623W        W99152  34.482   4.338   2.012
27624W        W99153  36.055  11.388   0.866
27625W        W99154  10.804   8.408   0.174
27626W        W99155  32.642  16.258  11.106
27627W        W99156  32.878   7.943  11.587
27628W        W99157  28.979  29.085   1.419
27629W        W99158  15.915   6.839   5.456
27630W        W99159  33.630  23.736  14.466
27631W        W99160  26.601  42.413   1.676
27632W        W99161  23.622   2.431  14.116
27633W        W99162  26.156   6.713   3.737
27634W        W99163  43.376   0.315  12.050
27635W        W99164  37.055   7.694   1.447
27636W        W99165  10.851  37.356  10.903
27637W        W99166  24.367   0.765  10.207
27638W        W99167  31.938   1.989  13.997
27639W        W99168  11.692   3.537  14.971
27640W        W99169   4.620   1.683  11.237
27641W        W99170  25.329   3.428  12.056
27642W        W99171  12.300  29.292  14.496
27643W        W99172  17.445  37.031   4.363
27644W        W99173  36.813   1.768  10.677
27645W        W99174  13.564  24.148   1.878
27646W        W99175  19.798   7.747   3.318
27647W        W99176   2.244  36.599  12.314
27648W        W99177  36.072  43.545  12.075
27649W        W99178   6.068  25.213  14.291
27650W        W99179  32.002  37.592  14.555
27651W        W99180  44.961  16.044  14.390
27652W        W99181   8.466  12.820   1.089
27653W        W99182   7.899  34.547  10.810
27654W        W99183  43.704  18.560   3.625
27655W        W99184  42.564   8.326   3.618
27656W        W99185  41.895  35.992  13.519
27657W        W99186  15.055  35.035   3.077
27658W        W99187  31.953  12.102  13.975
27659W        W99188  43.818  24.960  11.684
27660W        W99189  27.950  15.360   4.296
27661W        W99190  36.888  43.360  14.334
27662W        W99191  16.347  41.123  12.524
27663W        W99192  35.365  40.316  14.992
27664W        W99193  44.346  36.621  10.372
27665W        W99194   7.596  31.101   2.397
27666W        W99195  31.447   7.742   1.870
27667W        W99196  27.419   6.235  13.973
27668W        W99197  41.755  33.113   0.404
27669W        W99198  40.977  19.291  12.013
27670W        W99199  30.410  25.294   0.878
27671W        W99200  28.198  24.398  14.516
27672W        W99201  26.988  23.264  12.141
27673W        W99202  34.461   5.751   4.620
27674W        W99203  41.381   3.246  14.515
27675W        W99204  24.421  21.238  13.466
27676W        W99205  42.958  22.938  12.473
27677W        W99206  21.320  38.349  13.400
27678W        W99207   2.681  23.397   0.731
27679W        W99208  22.006  14.801  10.799
27680W        W99209  12.568  37.569  10.489
27681W        W99210   6.205  16.584   1.760
27682W        W99211  12.853  32.862  14.815
27683W        W99212  32.418  23.006  14.814
27684W        W99213  40.019  21.229   4.130
27685W        W99214   8.399  34.359   3.374
27686W        W99215  20.929  39.356  14.266
27687W        W99216   2.641   5.811  11.120
27688W        W99217  27.021  38.509   3.764
27689W        W99218   5.290  20.832  13.880
27690W        W99219  38.218  35.469   2.716
27691W        W99220   2.456  27.393   0.905
27692W        W99221   8.188  39.066   4.476
27693W        W99222  37.667  15.031   1.871
27694W        W99223  15.964   4.726  13.516
27695W        W99224   3.887  42.272  13.347
27696W        W99225  32.915  24.737  12.030
27697W        W99226  38.431  29.332   0.990
27698W        W99227  15.584  30.504   5.205
27699W        W99228  36.558  44.365   2.934
27700W        W99229  31.497  27.342  10.318
27701W        W99230   0.830  32.632  11.623
27702W        W99231   3.829  34.803   2.169
27703W        W99232  38.546   3.788   2.358
27704W        W99233  38.684  29.799  12.103
27705W        W99234  20.687   5.157   3.644
27706W        W99235   8.570  39.567  13.139
27707W        W99236  11.066  31.820   3.648
27708W        W99237  13.835  21.222  13.035
27709W        W99238  40.525  30.478   4.521
27710W        W99239  34.369  22.463  10.582
27711W        W99240  16.292   3.205  12.136
27712W        W99241  21.766   2.432   4.183
27713W        W99242  20.215  16.020  11.870
27714W        W99243  17.148  36.633  14.714
27715W        W99244   3.426  10.760  12.176
27716W        W99245  31.550  38.430  11.424
27717W        W99246  40.954   3.761  10.373
27718W        W99247  39.366  18.990  11.652
27719W        W99248   2.388   6.001  13.335
27720W        W99249   0.631  40.470  10.849
27721W        W99250  22.330  10.224   0.969
27722W        W99251  28.672  33.468   0.815
27723W        W99252  42.699  24.747   0.363
27724W        W99253  38.999  38.874   2.755
27725W        W99254   6.742  37.022   1.005
27726W        W99255  19.181  31.179  14.003
27727W        W99256   4.662  17.067   1.698
27728W        W99257   7.408  15.158  13.526
27729W        W99258  10.186  19.411  13.840
27730W        W99259  18.282  29.873  13.540
27731W        W99260   9.174   7.340   3.154
27732W        W99261   1.594  18.380   1.758
27733W        W99262   3.190  22.433  14.934
27734W        W99263  15.327   0.768   4.131
27735W        W99264  14.690  34.855   4.394
27736W        W99265  22.184  11.619  12.701
27737W        W99266  15.577  12.547   1.495
27738W        W99267  15.834  29.998  10.831
27739W        W99268  32.596  18.187  12.128
27740W        W99269  35.948  24.612   3.240
27741W        W99270  20.501  35.983   4.205
27742W        W99271  36.620  34.093   2.744
27743W        W99272   4.570  21.491  13.937
27744W        W99273  44.277  43.859  12.114
27745W        W99274  38.911  41.342  11.118
27746W        W99275  25.897  39.423   0.541
27747W        W99276  24.206  12.083   3.286
27748W        W99277  19.248  11.665   1.777
27749W        W99278  37.504   8.936   4.714
27750W        W99279  37.042   7.918  12.628
27751W        W99280  33.177  13.684  12.930
27752W        W99281  10.265   9.678  13.324
27753W        W99282  27.420  14.198   2.737
27754W        W99283  11.416   1.615   4.942
27755W        W99284  13.885   7.303  12.213
27756W        W99285  33.293   2.821  14.955
27757W        W99286   5.048   4.424  12.202
27758W        W99287  23.476  30.611   1.304
27759W        W99288   8.366   3.225   3.872
27760W        W99289  15.762  28.401  11.166
27761W        W99290  12.589  23.516  13.013
27762W        W99291  23.688  38.398  14.142
27763W        W99292  35.996  17.628  10.711
27764W        W99293  30.360  38.158  11.590
27765W        W99294   2.951  17.132  13.887
27766W        W99295  16.117  24.940   1.839
27767W        W99296  41.966  18.507  12.960
27768W        W99297  29.526  34.033   0.998
27769W        W99298  43.580  42.870  11.613
27770W        W99299   4.637   4.084  11.378
27771W        W99300  33.401  33.657   2.444
27772W        W99301  11.157  10.914   4.198
27773W        W99302  34.861  19.812  10.583
27774W        W99303  38.355  16.365   3.960
27775W        W99304  15.218  31.828   3.719
27776W        W99305   8.410  27.484   4.733
27777W        W99306  34.220  13.739  13.231
27778W        W99307   7.833   2.783   4.822
27779W        W99308   7.246  29.920  12.651
27780W        W99309   0.014   5.171  12.848
27781W        W99310  18.806  38.430  11.200
27782W        W99311   1.173  14.141   2.252
27783W        W99312  18.633  27.178  13.409
27784W        W99313   1.139  32.888  14.472
27785W        W99314  16.995  24.717  11.467
27786W        W99315   4.275  13.259  12.619
27787W        W99316  36.377  24.485  14.573
27788W        W99317   2.876   8.453  13.423
27789W        W99318  10.171  22.229  11.012
27790W        W99319  42.245  29.992   4.556
27791W        W99320  22.982   2.428  10.442
27792W        W99321  15.560   4.735   2.346
27793W        W99322  19.533  29.524  13.804
27794W        W99323  31.855  22.735  10.690
27795W        W99324  44.923  20.942  13.337
27796W        W99325  44.522  14.753  10.856
27797W        W99326   9.962   7.836  12.167
27798W        W99327  17.384   7.333  11.656
27799W        W99328  41.067  43.792   3.312
27800W        W99329  10.077   6.281  14.295
27801W        W99330  20.357  33.038  14.983
27802W        W99331  11.023  39.371  10.887
27803W        W99332  22.168   1.695   4.397
27804W        W99333  32.694  28.235   3.571
27805W        W99334  43.246  37.271   2.802
27806W        W99335  21.668  41.047   3.685
27807W        W99336  24.732   7.868   3.613
27808W        W99337   1.750  30.496   4.815
27809W        W99338  37.839  25.476   1.224
27810W        W99339  32.773  10.992  12.421
27811W        W99340  28.195  18.514  12.395
27812W        W99341   9.651  13.170   3.289
27813W        W99342   2.502   6.690   4.043
27814W        W99343   0.802   1.613  11.259
27815W        W99344  34.732  27.967  10.347
27816W        W99345   6.180  12.277  13.437
27817W        W99346  37.548  39.363  12.440
27818W        W99347  36.807  29.581   2.268
27819W        W99348   1.885  39.619   3.993
27820W        W99349  26.281  34.522   2.885
27821W        W99350  14.408  13.250   1.529
27822W        W99351  38.993  32.388  11.239
27823W        W99352  36.295  16.226  10.651
27824W        W99353  12.230  21.544  12.340
27825W        W99354   6.689  24.368   1.868
27826W        W99355  20.661  22.734   2.673
27827W        W99356  31.803   3.759   0.099
27828W        W99357  33.073  44.235  14.799
27829W        W99358  33.305   8.073  11.831
27830W        W99359  36.656  20.658   0.717
27831W        W99360  42.510   4.689  13.572
27832W        W99361  43.523  12.312  14.906
27833W        W99362   2.130  15.884  13.425
27834W        W99363  40.567  18.584   3.181
27835W        W99364   4.270  31.261  11.822
27836W        W99365  38.891   3.388   0.403
27837W        W99366  22.470  32.645   4.450
27838W        W99367  25.424   2.829   4.918
27839W        W99368   9.368  35.449  13.491
27840W        W99369  29.163  28.175  14.981
27841W        W99370  38.363  33.123  14.798
27842W        W99371  42.448  42.564  13.033
27843W        W99372  27.186  42.983   3.014
27844W        W99373  22.675  16.059   0.459
27845W        W99374  26.177  20.945  13.920
27846W        W99375  13.043  31.455   3.789
27847W        W99376  38.490  12.620  14.405
27848W        W99377  24.651  39.317   2.886
27849W        W99378  29.684  38.137  13.944
27850W        W99379  39.877  31.776   0.853
27851W        W99380  18.670  21.322  14.750
27852W        W99381  26.785  23.730   2.897
27853W        W99382  35.083   0.984  12.883
27854W        W99383   6.748  41.013  11.520
27855W        W99384  17.714  10.300  14.279
27856W        W99385  36.427   2.521  12.323
27857W        W99386  19.005  29.579   3.583
27858W        W99387  30.730  18.990   3.231
27859W        W99388  44.959   9.086   0.185
27860W        W99389  29.681  15.928  10.311
27861W        W99390  11.704  19.559   0.687
27862W        W99391  21.467   4.824  10.218
27863W        W99392  20.617   7.752   4.537
27864W        W99393  16.189  39.828  12.413
27865W        W99394  11.220  22.786   0.368
27866W        W99395  25.718  21.632  12.470
27867W        W99396  18.011  26.137  10.399
27868W        W99397  43.635  15.649  12.745
27869W        W99398  24.173   5.214  12.198
27870W        W99399  18.019  10.283  11.708
27871W        W99400   8.648   0.549  14.006
27872W        W99401   6.360  33.529   2.150
27873W        W99402  26.672  18.673   2.985
27874W        W99403  42.216  14.064   0.270
27875W        W99404  20.274  27.050   0.361
27876W        W99405   1.494  10.597  12.336
27877W        W99406  32.276  28.022   4.294
27878W        W99407  13.285  11.357   0.976
27879W        W99408   4.350  26.705   5.031
27880W        W99409  13.115  24.490  11.011
27881W        W99410  34.916  15.816   2.322
27882W        W99411  37.305  36.087  14.453
27883W        W99412  31.907  28.098   1.406
27884W        W99413  12.183  17.930  12.657
27885W        W99414   4.741  29.140   0.886
27886W        W99415  33.532  24.175   2.699
27887W        W99416  44.977   5.750  12.126
27888W        W99417  11.651  23.989   4.704
27889W        W99418   4.215   1.438  11.070
27890W        W99419  31.684  39.620  12.837
27891W        W99420  32.234  22.630  14.467
27892W        W99421  13.368  17.338   2.206
27893W        W99422  21.876   7.501   3.158
27894W        W99423   5.703  27.101   3.138
27895W        W99424   4.919  12.515   4.161
27896W        W99425  25.039  23.527  11.512
27897W        W99426  35.050  30.131   0.406
27898W        W99427  23.201  36.851   1.331
27899W        W99428  10.129  27.661  10.272
27900W        W99429  23.143  31.873  12.213
27901W        W99430  23.224  32.063  10.689
27902W        W99431  38.213  33.542  13.069
27903W        W99432   0.240  32.937  12.072
27904W        W99433   4.135  33.561  11.753
27905W        W99434   4.306  39.477   3.945
27906W        W99435  13.139   0.767   5.421
27907W        W99436  30.666   7.848   1.319
27908W        W99437  22.805  14.889   3.587
27909W        W99438  36.052  11.978   3.505
27910W        W99439   2.210  33.819  13.018
27911W        W99440  34.288  12.468  13.006
27912W        W99441  31.563   0.387  13.983
27913W        W99442  17.751   4.149   2.419
27914W        W99443  33.576  17.251   2.838
27915W        W99444  17.441  42.083   4.184
27916W        W99445  24.190   7.645   0.378
27917W        W99446  19.744   6.795   0.948
27918W        W99447   0.182  41.739  12.423
27919W        W99448  22.633  25.243   0.868
27920W        W99449  16.130   0.465   0.645
27921W        W99450  23.486  20.675   0.945
27922W        W99451  27.876  39.997   1.223
27923W        W99452  44.251  28.182  12.553
27924W        W99453  43.044  26.399   2.638
27925W        W99454  22.538  25.016   2.765
27926W        W99455   1.902   6.394  11.526
27927W        W99456  21.035  29.182   0.925
27928W        W99457  40.313  34.045   4.285
27929W        W99458  26.617  20.706   2.267
27930W        W99459   6.148  16.016   2.868
27931W        W99460  12.583  12.235  11.661
27932W        W99461  24.680  18.221  13.421
27933W        W99462   9.881   8.594   1.489
27934W        W99463  28.398  33.582   1.297
27935W        W99464   0.378  28.709  11.313
27936W        W99465  37.931  17.736   2.771
27937W        W99466  29.416  17.752  11.840
27938W        W99467  22.079   9.866   0.202
27939W        W99468  20.491  21.707   1.195
27940W        W99469  26.970  39.203  11.079
27941W        W99470   5.002  42.930   4.781
27942W        W99471  24.471  32.522  13.506
27943W        W99472  11.911  39.979   2.103
27944W        W99473   2.755   4.749   0.949
27945W        W99474   6.983  38.488   0.886
27946W        W99475   9.284  34.799   3.723
27947W        W99476  37.342  33.318  14.592
27948W        W99477  21.102   1.268   0.794
27949W        W99478  29.467   6.928   2.352
27950W        W99479  22.978  16.858   4.575
27951W        W99480   0.296  13.209   3.712
27952W        W99481  21.552   4.899   4.224
27953W        W99482  42.344  23.210  14.491
27954W        W99483  30.628  22.037   2.280
27955W        W99484  15.085  26.904   0.831
27956W        W99485  10.809  34.447  13.269
27957W        W99486  40.335  26.714  13.387
27958W        W99487  29.234  20.053  12.019
27959W        W99488   0.072  32.414  14.368
27960W        W99489  40.751  25.163   1.171
27961W        W99490  29.238   6.751  11.161
27962W        W99491   3.826   8.363  14.466
27963W        W99492  21.732  10.869   4.700
27964W        W99493  33.968  35.411   4.199
27965W        W99494  34.164  28.099   2.262
27966W        W99495  20.613  25.569  13.537
27967W        W99496  19.921  43.745  11.256
27968W        W99497  23.007  24.391   3.243
27969W        W99498  25.550  34.841   2.882
27970W        W99499   4.269  29.713   3.262
27971W        W99500  34.864  26.108   9.898
27972W        W99501  19.716  17.572   5.035
27973W        W99502  19.245  16.373  13.288
27974W        W99503  30.698   1.428   3.827
27975W        W99504  19.238  28.201  11.469
27976W        W99505   1.846  19.639   1.919
27977W        W99506   1.599  24.353  14.968
27978W        W99507   9.639  10.616   2.539
27979W        W99508  44.839  19.874   0.583
27980W        W99509   0.816  36.053   4.733
27981W        W99510  38.020  27.405   0.348
27982W        W99511  15.323  17.040  10.552
27983W        W99512  31.365  42.932  14.338
27984W        W99513  32.594  14.627   4.328
27985W        W99514  27.011  21.529   0.983
27986W        W99515  33.575  34.918  12.037
27987W        W99516  33.769  41.221  12.688
27988W        W99517  41.614  26.520  12.086
27989W        W99518   1.792  36.623   1.198
27990W        W99519  29.859  41.951  10.738
27991W        W99520   3.568  20.630   1.332
27992W        W99521  26.117  30.971  10.825
27993W        W99522   7.129  10.644   4.153
27994W        W99523  42.998   2.155   2.282
27995W        W99524   1.862  20.125   1.289
27996W        W99525  16.831  19.269  12.416
27997W        W99526  21.655  42.989  11.959
27998W        W99527  28.638   3.837   2.745
27999W        W99528  44.770  23.849  12.402
28000W        W99529  22.729  35.381   3.489
28001W        W99530  33.672  39.343   5.071
28002W        W99531  30.240   9.857   2.280
28003W        W99532  10.285  14.198  14.094
28004W        W99533  14.104  22.446  11.826
28005W        W99534  26.460   1.324   0.170
28006W        W99535  11.851  21.760  10.719
28007W        W99536  22.502   3.671  14.869
28008W        W99537   3.180   5.833   0.412
28009W        W99538  39.473  12.015  11.616
28010W        W99539  34.848  26.131  12.715
28011W        W99540  23.141  30.031   2.655
28012W        W99541  10.750  13.196  13.291
28013W        W99542  36.333  22.161  14.363
28014W        W99543  38.710  44.856   2.340
28015W        W99544  38.642  19.654   0.810
28016W        W99545  15.469   0.917   5.064
28017W        W99546  19.456  27.422  11.709
28018W        W99547  27.297  19.727   5.054
28019W        W99548  17.608  27.899  13.617
28020W        W99549   6.317   0.762  13.045
28021W        W99550  24.597  30.440  12.638
28022W        W99551   7.968   0.506   0.837
28023W        W99552  21.972   1.337   3.653
28024W        W99553   0.172  35.146   3.230
28025W        W99554  38.536  40.835   1.669
28026W        W99555  23.535  36.464  10.958
28027W        W99556   7.621  35.776  14.044
28028W        W99557  24.544  16.997   1.183
28029W        W99558  27.022   9.886   0.847
28030W        W99559  32.844  19.533   0.224
28031W        W99560  18.848  27.421  12.521
28032W        W99561  38.929  34.121  11.355
28033W        W99562   5.240  27.971   9.977
28034W        W99563  29.397  35.637   3.858
28035W        W99564   3.959   1.951   3.668
28036W        W99565  25.308  15.814   1.954
28037W        W99566  44.451  36.354  11.490
28038W        W99567   2.059   9.564   2.185
28039W        W99568  37.330  36.516   2.777
28040W        W99569  16.088   9.801   2.845
28041W        W99570  43.079  22.086  14.929
28042W        W99571   6.983  19.554   1.850
28043W        W99572   7.336  24.086  11.566
28044W        W99573  30.108  21.948   4.125
28045W        W99574  23.046   5.483  13.555
28046W        W99575   0.036  12.233  14.768
28047W        W99576   8.252  15.669   1.359
28048W        W99577   0.008   8.078   1.850
28049W        W99578  29.963  14.621   2.270
28050W        W99579   9.688  12.699  11.151
28051W        W99580  11.458  43.995  13.361
28052W        W99581  29.989  24.369  14.440
28053W        W99582  20.830  12.509   4.988
28054W        W99583  34.385  10.329   3.282
28055W        W99584  18.489  41.255   2.119
28056W        W99585  42.081   1.255   3.122
28057W        W99586   4.085  32.539  13.181
28058W        W99587  14.811  40.196  12.974
28059W        W99588  11.529  25.240  14.214
28060W        W99589  29.592  38.891   1.368
28061W        W99590  30.256  19.804  12.522
28062W        W99591  30.667  27.948  11.529
28063W        W99592   1.261  34.143   1.562
28064W        W99593  22.733  23.215   0.763
28065W        W99594  38.563   4.260  11.586
28066W        W99595  11.053  33.027   0.143
28067W        W99596   6.539  24.535  12.641
28068W        W99597  18.377   9.733   4.587
28069W        W99598  25.719  35.474   3.585
28070W        W99599  34.195   4.763   2.907
28071W        W99600  19.257  43.776  12.394
28072W        W99601  36.844  32.593  11.483
28073W        W99602  43.927  43.545  11.939
28074W        W99603  41.838  42.561  12.360
28075W        W99604  32.945   6.705  11.597
28076W        W99605  26.716  33.584  11.400
28077W        W99606  21.665  11.993  12.352
28078W        W99607  38.458  37.354  11.399
28079W        W99608  12.694   1.663   4.326
28080W        W99609  41.099  31.412   4.747
28081W        W99610  38.860  27.651   4.460
28082W        W99611   5.945   0.386   2.480
28083W        W99612  25.276  32.361  12.453
28084W        W99613  19.241   6.342   4.603
28085W        W99614  18.582  13.748  13.959
28086W        W99615   8.942  30.928   0.536
28087W        W99616  24.022  13.649  12.813
28088W        W99617  41.247  41.845  13.838
28089W        W99618  24.994  28.615   2.353
28090W        W99619  20.503   8.912   3.717
28091W        W99620  12.702   3.192   3.645
28092W        W99621  17.112  16.985  13.544
28093W        W99622   6.843  44.781   1.160
28094W        W99623  34.349  37.010  14.081
28095W        W99624   9.629   4.236  14.802
28096W        W99625   2.795  32.347  14.529
28097W        W99626  31.564   5.407  12.088
28098W        W99627   5.999  35.038   0.326
28099W        W99628  19.050  16.735   3.168
28100W        W99629   6.283  26.545  10.208
28101W        W99630  23.263  13.747   1.219
28102W        W99631  17.149  34.432  14.551
28103W        W99632   2.320  22.207  14.829
28104W        W99633  11.222  10.402   3.081
28105W        W99634  11.291  16.864  11.395
28106W        W99635  29.518   8.713  14.321
28107W        W99636  43.875   8.033   3.380
28108W        W99637  27.428  18.912  12.159
28109W        W99638  32.156  40.329  11.861
28110W        W99639  35.828   1.833  11.581
28111W        W99640  20.290  10.647  12.009
28112W        W99641  11.815   0.255  13.127
28113W        W99642  33.446  44.302   0.679
28114W        W99643  35.103  10.587   4.809
28115W        W99644   5.880  25.869  14.974
28116W        W99645  35.842  41.292  12.449
28117W        W99646   1.535   2.916   2.153
28118W        W99647   1.374  16.085   2.917
28119W        W99648  13.281  23.783  14.678
28120W        W99649   0.345   7.652   3.724
28121W        W99650  34.985  32.616   3.235
28122W        W99651  37.256  12.413   1.171
28123W        W99652  16.426  44.474   4.527
28124W        W99653  41.837  19.809   1.517
28125W        W99654  20.976  23.630   3.674
28126W        W99655  38.302  21.754   4.676
28127W        W99656  11.746   4.920  14.276
28128W        W99657  38.111  38.538   1.182
28129W        W99658  28.618  28.554   4.973
28130W        W99659   9.343   8.281   3.241
28131W        W99660  34.548  23.740   0.479
28132W        W99661  13.042  12.123   2.777
28133W        W99662  21.693   3.838  13.771
28134W        W99663  18.930  14.952   4.033
28135W        W99664   9.199  33.328   0.993
28136W        W99665  44.942  41.850  11.220
28137W        W99666  21.100  17.845   4.507
28138W        W99667  34.335  29.621   3.703
28139W        W99668   4.770  27.556   0.487
28140W        W99669   3.484   7.914  14.559
28141W        W99670  14.620  18.146   2.655
28142W        W99671  10.107   5.115  12.850
28143W        W99672   4.224  10.737   0.857
28144W        W99673  23.977  17.148  14.944
28145W        W99674  23.611  10.648   0.355
28146W        W99675  28.656  31.950  10.822
28147W        W99676  31.984   7.765   4.102
28148W        W99677  15.110  18.078   2.853
28149W        W99678  21.925  17.983  12.463
28150W        W99679  43.415  11.580  13.550
28151W        W99680  42.882  22.498  12.700
28152W        W99681  22.492  31.495  11.678
28153W        W99682  27.746   4.713   4.169
28154W        W99683   0.441  30.748  11.634
28155W        W99684  18.067  32.506  14.846
28156W        W99685  27.155  38.208  11.098
28157W        W99686  23.177  35.099   2.929
28158W        W99687  32.014   1.674   1.621
28159W        W99688  14.391  31.474  11.657
28160W        W99689  26.623  19.826   2.798
28161W        W99690  33.271  23.024  12.447
28162W        W99691   7.602  16.234  14.368
28163W        W99692  26.679  14.264   0.326
28164W        W99693  16.670  12.911   1.720
28165W        W99694  44.768  15.324  11.557
28166W        W99695  23.730  21.499   1.353
28167W        W99696  11.957  26.296   5.174
28168W        W99697  17.480  37.404   0.945
28169W        W99698   9.436  32.354   0.877
28170W        W99699  24.979  40.536   0.994
28171W        W99700  29.309   3.737   1.664
28172W        W99701  22.638  30.980   1.260
28173W        W99702  23.560  26.187   3.550
28174W        W99703   2.392  28.816  13.071
28175W        W99704  21.061  22.074   4.073
28176W        W99705  33.043  26.690   1.980
28177W        W99706  29.599  36.168  13.913
28178W        W99707  22.667  13.249  13.119
28179W        W99708  14.779   0.831   1.416
28180W        W99709  13.025  38.828  12.099
28181W        W99710  40.237  13.179  10.626
28182W        W99711  10.447  21.036   2.248
28183W        W99712  31.454  25.792   3.963
28184W        W99713   3.293  27.038  10.330
28185W        W99714  29.325  40.401  13.403
28186W        W99715  23.039  12.863   0.729
28187W        W99716  18.487  12.159  11.539
28188W        W99717  43.571   2.202  13.522
28189W        W99718  14.351  20.741   1.397
28190W        W99719  19.221  10.486   2.369
28191W        W99720  15.711  22.045  14.423
28192W        W99721  37.307   4.659  11.361
28193W        W99722  39.495  43.049  14.256
28194W        W99723  13.675  21.305   1.770
28195W        W99724  31.899  43.822  13.028
28196W        W99725  38.478  28.415  13.295
28197W        W99726  17.532  34.149  10.781
28198W        W99727   3.178  17.116  14.355
28199W        W99728  38.955   4.429   4.500
28200W        W99729  35.571   6.292   0.318
28201W        W99730   8.384  25.393  14.918
28202W        W99731   0.379   5.482   2.584
28203W        W99732   2.291  39.022  13.859
28204W        W99733   9.539   6.880   3.819
28205W        W99734  26.858  10.152  11.922
28206W        W99735  41.227  22.681  14.015
28207W        W99736  16.453   4.959   4.702
28208W        W99737  34.115  37.996  13.995
28209W        W99738   9.111  43.460  13.291
28210W        W99739  27.699  19.513   4.105
28211W        W99740  38.840  13.610   3.061
28212W        W99741  39.807  43.829  10.545
28213W        W99742  13.760  26.129   0.815
28214W        W99743   4.033  12.612   3.680
28215W        W99744   5.311   8.008  13.972
28216W        W99745  42.410  14.104   1.446
28217W        W99746  30.069  13.277   3.272
28218W        W99747  37.692  10.743  12.428
28219W        W99748  38.040  20.510  10.691
28220W        W99749  10.774  19.577  11.178
28221W        W99750  31.117  38.960   0.513
28222W        W99751   1.489  15.272  10.821
28223W        W99752  32.416   4.746   3.755
28224W        W99753  25.585   3.538  13.869
28225W        W99754  41.256  31.230   3.127
28226W        W99755  37.154  31.473  10.655
28227W        W99756  42.697  41.814   4.278
28228W        W99757  16.550   2.841  12.880
28229W        W99758  33.496  27.546   1.196
28230W        W99759  14.192   1.293  13.814
28231W        W99760  40.396  42.582   5.170
28232W        W99761  10.764  35.361  13.367
28233W        W99762  22.493  21.127   0.936
28234W        W99763  26.961  18.207  12.332
28235W        W99764  15.621  42.556  13.713
28236W        W99765  11.244  38.304  14.533
28237W        W99766   8.188  27.059   2.977
28238W        W99767  42.270  40.527  13.482
28239W        W99768  10.333  13.203   4.972
28240W        W99769  30.950  14.011   3.708
28241W        W99770   6.711  15.781   0.109
28242W        W99771  19.052   6.880  14.029
28243W        W99772  20.955  26.628   1.971
28244W        W99773  28.486  44.415   3.351
28245W        W99774  17.814  44.530  10.707
28246W        W99775   3.535  38.283   0.017
28247W        W99776   7.468   5.901  13.165
28248W        W99777  44.345  24.101   4.641
28249W        W99778  42.945  31.071   4.079
28250W        W99779   5.401  24.026   4.211
28251W        W99780  27.600  13.193   2.463
28252W        W99781  18.782  43.703   4.179
28253W        W99782  37.991  14.759   3.191
28254W        W99783   9.198  12.480  10.804
28255W        W99784   0.348   4.263   3.248
28256W        W99785  26.055  23.427  14.205
28257W        W99786  39.495  21.561   2.921
28258W        W99787  29.665  11.290  13.883
28259W        W99788  42.517   9.740   1.433
28260W        W99789   3.607  20.140   1.922
28261W        W99790   5.774  42.025  11.661
28262W        W99791  23.080  29.166  11.863
28263W        W99792  19.489  29.735   3.666
28264W        W99793  38.148  21.602   3.354
28265W        W99794   1.518  23.437  10.757
28266W        W99795  28.926  33.669   4.035
28267W        W99796  14.541  32.917  12.601
28268W        W99797  40.575  41.770   0.789
28269W        W99798  43.942   2.671   4.135
28270W        W99799   3.920  33.127   1.959
28271W        W99800  15.336  42.439  11.740
28272W        W99801  27.462   5.753  13.774
28273W        W99802  29.877  38.338   1.913
28274W        W99803  20.303  28.051  13.479
28275W        W99804  33.334  20.651  11.492
28276W        W99805  28.002  24.578  12.620
28277W        W99806   4.405  35.691   2.940
28278W        W99807  31.760   5.235   3.195
28279W        W99808  20.590  27.511  11.380
28280W        W99809  20.545  21.116   2.404
28281W        W99810  27.106   8.399  14.381
28282W        W99811  20.082  41.099   0.435
28283W        W99812  18.056  10.430   2.436
28284W        W99813  21.680  43.839  10.620
28285W        W99814  20.285  32.951  11.655
28286W        W99815   0.402  29.980   2.641
28287W        W99816   4.665   8.619  14.001
28288W        W99817   1.643  32.091  14.746
28289W        W99818   1.968  11.198   2.373
28290W        W99819  33.053   0.279   1.378
28291W        W99820   4.728  19.673  13.436
28292W        W99821  23.579  18.541   2.346
28293W        W99822  37.360  26.658   2.801
28294W        W99823   2.317  37.545   4.222
28295W        W99824  19.136  28.207   1.698
28296W        W99825  17.763  28.004   5.668
28297W        W99826  31.523  39.230   4.763
28298W        W99827  16.214  31.174  11.186
28299W        W99828   7.493  33.140   0.702
28300W        W99829  41.858  42.227   4.114
28301W        W99830  24.920  36.879  11.012
28302W        W99831  24.423   0.517  14.357
28303W        W99832  11.628   6.427   1.438
28304W        W99833  16.304  38.041   2.517
28305W        W99834  39.594  33.632  10.615
28306W        W99835   9.948  38.487   2.107
28307W        W99836   1.382  42.425   3.872
28308W        W99837  27.668  33.987   2.170
28309W        W99838  17.591  44.328  11.137
28310W        W99839   9.225  31.895  12.090
28311W        W99840  31.682  11.642  11.133
28312W        W99841  36.599  39.269   2.853
28313W        W99842  23.852  34.572   1.430
28314W        W99843  33.422  21.194   2.910
28315W        W99844  40.906  44.122   0.931
28316W        W99845  21.239  42.765  14.851
28317W        W99846  21.807  36.556   1.280
28318W        W99847  11.323  24.586   4.726
28319W        W99848  15.664  38.944   5.016
28320W        W99849  24.167   5.827   3.252
28321W        W99850  22.245  35.023  12.402
28322W        W99851  22.668  24.812   2.315
28323W        W99852  20.804  40.716  14.204
28324W        W99853  24.766   8.869   2.927
28325W        W99854   8.397  27.128  12.987
28326W        W99855   0.825  35.895   1.845
28327W        W99856  16.354  21.058   3.179
28328W        W99857  30.528  13.412   2.062
28329W        W99858   3.000  17.402   1.688
28330W        W99859  36.369  13.303   4.753
28331W        W99860  37.507  31.031  14.459
28332W        W99861  27.649  12.613   0.432
28333W        W99862  23.157   1.798  14.518
28334W        W99863  32.939  43.761  10.556
28335W        W99864   2.834  38.549   4.776
28336W        W99865  11.109  32.151  13.849
28337W        W99866  27.404   9.964  11.091
28338W        W99867  19.580   6.886   1.955
28339W        W99868  11.618  26.386  11.612
28340W        W99869  42.026  18.270   0.410
28341W        W99870  27.477  35.995   2.419
28342W        W99871   8.837   4.970  13.561
28343W        W99872  19.938  41.062   3.619
28344W        W99873  21.460  40.071  12.013
28345W        W99874  41.063  29.883  12.174
28346W        W99875  30.055   6.437  12.194
28347W        W99876  26.097  20.680  10.885
28348W        W99877  23.892  17.403  14.034
28349W        W99878  20.287  27.927   3.161
28350W        W99879   6.204  27.317  14.787
28351W        W99880  26.958  14.106  12.000
28352W        W99881  44.013  42.200   4.887
28353W        W99882   9.338  38.953   1.956
28354W        W99883  37.598  43.864   3.624
28355W        W99884  39.086  15.742  11.502
28356W        W99885  11.515   5.768   4.148
28357W        W99886  34.349  44.428  14.449
28358W        W99887  25.882  34.487  14.912
28359W        W99888  25.268  43.632  12.173
28360W        W99889  25.383  23.366  10.290
28361W        W99890  26.128  26.909   0.049
28362W        W99891   0.737  44.410   2.827
28363W        W99892  16.790  10.623  12.009
28364W        W99893  37.259  22.087   1.823
28365W        W99894   3.375  43.425  13.927
28366W        W99895   7.735   6.264   2.169
28367W        W99896  37.948  18.315  14.368
28368W        W99897  33.927   5.601  10.742
28369W        W99898  40.720  37.860   3.894
28370W        W99899   7.207   9.361   3.718
28371W        W99900  43.411  25.935   1.920
28372W        W99901  20.562  26.565  11.469
28373W        W99902  29.240   4.694  11.193
28374W        W99903  40.392   3.297  14.941
28375W        W99904  39.090  22.397   3.164
28376W        W99905  30.812  31.158   0.770
28377W        W99906  41.781  11.605   1.430
28378W        W99907   0.434  28.482   3.776
28379W        W99908   8.032   4.404   2.297
28380W        W99909  32.439  15.273  11.135
28381W        W99910  38.482   9.857  10.902
28382W        W99911   2.158  23.845  10.290
28383W        W99912  22.018  36.916  14.267
28384W        W99913  32.605   2.744  10.407
28385W        W99914  43.277  31.689  14.831
28386W        W99915  11.915  29.112  12.450
28387W        W99916  38.459  17.063   3.318
28388W        W99917   3.907  15.096  11.349
28389W        W99918   5.049  36.426   2.327
28390W        W99919  21.621  31.999  11.916
28391W        W99920  17.093  40.478   4.618
28392W        W99921  24.996  28.450  11.051
28393W        W99922  33.085  10.227  11.160
28394W        W99923  37.867   5.258   3.414
28395W        W99924  31.015  24.225   2.372
28396W        W99925  15.011   0.188  11.147
28397W        W99926  31.096  34.458  10.401
28398W        W99927  10.325  15.631   2.911
28399W        W99928  24.159  40.256   2.384
28400W        W99929  27.089  36.127  14.159
28401W        W99930  43.451  10.323  10.269
28402W        W99931  31.521  44.369   0.864
28403W        W99932  40.796  29.072  13.090
28404W        W99933  26.894  39.249   3.238
28405W        W99934   4.153   8.782   0.339
28406W        W99935  12.848  39.563  11.128
28407W        W99936  36.782  11.429   1.876
28408W        W99937  34.071  26.011   4.269
28409W        W99938  10.174  27.596   1.652
28410W        W99939  20.729  41.695  14.514
28411W        W99940  32.733  44.069  10.182
28412W        W99941  37.314   0.139  12.560
28413W        W99942  42.450  38.111   1.207
28414W        W99943   0.476  43.441  13.026
28415W        W99944   8.769  27.712  11.567
28416W        W99945  13.162   3.867   3.256
28417W        W99946  27.172  33.884   1.302
28418W        W99947  30.596  31.442   0.366
28419W        W99948   2.294   8.245  13.074
28420W        W99949  15.062  16.509  13.512
28421W        W99950  38.929  28.418  12.049
28422W        W99951  10.328  34.928  10.764
28423W        W99952  12.380  31.671  11.200
28424W        W99953   9.674  11.349  14.344
28425W        W99954  29.151  41.254  11.759
28426W        W99955  22.677  44.572  11.060
28427W        W99956  23.432  15.586  11.563
28428W        W99957   7.130   5.933   0.546
28429W        W99958   6.820  14.560   1.405
28430W        W99959  42.553   1.890   4.715
28431W        W99960  28.163  29.893   0.883
28432W        W99961  11.764  42.737  12.057
28433W        W99962  30.893  41.540   3.600
28434W        W99963  25.914  38.252   4.584
28435W        W99964  43.605   1.953   4.527
28436W        W99965  39.473   8.304   4.095
28437W        W99966  11.593   8.699  14.748
28438W        W99967  36.314   5.804  13.333
28439W        W99968  13.385  36.034  11.100
28440W        W99969   7.287   2.735  14.482
28441W        W99970  26.243   0.471   2.225
28442W        W99971   8.128  44.805   3.149
28443W        W99972   7.798  27.746  11.547
28444W        W99973  20.644   7.711   3.672
28445W        W99974  31.424  38.841  12.184
28446W        W99975  33.252  29.165  13.567
28447W        W99976   7.800   7.313  14.084
28448W        W99977   0.424  18.840  14.507
28449W        W99978  43.390   9.989   2.528
28450W        W99979  27.699  41.865   2.593
28451W        W99980   3.799   8.612   3.215
28452W        W99981  35.434  21.703  12.657
28453W        W99982  11.230  43.750   3.605
28454W        W99983  12.812  21.596  10.442
28455W        W99984  37.830  33.538   0.478
28456W        W99985  23.867  36.348  11.612
28457W        W99986  19.165  35.989  12.392
28458W        W99987   6.768  30.554   3.173
28459W        W99988   6.443  40.981   2.766
28460W        W99989  30.648  26.992   2.466
28461W        W99990  35.017  39.942  10.645
28462W        W99991   7.421  11.384  10.535
28463W        W99992  16.773   1.943  12.902
28464W        W99993  29.509  32.442   5.085
28465W        W99994  36.486   6.423   3.229
28466W        W99995  14.834  42.928  11.748
28467W        W99996  29.218  23.092  11.508
28468W        W99997  28.296  22.979   4.127
28469W        W99998  25.046  37.828  14.817
28470W        W99999  16.449  28.112  12.337
28471W        W    0   1.199  11.038   1.745
28472W        W    1  27.968  24.703  13.109
28473W        W    2  15.055  24.700   1.200
28474W        W    3  14.543  23.922  10.359
28475W        W    4  37.807  38.060  14.851
28476W        W    5  41.254  38.028   0.757
28477W        W    6  43.763  28.892  12.828
28478W        W    7  28.506  28.278  11.078
28479W        W    8  23.563  14.015  11.092
28480W        W    9   3.810  15.750   1.334
28481W        W   10   2.800   7.882  12.041
28482W        W   11  14.802  39.545   4.174
28483W        W   12  11.364  25.401  14.744
28484W        W   13  38.401  44.407  13.739
28485W        W   14  35.243   8.315   4.777
28486W        W   15  11.966  44.193   1.412
28487W        W   16  42.360  38.952  14.906
28488W        W   17   4.390  32.865   2.723
28489W        W   18  17.467  10.383  14.721
28490W        W   19  31.872  31.469  11.726
28491W        W   20  44.469  21.158  11.756
28492W        W   21  29.612   6.738  13.550
28493W        W   22   4.275   1.230  14.594
28494W        W   23  34.582  33.568   1.856
28495W        W   24  14.752   2.284  11.095
28496W        W   25  21.126   5.177  11.579
28497W        W   26  32.838  10.369  11.617
28498W        W   27   2.321  25.587   4.527
28499W        W   28  20.549   2.700  12.960
28500W        W   29  41.137   1.972   2.807
28501W        W   30   7.316  13.663   1.839
28502W        W   31  25.258   2.618  10.504
28503W        W   32  21.512   3.689   0.829
28504W        W   33  16.197   1.986   2.672
28505W        W   34  34.622  12.695   4.145
28506W        W   35  16.661   3.298  13.617
28507W        W   36   6.277  41.466  10.900
28508W        W   37  42.240  28.163  11.007
28509W        W   38  20.589  42.689  14.354
28510W        W   39  21.562  12.845  12.221
28511W        W   40  16.544   5.754   1.367
28512W        W   41  32.795  25.191   3.494
28513W        W   42  15.814  35.192  11.435
28514W        W   43  32.161  21.749   2.248
28515W        W   44  42.492  39.040  11.599
28516W        W   45  13.150   6.089   1.357
28517W        W   46  20.613   0.695   1.882
28518W        W   47  13.430  16.616  11.615
28519W        W   48  36.860  10.026   1.015
28520W        W   49  29.760  20.520   0.292
28521W        W   50  43.533  39.390  13.003
28522W        W   51   2.281  20.234  11.039
28523W        W   52  17.631  27.022  13.608
28524W        W   53   9.740  41.674   1.099
28525W        W   54   2.942  34.415   2.288
28526W        W   55  10.414  16.676   4.460
28527W        W   56  16.158  13.050   1.835
28528W        W   57   1.249  39.846  14.929
28529W        W   58  11.417   9.696   1.215
28530W        W   59  25.102  31.526   4.802
28531W        W   60  34.003  41.411  13.311
28532W        W   61  24.129   8.818   3.460
28533W        W   62  41.316  17.503   4.712
28534W        W   63   5.034  34.589  12.395
28535W        W   64  10.270   4.902   0.601
28536W        W   65  31.989  30.618   4.825
28537W        W   66  22.951  18.265  12.361
28538W        W   67  31.910  29.934   1.169
28539W        W   68  16.995  12.663   4.074
28540W        W   69  41.839  22.181   2.807
28541W        W   70  17.114   1.496  11.237
28542W        W   71  17.341  20.512  11.256
28543W        W   72  17.608  44.543   2.148
28544W        W   73  31.151  35.094  12.439
28545W        W   74  30.447  27.220  14.068
28546W        W   75  31.845  25.461   0.851
28547W        W   76   0.487  13.532   3.313
28548W        W   77  27.565  19.402  12.082
28549W        W   78  40.563  31.499   2.780
28550W        W   79   4.274  38.843   2.189
28551W        W   80  21.303  15.597   2.159
28552W        W   81   4.329  24.007  13.031
28553W        W   82  14.800   6.625   2.796
28554W        W   83  29.486  13.692  11.281
28555W        W   84  12.487   8.872  11.419
28556W        W   85  30.093   6.580  11.247
28557W        W   86  31.321   6.325   0.480
28558W        W   87  21.161  34.682   1.861
28559W        W   88   4.722   1.319   0.276
28560W        W   89  23.668   7.343   1.691
28561W        W   90  18.257  25.176  14.353
28562W        W   91  38.350  37.514  10.517
28563W        W   92  19.795   3.416  10.656
28564W        W   93  20.505  40.852  10.623
28565W        W   94  21.011  36.741  12.606
28566W        W   95  44.236  18.208  13.100
28567W        W   96  26.093  22.051  13.467
28568W        W   97  28.942  39.040   0.193
28569W        W   98  43.850  36.844  10.678
28570W        W   99  14.249   7.467  11.860
28571W        W  100   4.909  40.931   3.668
28572W        W  101   9.320  20.417   0.552
28573W        W  102  17.200  28.700   1.314
28574W        W  103   5.854  30.894   1.761
28575W        W  104   9.402  19.544   4.894
28576W        W  105   4.512  28.515   2.723
28577W        W  106  40.451  32.187  11.560
28578W        W  107  28.702  34.518  14.556
28579W        W  108   5.685  38.162  14.521
28580W        W  109  37.825  18.215  12.465
28581W        W  110   8.166   2.006   4.335
28582W        W  111   9.424  10.812   3.053
28583W        W  112  33.167  34.525   4.719
28584W        W  113  14.213  14.183   3.205
28585W        W  114  44.008  36.245  14.731
28586W        W  115   9.167  38.201  11.072
28587W        W  116   5.919  27.025  12.380
28588W        W  117  11.167  43.544  11.366
28589W        W  118   7.606  32.574   4.423
28590W        W  119  30.390   3.493  11.599
28591W        W  120  33.973   6.482   2.772
28592W        W  121  37.757  43.246  13.511
28593W        W  122  34.142  40.440  11.525
28594W        W  123  33.762  28.545   0.262
28595W        W  124  28.084   3.298  14.198
28596W        W  125  35.098  33.080  11.863
28597W        W  126  41.391  13.298   1.195
28598W        W  127  36.469  35.131   4.822
28599W        W  128  38.296  30.995  13.148
28600W        W  129  17.095  31.899  10.959
28601W        W  130  29.606   9.227  11.153
28602W        W  131  12.232  11.580  12.543
28603W        W  132   5.284  27.994   2.292
28604W        W  133  30.630  43.555  11.618
28605W        W  134  19.930  22.550  12.429
28606W        W  135   9.776  39.910   5.068
28607W        W  136  13.122  32.403   2.795
28608W        W  137  24.460   6.664   0.619
28609W        W  138  38.268  15.724  12.581
28610W        W  139   4.771  19.841   3.616
28611W        W  140  28.221   3.251  12.924
28612W        W  141  11.818  43.922  14.904
28613W        W  142  44.260   1.219  13.955
28614W        W  143  36.443  31.333   0.084
28615W        W  144   6.375  35.909   3.950
28616W        W  145  28.498   7.404   3.888
28617W        W  146  35.115  39.829   0.847
28618W        W  147  12.910  38.327   4.100
28619W        W  148  12.166  11.616   2.387
28620W        W  149  15.570   4.697  10.658
28621W        W  150   9.779  18.783  12.954
28622W        W  151   7.134   9.189   1.866
28623W        W  152  18.744  28.123  14.448
28624W        W  153   2.306  13.156   3.015
28625W        W  154  38.051  29.341   0.412
28626W        W  155   4.939  15.621   2.286
28627W        W  156  41.853  39.424   3.581
28628W        W  157  41.925  21.903  14.061
28629W        W  158  39.332  21.250  14.038
28630W        W  159  19.599  26.473  14.519
28631W        W  160  39.460  43.486  14.551
28632W        W  161   3.858  27.591   4.814
28633W        W  162   5.779  28.343   1.324
28634W        W  163  32.134  38.511  12.684
28635W        W  164  30.583  27.153   0.831
28636W        W  165  14.236   6.945   3.096
28637W        W  166  36.858   8.120   4.797
28638W        W  167  41.938   9.835  12.410
28639W        W  168  39.108  38.088   4.612
28640W        W  169  30.936  34.557   4.009
28641W        W  170  35.917  28.140  14.911
28642W        W  171  26.064  19.901  11.072
28643W        W  172   7.685  12.846  13.053
28644W        W  173  17.529  22.637  10.556
28645W        W  174  41.071  43.537   0.888
28646W        W  175   9.690  39.334  13.845
28647W        W  176  16.744   6.677  10.692
28648W        W  177  14.630  41.208   3.234
28649W        W  178  41.528  24.368   0.403
28650W        W  179  15.080   3.505   0.015
28651W        W  180  24.485  39.476   3.332
28652W        W  181  34.795  18.814   4.235
28653W        W  182  40.865   2.294  13.936
28654W        W  183  37.370  13.383  13.540
28655W        W  184  21.159  23.350   4.547
28656W        W  185  37.918   3.209   0.033
28657W        W  186  25.729  38.668  11.951
28658W        W  187  31.535   6.746   1.407
28659W        W  188  44.781   0.012   2.140
28660W        W  189   8.675   2.525   1.428
28661W        W  190  28.605  35.156   3.761
28662W        W  191  28.965  18.695   0.756
28663W        W  192  41.429  38.106   4.597
28664W        W  193  19.665  16.170   3.784
28665W        W  194  35.316  41.335  12.415
28666W        W  195  27.843  41.722   0.236
28667W        W  196  17.204  13.182  14.900
28668W        W  197  40.105  31.493   1.876
28669W        W  198  43.991  40.363  10.468
28670W        W  199  24.190   4.505   2.852
28671W        W  200   0.771   1.008   1.742
28672W        W  201  22.348  38.810   1.394
28673W        W  202   6.520   0.388  12.112
28674W        W  203  13.707  10.448   1.299
28675W        W  204   1.628   8.949  13.813
28676W        W  205  38.583   7.183  13.870
28677W        W  206  27.930  14.967   5.049
28678W        W  207   8.576  17.989   2.293
28679W        W  208  36.577  24.697   1.481
28680W        W  209  38.863  33.197   4.187
28681W        W  210  36.943   5.920   1.763
28682W        W  211  31.336   1.248  10.174
28683W        W  212  16.539  33.951   0.763
28684W        W  213  22.484  16.362   3.199
28685W        W  214   4.436   5.370   4.644
28686W        W  215  38.971  11.270   2.734
28687W        W  216  40.837  19.532   0.249
28688W        W  217  42.953  33.134   3.768
28689W        W  218  13.364  30.087   1.818
28690W        W  219  27.736  37.745   0.512
28691W        W  220  44.300  22.315  10.523
28692W        W  221  14.500  37.328   3.294
28693W        W  222  35.856   7.255  11.526
28694W        W  223   8.451  31.909  14.889
28695W        W  224   6.992  37.968  13.952
28696W        W  225  28.468  33.261   3.024
28697W        W  226  32.669  23.972   0.898
28698W        W  227  41.523  11.169   1.340
28699W        W  228   9.680  40.076   0.317
28700W        W  229  41.056  35.485  11.590
28701W        W  230  28.486   4.749   4.652
28702W        W  231  29.036  19.663  13.781
28703W        W  232  21.141  15.690   2.628
28704W        W  233  44.981  26.843  10.635
28705W        W  234   7.325  22.799   3.950
28706W        W  235  42.559  34.813  12.062
28707W        W  236  13.177  42.886   1.696
28708W        W  237  13.610  10.785  12.114
28709W        W  238  32.181  19.509  14.618
28710W        W  239  18.842   3.300   1.770
28711W        W  240  44.572  10.694   0.230
28712W        W  241  33.940   6.506  11.812
28713W        W  242  32.358   2.369  11.223
28714W        W  243  25.465   7.897  11.135
28715W        W  244  16.632  27.980   1.891
28716W        W  245  11.549  18.614   4.214
28717W        W  246  25.500  12.025  14.585
28718W        W  247  38.595  30.039  12.556
28719W        W  248   5.141  30.875  10.825
28720W        W  249  28.240  37.849   0.428
28721W        W  250   7.538  41.790   2.719
28722W        W  251  32.557   7.172  11.209
28723W        W  252   1.304  18.133   0.285
28724W        W  253  18.258  13.689   0.714
28725W        W  254  10.427  28.547   3.195
28726W        W  255  13.830  11.585  13.838
28727W        W  256  15.366  30.348   4.127
28728W        W  257  41.361  21.644  13.415
28729W        W  258  20.030  11.513  14.820
28730W        W  259  12.399  43.175  14.814
28731W        W  260  19.189  40.993   0.234
28732W        W  261  16.382  31.514  13.821
28733W        W  262  39.543  41.441  14.887
28734W        W  263  24.259  20.605  14.985
28735W        W  264  41.951  27.460  13.082
28736W        W  265  14.516  12.814  11.086
28737W        W  266  13.085   2.301  14.923
28738W        W  267   1.268  22.515  10.993
28739W        W  268  11.601  38.039  10.847
28740W        W  269  27.370  21.094   1.404
28741W        W  270  22.618   4.813  12.893
28742W        W  271  32.555   3.434   3.304
28743W        W  272  13.770  17.247  13.445
28744W        W  273  24.414  35.512  12.169
28745W        W  274  37.292  23.046  14.347
28746W        W  275  20.670  11.556   0.829
28747W        W  276  10.187   5.173  11.382
28748W        W  277   8.571  13.718  13.527
28749W        W  278   9.127  17.565   3.401
28750W        W  279   7.826  20.012  10.132
28751W        W  280  25.754  20.032  13.821
28752W        W  281  29.685  11.870  12.133
28753W        W  282   9.211  29.463   3.528
28754W        W  283  16.637  18.358   2.332
28755W        W  284  24.404   4.136  11.563
28756W        W  285  12.067   0.128  11.950
28757W        W  286   0.250   9.682   3.367
28758W        W  287  38.528  40.794   4.473
28759W        W  288   2.905  40.014  11.099
28760W        W  289  31.384  15.403   0.301
28761W        W  290  28.436  41.887  12.649
28762W        W  291  24.111  12.344   0.589
28763W        W  292  28.087  15.592   3.525
28764W        W  293  39.467   3.917  14.237
28765W        W  294  27.419  19.096  11.659
28766W        W  295   1.234  26.002  10.628
28767W        W  296  22.052  32.551   1.095
28768W        W  297   0.294   2.219   3.822
28769W        W  298  22.191  39.237   1.694
28770W        W  299  15.515  44.454   4.830
28771W        W  300  33.617  21.604  13.946
28772W        W  301  36.637  19.540  14.029
28773W        W  302   9.775  44.399   3.340
28774W        W  303   2.639  32.109   2.406
28775W        W  304  26.205  30.098   2.545
28776W        W  305  28.074  14.407  13.752
28777W        W  306   8.730  17.809   0.721
28778W        W  307  11.843  41.133   1.934
28779W        W  308  33.456  34.519   0.906
28780W        W  309   6.191   9.590  13.426
28781W        W  310  27.416  12.304   2.108
28782W        W  311  13.357  28.651  10.507
28783W        W  312  33.019  36.781   2.765
28784W        W  313   6.956   5.878  13.079
28785W        W  314  33.028   0.856   1.320
28786W        W  315  26.480  37.965   2.125
28787W        W  316  16.729  21.093   1.421
28788W        W  317  29.055  41.893   4.084
28789W        W  318   7.623  39.946   4.851
28790W        W  319  35.823  20.715  12.861
28791W        W  320  44.697  39.357   0.822
28792W        W  321  40.824  23.131   0.469
28793W        W  322  21.799  38.334  13.171
28794W        W  323  30.123  27.621   1.390
28795W        W  324  13.791  35.601   1.515
28796W        W  325  27.418   8.849   0.052
28797W        W  326  11.601  16.216  13.899
28798W        W  327  36.407  19.036   1.727
28799W        W  328  22.792  23.751  11.988
28800W        W  329  10.545  27.217   0.149
28801W        W  330  12.190   4.864   4.133
28802W        W  331   1.911  34.261  13.880
28803W        W  332   0.947  33.297   4.582
28804W        W  333  26.349  11.413   0.101
28805W        W  334  37.154  19.007  14.705
28806W        W  335   6.926  36.407  11.387
28807W        W  336  13.236  33.339  11.798
28808W        W  337   5.216   5.362  12.172
28809W        W  338  16.777   6.192   1.786
28810W        W  339  42.005   1.186  12.950
28811W        W  340  16.671  43.422  14.743
28812W        W  341  25.164  36.398  12.152
28813W        W  342  33.531  30.484  11.188
28814W        W  343  10.907   3.980   2.686
28815W        W  344  19.728  12.617   0.830
28816W        W  345  15.091  21.686  14.928
28817W        W  346  16.881   8.399  11.479
28818W        W  347  15.268  32.401  13.430
28819W        W  348  38.235  39.352   0.732
28820W        W  349  22.669  19.181  12.775
28821W        W  350  24.551  10.590  10.587
28822W        W  351  40.918   1.480   0.912
28823W        W  352   5.731  17.356  12.893
28824W        W  353   1.776  14.999  12.395
28825W        W  354  18.769   6.749  12.880
28826W        W  355   1.346  10.876   4.744
28827W        W  356  33.712  10.458   4.008
28828W        W  357   9.875  37.166  14.565
28829W        W  358  11.225  32.492  12.358
28830W        W  359  13.792  25.500  12.090
28831W        W  360  19.160   3.843  11.466
28832W        W  361  19.924  34.272   0.433
28833W        W  362   2.932  36.544  12.879
28834W        W  363  19.753  18.708  10.417
28835W        W  364   0.706   3.858  12.122
28836W        W  365   0.030  18.624   3.274
28837W        W  366  13.612  23.648  10.766
28838W        W  367   9.198  30.030   4.215
28839W        W  368  21.522  12.432  12.618
28840W        W  369   8.118   4.178  12.150
28841W        W  370  27.129  18.053   3.232
28842W        W  371  41.947   3.265  12.964
28843W        W  372  16.136  44.297  13.910
28844W        W  373  38.534   3.756   0.120
28845W        W  374  10.754  44.002   3.577
28846W        W  375   8.441  35.265   0.313
28847W        W  376  12.773  36.048  11.175
28848W        W  377  41.931  13.333   2.802
28849W        W  378  12.035  17.719  10.998
28850W        W  379  27.397   2.933   4.218
28851W        W  380  16.111  28.060  13.784
28852W        W  381  42.316  26.640   4.845
28853W        W  382  24.607   7.585  11.181
28854W        W  383   7.813  37.720  12.783
28855W        W  384  35.538  31.572  12.168
28856W        W  385  21.991  29.366   3.021
28857W        W  386  41.503  21.181   2.666
28858W        W  387  25.196  32.320  10.709
28859W        W  388  25.048   5.173  14.820
28860W        W  389  43.990  18.285  14.641
28861W        W  390  20.105  44.516   5.338
28862W        W  391   5.155  28.516  13.388
28863W        W  392  20.715  24.545   2.400
28864W        W  393  19.173   2.893  10.739
28865W        W  394  43.436  42.435  13.718
28866W        W  395  11.197  39.755   4.441
28867W        W  396  18.035  40.289  10.431
28868W        W  397  31.705  41.759  11.116
28869W        W  398   1.919  25.626  11.927
28870W        W  399   6.790  29.722  14.891
28871W        W  400  22.588   7.545   2.275
28872W        W  401   7.507  29.094   0.253
28873W        W  402  33.387  38.643   3.607
28874W        W  403   6.418  20.654   4.768
28875W        W  404  29.658  37.432  12.022
28876W        W  405   5.705  31.571   1.315
28877W        W  406   2.724  41.022   1.377
28878W        W  407  44.941   1.717  14.786
28879W        W  408  39.346  38.085  11.145
28880W        W  409  27.233  41.074   0.664
28881W        W  410  22.288  25.661   4.065
28882W        W  411  20.337  38.509   1.679
28883W        W  412   6.818   4.730   0.647
28884W        W  413  31.934  43.761  10.455
28885W        W  414  21.158  33.773   4.659
28886W        W  415  33.553  20.202  11.629
28887W        W  416   6.543  19.621  12.621
28888W        W  417   6.356  23.973  12.440
28889W        W  418   4.853  12.336   1.747
28890W        W  419  35.438  24.619   3.169
28891W        W  420  42.036  13.605  10.730
28892W        W  421   1.761  24.710   1.622
28893W        W  422   6.886  11.016  11.628
28894W        W  423  17.177  20.687   2.161
28895W        W  424  35.330  43.068  11.973
28896W        W  425  16.624  25.474  12.021
28897W        W  426   0.449  41.316   2.780
28898W        W  427  18.802   0.280   1.414
28899W        W  428  13.355  44.756  13.827
28900W        W  429  21.668  30.039   0.124
28901W        W  430  42.812  27.274   0.181
28902W        W  431  16.899  15.174  13.789
28903W        W  432  20.114  10.323   3.294
28904W        W  433  44.285  36.799   1.805
28905W        W  434  30.600  38.117  12.051
28906W        W  435  29.799   0.694  11.160
28907W        W  436  36.051   1.060  11.125
28908W        W  437  28.502  10.643  11.656
28909W        W  438  20.356  32.106   4.620
28910W        W  439  32.547   7.288  14.369
28911W        W  440  19.310  13.249   2.179
28912W        W  441  42.940  14.052  10.781
28913W        W  442   4.167  17.670   3.314
28914W        W  443   9.292   9.670  13.008
28915W        W  444  18.278   7.900   3.384
28916W        W  445  30.329  24.958   2.154
28917W        W  446   2.804  15.656   1.432
28918W        W  447  24.826  11.361   3.717
28919W        W  448   7.868   9.251   2.361
28920W        W  449  37.883  30.643   1.711
28921W        W  450  25.937  29.885  13.570
28922W        W  451  34.797  31.391   3.983
28923W        W  452  35.779  17.793   1.004
28924W        W  453  17.331  26.604   4.158
28925W        W  454  22.285   7.589   1.847
28926W        W  455  13.190  22.006   0.972
28927W        W  456  33.106  28.936  12.937
28928W        W  457  41.362  37.261  11.543
28929W        W  458  13.698  33.068   4.081
28930W        W  459  42.953  41.099   0.884
28931W        W  460  35.010  26.612   0.903
28932W        W  461  34.857   0.242  10.748
28933W        W  462  33.359  31.924  14.413
28934W        W  463  25.262  29.387   5.058
28935W        W  464  39.334  15.728   2.493
28936W        W  465   8.319  41.490  12.547
28937W        W  466  25.657   1.764   4.551
28938W        W  467  16.351   7.431   4.973
28939W        W  468  24.026  20.286  13.110
28940W        W  469   4.791  13.250   4.559
28941W        W  470   9.780  21.161  12.470
28942W        W  471  36.172  20.982   1.449
28943W        W  472   1.071  29.969  13.142
28944W        W  473   5.707   9.248   3.882
28945W        W  474  27.999  22.443   1.915
28946W        W  475  21.624  31.356   0.775
28947W        W  476   5.144  37.352   3.086
28948W        W  477  32.839   2.854   0.394
28949W        W  478  39.319   7.896  14.293
28950W        W  479   3.383  19.455   3.187
28951W        W  480   6.200  38.476   1.396
28952W        W  481  34.994  37.883   1.765
28953W        W  482  27.174  33.214  14.977
28954W        W  483  22.671  22.181   0.815
28955W        W  484  27.959  27.389   0.008
28956W        W  485  40.076  27.286  14.902
28957W        W  486  44.945  33.052   2.722
28958W        W  487  19.754   5.724  14.364
28959W        W  488  36.090  20.731   3.106
28960W        W  489  31.949   5.622   2.832
28961W        W  490  37.476   2.966   0.959
28962W        W  491   9.244  19.600  13.375
28963W        W  492  38.553  20.129   0.306
28964W        W  493   1.737  40.077  14.840
28965W        W  494  34.885   4.511   4.333
28966W        W  495  37.954   4.859   2.620
28967W        W  496  35.016  14.524   1.740
28968W        W  497  39.395  12.184  11.139
28969W        W  498   7.780  40.262   1.268
28970W        W  499  27.233  36.056   0.921
28971W        W  500  41.963  21.010   4.109
28972W        W  501  18.699  26.512  11.064
28973W        W  502  18.681   6.317  14.778
28974W        W  503  13.539  20.123  14.944
28975W        W  504  36.637  27.435  13.567
28976W        W  505  38.028  22.178   4.519
28977W        W  506  11.838  30.178   2.437
28978W        W  507  31.019  40.575   4.920
28979W        W  508  34.915  40.568  11.974
28980W        W  509  28.968  34.064  14.808
28981W        W  510   6.333  12.624  14.397
28982W        W  511  26.190  23.917  13.965
28983W        W  512  24.970  23.636  13.464
28984W        W  513  37.298  28.233   1.773
28985W        W  514  39.426   5.428   1.390
28986W        W  515   7.119   5.777  14.488
28987W        W  516  18.400  18.001  11.477
28988W        W  517  37.864  10.232  13.577
28989W        W  518  35.027  33.928  12.948
28990W        W  519  34.326  13.963   3.771
28991W        W  520  31.073  13.655  12.565
28992W        W  521  16.353  30.911   1.713
28993W        W  522  35.588  28.984  12.143
28994W        W  523  20.620   4.341  11.861
28995W        W  524  38.095  40.051   2.029
28996W        W  525  11.104  42.270   4.255
28997W        W  526  26.350  24.810  11.529
28998W        W  527  23.854  29.207  14.329
28999W        W  528  22.125  31.955  14.279
29000W        W  529  30.197  26.693  11.590
29001W        W  530  25.010  22.796   3.714
29002W        W  531  37.523   3.033  14.530
29003W        W  532  25.957  44.713  13.866
29004W        W  533  17.189  42.849  14.475
29005W        W  534  34.435   0.974   0.500
29006W        W  535  14.096   5.470   4.516
29007W        W  536   7.883   5.684  12.100
29008W        W  537  41.078  37.913  14.336
29009W        W  538  42.677  25.094   0.851
29010W        W  539   2.263  10.622  14.544
29011W        W  540  43.029  31.427   3.690
29012W        W  541  35.509   0.986   3.413
29013W        W  542  14.298   4.470   4.547
29014W        W  543  36.658   8.775   3.706
29015W        W  544  34.345  19.700   3.678
29016W        W  545   5.462  10.627   3.749
29017W        W  546  27.628  23.502   2.371
29018W        W  547  41.353  19.921  14.421
29019W        W  548  35.483  23.945   0.203
29020W        W  549  32.389  42.320   0.823
29021W        W  550   0.020   4.280   1.967
29022W        W  551  32.070  34.571   1.672
29023W        W  552  34.359  29.863   2.296
29024W        W  553   3.685   4.546   0.753
29025W        W  554   8.269  33.611  14.019
29026W        W  555  40.772  34.315  13.951
29027W        W  556  26.216  25.690  13.895
29028W        W  557  43.063  19.498  13.271
29029W        W  558  11.346  41.966  14.881
29030W        W  559  35.863  24.693   4.386
29031W        W  560  10.552  33.665   3.300
29032W        W  561  27.134  19.196   4.884
29033W        W  562  20.138  19.473   1.319
29034W        W  563  11.224  36.612  13.430
29035W        W  564  40.957  21.154  13.172
29036W        W  565  32.410  41.382  13.524
29037W        W  566  17.490   6.716  10.956
29038W        W  567  17.455  25.229  13.526
29039W        W  568   7.144  40.402   3.579
29040W        W  569  17.190  26.627  13.104
29041W        W  570  33.495  13.414   1.447
29042W        W  571  44.829  37.542   1.412
29043W        W  572  31.136  22.335  12.423
29044W        W  573  19.510  25.668  11.424
29045W        W  574  24.462  17.979  13.004
29046W        W  575   8.625  10.997   3.114
29047W        W  576   7.104  38.371  12.059
29048W        W  577  23.441  25.317   1.235
29049W        W  578   8.810  37.599  13.030
29050W        W  579  35.107  10.821  10.588
29051W        W  580   6.911   1.496  10.528
29052W        W  581  38.310  23.112   0.388
29053W        W  582   6.441  24.386   3.548
29054W        W  583  24.098  42.882  14.279
29055W        W  584  11.993  28.430   0.168
29056W        W  585  19.200  40.553   4.635
29057W        W  586  35.423  13.145  14.861
29058W        W  587  33.151  42.246   0.738
29059W        W  588  44.259  43.808   1.419
29060W        W  589   4.276  36.993   1.457
29061W        W  590   3.197  20.329   1.006
29062W        W  591  39.473  17.746   1.847
29063W        W  592  31.902  32.430  13.308
29064W        W  593  20.161  37.441   1.740
29065W        W  594   6.158  11.826   1.294
29066W        W  595  20.326  34.256  10.359
29067W        W  596  41.969  43.092  10.187
29068W        W  597   3.227  17.277  12.678
29069W        W  598   8.362  14.237  10.605
29070W        W  599  20.725  13.332   4.613
29071W        W  600  38.475   3.484   2.792
29072W        W  601  16.853  21.850  11.805
29073W        W  602  41.963   0.730   2.863
29074W        W  603   8.831   3.718  10.954
29075W        W  604  41.468  18.555   4.533
29076W        W  605  24.451  20.292  13.428
29077W        W  606  37.052  38.866   4.102
29078W        W  607  35.345  32.549  14.316
29079W        W  608   6.956  38.307   3.221
29080W        W  609  17.237   8.368  14.875
29081W        W  610  17.300   9.879  14.831
29082W        W  611  28.056  12.116  14.859
29083W        W  612  18.671  27.259  14.918
29084W        W  613  34.891  15.683   3.887
29085W        W  614  33.978  25.385   0.891
29086W        W  615  31.045  38.380  13.334
29087W        W  616   6.488  35.422   0.860
29088W        W  617   6.588  19.730  10.728
29089W        W  618  19.172  36.931  12.899
29090W        W  619  37.876  31.400  12.363
29091W        W  620   9.862  13.281   4.585
29092W        W  621   4.790  14.641   4.039
29093W        W  622   6.137  19.269  13.970
29094W        W  623  30.353  33.148   1.852
29095W        W  624  23.021   1.173  11.981
29096W        W  625  39.873   1.076   1.694
29097W        W  626   3.809  17.443  12.977
29098W        W  627  43.314  22.508   2.909
29099W        W  628  12.329  17.306  14.324
29100W        W  629  35.754  38.322  11.073
29101W        W  630   0.694  10.998   2.415
29102W        W  631  34.434   6.215   2.947
29103W        W  632  10.645   0.733   0.528
29104W        W  633  31.682  14.726  14.245
29105W        W  634  32.538  24.206  12.358
29106W        W  635  16.310   8.234  13.453
29107W        W  636  15.165  11.888  14.311
29108W        W  637   8.350  18.602  14.455
29109W        W  638   3.375  39.054  14.833
29110W        W  639  40.227  22.222  10.789
29111W        W  640  33.085  30.121   3.523
29112W        W  641  22.249  26.624   3.660
29113W        W  642  43.787  17.885  14.882
29114W        W  643  17.252  17.736   2.909
29115W        W  644  16.234   1.237   3.252
29116W        W  645  31.326  35.978   1.876
29117W        W  646   5.573   3.411  13.502
29118W        W  647  24.400   8.274  12.467
29119W        W  648  44.782  15.962   4.236
29120W        W  649  38.988  19.293  14.315
29121W        W  650  10.106  24.842   1.184
29122W        W  651   3.002  19.198  11.690
29123W        W  652   9.273  21.074   3.804
29124W        W  653   1.471  31.195   4.587
29125W        W  654   2.669  44.923   2.016
29126W        W  655  29.795  16.084   4.054
29127W        W  656   5.292  18.112  11.239
29128W        W  657  36.593  40.253   3.789
29129W        W  658  37.263  43.421   1.410
29130W        W  659  42.788  41.285  11.574
29131W        W  660  16.584  29.867  11.661
29132W        W  661  30.617  15.341   3.651
29133W        W  662  35.937  31.900   2.296
29134W        W  663  41.084  19.041   0.354
29135W        W  664  34.336   5.204  11.648
29136W        W  665   4.396  19.116  11.894
29137W        W  666  28.737  12.676  12.534
29138W        W  667  13.166   3.754  10.739
29139W        W  668   8.258  37.805  12.372
29140W        W  669  24.656   7.789  12.646
29141W        W  670  25.140  17.147   1.027
29142W        W  671  23.107  28.132   3.463
29143W        W  672   2.624  15.953  11.109
29144W        W  673  44.524  44.122   1.050
29145W        W  674   2.475  39.465  11.881
29146W        W  675   6.403   6.834   3.918
29147W        W  676  28.632  18.077   2.219
29148W        W  677  24.646  18.124   1.207
29149W        W  678  31.121  38.064  12.099
29150W        W  679  29.092   6.945   0.127
29151W        W  680  18.286  14.207  10.877
29152W        W  681  44.441  41.430   1.497
29153W        W  682  19.706   3.379   0.361
29154W        W  683  25.014  29.053   2.647
29155W        W  684  28.348  37.054  10.465
29156W        W  685  20.734  29.467  13.405
29157W        W  686   6.055   1.806  10.696
29158W        W  687  33.126  26.413  14.367
29159W        W  688  35.019  27.610   2.884
29160W        W  689  30.613  23.963  13.083
29161W        W  690  31.688  42.525  12.102
29162W        W  691  37.408  29.737   4.826
29163W        W  692  39.349  37.472  12.931
29164W        W  693  39.614  39.422  11.413
29165W        W  694   6.710  30.107   3.857
29166W        W  695  32.364  13.396   0.763
29167W        W  696  33.917  28.412  14.767
29168W        W  697  44.448  25.450   3.855
29169W        W  698  18.313   6.280  12.465
29170W        W  699  29.912  29.661   3.053
29171W        W  700  25.919  20.012   4.137
29172W        W  701  19.254  11.246  13.382
29173W        W  702  20.967  44.884  10.351
29174W        W  703  35.688  28.546   0.382
29175W        W  704  43.390  12.692   4.559
29176W        W  705  31.437  18.019   3.182
29177W        W  706  21.056   8.138  13.890
29178W        W  707  44.027   4.049   4.232
29179W        W  708   1.214  21.412  14.906
29180W        W  709  12.840  28.499   3.295
29181W        W  710  39.505  16.587   1.846
29182W        W  711  21.121  13.182   0.541
29183W        W  712  32.007  13.269   0.412
29184W        W  713  35.486   8.889  13.938
29185W        W  714  40.558  42.577   3.606
29186W        W  715  14.145  26.495   0.756
29187W        W  716  12.625  39.528  13.018
29188W        W  717  25.688   6.864  11.198
29189W        W  718  20.675  29.115   2.329
29190W        W  719  25.667  43.849  12.419
29191W        W  720  16.691  26.904   0.348
29192W        W  721  44.835   0.256  10.676
29193W        W  722  29.837  30.876  12.592
29194W        W  723  23.167  39.803  14.910
29195W        W  724  19.760  24.036  13.305
29196W        W  725   2.884  31.926  11.966
29197W        W  726  42.863  32.558  11.606
29198W        W  727  37.610  38.022  10.916
29199W        W  728   9.639  28.724  10.703
29200W        W  729   8.585  10.287   0.489
29201W        W  730  25.498  11.340   4.340
29202W        W  731  41.522  25.454   3.807
29203W        W  732  22.578  32.171  14.345
29204W        W  733  29.904  40.057   3.260
29205W        W  734  22.940  22.205   1.878
29206W        W  735  17.128  44.035   1.498
29207W        W  736  26.905   3.010   4.124
29208W        W  737  36.084   4.943  13.874
29209W        W  738  36.509   9.149   3.120
29210W        W  739  28.393   8.892   0.995
29211W        W  740   6.360  34.511  14.094
29212W        W  741  12.153  40.668   0.772
29213W        W  742  25.212  34.737   3.661
29214W        W  743  42.867  11.402   0.315
29215W        W  744   6.614  25.871   2.728
29216W        W  745  14.144  26.166  13.539
29217W        W  746  22.640  39.271  14.495
29218W        W  747   8.842   2.956  13.361
29219W        W  748  32.968  37.668  11.129
29220W        W  749  15.220  30.248   1.282
29221W        W  750  43.978  13.638  14.925
29222W        W  751   5.476  12.965  12.617
29223W        W  752   3.549  14.540   0.474
29224W        W  753   5.709  41.467   2.931
29225W        W  754  13.699  14.171  10.676
29226W        W  755  17.202  15.559  11.158
29227W        W  756  40.198   2.427   4.925
29228W        W  757  42.761  20.682   2.216
29229W        W  758  28.475  12.378  11.159
29230W        W  759  22.285  42.449   4.901
29231W        W  760  13.080  15.950   4.203
29232W        W  761  11.111  15.229   1.355
29233W        W  762  33.647  43.985   2.292
29234W        W  763   0.215   8.761   2.888
29235W        W  764  32.844  18.142   0.068
29236W        W  765  26.498   3.431   1.614
29237W        W  766   5.324  16.234   4.306
29238W        W  767  44.782  20.289   1.683
29239W        W  768   3.806   8.829   2.760
29240W        W  769  30.682   8.686   3.106
29241W        W  770   0.044   9.423  14.222
29242W        W  771  11.724  22.354   1.494
29243W        W  772  14.208   2.363   2.680
29244W        W  773  21.657  25.028   0.851
29245W        W  774  22.158  32.465  14.425
29246W        W  775  10.295  12.929  10.363
29247W        W  776  22.631  28.238   5.009
29248W        W  777  22.243  13.200   0.947
29249W        W  778  17.182  36.009   1.986
29250W        W  779   0.888   4.251   2.318
29251W        W  780  29.919  30.822   4.731
29252W        W  781  39.507   2.066   1.668
29253W        W  782  10.778   6.174  11.026
29254W        W  783  32.537  25.960  13.906
29255W        W  784   1.050  19.613   1.031
29256W        W  785  17.135   3.362  13.316
29257W        W  786   6.585   3.625   1.489
29258W        W  787  25.011  24.025  10.688
29259W        W  788  10.775  39.776   2.812
29260W        W  789  37.915  34.772  11.926
29261W        W  790   8.418   1.502  12.383
29262W        W  791   6.402  16.212   0.797
29263W        W  792   8.142  19.496   1.452
29264W        W  793  27.465  36.433   1.202
29265W        W  794  30.413  22.457   3.263
29266W        W  795   5.838  32.693  14.806
29267W        W  796  17.875  26.525   0.683
29268W        W  797  24.235  20.651   4.825
29269W        W  798  24.365  16.483   0.933
29270W        W  799  37.245  29.455   3.880
29271W        W  800   0.445   6.193  12.225
29272W        W  801  35.076  13.433   3.219
29273W        W  802  25.557  17.140  10.810
29274W        W  803  28.148  31.718  13.004
29275W        W  804  26.547  33.001   1.251
29276W        W  805  29.004  43.822   1.465
29277W        W  806  18.622  30.736  10.863
29278W        W  807  44.823  35.220  12.936
29279W        W  808  28.980  19.960   4.071
29280W        W  809   8.711  17.523   3.720
29281W        W  810  35.410  41.719   2.335
29282W        W  811  14.763  23.606   0.868
29283W        W  812  23.819  21.193  10.192
29284W        W  813  12.883  14.109  14.059
29285W        W  814   8.164   5.382  12.968
29286W        W  815  16.674   4.286   1.692
29287W        W  816  22.355  33.571   0.941
29288W        W  817  26.691  11.668   3.141
29289W        W  818   7.325  31.911  11.044
29290W        W  819   2.476  16.987  12.143
29291W        W  820  30.435  18.751  11.060
29292W        W  821  40.783  39.191  11.119
29293W        W  822  28.257  19.300  14.512
29294W        W  823  41.030  37.781  13.830
29295W        W  824  34.694  28.140  11.632
29296W        W  825   6.416  29.569   2.274
29297W        W  826   6.840   6.277  11.623
29298W        W  827  44.297  38.862   2.584
29299W        W  828  38.355  32.061  13.949
29300W        W  829  10.685  23.033  12.597
29301W        W  830  25.524  26.023  13.439
29302W        W  831  34.409  24.755  12.576
29303W        W  832  31.930  17.770   0.954
29304W        W  833  10.277  39.228   3.291
29305W        W  834  44.690  14.126   2.591
29306W        W  835  17.511  34.036  12.856
29307W        W  836  41.557  21.364   4.011
29308W        W  837  37.261  11.250   4.621
29309W        W  838   5.245  19.139   9.244
29310W        W  839  34.866  13.058   1.932
29311W        W  840  26.665  44.715  13.507
29312W        W  841   3.810  42.990  10.812
29313W        W  842   2.350  38.955   3.723
29314W        W  843  15.825   0.839   1.315
29315W        W  844   7.851   1.411   0.460
29316W        W  845  27.440   4.046   5.027
29317W        W  846  28.696  21.728  10.761
29318W        W  847  33.982  13.119   0.049
29319W        W  848  40.852  19.764  14.332
29320W        W  849  31.876  14.326   0.410
29321W        W  850   9.276  23.616   1.172
29322W        W  851  19.190   1.825   1.685
29323W        W  852  34.447  28.987   0.330
29324W        W  853   7.833  26.708  11.801
29325W        W  854  37.692   5.489  11.844
29326W        W  855  18.034  12.649  12.098
29327W        W  856  42.159  12.494  13.816
29328W        W  857  41.611  41.170   0.925
29329W        W  858   9.605  26.947  10.808
29330W        W  859  43.713   5.290  12.306
29331W        W  860  16.240  43.250  13.828
29332W        W  861   5.872  30.627   2.759
29333W        W  862  17.585  15.315   0.366
29334W        W  863  36.876  42.982   0.306
29335W        W  864  15.985  16.118   2.374
29336W        W  865  18.044   9.091  11.881
29337W        W  866  35.275   0.227   3.759
29338W        W  867  22.227  16.051   2.307
29339W        W  868   1.165  37.130   1.718
29340W        W  869  44.332  24.664  10.720
29341W        W  870  39.826  40.329   2.808
29342W        W  871  14.255  15.370   2.972
29343W        W  872  34.898  12.945  14.921
29344W        W  873   6.781  37.126   3.805
29345W        W  874  12.281  28.609   1.765
29346W        W  875  13.329   5.653  12.451
29347W        W  876   8.323  14.868  11.961
29348W        W  877  12.298  33.434   3.438
29349W        W  878  21.313  23.129  12.660
29350W        W  879  14.867  41.265  12.123
29351W        W  880   8.663  33.931  13.294
29352W        W  881  40.484  12.973  12.703
29353W        W  882  37.922  29.934   4.630
29354W        W  883  11.364  30.392  14.332
29355W        W  884  27.963  26.044  13.060
29356W        W  885  35.454  28.478  14.420
29357W        W  886  10.007  21.641   3.324
29358W        W  887  25.491   3.524   3.663
29359W        W  888  37.573   1.818   0.735
29360W        W  889   8.049   6.106   0.866
29361W        W  890  18.988  37.590   0.868
29362W        W  891  32.942  27.049   1.621
29363W        W  892   2.889  24.994   0.913
29364W        W  893  12.582   5.345  12.915
29365W        W  894  42.337  23.108   3.362
29366W        W  895  36.526  30.063   4.786
29367W        W  896  22.169  20.765  12.990
29368W        W  897  43.827   4.490  13.739
29369W        W  898  17.853  42.806  10.537
29370W        W  899  41.616  43.386   4.133
29371W        W  900  27.193  34.162   2.274
29372W        W  901  12.611  40.438  13.467
29373W        W  902   9.175  29.531   0.791
29374W        W  903  17.978  24.750   3.370
29375W        W  904  14.444  43.057   3.585
29376W        W  905   8.708   5.918  11.163
29377W        W  906  22.181  38.945   4.417
29378W        W  907  42.002  23.085   3.801
29379W        W  908  20.579   1.667  12.045
29380W        W  909  17.269   1.911   3.748
29381W        W  910  13.533   8.701  13.432
29382W        W  911  44.542  18.671   0.589
29383W        W  912   1.879  41.315   0.347
29384W        W  913  34.991  43.918   3.824
29385W        W  914  10.835   2.572   5.058
29386W        W  915  30.563   9.175  12.351
29387W        W  916  31.434  11.483  12.038
29388W        W  917  41.891  14.073   4.528
29389W        W  918   8.434  38.336  12.493
29390W        W  919  33.535  38.842   1.368
29391W        W  920  38.822  15.700  10.997
29392W        W  921  18.244  23.570  13.902
29393W        W  922   0.509  17.643   0.387
29394W        W  923  35.015  23.765  13.460
29395W        W  924  19.383  11.168   1.870
29396W        W  925  12.098   6.188   1.415
29397W        W  926   2.800  34.992   4.086
29398W        W  927  29.482   3.488  14.361
29399W        W  928  27.674  29.614  13.525
29400W        W  929   2.135  11.042   3.761
29401W        W  930   9.236   2.450  13.802
29402W        W  931  36.733  34.087  12.079
29403W        W  932  41.283  36.745   2.749
29404W        W  933  14.133  23.205   4.186
29405W        W  934  14.309  26.996   0.622
29406W        W  935  27.993   5.218  10.872
29407W        W  936  20.717  42.431  12.202
29408W        W  937  16.344  33.464   2.405
29409W        W  938  10.388  40.147  10.361
29410W        W  939  40.169   4.404   2.389
29411W        W  940  12.397  12.799   3.993
29412W        W  941   0.204  24.933  11.515
29413W        W  942  34.808  29.536   4.585
29414W        W  943   4.186  29.510  13.131
29415W        W  944  30.913  10.838   4.159
29416W        W  945  26.431  40.559  13.117
29417W        W  946   8.487  30.051   2.817
29418W        W  947  44.472  30.356  14.997
29419W        W  948  34.129  31.640  11.148
29420W        W  949  41.781  34.442   1.811
29421W        W  950  44.206  24.708  11.343
29422W        W  951  13.893  13.208   3.171
29423W        W  952  43.088   7.867   3.648
29424W        W  953  33.477  22.905   0.691
29425W        W  954  18.058  33.334   0.232
29426W        W  955  43.306   5.853  11.196
29427W        W  956  13.370  38.576   3.623
29428W        W  957  32.673  21.681   2.415
29429W        W  958   6.202  41.434   2.804
29430W        W  959  10.212  26.223   1.759
29431W        W  960  24.519  18.008   4.617
29432W        W  961  15.089   3.967   2.818
29433W        W  962  30.552  40.084  12.503
29434W        W  963   7.356   3.935  13.783
29435W        W  964  10.058  22.036  14.505
29436W        W  965  31.653   8.180   1.610
29437W        W  966  41.525  24.240   2.664
29438W        W  967   6.872  21.274  11.187
29439W        W  968  20.817  15.282  13.840
29440W        W  969  16.204  19.528  14.406
29441W        W  970  42.878  23.668   2.820
29442W        W  971   7.163  20.562   2.708
29443W        W  972  15.961   6.159  14.822
29444W        W  973   8.605  29.245   3.897
29445W        W  974  37.607  23.898   2.182
29446W        W  975  41.434  38.081  13.069
29447W        W  976  16.069  27.597   3.573
29448W        W  977  31.614   4.819   2.868
29449W        W  978  17.731   9.602   2.678
29450W        W  979  18.153  30.391   4.919
29451W        W  980  17.834  19.774   1.370
29452W        W  981  34.403  27.384  13.876
29453W        W  982   2.066  23.945  14.207
29454W        W  983  24.762  19.687  11.145
29455W        W  984  37.354  17.759   4.596
29456W        W  985  43.780   3.302  11.459
29457W        W  986   0.472  39.397   1.647
29458W        W  987   7.887  28.501   1.986
29459W        W  988  30.767  32.251   3.288
29460W        W  989   2.495  13.616  12.970
29461W        W  990  14.906  30.062   3.333
29462W        W  991   7.084  43.730  14.397
29463W        W  992  10.531   7.016  14.030
29464W        W  993  29.153  27.223  14.844
29465W        W  994  14.309  10.434   0.468
29466W        W  995  24.952   9.637  11.486
29467W        W  996  26.835  23.091   4.207
29468W        W  997   2.297  14.158  10.310
29469W        W  998  39.226  42.225   2.332
29470W        W  999  41.658  21.014   9.640
29471W        W 1000   1.493  22.274  11.571
29472W        W 1001  39.141  39.181   1.010
29473W        W 1002  38.924  23.494   2.332
29474W        W 1003   1.007  11.217  12.970
29475W        W 1004  26.118   5.682  12.833
29476W        W 1005  41.919   8.877  14.008
29477W        W 1006   7.765   7.243  10.726
29478W        W 1007   3.722  32.104  10.296
29479W        W 1008   8.628  20.535   0.195
29480W        W 1009  10.443  26.038   2.203
29481W        W 1010   7.079  22.265  11.426
29482W        W 1011   0.563  10.612   0.354
29483W        W 1012  27.382  38.536  13.079
29484W        W 1013  35.386  44.469  13.260
29485W        W 1014  19.677  13.332  11.684
29486W        W 1015  15.116  22.400  11.729
29487W        W 1016  40.408  17.544  10.644
29488W        W 1017  13.359  15.351  12.993
29489W        W 1018   7.702  29.531  14.911
29490W        W 1019  41.708   4.238   3.916
29491W        W 1020   5.868  18.718   0.381
29492W        W 1021  18.114  10.906  12.494
29493W        W 1022   8.773  24.504   4.041
29494W        W 1023  38.533  27.214  12.345
29495W        W 1024  36.392   2.477  14.377
29496W        W 1025  27.499  37.392   2.344
29497W        W 1026  16.579  33.679   1.191
29498W        W 1027  26.247  11.752   4.383
29499W        W 1028  42.795  23.041   0.342
29500W        W 1029  35.104   1.763  13.399
29501W        W 1030  16.837   9.705   2.099
29502W        W 1031  25.218  12.037   4.035
29503W        W 1032  14.615  42.464  14.554
29504W        W 1033  36.102  39.696  13.646
29505W        W 1034  44.395  34.344   1.337
29506W        W 1035  39.319  41.760   3.217
29507W        W 1036  22.995  32.406  11.505
29508W        W 1037   4.390  21.244   0.989
29509W        W 1038  37.982  33.981   1.713
29510W        W 1039  10.963  34.433  12.373
29511W        W 1040  20.534  25.303  13.094
29512W        W 1041  26.617   9.954   3.815
29513W        W 1042  15.743  11.350   4.647
29514W        W 1043  30.574  18.224   2.754
29515W        W 1044  13.816   2.819  14.004
29516W        W 1045  27.616   5.041   1.863
29517W        W 1046   4.978  16.159  10.770
29518W        W 1047   1.857  15.866   0.004
29519W        W 1048  34.175  28.263  13.375
29520W        W 1049  39.442  10.334  12.568
29521W        W 1050  18.996  11.201  13.821
29522W        W 1051  30.008  24.586  10.295
29523W        W 1052  14.636   1.645  13.057
29524W        W 1053  26.613   2.626   2.696
29525W        W 1054  29.273  19.445  13.352
29526W        W 1055   3.544  44.548   4.475
29527W        W 1056  11.529  15.334   1.686
29528W        W 1057  20.007  34.600  13.050
29529W        W 1058  27.146  26.407   3.224
29530W        W 1059   3.489   3.485   1.936
29531W        W 1060   3.124  40.776  13.385
29532W        W 1061  32.269  39.568   1.664
29533W        W 1062  43.852  11.587   2.654
29534W        W 1063  18.714  37.404  11.919
29535W        W 1064  30.154  38.250   2.764
29536W        W 1065  18.771  20.500  11.157
29537W        W 1066   6.442  24.607  13.146
29538W        W 1067  18.278  34.383   4.025
29539W        W 1068  30.226   5.916  14.309
29540W        W 1069   4.787   8.656   4.582
29541W        W 1070  30.987  42.451   4.786
29542W        W 1071  24.819  43.413  12.063
29543W        W 1072  20.038  35.382  12.675
29544W        W 1073  38.380  43.833  11.632
29545W        W 1074  43.332  16.162   1.463
29546W        W 1075  14.169  24.656   2.870
29547W        W 1076   0.182  33.173   3.208
29548W        W 1077  19.039  20.231   4.575
29549W        W 1078   2.966  22.689   3.677
29550W        W 1079  29.633  25.547  10.304
29551W        W 1080  41.935  11.906   0.469
29552W        W 1081  12.001  15.874   0.165
29553W        W 1082  28.154  13.156   2.336
29554W        W 1083  44.613   4.479   1.127
29555W        W 1084  12.651  18.689  12.429
29556W        W 1085  28.944  43.810  10.400
29557W        W 1086  43.801  42.074  11.198
29558W        W 1087   5.259  30.477   3.224
29559W        W 1088   5.761  15.212   0.857
29560W        W 1089  25.992  34.843   2.584
29561W        W 1090  17.709  40.045   0.273
29562W        W 1091  18.210  18.689  13.068
29563W        W 1092  43.789  28.239   4.126
29564W        W 1093   1.240  24.137   2.381
29565W        W 1094  13.240  11.323   3.187
29566W        W 1095  18.006  10.564   4.037
29567W        W 1096  21.601  15.277  14.728
29568W        W 1097  41.820  13.893   3.828
29569W        W 1098  10.766  29.163   1.361
29570W        W 1099  28.126  14.837   0.431
29571W        W 1100   4.489   6.592  12.522
29572W        W 1101  34.341  26.134  12.583
29573W        W 1102  12.709  38.363   0.672
29574W        W 1103  15.826   2.451  12.421
29575W        W 1104  43.476  17.596   0.894
29576W        W 1105  29.904  13.323   2.779
29577W        W 1106  31.548  34.384  14.818
29578W        W 1107   9.901  36.336   2.729
29579W        W 1108  43.509   6.066  10.199
29580W        W 1109  31.428   5.415  11.191
29581W        W 1110  35.584   8.037   1.378
29582W        W 1111   5.073  36.450  14.150
29583W        W 1112  16.239  35.628   4.579
29584W        W 1113  43.419  23.018  10.720
29585W        W 1114  36.679  26.913  12.599
29586W        W 1115  24.123  32.133   1.330
29587W        W 1116   2.509  26.029   0.633
29588W        W 1117  18.025  28.475   3.543
29589W        W 1118  15.522  35.556   1.164
29590W        W 1119   2.984   3.825   1.421
29591W        W 1120  26.570  36.815   4.106
29592W        W 1121  16.180  11.417  11.128
29593W        W 1122  42.236  13.609   4.634
29594W        W 1123  29.419  37.799   0.995
29595W        W 1124  38.039  10.440   0.440
29596W        W 1125  15.291   5.737  14.400
29597W        W 1126  15.992  18.241   2.787
29598W        W 1127  28.267  15.171   4.653
29599W        W 1128  18.576   6.570   0.216
29600W        W 1129   5.672   2.468   0.971
29601W        W 1130  13.631  34.464   1.797
29602W        W 1131  29.935  39.069   2.376
29603W        W 1132  44.286  34.883   5.038
29604W        W 1133  35.850  34.379   4.926
29605W        W 1134  30.457  14.111  10.727
29606W        W 1135  35.401  20.843   1.855
29607W        W 1136  35.302  39.899   2.778
29608W        W 1137  22.931  21.533  12.549
29609W        W 1138  31.154  11.790  11.156
29610W        W 1139  40.741  20.775  14.132
29611W        W 1140  27.558   3.965   0.501
29612W        W 1141   1.034   4.486  13.436
29613W        W 1142   8.423  17.034   3.230
29614W        W 1143  42.853   9.217  11.621
29615W        W 1144  32.601  28.496   2.377
29616W        W 1145  20.215  35.169   2.704
29617W        W 1146  13.224  35.611  12.583
29618W        W 1147  39.195  32.936  11.020
29619W        W 1148  25.707  39.040   1.513
29620W        W 1149  18.801  42.852  11.988
29621W        W 1150  34.294   4.179  13.807
29622W        W 1151  36.391  44.327   0.449
29623W        W 1152  20.486  30.214  14.110
29624W        W 1153  11.380  13.835   2.313
29625W        W 1154  43.779  22.776  11.563
29626W        W 1155  21.751   6.686   1.775
29627W        W 1156  38.466   0.040   4.146
29628W        W 1157  26.757  37.812   4.097
29629W        W 1158  36.300   2.770  11.403
29630W        W 1159  22.519  37.484   3.091
29631W        W 1160  15.271  40.541  14.398
29632W        W 1161  20.520  10.623   2.129
29633W        W 1162  21.698  25.824  11.512
29634W        W 1163  43.540  17.254  11.943
29635W        W 1164  10.736   2.326   4.085
29636W        W 1165  28.293  29.221  11.072
29637W        W 1166  23.029  22.492   0.372
29638W        W 1167  42.468   1.275   4.060
29639W        W 1168  39.032  42.901  13.464
29640W        W 1169   0.004  33.140  12.534
29641W        W 1170   4.810  21.960  14.234
29642W        W 1171  35.319  27.163  14.832
29643W        W 1172  13.086   4.350   3.111
29644W        W 1173  37.456  44.428   1.218
29645W        W 1174  10.234  11.820  11.167
29646W        W 1175  37.630   1.005   1.672
29647W        W 1176  43.449   2.763  12.577
29648W        W 1177   7.417  13.714   3.745
29649W        W 1178   7.631  13.028  14.874
29650W        W 1179  15.051  27.435   2.654
29651W        W 1180  36.910  43.556   4.194
29652W        W 1181   5.134  12.458  11.112
29653W        W 1182  28.462  23.608   1.681
29654W        W 1183  33.537  23.963  11.554
29655W        W 1184  31.158   4.761  13.132
29656W        W 1185  44.914  16.587   0.537
29657W        W 1186  20.185  11.321  10.792
29658W        W 1187  19.642  12.824  10.552
29659W        W 1188   6.717  12.941   2.314
29660W        W 1189  13.128  36.008  13.432
29661W        W 1190  40.100  22.697  14.448
29662W        W 1191  29.051  11.931   1.027
29663W        W 1192  28.962  17.493   2.934
29664W        W 1193  27.539  13.799  12.379
29665W        W 1194   9.674  20.519  11.976
29666W        W 1195  26.174  20.328   2.191
29667W        W 1196  20.478  42.440  10.862
29668W        W 1197  12.105  28.049  11.985
29669W        W 1198  35.735  11.318  14.584
29670W        W 1199  10.076   9.225  14.840
29671W        W 1200  40.286   9.664   1.898
29672W        W 1201  12.621  24.739  13.901
29673W        W 1202  26.010   8.939  10.594
29674W        W 1203   0.226  24.192   3.959
29675W        W 1204  12.551  10.135  13.836
29676W        W 1205   7.728  17.135  12.864
29677W        W 1206  19.881  20.984   5.046
29678W        W 1207  34.318   5.227  14.833
29679W        W 1208  41.003  44.535   3.824
29680W        W 1209  25.323   3.317  12.941
29681W        W 1210  26.989  41.550   3.706
29682W        W 1211  40.991   2.873   1.829
29683W        W 1212  44.728  44.430   2.674
29684W        W 1213  11.219  21.172   1.696
29685W        W 1214  31.673   4.230   1.166
29686W        W 1215  33.467  22.707   4.519
29687W        W 1216   3.365   5.199  10.799
29688W        W 1217   9.124  30.445   3.703
29689W        W 1218  17.541  40.325  10.658
29690W        W 1219   1.220   8.209   4.240
29691W        W 1220  17.128   8.572   1.750
29692W        W 1221  29.450   0.709  13.506
29693W        W 1222   2.190  38.904   1.761
29694W        W 1223  23.905  27.329  12.581
29695W        W 1224  36.990  35.934   0.212
29696W        W 1225  28.667  23.442   4.472
29697W        W 1226  28.620  17.817  13.772
29698W        W 1227  41.481   6.325  12.798
29699W        W 1228  26.881   9.929   4.289
29700W        W 1229  15.643  10.194  11.952
29701W        W 1230  32.136  35.408  13.086
29702W        W 1231  40.762  17.062  11.312
29703W        W 1232  44.488   9.962  13.399
29704W        W 1233   8.562   6.950   0.899
29705W        W 1234  43.081  35.678  11.609
29706W        W 1235  38.464  39.854   3.238
29707W        W 1236  14.464  28.309  13.911
29708W        W 1237  26.628  39.341   3.724
29709W        W 1238  40.401  41.999  10.431
29710W        W 1239  39.965   3.379   3.361
29711W        W 1240   6.519  40.398  14.326
29712W        W 1241  32.100  32.164   0.678
29713W        W 1242  13.036  15.402   4.070
29714W        W 1243   5.772   3.350  12.008
29715W        W 1244  42.646  27.569  10.591
29716W        W 1245  15.617  17.197   1.482
29717W        W 1246  29.943   3.485   0.833
29718W        W 1247  38.552   6.481   0.705
29719W        W 1248  25.300  44.327  13.018
29720W        W 1249  20.660  27.151  10.610
29721W        W 1250  13.156  20.115   1.323
29722W        W 1251  32.547  23.955   0.055
29723W        W 1252  22.985  11.741  14.824
29724W        W 1253   6.030  25.104   1.251
29725W        W 1254   3.776  26.162   3.633
29726W        W 1255  27.058  38.094   4.712
29727W        W 1256  24.864  14.902   0.423
29728W        W 1257   0.973  14.063  14.241
29729W        W 1258  27.120  21.246  11.285
29730W        W 1259   8.755  22.211   0.594
29731W        W 1260  19.050  35.444   3.416
29732W        W 1261  11.599  41.682  13.560
29733W        W 1262   0.968  16.723   3.811
29734W        W 1263  33.934  22.022  11.164
29735W        W 1264  26.571  17.206   5.148
29736W        W 1265  43.222  18.840   4.181
29737W        W 1266  31.708  40.829   3.572
29738W        W 1267  36.075   1.947  11.130
29739W        W 1268   6.907  19.322  11.476
29740W        W 1269  15.756  30.434   1.320
29741W        W 1270  36.711  21.719   4.495
29742W        W 1271  42.792  36.638  10.754
29743W        W 1272  27.588  13.790   4.561
29744W        W 1273  37.029  33.617  10.612
29745W        W 1274   3.244  17.752  14.098
29746W        W 1275  16.139  17.134   3.317
29747W        W 1276  44.245  36.428   0.959
29748W        W 1277  20.623  27.442   0.922
29749W        W 1278  28.917  30.397   0.399
29750W        W 1279  29.882  23.617  11.634
29751W        W 1280  39.721  36.938   4.048
29752W        W 1281  39.715  32.142   3.923
29753W        W 1282  33.869   6.298  14.339
29754W        W 1283  41.171  42.616   3.078
29755W        W 1284  21.065  31.437   3.756
29756W        W 1285  14.270   5.242   1.331
29757W        W 1286  42.503  15.173   3.996
29758W        W 1287   4.648  34.399   0.251
29759W        W 1288  25.546  15.749   4.861
29760W        W 1289  32.088  20.768  11.099
29761W        W 1290  17.226   9.140  14.562
29762W        W 1291  40.675  20.220  12.550
29763W        W 1292  38.953  18.204  11.627
29764W        W 1293  28.054  39.145   2.464
29765W        W 1294  34.132   3.320   0.252
29766W        W 1295  27.038  29.429   2.283
29767W        W 1296  23.580   4.429  14.113
29768W        W 1297  21.386   7.477   4.881
29769W        W 1298  23.078  42.428   3.282
29770W        W 1299   1.718  37.882   3.681
29771W        W 1300  40.344  30.872   2.159
29772W        W 1301  27.155  39.955  13.541
29773W        W 1302  14.194  12.864   4.815
29774W        W 1303  32.035   9.876   3.397
29775W        W 1304  25.054  10.221   2.814
29776W        W 1305   4.631  17.671  10.643
29777W        W 1306   4.914  10.644   4.598
29778W        W 1307  16.539  13.816   1.330
29779W        W 1308  25.484  15.606   4.344
29780W        W 1309   8.320   8.862   3.711
29781W        W 1310  16.597  33.884   3.338
29782W        W 1311  18.188   1.192   2.126
29783W        W 1312  34.133   9.479  13.529
29784W        W 1313  42.313   3.444  10.471
29785W        W 1314   0.231  21.861   2.058
29786W        W 1315  20.355  41.973   0.453
29787W        W 1316  10.362  40.828  11.504
29788W        W 1317  18.305  28.969   3.592
29789W        W 1318  24.038   1.472  12.454
29790W        W 1319  25.929  18.359   4.550
29791W        W 1320  22.597  16.259   0.978
29792W        W 1321   7.623   7.123   0.052
29793W        W 1322  42.070  42.404   4.565
29794W        W 1323   5.264   6.241  10.724
29795W        W 1324   3.844  16.330   2.903
29796W        W 1325  18.661  16.718   1.837
29797W        W 1326   2.441  13.063  10.712
29798W        W 1327   7.634   2.706  10.520
29799W        W 1328  22.889  38.427   0.387
29800W        W 1329  41.072  34.002   3.715
29801W        W 1330  28.593  43.487   0.230
29802W        W 1331   5.871  24.670   4.156
29803W        W 1332  40.905  27.987  11.614
29804W        W 1333  10.608   3.775  11.274
29805W        W 1334  11.675  42.361   2.231
29806W        W 1335  32.683  43.301  10.726
29807W        W 1336  25.187  14.804  11.080
29808W        W 1337  44.955   4.623  14.027
29809W        W 1338  32.161  11.206  11.988
29810W        W 1339   6.249  31.667   4.076
29811W        W 1340   1.979   5.315   0.281
29812W        W 1341   4.958  38.365   0.913
29813W        W 1342  14.110   2.391   1.785
29814W        W 1343  34.983  18.702   2.210
29815W        W 1344  27.569  27.595   0.281
29816W        W 1345  31.526  42.355   4.811
29817W        W 1346   4.655   2.988   4.187
29818W        W 1347  15.737  44.762  13.417
29819W        W 1348   7.163  42.417  11.122
29820W        W 1349  24.614   4.536  10.769
29821W        W 1350  42.264  28.607   2.535
29822W        W 1351  41.364   1.910  12.071
29823W        W 1352  44.434   8.630   3.693
29824W        W 1353   1.214   0.091  14.128
29825W        W 1354  27.621  27.810  11.044
29826W        W 1355  44.517  20.706   9.973
29827W        W 1356  20.026  35.048   4.213
29828W        W 1357   3.893  30.541   2.228
29829W        W 1358  39.847  11.606   3.037
29830W        W 1359  26.656   9.834   1.824
29831W        W 1360  10.380   9.587  14.628
29832W        W 1361  17.332   5.699   1.151
29833W        W 1362  29.651  44.530   2.136
29834W        W 1363  39.750  42.724   2.055
29835W        W 1364  38.630  40.554   3.705
29836W        W 1365  26.709  20.673  13.546
29837W        W 1366  12.514  37.152   4.575
29838W        W 1367   8.868   8.279   0.816
29839W        W 1368   1.336  43.420   1.896
29840W        W 1369  12.713  13.544  11.222
29841W        W 1370  22.589   9.907   4.152
29842W        W 1371  26.036   6.788   4.266
29843W        W 1372  16.059  44.880  13.856
29844W        W 1373   2.870   6.309   3.769
29845W        W 1374  20.047  21.239   0.685
29846W        W 1375  27.219   8.838   2.357
29847W        W 1376   1.435  43.920  14.294
29848W        W 1377  41.733   0.014  14.957
29849W        W 1378  23.118  26.254  11.159
29850W        W 1379  42.307  10.666   1.373
29851W        W 1380  19.234  35.486  12.353
29852W        W 1381   0.360   6.750   1.237
29853W        W 1382  12.269  13.600  13.406
29854W        W 1383  27.961  23.243   3.200
29855W        W 1384   2.005   6.475  13.983
29856W        W 1385  38.466  27.540   1.663
29857W        W 1386  30.113  15.582   1.367
29858W        W 1387  30.558  13.132  10.731
29859W        W 1388  25.586  11.199   4.839
29860W        W 1389  21.348  26.042   3.419
29861W        W 1390   4.323  16.018  13.349
29862W        W 1391  15.901  25.755   3.559
29863W        W 1392  17.123  18.071   5.033
29864W        W 1393  16.560  18.175  10.853
29865W        W 1394   5.384  16.974   3.612
29866W        W 1395   7.789  21.800   2.808
29867W        W 1396   5.840  44.720   3.096
29868W        W 1397  22.767  11.306  13.981
29869W        W 1398  12.602  36.503   1.260
29870W        W 1399  19.154  40.028   0.525
29871W        W 1400   4.254  40.707   1.603
29872W        W 1401  38.479  13.226  10.767
29873W        W 1402   7.665  44.333  11.169
29874W        W 1403  40.895  20.986  13.679
29875W        W 1404  28.783  32.052   2.244
29876W        W 1405  40.515  31.896  11.991
29877W        W 1406  44.992  32.520   4.683
29878W        W 1407  39.585  22.476  11.083
29879W        W 1408  33.020   2.998   4.734
29880W        W 1409  20.042  12.668   1.242
29881W        W 1410  11.901   7.856   4.075
29882W        W 1411  39.472  10.623  12.112
29883W        W 1412  36.054  25.822   1.478
29884W        W 1413  38.940  17.040  13.344
29885W        W 1414  28.219  12.653   2.256
29886W        W 1415  41.435  32.321   4.573
29887W        W 1416  21.058  33.126   3.315
29888W        W 1417  22.234  42.285  14.817
29889W        W 1418  23.115  21.976   0.977
29890W        W 1419  21.301   7.169   2.102
29891W        W 1420  40.811  30.632   2.229
29892W        W 1421  44.220  44.282  13.869
29893W        W 1422   5.180   5.700  11.585
29894W        W 1423  21.832  25.651   1.519
29895W        W 1424  22.421   4.015   1.321
29896W        W 1425  32.014  16.032   1.348
29897W        W 1426  39.403  36.058   0.241
29898W        W 1427  42.335  20.206  13.465
29899W        W 1428  35.334   2.448  14.599
29900W        W 1429  10.647  19.504  10.302
29901W        W 1430  31.802  38.894   2.521
29902W        W 1431  23.168  17.556  13.541
29903W        W 1432  42.172  10.496   4.911
29904W        W 1433  31.455  18.524  11.249
29905W        W 1434  42.781  43.989   4.676
29906W        W 1435  31.849  36.381  11.410
29907W        W 1436   0.242  40.011  10.666
29908W        W 1437   6.280  30.054   2.122
29909W        W 1438  37.548   7.925  13.824
29910W        W 1439  43.995  16.908  12.678
29911W        W 1440  21.288  44.336  12.720
29912W        W 1441  15.774  39.048   4.147
29913W        W 1442  39.431  44.359  13.068
29914W        W 1443  38.600  39.759   4.539
29915W        W 1444  16.040  19.272  14.820
29916W        W 1445  20.584   1.432  10.640
29917W        W 1446  11.771  43.690   0.938
29918W        W 1447  25.226  16.668   0.758
29919W        W 1448   4.772  18.817  11.669
29920W        W 1449  22.816  20.024   2.157
29921W        W 1450  24.019   7.812   3.351
29922W        W 1451  23.921  13.311   2.294
29923W        W 1452  33.936  14.410   0.777
29924W        W 1453  30.455  18.033   4.199
29925W        W 1454  14.221  18.223   4.878
29926W        W 1455  42.779  19.199   0.868
29927W        W 1456   6.492  31.460  14.422
29928W        W 1457   1.806  25.230   1.825
29929W        W 1458  41.779  21.052   1.324
29930W        W 1459  13.283  28.968  11.580
29931W        W 1460  10.043  24.379   5.006
29932W        W 1461  11.427   1.455   5.429
29933W        W 1462  19.590   3.430  13.468
29934W        W 1463  18.862  11.714  12.395
29935W        W 1464  31.390  35.064  10.763
29936W        W 1465  35.061  29.979  13.793
29937W        W 1466   9.952   5.484  12.488
29938W        W 1467  38.521  23.563  14.496
29939W        W 1468  32.391  44.346  12.595
29940W        W 1469  15.895   5.789  10.920
29941W        W 1470   1.316  23.814   0.601
29942W        W 1471  43.952  26.617  13.151
29943W        W 1472   6.383  41.141  13.001
29944W        W 1473  35.880  16.250   0.353
29945W        W 1474  20.678   1.345  13.490
29946W        W 1475  23.842  37.382  11.046
29947W        W 1476  10.396  18.788  12.370
29948W        W 1477  32.823  42.782   4.608
29949W        W 1478   8.405  41.485  13.938
29950W        W 1479  12.594  29.386   0.977
29951W        W 1480  17.797  16.192  13.425
29952W        W 1481  36.022  22.895   0.888
29953W        W 1482   8.003  12.637  14.816
29954W        W 1483  11.963  16.263   0.914
29955W        W 1484   2.452  40.237   2.691
29956W        W 1485  28.095  17.481  12.450
29957W        W 1486  30.186  38.942   0.665
29958W        W 1487   6.167  42.572   2.098
29959W        W 1488  29.207   4.786   0.853
29960W        W 1489  26.549   4.979   3.159
29961W        W 1490  20.088  35.852  13.585
29962W        W 1491   4.603  11.594   1.524
29963W        W 1492   0.991   5.376   3.206
29964W        W 1493  32.979  16.607  13.490
29965W        W 1494  32.895  35.778  14.332
29966W        W 1495  34.078  31.124   1.758
29967W        W 1496  14.872  28.723   0.786
29968W        W 1497  18.242  29.830   3.958
29969W        W 1498  31.478  38.424  14.174
29970W        W 1499  20.022   9.164  13.228
29971W        W 1500  36.419  24.438   1.911
29972W        W 1501  10.831  12.157  14.984
29973W        W 1502  11.236  27.971  14.495
29974W        W 1503  21.882  15.026  12.602
29975W        W 1504  13.736  25.657  13.083
29976W        W 1505  22.357  12.734   1.744
29977W        W 1506  32.629  43.918   4.527
29978W        W 1507  40.552   9.754  11.964
29979W        W 1508  30.066  40.356  10.890
29980W        W 1509   5.455   0.965  12.463
29981W        W 1510  11.451   9.806   2.248
29982W        W 1511  18.046  40.592  12.490
29983W        W 1512  41.009  15.046  13.034
29984W        W 1513  11.874   5.963  13.338
29985W        W 1514  41.123   4.738   4.189
29986W        W 1515  34.051  32.103   0.213
29987W        W 1516  15.370   3.859  11.419
29988W        W 1517  17.032  19.103  11.953
29989W        W 1518  28.229   8.217   4.917
29990W        W 1519  14.867  21.709  12.817
29991W        W 1520  37.500  43.081   1.717
29992W        W 1521  26.192   1.871  13.395
29993W        W 1522  10.784  38.648   3.758
29994W        W 1523  15.395   4.241   0.979
29995W        W 1524  44.558  21.036   2.249
29996W        W 1525   4.879  17.630   4.942
29997W        W 1526   0.352   3.734  11.160
29998W        W 1527  33.693  28.126   5.021
29999W        W 1528   4.404  43.620   4.101
30000W        W 1529  42.833   4.239   1.823
30001W        W 1530  21.262   0.592   3.164
30002W        W 1531  27.370  33.415   1.329
30003W        W 1532   4.456  35.725  13.552
30004W        W 1533  38.606  35.201  12.503
30005W        W 1534  11.156  25.557   2.697
30006W        W 1535  10.998   7.445   2.160
30007W        W 1536  23.117   3.845   2.754
30008W        W 1537  22.698   6.235   3.007
30009W        W 1538   4.399  44.184   4.071
30010W        W 1539  14.818  15.391  11.092
30011W        W 1540  29.932  20.811  13.515
30012W        W 1541  35.575  34.181   3.808
30013W        W 1542  37.091  43.699  11.072
30014W        W 1543  20.134  30.146   1.918
30015W        W 1544  11.692  44.986   1.780
30016W        W 1545   3.385   1.815   5.066
30017W        W 1546  10.403  39.821   2.428
30018W        W 1547  11.283   4.818   0.938
30019W        W 1548   3.455  17.143   4.728
30020W        W 1549   8.040  38.034  14.255
30021W        W 1550  12.319   8.379  12.096
30022W        W 1551  41.561  39.493  14.781
30023W        W 1552  39.898  15.568  10.137
30024W        W 1553  32.259  20.703   3.329
30025W        W 1554  42.037  30.605   1.776
30026W        W 1555  33.877  33.286  13.449
30027W        W 1556   4.361  40.472  13.451
30028W        W 1557  27.700  21.171  10.958
30029W        W 1558  13.070  37.098   4.599
30030W        W 1559   8.439   0.391  14.460
30031W        W 1560  44.567  22.243  11.533
30032W        W 1561  13.490  34.727  12.952
30033W        W 1562  26.666  24.532  14.315
30034W        W 1563  36.586  22.579  14.800
30035W        W 1564  32.858  19.199  12.029
30036W        W 1565  36.877   7.920   1.975
30037W        W 1566  43.366  33.343   1.245
30038W        W 1567  29.216   8.954  12.054
30039W        W 1568  28.019  15.699  14.895
30040W        W 1569  23.985  26.411  13.830
30041W        W 1570  33.980   0.002   2.912
30042W        W 1571   8.332   2.815  11.807
30043W        W 1572  28.640  14.590   2.260
30044W        W 1573  21.687  23.478  13.429
30045W        W 1574  22.132  32.594  11.892
30046W        W 1575   3.385  42.343  13.918
30047W        W 1576  15.325  15.590   3.303
30048W        W 1577  34.797  34.913  13.841
30049W        W 1578   1.765  37.447   3.389
30050W        W 1579   7.249  14.861  14.016
30051W        W 1580  21.661  13.815  14.474
30052W        W 1581  42.043  19.487  12.094
30053W        W 1582   3.141  43.823  10.692
30054W        W 1583  44.420  40.567  14.262
30055W        W 1584  36.028   1.013  12.896
30056W        W 1585   5.636  20.933   5.136
30057W        W 1586  36.911   2.121   1.725
30058W        W 1587  44.902   3.538  12.624
30059W        W 1588   4.307   1.125  14.084
30060W        W 1589  20.640  25.167  11.706
30061W        W 1590  10.329  18.242   4.974
30062W        W 1591   9.141  36.509   4.179
30063W        W 1592  30.322  38.311  12.714
30064W        W 1593   7.455   5.270  13.388
30065W        W 1594  39.004  29.573   2.293
30066W        W 1595   8.850  40.086   4.840
30067W        W 1596   5.737  43.230   0.493
30068W        W 1597  36.041  26.126   4.813
30069W        W 1598  22.385  26.365   1.334
30070W        W 1599   0.786  13.839   0.136
30071W        W 1600   5.348   2.469   3.607
30072W        W 1601  17.531  42.761   1.263
30073W        W 1602  23.617   8.614   2.351
30074W        W 1603  43.884  35.191   3.632
30075W        W 1604  14.131  28.710   4.092
30076W        W 1605  37.385  25.415  10.716
30077W        W 1606  14.332  40.331  13.092
30078W        W 1607  31.968  31.840  14.561
30079W        W 1608  27.180  42.476  14.548
30080W        W 1609   1.459  34.991  13.101
30081W        W 1610  14.065  17.675  14.301
30082W        W 1611  13.808  41.501  11.041
30083W        W 1612   5.928  29.459  12.382
30084W        W 1613  26.014  35.125  12.678
30085W        W 1614  35.930  31.522  10.439
30086W        W 1615  10.703  11.552  11.043
30087W        W 1616  28.195  24.438   1.000
30088W        W 1617  17.630  20.134   5.125
30089W        W 1618  44.044  26.264  12.293
30090W        W 1619  36.819  10.531  14.502
30091W        W 1620  26.328  10.427  12.540
30092W        W 1621  10.234   3.396   0.963
30093W        W 1622   6.540   0.748   4.855
30094W        W 1623  39.385  39.248  10.432
30095W        W 1624   2.242  20.002   4.852
30096W        W 1625  24.206  31.008  10.625
30097W        W 1626  31.098  27.176   0.698
30098W        W 1627  35.989  31.888  10.833
30099W        W 1628   1.409  21.240  11.610
30100W        W 1629   4.422  23.502  12.877
30101W        W 1630  21.603   1.058   3.917
30102W        W 1631  20.955   3.150   2.117
30103W        W 1632  13.666  17.850  12.768
30104W        W 1633  41.367  11.719  14.355
30105W        W 1634  26.680  20.304   2.594
30106W        W 1635   4.940   3.329   3.233
30107W        W 1636  24.386   0.013   2.444
30108W        W 1637  33.089  32.175   0.759
30109W        W 1638  35.319   1.439   3.281
30110W        W 1639  34.488   7.018   1.247
30111W        W 1640  19.300  30.727   0.827
30112W        W 1641  24.627   4.469  11.879
30113W        W 1642  34.000   6.214   3.236
30114W        W 1643  20.024  34.865  12.603
30115W        W 1644  35.937  13.291  14.808
30116W        W 1645  43.464  25.717  11.344
30117W        W 1646  14.970  43.373   0.754
30118W        W 1647  25.441  42.908   3.124
30119W        W 1648  11.810  27.467  13.858
30120W        W 1649  11.813  13.735  11.408
30121W        W 1650  14.285  21.150  10.635
30122W        W 1651  21.494   8.610  11.046
30123W        W 1652  22.502  28.315   4.526
30124W        W 1653  12.378  17.997  11.260
30125W        W 1654  37.421   9.398   0.318
30126W        W 1655   6.942   8.689   1.849
30127W        W 1656   8.150   4.054   3.588
30128W        W 1657  18.585  38.932  11.159
30129W        W 1658   6.834   0.320  10.972
30130W        W 1659  27.666  12.897  12.266
30131W        W 1660  12.283  29.918   2.327
30132W        W 1661   4.876   5.918  14.385
30133W        W 1662  42.888  23.371  13.827
30134W        W 1663   8.318   1.382  12.879
30135W        W 1664  23.092   4.845  14.689
30136W        W 1665  18.026  19.215   3.529
30137W        W 1666  14.445  29.324   3.713
30138W        W 1667  30.648  18.142  13.967
30139W        W 1668  25.718   1.706  10.637
30140W        W 1669  11.404  17.710   2.683
30141W        W 1670  36.837  38.540   1.697
30142W        W 1671  23.757  19.918  14.789
30143W        W 1672   8.223  34.035   3.753
30144W        W 1673  25.045  25.612  10.734
30145W        W 1674   1.847   7.207   0.111
30146W        W 1675  19.788  31.871   4.337
30147W        W 1676   9.740  35.677   2.399
30148W        W 1677  35.846  29.517  14.124
30149W        W 1678  17.743  10.297  10.123
30150W        W 1679  20.098  24.419   0.350
30151W        W 1680   8.363  23.836  12.279
30152W        W 1681  25.490  12.059   2.174
30153W        W 1682   4.461  41.975   2.777
30154W        W 1683  31.665  26.730  11.620
30155W        W 1684   6.769   5.246   3.673
30156W        W 1685  12.851  32.637   3.166
30157W        W 1686  30.226   8.870  13.607
30158W        W 1687  42.267  23.947   2.343
30159W        W 1688  39.068  25.276  14.758
30160W        W 1689   5.179  16.696   4.450
30161W        W 1690  36.255  20.070  12.698
30162W        W 1691  32.405   1.527  12.525
30163W        W 1692  42.848   4.956  13.869
30164W        W 1693   8.463  44.712  14.893
30165W        W 1694   6.081  13.721  12.152
30166W        W 1695  14.664  28.973   1.250
30167W        W 1696  35.575  11.797   2.152
30168W        W 1697  16.668  24.517   2.408
30169W        W 1698   0.820  38.186  13.506
30170W        W 1699  15.540  16.055   2.630
30171W        W 1700  36.811  39.366  11.170
30172W        W 1701  23.771  38.396   3.813
30173W        W 1702  27.091  31.397   2.429
30174W        W 1703  14.336  20.345   2.343
30175W        W 1704  32.159   7.342  11.558
30176W        W 1705  34.524  22.114  14.859
30177W        W 1706  18.249   5.715   1.437
30178W        W 1707  31.489  19.126   1.203
30179W        W 1708  10.920   5.722   0.729
30180W        W 1709  35.364  39.002  10.448
30181W        W 1710  23.799  13.149  13.470
30182W        W 1711   7.411  41.377  11.088
30183W        W 1712  26.397  33.651   3.705
30184W        W 1713  34.524  40.841  14.087
30185W        W 1714  25.904  29.099   2.142
30186W        W 1715  37.368  11.462   0.195
30187W        W 1716  11.746  34.168  14.871
30188W        W 1717  24.846  44.260  11.188
30189W        W 1718  31.331  44.228  11.968
30190W        W 1719  44.691  11.819  11.244
30191W        W 1720  44.907  43.799   0.887
30192W        W 1721  14.118  19.380  12.987
30193W        W 1722  36.282  12.093  13.101
30194W        W 1723  11.444  43.351  14.965
30195W        W 1724  22.161  27.568   3.391
30196W        W 1725   3.779   3.853   1.718
30197W        W 1726   2.602  10.240  14.543
30198W        W 1727  16.699  42.442  12.135
30199W        W 1728  36.817   2.886   3.609
30200W        W 1729   5.582  43.225   1.391
30201W        W 1730  19.511  18.318   2.231
30202W        W 1731  43.371  13.602   4.054
30203W        W 1732   8.130  16.189  14.339
30204W        W 1733   0.108  42.381   0.871
30205W        W 1734  25.024  29.092   2.152
30206W        W 1735  19.419  21.810   2.782
30207W        W 1736   0.254   7.284  10.705
30208W        W 1737   4.171  37.777  10.797
30209W        W 1738  40.816  20.590  11.477
30210W        W 1739   6.370  34.274  14.588
30211W        W 1740  13.041  37.783  13.039
30212W        W 1741  27.963  28.355  12.592
30213W        W 1742  21.205  31.831  10.571
30214W        W 1743   0.918   1.517   3.967
30215W        W 1744  42.187  41.349  12.793
30216W        W 1745  34.945  32.611   1.182
30217W        W 1746   3.412   9.856   1.648
30218W        W 1747   4.946  43.547  10.618
30219W        W 1748   6.935  32.530  12.153
30220W        W 1749  23.138   2.434  10.958
30221W        W 1750  28.355  44.466  14.133
30222W        W 1751  29.684  41.762  13.342
30223W        W 1752  21.076  19.791   2.906
30224W        W 1753  12.703  34.850   4.542
30225W        W 1754   2.983  33.228  10.514
30226W        W 1755   4.881  32.654  10.953
30227W        W 1756  11.059   0.824  12.386
30228W        W 1757  34.819  36.506   4.237
30229W        W 1758  19.187  26.330  14.817
30230W        W 1759   2.736   7.303  12.626
30231W        W 1760  29.453   9.077  13.035
30232W        W 1761  17.119  35.763  14.447
30233W        W 1762  20.143  36.353  13.704
30234W        W 1763  33.590  22.615  12.413
30235W        W 1764  16.389   1.484   2.783
30236W        W 1765   7.164  17.231   2.692
30237W        W 1766  30.340   1.386  10.751
30238W        W 1767   9.686  33.145   1.099
30239W        W 1768  36.566  27.577   4.708
30240W        W 1769  14.047   9.393  12.796
30241W        W 1770   1.820  43.528  13.058
30242W        W 1771  22.924  31.465  14.104
30243W        W 1772  32.512  33.695   0.469
30244W        W 1773   9.927  32.232   2.810
30245W        W 1774  10.615  15.242   3.614
30246W        W 1775  40.253  19.538   3.849
30247W        W 1776  14.785  18.716   1.455
30248W        W 1777  21.524  26.724   1.357
30249W        W 1778  26.211  13.131   0.277
30250W        W 1779  38.760  30.077   3.075
30251W        W 1780  40.074  27.467  11.901
30252W        W 1781  14.762  42.282   3.181
30253W        W 1782   4.020   5.393   2.809
30254W        W 1783   5.624  37.050   4.746
30255W        W 1784  14.380  30.135  10.781
30256W        W 1785  31.051  29.116   4.716
30257W        W 1786  43.650   7.409  11.135
30258W        W 1787  26.987   7.610   1.884
30259W        W 1788  21.926  21.447  13.567
30260W        W 1789  12.607  26.646  14.258
30261W        W 1790  25.145  10.457   4.902
30262W        W 1791  31.827   9.813   2.910
30263W        W 1792  31.007  42.598  11.630
30264W        W 1793  15.468  36.602  11.381
30265W        W 1794  41.865  10.180   4.017
30266W        W 1795  24.524  29.642   4.562
30267W        W 1796   7.686   7.688   2.729
30268W        W 1797   9.035  10.072   3.673
30269W        W 1798  35.147  14.042   1.895
30270W        W 1799  44.221  17.847  10.925
30271W        W 1800  34.092  10.078   2.736
30272W        W 1801  30.584   9.813  13.118
30273W        W 1802  12.868   1.415  10.717
30274W        W 1803  21.845  26.683  14.788
30275W        W 1804  38.280  15.087   0.313
30276W        W 1805  38.891  21.307  11.426
30277W        W 1806  25.183  43.734   0.433
30278W        W 1807  13.357  36.752  13.762
30279W        W 1808  41.628  18.944  14.528
30280W        W 1809  22.625   7.394  10.288
30281W        W 1810  10.134  36.631  11.155
30282W        W 1811  21.517  36.091   2.387
30283W        W 1812   4.265   7.377  12.940
30284W        W 1813  14.770   1.459  10.699
30285W        W 1814  38.371   8.595   2.563
30286W        W 1815  42.333  19.541  14.288
30287W        W 1816  40.765  32.384   0.950
30288W        W 1817  34.714  25.180  12.780
30289W        W 1818  41.056  38.531   2.943
30290W        W 1819  10.819   8.878   1.391
30291W        W 1820  18.815  32.642   1.377
30292W        W 1821  43.971   4.935   3.629
30293W        W 1822   4.222  18.983   4.633
30294W        W 1823  20.909  18.295  10.274
30295W        W 1824   4.240  23.597  13.352
30296W        W 1825  39.824  22.981   0.805
30297W        W 1826   9.869  12.928   2.808
30298W        W 1827  13.958  39.423  11.565
30299W        W 1828  10.650  38.139   1.343
30300W        W 1829  33.924  44.839   0.913
30301W        W 1830  16.685  11.402   0.410
30302W        W 1831  39.733  18.162   1.735
30303W        W 1832  30.215  27.565  10.358
30304W        W 1833   2.012   1.535  11.167
30305W        W 1834  37.436   3.439  14.855
30306W        W 1835   2.629  27.105   1.375
30307W        W 1836  11.145   0.073   4.089
30308W        W 1837  42.364  34.388  11.865
30309W        W 1838  33.260   5.945   1.459
30310W        W 1839  20.853   4.692   2.858
30311W        W 1840   9.868  43.444  12.132
30312W        W 1841  17.792  30.001   1.789
30313W        W 1842  13.761   5.796   1.831
30314W        W 1843  13.344  15.683   1.963
30315W        W 1844  29.862   4.053  12.963
30316W        W 1845  44.975  38.450   3.812
30317W        W 1846  10.264  40.846  10.963
30318W        W 1847  29.874  35.093   4.728
30319W        W 1848  10.142   1.911   0.213
30320W        W 1849  27.234  37.020  12.391
30321W        W 1850  38.282  15.066  13.247
30322W        W 1851  27.506  13.736   3.681
30323W        W 1852  38.470  39.821   0.796
30324W        W 1853  11.697  24.785  12.565
30325W        W 1854  36.571  26.660   1.367
30326W        W 1855  17.993  19.094  12.825
30327W        W 1856  44.254  28.948  10.337
30328W        W 1857   4.908   8.180  12.619
30329W        W 1858  20.435  13.266   3.747
30330W        W 1859  37.516  38.303  11.759
30331W        W 1860  16.171   0.398  13.793
30332W        W 1861  44.923  41.577  11.649
30333W        W 1862   8.863  40.941  14.716
30334W        W 1863  17.307  27.918   3.307
30335W        W 1864  26.483  11.351  12.764
30336W        W 1865  24.090  38.538  12.510
30337W        W 1866  11.883   5.764   2.293
30338W        W 1867  26.717  13.654  11.981
30339W        W 1868  35.893   9.780   1.867
30340W        W 1869  42.484  26.537  11.601
30341W        W 1870  29.024  34.144  12.929
30342W        W 1871  17.720  28.505  12.921
30343W        W 1872  37.881  18.470  11.588
30344W        W 1873   9.772  27.620  14.411
30345W        W 1874   7.535  36.959  11.564
30346W        W 1875   6.473  31.391   3.669
30347W        W 1876   7.006  22.218   4.453
30348W        W 1877  11.266   8.546   2.770
30349W        W 1878  38.527  28.880   1.936
30350W        W 1879  31.907  22.716   2.388
30351W        W 1880   2.748   6.871  11.139
30352W        W 1881  24.382   6.261  12.945
30353W        W 1882   2.995   7.825   1.127
30354W        W 1883   8.446   5.653  13.294
30355W        W 1884   4.606  23.271   0.864
30356W        W 1885  19.041  30.813  12.189
30357W        W 1886  34.616   1.118  11.586
30358W        W 1887   2.240  22.139  13.824
30359W        W 1888  30.648  10.405  13.882
30360W        W 1889   6.648   0.354  13.901
30361W        W 1890   5.795  30.348  13.974
30362W        W 1891   8.370  29.002   1.141
30363W        W 1892   2.221  39.052  14.772
30364W        W 1893   2.222  32.363   4.668
30365W        W 1894  11.946   3.696  11.388
30366W        W 1895  18.620  25.624  12.965
30367W        W 1896  43.668  15.713   2.159
30368W        W 1897  23.146  23.772   1.450
30369W        W 1898  14.122  38.914  12.906
30370W        W 1899   7.001  37.477   1.753
30371W        W 1900  21.452  38.085   2.236
30372W        W 1901  34.182  12.850   2.896
30373W        W 1902   2.407  41.211   3.127
30374W        W 1903  27.192  37.723   3.274
30375W        W 1904  15.101  28.697   1.282
30376W        W 1905  29.179  15.167   1.144
30377W        W 1906  40.199   6.621   1.242
30378W        W 1907  37.559  40.818  14.852
30379W        W 1908  24.230  11.433   1.706
30380W        W 1909  41.382   4.574   0.937
30381W        W 1910  36.442   5.628  11.548
30382W        W 1911   7.895  25.118  12.321
30383W        W 1912  34.001   0.819  12.500
30384W        W 1913   1.419  22.286  12.418
30385W        W 1914  14.048   2.371  14.229
30386W        W 1915  16.710   2.137   4.401
30387W        W 1916  23.806  15.679   3.570
30388W        W 1917  10.033   0.987  13.045
30389W        W 1918  43.857  20.069   0.877
30390W        W 1919  41.900   4.295   3.058
30391W        W 1920   9.569  22.555   0.698
30392W        W 1921  41.778  43.997   4.218
30393W        W 1922  13.698  44.750  10.809
30394W        W 1923  39.421  19.493  11.648
30395W        W 1924  21.895  25.054  10.932
30396W        W 1925  39.835   5.895   2.234
30397W        W 1926  37.054  22.135   3.707
30398W        W 1927   0.926  20.130  14.521
30399W        W 1928   2.245   5.258  13.050
30400W        W 1929  27.414  19.551  14.332
30401W        W 1930  30.738  39.320   1.741
30402W        W 1931  42.067   3.906   4.108
30403W        W 1932  28.499  24.972   0.427
30404W        W 1933  17.871  41.049   0.283
30405W        W 1934   1.466  44.994  10.686
30406W        W 1935   6.410  38.512  14.959
30407W        W 1936   8.362   9.019  10.276
30408W        W 1937  24.049  37.407   1.668
30409W        W 1938  15.167  28.219   4.231
30410W        W 1939  43.369  22.675  14.811
30411W        W 1940   7.210  17.426  10.733
30412W        W 1941  44.607  14.300   5.299
30413W        W 1942  26.979   6.966   2.254
30414W        W 1943  10.295  43.728   3.664
30415W        W 1944  37.627  27.589  10.485
30416W        W 1945  18.173  10.755  11.585
30417W        W 1946  13.318  12.895   2.403
30418W        W 1947  17.181  21.961   2.770
30419W        W 1948  19.184  28.047   3.696
30420W        W 1949  23.982  31.878  12.305
30421W        W 1950  34.611   4.846   2.190
30422W        W 1951  10.659  20.141  13.056
30423W        W 1952  26.535  29.689  13.840
30424W        W 1953  21.878  42.084  13.486
30425W        W 1954   6.289  11.890  10.366
30426W        W 1955  31.216  32.156   5.077
30427W        W 1956  17.782  39.949  13.221
30428W        W 1957  29.067  19.691   0.115
30429W        W 1958   7.390  25.061   0.919
30430W        W 1959  36.471  29.934   1.157
30431W        W 1960  41.705   0.374   0.331
30432W        W 1961  14.506  31.544   2.665
30433W        W 1962   5.884   0.241  10.627
30434W        W 1963   4.927  22.829  11.962
30435W        W 1964   3.702  29.355  13.035
30436W        W 1965  27.825   0.411   5.100
30437W        W 1966   9.680  42.912   2.363
30438W        W 1967  26.255   5.420  13.802
30439W        W 1968  24.287  19.356  10.576
30440W        W 1969  23.806  43.504   4.859
30441W        W 1970  39.611  10.779  14.780
30442W        W 1971  21.550  11.973  14.728
30443W        W 1972  25.629   6.333  14.527
30444W        W 1973  17.483  26.867  14.079
30445W        W 1974  27.971  42.790  12.975
30446W        W 1975   6.694  12.222  11.039
30447W        W 1976   5.493  26.118  12.521
30448W        W 1977  19.217   8.357  14.033
30449W        W 1978   8.876   4.783  12.189
30450W        W 1979  15.735   3.272   4.923
30451W        W 1980  44.516  16.326   2.963
30452W        W 1981  37.704  19.712  12.528
30453W        W 1982  30.567  12.119  12.471
30454W        W 1983  40.918   1.284  13.888
30455W        W 1984  35.057  10.135  11.046
30456W        W 1985  27.095   0.440   1.443
30457W        W 1986  17.774  38.112   3.761
30458W        W 1987  29.550   7.227   2.801
30459W        W 1988  30.967   7.657   1.687
30460W        W 1989  22.163  44.999   3.992
30461W        W 1990   1.235  16.259   1.199
30462W        W 1991   3.395  13.612  10.774
30463W        W 1992  42.350   3.299  12.368
30464W        W 1993  22.374  10.710   0.741
30465W        W 1994   3.930  21.512  14.252
30466W        W 1995  26.186   2.806   3.303
30467W        W 1996  16.051  15.786   1.447
30468W        W 1997  24.153   9.908   0.695
30469W        W 1998  41.304  27.610  10.613
30470W        W 1999   7.266  29.720   2.691
30471W        W 2000  40.945  17.116   1.767
30472W        W 2001  42.502  24.434  11.722
30473W        W 2002  19.089  19.838  10.256
30474W        W 2003  26.476  30.306  10.865
30475W        W 2004  20.569  11.842  11.553
30476W        W 2005  44.328  34.603  12.336
30477W        W 2006  39.115  23.558  13.888
30478W        W 2007  29.681   4.415  12.657
30479W        W 2008  43.975   0.450  11.231
30480W        W 2009  26.547  34.568  12.231
30481W        W 2010  19.659  38.859   1.792
30482W        W 2011   8.099  24.648   0.377
30483W        W 2012   1.879   4.607   4.619
30484W        W 2013  17.866  22.751   2.186
30485W        W 2014  21.543   8.289  14.893
30486W        W 2015  28.350   1.195  10.660
30487W        W 2016   0.820   2.933  14.296
30488W        W 2017  41.977  23.588  14.582
30489W        W 2018  23.136  37.350  14.858
30490W        W 2019  10.807  23.946  12.226
30491W        W 2020  10.975  11.271   2.372
30492W        W 2021  30.488  42.305   0.135
30493W        W 2022   0.876  28.568  14.899
30494W        W 2023  35.327  24.339  10.996
30495W        W 2024  35.540   4.387  10.782
30496W        W 2025  15.107  41.466   4.792
30497W        W 2026  40.774  19.609  11.456
30498W        W 2027  32.863  11.804   4.195
30499W        W 2028  41.317  24.773  13.473
30500W        W 2029  15.095  35.893   1.849
30501W        W 2030  39.692  28.403   2.459
30502W        W 2031  44.261   4.529  11.971
30503W        W 2032  30.741  24.047  14.994
30504W        W 2033  38.930  37.226   1.387
30505W        W 2034  36.786  20.212  14.779
30506W        W 2035  18.758  44.754  11.214
30507W        W 2036  17.386   2.421   0.857
30508W        W 2037  15.612   9.266   2.179
30509W        W 2038  25.743  31.670   0.786
30510W        W 2039   2.787  41.923   1.348
30511W        W 2040  35.329  18.736  13.860
30512W        W 2041  24.070  36.458  12.587
30513W        W 2042  19.375  33.124   2.853
30514W        W 2043  10.114   4.713   0.104
30515W        W 2044  29.104  35.514   0.669
30516W        W 2045  35.447   9.959   1.182
30517W        W 2046   5.117   6.813  10.626
30518W        W 2047  18.658  20.668  11.641
30519W        W 2048   1.794  21.632  12.868
30520W        W 2049   2.742   7.580   3.352
30521W        W 2050  29.454  11.645   0.859
30522W        W 2051  13.549  10.876   4.124
30523W        W 2052  25.753  28.671   2.704
30524W        W 2053   2.871  32.704  10.719
30525W        W 2054  29.322  26.201  11.500
30526W        W 2055  18.551  17.170  13.626
30527W        W 2056  42.614  14.248   0.521
30528W        W 2057  35.729  43.013   3.176
30529W        W 2058  32.660  42.959   1.318
30530W        W 2059  22.371  18.088  11.611
30531W        W 2060  23.896  35.139  14.306
30532W        W 2061  30.214  30.049  10.793
30533W        W 2062  36.516  36.126  13.201
30534W        W 2063  16.344   9.688   1.957
30535W        W 2064  14.761  11.727  10.708
30536W        W 2065  43.273  39.364   0.852
30537W        W 2066  17.102  21.681   1.796
30538W        W 2067  43.462  31.631  12.453
30539W        W 2068  27.013   0.514  12.445
30540W        W 2069  36.608  30.090  12.875
30541W        W 2070  44.376   8.131   4.645
30542W        W 2071  17.529  41.872  11.923
30543W        W 2072   0.409  41.932   0.241
30544W        W 2073  36.815  11.138   3.679
30545W        W 2074  19.629  17.712  14.999
30546W        W 2075  39.115  42.879  12.376
30547W        W 2076  34.936  12.348   2.270
30548W        W 2077  34.123  37.260   4.207
30549W        W 2078  13.774  42.910   1.447
30550W        W 2079   7.307  18.292   2.679
30551W        W 2080  16.854   0.801  13.542
30552W        W 2081  22.263  24.407   1.137
30553W        W 2082  20.218   3.530   0.332
30554W        W 2083  16.324   2.877  11.528
30555W        W 2084  31.954  21.432   4.568
30556W        W 2085  28.088   8.919  10.686
30557W        W 2086  19.538  44.393  13.438
30558W        W 2087   7.762  44.842  10.551
30559W        W 2088   1.324  28.150   3.411
30560W        W 2089  41.519  26.538  10.753
30561W        W 2090  41.325  38.902  13.476
30562W        W 2091   3.848  13.718   3.385
30563W        W 2092  36.322  21.796  13.381
30564W        W 2093  44.035  29.102  12.437
30565W        W 2094   0.334   0.196   4.307
30566W        W 2095  38.810   4.400  12.012
30567W        W 2096  32.136   8.129   4.920
30568W        W 2097  24.573  27.152   0.810
30569W        W 2098   6.375   8.909   3.609
30570W        W 2099  38.801  30.523  12.634
30571W        W 2100  39.926  31.535  13.758
30572W        W 2101  41.793   6.935  12.451
30573W        W 2102  21.562   9.153   0.705
30574W        W 2103   3.817  13.769  11.043
30575W        W 2104   1.761  28.317  12.492
30576W        W 2105  30.041  21.719   4.602
30577W        W 2106  18.509   3.681   4.870
30578W        W 2107  41.636   4.716   4.091
30579W        W 2108   1.552  34.308  11.997
30580W        W 2109  36.465  38.802   0.848
30581W        W 2110  13.206   4.437   2.259
30582W        W 2111   0.960  27.975   4.698
30583W        W 2112  18.157  12.626  11.227
30584W        W 2113  27.555  21.614   2.274
30585W        W 2114   4.850  19.622   1.883
30586W        W 2115  16.644  15.754  12.715
30587W        W 2116   4.951   6.314  11.540
30588W        W 2117  13.107  39.109   2.797
30589W        W 2118  20.213  20.925   1.101
30590W        W 2119  14.619   6.134  12.073
30591W        W 2120  31.293  12.351   0.409
30592W        W 2121  18.493   6.310   3.983
30593W        W 2122  21.723  44.501  14.961
30594W        W 2123  33.023  42.045  11.380
30595W        W 2124  27.749  43.853   4.851
30596W        W 2125  44.556  26.089   1.377
30597W        W 2126  11.727  22.188  13.317
30598W        W 2127  31.422  36.456  11.943
30599W        W 2128  21.562  18.008  10.979
30600W        W 2129  26.350  36.854  12.523
30601W        W 2130  16.053  16.667  13.516
30602W        W 2131   1.165  28.626   2.607
30603W        W 2132   8.772  10.612   0.009
30604W        W 2133  36.066  35.826  14.462
30605W        W 2134  40.006   0.684  10.687
30606W        W 2135  34.448  27.484  12.211
30607W        W 2136  32.482  28.916  13.088
30608W        W 2137   8.374  15.796  10.573
30609W        W 2138  31.114  40.669  11.621
30610W        W 2139  24.505  18.266  14.728
30611W        W 2140   0.785  32.428   9.807
30612W        W 2141  25.064  10.642   0.177
30613W        W 2142   0.951  28.802   1.176
30614W        W 2143  27.080  31.925   2.218
30615W        W 2144   5.593  24.406   0.897
30616W        W 2145  14.740  26.151   3.686
30617W        W 2146  13.635   1.637   1.830
30618W        W 2147  36.174  35.764   3.453
30619W        W 2148  12.454   5.768   3.129
30620W        W 2149   6.447  17.128  11.107
30621W        W 2150  30.563   4.889   4.254
30622W        W 2151  33.052  17.171   4.696
30623W        W 2152   6.800  28.975  13.893
30624W        W 2153  27.432  10.475   1.475
30625W        W 2154  15.231  17.574   0.656
30626W        W 2155  35.899   0.805  11.562
30627W        W 2156  27.060   4.618   1.707
30628W        W 2157  11.258  43.049  10.613
30629W        W 2158   4.242  27.403  11.453
30630W        W 2159  35.378   0.291  14.884
30631W        W 2160   3.268   6.354   1.444
30632W        W 2161   4.712   3.392  10.565
30633W        W 2162  26.628  21.961  14.728
30634W        W 2163   3.818  32.452   0.754
30635W        W 2164  33.487   7.101  14.883
30636W        W 2165  44.406  43.603   0.944
30637W        W 2166  20.513  44.217  11.938
30638W        W 2167   9.286  35.821  12.990
30639W        W 2168  21.756  42.851   4.346
30640W        W 2169  16.618  20.784  14.623
30641W        W 2170  31.521  28.081  14.326
30642W        W 2171   3.701  41.403   0.690
30643W        W 2172  13.251   8.249   1.860
30644W        W 2173  39.036  34.218   3.208
30645W        W 2174  42.884  30.308  11.205
30646W        W 2175  39.921  41.108   3.256
30647W        W 2176  21.995  39.114   0.215
30648W        W 2177   5.956  11.802  12.405
30649W        W 2178  33.043  18.334   0.753
30650W        W 2179   1.425  43.498  13.976
30651W        W 2180   9.094  17.566  14.442
30652W        W 2181  16.653  26.954   3.571
30653W        W 2182  14.653  21.008   0.175
30654W        W 2183  14.410   6.051   3.170
30655W        W 2184   8.562  34.422   2.098
30656W        W 2185  33.510  13.932   1.320
30657W        W 2186  34.162  33.924   3.586
30658W        W 2187  43.465  32.912   0.282
30659W        W 2188  11.167  10.415   0.518
30660W        W 2189   0.720  16.309   0.320
30661W        W 2190  37.550  32.951   0.477
30662W        W 2191  11.792  39.210   0.718
30663W        W 2192  32.340   2.267   2.923
30664W        W 2193   2.740   8.743   0.244
30665W        W 2194  34.408   4.361   3.460
30666W        W 2195  32.201  22.985  13.890
30667W        W 2196  38.323  29.186   2.338
30668W        W 2197  33.999  42.374   1.005
30669W        W 2198   0.953  28.507   2.113
30670W        W 2199  34.082  39.325   2.437
30671W        W 2200   3.838  13.212  14.413
30672W        W 2201  12.725   0.062  12.935
30673W        W 2202  14.703   9.463  13.356
30674W        W 2203  11.771   4.721   5.054
30675W        W 2204  28.679   9.729  10.488
30676W        W 2205  33.024  30.447  12.962
30677W        W 2206   2.169  35.389  13.941
30678W        W 2207  38.017  35.939  13.056
30679W        W 2208  11.351   7.341   1.752
30680W        W 2209  39.600  26.160  11.436
30681W        W 2210  37.524  17.295  12.989
30682W        W 2211  31.906  26.763  12.995
30683W        W 2212  29.923  41.931   1.026
30684W        W 2213  10.933  16.191   0.965
30685W        W 2214  44.421  15.541  12.086
30686W        W 2215  35.682  10.624   1.698
30687W        W 2216  11.630  33.434   2.105
30688W        W 2217  43.935  13.236  13.101
30689W        W 2218  41.758   9.743  14.933
30690W        W 2219   2.000   7.939  13.785
30691W        W 2220  38.307  28.849   0.874
30692W        W 2221  28.708  22.116   3.943
30693W        W 2222   1.223  36.551   4.579
30694W        W 2223  18.598  19.126  12.014
30695W        W 2224  31.903   1.976   3.184
30696W        W 2225  18.019  30.118  13.952
30697W        W 2226  14.120   1.044   3.137
30698W        W 2227  18.825   5.711   2.772
30699W        W 2228  44.010  13.924   1.322
30700W        W 2229  10.337  35.636  13.505
30701W        W 2230  36.374  30.832   0.881
30702W        W 2231   1.311   5.726  11.649
30703W        W 2232  38.550  40.336   1.381
30704W        W 2233  23.150  42.896   3.507
30705W        W 2234  25.478  39.874   1.193
30706W        W 2235   3.445   2.696  14.488
30707W        W 2236   9.817  16.548  12.054
30708W        W 2237   4.140  37.926   4.215
30709W        W 2238   7.018  36.591   3.739
30710W        W 2239  17.759  18.066  14.403
30711W        W 2240  25.796   7.871  12.486
30712W        W 2241  23.990   4.280   2.067
30713W        W 2242   0.321  14.802  14.467
30714W        W 2243  34.562  29.493  11.169
30715W        W 2244  35.113  19.844   0.786
30716W        W 2245  30.038  14.159   1.677
30717W        W 2246  25.036  19.884  12.504
30718W        W 2247  16.858  31.183  13.065
30719W        W 2248  12.675  16.609   1.829
30720W        W 2249   5.279  39.787   2.168
30721W        W 2250  32.586  42.274  14.970
30722W        W 2251   3.956  35.896  12.081
30723W        W 2252   0.466   1.322   0.922
30724W        W 2253  37.592  33.005   4.084
30725W        W 2254  24.273  43.312   1.401
30726W        W 2255  37.850  39.914  12.128
30727W        W 2256  24.639   5.561   4.724
30728W        W 2257  21.108  43.710  12.442
30729W        W 2258  34.443   8.932   3.360
30730W        W 2259  36.682   4.995   4.240
30731W        W 2260   5.421   9.184   2.424
30732W        W 2261   6.616  16.634  11.036
30733W        W 2262  22.625  21.262   2.205
30734W        W 2263   5.979  20.993  11.990
30735W        W 2264  22.620  13.706   2.854
30736W        W 2265  40.046  44.353   1.349
30737W        W 2266  27.533  16.307  11.673
30738W        W 2267  38.516   6.279   4.648
30739W        W 2268  36.228  15.823   0.339
30740W        W 2269  41.782  43.195   3.051
30741W        W 2270   7.713  26.615  13.999
30742W        W 2271   9.341  27.009   3.998
30743W        W 2272  28.195  29.048  10.591
30744W        W 2273  22.931  24.505   4.535
30745W        W 2274  37.196  32.466  14.215
30746W        W 2275   7.194  13.643   2.347
30747W        W 2276  33.254   1.374   3.065
30748W        W 2277  26.796  44.275   5.014
30749W        W 2278   3.193  19.216   1.905
30750W        W 2279  43.295  23.329  12.714
30751W        W 2280  26.778   5.478  13.831
30752W        W 2281  42.413  27.194   3.160
30753W        W 2282  21.442  10.443   4.182
30754W        W 2283  15.092  36.812   0.865
30755W        W 2284  42.013  34.606  12.183
30756W        W 2285  30.228   0.601   2.903
30757W        W 2286  24.722  16.220   0.183
30758W        W 2287  11.955  13.907  12.844
30759W        W 2288  20.936   7.957  13.371
30760W        W 2289  26.746  11.759   4.579
30761W        W 2290  39.939  12.632   2.323
30762W        W 2291  12.660  17.714   1.803
30763W        W 2292  22.491   0.432   3.877
30764W        W 2293  17.500   2.274   2.769
30765W        W 2294   4.130  12.382   0.485
30766W        W 2295  42.386   7.039  13.682
30767W        W 2296  28.161  20.693  14.355
30768W        W 2297  36.027  40.463  11.489
30769W        W 2298  34.567  39.610  13.469
30770W        W 2299   8.592  38.744   3.285
30771W        W 2300   8.202  16.496  11.132
30772W        W 2301  22.271   6.169  10.957
30773W        W 2302  20.948  23.197   2.766
30774W        W 2303   2.605   0.026  13.434
30775W        W 2304  27.461  16.622  10.557
30776W        W 2305  41.807  28.509   0.030
30777W        W 2306  12.673  15.053   4.189
30778W        W 2307  24.060  39.346  14.319
30779W        W 2308  17.672  33.703   2.347
30780W        W 2309  42.400  38.752   1.999
30781W        W 2310  41.233  34.599  11.513
30782W        W 2311  12.097  13.315   4.131
30783W        W 2312  39.898  43.446  12.348
30784W        W 2313   8.795   6.397  11.017
30785W        W 2314   8.444  41.050   0.974
30786W        W 2315   1.502  29.050   4.637
30787W        W 2316  34.836  23.319   1.691
30788W        W 2317  10.301   8.308   0.947
30789W        W 2318  19.987  16.257   3.320
30790W        W 2319   9.769  36.673  14.914
30791W        W 2320  20.778  42.750   0.653
30792W        W 2321  33.103   9.293  14.665
30793W        W 2322   6.824   9.676   3.897
30794W        W 2323  11.672  24.564   2.141
30795W        W 2324  17.174  35.986  13.497
30796W        W 2325  22.593  17.633   4.690
30797W        W 2326  30.488  14.896  12.392
30798W        W 2327   2.275  27.914  14.183
30799W        W 2328  22.612  39.045  14.037
30800W        W 2329   4.488  17.547  11.578
30801W        W 2330  25.483   8.076   3.258
30802W        W 2331  16.123  11.156  13.870
30803W        W 2332  44.990  18.403   0.374
30804W        W 2333  40.914  27.086   0.473
30805W        W 2334  32.643   7.262   4.882
30806W        W 2335   7.794  30.396  12.913
30807W        W 2336  43.101  22.054  12.563
30808W        W 2337  38.701  38.735  12.073
30809W        W 2338  36.030  17.371  12.000
30810W        W 2339   7.243  28.444   3.273
30811W        W 2340  40.892  21.074  12.104
30812W        W 2341  27.110  28.540   3.375
30813W        W 2342  34.374   6.246   4.730
30814W        W 2343  21.347  17.802   4.041
30815W        W 2344  33.052  12.780  13.079
30816W        W 2345  16.520  16.111  10.993
30817W        W 2346  24.650   1.761   1.450
30818W        W 2347  15.533   1.893  13.534
30819W        W 2348  16.699  35.608   1.366
30820W        W 2349  12.168  44.030   2.358
30821W        W 2350   2.287  35.949  11.085
30822W        W 2351  18.289  39.952  13.048
30823W        W 2352  15.750   5.632  13.910
30824W        W 2353  36.482  24.419  11.857
30825W        W 2354  25.992   2.096  13.916
30826W        W 2355   9.741   9.892  14.428
30827W        W 2356  28.990  14.893   3.998
30828W        W 2357  29.449   7.776  12.075
30829W        W 2358  23.510  26.214  13.907
30830W        W 2359  29.707  30.922   0.379
30831W        W 2360   8.669  16.634   4.264
30832W        W 2361  41.382  10.553   0.337
30833W        W 2362  23.482   1.631   3.211
30834W        W 2363  30.862  21.953   2.740
30835W        W 2364  15.093  25.917   0.755
30836W        W 2365   8.586  26.681  13.910
30837W        W 2366  41.560   7.557   4.802
30838W        W 2367  40.312   4.763   1.765
30839W        W 2368  24.693   2.309   1.398
30840W        W 2369   0.798  38.257   0.338
30841W        W 2370   0.291  29.524  14.502
30842W        W 2371   0.057  27.536  13.997
30843W        W 2372  31.852   1.427   4.142
30844W        W 2373  21.974  26.150  14.837
30845W        W 2374  30.475  42.926   4.387
30846W        W 2375  32.000   0.734  13.956
30847W        W 2376  30.481  42.656  11.637
30848W        W 2377  39.812  23.122  14.349
30849W        W 2378  17.159  40.350   4.114
30850W        W 2379  24.108  27.215  12.117
30851W        W 2380  18.634  11.604   2.726
30852W        W 2381  15.117  32.586  13.896
30853W        W 2382   4.910  41.301  13.497
30854W        W 2383  17.135  14.369  13.131
30855W        W 2384  29.177  16.178   0.262
30856W        W 2385  29.195  22.033  13.513
30857W        W 2386  14.518  25.811  10.616
30858W        W 2387  19.723  18.256   1.728
30859W        W 2388  28.115  27.600   0.428
30860W        W 2389  38.598  42.402  11.113
30861W        W 2390   8.450   3.890   0.665
30862W        W 2391   3.767   3.306   0.974
30863W        W 2392  42.961  39.869   2.363
30864W        W 2393  20.841  40.431   0.005
30865W        W 2394  37.435   1.519   2.743
30866W        W 2395  31.085   5.663   4.045
30867W        W 2396   8.776   7.281   4.105
30868W        W 2397  13.216  38.316   0.964
30869W        W 2398   4.012  15.892   4.197
30870W        W 2399  19.490  13.357   5.000
30871W        W 2400   9.106  36.643  11.991
30872W        W 2401  36.896  42.538   2.179
30873W        W 2402  18.213  44.708   4.033
30874W        W 2403   3.802   1.428  14.811
30875W        W 2404  25.556  44.806   4.378
30876W        W 2405  32.586  20.637  14.132
30877W        W 2406  10.704  26.972   0.644
30878W        W 2407  30.694  20.758   0.187
30879W        W 2408   5.317  12.486  14.303
30880W        W 2409  43.935  32.129  10.416
30881W        W 2410  22.162   8.981  14.991
30882W        W 2411   8.642  14.283  12.890
30883W        W 2412  24.681   4.791   2.686
30884W        W 2413  10.028  36.799   3.427
30885W        W 2414  30.977   0.683   2.008
30886W        W 2415  15.374  29.412  13.388
30887W        W 2416  12.271  28.944   3.183
30888W        W 2417  22.948  13.219   3.884
30889W        W 2418  27.800   2.849  10.782
30890W        W 2419   4.452  11.611   0.779
30891W        W 2420   2.198  10.885  12.999
30892W        W 2421  28.454  38.388   3.871
30893W        W 2422  28.867  28.935  11.942
30894W        W 2423  21.498  14.203  12.247
30895W        W 2424   8.765  17.289  13.290
30896W        W 2425  29.063  32.709  13.059
30897W        W 2426   5.206  18.667   2.577
30898W        W 2427  18.499   5.283  11.980
30899W        W 2428  21.570  21.275   3.253
30900W        W 2429  16.265  41.435   1.430
30901W        W 2430   9.822  15.778   0.480
30902W        W 2431   8.063  16.693   0.979
30903W        W 2432  33.528  38.129   2.720
30904W        W 2433  32.527   3.174  14.130
30905W        W 2434  26.621  28.023  12.520
30906W        W 2435  32.527  26.635   2.873
30907W        W 2436   0.734   6.398  10.748
30908W        W 2437  40.778  20.846   0.475
30909W        W 2438  32.155  44.397  11.606
30910W        W 2439  29.078   0.495  12.431
30911W        W 2440  16.816  19.566   3.213
30912W        W 2441  41.729  40.720  14.746
30913W        W 2442  41.351  23.710  13.355
30914W        W 2443   3.845  37.597   0.375
30915W        W 2444  12.530  41.055  11.104
30916W        W 2445   8.690   2.045   3.146
30917W        W 2446  22.201  31.681  10.334
30918W        W 2447  22.191  10.295   4.910
30919W        W 2448   4.705  27.991   3.530
30920W        W 2449  29.560  18.931   3.822
30921W        W 2450  37.423  40.495   1.658
30922W        W 2451  23.722  42.966   4.807
30923W        W 2452   0.516   8.974  13.658
30924W        W 2453   8.272  33.479   4.474
30925W        W 2454  31.818  31.656  14.120
30926W        W 2455   7.469   0.310   0.723
30927W        W 2456  19.749   9.719   3.622
30928W        W 2457  24.412  37.347  10.271
30929W        W 2458  35.574  29.447   1.079
30930W        W 2459  42.369   2.479   4.136
30931W        W 2460  13.655  42.200   0.814
30932W        W 2461  14.587  36.785   3.630
30933W        W 2462  16.390   4.760  14.828
30934W        W 2463  42.030  22.030   4.591
30935W        W 2464  18.100  41.299  14.412
30936W        W 2465   7.105  31.559   2.637
30937W        W 2466  26.259   8.362  14.184
30938W        W 2467  30.996  43.795  11.378
30939W        W 2468  31.122  26.650  10.499
30940W        W 2469  20.517  25.699   3.840
30941W        W 2470  13.955   0.902  14.732
30942W        W 2471  43.390  17.422   9.552
30943W        W 2472  23.699  25.742   4.561
30944W        W 2473   4.597  34.886  14.129
30945W        W 2474  12.153  37.349   4.223
30946W        W 2475  18.917  40.140   1.445
30947W        W 2476  44.744  36.507  13.421
30948W        W 2477  44.542  26.705   4.656
30949W        W 2478   0.723  21.780   3.979
30950W        W 2479   7.974  25.034   1.807
30951W        W 2480  19.823  34.980  14.831
30952W        W 2481  44.081  29.588   1.935
30953W        W 2482  21.190  39.109  13.880
30954W        W 2483  32.044  36.854  11.457
30955W        W 2484  27.624   0.835  13.358
30956W        W 2485  36.694  38.420  10.712
30957W        W 2486   6.722  11.705  13.043
30958W        W 2487  43.272  25.576   0.300
30959W        W 2488  41.927  34.439  11.556
30960W        W 2489  26.974   0.935  12.131
30961W        W 2490  16.239  40.944  14.315
30962W        W 2491   4.318  31.634  12.858
30963W        W 2492   6.244  13.541  10.709
30964W        W 2493  40.620   8.741   3.081
30965W        W 2494  40.018  41.596  14.768
30966W        W 2495   5.287  17.137  13.020
30967W        W 2496  27.425  19.756   0.747
30968W        W 2497  27.185  21.513  10.325
30969W        W 2498  31.392  30.260   3.248
30970W        W 2499  11.959  33.074  10.392
30971W        W 2500  23.094   8.960   1.751
30972W        W 2501  41.272  40.433  12.557
30973W        W 2502   8.154  22.181  13.081
30974W        W 2503  16.534  26.639   3.189
30975W        W 2504  30.177   0.533  10.803
30976W        W 2505  36.078  17.192   1.720
30977W        W 2506  16.510   7.751  12.951
30978W        W 2507  40.419   1.205  14.059
30979W        W 2508  31.892  26.190  12.632
30980W        W 2509  23.365  29.065  12.785
30981W        W 2510  21.326  41.110   5.458
30982W        W 2511  38.020  43.899   0.746
30983W        W 2512  37.912   0.380  11.189
30984W        W 2513  26.005  27.280   2.878
30985W        W 2514   7.178  39.801  11.201
30986W        W 2515  41.408  34.516   4.566
30987W        W 2516   8.239  30.185   3.290
30988W        W 2517  16.602   6.361  12.060
30989W        W 2518  38.252  35.411   3.587
30990W        W 2519  34.596   5.927  11.959
30991W        W 2520   6.148   7.246   3.220
30992W        W 2521   1.756  39.400  11.112
30993W        W 2522  13.157  36.529   3.344
30994W        W 2523  43.194  22.564  10.704
30995W        W 2524  37.969   1.027  14.008
30996W        W 2525   7.465   1.957  12.805
30997W        W 2526  39.072   5.910  10.788
30998W        W 2527  39.048  38.817  14.910
30999W        W 2528   6.514  18.931  11.429
31000W        W 2529  17.650   6.902   4.038
31001W        W 2530  28.652  18.495   3.986
31002W        W 2531  36.836  14.310   4.637
31003W        W 2532   4.328  34.410  13.535
31004W        W 2533   6.972  40.193  14.459
31005W        W 2534  15.836  40.627   4.169
31006W        W 2535  18.781  23.525  12.048
31007W        W 2536  34.589  28.944  12.013
31008W        W 2537   7.709  12.013  11.209
31009W        W 2538  26.793  23.632   3.614
31010W        W 2539  42.931   1.464  10.750
31011W        W 2540   5.731  37.544  11.171
31012W        W 2541  18.639   8.716  11.659
31013W        W 2542  17.658  25.414   3.896
31014W        W 2543  21.526  19.201  10.587
31015W        W 2544  18.743  40.316  14.589
31016W        W 2545  16.579  17.565  13.722
31017W        W 2546  44.903  13.124  14.137
31018W        W 2547  19.567  39.452   3.813
31019W        W 2548  15.113  24.639  12.880
31020W        W 2549  10.300  39.911  13.013
31021W        W 2550   7.956  28.211  14.836
31022W        W 2551  36.535  33.659  10.775
31023W        W 2552   6.993  27.237  14.405
31024W        W 2553  26.098  16.198   4.248
31025W        W 2554  26.982  38.027   1.936
31026W        W 2555  12.891   5.906  13.522
31027W        W 2556  10.337   4.203  13.776
31028W        W 2557  26.635  34.906  11.855
31029W        W 2558  40.279  18.781  14.279
31030W        W 2559  32.669  32.143   4.574
31031W        W 2560  25.231  26.743  13.411
31032W        W 2561  40.769   8.630   0.996
31033W        W 2562   7.823   7.166   0.934
31034W        W 2563  33.278  10.066   0.874
31035W        W 2564   1.613  36.359  12.985
31036W        W 2565  28.913  41.963  13.564
31037W        W 2566  35.893  22.694  14.923
31038W        W 2567  36.842   4.256  14.395
31039W        W 2568   6.877  25.625   2.308
31040W        W 2569  11.702  21.219  12.571
31041W        W 2570   3.151  10.661  13.652
31042W        W 2571  31.315  13.262   4.708
31043W        W 2572   9.805  16.292   4.665
31044W        W 2573  21.676  32.039   0.208
31045W        W 2574  26.720  13.891  13.308
31046W        W 2575  29.197  33.830   3.633
31047W        W 2576  15.120   2.043  14.329
31048W        W 2577   5.815  40.760  10.726
31049W        W 2578  34.131   5.771   0.043
31050W        W 2579   1.894  28.103  11.701
31051W        W 2580  20.399  24.524   3.050
31052W        W 2581   9.803  17.788  13.108
31053W        W 2582   0.856  42.293  14.445
31054W        W 2583  25.876   8.569  11.550
31055W        W 2584  14.010  14.522  14.497
31056W        W 2585  13.170  41.352   4.273
31057W        W 2586  36.880  21.308  12.035
31058W        W 2587  36.854   1.600  13.865
31059W        W 2588  41.101  30.590  10.501
31060W        W 2589  40.427  43.713  13.010
31061W        W 2590  20.046  27.441   5.040
31062W        W 2591  18.771  29.020  14.962
31063W        W 2592  24.852  29.310  13.922
31064W        W 2593  23.556   0.519   0.645
31065W        W 2594  27.707   1.928   3.736
31066W        W 2595  29.586   8.813   3.644
31067W        W 2596  17.742  27.454   0.851
31068W        W 2597  34.777  33.082   3.339
31069W        W 2598  41.125   1.296   2.281
31070W        W 2599  15.310  11.596  12.922
31071W        W 2600  38.997  19.271   0.860
31072W        W 2601  13.193   8.879  12.961
31073W        W 2602  13.679   3.850  10.672
31074W        W 2603  23.758  23.174  14.987
31075W        W 2604  25.253  18.815  11.125
31076W        W 2605   8.349  39.447  13.965
31077W        W 2606  35.867   5.517  13.189
31078W        W 2607  21.867  32.122   3.181
31079W        W 2608  18.076  21.436  13.920
31080W        W 2609   6.094  35.904   2.213
31081W        W 2610  27.652   7.989   0.004
31082W        W 2611  18.952  18.634  14.424
31083W        W 2612   9.175  41.360  13.044
31084W        W 2613  22.146  10.771   2.802
31085W        W 2614  33.613   0.212   2.136
31086W        W 2615  28.226  10.249  10.845
31087W        W 2616   4.495   6.826   4.746
31088W        W 2617   2.258  26.637  11.611
31089W        W 2618  40.447  26.737  11.484
31090W        W 2619  38.575  33.436  12.087
31091W        W 2620  11.528  19.543   3.278
31092W        W 2621  42.412  11.980   4.268
31093W        W 2622   7.935  31.355   4.862
31094W        W 2623  27.835  17.364   4.566
31095W        W 2624  29.191  42.091  11.564
31096W        W 2625  14.761  43.096   1.750
31097W        W 2626   8.604  11.712   2.684
31098W        W 2627  40.880  32.415  12.438
31099W        W 2628  28.448   3.036  12.468
31100W        W 2629  18.718  41.079  10.742
31101W        W 2630   5.074  24.044  14.107
31102W        W 2631   0.955  35.151   0.630
31103W        W 2632  23.069  25.732  11.105
31104W        W 2633  24.454  24.892  11.922
31105W        W 2634  20.495   1.935   1.762
31106W        W 2635  14.790   2.807   1.265
31107W        W 2636  41.504  33.335   4.209
31108W        W 2637   5.083  23.397   5.003
31109W        W 2638   1.341  21.448   4.518
31110W        W 2639  21.776   6.711   2.777
31111W        W 2640   5.081  15.691   3.689
31112W        W 2641   0.050  25.631  12.229
31113W        W 2642  34.332  23.780  12.766
31114W        W 2643   9.816  28.077   2.140
31115W        W 2644  10.423   2.899   3.387
31116W        W 2645  40.074   4.848  14.535
31117W        W 2646  39.208   2.977   0.035
31118W        W 2647  39.305  15.593   4.618
31119W        W 2648  40.325  13.284  13.997
31120W        W 2649   9.734  44.945  11.695
31121W        W 2650  22.010  35.625   1.407
31122W        W 2651  42.895  33.517   2.506
31123W        W 2652  26.196   3.021   3.775
31124W        W 2653   0.651  15.164  13.795
31125W        W 2654  28.453  31.263   2.343
31126W        W 2655   0.889   4.213   1.409
31127W        W 2656  33.340   6.875  12.544
31128W        W 2657   8.681  38.859   1.234
31129W        W 2658  21.312   8.920  10.655
31130W        W 2659  34.857   8.838  12.533
31131W        W 2660  33.046  41.377  11.993
31132W        W 2661   5.657   1.914   1.163
31133W        W 2662  41.493  31.587   1.272
31134W        W 2663  28.184  21.970   0.654
31135W        W 2664  27.442   4.690  12.026
31136W        W 2665   0.367   7.140   3.634
31137W        W 2666  15.172  10.273  10.742
31138W        W 2667  26.584   1.328   3.585
31139W        W 2668  34.871  27.582   3.935
31140W        W 2669  28.636  41.369   1.433
31141W        W 2670  43.744  44.533   0.986
31142W        W 2671  26.271  21.106  11.092
31143W        W 2672  29.434   1.856  13.843
31144W        W 2673  32.428  15.112  10.602
31145W        W 2674  37.799  13.256  14.600
31146W        W 2675  42.284   6.376  14.934
31147W        W 2676  39.124  22.622  12.981
31148W        W 2677  10.342  31.941   0.520
31149W        W 2678  43.473  19.941  10.491
31150W        W 2679  36.468   0.305  11.898
31151W        W 2680  33.767  11.831   3.225
31152W        W 2681  28.097  38.535   2.641
31153W        W 2682   1.246  14.655  11.612
31154W        W 2683   6.661  22.236   2.741
31155W        W 2684  34.899  21.121  14.048
31156W        W 2685  29.199  31.599  14.844
31157W        W 2686  29.979  34.372  11.685
31158W        W 2687  28.587   0.713  14.538
31159W        W 2688  19.241  31.597   2.220
31160W        W 2689   6.577   5.814  14.330
31161W        W 2690  24.098   1.801   0.234
31162W        W 2691  22.687  10.125  10.025
31163W        W 2692  35.709  17.212  10.579
31164W        W 2693  37.944  32.502  12.394
31165W        W 2694  10.066  17.410  14.310
31166W        W 2695  23.051  26.969   0.793
31167W        W 2696  28.879  18.017  10.645
31168W        W 2697  38.177  17.626  13.942
31169W        W 2698  13.786  17.241  13.994
31170W        W 2699  36.106   8.207   3.757
31171W        W 2700  43.319  44.847   0.920
31172W        W 2701  15.886  31.084  10.508
31173W        W 2702  10.236  20.654   3.679
31174W        W 2703  44.057  25.467  11.992
31175W        W 2704  29.089  19.066   3.645
31176W        W 2705  35.217  20.879  13.558
31177W        W 2706  44.702  23.764   3.544
31178W        W 2707  27.818  10.570  12.966
31179W        W 2708  33.820  14.401   1.657
31180W        W 2709  28.639  40.483   1.364
31181W        W 2710  15.301  13.117  13.819
31182W        W 2711  12.340  42.084  11.160
31183W        W 2712  20.041  41.690  13.745
31184W        W 2713  23.185  44.141  10.459
31185W        W 2714  14.713  16.520  11.915
31186W        W 2715  20.580   9.593   2.357
31187W        W 2716  39.000  20.019   2.710
31188W        W 2717   5.951  16.685   9.899
31189W        W 2718  26.287  12.566   4.543
31190W        W 2719  24.634  21.709  13.324
31191W        W 2720   2.559  23.707  14.365
31192W        W 2721   3.806  11.303   0.320
31193W        W 2722  27.566  17.448   1.921
31194W        W 2723  23.884  20.991   1.244
31195W        W 2724  18.209  44.878   3.009
31196W        W 2725   7.932  32.215  11.694
31197W        W 2726  30.288  26.455   2.791
31198W        W 2727  35.673  37.829  11.120
31199W        W 2728  18.949  26.397  12.461
31200W        W 2729  14.423  35.690  11.679
31201W        W 2730  44.061  17.821  14.303
31202W        W 2731  23.282   2.824  12.480
31203W        W 2732  16.925   0.049   2.758
31204W        W 2733  22.417   0.006   0.140
31205W        W 2734  13.641  23.493  13.970
31206W        W 2735  33.197   0.895  10.645
31207W        W 2736  38.124  31.107   1.731
31208W        W 2737   2.433  17.077   1.148
31209W        W 2738  31.079  36.499  13.524
31210W        W 2739  25.118  11.886   1.420
31211W        W 2740  10.844  19.876   4.874
31212W        W 2741  14.830  20.220   2.218
31213W        W 2742  13.809   8.649   4.077
31214W        W 2743   4.218   1.691   3.277
31215W        W 2744  41.306  19.626   2.229
31216W        W 2745  37.598  13.705   1.523
31217W        W 2746   0.576  14.039   3.398
31218W        W 2747  15.305  16.076  11.561
31219W        W 2748   2.460  17.873   2.273
31220W        W 2749  44.499  11.842   0.802
31221W        W 2750   8.053   5.771   4.821
31222W        W 2751  27.001  34.552   0.527
31223W        W 2752   2.179  19.720   2.703
31224W        W 2753  30.360  18.633   1.269
31225W        W 2754   4.740  25.279   1.967
31226W        W 2755  44.473  15.714   0.249
31227W        W 2756   6.737   8.343  11.112
31228W        W 2757  22.193   2.011   4.789
31229W        W 2758  38.854   0.834   0.057
31230W        W 2759  31.019  16.359   3.582
31231W        W 2760  29.979   4.203  14.224
31232W        W 2761  24.154  30.372  10.615
31233W        W 2762  43.669  31.058   3.018
31234W        W 2763  26.392  28.871   3.333
31235W        W 2764  24.144  35.874  14.349
31236W        W 2765  30.353   3.822   1.737
31237W        W 2766   2.275  39.935  11.651
31238W        W 2767  16.142  31.672  12.973
31239W        W 2768  17.279  11.446  14.543
31240W        W 2769   6.270  20.103  14.519
31241W        W 2770  41.260  34.863   0.235
31242W        W 2771   8.234  28.918  12.499
31243W        W 2772  14.038   7.297  11.001
31244W        W 2773  24.723  12.632  13.486
31245W        W 2774   9.865  30.954  14.462
31246W        W 2775   9.611  13.587  13.507
31247W        W 2776   1.924  23.514   0.461
31248W        W 2777  44.372   4.199   3.579
31249W        W 2778  44.356  34.279   4.619
31250W        W 2779  31.549  37.625   3.174
31251W        W 2780  41.846  16.153  13.702
31252W        W 2781  26.262  26.423  12.187
31253W        W 2782   0.444  42.708  13.687
31254W        W 2783  19.685  43.930  13.288
31255W        W 2784   5.625  33.118  10.797
31256W        W 2785  28.766   8.272   3.591
31257W        W 2786  35.132  44.309   1.290
31258W        W 2787  20.018  15.643  10.496
31259W        W 2788  17.198  23.958   4.928
31260W        W 2789   7.455  15.260  14.331
31261W        W 2790  33.488  16.717  13.491
31262W        W 2791   9.434  18.259   2.786
31263W        W 2792  22.728  11.759  12.071
31264W        W 2793   0.281  25.058   3.940
31265W        W 2794  42.461  19.059   3.889
31266W        W 2795  33.058  24.542  11.584
31267W        W 2796  44.827  27.751   1.664
31268W        W 2797   9.991   1.706   3.278
31269W        W 2798  20.552   3.076   3.078
31270W        W 2799  18.002   1.411  11.403
31271W        W 2800  15.566  42.055  13.405
31272W        W 2801  39.213  36.491  12.011
31273W        W 2802   1.455  21.059   4.183
31274W        W 2803   5.174  28.942  13.039
31275W        W 2804  32.977  26.922   0.134
31276W        W 2805  33.039  29.924  13.050
31277W        W 2806  32.180  30.231   3.718
31278W        W 2807  29.068  36.589  13.065
31279W        W 2808  26.660  44.746   3.831
31280W        W 2809  23.652  28.690  12.125
31281W        W 2810   9.652  17.295  14.868
31282W        W 2811  15.047  26.400   0.932
31283W        W 2812  36.261  29.453  14.890
31284W        W 2813  20.393  10.942   1.749
31285W        W 2814  10.051   1.802  13.338
31286W        W 2815  41.487   3.962   2.955
31287W        W 2816  40.838   1.381   1.864
31288W        W 2817   6.805   6.905   4.268
31289W        W 2818  27.619   5.969  11.106
31290W        W 2819  24.695  25.364  13.669
31291W        W 2820  22.640  21.662   0.958
31292W        W 2821  11.418  32.388  10.661
31293W        W 2822   9.448   9.412  14.396
31294W        W 2823  42.839  37.878  13.065
31295W        W 2824  41.708   7.952  11.135
31296W        W 2825   8.014  33.493   0.450
31297W        W 2826  41.451  28.492  14.055
31298W        W 2827  11.293  15.718   2.758
31299W        W 2828  29.877  25.390  14.156
31300W        W 2829  20.782  23.997   1.277
31301W        W 2830  23.515  13.275   4.762
31302W        W 2831   2.306  36.465  11.004
31303W        W 2832  15.365  17.348  13.946
31304W        W 2833   1.244  14.755   3.072
31305W        W 2834  25.110  33.329   1.715
31306W        W 2835  23.944  30.717  11.493
31307W        W 2836  43.918   5.857   3.088
31308W        W 2837  16.322  21.404  14.202
31309W        W 2838  29.082  32.892   2.354
31310W        W 2839  35.854   7.740  13.376
31311W        W 2840   7.425  19.949   4.233
31312W        W 2841  31.512  29.424  10.658
31313W        W 2842   3.652  26.669  11.107
31314W        W 2843  42.864  42.034  12.074
31315W        W 2844  21.455  42.907   0.736
31316W        W 2845  25.046  35.383   2.735
31317W        W 2846  12.034   4.125  14.433
31318W        W 2847  26.771   9.703   2.711
31319W        W 2848  29.395  29.185  13.933
31320W        W 2849  32.984  28.325   0.209
31321W        W 2850  23.269  33.529  14.003
31322W        W 2851  38.225  30.627  12.805
31323W        W 2852  20.759  33.468   2.890
31324W        W 2853  21.024  24.503  12.937
31325W        W 2854  16.218  13.380   2.806
31326W        W 2855  43.740  32.025   3.368
31327W        W 2856  33.397   5.714  12.657
31328W        W 2857  14.830  16.396   1.163
31329W        W 2858  17.135  21.871   0.863
31330W        W 2859  39.578  11.741  12.186
31331W        W 2860  11.584  28.724   0.297
31332W        W 2861   5.341   3.495   3.582
31333W        W 2862  14.175   8.422  12.964
31334W        W 2863  24.949  31.066   3.707
31335W        W 2864  42.471   7.796  11.557
31336W        W 2865   2.013   2.745   1.251
31337W        W 2866  43.306   4.804   1.765
31338W        W 2867  19.559   4.389   4.033
31339W        W 2868  37.663  16.335   3.171
31340W        W 2869  27.606  32.811  12.622
31341W        W 2870  13.545   9.294   2.174
31342W        W 2871  15.576  35.363  13.640
31343W        W 2872  35.863  30.089   1.122
31344W        W 2873  18.572  23.758   3.675
31345W        W 2874  26.781  16.201  12.448
31346W        W 2875   2.640  37.872  11.473
31347W        W 2876  25.496  21.951  12.089
31348W        W 2877  39.457  30.633  13.432
31349W        W 2878  14.891  20.741   2.218
31350W        W 2879   1.673   6.243   3.143
31351W        W 2880  10.337  20.083   0.817
31352W        W 2881  37.469  44.048  11.719
31353W        W 2882  10.246  37.516  14.381
31354W        W 2883  12.571   5.438   0.638
31355W        W 2884  14.226  36.411   2.248
31356W        W 2885  25.666  15.149  12.646
31357W        W 2886   5.831  43.754  14.179
31358W        W 2887  15.673  28.789   3.090
31359W        W 2888  42.457   7.432   1.522
31360W        W 2889  25.677  31.886   0.336
31361W        W 2890   0.069  14.600   1.687
31362W        W 2891  26.963   6.143  14.863
31363W        W 2892  39.880  20.454   3.722
31364W        W 2893  28.852  15.717  13.146
31365W        W 2894  43.163   6.401   5.179
31366W        W 2895  29.169  22.548  12.650
31367W        W 2896   7.923   2.930   1.398
31368W        W 2897  44.002   0.701  10.201
31369W        W 2898  41.444  26.115  10.442
31370W        W 2899  31.792  37.295   0.530
31371W        W 2900  43.799   4.502   4.326
31372W        W 2901  21.909  30.389   0.976
31373W        W 2902  39.851  36.539  13.038
31374W        W 2903  42.044   1.957  10.738
31375W        W 2904  39.596   2.937   1.894
31376W        W 2905  14.996   2.380  11.543
31377W        W 2906  14.803  44.799   3.228
31378W        W 2907  43.506  14.849  14.893
31379W        W 2908  20.427  31.835   1.693
31380W        W 2909  31.483   9.413  14.250
31381W        W 2910   4.166  36.131  12.477
31382W        W 2911  35.717  35.144  11.505
31383W        W 2912   2.345  38.431   3.577
31384W        W 2913   5.153  40.121   0.379
31385W        W 2914   1.329  13.125  14.878
31386W        W 2915  17.073  40.052   1.354
31387W        W 2916   9.710  22.072   2.105
31388W        W 2917  20.913  15.852  14.879
31389W        W 2918  39.035  13.266  13.774
31390W        W 2919  10.262   4.358  12.383
31391W        W 2920  29.704  29.695  12.963
31392W        W 2921  32.225  30.548   3.230
31393W        W 2922  36.423  30.537  11.610
31394W        W 2923  24.800  30.126   4.547
31395W        W 2924  21.292  23.785  14.292
31396W        W 2925  11.732   7.526   3.129
31397W        W 2926  36.425  35.599   4.607
31398W        W 2927  34.694  36.955   2.119
31399W        W 2928  18.631  14.138  11.782
31400W        W 2929  35.092  39.580  11.964
31401W        W 2930  44.225  17.547   1.976
31402W        W 2931  27.447  36.378  11.644
31403W        W 2932  42.970   4.962   4.433
31404W        W 2933   9.806  38.878  10.702
31405W        W 2934  41.033  39.764   3.473
31406W        W 2935  21.484  44.033  12.370
31407W        W 2936  30.606  24.480  13.041
31408W        W 2937  29.695   5.282  12.376
31409W        W 2938  18.546   3.730   2.492
31410W        W 2939  39.107   3.829   1.517
31411W        W 2940  27.309  30.695   4.479
31412W        W 2941  38.729  10.586  11.662
31413W        W 2942  30.570  26.163  13.979
31414W        W 2943  28.189  17.767   3.395
31415W        W 2944  12.773  42.598  13.439
31416W        W 2945  26.406  37.370   0.883
31417W        W 2946   6.845  10.035   4.265
31418W        W 2947  27.453  26.421  10.293
31419W        W 2948  42.441  12.197   4.753
31420W        W 2949  10.169  19.127   0.679
31421W        W 2950  21.060   5.028  14.831
31422W        W 2951  34.177  43.005   4.210
31423W        W 2952  27.025  28.885  14.758
31424W        W 2953  44.039  24.998   0.755
31425W        W 2954   2.294  36.926  13.759
31426W        W 2955  41.458  29.809  12.911
31427W        W 2956  41.348  37.531   0.821
31428W        W 2957  36.290   8.823   4.063
31429W        W 2958  25.212  42.422   3.715
31430W        W 2959  11.666  30.100   1.542
31431W        W 2960  24.682  41.570   4.670
31432W        W 2961  43.429  37.158   1.200
31433W        W 2962  18.285  36.976  12.546
31434W        W 2963  35.981  39.837  13.152
31435W        W 2964  29.113  35.857  14.811
31436W        W 2965  16.573  24.419  12.484
31437W        W 2966  21.101   0.064   2.343
31438W        W 2967  28.125  25.966  12.524
31439W        W 2968  22.251  14.121   0.219
31440W        W 2969  40.845  15.092  12.537
31441W        W 2970   2.951   9.812   4.604
31442W        W 2971   8.959  15.276   3.237
31443W        W 2972  23.992  15.488  14.448
31444W        W 2973  28.246   0.299  14.573
31445W        W 2974   6.765  33.823   2.390
31446W        W 2975  29.250  40.319   3.825
31447W        W 2976  27.933   4.623  14.562
31448W        W 2977  21.275  13.660  12.811
31449W        W 2978  19.111   0.656  11.930
31450W        W 2979   6.811  28.116  12.806
31451W        W 2980  28.484  32.432  10.658
31452W        W 2981  40.972  36.381  13.816
31453W        W 2982  43.311  39.784  12.623
31454W        W 2983  22.295  11.508  10.046
31455W        W 2984  17.972  36.116  11.004
31456W        W 2985   1.996   7.934  11.046
31457W        W 2986  38.805  43.500   4.234
31458W        W 2987  19.104  23.322  11.719
31459W        W 2988  29.479  25.147   2.389
31460W        W 2989   3.990  15.710  13.058
31461W        W 2990  35.217  32.880   2.440
31462W        W 2991  20.664  31.118   3.146
31463W        W 2992  10.075  20.106   4.789
31464W        W 2993  20.467  22.548  11.608
31465W        W 2994  33.365   8.156  11.189
31466W        W 2995  12.313  20.487  10.665
31467W        W 2996  36.398  15.562   4.152
31468W        W 2997  30.972  27.984  11.977
31469W        W 2998  28.558  29.410  13.767
31470W        W 2999  20.086  44.690   4.500
31471W        W 3000  15.701  13.155  14.199
31472W        W 3001  18.783   4.922  13.842
31473W        W 3002   2.749   7.915  13.432
31474W        W 3003  43.495   1.000  13.281
31475W        W 3004   6.131  34.013  11.752
31476W        W 3005  34.949  15.146   1.255
31477W        W 3006  19.183  26.821   2.206
31478W        W 3007  42.614  15.570  12.601
31479W        W 3008   1.522   8.636  11.517
31480W        W 3009   5.506  39.173  12.462
31481W        W 3010  32.174  44.452   1.662
31482W        W 3011   2.519  31.018   0.836
31483W        W 3012  32.125  41.511  14.882
31484W        W 3013  18.029  43.972   1.306
31485W        W 3014  44.028  20.500  11.140
31486W        W 3015  42.049  19.713  13.884
31487W        W 3016  25.225  18.527  11.571
31488W        W 3017   2.702  24.262   2.690
31489W        W 3018  44.241   8.922  12.031
31490W        W 3019  37.617  25.001   2.947
31491W        W 3020  43.314  12.095  13.533
31492W        W 3021  40.089  41.359   3.672
31493W        W 3022  29.147  24.979  11.562
31494W        W 3023  38.950  16.003   2.725
31495W        W 3024   8.549  41.306  14.539
31496W        W 3025  36.845  36.034  10.667
31497W        W 3026   3.413  39.937   4.803
31498W        W 3027  43.725  31.949  14.357
31499W        W 3028  27.554   7.213   1.244
31500W        W 3029  19.304  36.110  12.862
31501W        W 3030  27.989  18.373  13.750
31502W        W 3031  18.826  36.219   1.220
31503W        W 3032  36.081   5.142  12.180
31504W        W 3033  19.094  34.346  14.756
31505W        W 3034  25.890  39.020  11.160
31506W        W 3035  26.152  10.916   1.155
31507W        W 3036  18.524   3.462  14.910
31508W        W 3037   8.079  34.915   1.507
31509W        W 3038  28.287  21.206  14.342
31510W        W 3039  42.101   5.033   0.006
31511W        W 3040  19.695  39.022   2.811
31512W        W 3041   1.201  41.877   2.074
31513W        W 3042  28.854  41.548  12.450
31514W        W 3043  37.318  10.761   0.931
31515W        W 3044   7.534  19.938   0.998
31516W        W 3045  25.731  30.956   2.723
31517W        W 3046   2.318  18.108   4.597
31518W        W 3047  23.330   2.813  10.671
31519W        W 3048   5.529  34.883   3.594
31520W        W 3049   9.784  27.883  11.654
31521W        W 3050  32.556   8.631   1.869
31522W        W 3051  21.031  41.821  12.353
31523W        W 3052   5.565  37.531   0.148
31524W        W 3053   9.968  10.068  11.076
31525W        W 3054  12.706  25.633   3.260
31526W        W 3055  28.615  39.986  10.659
31527W        W 3056  18.110  26.015   2.309
31528W        W 3057  38.170  42.983  11.664
31529W        W 3058   0.020  15.334   3.363
31530W        W 3059  23.592  10.167   4.501
31531W        W 3060   5.244  22.268   1.835
31532W        W 3061  31.421  26.173   0.523
31533W        W 3062  37.028  40.290  12.590
31534W        W 3063  23.255   3.269   0.475
31535W        W 3064  10.785  26.251   4.109
31536W        W 3065  28.426  10.266  14.877
31537W        W 3066  25.595  17.595   1.792
31538W        W 3067   2.321  17.342   2.312
31539W        W 3068  30.554  32.492   1.257
31540W        W 3069   4.312   1.720   2.381
31541W        W 3070   1.725  27.436  14.453
31542W        W 3071   5.612   0.843  14.337
31543W        W 3072  15.804  34.710   1.356
31544W        W 3073  29.504  39.344   1.150
31545W        W 3074  21.144   2.066   1.139
31546W        W 3075  37.201  44.880   1.054
31547W        W 3076   8.210   2.757   0.216
31548W        W 3077  27.016  31.452   2.948
31549W        W 3078  43.704  28.136   0.323
31550W        W 3079  10.650  33.974  14.699
31551W        W 3080  32.929  35.288   0.884
31552W        W 3081  22.706  33.906   0.125
31553W        W 3082   1.202  30.140  11.289
31554W        W 3083  35.238   5.926  11.154
31555W        W 3084  25.577   4.673   2.642
31556W        W 3085   1.899   8.377  11.253
31557W        W 3086  13.358  38.435  12.009
31558W        W 3087   3.146   8.744   1.116
31559W        W 3088  16.224  36.341   0.714
31560W        W 3089  21.670   1.243   1.131
31561W        W 3090   6.352  10.931  11.633
31562W        W 3091  18.380   8.992   0.440
31563W        W 3092  23.494   0.742   3.384
31564W        W 3093  12.727  18.142   4.593
31565W        W 3094   7.110  36.858  13.619
31566W        W 3095  34.114  10.859  10.689
31567W        W 3096  34.047  28.028  11.153
31568W        W 3097  20.688   1.166  12.047
31569W        W 3098  22.420  32.454  13.404
31570W        W 3099  13.821  30.991   0.048
31571W        W 3100  40.934  43.696  11.569
31572W        W 3101  41.501   4.651  13.516
31573W        W 3102  15.593  22.058   4.143
31574W        W 3103  33.481   5.212  14.377
31575W        W 3104  36.434  18.289   0.366
31576W        W 3105  42.828  41.380   2.164
31577W        W 3106  30.869   7.594   2.879
31578W        W 3107  15.131  38.295   3.245
31579W        W 3108  33.987  43.328  11.229
31580W        W 3109  28.889   5.175   0.738
31581W        W 3110   0.410   0.345  11.255
31582W        W 3111  20.190  17.377   2.006
31583W        W 3112  39.009  38.852   4.133
31584W        W 3113  23.607   2.930   2.096
31585W        W 3114  11.604  10.145  11.120
31586W        W 3115  25.094  41.709   3.446
31587W        W 3116  23.513  17.659   2.162
31588W        W 3117  22.738  27.442  11.919
31589W        W 3118   7.122   0.846   3.286
31590W        W 3119  22.261  29.051  13.942
31591W        W 3120  13.144  18.159   3.886
31592W        W 3121   4.342  32.930  12.594
31593W        W 3122  27.937  39.362  13.973
31594W        W 3123  42.268  35.314   0.773
31595W        W 3124   7.473  16.031  13.547
31596W        W 3125  44.262  30.009   1.275
31597W        W 3126   0.733  12.183   2.643
31598W        W 3127  44.404  18.659  11.512
31599W        W 3128  22.267  24.586   2.598
31600W        W 3129   1.722   3.840  12.968
31601W        W 3130  44.714   6.510  14.404
31602W        W 3131  34.120  31.261   2.963
31603W        W 3132  42.405  22.470  12.880
31604W        W 3133  12.659  18.291   1.179
31605W        W 3134  22.078  42.615  11.962
31606W        W 3135  15.748  28.659   0.973
31607W        W 3136   8.658   7.926   4.221
31608W        W 3137  24.155  26.934   1.471
31609W        W 3138  26.917  38.947   4.965
31610W        W 3139  11.362  35.163   3.661
31611W        W 3140  28.836  37.456   1.938
31612W        W 3141  35.202  23.011   4.662
31613W        W 3142   0.900  23.087   3.815
31614W        W 3143  39.353   6.881   3.597
31615W        W 3144  32.993  18.597  14.867
31616W        W 3145  27.958   2.862   0.467
31617W        W 3146  21.602  42.376   4.128
31618W        W 3147  27.030  44.293   2.815
31619W        W 3148   1.944  39.442   4.477
31620W        W 3149  17.005  44.435   0.744
31621W        W 3150  43.767   8.392   2.579
31622W        W 3151  35.387   9.344   3.174
31623W        W 3152  15.244  12.704   3.515
31624W        W 3153   1.164  24.513   3.228
31625W        W 3154  40.514   0.253  12.948
31626W        W 3155  37.487  33.862   1.578
31627W        W 3156  26.508  39.892   1.561
31628W        W 3157   9.112  15.936  12.380
31629W        W 3158  25.510  19.173  11.425
31630W        W 3159   0.115   5.502   2.108
31631W        W 3160  25.963  20.325   0.845
31632W        W 3161  13.085  37.315  11.988
31633W        W 3162  31.672  21.883   1.484
31634W        W 3163  18.847  43.820  12.104
31635W        W 3164  20.296  30.455  13.677
31636W        W 3165  18.030  17.576  10.702
31637W        W 3166  34.428   3.690  11.158
31638W        W 3167  36.065  14.817   4.826
31639W        W 3168  42.355  20.549  12.954
31640W        W 3169  11.207  43.941  10.609
31641W        W 3170   3.026  32.164   1.303
31642W        W 3171   1.187  34.512   1.196
31643W        W 3172  27.808  12.394   4.963
31644W        W 3173  43.800  34.134   4.048
31645W        W 3174   5.967  30.750  14.333
31646W        W 3175  22.349  22.468   4.243
31647W        W 3176  25.417  27.394   2.063
31648W        W 3177   3.639  27.771  14.352
31649W        W 3178  24.268  12.645   4.464
31650W        W 3179  35.623  18.119  14.571
31651W        W 3180   1.732  31.432   1.425
31652W        W 3181  10.437  28.643  13.406
31653W        W 3182  43.221  27.530  14.893
31654W        W 3183  16.711  35.147   1.666
31655W        W 3184   6.723  30.093  14.500
31656W        W 3185  37.708   8.865   4.231
31657W        W 3186  12.513   0.384   3.712
31658W        W 3187  21.478   9.150  11.098
31659W        W 3188  31.124  34.412   0.556
31660W        W 3189  40.446  16.611  12.079
31661W        W 3190  21.761  44.791  11.845
31662W        W 3191  14.097  16.595   2.255
31663W        W 3192  35.597  18.708   3.802
31664W        W 3193  19.745  15.978  13.401
31665W        W 3194  28.546  39.297   3.675
31666W        W 3195  39.278  43.335   4.100
31667W        W 3196  39.052  18.002  10.364
31668W        W 3197  11.789   8.163  14.913
31669W        W 3198   4.741  26.401   2.809
31670W        W 3199  38.511   2.438   2.782
31671W        W 3200  13.889  31.097   4.391
31672W        W 3201  25.496  44.054   2.797
31673W        W 3202  34.059  12.011  11.269
31674W        W 3203   4.543  34.566   3.781
31675W        W 3204  20.070  42.619  12.587
31676W        W 3205  37.618  15.863  10.741
31677W        W 3206  21.587  34.019   3.576
31678W        W 3207  17.598  40.877   2.396
31679W        W 3208  43.432  27.979   1.746
31680W        W 3209  16.230   8.941  12.465
31681W        W 3210  29.128  28.630   1.230
31682W        W 3211   4.484  39.439  11.614
31683W        W 3212  27.561   4.313   0.893
31684W        W 3213  14.822  40.765   3.645
31685W        W 3214  35.288  37.032  12.224
31686W        W 3215   7.186  44.945   3.828
31687W        W 3216  43.868   4.130   0.424
31688W        W 3217  42.464  39.579  11.564
31689W        W 3218  13.427  36.843  12.872
31690W        W 3219   0.667  11.895  13.375
31691W        W 3220  40.820  31.474  11.089
31692W        W 3221   6.404  34.385  12.062
31693W        W 3222  20.316  23.254   0.013
31694W        W 3223  44.637  36.757   2.771
31695W        W 3224  34.343  27.001  12.591
31696W        W 3225  42.120   6.875   2.141
31697W        W 3226  40.356  33.903   3.286
31698W        W 3227  15.563   5.732  10.510
31699W        W 3228  28.776  20.516  13.969
31700W        W 3229  43.570  19.818   0.536
31701W        W 3230   5.015  30.991  14.413
31702W        W 3231   1.836  24.960  13.955
31703W        W 3232  14.051   0.285  14.578
31704W        W 3233   3.203   8.318   3.796
31705W        W 3234  16.724   9.111   2.901
31706W        W 3235   6.270  13.246   2.298
31707W        W 3236  24.504   7.501   2.359
31708W        W 3237   2.123   0.010  13.964
31709W        W 3238  22.711  29.033  12.183
31710W        W 3239  36.548  15.758  11.702
31711W        W 3240  42.046   1.281   1.213
31712W        W 3241  11.819   2.957   4.078
31713W        W 3242   5.059  14.235   3.777
31714W        W 3243  25.175  41.909  11.432
31715W        W 3244  31.289  25.462   0.876
31716W        W 3245  42.907  18.027   2.788
31717W        W 3246  10.246  31.519   4.936
31718W        W 3247  13.314  16.039   4.668
31719W        W 3248  36.306  21.160  10.271
31720W        W 3249   3.506  39.052   3.431
31721W        W 3250  38.096  14.134  13.521
31722W        W 3251  22.928  36.158   1.694
31723W        W 3252  44.505  29.158   1.260
31724W        W 3253  25.668  41.771   1.175
31725W        W 3254  15.076  10.654  14.783
31726W        W 3255  43.810  32.645  11.146
31727W        W 3256  11.091   0.026   3.308
31728W        W 3257  43.409  40.756  12.298
31729W        W 3258   1.861  26.784   1.088
31730W        W 3259  41.999  34.095   4.770
31731W        W 3260  43.615  19.698  11.505
31732W        W 3261  34.889  42.365   1.047
31733W        W 3262  35.512   7.419   2.845
31734W        W 3263  11.834  24.886   4.617
31735W        W 3264  44.295  44.996  12.709
31736W        W 3265  37.861  37.651   1.322
31737W        W 3266  18.130   2.448  14.835
31738W        W 3267  13.843  21.014  13.548
31739W        W 3268   4.230   9.784  13.380
31740W        W 3269  25.263   0.689   4.179
31741W        W 3270   8.808  16.563  10.590
31742W        W 3271  44.871  37.015   0.008
31743W        W 3272   3.720  17.314   1.259
31744W        W 3273  18.330  23.321  14.384
31745W        W 3274  14.217  33.592  14.965
31746W        W 3275  14.314  13.196  13.863
31747W        W 3276   7.365   1.341  10.742
31748W        W 3277  25.692   6.765  11.701
31749W        W 3278  20.295  16.697   0.881
31750W        W 3279  14.776  27.193   3.725
31751W        W 3280  11.422  29.273  12.432
31752W        W 3281  31.671  38.251   3.844
31753W        W 3282  18.847   0.557  13.212
31754W        W 3283  34.392   1.461  10.724
31755W        W 3284   8.693   2.007   0.057
31756W        W 3285  21.473  27.142   2.298
31757W        W 3286  36.330  43.440  13.149
31758W        W 3287  33.153  13.767  11.765
31759W        W 3288  18.531  17.501  11.575
31760W        W 3289  35.160  18.830  11.198
31761W        W 3290  15.141  16.945  12.515
31762W        W 3291  23.908   0.856   1.444
31763W        W 3292  35.452  19.446   4.124
31764W        W 3293  15.842   7.236  11.535
31765W        W 3294  19.503  28.475   1.966
31766W        W 3295   1.515  20.696   3.355
31767W        W 3296   3.913  12.169  10.774
31768W        W 3297  39.516  37.084   4.520
31769W        W 3298  36.961  29.149   2.023
31770W        W 3299  30.724  17.274  10.687
31771W        W 3300  28.966  40.995   0.392
31772W        W 3301  37.186  39.954   2.228
31773W        W 3302  35.537  31.357  13.546
31774W        W 3303  36.498  34.934   2.394
31775W        W 3304   0.478  19.259  13.355
31776W        W 3305  34.847  13.121   2.847
31777W        W 3306   3.426  41.430   2.220
31778W        W 3307  32.879  39.970   0.824
31779W        W 3308  24.672  44.348  14.092
31780W        W 3309  35.910  42.020  12.142
31781W        W 3310  37.583  22.612  12.173
31782W        W 3311  31.764  34.361  14.362
31783W        W 3312   4.274  41.927   1.283
31784W        W 3313  30.585  14.635  10.252
31785W        W 3314  23.374  41.296  14.792
31786W        W 3315  18.068  11.593  11.215
31787W        W 3316  32.642   3.662   2.063
31788W        W 3317   2.550  19.024   2.375
31789W        W 3318   5.827  30.036   4.600
31790W        W 3319  24.479   7.937   1.366
31791W        W 3320  36.681  38.894   2.482
31792W        W 3321   3.823  33.018  11.971
31793W        W 3322  36.370  36.944  13.804
31794W        W 3323   0.034  11.336  12.589
31795W        W 3324  23.919   5.525  11.492
31796W        W 3325   5.661   1.230  10.781
31797W        W 3326  38.933  24.781   4.182
31798W        W 3327   1.236  38.405  12.209
31799W        W 3328  30.182   4.209  10.535
31800W        W 3329   0.824  16.380  13.188
31801W        W 3330  17.594  32.357   4.910
31802W        W 3331   8.690  27.932   2.750
31803W        W 3332  16.736  14.636   0.341
31804W        W 3333   2.114  41.483   5.018
31805W        W 3334   9.917  28.623  13.393
31806W        W 3335  19.038  29.630  14.853
31807W        W 3336  25.676  17.036  12.565
31808W        W 3337  44.986  36.044  13.301
31809W        W 3338  41.996  35.028   4.100
31810W        W 3339  34.040  37.738   4.413
31811W        W 3340  36.121   2.310   3.364
31812W        W 3341  33.020   7.155   1.233
31813W        W 3342   8.860  40.625  11.775
31814W        W 3343  21.007  25.645   2.210
31815W        W 3344  19.521  13.670  14.725
31816W        W 3345  25.605   7.080  12.122
31817W        W 3346  44.788  12.089   2.816
31818W        W 3347  14.331  36.382   0.501
31819W        W 3348   7.422  22.898   2.970
31820W        W 3349  41.923  12.727  11.224
31821W        W 3350   4.253  22.474   4.165
31822W        W 3351   2.538  18.051  12.922
31823W        W 3352  14.357  37.772  10.776
31824W        W 3353   4.435  44.840  14.397
31825W        W 3354  32.894   4.480  11.532
31826W        W 3355  15.226  11.650   0.697
31827W        W 3356  43.213  20.269  10.814
31828W        W 3357   6.875  20.304  11.578
31829W        W 3358  20.999  37.316   0.989
31830W        W 3359  17.142  35.594  11.175
31831W        W 3360  22.556  32.431   2.934
31832W        W 3361  43.427  16.858   4.214
31833W        W 3362  32.301  42.006  14.570
31834W        W 3363  34.527   3.259  13.289
31835W        W 3364   5.668  37.271  11.616
31836W        W 3365  42.763   7.681   1.858
31837W        W 3366  44.408   0.210   2.822
31838W        W 3367  20.141  19.241  12.037
31839W        W 3368  40.361  28.164  13.613
31840W        W 3369  27.839  36.519   4.558
31841W        W 3370  33.339   0.570   2.721
31842W        W 3371  27.488   7.611   1.688
31843W        W 3372  34.408   9.934   4.664
31844W        W 3373   2.978  27.744   4.256
31845W        W 3374  40.472  29.050  14.077
31846W        W 3375  10.804   7.626  12.313
31847W        W 3376   2.213  40.516   3.814
31848W        W 3377  26.127  28.731   4.316
31849W        W 3378   6.192  12.294   2.156
31850W        W 3379  28.001  34.411  13.018
31851W        W 3380  16.605   4.712  11.502
31852W        W 3381  43.498  35.922   5.099
31853W        W 3382   0.760  33.832  10.694
31854W        W 3383  28.383  20.398  14.817
31855W        W 3384  19.932  20.187  12.369
31856W        W 3385  19.842  17.524  14.565
31857W        W 3386  19.750   0.395   1.383
31858W        W 3387  43.729  39.656   0.804
31859W        W 3388   5.650  18.588  11.132
31860W        W 3389  21.928  38.485  10.651
31861W        W 3390  29.437  24.452   1.808
31862W        W 3391  20.326  36.547   0.230
31863W        W 3392  34.816  33.491   1.375
31864W        W 3393  16.689  34.414  14.818
31865W        W 3394  25.628   4.521  12.868
31866W        W 3395  16.240  26.542  12.623
31867W        W 3396  10.213  18.686  11.105
31868W        W 3397  18.188  32.142   2.771
31869W        W 3398  16.334  25.954  14.009
31870W        W 3399  38.351   0.314  11.968
31871W        W 3400  22.163   8.867  14.078
31872W        W 3401  19.828  44.464  10.186
31873W        W 3402  41.968  38.001   4.096
31874W        W 3403  10.792  19.759   1.712
31875W        W 3404  17.058  39.103   4.664
31876W        W 3405  37.024   3.708   0.425
31877W        W 3406  11.861  35.840   4.612
31878W        W 3407  27.009  20.489  13.056
31879W        W 3408  34.877  12.288  12.129
31880W        W 3409  40.753  28.062  11.103
31881W        W 3410  30.604  34.447   2.748
31882W        W 3411  32.253  32.076   5.040
31883W        W 3412  28.193  16.552   3.982
31884W        W 3413  34.196  23.952   0.814
31885W        W 3414  44.977  36.134   2.407
31886W        W 3415  37.733  17.842  13.690
31887W        W 3416  39.369  25.646   2.649
31888W        W 3417  27.186  16.571   4.121
31889W        W 3418  17.568  10.440  13.787
31890W        W 3419  35.015  32.608   4.557
31891W        W 3420  43.377  21.580   4.597
31892W        W 3421  31.001   1.681  12.586
31893W        W 3422  41.357   0.927  12.383
31894W        W 3423   5.334  26.585  10.704
31895W        W 3424  34.554  26.160  14.323
31896W        W 3425   3.850  41.391   0.197
31897W        W 3426   1.746  24.677  12.973
31898W        W 3427  16.620  34.419  10.762
31899W        W 3428  27.661   0.852  14.457
31900W        W 3429   1.428  44.775   1.355
31901W        W 3430  36.134   7.170   0.379
31902W        W 3431  32.410  40.584  13.231
31903W        W 3432   5.877  43.990  12.011
31904W        W 3433  12.120  14.051  13.835
31905W        W 3434  31.100   2.394  14.378
31906W        W 3435  11.180  37.942  12.600
31907W        W 3436  41.622  29.883  13.761
31908W        W 3437  15.923   8.868   2.352
31909W        W 3438   5.236  42.286  12.569
31910W        W 3439  35.523  31.188  10.464
31911W        W 3440  29.661   0.264  14.437
31912W        W 3441  31.067  26.734  14.736
31913W        W 3442  15.545   7.647   1.758
31914W        W 3443  35.325  25.982  12.824
31915W        W 3444  15.916  41.041   3.462
31916W        W 3445  19.060  25.756   1.349
31917W        W 3446  20.546  11.688   2.232
31918W        W 3447   8.377  19.206  13.553
31919W        W 3448  10.783  31.604   3.230
31920W        W 3449   9.611  24.010   4.131
31921W        W 3450  33.029  30.443  10.548
31922W        W 3451  43.818  23.754   3.325
31923W        W 3452  29.376  36.189   2.141
31924W        W 3453  13.629  36.334   3.238
31925W        W 3454  40.636  37.988   1.393
31926W        W 3455   6.625  25.979   0.948
31927W        W 3456  27.993   0.867   4.199
31928W        W 3457  32.400   1.938   5.121
31929W        W 3458  32.064  31.863   0.243
31930W        W 3459  32.143  26.014   1.768
31931W        W 3460   2.301  12.072  10.877
31932W        W 3461  34.516  29.955  12.134
31933W        W 3462   0.890  26.915   3.689
31934W        W 3463  36.999  12.771  12.908
31935W        W 3464  36.931  40.800   1.572
31936W        W 3465  23.675  35.526  10.646
31937W        W 3466   4.480   3.721  11.696
31938W        W 3467  40.559  26.396   2.542
31939W        W 3468  27.536  40.877   3.632
31940W        W 3469   9.852  18.657  14.255
31941W        W 3470  42.778  20.524   4.226
31942W        W 3471  41.918  31.947   4.044
31943W        W 3472   8.336   8.149  13.356
31944W        W 3473   0.738   0.932   0.707
31945W        W 3474  16.125   5.238   0.661
31946W        W 3475  39.584  23.495   1.430
31947W        W 3476   5.154  43.745  11.545
31948W        W 3477  21.248  32.069   0.537
31949W        W 3478  21.112  13.144  14.524
31950W        W 3479  20.059  43.441   2.211
31951W        W 3480   5.896   3.431   2.228
31952W        W 3481  40.791  15.772  10.881
31953W        W 3482  32.454  20.106  10.965
31954W        W 3483  32.896   7.873   4.472
31955W        W 3484  30.284   3.370  12.442
31956W        W 3485  17.163  44.040  13.991
31957W        W 3486   8.714  24.998   3.900
31958W        W 3487  36.800  38.864  10.985
31959W        W 3488  40.363  17.768   1.353
31960W        W 3489  23.693   7.885   1.597
31961W        W 3490  13.345  16.150  11.968
31962W        W 3491  16.678  43.017  11.563
31963W        W 3492   9.604  13.318   2.173
31964W        W 3493  21.305   3.441   3.087
31965W        W 3494  31.620  31.835  11.996
31966W        W 3495  10.416  14.335   3.066
31967W        W 3496   2.578  25.100   1.325
31968W        W 3497  10.259  17.559  13.067
31969W        W 3498  14.109  10.556  14.738
31970W        W 3499   2.121  21.430   3.819
31971W        W 3500  27.899  42.200   1.361
31972W        W 3501  10.688   7.107   4.287
31973W        W 3502  15.955   9.003  14.753
31974W        W 3503  27.987  28.115  13.888
31975W        W 3504  40.077  25.974  11.567
31976W        W 3505  18.523  26.472  14.865
31977W        W 3506   8.203   9.184  12.424
31978W        W 3507  29.235  40.297  11.436
31979W        W 3508  25.218   9.864  12.035
31980W        W 3509   2.153  23.443  13.981
31981W        W 3510  26.457  16.155  13.756
31982W        W 3511  26.666   0.374  10.871
31983W        W 3512   2.245  39.538  11.096
31984W        W 3513  37.085  41.810   1.404
31985W        W 3514  15.163  18.970   2.179
31986W        W 3515  42.980  14.102   0.902
31987W        W 3516   0.803  29.412   3.721
31988W        W 3517  37.871  44.234  14.392
31989W        W 3518  12.706  40.729   3.303
31990W        W 3519   6.683  22.454   3.240
31991W        W 3520   0.284  20.266   1.702
31992W        W 3521  22.581  25.874  11.067
31993W        W 3522   8.414  35.834   4.213
31994W        W 3523  19.454  26.036   3.573
31995W        W 3524  18.322   0.384  14.008
31996W        W 3525  30.881  16.914  11.176
31997W        W 3526   6.761   0.953  13.261
31998W        W 3527  26.868  10.839   2.408
31999W        W 3528  15.645   5.629  14.808
32000W        W 3529  17.626  30.170  12.792
32001W        W 3530  26.428   1.568   1.455
32002W        W 3531  18.055  22.131   3.774
32003W        W 3532   4.342  43.477  11.021
32004W        W 3533  42.383   3.799   0.597
32005W        W 3534  16.624  27.961  13.785
32006W        W 3535   3.180  28.876   3.362
32007W        W 3536  44.560  26.173  11.124
32008W        W 3537  24.789   1.231   4.914
32009W        W 3538  23.801  38.795   4.393
32010W        W 3539  22.977  20.464  14.800
32011W        W 3540  16.733  34.640  13.248
32012W        W 3541  23.478  32.583  14.480
32013W        W 3542   5.239  15.848   4.617
32014W        W 3543  33.892  21.702   3.181
32015W        W 3544  28.580  43.491   3.184
32016W        W 3545  31.339   4.979   4.608
32017W        W 3546  28.952  25.778   3.361
32018W        W 3547  29.080   4.823  12.947
32019W        W 3548  33.395  36.945  13.032
32020W        W 3549  36.003  29.559   2.734
32021W        W 3550   8.078  38.967  14.314
32022W        W 3551   5.875  21.703   4.693
32023W        W 3552  40.329  17.559   0.878
32024W        W 3553  17.644  20.656  11.689
32025W        W 3554  30.185  44.030   0.795
32026W        W 3555   5.919   2.416   4.296
32027W        W 3556  38.166   9.857  12.785
32028W        W 3557   0.009  14.165   0.753
32029W        W 3558  29.887  35.615   0.489
32030W        W 3559  38.736  15.087  10.284
32031W        W 3560  19.058  29.278   4.034
32032W        W 3561  18.991  24.752   3.294
32033W        W 3562  19.534  44.003  14.762
32034W        W 3563  35.799  17.346   3.586
32035W        W 3564   8.923  39.508   0.051
32036W        W 3565   1.116   0.010   0.934
32037W        W 3566  22.079  23.957   3.251
32038W        W 3567  40.600  11.932   4.536
32039W        W 3568  36.022   0.919   5.025
32040W        W 3569   6.917   6.295  13.399
32041W        W 3570  38.058  24.101   0.748
32042W        W 3571   8.577  42.054   0.708
32043W        W 3572   2.826  28.628   1.770
32044W        W 3573  35.122   2.336   2.097
32045W        W 3574  21.974   0.221  14.457
32046W        W 3575  33.596  40.361   4.228
32047W        W 3576  39.081  26.204  11.539
32048W        W 3577  23.685   7.354   4.222
32049W        W 3578  23.989  28.192   3.792
32050W        W 3579   8.429   7.679  13.542
32051W        W 3580  38.413   0.786  14.767
32052W        W 3581  21.087  43.004   0.313
32053W        W 3582  21.677  23.501   3.136
32054W        W 3583  22.925  19.532  13.933
32055W        W 3584  29.131   2.432  14.926
32056W        W 3585  16.299  18.246   0.732
32057W        W 3586   0.807  14.984  14.269
32058W        W 3587  26.731   5.881   3.771
32059W        W 3588   8.194  35.290  14.846
32060W        W 3589  32.652  44.218   4.106
32061W        W 3590  15.296   6.029  12.345
32062W        W 3591  16.094  19.063  11.094
32063W        W 3592   2.106  26.182  13.474
32064W        W 3593   9.639   6.852  11.404
32065W        W 3594  26.607  22.374  11.632
32066W        W 3595  27.559  42.472   4.898
32067W        W 3596  11.335  26.232  11.194
32068W        W 3597  25.656  27.480  14.020
32069W        W 3598   0.908   2.917  13.478
32070W        W 3599  31.509   4.874  11.220
32071W        W 3600  18.658   7.428  12.069
32072W        W 3601   2.992   7.304   3.748
32073W        W 3602  30.038  20.780  11.612
32074W        W 3603  37.581   7.330   1.947
32075W        W 3604   0.741  33.850  12.009
32076W        W 3605  24.074  28.900   1.219
32077W        W 3606  30.545   9.659   3.201
32078W        W 3607  43.744   7.237  12.580
32079W        W 3608  15.661  37.986  10.772
32080W        W 3609  30.782  25.664  11.482
32081W        W 3610  15.511  44.937  10.665
32082W        W 3611  29.066  28.644  10.610
32083W        W 3612  11.735  13.349   2.872
32084W        W 3613  16.863  43.618  13.378
32085W        W 3614  20.141  43.920  13.077
32086W        W 3615  44.349  44.805   1.902
32087W        W 3616  14.997   4.146  11.167
32088W        W 3617  15.173  31.387  12.534
32089W        W 3618   1.615  27.615   1.236
32090W        W 3619  39.431  25.950   4.821
32091W        W 3620  23.051  10.888  13.771
32092W        W 3621   1.391  34.318  13.431
32093W        W 3622  18.683  30.377   4.866
32094W        W 3623  19.846  23.525  11.262
32095W        W 3624  20.841   0.404   0.473
32096W        W 3625  14.857  25.077  14.863
32097W        W 3626  23.180  15.119  10.546
32098W        W 3627  10.599  36.628   0.233
32099W        W 3628  20.395  37.068  13.381
32100W        W 3629  41.731   6.137   4.581
32101W        W 3630   2.412  12.252   0.117
32102W        W 3631  24.210   1.455   4.235
32103W        W 3632  23.249   4.479  12.003
32104W        W 3633   0.042   8.752  11.629
32105W        W 3634  31.528  22.542  12.856
32106W        W 3635  41.585  13.737   4.758
32107W        W 3636  28.524  41.917  12.140
32108W        W 3637  27.583  22.525  13.026
32109W        W 3638   1.447   9.301  11.971
32110W        W 3639  26.470  19.289  13.475
32111W        W 3640  33.703  15.155  12.159
32112W        W 3641  31.375  27.124   1.502
32113W        W 3642   8.221  22.177  12.551
32114W        W 3643  42.894  11.848  14.404
32115W        W 3644  11.745  32.577  12.411
32116W        W 3645  14.621  34.951  14.264
32117W        W 3646   2.240  37.221  12.453
32118W        W 3647  16.298  19.609   3.293
32119W        W 3648  35.274   3.385  12.141
32120W        W 3649  29.945   4.841   3.119
32121W        W 3650  14.160  37.319  13.612
32122W        W 3651   1.786  27.631   4.749
32123W        W 3652  44.732  36.465   4.060
32124W        W 3653  44.153   2.077  11.142
32125W        W 3654   2.244  12.353  12.369
32126W        W 3655   8.942   5.333   2.762
32127W        W 3656  38.822   0.378   0.369
32128W        W 3657   5.405   7.729   0.300
32129W        W 3658  10.352  38.484  11.129
32130W        W 3659  21.453   3.282   2.206
32131W        W 3660  16.369  17.596   1.216
32132W        W 3661  30.402  24.530   3.611
32133W        W 3662  37.283  17.593   3.271
32134W        W 3663  33.490  36.043   0.917
32135W        W 3664  38.272  27.579  13.959
32136W        W 3665  16.791  30.695  11.591
32137W        W 3666  21.010  28.565  13.993
32138W        W 3667   3.310   0.986  10.720
32139W        W 3668  30.532  19.134  10.720
32140W        W 3669   0.854  10.117  12.186
32141W        W 3670   8.969  33.615   9.691
32142W        W 3671  35.438  33.585  14.754
32143W        W 3672   0.529  12.167  13.830
32144W        W 3673   6.758  19.823  13.072
32145W        W 3674  44.858  20.542  11.189
32146W        W 3675  12.297  13.486   2.112
32147W        W 3676  24.778  31.501  12.895
32148W        W 3677  40.295  36.073  11.655
32149W        W 3678  35.528  16.796  14.026
32150W        W 3679  21.300  11.804  14.004
32151W        W 3680  35.868  38.042   0.514
32152W        W 3681  28.259  39.262  11.064
32153W        W 3682  17.633  14.095  13.927
32154W        W 3683  27.319  11.763  12.805
32155W        W 3684  43.079  34.401   1.497
32156W        W 3685  26.333  42.280   4.622
32157W        W 3686  33.316  21.068  10.360
32158W        W 3687  16.527   0.760  10.796
32159W        W 3688  29.756  26.296   4.068
32160W        W 3689  40.534   4.394   3.366
32161W        W 3690  31.495  26.395   0.983
32162W        W 3691  44.231   7.959  14.894
32163W        W 3692   0.024  42.086   2.717
32164W        W 3693  34.921  30.412  13.076
32165W        W 3694  30.904   7.818  14.828
32166W        W 3695  21.589  27.651   1.293
32167W        W 3696  15.150  13.784  14.585
32168W        W 3697  27.084  12.494  10.999
32169W        W 3698  38.527  35.066   2.820
32170W        W 3699  12.544  15.813   0.294
32171W        W 3700  35.518   6.959   3.830
32172W        W 3701   6.828  13.578  11.464
32173W        W 3702  26.735   7.141   1.830
32174W        W 3703  44.068  44.077  10.997
32175W        W 3704  35.531   3.872   1.442
32176W        W 3705  10.508   4.874   2.215
32177W        W 3706  14.090   2.412  14.809
32178W        W 3707   1.036  34.327  12.083
32179W        W 3708  27.551   8.196  10.593
32180W        W 3709  31.402  14.307  14.203
32181W        W 3710  11.577  28.119  11.231
32182W        W 3711  44.057  14.704   4.736
32183W        W 3712   6.444  32.591   2.056
32184W        W 3713  37.942  40.487  14.759
32185W        W 3714  31.519  30.308   4.214
32186W        W 3715  22.015  10.916  11.183
32187W        W 3716  27.217  11.344  13.948
32188W        W 3717   7.713  32.122   4.638
32189W        W 3718  13.388  13.620   3.774
32190W        W 3719  32.220   6.441  13.754
32191W        W 3720   0.513  12.031   3.085
32192W        W 3721   1.351   3.068  11.458
32193W        W 3722   9.982  40.406  12.184
32194W        W 3723  11.089  15.368  14.078
32195W        W 3724   7.698  36.448  10.905
32196W        W 3725  21.121   7.816   2.752
32197W        W 3726  13.973  23.176   2.861
32198W        W 3727  43.088   1.885  11.680
32199W        W 3728  22.600  29.643   1.701
32200W        W 3729   9.671  26.758   2.322
32201W        W 3730   4.968  23.478   1.223
32202W        W 3731  21.773  12.912  12.683
32203W        W 3732   6.332  36.224  11.164
32204W        W 3733  15.633  33.132   3.802
32205W        W 3734  15.397  35.189  11.137
32206W        W 3735  35.489  10.331   3.887
32207W        W 3736   5.251   1.407  12.625
32208W        W 3737  24.951  13.133   2.718
32209W        W 3738  26.433  30.625  13.826
32210W        W 3739   7.650  42.822  10.277
32211W        W 3740   6.910   6.218  14.297
32212W        W 3741  32.380  36.353  13.482
32213W        W 3742   4.304  20.337   3.225
32214W        W 3743  41.775  39.060  12.239
32215W        W 3744  40.832  35.494  14.720
32216W        W 3745  34.499  30.448   3.575
32217W        W 3746  13.637  22.598  12.008
32218W        W 3747   3.272   8.424  12.939
32219W        W 3748  40.830  23.157  12.183
32220W        W 3749   0.692  31.431   2.818
32221W        W 3750  14.483  21.779   4.987
32222W        W 3751  27.416   2.835  14.041
32223W        W 3752  26.724  13.199  10.697
32224W        W 3753  29.762   3.732  13.958
32225W        W 3754  25.379  22.994   3.356
32226W        W 3755  20.058   3.954   1.967
32227W        W 3756  31.136  16.476  12.663
32228W        W 3757  33.070  17.331   2.676
32229W        W 3758   2.401  30.852  11.463
32230W        W 3759  10.612  19.101   0.962
32231W        W 3760  10.622   7.086   3.374
32232W        W 3761   2.764  28.087   2.276
32233W        W 3762  37.616  14.703  14.852
32234W        W 3763  35.645   0.781  12.613
32235W        W 3764   6.280   7.338   4.664
32236W        W 3765   5.278  22.009  11.229
32237W        W 3766   8.704  42.073  12.065
32238W        W 3767  26.518  21.841  10.383
32239W        W 3768   9.169  29.433   0.257
32240W        W 3769  10.809  40.648   0.748
32241W        W 3770  37.114   2.514   3.841
32242W        W 3771  11.234  15.779   0.808
32243W        W 3772   0.510  13.333  11.969
32244W        W 3773  35.387  41.303   3.657
32245W        W 3774  22.061  17.333   2.886
32246W        W 3775  36.419   8.162  11.428
32247W        W 3776  32.816  26.982   3.282
32248W        W 3777  15.760  30.747  11.545
32249W        W 3778   1.029   8.320   0.955
32250W        W 3779  34.019   1.901  11.654
32251W        W 3780  38.427  19.554  11.547
32252W        W 3781  32.812  30.123  11.614
32253W        W 3782   4.883  30.857  12.860
32254W        W 3783  18.543   4.727  13.400
32255W        W 3784  13.113   0.548   1.488
32256W        W 3785  43.104   5.389   3.694
32257W        W 3786  28.034  14.784  11.568
32258W        W 3787   7.888  34.945   4.075
32259W        W 3788  22.185   7.056  11.152
32260W        W 3789   9.685  26.897   2.821
32261W        W 3790   4.417  38.088   3.833
32262W        W 3791  12.080  24.375  11.150
32263W        W 3792  11.769  16.010  11.167
32264W        W 3793  36.419   4.687   2.357
32265W        W 3794  15.098  19.286  14.878
32266W        W 3795  13.652  35.569   2.705
32267W        W 3796  29.038  35.132  10.147
32268W        W 3797  19.497  18.771   4.195
32269W        W 3798  12.408  10.324   4.563
32270W        W 3799   0.105  43.088  13.879
32271W        W 3800  25.408   1.290  12.344
32272W        W 3801  37.499  23.473   1.876
32273W        W 3802  31.535  11.775   1.266
32274W        W 3803  34.373  21.635   3.375
32275W        W 3804  25.600  35.226   2.543
32276W        W 3805  13.464  39.836  11.393
32277W        W 3806  11.763  44.852   2.285
32278W        W 3807  28.607   8.427   3.136
32279W        W 3808  33.031  38.457  12.109
32280W        W 3809  11.656   2.398   3.591
32281W        W 3810  14.191  18.778   4.734
32282W        W 3811  30.820  34.405   2.288
32283W        W 3812  26.754   9.273   0.036
32284W        W 3813  14.606  38.000   4.591
32285W        W 3814  38.559  30.011   3.665
32286W        W 3815  34.716  40.243   2.673
32287W        W 3816  39.054  21.748  14.502
32288W        W 3817   7.271   7.383   1.680
32289W        W 3818  29.722   7.338  12.132
32290W        W 3819  26.973  33.387  14.118
32291W        W 3820  19.592  15.603   0.733
32292W        W 3821  27.733  32.997   2.332
32293W        W 3822   4.745  12.605   2.195
32294W        W 3823   1.913  23.290   2.352
32295W        W 3824  25.638  35.826  14.813
32296W        W 3825   4.885  33.668  13.298
32297W        W 3826   7.221  37.335   1.301
32298W        W 3827   5.710  31.600  13.383
32299W        W 3828  22.926  30.113   0.793
32300W        W 3829  10.304   8.252  14.549
32301W        W 3830  26.929   5.876   3.208
32302W        W 3831  40.325  32.549  13.698
32303W        W 3832  44.252  28.426   2.582
32304W        W 3833  13.975  44.093  12.812
32305W        W 3834   6.686  12.396  11.900
32306W        W 3835  11.591  40.339  13.486
32307W        W 3836  26.192  28.723  14.380
32308W        W 3837   4.017  10.083  14.835
32309W        W 3838   7.754   6.388   1.197
32310W        W 3839   0.813   0.544   3.739
32311W        W 3840  11.343  30.805  11.930
32312W        W 3841  23.483  24.263  12.742
32313W        W 3842  37.875  13.374  12.879
32314W        W 3843  21.961  43.299   0.061
32315W        W 3844  29.888  13.663  14.023
32316W        W 3845   9.173  20.242  13.613
32317W        W 3846  38.116  14.046   1.837
32318W        W 3847  37.586  23.756  12.608
32319W        W 3848  15.866  40.462  11.929
32320W        W 3849  14.646  39.424   1.805
32321W        W 3850  42.862  28.396  11.264
32322W        W 3851  22.505  14.681   3.230
32323W        W 3852  32.593  12.618  12.405
32324W        W 3853  21.171  34.694   3.281
32325W        W 3854  20.107  38.300  13.164
32326W        W 3855  22.652  38.503  13.169
32327W        W 3856   3.501  19.186  11.505
32328W        W 3857  18.733  10.306   2.256
32329W        W 3858   8.409  23.529   1.878
32330W        W 3859  18.124  21.440  13.099
32331W        W 3860  40.070   9.415  14.786
32332W        W 3861  34.319  18.754  13.517
32333W        W 3862  41.670  12.599  12.887
32334W        W 3863   6.884  36.936   2.555
32335W        W 3864  29.548  28.537  11.197
32336W        W 3865  19.013  22.937  12.046
32337W        W 3866  37.993  42.292   0.746
32338W        W 3867  23.414   9.377   1.848
32339W        W 3868  13.119  21.083  13.545
32340W        W 3869  19.498  20.556   0.532
32341W        W 3870  28.712  35.647   3.830
32342W        W 3871   4.603   7.008  10.432
32343W        W 3872  27.140  12.972   3.415
32344W        W 3873  30.642   9.577  14.986
32345W        W 3874   0.714   3.688  10.769
32346W        W 3875  13.704   1.966  12.670
32347W        W 3876  43.311  26.844  11.980
32348W        W 3877  17.783  34.815  11.964
32349W        W 3878  43.504  43.766  11.679
32350W        W 3879  15.142  30.506  10.349
32351W        W 3880  41.508  27.400   3.230
32352W        W 3881  43.062  11.295   3.378
32353W        W 3882  36.924  31.463   0.294
32354W        W 3883  12.327  17.154   4.522
32355W        W 3884  39.811  35.057   3.136
32356W        W 3885  44.248   0.691  14.071
32357W        W 3886  39.985  44.198   1.860
32358W        W 3887   5.822  26.533   1.630
32359W        W 3888  20.585  42.529   0.238
32360W        W 3889   7.617   8.290   3.251
32361W        W 3890   9.492  33.585   1.356
32362W        W 3891  31.406   0.245  12.478
32363W        W 3892  38.210  33.084  14.302
32364W        W 3893   8.211  39.950   4.035
32365W        W 3894  41.172  25.470   4.161
32366W        W 3895  13.315  28.682   4.521
32367W        W 3896   8.117  20.615  12.092
32368W        W 3897  26.053  36.537   1.227
32369W        W 3898  14.696  42.853   0.215
32370W        W 3899  17.119   2.238   2.390
32371W        W 3900  27.458  36.333   0.296
32372W        W 3901  40.976   8.796   0.458
32373W        W 3902   6.987  39.400   0.945
32374W        W 3903  26.456  10.054   0.388
32375W        W 3904  31.996  30.741  14.446
32376W        W 3905  44.336  28.916  12.065
32377W        W 3906  11.855  11.043  11.356
32378W        W 3907  44.308   8.272   0.292
32379W        W 3908  45.000  16.322   2.392
32380W        W 3909  31.135  35.034  10.322
32381W        W 3910   3.220  26.411  12.948
32382W        W 3911  15.231  29.319   1.828
32383W        W 3912  32.920  33.626  11.818
32384W        W 3913   8.110  30.123  13.277
32385W        W 3914  16.118  29.680   1.748
32386W        W 3915  20.616  39.960   3.257
32387W        W 3916   6.879  31.146  12.835
32388W        W 3917  33.951  28.042   2.746
32389W        W 3918  30.879   2.560   0.799
32390W        W 3919  31.359  25.674  13.480
32391W        W 3920  26.657   6.820   4.546
32392W        W 3921   5.807  43.789  14.748
32393W        W 3922  42.268  37.091   1.274
32394W        W 3923  43.331  34.855   0.325
32395W        W 3924  12.405   5.748  11.708
32396W        W 3925   1.830   3.828  11.129
32397W        W 3926  21.610  29.841  12.112
32398W        W 3927   8.878   1.101   3.607
32399W        W 3928  27.370  35.445  14.844
32400W        W 3929  40.740  44.585  11.175
32401W        W 3930  26.643  17.292  14.456
32402W        W 3931   7.064  11.023  14.501
32403W        W 3932   3.467  30.172   1.500
32404W        W 3933  19.209   7.705   3.151
32405W        W 3934  22.580   9.195  14.253
32406W        W 3935  39.305   0.253   3.799
32407W        W 3936  37.490   5.419  11.104
32408W        W 3937   3.492   4.248  11.551
32409W        W 3938  41.545   9.572   3.077
32410W        W 3939  22.549  18.212   2.726
32411W        W 3940   3.692  29.692  11.614
32412W        W 3941   9.268  37.117  11.867
32413W        W 3942  19.020  38.049   1.718
32414W        W 3943  29.544  38.992  14.450
32415W        W 3944  33.048  22.777   1.117
32416W        W 3945  20.880  40.670   3.750
32417W        W 3946  32.458  15.785   0.698
32418W        W 3947  15.654  26.824  13.431
32419W        W 3948  42.041  19.321   2.370
32420W        W 3949  43.968  14.021   3.069
32421W        W 3950   1.820  35.922   4.973
32422W        W 3951  15.579  37.112  10.258
32423W        W 3952  11.603  12.183  12.912
32424W        W 3953  31.354  35.563   4.138
32425W        W 3954  44.221  16.346  12.989
32426W        W 3955  22.065  36.312  12.912
32427W        W 3956   8.919  32.566  12.578
32428W        W 3957  25.107  13.152  10.778
32429W        W 3958  26.294  33.957  11.627
32430W        W 3959   3.890   3.443   5.037
32431W        W 3960  22.634   0.706   2.063
32432W        W 3961  34.244  15.133  14.802
32433W        W 3962  33.471   0.182  12.182
32434W        W 3963  38.632  21.783   4.228
32435W        W 3964  19.131  35.425  11.355
32436W        W 3965   5.054  42.326   1.391
32437W        W 3966  29.520  32.885   1.302
32438W        W 3967  32.857  17.712  14.804
32439W        W 3968  18.338  13.578  14.404
32440W        W 3969  31.415  28.890  13.872
32441W        W 3970   2.817  12.895   1.320
32442W        W 3971  22.519  15.763   0.839
32443W        W 3972  19.981  20.733   3.523
32444W        W 3973   3.983   4.324   1.783
32445W        W 3974  14.770  19.662   0.774
32446W        W 3975   0.403  37.346  13.536
32447W        W 3976  17.963   3.284   0.730
32448W        W 3977  24.396  28.872  10.481
32449W        W 3978  21.545  24.512   4.092
32450W        W 3979  40.969  44.351   4.849
32451W        W 3980  24.494  14.367  13.049
32452W        W 3981  40.057  32.976   1.962
32453W        W 3982  33.649  24.041   0.830
32454W        W 3983  12.852  23.072  14.420
32455W        W 3984  16.817  39.962  10.717
32456W        W 3985  18.616  30.722  14.359
32457W        W 3986  23.001  16.326  14.436
32458W        W 3987  37.317  10.743   2.295
32459W        W 3988  25.962   1.927   2.525
32460W        W 3989  39.899  29.216   2.795
32461W        W 3990  22.448  37.471  11.657
32462W        W 3991  34.593  27.432   1.934
32463W        W 3992  30.211  13.284   1.677
32464W        W 3993   1.675  21.504   4.064
32465W        W 3994   4.914  13.730   4.752
32466W        W 3995  24.134  15.295  13.078
32467W        W 3996  39.418  44.362   2.340
32468W        W 3997  33.391  19.970  13.848
32469W        W 3998  44.364  18.790   5.028
32470W        W 3999   1.128  27.680   2.219
32471W        W 4000  32.853  22.714  14.991
32472W        W 4001  39.298  34.972  13.160
32473W        W 4002  39.019  40.676  11.693
32474W        W 4003  23.541  42.035   4.713
32475W        W 4004  21.172  25.620  14.791
32476W        W 4005   8.794  37.339   1.359
32477W        W 4006  21.564  40.800   5.029
32478W        W 4007  17.612  30.129   3.284
32479W        W 4008   6.087  26.447  13.093
32480W        W 4009  30.376  44.948   1.799
32481W        W 4010   8.000  19.655   9.794
32482W        W 4011   7.683  42.905  11.657
32483W        W 4012  32.868  19.271   0.689
32484W        W 4013  33.834  32.656  11.929
32485W        W 4014  18.233  43.552   1.551
32486W        W 4015  26.089  13.728   3.612
32487W        W 4016  39.867  23.756  11.045
32488W        W 4017  20.340  28.906  10.738
32489W        W 4018  31.945  27.008   1.787
32490W        W 4019  30.671  16.278   2.790
32491W        W 4020  35.070  25.780   2.753
32492W        W 4021  13.360  32.694   3.300
32493W        W 4022   1.843   4.332   1.837
32494W        W 4023  16.132  41.877   2.341
32495W        W 4024  21.499  32.482   0.412
32496W        W 4025  29.112  38.556   2.700
32497W        W 4026  18.487  24.634  14.962
32498W        W 4027  39.964   8.560  13.481
32499W        W 4028  22.577  11.450   4.075
32500W        W 4029  26.201   8.329  14.750
32501W        W 4030  39.865  24.254  11.204
32502W        W 4031  31.062   5.944   0.217
32503W        W 4032  24.564   7.273   0.266
32504W        W 4033  33.925  42.067  10.709
32505W        W 4034  11.388  19.708   2.775
32506W        W 4035   3.900  44.483   4.858
32507W        W 4036  27.277  28.010   0.440
32508W        W 4037  12.566  44.340   0.890
32509W        W 4038  38.462  41.970   4.116
32510W        W 4039  28.124  12.871  11.615
32511W        W 4040  36.077  41.401   1.242
32512W        W 4041  17.213  15.019   1.446
32513W        W 4042   4.003  32.428  14.451
32514W        W 4043  35.606  29.976  14.266
32515W        W 4044  21.952   5.161   0.926
32516W        W 4045  33.324  15.052   0.497
32517W        W 4046  42.347  27.236  13.344
32518W        W 4047  26.333   3.151  12.125
32519W        W 4048  23.973  43.349   2.264
32520W        W 4049  42.954  40.082  11.006
32521W        W 4050  26.704  11.371  13.923
32522W        W 4051  38.974  10.903  13.099
32523W        W 4052   7.613   7.307   4.625
32524W        W 4053  17.044  14.163  14.742
32525W        W 4054  20.544  27.404   4.413
32526W        W 4055   6.831   1.330   1.677
32527W        W 4056  26.641  19.485  12.185
32528W        W 4057  16.677  39.645   4.187
32529W        W 4058  39.333  33.925   2.161
32530W        W 4059  29.893  33.177   1.590
32531W        W 4060  22.200  20.436   1.328
32532W        W 4061   7.245  37.809   2.338
32533W        W 4062   9.926  15.405   2.275
32534W        W 4063  16.550  16.527  13.713
32535W        W 4064  20.637  44.967  10.739
32536W        W 4065  40.592  17.245  12.970
32537W        W 4066   5.195  33.280   1.702
32538W        W 4067  23.219   8.808   4.542
32539W        W 4068  37.214   9.889  12.847
32540W        W 4069  24.984  27.567  13.050
32541W        W 4070  17.741  35.485  12.825
32542W        W 4071  29.142  40.053   0.277
32543W        W 4072  38.204  40.850   3.219
32544W        W 4073  40.877   2.268   0.067
32545W        W 4074  40.562  31.918   5.036
32546W        W 4075  37.894   2.742   0.280
32547W        W 4076  27.658  21.089  14.119
32548W        W 4077  15.427  43.793  11.277
32549W        W 4078  35.318   2.260  13.383
32550W        W 4079  36.195  41.339   0.718
32551W        W 4080  22.050  25.245   3.795
32552W        W 4081  44.771   8.286  11.662
32553W        W 4082   5.107  16.833   3.133
32554W        W 4083  13.271  22.007   3.356
32555W        W 4084  33.586  25.567   2.748
32556W        W 4085  24.636  28.781   3.313
32557W        W 4086  21.424  12.852   9.913
32558W        W 4087  16.820  30.701  12.844
32559W        W 4088  29.670  29.062  11.346
32560W        W 4089  23.974  37.344   2.186
32561W        W 4090  13.196  28.472  11.434
32562W        W 4091  21.277  10.632   4.639
32563W        W 4092   1.276  19.951  13.153
32564W        W 4093  16.394  19.693  11.886
32565W        W 4094  32.755  40.492   4.534
32566W        W 4095  32.033  20.701   3.942
32567W        W 4096  32.542  25.097  11.973
32568W        W 4097  39.532  35.204  14.954
32569W        W 4098  34.127  15.263  11.857
32570W        W 4099   0.155   3.924   2.919
32571W        W 4100  15.104  29.568   4.170
32572W        W 4101  20.738  26.186  12.384
32573W        W 4102  10.419  11.311   1.441
32574W        W 4103  40.235  20.995  12.899
32575W        W 4104  37.260   7.736  10.343
32576W        W 4105  26.995   8.313   1.891
32577W        W 4106  15.628  41.929  10.742
32578W        W 4107  28.627   9.281  12.648
32579W        W 4108  24.134  34.327   2.834
32580W        W 4109  25.405  43.129   0.681
32581W        W 4110  30.572   0.985  13.860
32582W        W 4111  31.879  36.987   0.984
32583W        W 4112  14.065  18.775  11.424
32584W        W 4113  11.244  42.633  13.440
32585W        W 4114  11.062   0.729  11.460
32586W        W 4115  17.489  16.612  13.525
32587W        W 4116  36.996   6.624   2.291
32588W        W 4117  29.481  32.405  13.069
32589W        W 4118  17.156  15.925   3.175
32590W        W 4119  43.305   3.885  13.348
32591W        W 4120  14.597  40.250   1.408
32592W        W 4121  15.202  21.167   1.560
32593W        W 4122  41.427  28.430  12.583
32594W        W 4123   4.369  12.555   1.813
32595W        W 4124  28.219  25.515  10.701
32596W        W 4125   9.941  30.957   0.438
32597W        W 4126  21.390  10.989   0.345
32598W        W 4127  10.614  26.554   0.939
32599W        W 4128  18.603  38.929   2.778
32600W        W 4129   2.464  44.018  14.601
32601W        W 4130  36.556  17.003   1.766
32602W        W 4131  22.140  37.070  13.403
32603W        W 4132   9.134   3.005   2.064
32604W        W 4133  32.725   7.668  11.177
32605W        W 4134   3.481   9.888  10.617
32606W        W 4135   1.276  16.307  11.084
32607W        W 4136  31.609  37.908  12.066
32608W        W 4137  35.116   3.572   1.382
32609W        W 4138  42.451  42.176   1.356
32610W        W 4139  24.052   7.255   2.490
32611W        W 4140  12.302  16.209  11.949
32612W        W 4141  30.997   6.509  13.491
32613W        W 4142  40.244  14.408  10.429
32614W        W 4143   9.592   9.646   3.186
32615W        W 4144   3.675  39.657   1.389
32616W        W 4145  17.161  13.086  13.345
32617W        W 4146  19.592   6.229  14.318
32618W        W 4147  30.012  44.876  14.555
32619W        W 4148  11.086   1.704  12.877
32620W        W 4149  13.423   6.555   1.215
32621W        W 4150   8.669  24.996  11.561
32622W        W 4151  35.531   3.749  11.890
32623W        W 4152  24.747   0.012  10.635
32624W        W 4153  13.920   1.493   3.696
32625W        W 4154  35.989  32.061   3.176
32626W        W 4155  14.129   8.055  11.209
32627W        W 4156  11.443  44.778   0.027
32628W        W 4157   1.779   7.334   1.404
32629W        W 4158   8.699   4.874  11.715
32630W        W 4159  38.322  26.979  13.317
32631W        W 4160   2.295   9.461  13.296
32632W        W 4161  35.218  31.622  10.450
32633W        W 4162  14.119  22.746  13.430
32634W        W 4163  30.382   6.108   1.910
32635W        W 4164   8.723  44.731  13.480
32636W        W 4165  12.009   7.877  12.399
32637W        W 4166  44.020  29.033   3.693
32638W        W 4167  14.673  25.224   4.603
32639W        W 4168  14.187  18.199   2.959
32640W        W 4169  37.798  35.115   4.339
32641W        W 4170  33.414  22.802  12.894
32642W        W 4171  12.705  21.365  13.336
32643W        W 4172  34.810  27.813   0.811
32644W        W 4173  16.180  22.528   2.249
32645W        W 4174  23.440   8.342   4.037
32646W        W 4175  30.665  37.352   4.659
32647W        W 4176   7.265   1.964   1.318
32648W        W 4177  12.615   9.322   4.571
32649W        W 4178  28.508  39.257  13.306
32650W        W 4179  25.060  26.621   1.942
32651W        W 4180  40.036   4.327   3.298
32652W        W 4181  18.961   3.784  14.199
32653W        W 4182  16.229  44.974   0.856
32654W        W 4183  43.917   2.727   0.465
32655W        W 4184  25.445  38.563  13.795
32656W        W 4185   3.048  34.090  13.350
32657W        W 4186  39.335  36.860  11.141
32658W        W 4187  22.038   8.473   0.094
32659W        W 4188  31.364  35.265  13.547
32660W        W 4189   8.219  19.301   0.654
32661W        W 4190   1.758  23.579  12.111
32662W        W 4191  18.699  13.234  14.599
32663W        W 4192  21.486  13.332   3.745
32664W        W 4193  23.092  44.028   1.896
32665W        W 4194  41.810  13.363  14.613
32666W        W 4195  12.305   7.892   1.006
32667W        W 4196   1.284  23.719  13.886
32668W        W 4197  17.890  21.099  11.521
32669W        W 4198  13.346  18.521   4.204
32670W        W 4199  39.492  17.048  14.520
32671W        W 4200   4.383  18.313  13.715
32672W        W 4201  24.004  26.136  13.334
32673W        W 4202   6.296  40.573  10.653
32674W        W 4203  17.578   6.672   1.683
32675W        W 4204   7.459   8.350  12.512
32676W        W 4205   4.432  39.294   4.405
32677W        W 4206  17.624  32.427   4.398
32678W        W 4207  35.627  30.412  13.325
32679W        W 4208   5.575  15.634   3.508
32680W        W 4209  15.511  25.475  11.102
32681W        W 4210  41.222   1.298   0.242
32682W        W 4211  36.355  12.743   0.697
32683W        W 4212  31.375  25.702   0.295
32684W        W 4213  12.659  30.633   4.241
32685W        W 4214  29.445  18.516  12.477
32686W        W 4215  33.386   5.453  10.715
32687W        W 4216  29.152  15.514  11.357
32688W        W 4217  31.510  42.797  11.023
32689W        W 4218  22.265   1.853   1.872
32690W        W 4219  33.969   7.439  11.427
32691W        W 4220   5.522   0.360   2.114
32692W        W 4221   7.170  12.142  13.354
32693W        W 4222  21.966  29.988   3.812
32694W        W 4223  21.660  44.448  10.740
32695W        W 4224  32.510  22.920   2.888
32696W        W 4225  21.293  40.229  13.593
32697W        W 4226  32.709  10.930   3.557
32698W        W 4227   8.763   6.324   3.137
32699W        W 4228   8.178  38.480  14.523
32700W        W 4229  42.591  42.675   1.282
32701W        W 4230  29.723  36.753  12.567
32702W        W 4231  17.725  14.274   3.792
32703W        W 4232  36.121  14.802   3.879
32704W        W 4233  36.038  37.772   4.312
32705W        W 4234  31.655  24.926   2.199
32706W        W 4235  35.295  21.576  10.850
32707W        W 4236  10.141  43.857   1.093
32708W        W 4237   7.854  14.662  11.666
32709W        W 4238  40.797  16.116   2.886
32710W        W 4239  20.723  25.442  10.837
32711W        W 4240  16.191  35.113  12.028
32712W        W 4241   6.268   1.288  13.823
32713W        W 4242  24.639   0.233   3.719
32714W        W 4243  34.547   4.198  14.240
32715W        W 4244   8.790   1.321  13.612
32716W        W 4245  17.164  26.137   1.235
32717W        W 4246  14.200  32.144  14.759
32718W        W 4247  24.292  20.102  14.799
32719W        W 4248   4.402  34.965   1.363
32720W        W 4249  41.457  20.245  14.828
32721W        W 4250  40.908  11.762   0.400
32722W        W 4251   9.301  28.299   4.335
32723W        W 4252  20.603  15.811  12.391
32724W        W 4253   2.983   6.155   4.234
32725W        W 4254  20.125  31.504   4.141
32726W        W 4255  27.431  34.468  10.265
32727W        W 4256  27.615  23.971   4.557
32728W        W 4257  36.939  17.563  11.687
32729W        W 4258  42.388  22.277   3.895
32730W        W 4259  37.117   6.093  11.138
32731W        W 4260  39.316  30.222   3.128
32732W        W 4261   0.829  19.576  10.599
32733W        W 4262  17.876   8.758   2.226
32734W        W 4263  15.861  27.992  11.496
32735W        W 4264   2.695   7.870   4.221
32736W        W 4265   2.894  28.015  10.848
32737W        W 4266   6.603  33.400   2.639
32738W        W 4267  16.323  29.899   3.076
32739W        W 4268   9.556   0.008  13.992
32740W        W 4269  11.065  39.003   1.301
32741W        W 4270  44.872   3.204   0.259
32742W        W 4271  36.842  12.615   0.811
32743W        W 4272  11.571   3.390   4.226
32744W        W 4273  22.882  12.937   1.776
32745W        W 4274  20.528  14.063  11.941
32746W        W 4275  19.776  13.621  12.088
32747W        W 4276  37.861  29.739  13.975
32748W        W 4277  11.940  19.075   0.117
32749W        W 4278  31.556  39.262   3.737
32750W        W 4279  42.265   8.816  13.540
32751W        W 4280  37.534  29.596  14.347
32752W        W 4281   3.860   1.073   2.598
32753W        W 4282   2.975   8.146  13.853
32754W        W 4283  34.609  15.810  13.304
32755W        W 4284  34.603  29.450   3.263
32756W        W 4285  24.493  22.782  14.627
32757W        W 4286   1.334  32.505  11.655
32758W        W 4287  19.134  18.817  11.556
32759W        W 4288  12.228  40.899   0.277
32760W        W 4289   4.823  44.025   3.838
32761W        W 4290   9.865  40.060  11.521
32762W        W 4291  18.844  27.222   0.882
32763W        W 4292  12.206   2.704   4.879
32764W        W 4293  44.993   2.270  13.607
32765W        W 4294  10.900  35.984   4.721
32766W        W 4295  26.115  39.977  14.801
32767W        W 4296   1.673  11.602  12.439
32768W        W 4297  22.748  37.818   1.460
32769W        W 4298  17.115  44.381  13.612
32770W        W 4299  28.622  38.120   4.331
32771W        W 4300  27.616  23.614   3.285
32772W        W 4301  11.262  11.693   0.019
32773W        W 4302  16.922   9.910   1.187
32774W        W 4303  17.409  22.104  13.532
32775W        W 4304  13.830  31.534   0.400
32776W        W 4305  36.018  30.451   0.778
32777W        W 4306   5.378  22.497   2.297
32778W        W 4307  23.015  32.589   3.127
32779W        W 4308  17.297  40.571  14.964
32780W        W 4309   2.496  10.846  12.592
32781W        W 4310   1.135  20.104   3.057
32782W        W 4311  39.427  22.385   2.773
32783W        W 4312  38.970  29.970  14.298
32784W        W 4313   7.873  17.035   3.197
32785W        W 4314  11.801  31.530  13.773
32786W        W 4315  13.967  32.284  12.030
32787W        W 4316  11.001  24.210  14.967
32788W        W 4317  40.874  41.894  10.645
32789W        W 4318  29.192  19.274   0.419
32790W        W 4319  19.536   4.402   0.306
32791W        W 4320  35.091   7.392   0.224
32792W        W 4321  36.012  36.100   4.443
32793W        W 4322  31.931  42.886   0.569
32794W        W 4323  29.582  32.794   0.267
32795W        W 4324  17.251   7.433  13.332
32796W        W 4325  14.098  17.680   4.768
32797W        W 4326  31.851  38.759   4.490
32798W        W 4327  34.874  39.808   4.123
32799W        W 4328  11.187  29.175  13.235
32800W        W 4329   8.092  28.031  11.177
32801W        W 4330  24.927  24.535  10.700
32802W        W 4331  24.539  35.468  10.990
32803W        W 4332   2.742  36.597  12.409
32804W        W 4333  38.273  43.013  13.142
32805W        W 4334  18.711  21.095   0.204
32806W        W 4335  13.275  12.877  13.457
32807W        W 4336  44.850  29.457  11.455
32808W        W 4337  11.682  28.939   0.846
32809W        W 4338  38.832   3.812  11.559
32810W        W 4339  23.244  28.972  12.303
32811W        W 4340  11.832   3.654   3.092
32812W        W 4341  16.040  41.804  13.364
32813W        W 4342  44.960  15.543  14.271
32814W        W 4343  15.108  13.852   1.542
32815W        W 4344  38.992  25.837  13.287
32816W        W 4345  24.017  21.432   0.927
32817W        W 4346  37.767  31.223   0.811
32818W        W 4347  43.364  40.677  10.498
32819W        W 4348  21.707  12.327  13.119
32820W        W 4349   5.341  42.403   2.724
32821W        W 4350  42.497   8.416  11.124
32822W        W 4351   8.400  23.602   2.754
32823W        W 4352  22.175   8.407   2.368
32824W        W 4353  37.453  36.437   3.749
32825W        W 4354  37.489  19.182  12.376
32826W        W 4355  33.054  31.388   0.470
32827W        W 4356  16.031  17.362  12.063
32828W        W 4357  24.159  27.886  11.329
32829W        W 4358  23.490  22.173   1.814
32830W        W 4359  38.840  32.198  10.776
32831W        W 4360  12.335  26.602  13.782
32832W        W 4361  41.596  12.182  14.236
32833W        W 4362  14.605   2.563   4.400
32834W        W 4363  36.639  18.798   3.420
32835W        W 4364  37.960  34.395   3.698
32836W        W 4365  36.827   5.900  10.733
32837W        W 4366  40.908  33.713  11.107
32838W        W 4367   5.468  12.185  10.793
32839W        W 4368  39.513   7.540  11.703
32840W        W 4369  43.402  40.080   2.264
32841W        W 4370  25.998  24.130  13.073
32842W        W 4371  31.406   3.146  13.467
32843W        W 4372  30.270   4.862  14.924
32844W        W 4373   3.829  26.591   3.153
32845W        W 4374  37.789   5.380   4.928
32846W        W 4375  18.441   9.264   3.103
32847W        W 4376  39.320  24.199   3.260
32848W        W 4377  12.901  13.656   3.938
32849W        W 4378  16.795  28.623   2.135
32850W        W 4379  19.565  31.190  14.390
32851W        W 4380   0.387  29.940  14.218
32852W        W 4381   8.481  17.377  12.455
32853W        W 4382  32.111   2.402  14.299
32854W        W 4383   8.794  21.666   2.645
32855W        W 4384  15.760  37.162   2.050
32856W        W 4385  37.918  43.068   1.341
32857W        W 4386  27.152  33.432  10.985
32858W        W 4387  23.768  14.536  12.352
32859W        W 4388   2.625  26.762   3.633
32860W        W 4389  13.727   8.641  14.458
32861W        W 4390  13.607   0.367  12.238
32862W        W 4391  37.062  16.222  13.312
32863W        W 4392   9.044   2.945  13.849
32864W        W 4393   7.876  23.691   9.997
32865W        W 4394  28.673   0.376  12.720
32866W        W 4395  36.006  38.566  12.497
32867W        W 4396   2.389  13.304  11.167
32868W        W 4397  10.210  10.377  10.691
32869W        W 4398  19.765   9.008  11.360
32870W        W 4399   4.609   6.178  12.114
32871W        W 4400   0.094  15.677  11.348
32872W        W 4401  19.421  19.746  13.488
32873W        W 4402   3.390  37.417  11.625
32874W        W 4403  40.531  23.594   5.034
32875W        W 4404  41.985  28.967  13.239
32876W        W 4405  41.591  13.878  10.704
32877W        W 4406  38.043  42.053  13.878
32878W        W 4407  14.833  37.311   2.880
32879W        W 4408   3.320  22.923  10.628
32880W        W 4409  44.772  31.978  14.364
32881W        W 4410  11.239  15.600   9.885
32882W        W 4411  14.782  10.507   4.445
32883W        W 4412  22.823  29.669  10.776
32884W        W 4413  39.636  13.958   3.333
32885W        W 4414  20.234  42.805   0.530
32886W        W 4415  39.155  36.308  13.310
32887W        W 4416   2.871  31.281  14.722
32888W        W 4417  19.280  23.206   0.685
32889W        W 4418  36.009  22.444  13.605
32890W        W 4419  36.484   3.002  12.538
32891W        W 4420  21.351  20.258   4.092
32892W        W 4421  25.774  33.838  13.867
32893W        W 4422  12.915  17.131  13.146
32894W        W 4423  12.681  35.563  12.067
32895W        W 4424  38.906  18.520  13.347
32896W        W 4425   4.115  43.425  12.801
32897W        W 4426  24.770  32.898   2.703
32898W        W 4427  23.225   7.182   4.410
32899W        W 4428  24.397  36.118   3.695
32900W        W 4429  43.499   6.827  12.300
32901W        W 4430  39.972   7.293  11.643
32902W        W 4431  14.137  33.318   4.115
32903W        W 4432  10.698  21.169   2.683
32904W        W 4433   5.669  25.525   2.436
32905W        W 4434  37.115  20.003  10.730
32906W        W 4435   0.369  42.922   0.047
32907W        W 4436  40.725  36.744  10.924
32908W        W 4437   3.495  24.937   9.764
32909W        W 4438  34.714  41.352   3.011
32910W        W 4439  11.263   1.508  12.043
32911W        W 4440  29.689  32.380  11.151
32912W        W 4441  13.665  26.546   0.497
32913W        W 4442   8.691  44.923  14.352
32914W        W 4443  43.886  15.655  10.478
32915W        W 4444  20.299   0.911  13.516
32916W        W 4445   7.649  36.520   1.246
32917W        W 4446  37.534   8.450  13.894
32918W        W 4447  26.563  26.682   4.976
32919W        W 4448   1.107  22.597  10.478
32920W        W 4449  26.861   2.856  14.867
32921W        W 4450   5.669  44.011  13.751
32922W        W 4451   0.266  35.531   1.201
32923W        W 4452   5.163  14.835   1.304
32924W        W 4453  29.402  26.437   5.057
32925W        W 4454  14.098  40.099   3.691
32926W        W 4455  15.195  33.630  13.878
32927W        W 4456  30.702   9.597  13.565
32928W        W 4457  23.468   8.174  12.008
32929W        W 4458  17.855  25.872  14.873
32930W        W 4459  43.014  10.149   3.280
32931W        W 4460  30.228  14.686  11.581
32932W        W 4461  27.789  21.381   1.830
32933W        W 4462  11.801  16.986   2.321
32934W        W 4463   5.976   5.299  14.083
32935W        W 4464   9.309  41.127  12.578
32936W        W 4465  11.544  31.018  14.493
32937W        W 4466  36.242  34.921  12.021
32938W        W 4467   0.650  44.791   3.181
32939W        W 4468  42.303  29.231   0.360
32940W        W 4469  34.126  12.594  11.559
32941W        W 4470   9.195  25.462   3.634
32942W        W 4471   6.182  19.596  12.999
32943W        W 4472   6.431  35.462  12.670
32944W        W 4473  34.036  42.277   4.631
32945W        W 4474  39.836  13.439   3.321
32946W        W 4475  42.910  14.586  14.269
32947W        W 4476   9.399  19.953   0.983
32948W        W 4477  32.073  36.445  13.926
32949W        W 4478  14.766  33.311   1.466
32950W        W 4479  25.525  11.321  13.000
32951W        W 4480   3.941  31.349   4.292
32952W        W 4481  34.443  24.644  10.573
32953W        W 4482  42.559   4.789  11.677
32954W        W 4483  29.039  33.360   4.438
32955W        W 4484  35.937  18.909   1.968
32956W        W 4485  23.794  43.838   3.140
32957W        W 4486  22.737  28.665  10.074
32958W        W 4487  35.124  34.362   3.131
32959W        W 4488  20.685  22.898  12.044
32960W        W 4489  27.651  29.614   3.055
32961W        W 4490  25.922   6.144   0.538
32962W        W 4491  15.191  25.501   1.764
32963W        W 4492  42.367  23.563   2.746
32964W        W 4493  37.112  23.064   3.624
32965W        W 4494  16.253  13.987  12.898
32966W        W 4495  16.775   5.182  12.984
32967W        W 4496  25.135   6.398   1.209
32968W        W 4497  19.137   5.014   4.074
32969W        W 4498  22.299  28.991   2.782
32970W        W 4499  25.491  14.044   4.165
32971W        W 4500   3.340  33.238  12.006
32972W        W 4501   5.227  23.737   1.827
32973W        W 4502  37.683   0.046   0.873
32974W        W 4503   5.323  15.189  12.930
32975W        W 4504   6.273  44.913  10.496
32976W        W 4505   8.711  22.938  11.549
32977W        W 4506  27.740  35.674   0.810
32978W        W 4507   4.966   9.769   3.595
32979W        W 4508   0.702  24.033  12.440
32980W        W 4509  16.926   1.724   2.468
32981W        W 4510  28.262  32.473  11.820
32982W        W 4511  37.075  40.628   4.605
32983W        W 4512  28.701  27.384   2.774
32984W        W 4513   7.082  28.918  14.372
32985W        W 4514  21.117  36.470   5.055
32986W        W 4515  33.822  13.248   2.787
32987W        W 4516   9.264  44.341   3.463
32988W        W 4517   4.685  25.202  11.644
32989W        W 4518  34.619  31.029   0.351
32990W        W 4519  42.752  25.457  10.972
32991W        W 4520  41.413  27.933  11.561
32992W        W 4521  42.211   8.614   2.763
32993W        W 4522  43.250  33.274   3.364
32994W        W 4523  17.426  17.290   5.209
32995W        W 4524  34.409  32.710  11.130
32996W        W 4525  17.786  23.796  13.327
32997W        W 4526   1.542  41.878  14.995
32998W        W 4527   7.139  13.162   3.156
32999W        W 4528  11.571  32.092  12.452
33000W        W 4529  13.636  20.725  14.020
33001W        W 4530  13.193   4.741  12.623
33002W        W 4531  27.920   1.491  10.681
33003W        W 4532  19.739   8.740  13.381
33004W        W 4533  41.014  26.645  10.702
33005W        W 4534  44.711  34.351  12.117
33006W        W 4535  23.674  31.024  10.709
33007W        W 4536  33.317  40.273  13.559
33008W        W 4537  25.591  17.467   2.316
33009W        W 4538   4.115  44.922   2.798
33010W        W 4539   8.345  18.979   0.276
33011W        W 4540   4.841  42.766   1.674
33012W        W 4541  25.050  18.996  11.567
33013W        W 4542  14.277  35.804   1.497
33014W        W 4543  19.732   3.910   0.372
33015W        W 4544  20.499  19.046  14.036
33016W        W 4545  30.917  28.139  12.902
33017W        W 4546  36.439  25.905  13.506
33018W        W 4547  23.950   2.197  14.891
33019W        W 4548  11.686   7.183   4.628
33020W        W 4549  25.076   2.355  14.775
33021W        W 4550  36.761  13.728   3.082
33022W        W 4551  41.338   8.297  13.101
33023W        W 4552  37.760  20.051   4.157
33024W        W 4553  11.765  19.043  12.907
33025W        W 4554  36.655  14.667  13.880
33026W        W 4555  43.078  19.663  10.238
33027W        W 4556  28.162  30.208   4.685
33028W        W 4557  33.798  10.604  10.995
33029W        W 4558  42.590  39.088   4.465
33030W        W 4559  22.762  26.736   3.260
33031W        W 4560  15.797  31.063   2.881
33032W        W 4561  31.740  39.649  12.313
33033W        W 4562  44.936  26.188   4.407
33034W        W 4563   3.712  24.995   2.500
33035W        W 4564  24.312  16.675   3.642
33036W        W 4565   0.084  15.303  13.118
33037W        W 4566  21.342  10.637  11.967
33038W        W 4567  20.718  39.737   3.729
33039W        W 4568  33.547  37.614   2.628
33040W        W 4569   6.525  19.603   3.742
33041W        W 4570  11.390   9.628   0.326
33042W        W 4571  44.866  21.461   2.206
33043W        W 4572  30.459  18.178   4.687
33044W        W 4573   1.479   0.012   0.541
33045W        W 4574  30.166   0.015  12.201
33046W        W 4575  19.302  23.124  12.448
33047W        W 4576  43.419  15.333  13.540
33048W        W 4577   0.942  32.669   1.346
33049W        W 4578  22.192  36.164   1.362
33050W        W 4579  28.875  40.731  11.995
33051W        W 4580  24.697  25.077   4.775
33052W        W 4581  29.408  31.000   4.621
33053W        W 4582  44.212  23.826   3.665
33054W        W 4583   4.834  37.717  13.452
33055W        W 4584  16.747  29.923   2.741
33056W        W 4585   9.717  39.420  10.695
33057W        W 4586  12.358  39.372   4.141
33058W        W 4587  40.283  38.951   4.005
33059W        W 4588  35.641  22.596  12.477
33060W        W 4589   0.445  42.779   1.007
33061W        W 4590   2.295  29.258  13.313
33062W        W 4591  24.078  36.147   3.218
33063W        W 4592  29.124   7.386   1.048
33064W        W 4593  26.564  23.392   3.212
33065W        W 4594   4.159  40.455  10.786
33066W        W 4595  16.143  30.385   4.576
33067W        W 4596   1.287  17.062  13.413
33068W        W 4597  16.870  22.018   3.390
33069W        W 4598  21.091  20.702   4.323
33070W        W 4599  10.367   2.883   2.870
33071W        W 4600  30.666  15.749   2.820
33072W        W 4601  28.560  40.608   3.326
33073W        W 4602  26.953   5.698   1.710
33074W        W 4603  39.894   3.714  14.498
33075W        W 4604   4.210   3.278  10.497
33076W        W 4605   8.613   7.968  11.761
33077W        W 4606  42.502   5.850  10.584
33078W        W 4607   6.818   4.065   1.398
33079W        W 4608  41.475  18.886   0.992
33080W        W 4609  28.060  43.332   4.637
33081W        W 4610  37.957  27.524  12.613
33082W        W 4611  30.366  37.204  10.810
33083W        W 4612  29.616  15.092  12.393
33084W        W 4613   7.706  31.136   4.176
33085W        W 4614  34.856   8.797   0.958
33086W        W 4615   8.767  21.837  14.147
33087W        W 4616  29.317  25.684  11.529
33088W        W 4617  26.115  35.333   1.311
33089W        W 4618  19.319  40.589   2.269
33090W        W 4619  22.451  27.208  10.709
33091W        W 4620  28.489  42.575   4.153
33092W        W 4621  30.740   9.438   3.694
33093W        W 4622   5.246  23.484   0.794
33094W        W 4623  25.454  44.779  13.921
33095W        W 4624  11.828  33.023   4.407
33096W        W 4625  17.965  23.617  12.499
33097W        W 4626  29.400  19.825  12.965
33098W        W 4627  33.085  28.499   1.249
33099W        W 4628  28.726  22.077   3.418
33100W        W 4629  32.537  39.747  14.422
33101W        W 4630  20.198  44.464   2.205
33102W        W 4631  34.316   3.434   4.582
33103W        W 4632  28.883  15.919   3.217
33104W        W 4633  12.046  15.112   2.337
33105W        W 4634  17.259  36.506   4.386
33106W        W 4635  34.304  21.299   4.464
33107W        W 4636  23.953  19.169   0.722
33108W        W 4637  22.796   7.673   2.757
33109W        W 4638  36.545   0.654  11.323
33110W        W 4639  26.856  38.328   4.249
33111W        W 4640  26.689  12.401  12.466
33112W        W 4641   5.716  40.327   3.904
33113W        W 4642  24.920  44.709  14.384
33114W        W 4643  27.718  13.147   3.779
33115W        W 4644   3.407  30.422  12.412
33116W        W 4645   0.393  11.628   1.321
33117W        W 4646  39.968  28.484   0.446
33118W        W 4647  34.633  24.682  14.407
33119W        W 4648  37.259  28.537   3.646
33120W        W 4649   0.664  24.565   3.251
33121W        W 4650  42.989  15.280   3.864
33122W        W 4651  29.722  31.405   5.317
33123W        W 4652   7.950  18.688   1.849
33124W        W 4653   5.266  16.928  10.707
33125W        W 4654  23.168  42.707  13.895
33126W        W 4655  26.139  38.102   0.466
33127W        W 4656   1.912  17.926   4.245
33128W        W 4657  11.811  20.602  13.803
33129W        W 4658  43.380  11.828  14.997
33130W        W 4659  15.903   9.585  11.309
33131W        W 4660  33.947  28.031  12.885
33132W        W 4661   9.792  13.300   0.687
33133W        W 4662  16.893  36.893  12.457
33134W        W 4663  23.152   6.450   2.610
33135W        W 4664  19.651  42.036   4.035
33136W        W 4665  14.587  13.164  10.704
33137W        W 4666   1.020  24.963   1.176
33138W        W 4667   1.032  34.760  10.850
33139W        W 4668   6.963   8.437  12.012
33140W        W 4669   8.757  22.751   0.490
33141W        W 4670  44.287  29.156   1.731
33142W        W 4671   4.432   0.506  10.735
33143W        W 4672  22.638  31.905   2.802
33144W        W 4673  13.904  20.723  14.936
33145W        W 4674  12.324  39.931  12.781
33146W        W 4675  38.767  33.963   1.286
33147W        W 4676  35.443  17.206   2.342
33148W        W 4677  18.779  17.136  11.916
33149W        W 4678  35.999   2.294   3.872
33150W        W 4679  37.285   1.600  10.793
33151W        W 4680  27.929  44.741  11.504
33152W        W 4681   7.262  21.008  14.027
33153W        W 4682  21.275  35.851  12.414
33154W        W 4683  16.133  12.024   3.181
33155W        W 4684   2.303  19.203  12.288
33156W        W 4685  27.071  21.739  11.114
33157W        W 4686   3.955  24.709  11.670
33158W        W 4687   0.324  26.767   4.140
33159W        W 4688  20.490  16.715  13.943
33160W        W 4689  25.934  29.351   0.885
33161W        W 4690  30.093   2.938   3.753
33162W        W 4691  18.074  28.476   2.562
33163W        W 4692  27.086   7.855   3.236
33164W        W 4693  18.341   8.360   3.148
33165W        W 4694  44.167  33.035  11.109
33166W        W 4695  44.468  28.654   1.192
33167W        W 4696   2.568  44.455  14.280
33168W        W 4697  18.740  11.760  14.982
33169W        W 4698   4.302   6.457   2.866
33170W        W 4699  44.555  37.970   0.151
33171W        W 4700  25.942  17.789  14.359
33172W        W 4701   0.236  13.129  14.546
33173W        W 4702  41.714   6.180   1.257
33174W        W 4703  21.691   7.748  10.749
33175W        W 4704  21.903  43.325   1.450
33176W        W 4705  15.490  40.501  14.931
33177W        W 4706   0.451  24.572   2.745
33178W        W 4707  23.115   5.237   0.035
33179W        W 4708  32.769  30.869  12.819
33180W        W 4709  32.873  10.159  12.451
33181W        W 4710  23.383  35.889   3.558
33182W        W 4711  26.770  11.715  11.939
33183W        W 4712   0.443  28.750   1.265
33184W        W 4713  39.912   0.585   1.894
33185W        W 4714  33.995   0.221   4.516
33186W        W 4715  43.827  15.566  13.811
33187W        W 4716  29.135  36.875   1.318
33188W        W 4717  24.718  38.834   4.596
33189W        W 4718  12.012  42.800   1.378
33190W        W 4719   4.024  15.015   1.688
33191W        W 4720   5.955  28.670   4.217
33192W        W 4721  16.826  25.115   0.162
33193W        W 4722  14.098  19.542   2.668
33194W        W 4723   5.829   0.747   4.302
33195W        W 4724  29.445  40.703  12.978
33196W        W 4725   0.774  31.529  12.524
33197W        W 4726   1.345  23.584   3.630
33198W        W 4727  37.011  12.147   2.274
33199W        W 4728  17.604  40.069  11.114
33200W        W 4729   1.466  41.929   1.058
33201W        W 4730  11.617  39.250  14.467
33202W        W 4731  43.306  41.434  11.526
33203W        W 4732   1.501   1.698  14.089
33204W        W 4733  41.509  25.604  10.755
33205W        W 4734   6.191  44.317   3.764
33206W        W 4735  21.036  38.181  12.516
33207W        W 4736   5.386  11.432   4.712
33208W        W 4737  30.825  13.350  14.677
33209W        W 4738  14.064   7.917   4.823
33210W        W 4739  26.981   1.386  13.442
33211W        W 4740  14.288  17.216   4.532
33212W        W 4741  36.950  14.569  12.180
33213W        W 4742   7.901  25.668   0.681
33214W        W 4743  40.784  33.448  13.842
33215W        W 4744  22.654  30.955  14.946
33216W        W 4745  29.609  11.019   4.556
33217W        W 4746  28.538  17.022  12.003
33218W        W 4747  24.489   7.695  14.959
33219W        W 4748  34.220   5.187   4.361
33220W        W 4749  21.714  32.609   3.473
33221W        W 4750  44.183   3.028  14.934
33222W        W 4751   8.729   4.559  13.219
33223W        W 4752   6.632   3.711   2.814
33224W        W 4753  15.216  19.500   5.170
33225W        W 4754  33.501   5.175   1.705
33226W        W 4755  29.121  27.843  14.580
33227W        W 4756  10.172   3.316  14.829
33228W        W 4757  14.731  39.823   2.190
33229W        W 4758  36.364  27.447  12.975
33230W        W 4759  15.122   0.486   0.293
33231W        W 4760  14.561  17.701  14.440
33232W        W 4761  12.299  41.975  14.174
33233W        W 4762  10.941  15.993   4.524
33234W        W 4763  16.178  16.741  14.933
33235W        W 4764   1.041  33.047  10.813
33236W        W 4765  11.255  28.219   4.919
33237W        W 4766  44.169   4.372   4.695
33238W        W 4767  22.068  10.700  12.629
33239W        W 4768   3.318  14.071  11.022
33240W        W 4769  18.568  26.852  11.971
33241W        W 4770  18.252  27.735   1.949
33242W        W 4771  33.060  27.130  13.354
33243W        W 4772  15.075  27.902   1.750
33244W        W 4773  12.079  20.275  13.497
33245W        W 4774  18.236   8.641   0.834
33246W        W 4775  35.774  40.434   1.042
33247W        W 4776   1.978  34.026  13.438
33248W        W 4777  11.411  30.522   3.739
33249W        W 4778  28.030  33.882   0.897
33250W        W 4779  28.958   2.915  12.497
33251W        W 4780  14.164   8.834  14.269
33252W        W 4781  11.871  41.926  14.881
33253W        W 4782  39.032  33.384  14.793
33254W        W 4783  22.486   6.219   2.465
33255W        W 4784  18.467  42.769   4.524
33256W        W 4785  22.745  19.692  11.594
33257W        W 4786   6.312  36.385   2.067
33258W        W 4787   8.316  17.804  11.506
33259W        W 4788  24.805   4.691  11.254
33260W        W 4789   1.998   3.667   1.285
33261W        W 4790  35.243  43.904  14.707
33262W        W 4791  11.254   9.143  10.313
33263W        W 4792  11.078  32.014  12.514
33264W        W 4793   1.872   0.226  13.525
33265W        W 4794   1.330  10.352   0.807
33266W        W 4795  35.286  32.666  11.627
33267W        W 4796  37.936  36.831  12.461
33268W        W 4797  23.839  38.000  12.479
33269W        W 4798  15.392  26.966   1.934
33270W        W 4799  31.034  31.479  11.470
33271W        W 4800  42.539  44.659  12.861
33272W        W 4801  16.166  36.996  11.496
33273W        W 4802   9.833  14.860   2.936
33274W        W 4803   9.295   4.493   4.607
33275W        W 4804  24.175   4.490  14.337
33276W        W 4805  29.506  20.218   2.888
33277W        W 4806  15.135  25.555   2.673
33278W        W 4807  20.462  27.912   4.204
33279W        W 4808  14.237  11.777  10.707
33280W        W 4809  20.235  28.882  11.241
33281W        W 4810  22.677  14.902  12.784
33282W        W 4811  23.449  12.471   3.249
33283W        W 4812  35.467  15.593  13.351
33284W        W 4813  39.496  42.587   3.341
33285W        W 4814  17.899  31.035   0.148
33286W        W 4815   9.543   5.232   2.347
33287W        W 4816   3.500  18.236  14.093
33288W        W 4817  14.066   9.913  10.276
33289W        W 4818  20.732  43.874   2.493
33290W        W 4819  26.890  27.031   1.356
33291W        W 4820   7.144  30.127   2.357
33292W        W 4821  41.491  17.235   2.466
33293W        W 4822  22.970  35.882  11.944
33294W        W 4823  25.466  19.667  12.934
33295W        W 4824  30.043  40.753  10.569
33296W        W 4825  43.405  17.829   3.274
33297W        W 4826  24.249  33.847   4.314
33298W        W 4827  12.038  20.892   1.282
33299W        W 4828  39.004  29.149   1.837
33300W        W 4829   6.348  36.946  14.636
33301W        W 4830  22.295  14.860  14.616
33302W        W 4831  44.227  28.823   2.910
33303W        W 4832   6.859  21.189  12.208
33304W        W 4833  28.631  33.947   1.024
33305W        W 4834  18.986  36.568  11.791
33306W        W 4835  29.775  14.608   4.259
33307W        W 4836   2.759  19.682  11.692
33308W        W 4837  32.405  11.394  10.635
33309W        W 4838   0.733  13.779   4.314
33310W        W 4839  12.187  30.925  12.881
33311W        W 4840  32.504   4.900  10.773
33312W        W 4841  12.735  31.196  13.436
33313W        W 4842  10.978  40.787   2.753
33314W        W 4843  41.287  27.645   1.958
33315W        W 4844   5.460  27.209   1.828
33316W        W 4845  24.404  37.189  14.814
33317W        W 4846  27.834  37.176  10.410
33318W        W 4847   9.283  19.064   1.444
33319W        W 4848  41.026   6.475   2.791
33320W        W 4849   1.008   8.955  12.694
33321W        W 4850  10.246  40.359   4.036
33322W        W 4851  22.544  32.538  10.700
33323W        W 4852  26.946  17.829   3.656
33324W        W 4853  17.107  25.014   1.878
33325W        W 4854  32.247   3.831  12.717
33326W        W 4855  34.599  25.026  11.425
33327W        W 4856  24.947  20.615  13.030
33328W        W 4857   8.240  33.600   1.829
33329W        W 4858  32.692   4.355   1.483
33330W        W 4859  33.172  35.130  14.952
33331W        W 4860  32.871  32.976   1.513
33332W        W 4861  19.562  22.606  10.777
33333W        W 4862  25.494  34.584   4.212
33334W        W 4863  15.069   4.869  12.331
33335W        W 4864  36.492  22.552  12.849
33336W        W 4865   0.435  32.852  12.547
33337W        W 4866  39.388  19.521   3.836
33338W        W 4867  43.292   2.013  12.164
33339W        W 4868  22.927  43.812   0.940
33340W        W 4869  29.814  11.620  14.340
33341W        W 4870  34.048  12.079   0.079
33342W        W 4871  28.528  41.757   0.886
33343W        W 4872  28.470  40.761  11.145
33344W        W 4873  15.723  40.337  11.057
33345W        W 4874  21.530   2.291   2.920
33346W        W 4875  44.818  43.366   1.158
33347W        W 4876  34.980  40.960   0.745
33348W        W 4877   3.840   8.315   2.719
33349W        W 4878  22.676  31.869  12.442
33350W        W 4879  39.398  38.810   2.400
33351W        W 4880  14.070  32.924   2.215
33352W        W 4881  36.364  29.258  10.707
33353W        W 4882  15.755  11.415   3.636
33354W        W 4883  14.632  17.834  13.452
33355W        W 4884  11.086  36.951  14.258
33356W        W 4885  16.281   5.841   0.500
33357W        W 4886  27.696   7.261  12.872
33358W        W 4887  12.021  39.455   2.125
33359W        W 4888  15.668  35.772   5.157
33360W        W 4889   6.808   7.938   1.322
33361W        W 4890  17.692  31.470   0.450
33362W        W 4891  10.334  14.884   0.320
33363W        W 4892  19.590   5.415  13.263
33364W        W 4893  19.112   9.366  10.748
33365W        W 4894  27.517  25.389  11.524
33366W        W 4895  14.584  24.566  12.818
33367W        W 4896   5.697   5.635  11.597
33368W        W 4897  16.174  32.787  14.401
33369W        W 4898  24.497  20.112  12.280
33370W        W 4899  25.486   9.588   2.443
33371W        W 4900  23.015  33.392  10.867
33372W        W 4901  43.255   3.488   0.645
33373W        W 4902   6.159   4.673  10.742
33374W        W 4903  13.457  31.140   4.837
33375W        W 4904  30.305  35.562   2.143
33376W        W 4905   2.258  27.433  14.498
33377W        W 4906  33.729  19.770   4.574
33378W        W 4907  42.495  28.763  13.043
33379W        W 4908  16.054  33.017   0.227
33380W        W 4909  39.393   3.726  11.504
33381W        W 4910   3.936  16.229  10.712
33382W        W 4911  38.423  21.857   0.679
33383W        W 4912  28.196   2.091   3.722
33384W        W 4913  18.510  22.748   0.413
33385W        W 4914   4.514  24.265  14.959
33386W        W 4915  44.087  42.997   2.217
33387W        W 4916  15.655  10.564   0.328
33388W        W 4917  42.588   1.919  11.593
33389W        W 4918   0.304  37.833  11.933
33390W        W 4919   4.703   3.684  11.040
33391W        W 4920  42.554   1.698   0.405
33392W        W 4921  13.849  44.471   1.406
33393W        W 4922  23.115  31.986  13.218
33394W        W 4923  38.310  25.165   1.957
33395W        W 4924  17.269  23.564  14.438
33396W        W 4925  41.231  32.724  14.577
33397W        W 4926  26.609  17.096  11.525
33398W        W 4927  44.677  25.876  10.533
33399W        W 4928  40.572  14.047   3.206
33400W        W 4929  18.205  13.405  10.751
33401W        W 4930   6.763  37.141   4.553
33402W        W 4931  24.126  21.075   0.288
33403W        W 4932  36.334   3.259  11.291
33404W        W 4933   9.738  42.965  14.444
33405W        W 4934  40.573  30.875   0.778
33406W        W 4935   7.939  21.769   3.742
33407W        W 4936  10.810   1.782  12.045
33408W        W 4937  35.807  40.051  12.143
33409W        W 4938  14.727  30.444  11.601
33410W        W 4939  32.005  21.367  13.336
33411W        W 4940  38.071   4.203  12.924
33412W        W 4941  25.731  20.092   3.546
33413W        W 4942  30.453  17.089   4.007
33414W        W 4943  21.437   5.286   3.144
33415W        W 4944  41.177  15.981   4.059
33416W        W 4945  16.146  16.079   3.833
33417W        W 4946   2.263  15.628   0.588
33418W        W 4947  21.908  43.804  11.097
33419W        W 4948   4.717  26.993   3.323
33420W        W 4949  27.453   9.691  13.959
33421W        W 4950  40.744  39.009   4.244
33422W        W 4951  24.469   3.130  13.804
33423W        W 4952   0.503   9.745   4.749
33424W        W 4953  17.378  25.030  11.195
33425W        W 4954  24.192  26.404   2.357
33426W        W 4955  43.730   4.260  13.169
33427W        W 4956  26.701  10.444   3.688
33428W        W 4957  36.980  24.513   3.243
33429W        W 4958   5.873  26.523  12.194
33430W        W 4959  33.874  27.048   1.742
33431W        W 4960   9.797  24.502   2.615
33432W        W 4961  27.736  13.394   2.925
33433W        W 4962  33.340   7.313   3.620
33434W        W 4963  44.996  33.103   1.210
33435W        W 4964   4.265  26.254  11.227
33436W        W 4965  23.795  15.766  13.563
33437W        W 4966  22.598  31.686  10.672
33438W        W 4967  24.721  37.964   3.354
33439W        W 4968  13.193  27.419  14.306
33440W        W 4969  28.018   9.115   2.333
33441W        W 4970   8.978  14.772  14.364
33442W        W 4971  30.518  40.878  13.841
33443W        W 4972  26.982  37.418  14.403
33444W        W 4973   6.233  29.510   0.527
33445W        W 4974  24.864  40.049  12.312
33446W        W 4975  38.076  27.009   2.391
33447W        W 4976  28.462  18.263  13.471
33448W        W 4977   0.469  11.663  12.935
33449W        W 4978   3.467  41.005   0.950
33450W        W 4979  28.347  26.642   2.285
33451W        W 4980   1.228  21.126  11.117
33452W        W 4981  35.633   3.824  12.853
33453W        W 4982   2.932   5.425  10.968
33454W        W 4983  43.554  40.689   2.931
33455W        W 4984  15.838  34.835   0.841
33456W        W 4985  33.784  31.896  12.458
33457W        W 4986  41.358  29.417  14.481
33458W        W 4987  38.374  12.702   0.744
33459W        W 4988  13.440   3.711  13.578
33460W        W 4989  22.053   3.639  13.442
33461W        W 4990  42.487  39.458  14.438
33462W        W 4991   1.345  10.602  11.581
33463W        W 4992  44.584  38.492  12.973
33464W        W 4993   0.659  36.701   4.670
33465W        W 4994   8.936  36.962  12.448
33466W        W 4995  10.900  26.635  10.590
33467W        W 4996   0.919   3.408   3.357
33468W        W 4997  21.940  30.161  13.020
33469W        W 4998  25.045  42.290   1.679
33470W        W 4999  12.740  34.834   3.571
33471W        W 5000  23.010  16.712   0.059
33472W        W 5001  40.370   5.811   0.710
33473W        W 5002   9.188  30.631   1.387
33474W        W 5003  32.244   9.766  14.455
33475W        W 5004  13.590  24.540  10.731
33476W        W 5005  44.543  44.759   3.020
33477W        W 5006  14.672  43.457  14.822
33478W        W 5007  18.378  33.970  14.613
33479W        W 5008  41.011  25.610   3.141
33480W        W 5009  37.537  12.792  12.907
33481W        W 5010  37.512  24.363  10.465
33482W        W 5011  41.601  22.051   4.866
33483W        W 5012  30.744  39.967  13.063
33484W        W 5013  37.936  19.361   0.213
33485W        W 5014   5.536  13.215   4.135
33486W        W 5015  27.562  22.412  14.446
33487W        W 5016  15.678  33.674   3.560
33488W        W 5017   5.834   5.748  14.295
33489W        W 5018  32.913  31.885   0.362
33490W        W 5019  17.794  31.713  14.597
33491W        W 5020  42.952   6.827   1.992
33492W        W 5021  38.523  34.511  11.014
33493W        W 5022  25.779  27.172   0.331
33494W        W 5023  10.124  43.419   1.411
33495W        W 5024  22.251  33.018  12.823
33496W        W 5025  17.632  10.314   1.593
33497W        W 5026  43.570  25.576   3.850
33498W        W 5027  12.372   1.237  11.169
33499W        W 5028   4.929  29.878   4.548
33500W        W 5029  19.427   0.337  10.213
33501W        W 5030  12.599  33.832   2.689
33502W        W 5031  25.686  40.706  11.579
33503W        W 5032  27.043  19.260   1.948
33504W        W 5033   1.294  28.479  11.036
33505W        W 5034  30.669  12.776   2.819
33506W        W 5035  39.323  30.431   4.140
33507W        W 5036  43.047  36.059   3.800
33508W        W 5037  21.194  11.606  11.934
33509W        W 5038  30.427  42.350  12.419
33510W        W 5039  22.092  44.520   0.826
33511W        W 5040  35.770  34.181   3.163
33512W        W 5041  18.606  33.420  13.336
33513W        W 5042  29.823  17.170  12.402
33514W        W 5043  23.279  37.049   4.159
33515W        W 5044  41.096   4.506  13.966
33516W        W 5045   3.018   2.433  12.904
33517W        W 5046  26.051  32.963  11.560
33518W        W 5047  19.102  25.518   1.968
33519W        W 5048   8.720   6.339   2.605
33520W        W 5049  26.550  35.890   0.224
33521W        W 5050  34.251   7.344   3.778
33522W        W 5051  28.037  20.206  14.418
33523W        W 5052  20.399  32.661   1.417
33524W        W 5053  25.978  18.638  12.099
33525W        W 5054   7.968  36.914  14.447
33526W        W 5055  13.190  43.244  11.120
33527W        W 5056  18.580  40.550  12.460
33528W        W 5057  42.365  40.935  10.330
33529W        W 5058  30.742  22.271  11.207
33530W        W 5059   8.450  39.322  12.548
33531W        W 5060  30.630  18.776   0.426
33532W        W 5061  12.202  22.264   1.309
33533W        W 5062  23.708  15.578  14.878
33534W        W 5063  14.071  43.218  12.446
33535W        W 5064  31.502  33.557  13.463
33536W        W 5065  14.575   1.104  11.576
33537W        W 5066  27.235   3.776   3.362
33538W        W 5067  41.859   4.065   2.594
33539W        W 5068  10.606   7.114  10.784
33540W        W 5069  28.203  27.587  11.552
33541W        W 5070   7.925  13.278  12.861
33542W        W 5071  44.228  23.560   4.483
33543W        W 5072   5.419  25.637  10.707
33544W        W 5073   5.411  17.352  13.926
33545W        W 5074  16.768  10.637  14.384
33546W        W 5075   7.305  12.672  13.469
33547W        W 5076  39.368   8.812  10.644
33548W        W 5077   0.205   8.388  13.907
33549W        W 5078  26.408  41.850  10.811
33550W        W 5079  30.669  32.681  11.140
33551W        W 5080  37.423  31.817   2.417
33552W        W 5081  31.206  11.160  13.033
33553W        W 5082  27.879  40.538   2.723
33554W        W 5083   6.591   7.361   2.226
33555W        W 5084  12.757  28.210  14.036
33556W        W 5085  26.916  21.144  12.712
33557W        W 5086  14.188   8.386   1.915
33558W        W 5087  26.341  29.902  11.143
33559W        W 5088  18.114  14.684   2.584
33560W        W 5089  19.241  19.070  14.456
33561W        W 5090  28.042  23.065  10.750
33562W        W 5091   1.481   3.602  14.997
33563W        W 5092  21.047  20.815   2.845
33564W        W 5093  24.604  36.171  14.377
33565W        W 5094  25.737  13.622  12.008
33566W        W 5095   2.889  36.377   2.965
33567W        W 5096  13.358   8.771  14.899
33568W        W 5097  16.042   1.059   2.796
33569W        W 5098  31.018  28.099  14.436
33570W        W 5099  26.174  33.884   4.148
33571W        W 5100  23.554  33.277   1.745
33572W        W 5101  29.873  14.228   2.597
33573W        W 5102  34.225  42.920  13.395
33574W        W 5103  33.805   7.822   2.211
33575W        W 5104  38.342  41.852   0.868
33576W        W 5105  44.323   1.468   4.227
33577W        W 5106  20.204  17.354  14.946
33578W        W 5107  14.883  30.073   4.201
33579W        W 5108  12.917  11.568  13.835
33580W        W 5109  22.614   0.157  11.939
33581W        W 5110  17.864  20.631   1.733
33582W        W 5111  25.581  18.625  10.763
33583W        W 5112  25.070  27.012   2.827
33584W        W 5113   5.230   5.911  12.456
33585W        W 5114   4.499  40.377   0.314
33586W        W 5115  19.128  33.586   0.966
33587W        W 5116   1.754  11.933  13.956
33588W        W 5117  35.460  28.121  13.944
33589W        W 5118  37.017   0.534  13.007
33590W        W 5119  43.302  35.616   2.932
33591W        W 5120  13.633  14.866   0.422
33592W        W 5121  28.632  24.473  14.235
33593W        W 5122  10.935  37.994   2.852
33594W        W 5123  33.476  18.689   2.813
33595W        W 5124  11.846   8.785   1.363
33596W        W 5125  11.652  16.344   1.808
33597W        W 5126   6.571  37.073  11.614
33598W        W 5127  11.121  13.237  12.944
33599W        W 5128  44.080  42.525   1.914
33600W        W 5129  36.991  43.828   1.792
33601W        W 5130   3.099   8.706   5.060
33602W        W 5131  14.157   4.573  12.598
33603W        W 5132  15.577   4.377  12.461
33604W        W 5133   4.166  28.445   3.534
33605W        W 5134  22.563  33.455   0.376
33606W        W 5135   9.191  40.764   3.670
33607W        W 5136  32.348  15.675   3.633
33608W        W 5137  18.688  44.538  12.442
33609W        W 5138  22.473  29.997  14.883
33610W        W 5139  35.447   5.355   0.340
33611W        W 5140  44.732  22.528   1.450
33612W        W 5141  27.807  18.259  12.193
33613W        W 5142  36.433  33.541   3.397
33614W        W 5143  27.205  37.127  11.527
33615W        W 5144   7.348  30.132  12.105
33616W        W 5145  12.308  42.591  11.137
33617W        W 5146  23.017   6.157  12.028
33618W        W 5147  15.838   9.582   1.846
33619W        W 5148  11.820   8.246   3.705
33620W        W 5149  42.084  35.603  12.398
33621W        W 5150  35.066  39.296   0.857
33622W        W 5151  27.043  33.464   2.680
33623W        W 5152  12.303  10.944   1.800
33624W        W 5153  28.709   0.263   2.642
33625W        W 5154  24.878   6.965   0.531
33626W        W 5155  11.229  28.118   4.393
33627W        W 5156  13.656  11.607  12.500
33628W        W 5157  33.110  30.481   3.882
33629W        W 5158  27.906  39.308  10.684
33630W        W 5159  44.700  20.296  14.694
33631W        W 5160  39.739   2.499  12.051
33632W        W 5161  11.953  38.576   4.231
33633W        W 5162   3.428  29.858  13.765
33634W        W 5163  11.146  28.454   1.274
33635W        W 5164   8.175  16.306   2.641
33636W        W 5165  38.108  41.880  13.338
33637W        W 5166  43.314   4.971   3.458
33638W        W 5167   6.622  14.535  13.798
33639W        W 5168   6.191  44.965  12.069
33640W        W 5169  14.916  27.286  13.911
33641W        W 5170  25.719   6.613  10.715
33642W        W 5171  39.079  12.788  13.166
33643W        W 5172  27.745   9.418   0.248
33644W        W 5173  10.208   0.765  14.840
33645W        W 5174  27.106   4.281  12.001
33646W        W 5175  27.999  30.918  12.455
33647W        W 5176  11.212   5.240  13.317
33648W        W 5177  18.787   9.851  13.660
33649W        W 5178  31.204  33.961  12.922
33650W        W 5179  23.755  25.977  12.555
33651W        W 5180  26.537   7.281  10.397
33652W        W 5181   6.595  30.943   2.401
33653W        W 5182   7.810  23.166   0.381
33654W        W 5183  17.272  38.348   0.707
33655W        W 5184  35.344  24.599  10.509
33656W        W 5185   6.385  32.433  11.196
33657W        W 5186  16.234  29.451  13.858
33658W        W 5187  38.021  40.512   2.291
33659W        W 5188  37.467  28.297  12.114
33660W        W 5189  23.521  44.751   2.072
33661W        W 5190  12.892   6.567   1.331
33662W        W 5191  31.230  40.578  14.422
33663W        W 5192  44.747  41.084  11.588
33664W        W 5193  13.140  17.606   0.867
33665W        W 5194  36.150  41.442  13.878
33666W        W 5195   3.451  38.742  14.401
33667W        W 5196  44.837  44.037  11.480
33668W        W 5197  40.560  41.056  14.054
33669W        W 5198  43.879  15.410   4.210
33670W        W 5199  17.119  32.597   4.458
33671W        W 5200  15.010  22.032  14.245
33672W        W 5201   6.269  28.563  11.268
33673W        W 5202  29.073  44.236   4.690
33674W        W 5203  14.308   3.359   3.785
33675W        W 5204  31.130  28.597  10.595
33676W        W 5205   3.004  41.009  14.319
33677W        W 5206  27.441   7.868  13.600
33678W        W 5207   1.794  27.250  10.955
33679W        W 5208  37.435  10.724   3.210
33680W        W 5209  15.879   9.140   1.210
33681W        W 5210  40.007   1.832  10.737
33682W        W 5211  20.433  40.295  12.869
33683W        W 5212  44.997  14.131  13.329
33684W        W 5213   5.482  23.833  14.397
33685W        W 5214  30.397  43.349   4.093
33686W        W 5215  26.883  21.489   4.144
33687W        W 5216   4.404  37.877  14.819
33688W        W 5217  39.873   4.343  10.781
33689W        W 5218  22.265   4.899  14.386
33690W        W 5219  25.927  20.824   0.762
33691W        W 5220   8.652  28.479   2.749
33692W        W 5221  26.882   5.189   0.020
33693W        W 5222  11.376  38.110   0.890
33694W        W 5223  26.033  27.560   1.420
33695W        W 5224   6.873  11.512  12.004
33696W        W 5225   4.181   3.719  13.080
33697W        W 5226  20.053   9.314  14.175
33698W        W 5227  27.597  39.101  12.085
33699W        W 5228  39.261  38.013   1.824
33700W        W 5229   5.360  44.485  12.511
33701W        W 5230   6.157   2.390   1.168
33702W        W 5231  16.851  35.388   4.131
33703W        W 5232   1.037  29.764  10.994
33704W        W 5233  33.490  39.893   3.001
33705W        W 5234  44.030  17.119   1.713
33706W        W 5235  15.686  27.895   1.469
33707W        W 5236  17.482  14.683   3.369
33708W        W 5237  37.041  31.014  13.552
33709W        W 5238   5.637   9.238  11.501
33710W        W 5239  13.217  16.695  13.187
33711W        W 5240  39.816  28.697  12.032
33712W        W 5241  22.011   9.812   2.948
33713W        W 5242  10.396  30.676  11.145
33714W        W 5243  33.109  26.795  11.388
33715W        W 5244  39.917  42.297  11.800
33716W        W 5245  16.587  17.863   2.133
33717W        W 5246   1.387  37.458  13.879
33718W        W 5247   0.113   3.770  13.793
33719W        W 5248  13.875  25.913  11.778
33720W        W 5249  25.053  36.689   2.434
33721W        W 5250  24.621  17.498   4.590
33722W        W 5251  35.501  25.925  13.352
33723W        W 5252  29.765   1.860   5.103
33724W        W 5253  42.955  21.975  13.974
33725W        W 5254  30.564   5.171  12.153
33726W        W 5255  22.716  21.956   3.220
33727W        W 5256  36.927  36.494   0.266
33728W        W 5257  22.338  34.280   0.076
33729W        W 5258  42.390  12.219  10.652
33730W        W 5259  15.521   1.853  14.065
33731W        W 5260  12.578  15.198  12.540
33732W        W 5261  13.268  10.704  11.337
33733W        W 5262   3.992  18.633  14.800
33734W        W 5263  35.558   3.227   2.132
33735W        W 5264  43.746   5.995  13.895
33736W        W 5265  27.083  26.428  13.045
33737W        W 5266  32.594  20.220  13.431
33738W        W 5267  11.072   7.176  13.872
33739W        W 5268  19.278   5.136  13.805
33740W        W 5269  21.592   2.886  13.993
33741W        W 5270  39.818   4.758  11.671
33742W        W 5271  38.480  28.410   3.227
33743W        W 5272   8.180  24.504   1.703
33744W        W 5273   0.073  32.166   2.670
33745W        W 5274  43.810  11.840  14.412
33746W        W 5275  44.304  38.454   2.083
33747W        W 5276  35.221  35.957  13.578
33748W        W 5277   9.963  44.876  14.304
33749W        W 5278  43.283  23.198   0.407
33750W        W 5279   1.817  18.902   0.812
33751W        W 5280  41.070  24.576  12.353
33752W        W 5281   6.655  44.214   3.957
33753W        W 5282   4.371   4.510   2.831
33754W        W 5283  39.392   9.583   2.016
33755W        W 5284  17.711  24.654  11.148
33756W        W 5285  44.269  40.915  14.589
33757W        W 5286  12.737  16.224   2.200
33758W        W 5287  29.767  17.261   9.986
33759W        W 5288   5.724  41.717  13.411
33760W        W 5289  44.181   8.394  12.462
33761W        W 5290  32.591  35.531  11.714
33762W        W 5291  43.395  33.194  14.854
33763W        W 5292  25.665   9.206  13.885
33764W        W 5293  24.825   0.691   4.934
33765W        W 5294  42.030   4.202  14.076
33766W        W 5295  17.103  39.867   4.004
33767W        W 5296  42.394  35.549   1.243
33768W        W 5297  14.721  33.906  13.562
33769W        W 5298  30.541  13.891  11.174
33770W        W 5299  27.303   0.411   2.943
33771W        W 5300  18.340  16.565   1.428
33772W        W 5301  30.165  15.737   4.511
33773W        W 5302   7.881  24.958  11.538
33774W        W 5303  15.596  35.750  11.110
33775W        W 5304  23.935  22.490   1.756
33776W        W 5305  42.900  36.325  12.888
33777W        W 5306  22.010  15.870   1.679
33778W        W 5307  29.230  26.214  14.870
33779W        W 5308  41.394  30.351  13.032
33780W        W 5309  33.538  36.754   4.410
33781W        W 5310  18.304  18.716   0.888
33782W        W 5311   2.682  29.066   0.142
33783W        W 5312  15.925  27.207   2.693
33784W        W 5313  36.863   7.896  11.258
33785W        W 5314  15.505  28.477  13.505
33786W        W 5315   9.599   0.026   0.331
33787W        W 5316  38.326   3.793   4.556
33788W        W 5317  34.867  42.520  13.740
33789W        W 5318  43.928  22.634   0.717
33790W        W 5319  28.492  16.395   1.645
33791W        W 5320   3.561   4.298   4.181
33792W        W 5321  29.386  43.429   4.196
33793W        W 5322  33.830  29.658   3.731
33794W        W 5323  25.942  10.889  10.811
33795W        W 5324  28.605  27.786   0.371
33796W        W 5325  43.153  17.547   2.920
33797W        W 5326   7.610  36.522  14.554
33798W        W 5327  30.501  21.208   0.341
33799W        W 5328  35.386  39.232  11.727
33800W        W 5329   2.822  36.491  10.361
33801W        W 5330  42.841  24.511  14.880
33802W        W 5331  20.482   7.928  12.375
33803W        W 5332  30.503  24.578   0.380
33804W        W 5333   2.128  11.454   3.432
33805W        W 5334   7.490  37.102  13.868
33806W        W 5335   2.704  38.151   3.824
33807W        W 5336  24.270  29.606   1.935
33808W        W 5337  26.157   7.646   1.381
33809W        W 5338  27.455  32.354  11.459
33810W        W 5339  24.821  30.497   1.896
33811W        W 5340  36.921   7.253   0.060
33812W        W 5341   2.852  26.607  10.897
33813W        W 5342  11.096  43.340   0.362
33814W        W 5343  31.964  36.773  12.855
33815W        W 5344  42.987  21.256  11.131
33816W        W 5345   9.018   4.808  14.435
33817W        W 5346  22.818   8.709  10.815
33818W        W 5347  16.962   5.366  13.473
33819W        W 5348  31.851  41.328  14.462
33820W        W 5349   4.137   0.334   1.884
33821W        W 5350  24.248  43.503   0.386
33822W        W 5351  43.205  30.853  13.528
33823W        W 5352  29.088  26.119   4.803
33824W        W 5353   2.204  28.783   0.036
33825W        W 5354  27.134  28.055   2.638
33826W        W 5355  39.345  17.248   3.041
33827W        W 5356  14.496  20.104   3.285
33828W        W 5357  33.178   6.130   2.408
33829W        W 5358  42.478  23.579   4.521
33830W        W 5359  38.899  39.978  12.817
33831W        W 5360  16.666  23.966   5.016
33832W        W 5361   9.655   2.550  13.461
33833W        W 5362  22.204   5.709  12.110
33834W        W 5363  26.873  42.834   4.284
33835W        W 5364  21.334  34.533   4.144
33836W        W 5365  23.991  37.975  11.648
33837W        W 5366  35.014   8.128   3.289
33838W        W 5367  43.297   5.404  12.564
33839W        W 5368  29.589  17.273   2.337
33840W        W 5369  19.883  33.322   2.689
33841W        W 5370  34.024  28.854  10.715
33842W        W 5371  16.707   4.790   4.277
33843W        W 5372  29.496  37.362   4.449
33844W        W 5373  22.014   8.707   2.782
33845W        W 5374   5.522  24.068  11.118
33846W        W 5375   9.193  27.131  13.335
33847W        W 5376  11.800  16.228  12.088
33848W        W 5377  41.382  12.439  12.484
33849W        W 5378  44.346  28.474  11.124
33850W        W 5379  23.048  37.211  13.914
33851W        W 5380  37.359   9.836   2.994
33852W        W 5381  28.770   1.951   0.099
33853W        W 5382  44.908   8.820  13.749
33854W        W 5383  39.114  19.809  13.718
33855W        W 5384  25.635  42.404  13.816
33856W        W 5385   8.871  10.789  13.387
33857W        W 5386  25.699  39.077   2.381
33858W        W 5387  20.508  29.451  11.555
33859W        W 5388   3.936   7.379  11.987
33860W        W 5389  39.864  38.774   0.911
33861W        W 5390  38.120  34.335  11.269
33862W        W 5391   9.596  41.950  12.600
33863W        W 5392  22.171  37.800  14.963
33864W        W 5393  33.148   9.616  10.623
33865W        W 5394  26.740  22.745  13.050
33866W        W 5395  41.681  14.180   9.646
33867W        W 5396  13.295  22.407  10.740
33868W        W 5397  26.441   0.352   3.204
33869W        W 5398  17.770  29.572   4.087
33870W        W 5399   2.158  32.165  14.948
33871W        W 5400  23.960  18.679  12.172
33872W        W 5401  41.871  11.168   2.734
33873W        W 5402  24.456  10.489  14.322
33874W        W 5403   6.394  21.210  14.867
33875W        W 5404  39.771  16.439  10.633
33876W        W 5405  22.017  44.432   2.174
33877W        W 5406   8.455  28.406  10.978
33878W        W 5407  34.602  43.944  14.566
33879W        W 5408  27.208  34.865   4.240
33880W        W 5409  39.616   3.542  13.757
33881W        W 5410  28.713   0.495   4.369
33882W        W 5411  41.393   4.227   0.510
33883W        W 5412  22.200  38.325  11.929
33884W        W 5413   9.258   9.007  11.559
33885W        W 5414  16.110  14.133   3.659
33886W        W 5415  32.937  44.553   0.634
33887W        W 5416  42.407  18.738  11.543
33888W        W 5417  42.011  36.084  12.535
33889W        W 5418  17.367  26.776  10.194
33890W        W 5419  11.509  17.249  12.611
33891W        W 5420  16.202  31.403  12.547
33892W        W 5421  26.514  34.276   4.921
33893W        W 5422  10.277  41.329  11.690
33894W        W 5423  20.475  10.013  14.828
33895W        W 5424   5.595   7.857   2.243
33896W        W 5425  14.262  17.027   1.904
33897W        W 5426   9.822  35.523   4.841
33898W        W 5427  10.939  39.679   0.996
33899W        W 5428  24.486  37.432  13.492
33900W        W 5429   0.374  40.346  14.979
33901W        W 5430  12.824   9.235  12.685
33902W        W 5431   6.728   4.679   4.518
33903W        W 5432  11.334  43.020  10.059
33904W        W 5433  24.292  19.041  11.026
33905W        W 5434  41.959  31.134   4.827
33906W        W 5435  24.765  33.075  14.455
33907W        W 5436  44.925  22.336  12.791
33908W        W 5437  22.528  12.261  12.033
33909W        W 5438  26.578   3.506   2.855
33910W        W 5439   2.469  32.192  12.119
33911W        W 5440  16.284   8.147   3.255
33912W        W 5441  23.093  24.246   1.872
33913W        W 5442  27.518  26.228  12.862
33914W        W 5443   3.230  12.169  14.427
33915W        W 5444   8.815  18.401   3.571
33916W        W 5445  13.577  43.248  11.635
33917W        W 5446  33.695   4.501  11.054
33918W        W 5447  40.627  27.270   2.731
33919W        W 5448  28.104  43.766  13.008
33920W        W 5449  17.078  16.070  12.025
33921W        W 5450  10.604   8.427  11.687
33922W        W 5451   4.336  22.522  13.013
33923W        W 5452  10.718  27.918   0.696
33924W        W 5453  34.037  33.867   4.657
33925W        W 5454  22.231  14.565   2.351
33926W        W 5455  30.599  26.633   1.047
33927W        W 5456  39.837  27.009  12.123
33928W        W 5457  23.535  17.036  11.178
33929W        W 5458  35.563  11.637   3.615
33930W        W 5459  33.868  36.416   2.206
33931W        W 5460  27.907  14.168  12.986
33932W        W 5461  21.179   9.899   3.729
33933W        W 5462  30.097  42.272   4.239
33934W        W 5463  40.149   7.830   1.326
33935W        W 5464   5.458  19.740   0.362
33936W        W 5465  33.866  27.787  13.333
33937W        W 5466  18.548  18.308  12.649
33938W        W 5467  12.652  30.432  11.938
33939W        W 5468  30.152  10.348  13.999
33940W        W 5469   4.453  41.772  12.079
33941W        W 5470  40.962  36.896  13.800
33942W        W 5471   2.820  43.831   1.300
33943W        W 5472  20.624  33.039   1.686
33944W        W 5473  42.533  22.535   0.775
33945W        W 5474  42.557  28.981   2.768
33946W        W 5475   2.888  26.237   0.287
33947W        W 5476   2.983  44.181  14.434
33948W        W 5477   4.387   4.568  12.149
33949W        W 5478   2.651  36.969  10.479
33950W        W 5479   4.637  23.462   4.070
33951W        W 5480   4.221  39.869  14.920
33952W        W 5481   8.405  43.339   1.213
33953W        W 5482  40.813   6.706   3.203
33954W        W 5483  40.765  28.085   1.338
33955W        W 5484   0.522  25.559   2.928
33956W        W 5485  16.048   6.794   3.052
33957W        W 5486   3.437  18.095   3.393
33958W        W 5487  43.820  38.132   1.727
33959W        W 5488  25.911  19.544   1.736
33960W        W 5489  27.744  41.968   0.750
33961W        W 5490  42.242  15.167  13.316
33962W        W 5491  44.358  34.630   0.354
33963W        W 5492  43.428  26.206   2.369
33964W        W 5493  23.695  44.491  11.958
33965W        W 5494  26.490   2.781   0.258
33966W        W 5495  15.516  14.761  12.345
33967W        W 5496   8.230  21.806  14.900
33968W        W 5497  28.143  28.009   3.553
33969W        W 5498  44.562   1.137   3.372
33970W        W 5499  28.134  21.788   3.221
33971W        W 5500  26.982  38.016   0.244
33972W        W 5501   2.786  18.121   2.664
33973W        W 5502  22.158  18.670  10.524
33974W        W 5503   8.205  17.641   2.373
33975W        W 5504  24.434  27.097  12.496
33976W        W 5505  43.839  19.147  10.756
33977W        W 5506  41.049  31.106   4.343
33978W        W 5507  18.990  31.601  11.167
33979W        W 5508  35.281  25.606   2.326
33980W        W 5509  22.770  36.230  14.301
33981W        W 5510   3.080  24.663  10.655
33982W        W 5511   4.940  20.175  13.419
33983W        W 5512  28.826   9.724   4.598
33984W        W 5513  29.519  25.017  14.267
33985W        W 5514  21.877  20.651  11.674
33986W        W 5515  21.129  35.405  12.656
33987W        W 5516   8.667  26.745  14.925
33988W        W 5517  14.521   6.685  12.460
33989W        W 5518  43.041  43.261   4.238
33990W        W 5519  15.453  18.912   5.334
33991W        W 5520  20.024   0.572  12.490
33992W        W 5521  15.698  27.975  12.005
33993W        W 5522  18.896  22.763  10.201
33994W        W 5523  34.185   9.748   4.234
33995W        W 5524  24.774  40.097  14.949
33996W        W 5525  25.323  30.239   4.625
33997W        W 5526  41.520  21.578  11.162
33998W        W 5527  33.847  38.923  12.505
33999W        W 5528   8.111  14.687  12.442
34000W        W 5529   4.311   1.195   3.261
34001W        W 5530  33.409  38.016   4.869
34002W        W 5531  33.050  13.578   2.330
34003W        W 5532  30.572  26.684  13.985
34004W        W 5533  39.822  20.915  14.954
34005W        W 5534  19.146  41.559   0.261
34006W        W 5535  18.796  42.999  10.998
34007W        W 5536   9.072  33.119   1.810
34008W        W 5537  12.642  26.264   2.411
34009W        W 5538   9.016   9.536   2.899
34010W        W 5539  29.329  15.817  11.771
34011W        W 5540  31.303   6.949   2.337
34012W        W 5541  33.775   8.928  11.694
34013W        W 5542  14.925   8.756   2.293
34014W        W 5543   5.854  10.646  10.779
34015W        W 5544  17.730  35.006   1.693
34016W        W 5545   5.699  39.766   1.021
34017W        W 5546  40.812   3.328   0.283
34018W        W 5547  26.015  12.648  10.613
34019W        W 5548  42.943   0.657   1.478
34020W        W 5549   5.219  17.041  13.537
34021W        W 5550  44.866  35.419  12.461
34022W        W 5551  25.565   9.278  12.931
34023W        W 5552  35.931  21.702  12.836
34024W        W 5553  22.511  36.093  12.039
34025W        W 5554  10.699   6.849   4.732
34026W        W 5555   4.941  21.600   0.815
34027W        W 5556  10.705  13.948   2.914
34028W        W 5557  44.486  30.093   2.372
34029W        W 5558  29.560  18.166   4.549
34030W        W 5559  17.980   9.300   0.272
34031W        W 5560  11.857   9.075   2.279
34032W        W 5561   9.763  41.270  11.894
34033W        W 5562   4.373  41.513  10.973
34034W        W 5563  40.546  14.665   4.858
34035W        W 5564   4.000   7.891   3.655
34036W        W 5565  24.776  10.805   4.737
34037W        W 5566  37.077  31.888  12.835
34038W        W 5567   6.558  18.730  11.907
34039W        W 5568   5.062  22.407   0.124
34040W        W 5569   3.933   0.088  11.410
34041W        W 5570  23.544  30.872   0.031
34042W        W 5571  44.415   4.732  11.487
34043W        W 5572   3.225  32.416   3.094
34044W        W 5573  23.347  20.090   3.850
34045W        W 5574  16.157  36.933  10.769
34046W        W 5575   4.341  27.495   2.181
34047W        W 5576  10.679  39.293   2.933
34048W        W 5577  17.856   7.130   2.868
34049W        W 5578  12.576  25.261  12.412
34050W        W 5579  25.142  21.885   2.872
34051W        W 5580  27.183  19.919  11.564
34052W        W 5581   5.275   8.278  10.641
34053W        W 5582   5.327  10.753   3.258
34054W        W 5583  41.396  12.963  12.480
34055W        W 5584  34.390  39.993  11.636
34056W        W 5585  35.503  15.228  10.779
34057W        W 5586   3.560  38.401   2.353
34058W        W 5587  28.518  28.379   2.904
34059W        W 5588  35.711  21.950   0.448
34060W        W 5589  25.924  44.971   4.772
34061W        W 5590   2.026  11.480  14.552
34062W        W 5591  15.080  43.542   3.794
34063W        W 5592   2.255  24.975  10.858
34064W        W 5593  25.197   3.113   4.529
34065W        W 5594   1.915   5.889   0.036
34066W        W 5595  16.064  34.594   2.581
34067W        W 5596  44.471  37.612   2.333
34068W        W 5597  15.103   1.452  12.919
34069W        W 5598  41.951  37.334   4.770
34070W        W 5599  26.353  42.845   1.913
34071W        W 5600  19.980  14.001   3.192
34072W        W 5601  23.811  28.951  14.785
34073W        W 5602  41.116   7.367  11.058
34074W        W 5603  43.556  20.171  12.817
34075W        W 5604  34.376  15.639  14.814
34076W        W 5605  30.205   2.855  12.315
34077W        W 5606   4.126  22.592  12.502
34078W        W 5607   3.667  12.930   1.206
34079W        W 5608   0.259  28.560  12.193
34080W        W 5609   9.275  36.873   4.595
34081W        W 5610  24.264  35.060  13.916
34082W        W 5611  23.462   2.308   0.069
34083W        W 5612  30.730  12.388   1.271
34084W        W 5613  35.445  36.006   4.893
34085W        W 5614  34.967   0.632  14.835
34086W        W 5615  32.579  20.610  10.922
34087W        W 5616  43.282  25.267  12.124
34088W        W 5617  12.210   6.171  12.995
34089W        W 5618  29.424  21.761  11.544
34090W        W 5619   0.307  42.173   2.259
34091W        W 5620  34.680  36.505   4.759
34092W        W 5621  43.544  30.169   4.022
34093W        W 5622   7.227  26.691   1.368
34094W        W 5623   9.466   2.475   4.112
34095W        W 5624   1.229  35.880  10.575
34096W        W 5625  10.654  31.137  11.147
34097W        W 5626   9.127   1.231  14.386
34098W        W 5627  38.455   0.477   1.194
34099W        W 5628  19.603  18.168  11.709
34100W        W 5629  18.096  19.382  11.983
34101W        W 5630  19.191  10.071   1.316
34102W        W 5631   1.381   2.789   4.287
34103W        W 5632   6.455  43.619  11.331
34104W        W 5633  28.102  32.078  13.934
34105W        W 5634  29.469   2.496  13.528
34106W        W 5635  33.261  41.398   0.333
34107W        W 5636  17.725  12.795   4.661
34108W        W 5637  14.728  17.692   2.425
34109W        W 5638  11.982  15.328   0.811
34110W        W 5639  26.997  43.480  11.979
34111W        W 5640  36.375  10.280   4.112
34112W        W 5641  31.200  28.409   0.445
34113W        W 5642  18.668   0.441   1.894
34114W        W 5643  42.928  11.561   5.088
34115W        W 5644  10.658  29.541   0.952
34116W        W 5645  43.975  33.455  10.520
34117W        W 5646  38.099   3.698  12.896
34118W        W 5647  44.811   1.324  13.414
34119W        W 5648  44.806  16.076  10.765
34120W        W 5649  25.028  19.797   0.992
34121W        W 5650   5.960   6.313  11.254
34122W        W 5651  35.425  15.117   2.283
34123W        W 5652  29.145  39.374   4.322
34124W        W 5653  10.224  44.325  14.820
34125W        W 5654  32.986   0.235  12.387
34126W        W 5655  40.526   8.361  12.026
34127W        W 5656   4.193  27.879  14.279
34128W        W 5657  43.465  13.327  12.877
34129W        W 5658  38.071  40.335   4.549
34130W        W 5659  23.709  40.760  13.354
34131W        W 5660  30.715   9.511   5.095
34132W        W 5661   4.976  30.923   4.422
34133W        W 5662  33.455  43.806  10.568
34134W        W 5663  40.573   8.769   4.923
34135W        W 5664  26.359  22.871  12.515
34136W        W 5665  23.218  17.139   0.333
34137W        W 5666  41.597  26.237   3.758
34138W        W 5667  18.937  10.072   2.695
34139W        W 5668  19.125  11.754   4.131
34140W        W 5669  41.527  13.453  12.640
34141W        W 5670   0.808  40.069  14.754
34142W        W 5671   8.194   8.418   2.547
34143W        W 5672  14.997  44.982  14.421
34144W        W 5673  35.404  23.137  13.150
34145W        W 5674  24.665  36.941  13.847
34146W        W 5675   3.735   0.967   4.440
34147W        W 5676   8.673  42.793   2.317
34148W        W 5677  42.881  40.285   0.264
34149W        W 5678  35.493  17.561  12.301
34150W        W 5679  14.692  14.187   1.673
34151W        W 5680   2.467  29.580  13.668
34152W        W 5681  29.529   3.185  13.943
34153W        W 5682  23.807  33.541  12.705
34154W        W 5683   4.781  23.075  14.320
34155W        W 5684  23.661   0.325   2.919
34156W        W 5685  41.968  40.458   4.182
34157W        W 5686  19.988  19.273  14.955
34158W        W 5687   0.567  31.107   1.990
34159W        W 5688  27.220  29.342   4.461
34160W        W 5689  23.263  16.743  14.600
34161W        W 5690  34.094   9.857  11.520
34162W        W 5691  17.622  19.061   1.840
34163W        W 5692  28.065  15.675   1.682
34164W        W 5693   6.422  24.259  12.012
34165W        W 5694  43.440  25.151   2.373
34166W        W 5695  24.209  24.888  13.054
34167W        W 5696  24.043   6.363   0.727
34168W        W 5697  15.254   2.580   1.275
34169W        W 5698  32.038  39.873  13.230
34170W        W 5699  34.628  16.823   2.196
34171W        W 5700  31.508   6.440  12.953
34172W        W 5701  28.506  12.066   1.366
34173W        W 5702  40.583  30.523   1.769
34174W        W 5703  15.990  41.516  11.402
34175W        W 5704   1.861   8.246  13.406
34176W        W 5705  21.082  23.240  11.769
34177W        W 5706  41.429  41.774   2.816
34178W        W 5707   6.192  18.694   4.075
34179W        W 5708  31.525   4.010  13.969
34180W        W 5709   8.305   7.413   0.971
34181W        W 5710   5.014  44.358  12.149
34182W        W 5711  10.616  11.240   0.435
34183W        W 5712  21.027  26.579   3.232
34184W        W 5713  13.501  34.266  11.188
34185W        W 5714  11.387   5.758  11.605
34186W        W 5715  44.958  19.318  11.677
34187W        W 5716  16.007  39.492   1.919
34188W        W 5717  22.682  22.044   1.329
34189W        W 5718  34.099  33.334   1.911
34190W        W 5719  29.147  21.448  14.320
34191W        W 5720  13.647  24.618   4.098
34192W        W 5721  11.689  44.313  12.983
34193W        W 5722  13.884  25.905   3.128
34194W        W 5723  34.065  38.589   4.737
34195W        W 5724  37.632  23.033   2.211
34196W        W 5725   6.506   7.458  14.375
34197W        W 5726  19.233  18.686  10.550
34198W        W 5727  32.398  35.514   4.248
34199W        W 5728  44.764  37.629   1.913
34200W        W 5729  27.580  15.800  10.467
34201W        W 5730  21.798  28.885   1.705
34202W        W 5731   7.288   9.791  11.262
34203W        W 5732  22.465   0.284   2.358
34204W        W 5733   6.084   1.923   4.169
34205W        W 5734  32.618  44.206  10.679
34206W        W 5735  33.114   0.954   1.876
34207W        W 5736   8.323   7.519  11.673
34208W        W 5737  17.232  26.657  12.576
34209W        W 5738  14.402  26.488  11.132
34210W        W 5739   1.439  21.763  14.542
34211W        W 5740   4.646  30.689  14.847
34212W        W 5741  25.776  35.294  13.098
34213W        W 5742  20.693  19.072   3.174
34214W        W 5743  17.119  32.514  11.658
34215W        W 5744  16.048  41.167   4.031
34216W        W 5745  40.844  33.564   0.041
34217W        W 5746  15.075  17.717   4.605
34218W        W 5747  35.373   0.540  13.953
34219W        W 5748   1.335   2.943  14.241
34220W        W 5749  33.136  11.159  14.682
34221W        W 5750   0.931  39.906   1.625
34222W        W 5751  41.082  16.095  10.596
34223W        W 5752  13.564  28.093  12.913
34224W        W 5753  19.792  12.116   0.926
34225W        W 5754  44.898  41.913   0.203
34226W        W 5755  38.097  32.257  13.369
34227W        W 5756  17.908  25.914   1.252
34228W        W 5757   4.863  26.025   1.497
34229W        W 5758   9.515  16.747   4.800
34230W        W 5759  33.787  22.529  11.235
34231W        W 5760   6.370   0.875  12.047
34232W        W 5761  35.963  36.907   3.732
34233W        W 5762  21.048  41.371   2.886
34234W        W 5763   5.932  37.973   4.584
34235W        W 5764  41.883  11.383   0.443
34236W        W 5765  14.041  25.287  12.909
34237W        W 5766  14.397  11.044   2.390
34238W        W 5767  36.561  36.795   1.339
34239W        W 5768  17.415  19.471  11.036
34240W        W 5769  41.015  16.719  13.818
34241W        W 5770  27.048   1.056   4.641
34242W        W 5771  33.066  38.568   0.210
34243W        W 5772  41.455  22.026   1.969
34244W        W 5773   9.401   3.661   1.333
34245W        W 5774  27.511   3.287   3.270
34246W        W 5775  42.832  39.987  14.838
34247W        W 5776  17.265  40.036  14.996
34248W        W 5777   8.179  31.607  11.018
34249W        W 5778   4.423  16.554   9.783
34250W        W 5779  31.676   6.375  13.790
34251W        W 5780   1.058  31.296  14.333
34252W        W 5781  37.939  16.273   2.183
34253W        W 5782   9.796  43.282  11.169
34254W        W 5783  17.524  27.086  10.570
34255W        W 5784   0.625   1.783  12.153
34256W        W 5785   9.155  21.731  12.555
34257W        W 5786  21.522   4.727  13.717
34258W        W 5787   6.160   3.395   2.805
34259W        W 5788  26.977   5.287  11.537
34260W        W 5789   7.441   5.985   3.593
34261W        W 5790   0.357  44.516  13.860
34262W        W 5791   9.605  26.969   0.025
34263W        W 5792  43.240  22.200  11.138
34264W        W 5793  12.604  13.320  13.129
34265W        W 5794  19.803  31.991   0.926
34266W        W 5795  38.859  33.483   1.996
34267W        W 5796  22.703  34.420   4.539
34268W        W 5797  34.883  31.794   3.604
34269W        W 5798  14.154  42.528   2.860
34270W        W 5799  13.937  40.082  11.290
34271W        W 5800  24.350  19.029   0.350
34272W        W 5801   1.743   6.966  13.872
34273W        W 5802  41.894  32.099  13.954
34274W        W 5803   9.657  38.996   3.403
34275W        W 5804   3.450  12.146   4.497
34276W        W 5805   4.659  34.749  12.738
34277W        W 5806  32.047   6.834   1.383
34278W        W 5807  28.036  26.978  10.743
34279W        W 5808  13.741  33.101   3.564
34280W        W 5809   3.762  32.571  10.509
34281W        W 5810  39.494  43.441  12.662
34282W        W 5811  23.589  32.571   0.397
34283W        W 5812  16.223  24.894   2.951
34284W        W 5813  44.811  16.851   2.026
34285W        W 5814  31.631   6.697   3.258
34286W        W 5815  39.485   0.186   1.765
34287W        W 5816   2.412   6.701  10.824
34288W        W 5817  44.477   7.181   0.249
34289W        W 5818   0.358  10.134   1.327
34290W        W 5819   8.252  20.280  10.314
34291W        W 5820  19.051  43.308  12.195
34292W        W 5821  17.696  28.434   4.171
34293W        W 5822  20.364  39.971   1.666
34294W        W 5823   6.895  24.183  14.493
34295W        W 5824  25.290  32.580   2.245
34296W        W 5825  29.136  36.052   1.400
34297W        W 5826  21.343  44.942   4.620
34298W        W 5827  11.306  44.267   3.591
34299W        W 5828   7.174  44.336   0.874
34300W        W 5829  40.494  18.369  10.964
34301W        W 5830  42.643   7.437  10.393
34302W        W 5831  37.726  14.218  14.356
34303W        W 5832  29.964  22.105  12.303
34304W        W 5833   2.891  13.760   2.609
34305W        W 5834  37.490  36.953   3.926
34306W        W 5835   2.217  33.915   2.759
34307W        W 5836  14.319  40.145  13.590
34308W        W 5837  23.317   2.768  11.597
34309W        W 5838   9.205  17.384   0.490
34310W        W 5839  39.365  31.117   0.621
34311W        W 5840  38.527  10.125  14.000
34312W        W 5841  27.107   3.501   4.140
34313W        W 5842   9.237  12.977   1.944
34314W        W 5843  41.362  18.256   1.781
34315W        W 5844  25.124  22.488  13.947
34316W        W 5845  37.540  27.704   1.216
34317W        W 5846  20.722   9.787  11.084
34318W        W 5847   9.645  17.246   1.305
34319W        W 5848  29.636   0.730   1.857
34320W        W 5849  39.330  32.408   0.362
34321W        W 5850  40.331  22.816  13.893
34322W        W 5851  27.654  26.831   0.810
34323W        W 5852   3.939  18.244  14.437
34324W        W 5853  33.363   4.509   3.369
34325W        W 5854  25.709   7.590  12.043
34326W        W 5855   1.734  14.656   3.708
34327W        W 5856  25.743  13.752  14.887
34328W        W 5857   8.240  37.780   3.336
34329W        W 5858  10.978  38.193  10.357
34330W        W 5859  13.889  18.162  10.709
34331W        W 5860  18.332  42.302   1.702
34332W        W 5861  38.821  34.506  10.025
34333W        W 5862  10.644  10.823  14.865
34334W        W 5863  37.447  26.434  10.551
34335W        W 5864  19.546  38.858   9.892
34336W        W 5865   3.395  35.577  13.012
34337W        W 5866  18.705   2.030   3.743
34338W        W 5867  36.586  25.643   4.941
34339W        W 5868  29.692  17.119  14.346
34340W        W 5869   4.294  30.565  13.987
34341W        W 5870  36.075  40.441  14.376
34342W        W 5871   9.260  38.501   4.200
34343W        W 5872  11.286   4.728   1.985
34344W        W 5873  12.637  39.442  14.391
34345W        W 5874  36.866  26.313  14.182
34346W        W 5875  40.320  28.606  14.549
34347W        W 5876  10.525  20.126   4.519
34348W        W 5877  25.731  28.980   3.640
34349W        W 5878  15.527  23.672  12.084
34350W        W 5879  27.854   0.410  14.245
34351W        W 5880  36.354   4.263   1.664
34352W        W 5881   1.933   0.252  10.663
34353W        W 5882   9.298  35.105   2.290
34354W        W 5883  23.503  41.605  13.069
34355W        W 5884   1.014  37.067   4.561
34356W        W 5885  41.468  30.129   0.838
34357W        W 5886  24.956  40.620   4.988
34358W        W 5887   7.651  33.896   3.186
34359W        W 5888  15.906   5.302  13.037
34360W        W 5889  10.242   1.472   1.290
34361W        W 5890  14.691  10.673   3.696
34362W        W 5891  10.338  42.489   1.235
34363W        W 5892  37.908  38.329  14.410
34364W        W 5893  15.288  29.065   2.735
34365W        W 5894  20.225  12.763  12.915
34366W        W 5895  19.801   0.789   2.423
34367W        W 5896   1.269   1.981   3.786
34368W        W 5897  36.718  12.718  13.947
34369W        W 5898   5.408  40.661   1.207
34370W        W 5899  25.072  10.750  13.550
34371W        W 5900  17.398   1.227  14.902
34372W        W 5901  35.041   9.809   0.357
34373W        W 5902  22.599  27.699  10.607
34374W        W 5903  23.899  19.064  12.505
34375W        W 5904  37.951   5.370  13.968
34376W        W 5905  40.195  17.069  12.129
34377W        W 5906   8.858  18.321  11.052
34378W        W 5907   2.368  12.644   1.324
34379W        W 5908  15.018   7.347  10.678
34380W        W 5909  20.085  40.557  12.522
34381W        W 5910   3.215  40.532  14.377
34382W        W 5911  19.465  18.642  11.904
34383W        W 5912   4.776  11.203  11.413
34384W        W 5913  38.601  21.232   5.161
34385W        W 5914   8.124  41.808  14.841
34386W        W 5915  11.895  16.044   3.562
34387W        W 5916  35.593  22.869   0.352
34388W        W 5917  26.899  18.294   4.531
34389W        W 5918  27.847  17.599   0.979
34390W        W 5919  41.896  42.788  11.154
34391W        W 5920   8.410  15.695   3.728
34392W        W 5921  40.536  24.196  14.296
34393W        W 5922   0.220  34.604   0.245
34394W        W 5923  14.323  35.869   3.874
34395W        W 5924   8.846  19.689   0.313
34396W        W 5925  27.298  18.709  14.929
34397W        W 5926  21.576  41.276   1.581
34398W        W 5927  43.892  26.976   2.233
34399W        W 5928  25.118   4.694  13.871
34400W        W 5929  31.074   0.495   0.377
34401W        W 5930  26.746  26.014   0.901
34402W        W 5931  42.640   5.873  14.217
34403W        W 5932  12.866  16.016  14.906
34404W        W 5933  25.006  16.873   4.912
34405W        W 5934  40.963  33.846  12.039
34406W        W 5935  20.798  28.044   2.188
34407W        W 5936  20.763   2.582   3.272
34408W        W 5937   1.477  35.325  13.502
34409W        W 5938  32.516   0.717  12.804
34410W        W 5939  27.855  27.121   3.725
34411W        W 5940   0.276  42.508   3.593
34412W        W 5941  15.665  34.055  13.242
34413W        W 5942  26.962  38.470   1.664
34414W        W 5943  33.373  15.205   3.274
34415W        W 5944  14.061  14.365  13.506
34416W        W 5945  34.016   1.786   3.327
34417W        W 5946   3.426   4.351   2.165
34418W        W 5947  24.564  25.902  13.497
34419W        W 5948  31.075  23.684   1.227
34420W        W 5949   9.316  12.683   0.863
34421W        W 5950  14.295  11.786  14.828
34422W        W 5951  23.674  36.286   3.752
34423W        W 5952  35.566   9.778   0.286
34424W        W 5953  38.606   9.789   2.468
34425W        W 5954  27.968  11.590  14.374
34426W        W 5955  43.571  24.285   4.914
34427W        W 5956  18.241  21.419   0.465
34428W        W 5957   0.143  17.081   3.702
34429W        W 5958  19.520  22.703  14.044
34430W        W 5959   4.981  11.562   3.554
34431W        W 5960  36.863  23.562   4.470
34432W        W 5961   6.875  13.567   1.566
34433W        W 5962   3.493  25.614  10.726
34434W        W 5963  17.693   8.197   0.526
34435W        W 5964   7.637   2.908  13.434
34436W        W 5965  23.490  24.757  12.920
34437W        W 5966  43.263   3.200   2.809
34438W        W 5967  42.905  13.635   3.730
34439W        W 5968  14.633  32.927  13.095
34440W        W 5969   0.633  18.665  13.980
34441W        W 5970  37.410  35.943   3.583
34442W        W 5971  20.777  19.126  14.483
34443W        W 5972  22.695  15.184  13.888
34444W        W 5973  24.443  32.556   4.534
34445W        W 5974  29.595  12.769   4.238
34446W        W 5975  16.329  14.833   1.282
34447W        W 5976  14.101  10.083   4.912
34448W        W 5977  16.249  41.062   4.851
34449W        W 5978  21.124  25.635   3.177
34450W        W 5979  42.068  36.480  14.446
34451W        W 5980  37.326  12.780   0.799
34452W        W 5981  18.201  36.843   1.439
34453W        W 5982  11.222  37.947  13.118
34454W        W 5983  30.169   3.311   2.652
34455W        W 5984   5.952  18.314   3.839
34456W        W 5985  37.936   9.258   3.999
34457W        W 5986  33.962  30.013  12.962
34458W        W 5987  42.720  43.860  12.091
34459W        W 5988  12.561  27.990  12.892
34460W        W 5989  16.715  24.276  14.725
34461W        W 5990  11.858  13.792  14.686
34462W        W 5991  39.996  11.220   3.547
34463W        W 5992  43.639  24.108  12.840
34464W        W 5993  12.000   9.224  14.835
34465W        W 5994  17.883  26.553   2.873
34466W        W 5995  40.488  34.587  14.313
34467W        W 5996  39.096  36.949  12.921
34468W        W 5997   6.372  44.596  11.675
34469W        W 5998  38.827   5.466   4.383
34470W        W 5999  17.924   8.706   0.397
34471W        W 6000  15.049  24.858  11.587
34472W        W 6001   7.820  14.045  14.925
34473W        W 6002  23.401  36.509   2.740
34474W        W 6003   0.777  21.571   1.194
34475W        W 6004  13.609   9.477   1.006
34476W        W 6005   7.300  27.910  11.574
34477W        W 6006  30.066  25.592   3.402
34478W        W 6007   1.353  19.552   4.659
34479W        W 6008   5.375  16.090   1.813
34480W        W 6009   5.397  32.237   3.119
34481W        W 6010   8.386  15.269   4.080
34482W        W 6011  23.780  25.522  14.938
34483W        W 6012  43.814  42.200   0.547
34484W        W 6013  20.551  43.975   4.598
34485W        W 6014  19.483  29.544  12.758
34486W        W 6015  41.267   8.737  13.419
34487W        W 6016  24.249  23.444  14.022
34488W        W 6017  25.214  40.283   1.388
34489W        W 6018  27.767  38.939   2.085
34490W        W 6019   8.284  17.091   4.660
34491W        W 6020  13.784  15.278  12.080
34492W        W 6021  21.602  32.082   2.749
34493W        W 6022  10.683  34.677  11.268
34494W        W 6023  21.829  34.432   0.026
34495W        W 6024   6.114  17.136   1.767
34496W        W 6025  33.138   3.309   2.485
34497W        W 6026  42.990  30.409  13.379
34498W        W 6027  24.710  25.685  12.143
34499W        W 6028  22.488   8.450  11.829
34500W        W 6029   5.114  25.617  11.162
34501W        W 6030  35.618  42.882  10.666
34502W        W 6031  15.822   6.667   1.920
34503W        W 6032  38.456  14.435   1.635
34504W        W 6033  28.956  33.601  12.832
34505W        W 6034  21.646  25.611  14.529
34506W        W 6035  37.418   1.741   2.262
34507W        W 6036  17.534  11.154  13.347
34508W        W 6037  11.827  43.333  13.892
34509W        W 6038  17.156  15.891  13.868
34510W        W 6039  23.557  20.158   2.278
34511W        W 6040   8.400  10.266  13.979
34512W        W 6041  25.094  32.511  12.921
34513W        W 6042  34.964  30.412   0.840
34514W        W 6043  10.233   4.995  11.851
34515W        W 6044  21.047   5.808   4.877
34516W        W 6045   1.433  33.228  11.157
34517W        W 6046  38.780  10.129   1.687
34518W        W 6047   3.223  19.686  14.440
34519W        W 6048  32.428  18.335   4.899
34520W        W 6049  29.986  38.005   2.285
34521W        W 6050  24.755  41.444   0.052
34522W        W 6051  13.124   7.158   1.773
34523W        W 6052  32.064  39.635  14.614
34524W        W 6053  25.322  40.280  12.517
34525W        W 6054   5.798   1.828  12.068
34526W        W 6055  25.723  13.103   0.424
34527W        W 6056  26.415  43.124   2.807
34528W        W 6057  40.514  10.086  10.353
34529W        W 6058  39.456   1.380  10.615
34530W        W 6059  36.289  33.944   2.334
34531W        W 6060   7.927  26.186  14.621
34532W        W 6061  40.302  37.073  10.269
34533W        W 6062   2.532  20.143  11.561
34534W        W 6063  13.949  37.373   1.767
34535W        W 6064  22.261  41.323  11.133
34536W        W 6065  16.548  39.947   3.806
34537W        W 6066   2.723  33.139   2.674
34538W        W 6067  26.235  28.718  11.516
34539W        W 6068  21.734  43.057  13.818
34540W        W 6069  24.093  10.067   3.976
34541W        W 6070  36.379  31.359  11.321
34542W        W 6071   8.333  44.570  11.572
34543W        W 6072  33.948  33.051   0.427
34544W        W 6073   5.331  27.472  14.760
34545W        W 6074  12.220  21.320  11.080
34546W        W 6075  26.508  39.947   3.020
34547W        W 6076  25.555  24.930   3.307
34548W        W 6077  37.968  14.184   4.973
34549W        W 6078   2.987  14.125  11.404
34550W        W 6079  27.937  40.723   4.534
34551W        W 6080  38.426   3.847  10.678
34552W        W 6081  40.365  20.651  12.516
34553W        W 6082  20.924  37.962   2.301
34554W        W 6083  11.631  15.895   3.129
34555W        W 6084   1.400   2.459   1.900
34556W        W 6085  42.977  26.658  10.443
34557W        W 6086  32.444  34.550  12.159
34558W        W 6087  40.550  43.341  13.977
34559W        W 6088   4.713   8.321   3.221
34560W        W 6089  20.178  14.681  11.739
34561W        W 6090  37.606   3.866   2.359
34562W        W 6091   1.003  27.066  13.499
34563W        W 6092   1.171   1.386  11.548
34564W        W 6093  27.516  37.498  10.639
34565W        W 6094  27.092  18.701  11.641
34566W        W 6095  40.945   5.565  12.023
34567W        W 6096   5.179  16.586   1.788
34568W        W 6097  16.182  11.174   3.753
34569W        W 6098   8.657  10.715   2.677
34570W        W 6099  11.578  23.057  14.818
34571W        W 6100  42.007  25.368  13.805
34572W        W 6101  43.859  17.730   1.240
34573W        W 6102  15.655   1.777   3.389
34574W        W 6103  18.524  29.528  12.341
34575W        W 6104  12.270   2.463  11.225
34576W        W 6105  13.699  38.593  12.953
34577W        W 6106  37.112  10.723  13.131
34578W        W 6107   1.585   7.844   0.007
34579W        W 6108  24.210  38.771  12.049
34580W        W 6109  13.641  38.066  14.318
34581W        W 6110   5.702  38.609  13.535
34582W        W 6111  13.731  26.546   2.372
34583W        W 6112   8.045  22.231   1.853
34584W        W 6113  15.349   6.412  14.072
34585W        W 6114  41.951  30.570   4.148
34586W        W 6115  11.450   7.202   2.249
34587W        W 6116  17.097  26.890   3.293
34588W        W 6117   8.927  20.553  14.014
34589W        W 6118  25.502  43.227   1.842
34590W        W 6119  33.653  39.803  10.056
34591W        W 6120  43.434  24.539  14.845
34592W        W 6121   3.001  12.487  13.434
34593W        W 6122  35.012  41.873   1.220
34594W        W 6123  36.508  40.926  12.954
34595W        W 6124   7.505  19.668   1.942
34596W        W 6125  42.286  30.434  11.219
34597W        W 6126  33.044  13.646  10.470
34598W        W 6127  42.410  10.741   1.913
34599W        W 6128  24.203  37.993   3.420
34600W        W 6129   6.216   0.111   4.197
34601W        W 6130  26.412  30.053  13.467
34602W        W 6131  37.038  13.608   1.712
34603W        W 6132  43.737  30.236   0.720
34604W        W 6133  38.489  13.530   3.971
34605W        W 6134  12.063  37.947  12.570
34606W        W 6135  28.911  36.908  12.149
34607W        W 6136  14.997  36.079  12.101
34608W        W 6137  22.235  28.695  13.526
34609W        W 6138  35.095  18.578   0.430
34610W        W 6139   5.298   8.708  11.963
34611W        W 6140  43.584  41.866  11.618
34612W        W 6141  24.308   9.408  11.704
34613W        W 6142   7.379  10.336  14.931
34614W        W 6143   1.498  23.543  11.628
34615W        W 6144   0.357   2.853   3.165
34616W        W 6145  41.543  16.983  10.632
34617W        W 6146  42.260  13.232  13.073
34618W        W 6147  38.617  26.079   4.179
34619W        W 6148  18.270  39.442  14.807
34620W        W 6149  36.423   2.074  12.551
34621W        W 6150  34.255  14.323   4.557
34622W        W 6151  14.618  35.545   0.661
34623W        W 6152   0.254  31.849   4.329
34624W        W 6153  34.986  37.408   2.046
34625W        W 6154  33.383  20.424   3.865
34626W        W 6155  28.022   3.836   4.474
34627W        W 6156   9.476  10.350   0.727
34628W        W 6157  33.830  25.482  11.220
34629W        W 6158  14.611   7.593   1.833
34630W        W 6159   5.857   5.161  13.582
34631W        W 6160  16.320   5.853  14.580
34632W        W 6161  39.007   0.167  12.601
34633W        W 6162  21.700  27.091  14.496
34634W        W 6163  20.381  20.144   4.279
34635W        W 6164   8.265  19.091   4.226
34636W        W 6165  34.844  34.437  13.261
34637W        W 6166  14.438  25.177  10.573
34638W        W 6167  24.981   5.153  12.521
34639W        W 6168  25.017  11.488  13.016
34640W        W 6169  33.047  28.709   2.189
34641W        W 6170  42.646  41.451  13.120
34642W        W 6171  34.564   9.146   1.742
34643W        W 6172   0.344  36.806  14.932
34644W        W 6173   7.762  12.960   3.109
34645W        W 6174  36.465   7.229  12.885
34646W        W 6175  34.741   5.834   3.274
34647W        W 6176  21.584  11.252   3.897
34648W        W 6177  10.193  15.856   2.094
34649W        W 6178  23.332  11.633   4.780
34650W        W 6179   1.373  22.442  12.895
34651W        W 6180  14.094  39.638   2.882
34652W        W 6181  39.551  13.831  11.939
34653W        W 6182   2.965   5.701   4.868
34654W        W 6183  21.911  44.315  11.175
34655W        W 6184  43.354  14.291   2.227
34656W        W 6185   5.807  44.346  14.105
34657W        W 6186  40.917  30.502  12.840
34658W        W 6187   2.641  30.157   0.735
34659W        W 6188  42.290   3.369   2.825
34660W        W 6189  44.564  14.763   4.586
34661W        W 6190  22.585   9.575  11.099
34662W        W 6191  26.887  35.001   2.006
34663W        W 6192  17.499   7.220  10.813
34664W        W 6193  27.359  12.086  14.006
34665W        W 6194  24.171  13.630   4.721
34666W        W 6195  23.457  37.095   4.792
34667W        W 6196  29.406  42.231   3.741
34668W        W 6197  23.734   3.496   0.667
34669W        W 6198  37.991  17.168   3.109
34670W        W 6199  28.558   4.186   3.158
34671W        W 6200   2.818  39.760  10.654
34672W        W 6201  30.661  35.857   4.541
34673W        W 6202  12.682  34.630   2.173
34674W        W 6203  11.218  26.663   1.752
34675W        W 6204  22.690  18.060  13.098
34676W        W 6205  40.580   7.411   4.491
34677W        W 6206  34.921  39.862  11.546
34678W        W 6207  25.963  12.762   1.913
34679W        W 6208  10.149  40.334  13.609
34680W        W 6209  39.884  38.532   3.161
34681W        W 6210  32.491  23.045   1.774
34682W        W 6211  31.650  19.633   1.216
34683W        W 6212  43.417  18.293  11.530
34684W        W 6213   0.709   8.516  13.899
34685W        W 6214  41.005   6.663   4.075
34686W        W 6215  16.220  34.609   4.531
34687W        W 6216  17.194  38.319  14.391
34688W        W 6217  35.443  21.809  14.364
34689W        W 6218  39.970  43.014  11.616
34690W        W 6219   8.752   7.390  13.057
34691W        W 6220  10.143   2.003  11.907
34692W        W 6221  17.979  13.148  11.167
34693W        W 6222  17.150  11.833  11.064
34694W        W 6223  41.805   2.729   3.405
34695W        W 6224  39.334  30.509  11.446
34696W        W 6225   2.881  13.607  12.590
34697W        W 6226  28.424   0.895   2.689
34698W        W 6227  42.483  16.595   2.602
34699W        W 6228  44.639  15.138   1.547
34700W        W 6229  39.229  44.363  13.574
34701W        W 6230  15.312  39.359   4.085
34702W        W 6231  27.069  28.212   4.182
34703W        W 6232  13.521   5.584   4.131
34704W        W 6233   1.903  15.461   4.907
34705W        W 6234  44.563  18.057   1.279
34706W        W 6235  27.363  29.186   0.013
34707W        W 6236  24.179   0.551  13.431
34708W        W 6237   5.389  43.039  13.159
34709W        W 6238  15.648  36.623  13.522
34710W        W 6239  16.654  31.582  12.802
34711W        W 6240  34.392   6.733   0.246
34712W        W 6241   1.317  37.614  12.533
34713W        W 6242  21.599   8.517   1.342
34714W        W 6243  35.645  36.923  11.294
34715W        W 6244   5.216  20.292  13.913
34716W        W 6245  42.746  36.557  13.854
34717W        W 6246   0.367  15.296   1.270
34718W        W 6247  13.233   9.359  14.374
34719W        W 6248  17.127   9.483   2.756
34720W        W 6249  34.444  42.084  11.366
34721W        W 6250   9.310  23.549  11.871
34722W        W 6251   4.615   0.063  10.570
34723W        W 6252  43.079   7.854   4.663
34724W        W 6253  37.602  31.301   4.513
34725W        W 6254  11.741   4.986   1.990
34726W        W 6255  43.920   3.765   1.323
34727W        W 6256  31.360  16.692  11.019
34728W        W 6257  42.575  29.426  11.163
34729W        W 6258  35.770  34.358  11.223
34730W        W 6259  36.447  11.271   1.199
34731W        W 6260  43.931  37.976   4.832
34732W        W 6261  26.905   2.167   2.704
34733W        W 6262   5.225  42.551  13.056
34734W        W 6263  22.676   1.747  12.438
34735W        W 6264  33.880  23.473  12.085
34736W        W 6265   1.681  11.736  11.400
34737W        W 6266   8.640  43.841   2.483
34738W        W 6267  10.105  41.353  13.054
34739W        W 6268  37.922  15.329   0.646
34740W        W 6269  43.956  32.422  13.148
34741W        W 6270  10.414  21.627   3.644
34742W        W 6271   8.707  28.724  11.711
34743W        W 6272  14.837  19.803  14.759
34744W        W 6273   9.326  21.243   4.390
34745W        W 6274  25.300  20.328  12.571
34746W        W 6275   9.822  22.578   1.909
34747W        W 6276  23.586  24.206   1.706
34748W        W 6277  41.500  23.011  14.798
34749W        W 6278  43.316  20.023   3.682
34750W        W 6279  10.937  12.115  12.145
34751W        W 6280  10.439  36.820   3.770
34752W        W 6281  18.003   4.692   4.675
34753W        W 6282  24.512  36.212  12.671
34754W        W 6283  23.699   2.998  13.366
34755W        W 6284  42.435  33.361   2.742
34756W        W 6285  39.714   6.321  14.039
34757W        W 6286  13.081  35.762  10.824
34758W        W 6287   3.500  19.563  12.461
34759W        W 6288  29.720   3.224  11.221
34760W        W 6289  11.152  16.149  13.645
34761W        W 6290  16.550  12.706  14.468
34762W        W 6291   5.989  20.116  14.951
34763W        W 6292  27.191   6.798  10.622
34764W        W 6293   9.113   4.213  13.275
34765W        W 6294  40.608  19.662  10.647
34766W        W 6295  44.185  17.568   2.894
34767W        W 6296  11.408  14.167  13.586
34768W        W 6297  30.745  23.601  12.721
34769W        W 6298  12.200   7.868   2.425
34770W        W 6299  31.685  13.553   4.986
34771W        W 6300  18.380  26.591   2.960
34772W        W 6301   5.359   8.949  12.953
34773W        W 6302  17.608  42.982   4.670
34774W        W 6303  14.624  36.193  11.710
34775W        W 6304  37.760  35.974   3.183
34776W        W 6305   8.114  29.426  11.603
34777W        W 6306  39.997  14.129   0.006
34778W        W 6307  34.521  44.654  12.086
34779W        W 6308   4.718  43.173  12.189
34780W        W 6309  27.264   8.372  12.345
34781W        W 6310  13.790  29.777  12.020
34782W        W 6311  30.092  41.281  10.603
34783W        W 6312  17.358   7.334  14.245
34784W        W 6313  15.217  10.566  12.929
34785W        W 6314  19.678  14.560   0.795
34786W        W 6315  39.811   0.784  11.602
34787W        W 6316  12.573   0.909  12.656
34788W        W 6317  31.842   2.299   2.797
34789W        W 6318  22.566  33.162   4.547
34790W        W 6319  12.764  36.704  12.148
34791W        W 6320  23.471   2.297  10.584
34792W        W 6321   8.976  43.355  12.771
34793W        W 6322  26.952  36.239   1.361
34794W        W 6323  33.617  29.647  11.628
34795W        W 6324  39.114  25.728   0.014
34796W        W 6325   3.436  12.412  11.997
34797W        W 6326  38.938  10.302  12.475
34798W        W 6327  29.657  19.606   4.999
34799W        W 6328  19.558  31.641   4.815
34800W        W 6329  16.642   3.704  13.953
34801W        W 6330  34.519   6.279   1.960
34802W        W 6331  27.239  22.918  13.065
34803W        W 6332  21.029  39.476  12.104
34804W        W 6333   4.313  23.059   1.232
34805W        W 6334   0.136  37.961   1.445
34806W        W 6335  13.825   1.813   1.310
34807W        W 6336   1.757   1.725   2.756
34808W        W 6337   2.469  31.620  12.141
34809W        W 6338  25.717   9.939   1.624
34810W        W 6339   9.370  11.674  12.687
34811W        W 6340  25.603   8.980  12.486
34812W        W 6341  10.443  20.591  11.522
34813W        W 6342  31.885  26.250  11.686
34814W        W 6343  43.805  11.926  13.449
34815W        W 6344  35.650  37.390   4.459
34816W        W 6345  17.123  29.910  12.890
34817W        W 6346  41.548   8.972  11.978
34818W        W 6347  41.758  14.119  11.968
34819W        W 6348   7.288  13.755  11.603
34820W        W 6349  23.258  41.627   4.445
34821W        W 6350  13.114   7.130   3.616
34822W        W 6351  33.036  15.861  10.544
34823W        W 6352  31.491  17.280  13.081
34824W        W 6353   2.800  36.116  12.223
34825W        W 6354  10.899  44.963  12.899
34826W        W 6355  12.646  22.675   0.788
34827W        W 6356  38.266   9.364   3.258
34828W        W 6357  17.045   6.959  13.323
34829W        W 6358  44.524   4.099   0.763
34830W        W 6359  15.251  34.112  11.161
34831W        W 6360  10.798  13.450   2.891
34832W        W 6361  38.113  19.469  13.802
34833W        W 6362  29.370  33.125  11.084
34834W        W 6363   7.984  41.515   2.664
34835W        W 6364  14.609   7.282   1.393
34836W        W 6365  38.555   0.121   0.789
34837W        W 6366  22.140   8.898   3.670
34838W        W 6367  12.810  17.256   2.161
34839W        W 6368   8.430   8.593   0.304
34840W        W 6369  11.278   8.020   2.760
34841W        W 6370   9.611   4.902  13.644
34842W        W 6371  17.583  19.199  13.102
34843W        W 6372  42.431  34.877   3.874
34844W        W 6373   7.407  22.666  10.701
34845W        W 6374  16.688  29.438   2.360
34846W        W 6375  41.512  42.790   0.933
34847W        W 6376   7.169  29.984  10.659
34848W        W 6377   8.494  13.208  10.634
34849W        W 6378  31.184  33.570   4.329
34850W        W 6379  12.313  14.620  13.332
34851W        W 6380   9.913  10.915   2.861
34852W        W 6381  27.445  27.593  12.874
34853W        W 6382  26.329  23.291   0.225
34854W        W 6383  41.605  14.668   4.780
34855W        W 6384   7.327   5.373   3.627
34856W        W 6385  37.127  27.726   2.998
34857W        W 6386   3.772  30.635  14.734
34858W        W 6387   9.433  15.245   4.298
34859W        W 6388  31.520  19.272   2.826
34860W        W 6389  29.133   1.206   0.654
34861W        W 6390  41.387   9.148   4.485
34862W        W 6391  39.617  26.473  13.299
34863W        W 6392  17.686   9.282   4.300
34864W        W 6393  39.263   9.806  11.742
34865W        W 6394  19.089  26.476   0.744
34866W        W 6395  18.387  12.369  10.829
34867W        W 6396  20.643   9.257   1.971
34868W        W 6397  43.030  37.039  12.469
34869W        W 6398  23.743  26.397   3.119
34870W        W 6399   9.138  26.617   2.260
34871W        W 6400  23.162   7.183   1.240
34872W        W 6401  35.068  41.421   2.641
34873W        W 6402  25.579   8.218  14.559
34874W        W 6403  18.261  26.259  11.883
34875W        W 6404  11.294   5.308  14.299
34876W        W 6405  36.307   5.791   1.884
34877W        W 6406  10.439  27.354   3.803
34878W        W 6407  32.420  30.491  11.667
34879W        W 6408  22.966   4.687   4.619
34880W        W 6409  23.451  40.896  12.516
34881W        W 6410   6.662   2.712   2.569
34882W        W 6411  33.899  39.954  11.501
34883W        W 6412   6.289  31.006   0.980
34884W        W 6413   5.671  14.753   2.384
34885W        W 6414  12.668  26.257  13.921
34886W        W 6415   8.250  35.775   0.383
34887W        W 6416  26.575   0.822   4.555
34888W        W 6417   6.770  27.151   1.283
34889W        W 6418  20.710  13.078   4.156
34890W        W 6419  34.555  37.124  13.574
34891W        W 6420  23.443   6.262   4.663
34892W        W 6421  44.586  43.535   2.777
34893W        W 6422   0.264  10.651   2.394
34894W        W 6423  22.568  17.526   1.667
34895W        W 6424  15.750   1.879   4.698
34896W        W 6425   8.857   6.864   4.396
34897W        W 6426  40.935  38.593  12.524
34898W        W 6427  13.104  32.094  12.495
34899W        W 6428  32.035  22.466   1.712
34900W        W 6429  44.238  31.979  14.423
34901W        W 6430   7.293  26.620  11.898
34902W        W 6431   4.797  16.392   0.588
34903W        W 6432  34.933  10.907   0.870
34904W        W 6433   9.912  34.932  13.946
34905W        W 6434   6.927  40.335   1.631
34906W        W 6435  10.926  44.940   0.922
34907W        W 6436  37.632  39.344  13.457
34908W        W 6437  39.416  19.292   4.300
34909W        W 6438  39.766  30.471   3.866
34910W        W 6439  10.680  31.116   3.380
34911W        W 6440  38.274  33.080  11.264
34912W        W 6441  28.852  20.600  14.883
34913W        W 6442  37.873  27.899  13.941
34914W        W 6443  42.512  14.734  13.408
34915W        W 6444  31.768   6.741   2.367
34916W        W 6445  33.977  17.625  11.536
34917W        W 6446  25.500  21.440  12.047
34918W        W 6447   5.208   4.514  12.709
34919W        W 6448  15.832  32.480  12.596
34920W        W 6449  16.798  43.280  11.112
34921W        W 6450  16.586  23.768   3.582
34922W        W 6451   9.060  24.172   4.751
34923W        W 6452  38.653   1.179   3.690
34924W        W 6453   2.470   7.241   3.800
34925W        W 6454  26.894   2.405   3.618
34926W        W 6455   9.387  22.145  11.575
34927W        W 6456  14.270  12.286   4.378
34928W        W 6457  37.991  27.594  13.527
34929W        W 6458  25.807   1.748   4.061
34930W        W 6459  29.912  12.566   0.975
34931W        W 6460  24.087  25.484   0.943
34932W        W 6461  32.301  12.356  13.657
34933W        W 6462  18.507  14.817  14.829
34934W        W 6463  33.045  40.001  10.720
34935W        W 6464  41.021   9.177   2.263
34936W        W 6465  40.630  31.648   3.723
34937W        W 6466   3.824  42.270   0.766
34938W        W 6467  14.588  42.577   2.595
34939W        W 6468  24.788  29.387   4.164
34940W        W 6469  17.834  34.768   1.232
34941W        W 6470  20.670  20.174  14.911
34942W        W 6471  28.730  12.109  12.554
34943W        W 6472   2.851  21.090   2.446
34944W        W 6473  29.341  33.492  10.719
34945W        W 6474  13.179  30.905   1.247
34946W        W 6475  18.288  27.988   5.632
34947W        W 6476  12.476  21.803   4.156
34948W        W 6477   1.199  32.915  11.925
34949W        W 6478  22.584   0.801  12.852
34950W        W 6479  40.943  34.243  11.217
34951W        W 6480  41.927  26.689   0.266
34952W        W 6481  13.133   3.759  13.020
34953W        W 6482  12.567  13.584   3.070
34954W        W 6483  41.990  19.776   0.531
34955W        W 6484   0.053   2.033  10.719
34956W        W 6485  37.144  23.952  13.915
34957W        W 6486  24.520   7.732  14.131
34958W        W 6487   9.383  27.545  13.100
34959W        W 6488  19.157  22.211   1.414
34960W        W 6489  27.902  38.620   1.656
34961W        W 6490  34.911   5.343  13.450
34962W        W 6491  28.305   4.692  10.705
34963W        W 6492   4.601  12.887  12.794
34964W        W 6493   3.026  42.188  12.055
34965W        W 6494  27.109  35.023   0.698
34966W        W 6495   0.831  12.235  12.801
34967W        W 6496   5.149  12.841  12.029
34968W        W 6497  11.374   0.838  10.692
34969W        W 6498  22.768  27.152   2.917
34970W        W 6499  38.077  19.823  14.961
34971W        W 6500  13.947  16.233   0.852
34972W        W 6501   2.273  17.613   1.282
34973W        W 6502  22.136  21.279  12.988
34974W        W 6503  33.850  21.990  12.019
34975W        W 6504  33.800  38.209  12.502
34976W        W 6505  12.593  10.307  11.118
34977W        W 6506  27.661  28.033  10.561
34978W        W 6507   0.030   4.967   2.914
34979W        W 6508  29.640   5.961  11.640
34980W        W 6509  10.856  25.242   0.893
34981W        W 6510  29.630  30.808  13.835
34982W        W 6511   4.318  27.687   4.259
34983W        W 6512   4.341  15.834  11.539
34984W        W 6513  40.527  26.885   0.780
34985W        W 6514   4.515  18.734   4.210
34986W        W 6515  44.414   7.758   1.292
34987W        W 6516  40.111   0.409  11.751
34988W        W 6517  29.926  25.367   0.694
34989W        W 6518  21.830  11.841   0.773
34990W        W 6519  19.213  30.911   0.342
34991W        W 6520   8.439  36.913  12.382
34992W        W 6521  44.055  30.505  12.564
34993W        W 6522  37.085  10.252   2.262
34994W        W 6523   8.458  19.744   3.814
34995W        W 6524  21.257  13.609  14.713
34996W        W 6525  29.911  22.646   4.779
34997W        W 6526  29.509  18.493   3.582
34998W        W 6527  33.491  22.934  10.980
34999W        W 6528  43.776  36.536   4.828
35000W        W 6529  34.862   6.023   3.787
35001W        W 6530  34.422  29.694  13.608
35002W        W 6531  42.260   4.287  10.976
35003W        W 6532  40.519  15.262  11.605
35004W        W 6533   7.291  44.753  14.440
35005W        W 6534  42.889   6.862   3.818
35006W        W 6535  42.511  15.615   3.673
35007W        W 6536  15.301  43.774   0.726
35008W        W 6537  17.293  21.242   0.092
35009W        W 6538  14.220  18.552  12.872
35010W        W 6539  10.304  30.443  14.399
35011W        W 6540  40.284  25.597   1.995
35012W        W 6541  10.251  36.755  11.966
35013W        W 6542   5.946  44.571   2.247
35014W        W 6543  35.401  35.429   4.141
35015W        W 6544  39.442  22.763   3.616
35016W        W 6545  19.607  43.475   2.746
35017W        W 6546  26.721  38.403   1.219
35018W        W 6547   7.164  26.132   2.283
35019W        W 6548  34.616  30.908  14.190
35020W        W 6549  12.184  14.365   0.315
35021W        W 6550  27.915  40.868   1.579
35022W        W 6551  12.407  44.911  11.599
35023W        W 6552  16.177  21.481   1.718
35024W        W 6553  33.183  12.502  10.966
35025W        W 6554  17.609  10.462   2.721
35026W        W 6555  20.595  29.429   1.450
35027W        W 6556   0.775  10.928  14.439
35028W        W 6557  24.314   3.198  11.185
35029W        W 6558  34.643  19.167  13.494
35030W        W 6559  35.324   3.547  10.937
35031W        W 6560  39.103  11.586  13.871
35032W        W 6561   6.326  19.647   0.687
35033W        W 6562  40.448  35.967  14.065
35034W        W 6563  25.054  28.463   3.229
35035W        W 6564  28.585  37.995  14.514
35036W        W 6565  23.462   4.012   0.035
35037W        W 6566  12.904   5.301  13.814
35038W        W 6567   8.815  22.362  14.123
35039W        W 6568  18.631  43.240   2.400
35040W        W 6569   6.633  19.059   3.599
35041W        W 6570  17.038  25.569   0.274
35042W        W 6571  41.459  16.711   2.761
35043W        W 6572  10.582  26.730   4.122
35044W        W 6573   0.333   6.785   0.720
35045W        W 6574  39.635  13.506   1.850
35046W        W 6575  38.140  36.882   4.115
35047W        W 6576  34.462  22.011   4.392
35048W        W 6577  18.095  17.685   1.886
35049W        W 6578  28.415  25.003  12.043
35050W        W 6579  42.296  15.629  13.009
35051W        W 6580  10.813  16.283   1.799
35052W        W 6581  44.586  34.888  14.925
35053W        W 6582  33.031   1.385  14.499
35054W        W 6583  25.598  30.130  10.653
35055W        W 6584  21.806  10.353  13.479
35056W        W 6585  35.847  29.821  11.107
35057W        W 6586  29.661  34.580   0.026
35058W        W 6587  10.198  10.213  13.023
35059W        W 6588   6.671   6.119  14.752
35060W        W 6589  39.403  33.197  13.554
35061W        W 6590  33.420  23.273  14.396
35062W        W 6591   8.320   7.115   2.723
35063W        W 6592  37.016  42.067   2.504
35064W        W 6593  33.544  20.282   4.587
35065W        W 6594  28.107  27.928  11.156
35066W        W 6595  43.768  17.612   0.434
35067W        W 6596  14.825  39.991  11.063
35068W        W 6597  38.426  30.181  11.214
35069W        W 6598   4.372  37.830   0.355
35070W        W 6599   9.066  17.708  13.305
35071W        W 6600  13.536  44.339   5.035
35072W        W 6601  36.942   8.858  11.535
35073W        W 6602   6.323  15.779   1.358
35074W        W 6603   2.807  44.506   2.894
35075W        W 6604  27.751  37.382   1.390
35076W        W 6605  30.217  20.159   3.595
35077W        W 6606  31.086  12.233   2.316
35078W        W 6607  40.831   5.830  13.926
35079W        W 6608  43.762   1.737  13.311
35080W        W 6609  26.692  11.358  10.656
35081W        W 6610   3.808   6.074  12.752
35082W        W 6611  16.789  12.658  11.185
35083W        W 6612   4.828   2.264   0.270
35084W        W 6613   9.164  36.596   0.394
35085W        W 6614  31.384  31.094   3.695
35086W        W 6615  15.374  37.494  14.378
35087W        W 6616  17.680  36.016   1.816
35088W        W 6617  22.125  36.490  11.537
35089W        W 6618  37.015   5.375   0.881
35090W        W 6619   7.777  27.109  13.800
35091W        W 6620  34.662  14.769   2.873
35092W        W 6621  21.593  43.350   1.011
35093W        W 6622  19.979   9.474  13.680
35094W        W 6623  30.276  29.384   0.743
35095W        W 6624  24.678  18.592   0.291
35096W        W 6625  13.291  15.205   1.190
35097W        W 6626   0.081  27.863  13.582
35098W        W 6627  39.381  22.758   0.924
35099W        W 6628  44.359  25.348  12.650
35100W        W 6629  31.011   9.690  14.320
35101W        W 6630  18.883  15.231   4.913
35102W        W 6631  14.532  27.541  12.934
35103W        W 6632  20.253  17.102   2.431
35104W        W 6633  26.975  33.956   1.836
35105W        W 6634  20.041  44.422   3.570
35106W        W 6635   1.813  12.368  14.255
35107W        W 6636  20.827  19.698  12.455
35108W        W 6637  26.707  43.152  13.532
35109W        W 6638   3.113  13.568  14.534
35110W        W 6639  11.571   7.352   4.118
35111W        W 6640   6.357  10.156  11.271
35112W        W 6641  15.738  34.898  11.893
35113W        W 6642   3.916  26.886   4.416
35114W        W 6643  14.820  23.021  10.769
35115W        W 6644  43.679  14.366   0.379
35116W        W 6645   1.437  36.881  12.089
35117W        W 6646  22.981   7.517  14.433
35118W        W 6647  35.132  18.815   4.617
35119W        W 6648  44.183  41.462   3.506
35120W        W 6649  36.516  29.143   4.488
35121W        W 6650   4.323  11.579  10.264
35122W        W 6651  21.200  21.182   3.602
35123W        W 6652  13.890   5.252  12.962
35124W        W 6653  37.404  35.465   3.816
35125W        W 6654  21.464  12.562   4.164
35126W        W 6655  41.704  33.426   3.354
35127W        W 6656  23.683  40.778   3.270
35128W        W 6657  40.892  43.205  13.262
35129W        W 6658  14.065   3.357   0.836
35130W        W 6659  23.151  18.036  13.323
35131W        W 6660  33.044  38.691   1.254
35132W        W 6661  22.823  26.491  14.899
35133W        W 6662  39.121  11.368  13.366
35134W        W 6663  26.423   3.348  14.258
35135W        W 6664  23.059  33.576   2.187
35136W        W 6665  17.022   7.727  11.592
35137W        W 6666  28.595  44.070   4.585
35138W        W 6667  22.145  25.136   0.755
35139W        W 6668  24.606  41.347   3.709
35140W        W 6669  30.299  33.654  14.432
35141W        W 6670  22.966  22.055   3.662
35142W        W 6671  13.987   5.444   0.907
35143W        W 6672  28.300  29.490   1.755
35144W        W 6673   4.876   1.698   3.610
35145W        W 6674  33.464  33.621   3.379
35146W        W 6675  39.923  37.419  10.345
35147W        W 6676  11.230  13.039   3.626
35148W        W 6677   2.258   6.173  11.229
35149W        W 6678  16.590   4.284   3.754
35150W        W 6679  32.119  42.861  12.974
35151W        W 6680  27.331  30.169  11.081
35152W        W 6681  13.770  39.512   1.657
35153W        W 6682  35.105  31.839   4.070
35154W        W 6683   7.939  38.948   1.745
35155W        W 6684  42.060   8.829   0.436
35156W        W 6685  26.880  35.501  10.758
35157W        W 6686  20.677  44.288   2.139
35158W        W 6687   7.980  42.616   3.918
35159W        W 6688  16.580  13.932  10.383
35160W        W 6689  44.487  19.479  14.328
35161W        W 6690  34.949  41.870  14.264
35162W        W 6691  43.422  42.887  11.131
35163W        W 6692   1.003  23.197   2.515
35164W        W 6693  43.979  40.805  14.154
35165W        W 6694   5.874  16.416  14.943
35166W        W 6695  43.880  36.884   1.348
35167W        W 6696  31.631   3.229  11.798
35168W        W 6697   1.535  22.019   3.394
35169W        W 6698  28.061  44.167   5.150
35170W        W 6699   7.328  16.863  10.659
35171W        W 6700  42.860   6.153  11.656
35172W        W 6701   2.378  32.078   1.920
35173W        W 6702  13.252   6.886  13.297
35174W        W 6703  11.741  25.678   0.964
35175W        W 6704  24.799  29.994  12.381
35176W        W 6705  23.636  34.969   2.596
35177W        W 6706  33.538  24.651   9.918
35178W        W 6707   9.514  43.967  13.050
35179W        W 6708  22.438  18.980  11.827
35180W        W 6709  36.903  22.532  12.511
35181W        W 6710  18.170  16.831   3.323
35182W        W 6711  13.896  11.500  11.206
35183W        W 6712  17.324  26.565   0.991
35184W        W 6713  29.812  14.363  13.524
35185W        W 6714   5.569  23.635  13.079
35186W        W 6715  40.003  42.946   2.451
35187W        W 6716   5.923  40.932  12.910
35188W        W 6717  22.747  27.064  14.470
35189W        W 6718  39.798   6.261   1.296
35190W        W 6719  30.251   3.343  14.600
35191W        W 6720  37.626  23.094   4.498
35192W        W 6721   2.000  33.984  11.031
35193W        W 6722  23.654  34.175  11.578
35194W        W 6723  29.497  38.138  14.931
35195W        W 6724  36.294  14.714   2.202
35196W        W 6725  13.446  16.792   0.105
35197W        W 6726  33.072  41.587  11.122
35198W        W 6727  25.241  44.318  14.026
35199W        W 6728   5.424  36.782   2.213
35200W        W 6729   7.274   6.258   0.957
35201W        W 6730  18.832   0.711  13.718
35202W        W 6731  42.411   5.146   3.242
35203W        W 6732  40.473  39.950   2.661
35204W        W 6733  18.030  22.162  12.625
35205W        W 6734   0.022   2.948  10.796
35206W        W 6735  28.620  43.029   2.245
35207W        W 6736  42.740  28.622   4.724
35208W        W 6737  11.454  16.511  13.314
35209W        W 6738  41.079  38.896  12.930
35210W        W 6739  10.844  27.518  12.356
35211W        W 6740  37.355   0.899   2.614
35212W        W 6741   5.824  35.449  13.903
35213W        W 6742  38.948  12.153  12.031
35214W        W 6743  39.756  10.276  14.767
35215W        W 6744  41.914  21.850   3.238
35216W        W 6745  28.556  34.980  14.356
35217W        W 6746  42.987  37.017  13.811
35218W        W 6747  37.350   2.988  10.589
35219W        W 6748   0.126  40.942   4.482
35220W        W 6749   9.392  20.517  11.546
35221W        W 6750  35.637  43.921   0.670
35222W        W 6751  11.667  26.202   4.160
35223W        W 6752  19.725  31.611   2.993
35224W        W 6753  32.736  43.687   4.074
35225W        W 6754  42.260  41.419  11.647
35226W        W 6755  29.311  26.091   1.122
35227W        W 6756  19.375   1.507   1.295
35228W        W 6757  12.693  39.810   1.370
35229W        W 6758  44.796  19.253   4.551
35230W        W 6759  14.210  19.236   3.553
35231W        W 6760  19.238  30.401   0.287
35232W        W 6761  10.309  26.980   1.002
35233W        W 6762  14.040  25.096   2.297
35234W        W 6763  39.775   7.828   4.581
35235W        W 6764  12.593  38.971   2.898
35236W        W 6765  28.494  15.819  10.765
35237W        W 6766  20.174  42.689   4.988
35238W        W 6767  19.334  43.232  13.936
35239W        W 6768  42.738  30.962  10.666
35240W        W 6769  42.516  21.404   2.778
35241W        W 6770  19.909  37.292   4.074
35242W        W 6771   6.809  13.295   4.273
35243W        W 6772  24.579   9.788   4.559
35244W        W 6773  32.629  25.962  13.357
35245W        W 6774  43.777  18.688   2.315
35246W        W 6775  41.037  25.583  11.653
35247W        W 6776   8.624  44.497  10.619
35248W        W 6777  29.601  14.853  12.846
35249W        W 6778  26.006   3.495   3.808
35250W        W 6779  10.085  44.991  12.277
35251W        W 6780   4.183  10.110  11.706
35252W        W 6781  13.935   3.973  11.404
35253W        W 6782  37.527  34.508   2.299
35254W        W 6783  15.171  26.286  11.628
35255W        W 6784  44.454   8.959   0.786
35256W        W 6785   1.842  33.324  11.794
35257W        W 6786   3.668  22.772  13.050
35258W        W 6787  34.357  24.737   1.507
35259W        W 6788  44.664  18.123  14.049
35260W        W 6789  44.172   3.422   4.391
35261W        W 6790  13.764  20.084   4.571
35262W        W 6791  32.116  34.657   0.629
35263W        W 6792  25.079  11.849  14.887
35264W        W 6793   0.508  16.115  13.514
35265W        W 6794  11.022  11.372   0.841
35266W        W 6795   6.328  10.528   2.573
35267W        W 6796  39.587  15.332  13.984
35268W        W 6797   7.194  12.709   2.243
35269W        W 6798   9.040  37.823  14.330
35270W        W 6799  41.353  30.482   4.829
35271W        W 6800  17.530  38.481  12.074
35272W        W 6801  44.532   5.476  11.979
35273W        W 6802  43.965  30.861  11.245
35274W        W 6803  42.416   5.376  12.875
35275W        W 6804  35.509  34.152  12.934
35276W        W 6805  22.202   3.327   2.750
35277W        W 6806  10.605   1.793  11.096
35278W        W 6807  34.611  41.770  11.712
35279W        W 6808  24.984  41.102  11.404
35280W        W 6809  30.893  27.070   1.263
35281W        W 6810  26.087  41.350   0.284
35282W        W 6811   4.201  25.312   1.855
35283W        W 6812  19.466  25.485  14.264
35284W        W 6813  18.585  38.783   2.248
35285W        W 6814  32.033  38.875  13.478
35286W        W 6815  14.171  26.408  14.420
35287W        W 6816  44.786  18.226  14.919
35288W        W 6817  43.367  43.435  14.068
35289W        W 6818  11.604   1.254   2.171
35290W        W 6819  23.617   9.992   2.864
35291W        W 6820  33.942  33.049  11.556
35292W        W 6821  38.813  39.229  14.689
35293W        W 6822  26.545  33.170  13.913
35294W        W 6823  36.515  40.739  12.047
35295W        W 6824  17.050  13.354  12.911
35296W        W 6825  20.319  38.505  13.567
35297W        W 6826  27.062  30.982   3.267
35298W        W 6827   9.261  19.220   3.814
35299W        W 6828  23.525  24.606   0.033
35300W        W 6829  44.911  32.474  14.870
35301W        W 6830  19.487  25.605   1.620
35302W        W 6831  11.666  10.064  14.039
35303W        W 6832   9.991  38.379  10.777
35304W        W 6833  12.621   0.091   0.293
35305W        W 6834  35.166  14.657  11.435
35306W        W 6835  15.052  32.928   2.431
35307W        W 6836   6.921   7.126  14.451
35308W        W 6837   3.775  16.754  10.647
35309W        W 6838   1.420  38.378  10.889
35310W        W 6839  21.810  34.381  11.684
35311W        W 6840  32.351  31.973  11.341
35312W        W 6841  42.567  19.692  10.707
35313W        W 6842  11.924  29.961   0.530
35314W        W 6843  40.770  42.136  11.086
35315W        W 6844   9.125   0.989  10.565
35316W        W 6845  20.307  24.100   0.711
35317W        W 6846  32.611  11.388  13.851
35318W        W 6847  19.182  33.227  14.052
35319W        W 6848  41.775   5.135   0.399
35320W        W 6849  42.887  22.972  13.460
35321W        W 6850  19.309  10.234  12.531
35322W        W 6851  17.367  17.748   1.404
35323W        W 6852  29.469  13.024   2.765
35324W        W 6853  27.532  18.649   0.398
35325W        W 6854  32.963  37.558  12.453
35326W        W 6855  34.855  10.203   4.588
35327W        W 6856   9.554  13.663   4.237
35328W        W 6857  34.051  33.010  10.499
35329W        W 6858  14.746  15.915   2.280
35330W        W 6859  31.608  17.644  13.524
35331W        W 6860  32.907  37.024   3.205
35332W        W 6861  37.807   7.333   1.476
35333W        W 6862  44.843   5.847   1.284
35334W        W 6863  29.608  26.934   1.754
35335W        W 6864  33.314  10.158   2.259
35336W        W 6865  34.389  32.452   3.956
35337W        W 6866  23.705  10.987   0.741
35338W        W 6867  10.883   8.635  12.865
35339W        W 6868  24.874  43.221   2.688
35340W        W 6869   4.901   3.440  10.052
35341W        W 6870  44.044  36.624  11.588
35342W        W 6871  39.570   1.036  13.839
35343W        W 6872   2.938  41.706  14.810
35344W        W 6873   5.515  30.859   0.417
35345W        W 6874  35.634  22.616  14.384
35346W        W 6875   0.706  12.198  14.650
35347W        W 6876  26.760   8.259  13.983
35348W        W 6877  17.647  39.909   2.604
35349W        W 6878  35.877  14.049   1.432
35350W        W 6879   6.442  22.895   3.283
35351W        W 6880  28.457  17.093  14.933
35352W        W 6881  13.218   6.126  12.568
35353W        W 6882  15.160   8.401   1.929
35354W        W 6883   9.364   8.444  11.621
35355W        W 6884  16.661  34.911   4.810
35356W        W 6885  35.971  38.805  13.412
35357W        W 6886  28.055   7.750   3.386
35358W        W 6887   4.260  12.845  14.518
35359W        W 6888   4.912  17.314   3.012
35360W        W 6889  14.788   9.179   3.588
35361W        W 6890   0.136  32.934  14.335
35362W        W 6891  18.494   6.366   0.672
35363W        W 6892  27.733  37.484   4.969
35364W        W 6893  24.061   8.928   9.845
35365W        W 6894  44.005  10.273   1.730
35366W        W 6895  22.556  15.529   0.378
35367W        W 6896  37.661  41.736  13.559
35368W        W 6897   9.318  39.277   2.732
35369W        W 6898   5.704   7.892  12.016
35370W        W 6899  32.442   5.432   2.464
35371W        W 6900  17.822  31.989   4.592
35372W        W 6901  38.054  40.496  13.761
35373W        W 6902   0.221   5.114  11.532
35374W        W 6903  34.350  27.754  13.505
35375W        W 6904  21.864  21.076  12.015
35376W        W 6905  34.325  33.445   4.709
35377W        W 6906  28.719  15.617   1.360
35378W        W 6907   5.400   0.032   3.192
35379W        W 6908  17.562  42.619   1.780
35380W        W 6909  44.388  41.400  10.748
35381W        W 6910  10.485  34.100  12.398
35382W        W 6911  34.906  13.542   4.159
35383W        W 6912  41.869   1.699  11.194
35384W        W 6913  39.172   6.285  12.120
35385W        W 6914  28.566   5.927   1.866
35386W        W 6915  16.767  20.203   1.447
35387W        W 6916   3.561  25.463  14.951
35388W        W 6917   6.357  31.591  13.886
35389W        W 6918  36.557  34.114   0.277
35390W        W 6919  19.054  17.835   4.077
35391W        W 6920   5.112  29.635  11.514
35392W        W 6921  16.719   1.281  10.959
35393W        W 6922  35.474  12.462  13.299
35394W        W 6923   3.453  16.259   4.292
35395W        W 6924   7.460  31.912   1.324
35396W        W 6925  29.121  16.188   4.223
35397W        W 6926  25.982  32.050   2.330
35398W        W 6927  18.264  42.456  13.041
35399W        W 6928   3.145  16.361  14.941
35400W        W 6929  29.481   9.425  12.137
35401W        W 6930  13.194  12.826  12.595
35402W        W 6931  35.909  11.522   3.247
35403W        W 6932  41.340  28.336  13.525
35404W        W 6933  37.384  12.869  13.441
35405W        W 6934  12.607   5.481  13.435
35406W        W 6935  16.319  32.986   2.666
35407W        W 6936  20.241  13.220  12.668
35408W        W 6937  26.204   8.896   2.205
35409W        W 6938  19.536  13.800  12.968
35410W        W 6939  24.185  38.570  11.522
35411W        W 6940  26.712  31.384   3.356
35412W        W 6941  17.272  37.501   1.396
35413W        W 6942  31.921  35.820  13.359
35414W        W 6943  40.726  21.310  14.056
35415W        W 6944  37.990  41.543  13.939
35416W        W 6945  39.900  14.046   5.001
35417W        W 6946  38.107  18.750   1.226
35418W        W 6947  24.710  10.620   0.850
35419W        W 6948  28.965   0.040   1.760
35420W        W 6949   8.134  33.522   3.966
35421W        W 6950  23.435  38.630   2.175
35422W        W 6951  37.013  33.948   0.534
35423W        W 6952  14.547  43.504  11.201
35424W        W 6953  32.386  43.377   2.221
35425W        W 6954  33.877  10.410  10.522
35426W        W 6955  31.696  22.930   4.959
35427W        W 6956  36.368  43.256  11.261
35428W        W 6957  14.306  31.998   2.746
35429W        W 6958  26.939  39.512  10.617
35430W        W 6959  28.049  33.971   2.676
35431W        W 6960  18.659  17.415  12.767
35432W        W 6961   2.333  26.624   1.401
35433W        W 6962  38.088   7.516   1.884
35434W        W 6963  12.504  36.357   2.582
35435W        W 6964  16.196  21.353   0.858
35436W        W 6965   2.294  35.350   3.148
35437W        W 6966  24.770  38.419   2.727
35438W        W 6967  25.708   6.320  13.044
35439W        W 6968  34.806   3.195  11.975
35440W        W 6969  20.259  14.707   2.207
35441W        W 6970   2.061  31.664   1.889
35442W        W 6971   6.247  21.739   0.027
35443W        W 6972  39.635   4.744  12.150
35444W        W 6973  10.667  16.351   2.760
35445W        W 6974  37.142  35.893   3.112
35446W        W 6975  17.833   8.227   3.380
35447W        W 6976   3.811   6.488  10.771
35448W        W 6977   2.871  25.486  13.373
35449W        W 6978  11.183  33.085   0.652
35450W        W 6979  27.137  34.676   2.357
35451W        W 6980  44.993  13.888   2.224
35452W        W 6981  20.255  36.848  13.826
35453W        W 6982  28.602  29.991   0.260
35454W        W 6983  21.721   7.798   0.809
35455W        W 6984   3.817  33.108  10.518
35456W        W 6985   0.750  41.716   1.663
35457W        W 6986  22.647  18.858  13.535
35458W        W 6987  25.377  38.872  14.555
35459W        W 6988  28.320   6.315   0.130
35460W        W 6989  37.338  28.504  11.655
35461W        W 6990  24.817  38.488   4.095
35462W        W 6991  22.917  11.134  12.981
35463W        W 6992   2.099   4.713  12.398
35464W        W 6993   8.825   2.481   3.623
35465W        W 6994  44.472   5.651  11.508
35466W        W 6995  30.099  28.158   4.853
35467W        W 6996  10.390   8.488   0.471
35468W        W 6997   7.197  20.486  14.140
35469W        W 6998   4.324   1.971   2.838
35470W        W 6999   5.183   5.409   4.084
35471W        W 7000  35.945  15.665   2.861
35472W        W 7001  27.571  15.604   3.363
35473W        W 7002  15.244  40.989  10.661
35474W        W 7003  30.506  21.618   4.294
35475W        W 7004   0.546  39.032  12.291
35476W        W 7005   3.807  17.533   1.712
35477W        W 7006  37.513  22.769  11.699
35478W        W 7007  21.541   9.373  13.330
35479W        W 7008  33.886  14.199   2.461
35480W        W 7009  19.577   7.360  13.459
35481W        W 7010  20.271  42.396  11.919
35482W        W 7011   8.302  41.087   2.707
35483W        W 7012  30.937  26.002   0.440
35484W        W 7013  13.801  40.771   2.629
35485W        W 7014  18.817  38.432   2.675
35486W        W 7015   0.911  39.802   1.119
35487W        W 7016  25.986  25.144   3.561
35488W        W 7017  34.426  44.510   4.554
35489W        W 7018  25.094   0.449  12.264
35490W        W 7019   0.728  24.808  11.593
35491W        W 7020  32.112  22.704  11.145
35492W        W 7021  14.234  37.374   4.093
35493W        W 7022  11.853  39.993  11.927
35494W        W 7023  41.276  19.589  11.382
35495W        W 7024  18.501  37.997   1.798
35496W        W 7025  23.122  28.102  14.017
35497W        W 7026  41.758  32.135  12.908
35498W        W 7027  15.430  21.710   2.430
35499W        W 7028  19.990  24.958   4.988
35500W        W 7029  27.422  31.506  14.091
35501W        W 7030  43.755  24.587  12.037
35502W        W 7031  36.227  18.838  11.066
35503W        W 7032  38.186  11.789   4.466
35504W        W 7033  26.201   3.102   4.279
35505W        W 7034  18.724  22.806  11.049
35506W        W 7035   4.255  27.879  12.565
35507W        W 7036  21.285  31.886  12.928
35508W        W 7037   2.320  28.433   4.358
35509W        W 7038  11.094   8.725   1.831
35510W        W 7039  22.598   1.295   4.894
35511W        W 7040  12.107  37.355  13.836
35512W        W 7041  41.896  27.658   0.535
35513W        W 7042  42.487  38.838  13.978
35514W        W 7043  12.870  38.146   1.608
35515W        W 7044  14.684   1.302   2.143
35516W        W 7045  11.074  36.445   2.004
35517W        W 7046   4.676  25.170   2.454
35518W        W 7047  21.344  39.673  12.500
35519W        W 7048  23.533  37.475   4.040
35520W        W 7049  21.026  40.973  10.708
35521W        W 7050  27.001  20.299  10.613
35522W        W 7051  43.006   8.471  11.187
35523W        W 7052  12.666  34.558   3.099
35524W        W 7053  23.222  35.989  10.918
35525W        W 7054   4.441   0.699   4.010
35526W        W 7055  25.721   2.746  14.232
35527W        W 7056   0.623  26.571   2.351
35528W        W 7057  22.600  12.829   4.867
35529W        W 7058  16.105  34.929  10.666
35530W        W 7059  25.581  14.163   9.884
35531W        W 7060  22.491  15.776  10.172
35532W        W 7061  16.041  22.272  11.617
35533W        W 7062  28.796  36.183  12.890
35534W        W 7063   8.742  42.528   4.597
35535W        W 7064   7.916  10.700  10.564
35536W        W 7065  23.121   2.980   0.886
35537W        W 7066  28.193   6.121  11.466
35538W        W 7067   6.529  32.058  13.060
35539W        W 7068   3.394  36.385  14.979
35540W        W 7069   6.467  34.637   1.967
35541W        W 7070  34.124  34.513   4.370
35542W        W 7071   2.204   7.607   0.966
35543W        W 7072  30.317  10.131   3.082
35544W        W 7073  36.198   3.814   1.914
35545W        W 7074  29.491  34.088  14.964
35546W        W 7075  39.010  34.127  11.877
35547W        W 7076  44.303  22.788  10.745
35548W        W 7077  41.768  34.019   0.254
35549W        W 7078  33.443   3.676   0.891
35550W        W 7079  15.149  42.947   4.586
35551W        W 7080  23.738  25.510   2.085
35552W        W 7081   4.397  18.170  12.797
35553W        W 7082  17.590  37.814   0.170
35554W        W 7083  33.618  21.575  14.886
35555W        W 7084   8.289   2.806  14.200
35556W        W 7085  10.663   8.949   4.083
35557W        W 7086  28.028   6.711   1.764
35558W        W 7087   9.944  13.440  11.617
35559W        W 7088  20.992  31.447  13.930
35560W        W 7089  29.808  17.011  13.757
35561W        W 7090  12.917  27.980   0.750
35562W        W 7091  23.216   6.770  11.265
35563W        W 7092  42.886  13.680  14.772
35564W        W 7093   8.877  17.239  11.113
35565W        W 7094   3.899  39.588   0.221
35566W        W 7095  18.990   5.460   2.272
35567W        W 7096  16.178  10.684  14.095
35568W        W 7097  11.789  44.815  13.920
35569W        W 7098   6.479  29.728  13.999
35570W        W 7099  33.035   0.072   0.619
35571W        W 7100  24.725   6.756  10.900
35572W        W 7101  11.552  36.211  13.816
35573W        W 7102  39.253  28.799  14.391
35574W        W 7103  37.893  23.637   4.541
35575W        W 7104  43.475   6.786   4.559
35576W        W 7105  13.815  13.767  12.961
35577W        W 7106   6.743  11.313   1.861
35578W        W 7107  44.000  15.995  12.620
35579W        W 7108  11.812   8.831  12.157
35580W        W 7109  16.609  30.944   3.288
35581W        W 7110  43.929  32.573   4.122
35582W        W 7111  16.713   4.065  13.549
35583W        W 7112  14.263  10.158   0.022
35584W        W 7113  42.845   3.233  12.553
35585W        W 7114  38.721  15.259   1.951
35586W        W 7115  41.929  14.836   0.292
35587W        W 7116   4.782   6.648  11.887
35588W        W 7117  43.448  16.034   3.873
35589W        W 7118  38.505   1.886   3.384
35590W        W 7119  20.306   0.856  10.996
35591W        W 7120  25.240  25.517   3.088
35592W        W 7121   3.049  16.189   2.279
35593W        W 7122   8.729  39.890  12.414
35594W        W 7123  28.101  44.953  11.073
35595W        W 7124  32.395  15.586   1.424
35596W        W 7125  16.774  24.017   3.153
35597W        W 7126  17.085  26.494  14.063
35598W        W 7127  23.939  16.085   1.881
35599W        W 7128  19.731  18.791  14.858
35600W        W 7129  20.009  40.910  10.756
35601W        W 7130  27.252  43.360  10.551
35602W        W 7131  15.664  26.222  13.470
35603W        W 7132  16.207  33.414  10.031
35604W        W 7133   9.674  44.690  12.130
35605W        W 7134  14.573  12.175  11.637
35606W        W 7135  20.462  29.723  13.038
35607W        W 7136   6.345  18.268  13.875
35608W        W 7137  16.622  22.728  10.692
35609W        W 7138  42.220  14.853   3.324
35610W        W 7139  19.615  43.845   1.442
35611W        W 7140  16.022  12.189  13.846
35612W        W 7141  35.079  17.825   3.832
35613W        W 7142  20.433  19.348  13.001
35614W        W 7143  20.915  42.475   1.631
35615W        W 7144  36.024   7.662  12.493
35616W        W 7145  10.301  42.840   3.087
35617W        W 7146  34.535  29.558   4.160
35618W        W 7147  39.603  35.573   0.329
35619W        W 7148  37.713  17.741  12.655
35620W        W 7149  22.306   8.824  13.068
35621W        W 7150  24.862  10.661  14.027
35622W        W 7151  10.208  24.966  14.886
35623W        W 7152  27.015   6.439  12.887
35624W        W 7153  19.712   0.274   2.339
35625W        W 7154  40.939   6.798  10.831
35626W        W 7155  28.113  28.128   2.632
35627W        W 7156  31.549  11.837   3.118
35628W        W 7157  36.789  39.008  12.846
35629W        W 7158  14.893  22.755   1.261
35630W        W 7159   2.587  29.091  14.283
35631W        W 7160  40.602  19.140   4.708
35632W        W 7161  12.289   7.944  11.070
35633W        W 7162  30.954  34.138   0.967
35634W        W 7163  41.812  30.384  12.050
35635W        W 7164  39.860  20.802   0.848
35636W        W 7165  15.602  40.220   1.247
35637W        W 7166   0.480  38.843   2.459
35638W        W 7167   2.814  39.483  11.082
35639W        W 7168   2.854   2.398  10.885
35640W        W 7169  22.968  37.455  10.790
35641W        W 7170  31.974  11.863  11.512
35642W        W 7171   1.627  15.055  11.643
35643W        W 7172   7.443  33.028   4.279
35644W        W 7173  27.688   5.793   3.544
35645W        W 7174  16.087   6.429   3.427
35646W        W 7175  40.416  33.214  12.551
35647W        W 7176  39.809  43.889   1.464
35648W        W 7177  36.887  27.622  11.205
35649W        W 7178  15.429  19.332   2.819
35650W        W 7179  21.841   1.895   2.875
35651W        W 7180   5.345  37.288   2.171
35652W        W 7181   9.267  33.080  14.258
35653W        W 7182  14.679   7.606   0.954
35654W        W 7183  21.400  43.408   1.542
35655W        W 7184  37.163  33.427  10.137
35656W        W 7185   5.006  16.995  14.836
35657W        W 7186  16.545  26.710  11.518
35658W        W 7187  41.173  32.373   4.135
35659W        W 7188  26.756   7.217  14.811
35660W        W 7189  17.647  35.824  11.973
35661W        W 7190  10.042  41.728  11.937
35662W        W 7191  35.011  41.099   0.244
35663W        W 7192  23.037   9.178  11.933
35664W        W 7193   1.847   1.007   0.313
35665W        W 7194  44.446   2.767   3.646
35666W        W 7195  44.112  36.715   3.666
35667W        W 7196  41.528   5.052   3.215
35668W        W 7197  32.557   7.679  12.526
35669W        W 7198   5.306  31.631   4.232
35670W        W 7199  38.820  20.584   4.618
35671W        W 7200  10.616  11.623   2.273
35672W        W 7201  44.542  42.836  14.713
35673W        W 7202  44.451  41.128   1.936
35674W        W 7203  27.451  42.258   3.412
35675W        W 7204  23.949  34.187   4.095
35676W        W 7205  30.171  17.146   3.110
35677W        W 7206   4.006  25.788   1.747
35678W        W 7207  41.801  33.432  13.262
35679W        W 7208  23.502  33.231   3.527
35680W        W 7209  15.079  16.055   1.887
35681W        W 7210  38.860  14.917  11.535
35682W        W 7211   6.351  21.600   4.873
35683W        W 7212  17.679  42.214  11.189
35684W        W 7213   7.213  25.139  12.964
35685W        W 7214   0.302   3.773   0.774
35686W        W 7215  10.313  37.630   2.349
35687W        W 7216  30.314   7.150   2.350
35688W        W 7217  20.095  17.262   2.875
35689W        W 7218   0.603  24.988   0.857
35690W        W 7219   6.849   9.117  13.368
35691W        W 7220  19.362   3.463  12.957
35692W        W 7221  40.421  40.060   0.761
35693W        W 7222  23.612   9.869   4.061
35694W        W 7223  37.032   0.437  12.091
35695W        W 7224  23.701  33.055  14.502
35696W        W 7225  38.530  27.533   0.294
35697W        W 7226  24.422  40.772   3.752
35698W        W 7227  15.595  20.528  14.870
35699W        W 7228  41.723  19.703  11.163
35700W        W 7229   1.811  19.489  10.708
35701W        W 7230  35.153  21.589  13.932
35702W        W 7231  38.798  29.468  13.597
35703W        W 7232  25.353  24.683  14.486
35704W        W 7233   2.204  20.181  11.975
35705W        W 7234   2.271  18.519  12.939
35706W        W 7235  13.172  10.931  14.093
35707W        W 7236   3.745  26.153  11.161
35708W        W 7237   4.915  14.357  11.905
35709W        W 7238  19.744  23.696   3.260
35710W        W 7239  41.335  19.284  12.383
35711W        W 7240  38.401   5.435  10.892
35712W        W 7241   2.406   1.899  14.710
35713W        W 7242  42.498  11.743   2.426
35714W        W 7243  34.136   4.258   0.171
35715W        W 7244  19.663  18.188   3.741
35716W        W 7245  19.484  16.388  11.921
35717W        W 7246   1.468  25.507  13.350
35718W        W 7247  14.891   8.225  14.881
35719W        W 7248  37.379  16.380   4.879
35720W        W 7249   6.266   3.739   2.456
35721W        W 7250   8.189   4.185   1.465
35722W        W 7251  20.575  29.961   1.679
35723W        W 7252  40.902  40.374  13.811
35724W        W 7253  27.943  22.672  11.622
35725W        W 7254  40.099  10.069   4.399
35726W        W 7255  29.745  26.770  13.797
35727W        W 7256  42.056  24.930  10.556
35728W        W 7257  41.070   7.059  12.927
35729W        W 7258  14.701  31.113   0.472
35730W        W 7259   0.396   7.408  11.179
35731W        W 7260  15.238  32.009  10.288
35732W        W 7261  37.936  28.941   2.622
35733W        W 7262   2.252  16.098  14.275
35734W        W 7263  26.227  19.934   3.342
35735W        W 7264   8.295   5.476   4.445
35736W        W 7265  43.164  12.609  13.871
35737W        W 7266  12.639  32.650   4.424
35738W        W 7267  31.528  44.918  13.586
35739W        W 7268  17.300  23.857  11.479
35740W        W 7269  20.487  15.128   2.356
35741W        W 7270  23.070  20.360   1.863
35742W        W 7271  35.834  36.621   0.821
35743W        W 7272  22.082  42.024  11.838
35744W        W 7273  29.744   6.694  12.528
35745W        W 7274  27.850   1.001   0.965
35746W        W 7275  32.987  44.920   4.321
35747W        W 7276  31.438  24.561   0.375
35748W        W 7277  28.481  21.794   1.519
35749W        W 7278   4.481   7.328   4.596
35750W        W 7279  21.506   8.265   2.566
35751W        W 7280  10.855   3.321  11.157
35752W        W 7281  36.486  39.526   1.348
35753W        W 7282   4.961   0.003   0.406
35754W        W 7283  11.851  28.380   1.608
35755W        W 7284  17.590  27.766  14.112
35756W        W 7285  25.533  31.354   3.955
35757W        W 7286   9.776  35.173   4.452
35758W        W 7287  17.338   9.688   4.207
35759W        W 7288  18.503  24.217  14.304
35760W        W 7289  37.022  25.569   4.692
35761W        W 7290  10.664   0.826   4.145
35762W        W 7291  37.474  25.215   3.920
35763W        W 7292  28.535  26.747  11.623
35764W        W 7293  16.022   0.030   3.990
35765W        W 7294  23.194  22.172  10.967
35766W        W 7295  32.656   0.931  14.484
35767W        W 7296  13.411  42.829   3.911
35768W        W 7297  10.187  22.133   1.369
35769W        W 7298   8.898  36.511   4.626
35770W        W 7299   6.990  31.034   1.467
35771W        W 7300  34.854   4.184  12.947
35772W        W 7301  32.574  29.472   2.191
35773W        W 7302  38.168  14.658  11.115
35774W        W 7303  15.871  20.044  13.943
35775W        W 7304  28.929  30.647   1.883
35776W        W 7305   5.949  24.657  14.985
35777W        W 7306  42.880  19.152  12.653
35778W        W 7307  32.007  29.404  14.929
35779W        W 7308  42.211  30.553   2.272
35780W        W 7309  10.872   5.836  14.810
35781W        W 7310  35.524  30.773  11.955
35782W        W 7311   2.068  42.301   2.333
35783W        W 7312  12.372  42.530   4.518
35784W        W 7313  19.124  35.614  13.426
35785W        W 7314  40.041  17.678  14.077
35786W        W 7315   0.723  29.096  12.696
35787W        W 7316  10.550  31.578   2.768
35788W        W 7317  20.556  30.887   1.694
35789W        W 7318  22.765  28.109   2.575
35790W        W 7319   6.812  21.102   1.087
35791W        W 7320   8.338   0.563  10.807
35792W        W 7321  26.532   3.248  13.383
35793W        W 7322  24.098  23.603  11.746
35794W        W 7323  41.453  35.952   3.751
35795W        W 7324  25.106  24.996   1.836
35796W        W 7325   5.750  31.695   2.750
35797W        W 7326   5.890  30.439  11.510
35798W        W 7327  15.014  36.454   3.565
35799W        W 7328  10.662  16.288  10.528
35800W        W 7329  24.881   4.766  12.204
35801W        W 7330   1.705  29.339  12.421
35802W        W 7331   9.797  34.000   1.221
35803W        W 7332   9.723  20.424   4.522
35804W        W 7333  31.666  27.943   0.297
35805W        W 7334  44.524  24.538  13.052
35806W        W 7335  31.196  27.546  10.680
35807W        W 7336   1.289  20.573   0.153
35808W        W 7337   4.411  13.115   2.837
35809W        W 7338  40.263   9.842  13.556
35810W        W 7339   7.838  43.458   4.615
35811W        W 7340   1.190  44.173   4.287
35812W        W 7341  43.731  41.647  14.076
35813W        W 7342  29.415  19.491  11.571
35814W        W 7343  17.085  20.992  12.083
35815W        W 7344  37.476   9.441  13.764
35816W        W 7345  29.389  36.441  10.289
35817W        W 7346   5.948  19.532  11.986
35818W        W 7347   3.618   0.809   3.610
35819W        W 7348  43.658  42.789  12.423
35820W        W 7349  37.895  12.585   2.793
35821W        W 7350   1.776  40.915  12.157
35822W        W 7351  17.203  16.363  14.248
35823W        W 7352  18.961  37.790   4.174
35824W        W 7353  10.813   9.827   4.856
35825W        W 7354  33.407  21.409   9.899
35826W        W 7355  34.933  13.413  11.736
35827W        W 7356   9.804  34.413  13.850
35828W        W 7357   0.464  20.234  14.343
35829W        W 7358  13.326  44.460   2.290
35830W        W 7359   2.487  37.392   2.186
35831W        W 7360  33.287  16.715   2.109
35832W        W 7361  26.248  21.616  12.393
35833W        W 7362  19.821  43.844   2.441
35834W        W 7363   3.478  15.769  10.349
35835W        W 7364  14.189   8.898  13.759
35836W        W 7365  35.403   4.061   0.174
35837W        W 7366  43.949   8.748  10.770
35838W        W 7367  13.934  36.073  13.901
35839W        W 7368  27.329  34.910  14.750
35840W        W 7369  20.497  12.240  13.618
35841W        W 7370   9.729  27.332   4.269
35842W        W 7371   7.303  16.283  13.945
35843W        W 7372  28.229   0.456  11.847
35844W        W 7373  15.765  25.918  11.135
35845W        W 7374  38.877  28.563   1.250
35846W        W 7375  42.693  38.753  12.106
35847W        W 7376  33.252   5.826  11.278
35848W        W 7377  27.425  18.278   4.553
35849W        W 7378  44.303  17.066  10.134
35850W        W 7379  10.667  33.619   2.459
35851W        W 7380  39.863   5.914   3.698
35852W        W 7381  28.861  28.543   1.670
35853W        W 7382  38.054   2.562  13.968
35854W        W 7383  29.615   7.338   4.249
35855W        W 7384  40.733  28.864   3.225
35856W        W 7385  22.588  37.807   0.971
35857W        W 7386  34.861  40.303   3.944
35858W        W 7387   7.326  25.730   0.117
35859W        W 7388   0.517   0.812  13.973
35860W        W 7389  21.022  32.757   4.531
35861W        W 7390  11.245  31.644  13.824
35862W        W 7391   9.392  42.823  11.043
35863W        W 7392  36.584   4.639  13.775
35864W        W 7393  29.539   0.808  11.849
35865W        W 7394  40.517  26.260  13.535
35866W        W 7395  38.609   9.340   2.798
35867W        W 7396  17.284   8.415  11.127
35868W        W 7397   2.450   6.138  13.828
35869W        W 7398  27.583  33.377   3.234
35870W        W 7399   7.361   9.361  12.054
35871W        W 7400   0.656  21.439   5.037
35872W        W 7401  44.288  28.165   1.008
35873W        W 7402  43.427  11.675   1.291
35874W        W 7403   7.763  33.514   4.639
35875W        W 7404  11.381  43.955  11.658
35876W        W 7405  30.333  29.615  13.421
35877W        W 7406   9.421  28.505  12.373
35878W        W 7407  35.102  38.648   0.267
35879W        W 7408  15.838   2.750  11.447
35880W        W 7409  13.631  14.083   0.811
35881W        W 7410   5.672  32.288   0.580
35882W        W 7411  10.299   3.231   1.493
35883W        W 7412  16.856  37.134   1.385
35884W        W 7413  38.431   3.496   1.701
35885W        W 7414   7.302  13.827   3.208
35886W        W 7415  29.491  30.747  12.219
35887W        W 7416  15.079  20.269  14.925
35888W        W 7417  20.987  34.237   0.048
35889W        W 7418   0.222  16.827  11.101
35890W        W 7419  18.564  41.363   4.628
35891W        W 7420  13.395  15.665  13.965
35892W        W 7421  38.654   4.807   0.890
35893W        W 7422  19.566   3.928  11.183
35894W        W 7423  21.519  23.786  14.767
35895W        W 7424  24.232  15.440  10.804
35896W        W 7425   0.835  43.073  12.098
35897W        W 7426  38.913   9.298  12.602
35898W        W 7427  30.147  44.733  11.258
35899W        W 7428  33.262  21.211   4.413
35900W        W 7429  23.040  33.427   3.708
35901W        W 7430  20.236  39.957  14.462
35902W        W 7431  18.831  24.743   4.892
35903W        W 7432  16.201  33.827  11.642
35904W        W 7433  24.067  20.630   3.323
35905W        W 7434  34.173  27.723  14.177
35906W        W 7435  11.739  24.975  11.599
35907W        W 7436  13.660   2.947  10.402
35908W        W 7437  22.334  10.801   3.284
35909W        W 7438  35.536  31.189   0.206
35910W        W 7439   4.760   6.854   1.920
35911W        W 7440  26.606   0.304   4.674
35912W        W 7441  12.333  11.638   0.452
35913W        W 7442   7.726  38.268   1.207
35914W        W 7443  43.445  35.151   3.299
35915W        W 7444  25.383  33.149  11.969
35916W        W 7445  25.571  26.960   2.912
35917W        W 7446  36.908  41.422  12.579
35918W        W 7447   2.780  22.873   4.138
35919W        W 7448  24.118   9.353   2.632
35920W        W 7449  26.169  30.356  12.613
35921W        W 7450  30.848  20.684  10.394
35922W        W 7451   3.269   2.493  12.448
35923W        W 7452   2.991  26.730  11.903
35924W        W 7453  31.862  12.602  14.838
35925W        W 7454  26.850  28.813  12.906
35926W        W 7455  15.257  36.506  10.827
35927W        W 7456  23.492  20.727   2.386
35928W        W 7457  23.616  29.189  13.241
35929W        W 7458  26.311  44.048  13.059
35930W        W 7459  38.205  24.088   4.245
35931W        W 7460   4.894  16.060   2.043
35932W        W 7461  42.145  11.768   4.684
35933W        W 7462  22.000  11.362   0.920
35934W        W 7463  12.028  17.106   0.030
35935W        W 7464  41.838  22.587  14.887
35936W        W 7465   0.044  43.933  14.267
35937W        W 7466  11.803  35.394  13.544
35938W        W 7467  41.498  17.490   2.917
35939W        W 7468   7.202  38.553   3.611
35940W        W 7469  12.209   5.318   3.288
35941W        W 7470  14.676  15.578  11.554
35942W        W 7471   6.301  31.193   2.006
35943W        W 7472  13.331  15.636   5.016
35944W        W 7473  41.338   6.461   3.734
35945W        W 7474   7.184  35.293   2.864
35946W        W 7475  38.440  24.670  13.213
35947W        W 7476  30.890  42.028  13.988
35948W        W 7477  19.593  23.122   2.393
35949W        W 7478   0.328   0.036   4.806
35950W        W 7479   1.396  17.685  10.878
35951W        W 7480  19.267   2.873  12.168
35952W        W 7481   3.318  28.941   3.854
35953W        W 7482   1.702  20.131  12.933
35954W        W 7483   6.783  16.787   4.729
35955W        W 7484  10.154  41.265  14.939
35956W        W 7485  28.198  27.436   2.882
35957W        W 7486   9.696  18.788  14.775
35958W        W 7487  27.671  17.275   3.264
35959W        W 7488  38.580  41.540   5.020
35960W        W 7489   7.588  20.196  13.865
35961W        W 7490  33.029  32.431   0.309
35962W        W 7491  12.196   9.315  11.289
35963W        W 7492  36.953  19.702   1.944
35964W        W 7493  37.832  23.409  11.937
35965W        W 7494  37.458  38.408  13.176
35966W        W 7495  31.899  11.878   2.717
35967W        W 7496  43.869  13.611   3.832
35968W        W 7497  14.584  36.834   0.490
35969W        W 7498  13.482  28.150  10.607
35970W        W 7499   0.553  21.822  14.441
35971W        W 7500  44.702  17.316   3.638
35972W        W 7501  27.019  36.659  11.579
35973W        W 7502  29.644  25.911  14.946
35974W        W 7503  32.628  44.476   1.310
35975W        W 7504  26.233  13.192  13.035
35976W        W 7505  31.104  38.063   0.240
35977W        W 7506  41.207  43.696  14.427
35978W        W 7507  10.250  14.294   1.926
35979W        W 7508   6.400  10.887   3.944
35980W        W 7509  42.220  36.039   1.386
35981W        W 7510  10.006  35.765  14.335
35982W        W 7511  42.872  43.500   3.800
35983W        W 7512  42.721   1.252  12.561
35984W        W 7513   6.146  20.532  12.187
35985W        W 7514  43.306  28.479   0.554
35986W        W 7515  30.554   4.275  12.624
35987W        W 7516  38.062  18.928  11.736
35988W        W 7517  40.484   5.113   1.431
35989W        W 7518  44.542   8.694  13.370
35990W        W 7519  26.721  34.595   2.641
35991W        W 7520  38.235   4.941  13.905
35992W        W 7521   6.467  43.102   3.242
35993W        W 7522  32.613  29.494   0.225
35994W        W 7523  43.977   7.965  13.276
35995W        W 7524  21.770   1.889  12.504
35996W        W 7525  19.215  34.449  13.455
35997W        W 7526  27.713  31.400   3.131
35998W        W 7527  24.530  12.198   2.333
35999W        W 7528  12.585  35.098  13.051
36000W        W 7529  30.954  25.944  13.693
36001W        W 7530  23.232  36.367  12.993
36002W        W 7531   3.226  23.517   4.123
36003W        W 7532  43.401  41.369   0.893
36004W        W 7533  36.681  31.067   1.851
36005W        W 7534  10.826  10.587  14.012
36006W        W 7535   5.188  19.200   1.834
36007W        W 7536  16.584  15.921  12.119
36008W        W 7537  44.527   3.842  12.903
36009W        W 7538   2.702  11.739   4.183
36010W        W 7539   9.339  17.556   0.978
36011W        W 7540  34.825   9.183   4.082
36012W        W 7541  14.035  24.802  12.758
36013W        W 7542  23.150  16.821   1.796
36014W        W 7543  13.362  24.058  13.025
36015W        W 7544  20.572  10.739  14.377
36016W        W 7545  12.110  26.142  12.875
36017W        W 7546   8.343  22.634   1.403
36018W        W 7547  10.656  29.733   2.402
36019W        W 7548  35.004   2.735   4.708
36020W        W 7549  21.322  21.607   2.297
36021W        W 7550  16.477  42.881  11.111
36022W        W 7551   7.664  36.049   5.009
36023W        W 7552  40.929  37.877   4.716
36024W        W 7553  35.981  25.675  10.985
36025W        W 7554  38.100  22.016   3.642
36026W        W 7555  12.751  32.194   2.297
36027W        W 7556   3.311   4.810   4.282
36028W        W 7557  22.494  38.377   1.676
36029W        W 7558  12.109  30.202   4.558
36030W        W 7559  11.061  22.197  14.502
36031W        W 7560   9.845  14.759   1.475
36032W        W 7561  25.317  19.127  13.790
36033W        W 7562   1.110  30.029   0.970
36034W        W 7563  41.030  23.389   3.178
36035W        W 7564  37.814  24.552   0.863
36036W        W 7565  33.622  20.032   4.129
36037W        W 7566   0.653  27.739   1.242
36038W        W 7567  15.952  38.836  10.322
36039W        W 7568  14.859  23.378   1.890
36040W        W 7569   0.236  28.220   2.019
36041W        W 7570  35.458  23.641   4.630
36042W        W 7571  18.797  16.370  13.559
36043W        W 7572  31.146  31.955  11.224
36044W        W 7573  20.390  11.914  14.849
36045W        W 7574  29.049  43.370   0.011
36046W        W 7575   0.285  41.014  14.383
36047W        W 7576  15.155  10.567  11.148
36048W        W 7577  22.126   7.506  13.307
36049W        W 7578   3.645  15.653  12.135
36050W        W 7579  27.623  30.628  11.045
36051W        W 7580   5.425  14.680  12.753
36052W        W 7581   4.175  38.744  10.874
36053W        W 7582  15.669  24.156   1.772
36054W        W 7583  41.547  29.273  12.894
36055W        W 7584  18.023  37.918  10.750
36056W        W 7585  31.869   7.785  11.503
36057W        W 7586  12.813  40.020  12.888
36058W        W 7587  38.197   5.833  14.016
36059W        W 7588  22.466  42.482  10.555
36060W        W 7589  12.828  22.128  10.570
36061W        W 7590  28.089   5.300  11.890
36062W        W 7591  42.234  16.817   3.691
36063W        W 7592  28.465  40.207  11.111
36064W        W 7593  14.403  38.223  11.106
36065W        W 7594  27.975  25.757   3.232
36066W        W 7595  19.694  14.354  13.866
36067W        W 7596  33.051  23.890  12.390
36068W        W 7597   0.153  20.498  10.764
36069W        W 7598  23.048  39.516   4.121
36070W        W 7599   3.487  15.634  13.030
36071W        W 7600  37.783  15.203  14.792
36072W        W 7601  32.836  38.039  12.568
36073W        W 7602   4.670  17.172   5.061
36074W        W 7603  15.188  21.138   2.074
36075W        W 7604  18.851  22.793  14.861
36076W        W 7605   6.921  34.612   4.517
36077W        W 7606  36.318  26.975  12.110
36078W        W 7607  14.101  17.803  11.914
36079W        W 7608  40.750  39.562   2.145
36080W        W 7609  10.719   3.351   0.777
36081W        W 7610  35.761  14.887   2.991
36082W        W 7611  28.650  19.682   4.635
36083W        W 7612  21.979   3.394   3.677
36084W        W 7613  30.155  12.876   5.349
36085W        W 7614  28.321  19.731   2.310
36086W        W 7615  14.180   1.335   1.939
36087W        W 7616  42.378  44.259   0.805
36088W        W 7617  18.672  40.260  12.866
36089W        W 7618   1.397  42.398   4.378
36090W        W 7619  42.981  43.052  10.179
36091W        W 7620   3.478  30.178  11.458
36092W        W 7621  16.563  18.315   3.685
36093W        W 7622  10.225   7.172  12.805
36094W        W 7623  19.102  28.684  11.421
36095W        W 7624   0.225  32.369   0.830
36096W        W 7625  32.436  22.565   4.666
36097W        W 7626  18.157  19.747   0.962
36098W        W 7627  44.930  14.380   1.228
36099W        W 7628  34.501  17.875  12.480
36100W        W 7629  12.661  29.135  11.720
36101W        W 7630  34.953  30.469   3.828
36102W        W 7631  31.076  43.584   0.668
36103W        W 7632  15.593  23.274  14.981
36104W        W 7633   4.564  28.607  11.921
36105W        W 7634  15.528  41.806  12.111
36106W        W 7635   8.745  32.690   0.307
36107W        W 7636  28.480   9.628  11.473
36108W        W 7637  36.407  34.106  14.344
36109W        W 7638  15.450  25.192   3.063
36110W        W 7639  39.745  22.545  11.626
36111W        W 7640  24.185  38.352  14.244
36112W        W 7641  36.084  21.599  11.294
36113W        W 7642  42.848  34.103  10.720
36114W        W 7643   3.418   8.189   2.328
36115W        W 7644  12.678  37.300   4.109
36116W        W 7645  37.851  21.769   0.324
36117W        W 7646  37.349   7.782   2.647
36118W        W 7647  41.469  32.570   3.708
36119W        W 7648   4.760   9.698   2.098
36120W        W 7649   8.171  26.811  14.158
36121W        W 7650   8.922   1.964   4.819
36122W        W 7651  35.029  19.205  13.116
36123W        W 7652  14.394  22.499  13.068
36124W        W 7653  26.084   6.848  12.444
36125W        W 7654  10.085  15.122  12.143
36126W        W 7655   1.619  41.392  12.067
36127W        W 7656  25.218  37.616  13.690
36128W        W 7657  23.954  39.109  10.059
36129W        W 7658  16.032   7.891  13.108
36130W        W 7659  40.464  28.498   4.057
36131W        W 7660  19.242  18.658   2.863
36132W        W 7661  43.330  32.963  10.492
36133W        W 7662  40.447  28.355  10.602
36134W        W 7663   5.636   3.307   4.012
36135W        W 7664  28.176   8.861  13.285
36136W        W 7665  24.709  34.857   0.016
36137W        W 7666  18.026  23.071   1.239
36138W        W 7667  10.672  19.705  13.353
36139W        W 7668   3.950  24.563   4.745
36140W        W 7669  29.526  26.360  13.403
36141W        W 7670  12.593  17.213   1.675
36142W        W 7671  27.475   1.865   2.412
36143W        W 7672  42.493  43.174  13.119
36144W        W 7673  26.591  26.944   0.937
36145W        W 7674   9.085  42.040  14.816
36146W        W 7675   2.782  29.543  11.497
36147W        W 7676  44.529  40.267   0.931
36148W        W 7677   9.400   9.504  11.520
36149W        W 7678  19.309  44.854  14.460
36150W        W 7679  32.460  27.456   9.778
36151W        W 7680   6.293  35.690   1.288
36152W        W 7681  34.971  42.573   3.652
36153W        W 7682  10.491   9.443   4.005
36154W        W 7683  44.332  23.715   3.141
36155W        W 7684  20.211  42.859   0.004
36156W        W 7685  30.612  35.858   1.240
36157W        W 7686  11.731  18.616   0.200
36158W        W 7687  19.709  33.567  11.229
36159W        W 7688   1.656  36.399  11.634
36160W        W 7689   9.548  37.681  11.156
36161W        W 7690  39.034   7.725   3.901
36162W        W 7691  39.350   9.279   3.315
36163W        W 7692  29.411   5.186   2.816
36164W        W 7693  33.847  35.338   0.866
36165W        W 7694  15.280  38.612   2.851
36166W        W 7695  21.285   3.815   4.792
36167W        W 7696  31.013  38.766  14.664
36168W        W 7697   3.233  29.036   2.267
36169W        W 7698  18.478  23.807   2.815
36170W        W 7699  25.483  11.670  12.436
36171W        W 7700  10.247  25.269  11.974
36172W        W 7701  21.220  28.902  14.340
36173W        W 7702  33.299   2.183  11.141
36174W        W 7703  33.852  25.232  12.495
36175W        W 7704  17.266   6.943  11.947
36176W        W 7705  25.500  42.340  10.710
36177W        W 7706  32.521  14.066  14.028
36178W        W 7707   7.685  38.389  14.427
36179W        W 7708   1.223  23.944   0.097
36180W        W 7709  12.022  28.394  11.573
36181W        W 7710   7.277  36.059  12.553
36182W        W 7711  27.938  16.244  11.263
36183W        W 7712  37.569  41.598   3.194
36184W        W 7713  24.309  41.427   9.931
36185W        W 7714   3.782  17.903  10.200
36186W        W 7715  23.351  15.218   0.016
36187W        W 7716  28.574   6.276  13.309
36188W        W 7717  29.196  12.570   2.811
36189W        W 7718  40.350  20.996  14.896
36190W        W 7719   4.401   3.214  14.293
36191W        W 7720  41.686  30.718  10.702
36192W        W 7721  10.790  43.333   1.490
36193W        W 7722   9.290  10.583  13.119
36194W        W 7723  29.350  34.484  12.466
36195W        W 7724  18.563  17.551  14.798
36196W        W 7725  23.281   5.992  13.417
36197W        W 7726  21.165  40.513  11.673
36198W        W 7727  24.961   8.306   0.413
36199W        W 7728   2.299  29.153   0.474
36200W        W 7729  29.948  15.732  12.376
36201W        W 7730  37.045  23.739   1.384
36202W        W 7731  36.294  24.137   1.503
36203W        W 7732  14.936  42.173  14.851
36204W        W 7733  19.839  11.041   2.784
36205W        W 7734  28.280  10.125   3.219
36206W        W 7735  21.668  37.293   4.882
36207W        W 7736  22.805  12.814  14.290
36208W        W 7737  31.549  43.838   0.895
36209W        W 7738  19.492  27.094   4.592
36210W        W 7739   8.877  38.592  14.792
36211W        W 7740   4.296  24.301   1.973
36212W        W 7741  21.391  17.196   1.738
36213W        W 7742  32.200  20.622  13.803
36214W        W 7743  40.945  32.368   1.847
36215W        W 7744  17.648  15.600   3.850
36216W        W 7745  17.824  24.358  12.587
36217W        W 7746  37.356  10.263   1.799
36218W        W 7747  41.447  44.971  12.058
36219W        W 7748  11.285  37.759   1.785
36220W        W 7749  43.546  32.191   2.772
36221W        W 7750  38.378  33.368   2.173
36222W        W 7751   5.670  17.733  13.407
36223W        W 7752   7.948   2.808  12.603
36224W        W 7753  35.332  12.679  11.456
36225W        W 7754  12.419  23.079  12.563
36226W        W 7755  18.344  32.544  12.594
36227W        W 7756  17.117  15.098  12.064
36228W        W 7757   9.384  25.927  12.648
36229W        W 7758   2.309  41.995   4.143
36230W        W 7759  20.789  44.936   1.741
36231W        W 7760  31.720   8.696   1.703
36232W        W 7761   5.534  17.743  11.592
36233W        W 7762  28.729  28.056   0.798
36234W        W 7763  10.105  26.605  13.317
36235W        W 7764  30.667  34.707  13.558
36236W        W 7765   9.959  39.083   0.452
36237W        W 7766  39.801   2.327  10.791
36238W        W 7767  22.958  17.558   0.447
36239W        W 7768  43.304  32.445  11.903
36240W        W 7769  34.041  13.621  14.977
36241W        W 7770  15.830   8.206  13.745
36242W        W 7771  44.541  36.417   2.330
36243W        W 7772   4.257  43.873   3.674
36244W        W 7773   3.584  40.149  13.836
36245W        W 7774  16.876  44.085   0.383
36246W        W 7775  25.774   6.123   4.136
36247W        W 7776  34.315   0.505   4.821
36248W        W 7777  44.489   7.393   3.159
36249W        W 7778  16.377  39.873  11.531
36250W        W 7779  31.076  34.640   1.100
36251W        W 7780  20.125   9.703  14.542
36252W        W 7781  16.608  20.591  11.452
36253W        W 7782  42.090   3.888   1.295
36254W        W 7783   7.371  25.951   3.311
36255W        W 7784   2.396   4.967   2.395
36256W        W 7785  26.076  18.378  11.531
36257W        W 7786   3.801  28.256  14.313
36258W        W 7787  18.049   6.485   4.809
36259W        W 7788  27.136   3.354  14.963
36260W        W 7789   5.720  43.490   3.791
36261W        W 7790   6.357  16.198  11.079
36262W        W 7791  21.727  38.353  14.152
36263W        W 7792  10.121  37.162  13.474
36264W        W 7793  16.731   4.433  11.986
36265W        W 7794  38.805  26.958  14.225
36266W        W 7795   2.648  36.215  13.787
36267W        W 7796   0.386  24.607  14.513
36268W        W 7797  15.718   7.812   0.850
36269W        W 7798   6.457  35.373  14.951
36270W        W 7799   6.198  12.721   1.856
36271W        W 7800  13.259  12.699   1.489
36272W        W 7801   2.816  28.245   3.593
36273W        W 7802  18.224  32.133  12.322
36274W        W 7803  30.146   2.753   2.459
36275W        W 7804  30.545  11.542  14.880
36276W        W 7805  41.848   3.137   1.699
36277W        W 7806  14.266  31.354  13.025
36278W        W 7807  18.964  24.168  11.140
36279W        W 7808  22.489  24.583  12.929
36280W        W 7809  22.914  32.538   1.773
36281W        W 7810  20.320  24.766  11.799
36282W        W 7811  20.755  39.574  14.852
36283W        W 7812   3.728  42.827   3.565
36284W        W 7813  13.723  42.078  12.081
36285W        W 7814   3.628   8.785   0.440
36286W        W 7815  37.071  34.670   3.686
36287W        W 7816  31.049  33.057   3.605
36288W        W 7817  37.849  24.030   2.654
36289W        W 7818  29.413  15.022   1.706
36290W        W 7819  42.739  42.085  11.112
36291W        W 7820  17.842  22.614   3.663
36292W        W 7821  38.221  12.191   2.766
36293W        W 7822   0.104   4.517  12.661
36294W        W 7823   9.136  25.250  11.486
36295W        W 7824  34.909  13.260  13.085
36296W        W 7825  44.032  36.992   0.388
36297W        W 7826  10.763   1.336   4.259
36298W        W 7827  20.858  18.072   3.121
36299W        W 7828   4.852   3.347   5.118
36300W        W 7829  35.037  28.491  12.552
36301W        W 7830  40.163  24.675  11.177
36302W        W 7831   7.345   8.351   2.816
36303W        W 7832  17.209  33.197   0.925
36304W        W 7833  29.582  36.479   4.328
36305W        W 7834  33.388  24.783   1.396
36306W        W 7835  18.070  35.196  13.482
36307W        W 7836  18.094  38.112  13.923
36308W        W 7837   2.870  14.588  12.342
36309W        W 7838   2.470  13.587  10.729
36310W        W 7839  19.767   4.839  12.044
36311W        W 7840  28.912  35.142   3.116
36312W        W 7841  23.757   9.925  14.506
36313W        W 7842  36.486  32.187   3.145
36314W        W 7843  41.484   7.883   1.172
36315W        W 7844  20.135  29.140   3.180
36316W        W 7845  18.719  10.353  13.443
36317W        W 7846  22.111  21.755   2.840
36318W        W 7847  10.363  26.960   5.014
36319W        W 7848   2.271  35.432  12.480
36320W        W 7849  20.115  36.322   4.889
36321W        W 7850  31.217   8.659  13.319
36322W        W 7851  24.162  22.988  10.584
36323W        W 7852  18.462  24.083   4.498
36324W        W 7853  15.668  43.491  10.475
36325W        W 7854  19.759   6.503  12.958
36326W        W 7855   8.154  40.872   1.367
36327W        W 7856  17.182  38.290   2.170
36328W        W 7857  44.794  32.128   4.421
36329W        W 7858  23.457  12.083  12.516
36330W        W 7859   7.940  19.686   0.449
36331W        W 7860   7.129  40.477  12.050
36332W        W 7861  13.319  28.378   4.087
36333W        W 7862  26.025  19.095   0.419
36334W        W 7863  42.373  25.222  13.066
36335W        W 7864  31.417  32.679  12.445
36336W        W 7865   0.328   3.480   0.304
36337W        W 7866  32.735   7.643  14.716
36338W        W 7867  33.947  44.464   3.097
36339W        W 7868   3.310  20.026   0.479
36340W        W 7869  44.861  28.126  11.857
36341W        W 7870  28.631  21.589   3.304
36342W        W 7871  31.502   6.687  13.400
36343W        W 7872  11.731   7.323  13.067
36344W        W 7873  40.469  14.589  10.926
36345W        W 7874   6.187  38.516  12.175
36346W        W 7875  40.482  22.837  14.755
36347W        W 7876  26.478  23.734   0.999
36348W        W 7877  39.839  20.544   0.365
36349W        W 7878  37.348  35.060   4.601
36350W        W 7879  15.271  42.891  11.500
36351W        W 7880  33.609   9.119  12.638
36352W        W 7881  29.965  44.945  11.703
36353W        W 7882   2.472  44.747  13.008
36354W        W 7883  36.446  39.746  14.225
36355W        W 7884  41.941  34.572   4.535
36356W        W 7885   0.057  36.362  14.262
36357W        W 7886  27.977  38.443   3.663
36358W        W 7887  39.838  20.690  12.651
36359W        W 7888  37.246  16.326   0.768
36360W        W 7889  34.372  13.940  13.697
36361W        W 7890   6.678  37.810  12.933
36362W        W 7891  44.861  30.647  10.465
36363W        W 7892  21.300  16.209  10.633
36364W        W 7893  26.534   3.681   0.075
36365W        W 7894  33.381  20.580  14.783
36366W        W 7895  19.440  40.307  12.039
36367W        W 7896  19.937  25.080  13.429
36368W        W 7897  35.188  25.789   1.262
36369W        W 7898  42.773  28.631   3.221
36370W        W 7899  15.556  41.743  11.227
36371W        W 7900  28.586  43.950  11.922
36372W        W 7901   6.982  22.540   4.884
36373W        W 7902  26.707  23.199  10.544
36374W        W 7903  40.235  39.529   0.466
36375W        W 7904  43.145  40.346  11.414
36376W        W 7905  43.215  19.090  11.874
36377W        W 7906  19.055  20.045   2.913
36378W        W 7907  20.056  30.075  12.069
36379W        W 7908  28.935   3.245   3.282
36380W        W 7909  26.604  21.554   0.678
36381W        W 7910  14.157  36.362  14.412
36382W        W 7911   1.405  31.118   1.673
36383W        W 7912  15.397  31.546  13.843
36384W        W 7913  19.103  19.654   4.252
36385W        W 7914  24.915  29.392  12.558
36386W        W 7915  29.067  42.074  11.072
36387W        W 7916  13.739  41.280   2.490
36388W        W 7917  17.259  37.502   4.497
36389W        W 7918   8.602   2.924   0.544
36390W        W 7919  24.091  33.481  10.041
36391W        W 7920  25.081  13.098   4.090
36392W        W 7921   0.343  42.560   0.449
36393W        W 7922  31.501  28.384  10.886
36394W        W 7923  23.630  41.996   2.249
36395W        W 7924  43.731   5.753   4.704
36396W        W 7925  40.970  41.606  11.962
36397W        W 7926  42.770  43.315  11.455
36398W        W 7927  40.779  25.561   2.147
36399W        W 7928  24.790   5.791   0.965
36400W        W 7929  14.066   2.505  11.594
36401W        W 7930   0.866  37.064  14.313
36402W        W 7931  27.238  37.956  10.652
36403W        W 7932  16.138  30.627  10.307
36404W        W 7933  36.814   3.017   4.555
36405W        W 7934  40.030  41.036  14.033
36406W        W 7935  35.113  28.138   0.403
36407W        W 7936  32.454  30.971   2.903
36408W        W 7937  24.608  26.527   4.480
36409W        W 7938   7.734  41.710   1.369
36410W        W 7939   3.806  43.120   2.572
36411W        W 7940   3.893   7.870  11.047
36412W        W 7941  33.878  10.185  12.366
36413W        W 7942  16.229  17.842  13.990
36414W        W 7943  30.018   1.371  11.142
36415W        W 7944  37.838  25.185  10.646
36416W        W 7945  42.984  15.077   0.720
36417W        W 7946  43.883  20.880  14.505
36418W        W 7947  20.343  42.998   2.325
36419W        W 7948  30.137  11.202   1.185
36420W        W 7949   8.185  32.461   2.137
36421W        W 7950   4.654  12.062   1.292
36422W        W 7951  11.720  31.756   3.518
36423W        W 7952   7.746  39.613  13.331
36424W        W 7953  32.756   7.544   4.057
36425W        W 7954  34.305  21.970   1.174
36426W        W 7955  11.088  15.958  11.897
36427W        W 7956  42.032  12.024  14.026
36428W        W 7957  24.688   5.319   2.838
36429W        W 7958  22.661  11.350  12.542
36430W        W 7959  13.303   0.777  12.012
36431W        W 7960  40.330   8.369   4.699
36432W        W 7961   4.240  39.197  11.103
36433W        W 7962  44.408  16.290  14.443
36434W        W 7963  20.179  28.404  10.614
36435W        W 7964   2.717  20.606   2.696
36436W        W 7965  42.894   0.947  11.675
36437W        W 7966  21.884  34.936   3.704
36438W        W 7967  41.451  30.658   0.992
36439W        W 7968  35.125  36.091  14.449
36440W        W 7969  15.327  28.963  14.679
36441W        W 7970  11.449  25.128  13.399
36442W        W 7971   4.891   6.698  12.851
36443W        W 7972  32.034  44.956   4.625
36444W        W 7973  13.759  23.155  14.354
36445W        W 7974   6.159  33.353   1.678
36446W        W 7975   2.297  13.146  13.615
36447W        W 7976   3.113  31.413  11.132
36448W        W 7977   1.751  15.393   4.332
36449W        W 7978  38.249   6.478   1.131
36450W        W 7979  40.220   9.163  11.447
36451W        W 7980  30.371  43.216  12.363
36452W        W 7981  18.060   0.455  13.531
36453W        W 7982  33.742   9.760   2.904
36454W        W 7983  20.526  30.209   5.009
36455W        W 7984  15.890  18.337  14.807
36456W        W 7985  29.241  10.289   4.229
36457W        W 7986  17.782   2.570  10.961
36458W        W 7987  16.764  33.674   0.292
36459W        W 7988  41.911  10.162  11.203
36460W        W 7989  24.567  10.336   4.665
36461W        W 7990  26.992  12.731   1.857
36462W        W 7991   3.311  27.170   2.280
36463W        W 7992  11.353   6.769   3.409
36464W        W 7993  19.569  35.230  14.392
36465W        W 7994   2.489  24.894   3.366
36466W        W 7995  10.258  35.818   4.853
36467W        W 7996  42.288   1.905   0.917
36468W        W 7997  24.117  17.646  11.128
36469W        W 7998  41.037  14.096  12.518
36470W        W 7999  33.901  15.792   0.771
36471W        W 8000  42.441  16.102   4.255
36472W        W 8001  28.957  32.025  13.373
36473W        W 8002  11.258  17.378  11.210
36474W        W 8003  39.164  44.410   3.213
36475W        W 8004   4.284  20.197   0.437
36476W        W 8005  16.177   4.987   3.351
36477W        W 8006  23.711   2.649   1.636
36478W        W 8007  36.889  19.702  12.184
36479W        W 8008  11.594  26.680   3.845
36480W        W 8009   6.990  27.147  11.258
36481W        W 8010  16.718  31.893   0.814
36482W        W 8011  14.206   8.323  14.337
36483W        W 8012   0.698  43.841  11.575
36484W        W 8013  40.494  19.063  13.882
36485W        W 8014  15.110  24.379   2.668
36486W        W 8015  26.183   5.169   1.387
36487W        W 8016  39.689  43.092  12.018
36488W        W 8017   0.639  24.642   1.420
36489W        W 8018  42.453  35.247   4.254
36490W        W 8019  36.131  10.584   1.400
36491W        W 8020  13.324   7.860  12.847
36492W        W 8021  16.809  35.138   1.135
36493W        W 8022   6.395   6.827   1.937
36494W        W 8023  21.021  26.384   2.760
36495W        W 8024  27.179  20.320   0.286
36496W        W 8025  39.372  17.601   3.391
36497W        W 8026  26.688  14.718  11.913
36498W        W 8027  35.508  39.099   1.229
36499W        W 8028   6.082  38.017  12.153
36500W        W 8029   4.263  43.406  14.459
36501W        W 8030  25.014   6.920  13.134
36502W        W 8031  35.013  31.915   0.023
36503W        W 8032  27.065  16.166   1.005
36504W        W 8033  22.120   9.394  14.114
36505W        W 8034  11.263  17.472   1.727
36506W        W 8035  22.980  34.634  11.104
36507W        W 8036  12.888  20.349   4.322
36508W        W 8037  11.134  18.853   3.907
36509W        W 8038   3.763   0.221   0.844
36510W        W 8039  18.664  25.468  10.874
36511W        W 8040  15.661  33.674  13.594
36512W        W 8041   2.382   9.891   0.654
36513W        W 8042   2.868  19.165   4.341
36514W        W 8043  10.353  23.606  14.905
36515W        W 8044  15.366  22.779  13.947
36516W        W 8045  24.283  18.736  14.430
36517W        W 8046   0.984  10.674   3.153
36518W        W 8047  17.578  26.944   4.614
36519W        W 8048  11.722  26.064  13.765
36520W        W 8049  12.763   2.289   3.570
36521W        W 8050  44.695  21.776   4.377
36522W        W 8051  30.709  15.403  13.938
36523W        W 8052  43.550  15.762  14.791
36524W        W 8053  37.365   8.076   1.275
36525W        W 8054   9.344  43.947   3.117
36526W        W 8055  31.001   1.468  11.508
36527W        W 8056  19.591  10.910   4.102
36528W        W 8057   9.974  38.396  12.130
36529W        W 8058  35.287  23.797  13.875
36530W        W 8059   9.342   1.198  11.485
36531W        W 8060  19.066  38.525   2.234
36532W        W 8061  14.239  38.908  11.539
36533W        W 8062   6.228  14.682   0.523
36534W        W 8063  42.859  31.883   1.941
36535W        W 8064  39.120  30.008  12.332
36536W        W 8065  31.269  17.747   4.908
36537W        W 8066  16.555   3.837   1.223
36538W        W 8067  41.535  18.013  13.596
36539W        W 8068  41.762  12.672   0.853
36540W        W 8069   0.125   8.900  13.293
36541W        W 8070  28.160   0.214  10.626
36542W        W 8071  26.584   9.723  14.847
36543W        W 8072  12.023   9.307  13.026
36544W        W 8073  32.529   4.715  13.793
36545W        W 8074   3.693   5.954  14.454
36546W        W 8075  30.686   4.297  14.976
36547W        W 8076  16.835  37.845  13.598
36548W        W 8077  18.813  14.865  14.414
36549W        W 8078  14.465  43.889  12.895
36550W        W 8079  19.016  39.291  13.437
36551W        W 8080  41.581  11.831   3.751
36552W        W 8081  36.400  19.720  12.326
36553W        W 8082  33.903   5.364  13.412
36554W        W 8083   3.466  44.347  11.406
36555W        W 8084  33.219  21.980  13.184
36556W        W 8085  43.840   9.346  14.439
36557W        W 8086   1.728  16.235  12.887
36558W        W 8087  30.872  22.069   1.791
36559W        W 8088  16.958  12.233  11.934
36560W        W 8089   6.652  36.233   3.691
36561W        W 8090  23.319  25.490  13.139
36562W        W 8091   3.815  20.036  13.321
36563W        W 8092  25.552  11.196  12.113
36564W        W 8093  31.370  25.634   2.684
36565W        W 8094   1.102  26.170   0.257
36566W        W 8095  16.593   0.665  12.584
36567W        W 8096   6.178  17.655   1.817
36568W        W 8097  10.444  27.592  13.688
36569W        W 8098   4.477  17.124  12.636
36570W        W 8099  37.794  36.192  14.350
36571W        W 8100  40.376   0.754  13.261
36572W        W 8101  17.696  21.985  11.630
36573W        W 8102  13.856   1.172   2.707
36574W        W 8103  41.858  40.579  13.829
36575W        W 8104  33.167  36.843   0.486
36576W        W 8105  10.323  38.805  12.924
36577W        W 8106  14.312   5.461   0.428
36578W        W 8107  30.723  33.406  14.224
36579W        W 8108  28.957  11.421  14.289
36580W        W 8109  41.932   5.392  13.585
36581W        W 8110  19.288   5.652  10.824
36582W        W 8111   6.309  29.411  13.103
36583W        W 8112   2.229   9.684   2.668
36584W        W 8113  40.916  13.087  13.977
36585W        W 8114  41.220  27.605   2.848
36586W        W 8115  42.014  37.506  14.594
36587W        W 8116  33.418  21.690   1.536
36588W        W 8117  24.475  42.488   2.271
36589W        W 8118   1.253  16.278  11.609
36590W        W 8119  38.013  44.512  14.911
36591W        W 8120   2.901  27.905  11.334
36592W        W 8121   9.296  40.382  11.933
36593W        W 8122  10.213   0.955   2.950
36594W        W 8123  44.932  21.203  10.477
36595W        W 8124  18.067  43.285  10.594
36596W        W 8125   9.854  34.153  12.951
36597W        W 8126  42.291  32.478  13.630
36598W        W 8127  26.194  26.551   1.865
36599W        W 8128  35.774  15.081  14.779
36600W        W 8129   7.264  32.500   2.628
36601W        W 8130  30.436  40.391   1.215
36602W        W 8131  42.777  18.696   0.765
36603W        W 8132  25.035  27.078   1.004
36604W        W 8133  44.592   6.476  12.145
36605W        W 8134  42.128  39.010  14.428
36606W        W 8135  16.027  10.673   3.027
36607W        W 8136  36.454  38.515  11.155
36608W        W 8137   7.794  25.990  11.595
36609W        W 8138  14.075  39.005  12.028
36610W        W 8139   0.840  23.906  11.197
36611W        W 8140  21.480  27.035  12.037
36612W        W 8141   2.942  37.766   4.076
36613W        W 8142  18.036  17.039   3.770
36614W        W 8143  11.248  13.674  13.462
36615W        W 8144  42.739  42.124   5.079
36616W        W 8145  37.660   7.432  11.133
36617W        W 8146  22.439  12.759  11.182
36618W        W 8147  39.279   7.592  12.940
36619W        W 8148  22.981  33.456  14.417
36620W        W 8149  44.058   5.287   4.625
36621W        W 8150  34.014  32.500   4.360
36622W        W 8151  32.843   4.558   3.503
36623W        W 8152  23.018  16.026  13.481
36624W        W 8153  42.014   6.264   0.828
36625W        W 8154  20.704  27.049   1.738
36626W        W 8155  10.262  30.822  14.742
36627W        W 8156  14.915  11.860  10.012
36628W        W 8157  22.733   2.810   4.863
36629W        W 8158  28.547  17.268   1.788
36630W        W 8159  33.977  43.232   2.649
36631W        W 8160  23.483  29.498   3.284
36632W        W 8161  29.269   2.303   3.132
36633W        W 8162  29.121  20.011   3.590
36634W        W 8163  31.483   2.620  13.555
36635W        W 8164  31.601   4.425   1.632
36636W        W 8165  32.492  13.701   2.879
36637W        W 8166  17.810  15.052  11.175
36638W        W 8167  27.421  41.388   4.411
36639W        W 8168  19.526  17.265   1.297
36640W        W 8169  41.032  44.742   2.448
36641W        W 8170  21.242  26.211  10.725
36642W        W 8171  41.908  19.309   1.414
36643W        W 8172  23.780  37.485  14.023
36644W        W 8173  39.069  31.640   1.877
36645W        W 8174  44.041  18.493   1.884
36646W        W 8175   2.979  10.103   4.168
36647W        W 8176  44.234   5.750  13.297
36648W        W 8177  25.521  18.088   3.096
36649W        W 8178  26.815  10.870   4.227
36650W        W 8179  43.106  10.773  14.486
36651W        W 8180  42.399   9.872   2.907
36652W        W 8181  16.639   3.519   0.829
36653W        W 8182  39.662  41.040   3.687
36654W        W 8183  39.790  22.579  12.422
36655W        W 8184   2.779  23.628  14.859
36656W        W 8185  36.624  14.400   1.964
36657W        W 8186  42.318   1.380   0.783
36658W        W 8187  27.522  35.918  11.887
36659W        W 8188   7.716   1.481   3.683
36660W        W 8189  34.138  14.661  11.155
36661W        W 8190  30.351  32.924  13.059
36662W        W 8191  42.460  12.692  14.391
36663W        W 8192  12.716  44.765  10.038
36664W        W 8193  17.795  26.120   0.346
36665W        W 8194   1.733  27.478   3.678
36666W        W 8195  33.039  21.384  14.058
36667W        W 8196   2.498   8.957  13.291
36668W        W 8197  12.883  41.485  11.978
36669W        W 8198  24.422  23.968  11.888
36670W        W 8199  30.603  26.932   3.681
36671W        W 8200  15.612  12.678   2.813
36672W        W 8201  10.991   3.494   4.821
36673W        W 8202  33.349  27.139   0.433
36674W        W 8203   3.724   5.624   4.768
36675W        W 8204  25.165  37.779  11.765
36676W        W 8205  44.863   4.255   3.407
36677W        W 8206  44.364   9.739   3.686
36678W        W 8207  15.606   4.184  10.633
36679W        W 8208   0.259  32.844   4.072
36680W        W 8209  28.703  23.598   1.214
36681W        W 8210  24.585  23.834   0.820
36682W        W 8211  14.114   5.412   2.718
36683W        W 8212  15.019  31.618   4.151
36684W        W 8213  35.131  36.296   4.578
36685W        W 8214  44.468  22.226   0.272
36686W        W 8215  44.756  34.008   3.724
36687W        W 8216  29.154  11.871  12.054
36688W        W 8217  41.060   5.942   4.565
36689W        W 8218  25.875  38.980  14.409
36690W        W 8219  36.415  43.838  11.477
36691W        W 8220   5.309  42.572  14.467
36692W        W 8221  38.085   2.894  11.967
36693W        W 8222  26.766  39.154  13.353
36694W        W 8223  18.532  29.368  10.949
36695W        W 8224  21.287  41.434  12.961
36696W        W 8225  28.904  22.420   1.828
36697W        W 8226   1.061  35.665  11.525
36698W        W 8227   7.875   8.008  12.591
36699W        W 8228  27.613  29.480   3.549
36700W        W 8229  43.434  44.918   2.642
36701W        W 8230   0.515  35.557   4.625
36702W        W 8231  31.447  21.970   4.087
36703W        W 8232  17.869   9.940   4.895
36704W        W 8233  44.843   2.697   0.461
36705W        W 8234  36.269  19.029   4.223
36706W        W 8235  44.474  17.987   2.824
36707W        W 8236  16.495  19.940  14.316
36708W        W 8237   1.956  42.773   3.590
36709W        W 8238  28.086   1.348  10.216
36710W        W 8239  36.218  35.441  11.092
36711W        W 8240  21.085   9.648   4.208
36712W        W 8241  31.665  14.787   2.791
36713W        W 8242  16.102  11.603  14.932
36714W        W 8243   2.538  28.645   3.414
36715W        W 8244  29.255   0.447  14.707
36716W        W 8245  10.505  31.638  11.959
36717W        W 8246  12.621  25.526   0.939
36718W        W 8247  22.578  27.883  13.371
36719W        W 8248  25.063  14.659   3.190
36720W        W 8249  43.634   5.215   1.245
36721W        W 8250   9.237   0.865   0.223
36722W        W 8251  12.292   6.939  13.531
36723W        W 8252  32.174   0.087   2.248
36724W        W 8253   7.985  14.311   1.791
36725W        W 8254   4.260  27.751  13.711
36726W        W 8255  11.234  21.664   2.456
36727W        W 8256  19.069   8.721   4.640
36728W        W 8257  25.278  20.958   1.815
36729W        W 8258  28.439  18.558   2.375
36730W        W 8259  33.009   9.165   3.313
36731W        W 8260  44.230   9.432   2.331
36732W        W 8261  44.319  40.724   2.287
36733W        W 8262  33.805   3.776   2.923
36734W        W 8263  39.176  22.684   4.909
36735W        W 8264  10.898   4.472  14.926
36736W        W 8265  20.697  10.891   3.177
36737W        W 8266   9.981  12.293  13.964
36738W        W 8267  25.179  17.123   0.495
36739W        W 8268  43.603   1.583   2.575
36740W        W 8269  36.543  10.376  12.557
36741W        W 8270  38.514  18.108   3.085
36742W        W 8271  39.952  34.541  14.298
36743W        W 8272  30.001  36.498   4.620
36744W        W 8273   7.359  25.098   3.565
36745W        W 8274  35.845   5.963   4.254
36746W        W 8275  43.222  10.825  13.060
36747W        W 8276  28.802  16.496   3.246
36748W        W 8277   7.773  43.003   3.186
36749W        W 8278  21.523  13.199   0.925
36750W        W 8279  14.687  37.021  12.840
36751W        W 8280  26.701  28.146   2.367
36752W        W 8281   1.660   6.056   0.453
36753W        W 8282  18.777  12.381  11.184
36754W        W 8283  33.216  24.450   3.588
36755W        W 8284  35.452  15.789  11.426
36756W        W 8285  39.984  35.763  12.961
36757W        W 8286  42.393  38.282   1.693
36758W        W 8287  35.109  42.359   4.093
36759W        W 8288   6.164  36.621   4.192
36760W        W 8289   5.993  42.078   4.313
36761W        W 8290  32.666  22.199   2.300
36762W        W 8291  34.686  40.558  14.541
36763W        W 8292  28.672  33.148   2.556
36764W        W 8293  11.294  19.092  13.409
36765W        W 8294  23.931  29.724  14.504
36766W        W 8295   8.298  21.724  14.379
36767W        W 8296  21.574  29.104  12.405
36768W        W 8297   7.924  11.126  14.283
36769W        W 8298   9.584  42.176   0.950
36770W        W 8299  12.690  19.160  13.285
36771W        W 8300  18.460   0.891   1.750
36772W        W 8301  26.730  31.059   2.742
36773W        W 8302  22.927  20.745   3.801
36774W        W 8303  15.796  15.667  14.471
36775W        W 8304   5.447   5.794  12.010
36776W        W 8305  33.283   1.913   3.462
36777W        W 8306  19.547  14.837  13.837
36778W        W 8307  22.755  38.747  10.407
36779W        W 8308   0.693  13.605  10.966
36780W        W 8309  27.536  41.288  12.677
36781W        W 8310  10.156  25.275  12.837
36782W        W 8311   6.506  37.303  12.864
36783W        W 8312   5.772  17.666  11.143
36784W        W 8313  22.058   0.839  13.047
36785W        W 8314  30.998  38.909   1.948
36786W        W 8315  22.618  35.851   4.267
36787W        W 8316  30.536  32.074  14.014
36788W        W 8317   1.028   6.328   1.783
36789W        W 8318  22.477   3.016  12.879
36790W        W 8319  33.825  43.280  13.421
36791W        W 8320  42.449  14.964   1.004
36792W        W 8321  16.118  11.665  14.018
36793W        W 8322  10.230   6.808  13.674
36794W        W 8323  18.456  26.476  12.322
36795W        W 8324  24.503   5.933  13.934
36796W        W 8325  31.507  40.980  10.736
36797W        W 8326  16.161   7.614  11.686
36798W        W 8327   6.312  43.684  14.897
36799W        W 8328  34.032  24.873   1.090
36800W        W 8329  18.826   8.321   0.012
36801W        W 8330  23.508  13.827  14.406
36802W        W 8331   9.711  19.039  10.695
36803W        W 8332  21.123  32.660  11.675
36804W        W 8333   4.031  22.592  10.851
36805W        W 8334  17.126  41.490   1.666
36806W        W 8335  39.842  21.353  12.905
36807W        W 8336   2.797  34.686   3.490
36808W        W 8337  30.233  37.576   4.501
36809W        W 8338   0.621  15.711  10.638
36810W        W 8339  28.612  28.089   4.292
36811W        W 8340   2.421  32.095   3.394
36812W        W 8341  23.552  26.603  11.197
36813W        W 8342  23.591  39.045  14.484
36814W        W 8343  37.969  44.881  12.030
36815W        W 8344  32.367  44.028   1.413
36816W        W 8345  22.653  36.353   4.366
36817W        W 8346  19.081  34.033  11.151
36818W        W 8347  22.824  15.668  13.897
36819W        W 8348  22.342  35.573   0.610
36820W        W 8349   9.126   9.877  11.989
36821W        W 8350  39.942  23.264   0.393
36822W        W 8351   3.953  44.973   0.414
36823W        W 8352  21.210  21.207  11.323
36824W        W 8353  33.853   1.839   2.292
36825W        W 8354  43.830  16.342   0.014
36826W        W 8355  39.372  40.016   1.927
36827W        W 8356  37.947  21.313  13.866
36828W        W 8357   5.390  34.880   1.380
36829W        W 8358  43.535   4.171   1.207
36830W        W 8359  27.733  19.056   2.655
36831W        W 8360  34.991  25.268   2.684
36832W        W 8361   2.461   0.932   0.487
36833W        W 8362  41.257  16.226   2.690
36834W        W 8363  36.866  13.149   2.376
36835W        W 8364  30.577  12.851  10.286
36836W        W 8365  21.902  24.302   2.896
36837W        W 8366  13.439  37.619  12.383
36838W        W 8367  41.286  44.244   2.127
36839W        W 8368  39.546   2.860   0.400
36840W        W 8369  20.274  21.107   3.286
36841W        W 8370  32.403  43.898  12.885
36842W        W 8371  34.079   3.159   2.159
36843W        W 8372  13.683   2.164   2.648
36844W        W 8373   9.378  22.609   3.617
36845W        W 8374   5.977  14.373  10.767
36846W        W 8375  35.860   3.173  12.538
36847W        W 8376   4.704  17.816   3.693
36848W        W 8377  43.574  30.392   1.505
36849W        W 8378  42.527  13.138   0.975
36850W        W 8379   2.263  21.319  11.949
36851W        W 8380   8.313  29.948  14.874
36852W        W 8381   9.239  15.182  11.678
36853W        W 8382  18.987   0.159  11.886
36854W        W 8383  43.824   0.035  10.948
36855W        W 8384  29.949  38.443   4.087
36856W        W 8385   0.227   3.932  10.704
36857W        W 8386  37.145  37.784   0.410
36858W        W 8387  27.428   8.429  11.053
36859W        W 8388   0.107  43.403   0.167
36860W        W 8389   5.029  12.282  11.594
36861W        W 8390   3.238  31.896  11.058
36862W        W 8391  29.714   0.336  10.742
36863W        W 8392  37.104  17.759   1.033
36864W        W 8393  42.440  21.025   0.952
36865W        W 8394  26.179  15.783   0.823
36866W        W 8395   5.952  39.244   4.191
36867W        W 8396  29.814  31.139   2.359
36868W        W 8397  38.326  15.877  13.881
36869W        W 8398   5.439   9.374  13.244
36870W        W 8399  14.596  15.147   0.917
36871W        W 8400  12.419  37.423  13.386
36872W        W 8401  36.380   9.590  11.183
36873W        W 8402   8.268  19.596   4.247
36874W        W 8403  28.902   8.078  10.948
36875W        W 8404  39.010  33.995   3.749
36876W        W 8405   5.656  24.972   0.296
36877W        W 8406  30.902   8.348  13.585
36878W        W 8407  40.550  28.165   0.457
36879W        W 8408   9.245  40.763  11.246
36880W        W 8409  31.181   7.135  14.181
36881W        W 8410  11.432  19.031   3.414
36882W        W 8411  26.878  12.279  14.040
36883W        W 8412  35.372  23.018  11.664
36884W        W 8413  14.161  32.038   4.266
36885W        W 8414  25.530  33.403  10.478
36886W        W 8415  13.360  37.606  13.421
36887W        W 8416  42.427  11.927   1.034
36888W        W 8417  23.273  30.444  14.890
36889W        W 8418  22.776  15.178   1.859
36890W        W 8419  23.818  35.522  13.006
36891W        W 8420  37.495   3.294   3.198
36892W        W 8421   5.003  16.642  12.884
36893W        W 8422  44.239  39.068  13.499
36894W        W 8423  39.755  11.258  12.046
36895W        W 8424  16.814   8.177   3.264
36896W        W 8425  18.079  26.650   3.376
36897W        W 8426  14.299  28.434  10.935
36898W        W 8427   1.849   6.726   0.882
36899W        W 8428  25.057   3.928   4.809
36900W        W 8429  30.194  26.995   2.848
36901W        W 8430   0.901  35.615   4.992
36902W        W 8431  20.776  38.721   5.041
36903W        W 8432  39.399  28.996   2.746
36904W        W 8433  30.842  20.493  11.555
36905W        W 8434  36.082  28.918  12.042
36906W        W 8435  37.651  12.651   4.404
36907W        W 8436  29.371   3.367  10.888
36908W        W 8437  24.552   7.057   3.307
36909W        W 8438  25.603  27.940  14.304
36910W        W 8439  17.385  31.351  13.929
36911W        W 8440  10.120  16.308  12.373
36912W        W 8441  15.172   2.448  12.025
36913W        W 8442  38.642  14.489  11.210
36914W        W 8443  32.357  41.520  14.399
36915W        W 8444  17.263   0.039   3.653
36916W        W 8445  19.080  16.759   0.351
36917W        W 8446  36.033  23.494   3.638
36918W        W 8447   0.373  40.906  14.930
36919W        W 8448  33.010  21.483  10.296
36920W        W 8449  28.240  33.051  12.982
36921W        W 8450  37.486   8.965  13.988
36922W        W 8451  37.364  35.448   0.711
36923W        W 8452  44.405  40.918   3.788
36924W        W 8453  16.352  43.450  14.293
36925W        W 8454  38.036  26.190  14.258
36926W        W 8455   3.960  42.793  13.283
36927W        W 8456   4.334  36.821   0.553
36928W        W 8457  14.674  19.995   1.741
36929W        W 8458  41.787  36.497  13.485
36930W        W 8459  20.666  14.399   1.241
36931W        W 8460   3.701   9.772   4.177
36932W        W 8461  33.326   2.968  11.601
36933W        W 8462  36.535  11.377   4.038
36934W        W 8463  36.359  40.270  14.809
36935W        W 8464  33.467  41.248   3.446
36936W        W 8465   7.370  39.309   0.468
36937W        W 8466  43.127  32.977  13.330
36938W        W 8467   7.815  26.655   2.867
36939W        W 8468  38.439  12.961  14.003
36940W        W 8469  32.060  37.968   4.151
36941W        W 8470   9.960  17.693   1.678
36942W        W 8471  25.850  22.501  12.531
36943W        W 8472  22.250  28.395  14.481
36944W        W 8473  10.949  15.330   0.845
36945W        W 8474   3.263  32.412  10.448
36946W        W 8475   7.862  19.215   1.799
36947W        W 8476   2.327  12.536  11.521
36948W        W 8477  20.784   9.094  12.748
36949W        W 8478   0.082   6.019  13.382
36950W        W 8479  14.832   7.353   4.281
36951W        W 8480   3.764  29.404  14.454
36952W        W 8481  22.314   8.416   4.686
36953W        W 8482  18.481  19.235   3.782
36954W        W 8483  18.762  12.272  14.914
36955W        W 8484  42.286  40.320  13.970
36956W        W 8485  35.813  11.014   3.169
36957W        W 8486  30.914  23.057  13.917
36958W        W 8487  39.426  38.789   3.323
36959W        W 8488   3.664  31.914  12.996
36960W        W 8489  43.785  10.815   2.490
36961W        W 8490  32.295  37.208  10.421
36962W        W 8491  29.044  13.435  13.018
36963W        W 8492   1.321  16.820  11.229
36964W        W 8493  31.140  26.387   1.811
36965W        W 8494  21.916  25.859  12.086
36966W        W 8495  10.938   0.501  10.717
36967W        W 8496  38.668   3.206   1.315
36968W        W 8497  12.313  24.623   0.056
36969W        W 8498  43.261  24.299  12.387
36970W        W 8499  11.094   9.211  11.187
36971W        W 8500   4.205  30.504   0.005
36972W        W 8501   6.386   6.284   1.784
36973W        W 8502  36.538  31.769  13.789
36974W        W 8503   4.120  23.682   3.204
36975W        W 8504  41.039  31.427   1.969
36976W        W 8505  15.327  20.776  13.538
36977W        W 8506  40.830  33.483  12.409
36978W        W 8507  12.180  37.439  12.143
36979W        W 8508  18.767  26.369  11.946
36980W        W 8509  20.080  36.987  12.427
36981W        W 8510  26.036  32.461   3.663
36982W        W 8511  41.848   5.001   1.282
36983W        W 8512  19.165  13.699   1.406
36984W        W 8513  17.809  24.487  11.614
36985W        W 8514  42.274   9.760   0.886
36986W        W 8515   4.875  24.307   0.916
36987W        W 8516  27.030  39.487  12.897
36988W        W 8517  36.879   2.926  13.701
36989W        W 8518  27.634  25.730  13.727
36990W        W 8519  28.012   7.593   3.861
36991W        W 8520  21.936  28.541   0.903
36992W        W 8521   9.889   4.246  11.226
36993W        W 8522   8.153  27.530   1.920
36994W        W 8523  39.047  20.205   3.877
36995W        W 8524  18.188   4.830   0.357
36996W        W 8525  29.063  20.024   4.544
36997W        W 8526  40.073   4.223   0.428
36998W        W 8527  12.581  30.377   0.010
36999W        W 8528  11.886  12.166   4.745
37000W        W 8529  26.877  14.293   4.446
37001W        W 8530  33.951   6.354  12.307
37002W        W 8531  26.567  13.553   3.616
37003W        W 8532  31.670   6.891   4.235
37004W        W 8533  44.396  39.293  12.619
37005W        W 8534  14.091  36.630  12.576
37006W        W 8535  25.127  24.156   4.957
37007W        W 8536  15.159  12.766  14.825
37008W        W 8537   3.248  15.336   4.519
37009W        W 8538   9.045  20.720  14.977
37010W        W 8539  26.943   5.272  12.398
37011W        W 8540  27.133  40.554   3.367
37012W        W 8541  22.160  26.941  12.653
37013W        W 8542   9.216  22.633   3.133
37014W        W 8543  20.249   9.840   4.526
37015W        W 8544   8.417   7.749   4.659
37016W        W 8545  11.871  35.833  13.065
37017W        W 8546   0.945  38.433  11.736
37018W        W 8547  38.735  12.290   1.884
37019W        W 8548   6.819  37.984   4.059
37020W        W 8549  32.630  26.195   0.763
37021W        W 8550  30.827  28.372   2.622
37022W        W 8551   7.551   9.314  11.176
37023W        W 8552  31.153   6.164  13.860
37024W        W 8553  26.065   4.296   2.224
37025W        W 8554  29.619  44.407  10.467
37026W        W 8555  22.099  20.720   4.173
37027W        W 8556  15.307  12.177   4.088
37028W        W 8557  42.999   7.703  13.378
37029W        W 8558  28.348   0.764  11.449
37030W        W 8559  19.770  12.806   3.798
37031W        W 8560  30.850   0.916   3.743
37032W        W 8561  23.651  31.767  14.825
37033W        W 8562  30.471  17.460  14.843
37034W        W 8563  35.809  35.241   0.834
37035W        W 8564  28.334  21.516  11.709
37036W        W 8565  21.733  12.744   4.566
37037W        W 8566  22.077  16.573  14.753
37038W        W 8567   9.768  39.555  11.597
37039W        W 8568  30.884  21.485   0.089
37040W        W 8569  26.006  25.697  11.722
37041W        W 8570   4.004   5.891   2.014
37042W        W 8571  32.478  23.425  14.041
37043W        W 8572  40.869  15.543  11.855
37044W        W 8573  39.077   0.664   0.948
37045W        W 8574  12.671  15.757   2.469
37046W        W 8575  30.201  24.920  11.831
37047W        W 8576   1.706  44.917  14.270
37048W        W 8577  24.761   9.174  11.635
37049W        W 8578   5.865  28.973   1.725
37050W        W 8579   1.375   8.848   1.944
37051W        W 8580  27.976  17.608   2.367
37052W        W 8581  27.794   0.915  10.059
37053W        W 8582  10.789  12.779  12.923
37054W        W 8583  12.339  37.684  11.714
37055W        W 8584  26.314  15.509   3.613
37056W        W 8585  10.744  39.363  12.555
37057W        W 8586  25.565  17.617  13.535
37058W        W 8587  14.705  36.449   3.140
37059W        W 8588  29.802   2.935   2.798
37060W        W 8589   3.344  31.514  14.906
37061W        W 8590  11.436  25.285   3.900
37062W        W 8591  21.060  27.518   3.743
37063W        W 8592   9.302  11.216  12.469
37064W        W 8593  17.809  31.531   2.259
37065W        W 8594  14.931  35.873  13.934
37066W        W 8595  23.212  42.216  12.484
37067W        W 8596   9.167  16.232   3.558
37068W        W 8597  43.344  29.958   2.390
37069W        W 8598   6.216  18.568  11.187
37070W        W 8599  27.611  25.217  14.951
37071W        W 8600  30.776   1.986  14.544
37072W        W 8601  39.364   3.693   1.973
37073W        W 8602  20.725   1.486   1.846
37074W        W 8603  39.552  32.596  14.931
37075W        W 8604  36.799  13.426  14.634
37076W        W 8605  37.643  33.586  10.658
37077W        W 8606  35.628  32.060   4.193
37078W        W 8607  17.862  21.541   1.216
37079W        W 8608  40.795   8.889  14.418
37080W        W 8609  10.476  32.092   2.595
37081W        W 8610  36.519  30.384   2.841
37082W        W 8611  37.289  21.454  12.302
37083W        W 8612  33.409   6.791   3.700
37084W        W 8613  35.511   0.963  13.624
37085W        W 8614  40.762  32.959  14.369
37086W        W 8615   7.595  27.283  11.939
37087W        W 8616   1.098   1.421  14.345
37088W        W 8617  39.973   4.756   4.634
37089W        W 8618  38.571  39.650   2.688
37090W        W 8619  28.223  34.105  13.362
37091W        W 8620  11.396  44.509  14.097
37092W        W 8621  20.563   1.221   4.552
37093W        W 8622  15.632  20.897   1.963
37094W        W 8623  30.159  40.498   3.166
37095W        W 8624  39.013  20.751   1.101
37096W        W 8625  27.960  11.590  10.326
37097W        W 8626  24.539  42.611  10.591
37098W        W 8627  13.309  14.785   4.113
37099W        W 8628  22.338  33.018  10.635
37100W        W 8629  19.653   6.837  13.339
37101W        W 8630  41.436  16.320  12.319
37102W        W 8631   4.434   5.436  11.516
37103W        W 8632  15.036   5.167   3.576
37104W        W 8633   1.421   2.183   1.459
37105W        W 8634  20.001   6.867  12.093
37106W        W 8635   5.897  25.289  11.404
37107W        W 8636   2.259   5.748  12.917
37108W        W 8637  27.136  25.892   3.305
37109W        W 8638  18.541   6.409   5.016
37110W        W 8639  16.211   6.702   4.646
37111W        W 8640  41.221  31.163   1.520
37112W        W 8641  13.686  18.732  11.112
37113W        W 8642   7.719  30.484  11.132
37114W        W 8643  38.164  13.195   0.853
37115W        W 8644  20.066  20.132   4.672
37116W        W 8645   8.273   5.110  11.523
37117W        W 8646  22.630   0.443  12.438
37118W        W 8647  25.926  44.376  10.172
37119W        W 8648  43.481   1.439   4.510
37120W        W 8649  38.330  16.647  12.859
37121W        W 8650   3.008  20.714  13.546
37122W        W 8651  25.940   5.004   0.424
37123W        W 8652  33.866  17.647  11.032
37124W        W 8653   1.158   0.893   0.983
37125W        W 8654  44.577  23.716   0.177
37126W        W 8655  14.830  34.523   3.239
37127W        W 8656  22.918  10.294   5.074
37128W        W 8657  21.580  12.371  12.034
37129W        W 8658   3.893  23.651   3.676
37130W        W 8659  17.805  19.590   4.293
37131W        W 8660  10.502  12.710   5.046
37132W        W 8661  39.436   6.884  13.521
37133W        W 8662  14.212  44.808  14.843
37134W        W 8663  30.340   4.279  11.142
37135W        W 8664  32.931  41.433   3.636
37136W        W 8665  33.894  32.024  14.316
37137W        W 8666  13.169  10.034  11.976
37138W        W 8667  21.274   7.086   1.206
37139W        W 8668  31.459  35.430   0.833
37140W        W 8669   6.472   4.450  11.974
37141W        W 8670  14.147  26.634   0.267
37142W        W 8671  37.471  39.823  13.349
37143W        W 8672   6.236  12.112  14.301
37144W        W 8673   4.726   7.648  11.658
37145W        W 8674  33.071  11.776   0.890
37146W        W 8675   2.727  39.970   4.047
37147W        W 8676  41.474  34.931   2.874
37148W        W 8677   8.698  34.363   4.588
37149W        W 8678  11.977  38.781   0.238
37150W        W 8679  22.331  30.208   5.020
37151W        W 8680   3.820  36.206   4.565
37152W        W 8681  19.179  17.165  13.883
37153W        W 8682  11.221   8.826   3.238
37154W        W 8683  15.680  40.829  10.907
37155W        W 8684   1.642  15.302   1.996
37156W        W 8685  20.714  17.652  10.948
37157W        W 8686  15.846  14.100   2.274
37158W        W 8687  30.191   5.267  13.372
37159W        W 8688  32.526  44.219   0.834
37160W        W 8689  31.623  38.038  10.618
37161W        W 8690  27.413  38.793  10.240
37162W        W 8691  32.106  42.292  13.726
37163W        W 8692  44.270  20.167  12.244
37164W        W 8693  14.871  14.654   4.318
37165W        W 8694  18.470  20.168  11.461
37166W        W 8695  32.996   4.969   1.786
37167W        W 8696  42.474   0.827  12.131
37168W        W 8697  29.827   8.706   4.225
37169W        W 8698   0.223  44.485   2.809
37170W        W 8699  12.734  23.934  12.011
37171W        W 8700  21.659  44.347  13.073
37172W        W 8701  34.538  41.580  14.492
37173W        W 8702  13.894  35.729   2.289
37174W        W 8703  41.899  28.934   4.741
37175W        W 8704  31.664  44.513   1.733
37176W        W 8705  27.183   3.354   2.255
37177W        W 8706  40.244  18.320   0.465
37178W        W 8707  23.963  34.213  11.150
37179W        W 8708  18.093   7.814   0.460
37180W        W 8709  44.589  31.205   1.795
37181W        W 8710  22.422  23.179   2.900
37182W        W 8711   1.839  20.506   0.937
37183W        W 8712  35.155   8.918  12.954
37184W        W 8713  11.435  11.909  11.952
37185W        W 8714   9.362  41.377   4.740
37186W        W 8715  24.489  38.718   0.985
37187W        W 8716  41.144  35.341   2.830
37188W        W 8717  23.621   1.069  14.029
37189W        W 8718  28.563   2.433   3.676
37190W        W 8719  34.296  42.451  10.631
37191W        W 8720   1.453  12.094   3.323
37192W        W 8721  23.645   9.831   2.378
37193W        W 8722  30.638   1.951   0.083
37194W        W 8723   2.905   8.329   4.386
37195W        W 8724  24.447  33.640   0.614
37196W        W 8725   3.421  14.566   5.168
37197W        W 8726  20.252  36.361   3.383
37198W        W 8727  37.195  37.279  14.661
37199W        W 8728  23.135  25.750   4.451
37200W        W 8729  28.216  17.398  11.955
37201W        W 8730  42.461  33.417  10.676
37202W        W 8731   2.738  25.138  10.807
37203W        W 8732  25.260  23.612  12.976
37204W        W 8733  44.187  23.263  13.792
37205W        W 8734   4.617  42.302  10.025
37206W        W 8735  18.102  35.637  13.197
37207W        W 8736  35.656   9.901  10.743
37208W        W 8737  37.225  31.201  10.217
37209W        W 8738  35.749  34.405  12.000
37210W        W 8739  13.843  31.644   3.560
37211W        W 8740  23.230  16.913  11.693
37212W        W 8741  25.414   3.126   1.330
37213W        W 8742  25.400  39.438   1.421
37214W        W 8743   3.375  35.157  14.390
37215W        W 8744  40.863   2.477   4.385
37216W        W 8745  44.393   5.312   4.122
37217W        W 8746   4.847  11.647  11.197
37218W        W 8747  36.816  19.787   3.941
37219W        W 8748   2.073  19.065  14.492
37220W        W 8749  16.099  20.015   1.314
37221W        W 8750  24.420  43.735   4.394
37222W        W 8751  31.991  13.004  11.236
37223W        W 8752  10.923  37.903  11.384
37224W        W 8753  32.414  17.765   0.779
37225W        W 8754  28.262  15.640   3.988
37226W        W 8755   5.261   8.178  11.947
37227W        W 8756  33.631  22.279   0.369
37228W        W 8757  25.289  30.461   1.539
37229W        W 8758  14.009   1.345   1.447
37230W        W 8759  43.340   1.728  10.936
37231W        W 8760  23.181  26.172   2.647
37232W        W 8761  41.206  31.468  12.340
37233W        W 8762  43.478  27.891  10.246
37234W        W 8763   2.833   8.093  14.784
37235W        W 8764   4.155  18.797   0.958
37236W        W 8765  44.733  35.597   1.119
37237W        W 8766  26.305  16.168  12.045
37238W        W 8767  14.561  15.794   5.099
37239W        W 8768  42.259   5.369  10.438
37240W        W 8769  43.825  40.752  12.623
37241W        W 8770  23.309  33.116  10.479
37242W        W 8771  18.545  32.166  14.496
37243W        W 8772  28.042  23.817   4.812
37244W        W 8773  14.875   4.897   4.713
37245W        W 8774   2.826   7.531  11.666
37246W        W 8775   5.914  44.055   2.294
37247W        W 8776  14.901  32.837  13.518
37248W        W 8777  44.519  21.327   4.160
37249W        W 8778   1.264  31.114  14.781
37250W        W 8779  10.431  43.270  10.534
37251W        W 8780  15.036  36.421   1.237
37252W        W 8781  21.214  42.414  13.012
37253W        W 8782   3.348  13.303  13.142
37254W        W 8783  25.692   3.369  10.746
37255W        W 8784  20.653   8.170  14.415
37256W        W 8785  14.843  44.341  13.484
37257W        W 8786  26.980  16.208  14.559
37258W        W 8787  44.313  38.961   4.091
37259W        W 8788  43.968   6.346   0.439
37260W        W 8789  26.886  42.481  11.854
37261W        W 8790   2.601  20.579   0.207
37262W        W 8791  36.007  35.699   2.195
37263W        W 8792  18.523  34.460   1.659
37264W        W 8793  29.693  44.752   4.356
37265W        W 8794  30.051   5.739   4.755
37266W        W 8795   7.262  42.011  12.094
37267W        W 8796  30.787  40.648   4.488
37268W        W 8797   2.872  41.140   2.868
37269W        W 8798   8.220  12.698   3.203
37270W        W 8799  12.913  17.813  12.440
37271W        W 8800   3.517   8.676   1.484
37272W        W 8801  25.304  27.466   0.725
37273W        W 8802   8.817  16.347  14.817
37274W        W 8803  39.382  21.934   3.284
37275W        W 8804  36.703  15.123   1.834
37276W        W 8805   5.261  28.717   3.408
37277W        W 8806  20.625  15.774  11.555
37278W        W 8807  34.936  42.786   4.539
37279W        W 8808  23.103  39.947   1.381
37280W        W 8809  28.186   2.344  10.230
37281W        W 8810  29.639  38.741   4.397
37282W        W 8811   4.900  18.167   3.306
37283W        W 8812  32.662  33.971  13.106
37284W        W 8813  11.764  33.461   2.621
37285W        W 8814  32.352  33.738   3.628
37286W        W 8815  32.268  26.812   3.696
37287W        W 8816  23.397  16.236   3.034
37288W        W 8817  28.387  17.343   3.666
37289W        W 8818  29.903  37.447  14.430
37290W        W 8819   8.006  37.495   4.665
37291W        W 8820  40.795  37.113   2.290
37292W        W 8821   9.376  18.232  11.128
37293W        W 8822  16.764  24.307   0.283
37294W        W 8823  22.191  37.635  11.238
37295W        W 8824  44.254  16.191   1.458
37296W        W 8825  18.304  11.620  12.001
37297W        W 8826  29.352  15.665   4.910
37298W        W 8827  14.326  30.061  14.898
37299W        W 8828   6.369  41.232   1.426
37300W        W 8829   1.200  31.027  13.910
37301W        W 8830  29.440  12.056   0.396
37302W        W 8831  23.737  12.598   4.513
37303W        W 8832   6.975   3.188   3.884
37304W        W 8833  35.090  26.700  14.867
37305W        W 8834  28.128  42.926   2.376
37306W        W 8835   5.376   8.340   2.725
37307W        W 8836  25.796   0.899   1.777
37308W        W 8837  37.980   1.311   0.418
37309W        W 8838  17.699  18.239   0.426
37310W        W 8839  18.081  38.950   2.908
37311W        W 8840  40.013  13.205   1.656
37312W        W 8841  14.100  16.168   0.248
37313W        W 8842   8.734  44.014  10.816
37314W        W 8843  16.645  40.359   1.465
37315W        W 8844  33.106  26.578  13.479
37316W        W 8845  40.715  28.832   2.274
37317W        W 8846  24.706  31.008   2.639
37318W        W 8847  11.867  29.746  11.088
37319W        W 8848  11.776  11.394   2.845
37320W        W 8849  20.073  31.808  12.477
37321W        W 8850  44.462   4.407   1.616
37322W        W 8851  32.544  40.735  14.686
37323W        W 8852   0.780  31.363   1.575
37324W        W 8853   5.218  24.377   0.512
37325W        W 8854  26.426  42.868   4.048
37326W        W 8855  11.149  11.287   0.350
37327W        W 8856  23.911  26.160  11.404
37328W        W 8857  34.318  25.528   4.001
37329W        W 8858  11.924  26.874  10.004
37330W        W 8859  36.134  33.572  11.613
37331W        W 8860  19.814  29.557   3.281
37332W        W 8861   6.914  42.179   1.771
37333W        W 8862  40.844  26.406   4.766
37334W        W 8863  23.644   1.207   0.029
37335W        W 8864  39.822   2.502   1.759
37336W        W 8865  36.142  11.897  10.588
37337W        W 8866   3.363   2.927  11.032
37338W        W 8867  37.398  42.176  14.447
37339W        W 8868  26.423  36.393  10.691
37340W        W 8869  41.505  34.513  12.595
37341W        W 8870  42.822  10.129   5.385
37342W        W 8871  19.003  19.719  13.166
37343W        W 8872  35.158   3.551   2.783
37344W        W 8873   3.791  35.692   4.613
37345W        W 8874   4.693  23.454  11.004
37346W        W 8875  29.872  22.979  13.856
37347W        W 8876  21.480   2.185   1.521
37348W        W 8877  33.491  11.372  13.872
37349W        W 8878  36.540   6.731   2.678
37350W        W 8879  27.677  44.428   1.430
37351W        W 8880   4.360   7.110  12.087
37352W        W 8881  15.018  26.547   3.155
37353W        W 8882   2.477  11.128   1.473
37354W        W 8883   9.640  29.826   1.230
37355W        W 8884  32.087  24.181  10.797
37356W        W 8885  40.459  29.541  14.553
37357W        W 8886  36.172  43.803   2.121
37358W        W 8887  40.893   3.421  10.776
37359W        W 8888   3.956   7.893  12.045
37360W        W 8889  43.904  39.916   1.381
37361W        W 8890  37.843  40.929   2.813
37362W        W 8891  28.092   4.511   0.119
37363W        W 8892   6.280  17.605  11.162
37364W        W 8893  11.733  22.145   4.667
37365W        W 8894  33.644  13.720   4.313
37366W        W 8895  10.671  10.424  12.863
37367W        W 8896  18.833  39.353   1.681
37368W        W 8897  31.996  37.006   3.579
37369W        W 8898  26.658  26.140  12.955
37370W        W 8899   8.707  12.831  13.956
37371W        W 8900  11.777  11.094  13.920
37372W        W 8901  40.317  23.775   1.836
37373W        W 8902  13.174  10.617   3.883
37374W        W 8903   9.178  28.401   2.246
37375W        W 8904  21.105  29.441   3.537
37376W        W 8905  12.956  15.351  11.492
37377W        W 8906   5.851   2.093   4.709
37378W        W 8907  44.966   2.390   2.237
37379W        W 8908  38.886   7.980  13.959
37380W        W 8909  41.296  17.728  11.138
37381W        W 8910  40.024  25.388  14.307
37382W        W 8911  32.528  11.895  10.772
37383W        W 8912  18.070  34.367   3.131
37384W        W 8913  30.487   9.672  14.491
37385W        W 8914  34.563  30.378   3.065
37386W        W 8915   5.737  20.352   5.143
37387W        W 8916  22.230   7.597  14.924
37388W        W 8917  23.551  25.485  11.132
37389W        W 8918  35.453   7.344   4.603
37390W        W 8919   3.683  39.857   4.343
37391W        W 8920  37.890  40.558  11.296
37392W        W 8921  31.597   7.734   0.462
37393W        W 8922   8.595  11.081   0.889
37394W        W 8923  34.368  20.992  12.317
37395W        W 8924  37.359  23.046   3.157
37396W        W 8925  34.862  37.442  12.920
37397W        W 8926  13.150  17.662  12.015
37398W        W 8927  13.216  30.460  13.513
37399W        W 8928  23.660  24.016  10.691
37400W        W 8929  14.227   5.826   3.601
37401W        W 8930  21.704  36.373   4.360
37402W        W 8931  10.025   4.645   3.119
37403W        W 8932  10.630  32.029   1.991
37404W        W 8933   1.107  41.838  12.481
37405W        W 8934   5.735  10.669  14.476
37406W        W 8935  31.500  12.116   4.097
37407W        W 8936   8.208  30.518  10.957
37408W        W 8937  18.903  12.846  14.314
37409W        W 8938   4.087  11.241   0.738
37410W        W 8939  13.772  27.727   0.108
37411W        W 8940  17.608  19.752   2.754
37412W        W 8941   9.247  41.082  13.523
37413W        W 8942  28.473  33.948   4.115
37414W        W 8943  12.255   9.571   1.923
37415W        W 8944   7.903   6.799   2.301
37416W        W 8945  16.725  43.710  12.521
37417W        W 8946  22.508  43.414  11.933
37418W        W 8947  40.444  36.584   3.757
37419W        W 8948   5.923   6.690   1.706
37420W        W 8949  37.417  18.051   0.353
37421W        W 8950  39.318  31.923  10.754
37422W        W 8951  40.261  16.129   1.455
37423W        W 8952  44.091  42.934  11.543
37424W        W 8953  33.516  17.074   0.907
37425W        W 8954  20.039  10.711  11.570
37426W        W 8955   3.328  21.150   1.320
37427W        W 8956  38.055   0.297   2.937
37428W        W 8957  42.378   7.673   4.188
37429W        W 8958  14.136  33.978   1.298
37430W        W 8959  43.893  23.994   0.265
37431W        W 8960   1.604  28.060   1.498
37432W        W 8961  25.931  22.578  14.740
37433W        W 8962  38.785  31.510  11.767
37434W        W 8963   2.432   8.111   2.695
37435W        W 8964  27.560  11.748   4.355
37436W        W 8965   1.938  17.055   4.602
37437W        W 8966   6.671   2.216   3.701
37438W        W 8967   1.164  25.922  13.376
37439W        W 8968  24.562  10.313   0.453
37440W        W 8969   5.938  19.587   1.711
37441W        W 8970   6.115   2.454   0.653
37442W        W 8971  14.038   0.950   4.596
37443W        W 8972  24.030  10.851  14.017
37444W        W 8973  15.612  32.463  10.753
37445W        W 8974  28.823  15.043   0.753
37446W        W 8975  42.371  38.411  14.276
37447W        W 8976  20.643   5.465   1.212
37448W        W 8977  18.061  37.282  13.489
37449W        W 8978   8.729  23.942   1.840
37450W        W 8979   0.949  23.002   1.504
37451W        W 8980   7.847  29.384   0.833
37452W        W 8981   3.007  18.033  11.967
37453W        W 8982  12.340  36.662  11.700
37454W        W 8983  11.595  18.992   2.000
37455W        W 8984  36.814  33.388  11.157
37456W        W 8985  26.168   7.096   1.405
37457W        W 8986  11.046  38.427   2.260
37458W        W 8987  11.315  33.468   0.265
37459W        W 8988  26.004  16.466   3.675
37460W        W 8989  12.823  16.581   3.347
37461W        W 8990   0.034   2.376   1.405
37462W        W 8991  25.615  19.008  10.395
37463W        W 8992  25.549  13.821   2.735
37464W        W 8993   1.307  40.250  11.943
37465W        W 8994  26.091  18.773  13.427
37466W        W 8995  22.292  20.056   2.221
37467W        W 8996  30.218  37.502   3.978
37468W        W 8997  26.544  38.906   0.229
37469W        W 8998  30.684  42.340  11.983
37470W        W 8999   6.718  40.860   3.934
37471W        W 9000  42.599  35.507  11.675
37472W        W 9001  21.497   0.988   2.899
37473W        W 9002  10.000  18.293   1.260
37474W        W 9003  25.804  38.294  10.672
37475W        W 9004   2.251  42.592  13.674
37476W        W 9005  21.085  18.798  13.499
37477W        W 9006  36.608  29.208  13.042
37478W        W 9007  39.988  17.774  11.420
37479W        W 9008  40.889  39.840   2.962
37480W        W 9009  39.032  20.064   0.449
37481W        W 9010  31.629   1.396  13.228
37482W        W 9011  28.052  29.591   1.306
37483W        W 9012  21.262  12.163   2.240
37484W        W 9013  40.292  40.564   4.229
37485W        W 9014  16.700  29.588  12.974
37486W        W 9015  29.126  16.390  14.799
37487W        W 9016  10.929  18.019  11.311
37488W        W 9017  19.254  20.949   2.097
37489W        W 9018  32.683  37.138  13.381
37490W        W 9019  23.577  44.759  14.495
37491W        W 9020  38.412  43.841  13.652
37492W        W 9021  10.325  23.988  12.384
37493W        W 9022  42.365  26.296   1.050
37494W        W 9023  30.144  43.561   4.603
37495W        W 9024  37.314  39.422   0.990
37496W        W 9025  32.889  35.574  14.821
37497W        W 9026  44.018  34.407   0.021
37498W        W 9027  34.358   0.488   2.658
37499W        W 9028  32.911   8.157   4.920
37500W        W 9029  28.955  24.717  11.166
37501W        W 9030  23.965   4.333   3.309
37502W        W 9031   3.941  22.101   0.447
37503W        W 9032  28.919  44.479  11.300
37504W        W 9033  30.894  16.404  11.125
37505W        W 9034  44.426  15.842   2.816
37506W        W 9035  40.044  30.060  11.879
37507W        W 9036  14.658   4.952   2.337
37508W        W 9037  18.333  17.872  11.002
37509W        W 9038  17.233  23.220   3.607
37510W        W 9039   1.432  10.782   0.490
37511W        W 9040  22.596  42.734   0.425
37512W        W 9041  26.467  40.879  12.416
37513W        W 9042  13.333  43.296   1.413
37514W        W 9043   7.713  37.971   2.062
37515W        W 9044  41.560  34.420  11.918
37516W        W 9045  29.010  28.153   3.955
37517W        W 9046  43.320  15.604  13.955
37518W        W 9047   0.680  28.883   3.960
37519W        W 9048   4.222  44.710  10.544
37520W        W 9049  40.080   4.288  11.731
37521W        W 9050  39.507  33.980  12.888
37522W        W 9051  39.565  19.767  14.645
37523W        W 9052  39.047  27.166   3.126
37524W        W 9053  29.473  27.033  12.079
37525W        W 9054   0.353  21.759  13.153
37526W        W 9055  39.996  15.867   4.774
37527W        W 9056  38.771  36.771   1.563
37528W        W 9057  33.471  19.621   3.235
37529W        W 9058  20.243  20.240   2.935
37530W        W 9059  23.178  31.032  14.194
37531W        W 9060  31.930  24.747   0.015
37532W        W 9061  42.815  34.392   4.517
37533W        W 9062  44.377   0.161   3.343
37534W        W 9063  13.336  19.707  10.822
37535W        W 9064  20.220  43.512   3.242
37536W        W 9065  32.376  21.266   2.325
37537W        W 9066  44.984  42.647   4.167
37538W        W 9067  20.502  14.823  10.785
37539W        W 9068  17.657  10.636  12.493
37540W        W 9069  44.449  31.329  12.519
37541W        W 9070  41.400  27.057   1.151
37542W        W 9071  13.873  15.303  13.023
37543W        W 9072  38.899  32.126   4.203
37544W        W 9073  13.263  18.190   2.883
37545W        W 9074  23.698   7.215  13.324
37546W        W 9075  22.227   5.660   4.197
37547W        W 9076   3.682  17.198  11.437
37548W        W 9077  27.798  13.425  13.903
37549W        W 9078  17.004  24.733  14.721
37550W        W 9079   7.248  40.639   4.557
37551W        W 9080  38.764  26.447  14.250
37552W        W 9081  38.571  37.464   0.224
37553W        W 9082   8.599   7.062  14.660
37554W        W 9083  36.755   9.342   0.939
37555W        W 9084  22.580  10.173   1.431
37556W        W 9085  15.052   7.296   3.576
37557W        W 9086  30.580  32.402   4.741
37558W        W 9087  21.815  29.028   2.625
37559W        W 9088  14.850  34.407  11.201
37560W        W 9089  33.550  22.095  14.872
37561W        W 9090  19.136   7.246   4.792
37562W        W 9091  17.466   0.456   2.171
37563W        W 9092  34.924  34.916  12.076
37564W        W 9093  28.406  22.670   1.070
37565W        W 9094  21.703   0.950   2.002
37566W        W 9095  40.265  41.301  14.429
37567W        W 9096  10.289  13.666   2.708
37568W        W 9097  33.462  42.959  14.036
37569W        W 9098  17.473  10.058   4.566
37570W        W 9099  29.125  34.185  13.879
37571W        W 9100   4.579   2.659  13.469
37572W        W 9101  13.777  40.353  14.465
37573W        W 9102  19.947  25.674   1.356
37574W        W 9103   8.143  32.931  13.439
37575W        W 9104  27.184  15.132  11.006
37576W        W 9105   8.052  34.956  11.115
37577W        W 9106  23.698  14.773   4.390
37578W        W 9107  39.334  35.255  14.486
37579W        W 9108  32.040  30.458   1.831
37580W        W 9109  28.356  33.581  12.060
37581W        W 9110  20.066  26.541  11.636
37582W        W 9111  18.116  29.101  10.781
37583W        W 9112  10.466  24.496   1.042
37584W        W 9113   7.356   6.627   1.424
37585W        W 9114  18.595  39.483  10.742
37586W        W 9115  26.522  41.020  13.344
37587W        W 9116  13.656  42.490   2.644
37588W        W 9117   8.173  28.554  13.893
37589W        W 9118  40.852  26.064   2.251
37590W        W 9119  21.099  11.717   3.239
37591W        W 9120  19.116   6.637   3.318
37592W        W 9121   0.251  19.766  14.297
37593W        W 9122  39.247  12.309   2.747
37594W        W 9123  38.865  19.823  11.537
37595W        W 9124  18.662  25.062  10.167
37596W        W 9125   4.471   2.027   3.690
37597W        W 9126   9.434  42.739   2.784
37598W        W 9127  18.002   9.157   2.825
37599W        W 9128  28.519   6.426   3.805
37600W        W 9129   0.777  15.068   4.265
37601W        W 9130  13.136   8.645   0.519
37602W        W 9131   8.450  30.025  11.154
37603W        W 9132  36.851  31.111   3.789
37604W        W 9133  18.781  34.194   4.136
37605W        W 9134   7.891  17.512   1.265
37606W        W 9135  26.961  37.596  13.066
37607W        W 9136  44.727  43.776  11.915
37608W        W 9137  30.217  17.107   4.816
37609W        W 9138  10.546  24.015   0.143
37610W        W 9139  16.598   4.360  12.552
37611W        W 9140  10.349  31.611  11.108
37612W        W 9141   8.826   4.435   4.876
37613W        W 9142  19.008  31.353  11.616
37614W        W 9143  10.178  29.859  11.529
37615W        W 9144   1.741   8.383   4.706
37616W        W 9145   3.986   4.188   0.418
37617W        W 9146  32.462  43.577  13.909
37618W        W 9147   3.986  37.003  11.229
37619W        W 9148  13.695  18.752   4.882
37620W        W 9149  27.552   8.360   4.139
37621W        W 9150   2.673  41.471  13.052
37622W        W 9151  11.309  28.502  12.100
37623W        W 9152  35.913  17.169   0.201
37624W        W 9153  39.330  40.113  12.524
37625W        W 9154   9.861   1.511   4.568
37626W        W 9155   3.427  21.943  10.610
37627W        W 9156  36.063  18.044   4.038
37628W        W 9157  37.564  11.880  12.639
37629W        W 9158  20.265  12.301   0.939
37630W        W 9159  26.397  18.064   4.546
37631W        W 9160  28.941  33.349  11.650
37632W        W 9161  16.075  36.786   1.864
37633W        W 9162   4.705  40.385   1.895
37634W        W 9163   6.292  18.337  12.397
37635W        W 9164   9.615   7.827   0.653
37636W        W 9165  43.966  20.976  10.920
37637W        W 9166  44.885   7.828   3.092
37638W        W 9167  41.981  25.091  13.380
37639W        W 9168  11.286  40.050   2.814
37640W        W 9169  23.519  35.937  13.056
37641W        W 9170   1.469  11.263  11.373
37642W        W 9171  10.637   5.718  12.006
37643W        W 9172  41.612  43.769  14.744
37644W        W 9173  42.484  29.049  11.520
37645W        W 9174  18.771  29.946  13.653
37646W        W 9175  33.990  44.336   0.745
37647W        W 9176  25.984   9.404   4.177
37648W        W 9177  31.006  24.157  10.973
37649W        W 9178  38.954   4.776   2.711
37650W        W 9179   3.784   3.397  11.793
37651W        W 9180  42.045  24.545  10.921
37652W        W 9181  21.462  15.306   1.522
37653W        W 9182  10.248  22.240  13.095
37654W        W 9183  10.703   7.685   0.744
37655W        W 9184   9.786  28.406   0.002
37656W        W 9185  30.437  36.155   0.845
37657W        W 9186  11.701  23.555  14.941
37658W        W 9187  22.828  10.842   3.175
37659W        W 9188  39.420  42.083  11.974
37660W        W 9189   3.923   6.779  11.168
37661W        W 9190   3.354  30.378  14.884
37662W        W 9191   8.269  42.230   3.112
37663W        W 9192   0.428  26.741   0.187
37664W        W 9193  20.133  37.066  12.936
37665W        W 9194   7.646   9.649  12.902
37666W        W 9195  42.052  34.791   5.025
37667W        W 9196  21.915  36.532  12.464
37668W        W 9197   4.125  15.687  11.988
37669W        W 9198  27.520  25.561  12.027
37670W        W 9199  37.068   3.520  12.668
37671W        W 9200  34.415  20.082  10.597
37672W        W 9201   3.037  15.373   4.054
37673W        W 9202   9.217  12.302  14.421
37674W        W 9203   1.943  40.289   0.287
37675W        W 9204  36.055  17.661   0.123
37676W        W 9205  11.299  40.057   0.048
37677W        W 9206  33.604  26.088   4.009
37678W        W 9207  37.374  22.009   0.268
37679W        W 9208  34.780  35.500   2.885
37680W        W 9209  20.279   9.367  12.785
37681W        W 9210  43.297   6.103  14.943
37682W        W 9211  28.905  27.661   3.244
37683W        W 9212  29.845  15.555   4.139
37684W        W 9213  24.685  19.466  14.492
37685W        W 9214  32.119  39.087   0.359
37686W        W 9215  10.368   3.080  12.995
37687W        W 9216  14.075  34.699  11.434
37688W        W 9217  29.129   6.676  10.678
37689W        W 9218  34.199   2.888   1.661
37690W        W 9219  13.282  15.714  11.332
37691W        W 9220  36.907  16.701   0.859
37692W        W 9221   7.296  21.067  11.419
37693W        W 9222   4.156  41.905   3.735
37694W        W 9223  29.094  13.270  12.119
37695W        W 9224  39.926  33.399  11.379
37696W        W 9225  36.335  41.510   5.027
37697W        W 9226  42.875   7.008  10.629
37698W        W 9227   8.188  23.567  10.870
37699W        W 9228  24.719  24.361   3.028
37700W        W 9229  27.620   8.842   4.418
37701W        W 9230  14.003   5.442  14.455
37702W        W 9231  23.578  37.832   2.408
37703W        W 9232   2.270  27.374  11.085
37704W        W 9233  42.790  12.042   3.788
37705W        W 9234  10.856   2.340   0.514
37706W        W 9235   0.316  37.656  14.532
37707W        W 9236  11.856   8.255  13.477
37708W        W 9237  15.135   3.021   0.326
37709W        W 9238  10.388  32.123  14.230
37710W        W 9239  38.271  37.154  12.724
37711W        W 9240  39.304   9.893  10.772
37712W        W 9241  21.853  22.474   4.136
37713W        W 9242  12.383  26.934   4.146
37714W        W 9243  40.689  31.372   0.893
37715W        W 9244  30.806  32.446  12.408
37716W        W 9245  27.894  20.517   4.114
37717W        W 9246   6.296  40.650   3.193
37718W        W 9247  28.904  33.622  12.082
37719W        W 9248  38.334   5.472   0.621
37720W        W 9249   6.812  29.193  14.784
37721W        W 9250  27.176  32.493  11.880
37722W        W 9251  28.674  30.746  11.781
37723W        W 9252  28.917   7.256   1.652
37724W        W 9253  20.002   1.795  13.981
37725W        W 9254  27.395  34.524  12.015
37726W        W 9255  37.409  19.103  12.878
37727W        W 9256   6.417  13.410   1.380
37728W        W 9257  32.046   6.499   3.031
37729W        W 9258  18.683  20.786  12.984
37730W        W 9259   5.067  25.457   0.270
37731W        W 9260  15.208   0.224  14.820
37732W        W 9261  27.742   9.240  13.735
37733W        W 9262   7.732  40.465   3.115
37734W        W 9263  32.062  18.079   0.431
37735W        W 9264  20.502  36.414   0.732
37736W        W 9265  33.536   7.187   1.761
37737W        W 9266  24.638  14.706  10.661
37738W        W 9267   4.529   3.911   3.361
37739W        W 9268  31.068  41.173  11.557
37740W        W 9269   5.575  29.010  14.315
37741W        W 9270   6.155  41.283  12.570
37742W        W 9271  21.729   3.718   2.912
37743W        W 9272  23.965   0.511   1.820
37744W        W 9273  10.282  30.976  13.425
37745W        W 9274  29.835  24.991  13.825
37746W        W 9275  30.733   0.886   0.205
37747W        W 9276  33.850  17.766   0.831
37748W        W 9277  37.255  19.653  10.339
37749W        W 9278  15.485  25.484   2.217
37750W        W 9279  19.030  26.589   1.711
37751W        W 9280  25.402  29.834  11.040
37752W        W 9281  34.873  12.627   0.339
37753W        W 9282   0.847  35.540   2.345
37754W        W 9283  22.554  24.235  13.757
37755W        W 9284   3.974  15.617   0.851
37756W        W 9285  44.799  28.932  12.921
37757W        W 9286  41.590  28.462  13.100
37758W        W 9287  18.797  25.468   2.393
37759W        W 9288   3.211  42.456  14.384
37760W        W 9289  32.156  32.396   3.833
37761W        W 9290  33.061  24.941   2.609
37762W        W 9291  29.100   9.346   0.009
37763W        W 9292  18.274  21.576   4.669
37764W        W 9293   9.075  35.734   2.920
37765W        W 9294  42.493  23.651   4.004
37766W        W 9295  33.513  28.932   4.175
37767W        W 9296  36.709   9.591   1.880
37768W        W 9297  28.455   2.280   4.144
37769W        W 9298   8.891  30.866   3.529
37770W        W 9299  27.634  18.077  14.014
37771W        W 9300  17.040  10.887   1.257
37772W        W 9301  34.331  35.465  13.415
37773W        W 9302  30.336  17.082  12.385
37774W        W 9303  20.557   7.379  13.538
37775W        W 9304  23.896  34.902   0.709
37776W        W 9305  31.313  27.520  13.223
37777W        W 9306  34.396  26.017   3.864
37778W        W 9307  25.930  18.458  13.839
37779W        W 9308  40.097  29.514  11.145
37780W        W 9309   5.990   3.432   0.360
37781W        W 9310  44.485  31.511  10.795
37782W        W 9311  18.831  21.562  13.527
37783W        W 9312  16.537  24.537  11.643
37784W        W 9313  44.943  41.376   4.223
37785W        W 9314   0.189  23.695  11.117
37786W        W 9315  22.090   5.951   0.067
37787W        W 9316  28.098  17.876  12.031
37788W        W 9317  44.235   2.881   2.644
37789W        W 9318  34.488  27.316   0.864
37790W        W 9319  34.585  17.833   2.121
37791W        W 9320  15.047  39.620  14.107
37792W        W 9321  40.330  21.635  13.916
37793W        W 9322  41.373  35.338  13.439
37794W        W 9323   9.871  10.742  13.957
37795W        W 9324  23.094  20.808  11.095
37796W        W 9325  43.470  12.195  14.017
37797W        W 9326   5.396  23.128  13.991
37798W        W 9327  26.713  29.932   4.256
37799W        W 9328  12.614  27.559   0.817
37800W        W 9329  17.120   5.845  13.897
37801W        W 9330  41.164  38.094   3.749
37802W        W 9331  20.149  24.952  13.984
37803W        W 9332  31.614  19.317   1.671
37804W        W 9333   4.799  22.520  14.271
37805W        W 9334   1.806  22.314  11.069
37806W        W 9335  27.578  42.717   3.240
37807W        W 9336  26.495  17.076  14.003
37808W        W 9337  26.256  32.945   0.836
37809W        W 9338  43.795  21.587  12.558
37810W        W 9339   9.986   7.789  13.363
37811W        W 9340  18.685  15.411   0.777
37812W        W 9341  43.312  43.843  11.219
37813W        W 9342  38.426  19.547   1.265
37814W        W 9343  20.626  29.256   4.222
37815W        W 9344  25.679  18.231   0.436
37816W        W 9345  29.528  29.527   0.222
37817W        W 9346   9.604  21.574   0.053
37818W        W 9347   3.028  39.586   2.719
37819W        W 9348  33.212  42.362   0.199
37820W        W 9349   6.677  33.966  13.004
37821W        W 9350  44.466   2.710   0.842
37822W        W 9351  22.372  34.963  10.794
37823W        W 9352  24.198   3.788  13.584
37824W        W 9353  28.415  22.626   2.157
37825W        W 9354  27.424  33.007  10.683
37826W        W 9355  14.696  16.238  10.734
37827W        W 9356  43.554  29.224  12.296
37828W        W 9357  27.696  15.067  14.505
37829W        W 9358  33.886  38.461   2.941
37830W        W 9359  38.354  37.064   1.446
37831W        W 9360  15.336  24.594  13.366
37832W        W 9361  36.187  26.546   3.754
37833W        W 9362  19.570  33.513  12.674
37834W        W 9363  25.170  40.177   3.222
37835W        W 9364  13.117   5.968  12.078
37836W        W 9365  13.151   3.102  11.558
37837W        W 9366  23.450   5.278   0.902
37838W        W 9367   3.190   5.981  13.394
37839W        W 9368  27.776  10.700  14.423
37840W        W 9369  19.557   6.301  13.458
37841W        W 9370  30.858  17.178  13.747
37842W        W 9371  14.734   3.889  14.559
37843W        W 9372  17.170  13.214   2.842
37844W        W 9373  16.749   2.845  10.610
37845W        W 9374   6.158  13.204  11.480
37846W        W 9375  21.549   5.469   1.340
37847W        W 9376   8.234   1.398   3.776
37848W        W 9377  21.123  21.418  14.249
37849W        W 9378  32.587  21.605  14.408
37850W        W 9379  31.632   7.403   4.202
37851W        W 9380  34.121  17.508  12.443
37852W        W 9381   0.791   6.387   1.302
37853W        W 9382  15.921  10.157  12.386
37854W        W 9383   9.762  19.468   0.535
37855W        W 9384  25.740  37.840   1.683
37856W        W 9385   9.887  13.787   1.240
37857W        W 9386  23.711  10.089   3.590
37858W        W 9387  15.047  14.288   0.445
37859W        W 9388  44.204  14.646   3.259
37860W        W 9389   2.814   2.363   3.233
37861W        W 9390   6.217  21.939   1.882
37862W        W 9391  11.196  14.223   4.659
37863W        W 9392  17.996  41.893   1.112
37864W        W 9393  18.071  32.803   0.278
37865W        W 9394  17.597  15.312  10.788
37866W        W 9395  24.218  35.839  10.767
37867W        W 9396   7.336   7.856  11.615
37868W        W 9397   6.207   5.442  11.952
37869W        W 9398  36.948  18.258  14.289
37870W        W 9399  37.091  30.949   4.226
37871W        W 9400  30.661  40.284   3.590
37872W        W 9401   7.570   0.756  13.789
37873W        W 9402  14.702  44.991  14.882
37874W        W 9403  34.992  35.322   3.874
37875W        W 9404   2.768  29.685   3.405
37876W        W 9405   9.108  28.033   1.878
37877W        W 9406  21.987  40.659  11.871
37878W        W 9407  39.984   8.682  12.162
37879W        W 9408   5.956   1.855  14.110
37880W        W 9409  18.589   3.779  13.837
37881W        W 9410   9.260  43.431  14.785
37882W        W 9411  15.828  35.971   1.347
37883W        W 9412  36.549  12.715   0.221
37884W        W 9413   4.138  12.357  14.297
37885W        W 9414  15.501  19.954   4.286
37886W        W 9415  23.065  42.553   0.327
37887W        W 9416  35.813   4.339  11.213
37888W        W 9417  34.231   1.011   0.020
37889W        W 9418  26.627   2.694  13.528
37890W        W 9419   6.227  44.460  11.212
37891W        W 9420   5.739  13.366   3.017
37892W        W 9421  10.933  26.121   2.372
37893W        W 9422  35.320   8.420  13.026
37894W        W 9423  40.383   0.480   1.687
37895W        W 9424  17.210   4.443  12.199
37896W        W 9425   9.441  18.466  12.385
37897W        W 9426  41.243  33.598  11.622
37898W        W 9427  11.369  13.592   1.840
37899W        W 9428  16.924  38.360  13.509
37900W        W 9429  37.343  22.564   0.281
37901W        W 9430  15.644  25.361  10.335
37902W        W 9431   5.110  22.805  12.444
37903W        W 9432  37.446  29.195   1.742
37904W        W 9433  35.471   1.170  12.271
37905W        W 9434  43.176  33.105   1.685
37906W        W 9435   4.738  28.138  12.477
37907W        W 9436  24.116  10.229   1.716
37908W        W 9437   9.431  12.845   0.102
37909W        W 9438   0.259  35.017  14.007
37910W        W 9439  20.109  17.867  14.863
37911W        W 9440   3.783  11.210  13.414
37912W        W 9441  11.855   0.590   3.346
37913W        W 9442   9.670  30.104  12.939
37914W        W 9443  41.822  41.399  13.183
37915W        W 9444   3.121  42.145   3.748
37916W        W 9445  44.503  15.173   2.445
37917W        W 9446  19.082   6.055   0.866
37918W        W 9447  18.576   0.003   3.760
37919W        W 9448  20.279   6.230   0.472
37920W        W 9449  44.492  32.884  12.535
37921W        W 9450   5.759  33.772  11.471
37922W        W 9451  29.127  40.458   1.528
37923W        W 9452  10.195   8.309   4.743
37924W        W 9453  19.258  17.289  13.356
37925W        W 9454  35.923  14.378   3.665
37926W        W 9455  40.339  34.945  11.060
37927W        W 9456  36.538   9.850  14.827
37928W        W 9457  43.497   9.245   3.746
37929W        W 9458   4.351  13.072   1.895
37930W        W 9459  19.487   9.314  12.974
37931W        W 9460  23.778  13.632  14.838
37932W        W 9461  43.219  14.689   3.226
37933W        W 9462  21.515  10.850   2.301
37934W        W 9463  44.826  15.431   1.980
37935W        W 9464   8.861  29.684  11.247
37936W        W 9465  29.271  25.894  13.478
37937W        W 9466  37.545  27.540  10.981
37938W        W 9467  36.085  13.233   3.102
37939W        W 9468  11.719  12.586   1.414
37940W        W 9469   7.772   9.419   1.467
37941W        W 9470   7.896   5.241   4.703
37942W        W 9471  44.214  17.740  12.368
37943W        W 9472  31.573  42.638   1.759
37944W        W 9473  41.987   4.486   1.265
37945W        W 9474  28.295   2.184   3.234
37946W        W 9475  18.517  14.692   2.239
37947W        W 9476  14.832  39.835  14.774
37948W        W 9477  42.031  26.158   0.283
37949W        W 9478   4.461   1.904   4.581
37950W        W 9479   4.409  39.396   1.704
37951W        W 9480   8.850   3.368   0.445
37952W        W 9481  20.084  31.327  13.329
37953W        W 9482  25.005  11.123   2.727
37954W        W 9483  14.101  29.971  13.385
37955W        W 9484  36.819   7.308  14.561
37956W        W 9485  19.574  25.508   4.388
37957W        W 9486  28.112   8.672   0.436
37958W        W 9487  36.019  21.938  12.298
37959W        W 9488   4.410  38.552  13.060
37960W        W 9489   4.689  40.929  14.761
37961W        W 9490  29.504   4.230  14.873
37962W        W 9491  26.975  44.862   1.187
37963W        W 9492  44.439  13.736  14.487
37964W        W 9493   9.876  36.548  11.662
37965W        W 9494  25.179  43.693  14.408
37966W        W 9495  30.912  18.191   4.955
37967W        W 9496   6.460  43.319   4.535
37968W        W 9497  35.062  40.830  14.316
37969W        W 9498  27.491  33.680  11.351
37970W        W 9499  19.087  30.938  14.445
37971W        W 9500  31.952   8.415   3.427
37972W        W 9501  36.404   0.767   3.736
37973W        W 9502   1.845  35.492   2.827
37974W        W 9503  40.211  22.742   4.022
37975W        W 9504  33.663  21.487  12.022
37976W        W 9505  16.008  22.576  11.148
37977W        W 9506  22.168  22.176  14.955
37978W        W 9507   8.383  14.529   2.654
37979W        W 9508  30.636  41.811  11.866
37980W        W 9509   5.799  10.091   4.710
37981W        W 9510  16.891  23.039   4.591
37982W        W 9511  15.346  34.600   3.334
37983W        W 9512   5.524   5.526   3.709
37984W        W 9513  39.242  43.038  12.849
37985W        W 9514  11.833  22.983  11.143
37986W        W 9515  40.271  39.057   0.236
37987W        W 9516  31.104  24.119   0.381
37988W        W 9517  19.626  35.301   0.327
37989W        W 9518   6.794   1.191  11.973
37990W        W 9519  35.534  42.068   4.070
37991W        W 9520  15.741   1.296   1.610
37992W        W 9521   7.180  41.884  11.012
37993W        W 9522  38.739   6.687  11.060
37994W        W 9523  43.012  12.721   1.695
37995W        W 9524  11.675  35.550   4.085
37996W        W 9525  26.137  43.795  11.017
37997W        W 9526  22.183  13.683  13.786
37998W        W 9527  23.078  13.079   2.268
37999W        W 9528  19.143  37.057  12.411
38000W        W 9529  21.330  43.447   4.525
38001W        W 9530   3.757  22.598  11.551
38002W        W 9531  39.751  15.190   4.016
38003W        W 9532  13.336   9.885   3.194
38004W        W 9533  38.058  17.041   4.348
38005W        W 9534  25.622  25.277   4.847
38006W        W 9535  14.746  10.079   0.196
38007W        W 9536  10.294  29.544  11.131
38008W        W 9537  27.147  15.787  14.235
38009W        W 9538  43.019  34.037   0.808
38010W        W 9539   3.428  41.957  14.321
38011W        W 9540  19.538  13.759   3.796
38012W        W 9541  16.374   1.512  13.285
38013W        W 9542  25.397  13.902   5.031
38014W        W 9543   1.854   9.297  14.103
38015W        W 9544  42.975   1.028  12.171
38016W        W 9545  41.705  43.702  11.847
38017W        W 9546   1.546  21.279  12.601
38018W        W 9547  24.453   9.194  14.001
38019W        W 9548   2.324  30.540   0.924
38020W        W 9549  29.585  37.686  11.566
38021W        W 9550  37.554   4.301   3.228
38022W        W 9551   1.387  30.120   2.316
38023W        W 9552  29.333  17.947   4.980
38024W        W 9553  26.056  23.996  12.067
38025W        W 9554  20.926  18.088  12.457
38026W        W 9555  41.967  14.861   1.208
38027W        W 9556  10.421   7.813  14.312
38028W        W 9557  33.268   4.460  10.747
38029W        W 9558   7.134  22.032   2.693
38030W        W 9559  40.891  30.280   2.584
38031W        W 9560  43.025  29.137  12.406
38032W        W 9561  34.986  29.038  11.693
38033W        W 9562  30.874  40.283  14.801
38034W        W 9563  33.389  11.367   1.943
38035W        W 9564  30.099  31.153   4.367
38036W        W 9565  28.628  41.790  11.110
38037W        W 9566   6.762  37.059   2.045
38038W        W 9567  40.533   9.384   2.279
38039W        W 9568  30.472  36.341   4.600
38040W        W 9569  33.891  23.512  12.797
38041W        W 9570   5.952  44.396  13.578
38042W        W 9571  29.643  41.727  12.824
38043W        W 9572  37.841  22.155   3.208
38044W        W 9573  37.092  15.817  11.614
38045W        W 9574  16.055  17.639  14.441
38046W        W 9575  17.302  31.583   2.120
38047W        W 9576  26.112  23.301  14.744
38048W        W 9577  12.901   8.651  14.662
38049W        W 9578   8.840   5.910  12.513
38050W        W 9579  33.588  29.665   3.264
38051W        W 9580   9.683  35.523  13.987
38052W        W 9581  21.601  34.484  14.550
38053W        W 9582   0.683   3.267   4.633
38054W        W 9583  12.515  31.673   3.098
38055W        W 9584  29.845  10.185   2.151
38056W        W 9585  13.793  15.393   0.459
38057W        W 9586  20.614  41.975  12.639
38058W        W 9587  40.211   8.077   2.644
38059W        W 9588  20.595   3.329   4.293
38060W        W 9589  15.046  23.732  11.862
38061W        W 9590   3.324  24.148  11.644
38062W        W 9591  44.270   5.781  12.789
38063W        W 9592  35.852  11.668  13.414
38064W        W 9593  31.766  21.552  12.903
38065W        W 9594   7.912  13.114   3.601
38066W        W 9595  27.559   7.892  12.645
38067W        W 9596  31.236  30.933   2.150
38068W        W 9597  10.719  25.406   1.757
38069W        W 9598   2.455  21.634  10.575
38070W        W 9599  33.557   6.156  13.080
38071W        W 9600  12.397  30.456  12.372
38072W        W 9601  34.676  21.018   3.159
38073W        W 9602  35.386  28.941  12.621
38074W        W 9603  44.890  38.466   0.793
38075W        W 9604  14.374  30.558  11.228
38076W        W 9605  16.121  14.569  14.882
38077W        W 9606  12.092  42.236  11.595
38078W        W 9607   0.848  27.570   1.785
38079W        W 9608  17.948   0.760  12.432
38080W        W 9609  27.034  16.194   3.810
38081W        W 9610   0.997  20.335  11.278
38082W        W 9611  24.647  26.131   2.674
38083W        W 9612  43.300  33.229   4.174
38084W        W 9613   1.305  22.100   4.643
38085W        W 9614   5.179  24.214  12.421
38086W        W 9615   6.578  15.255   1.688
38087W        W 9616  19.694  40.425  14.581
38088W        W 9617  15.717  10.834   4.548
38089W        W 9618  30.091  25.310  14.641
38090W        W 9619   8.707  40.160   0.794
38091W        W 9620  13.133  27.735  13.460
38092W        W 9621  37.818  20.264  14.843
38093W        W 9622   4.295  40.728   3.105
38094W        W 9623  35.459   0.761   2.433
38095W        W 9624  10.913  41.393   3.189
38096W        W 9625  21.225  24.093   4.032
38097W        W 9626  31.990  24.499   0.470
38098W        W 9627   4.107  26.085   3.228
38099W        W 9628   7.472  40.237  11.161
38100W        W 9629  41.653  41.953   4.511
38101W        W 9630   1.905   1.316   4.657
38102W        W 9631  34.078  16.570  12.928
38103W        W 9632  24.060  43.308  13.958
38104W        W 9633  38.602  15.517  10.550
38105W        W 9634  34.381   4.697  12.518
38106W        W 9635  33.403  21.567  11.568
38107W        W 9636   4.818  18.029  11.021
38108W        W 9637  30.660  23.928   1.389
38109W        W 9638  43.808  23.463  11.492
38110W        W 9639  32.953  34.352  12.908
38111W        W 9640  39.457  41.276   3.163
38112W        W 9641  15.408   2.845   3.864
38113W        W 9642  31.670   0.739  11.495
38114W        W 9643  13.695  40.378   1.443
38115W        W 9644  40.768  21.524   2.162
38116W        W 9645   4.469  38.328   0.067
38117W        W 9646  16.817  41.441  13.949
38118W        W 9647   0.901  16.003   4.245
38119W        W 9648  14.105  24.149  13.522
38120W        W 9649  34.002  29.504  12.882
38121W        W 9650  19.089  27.362   2.895
38122W        W 9651   8.818  24.257   2.258
38123W        W 9652   1.217  42.441  11.316
38124W        W 9653  14.364  36.345  10.675
38125W        W 9654   7.822   1.951   3.372
38126W        W 9655   5.168  29.603   1.659
38127W        W 9656  26.514  40.241   4.116
38128W        W 9657  28.123  30.610  11.146
38129W        W 9658  31.029  19.774  11.108
38130W        W 9659  12.180  40.306  11.154
38131W        W 9660   9.279  37.000  13.285
38132W        W 9661  13.856  15.648   1.772
38133W        W 9662  29.000  40.067  12.415
38134W        W 9663   1.272   9.584  11.592
38135W        W 9664  22.579  20.807  11.199
38136W        W 9665  25.351  42.841  10.923
38137W        W 9666   8.159  15.339   4.947
38138W        W 9667  22.260  41.806   2.063
38139W        W 9668  15.219   8.864   2.713
38140W        W 9669  33.888  35.169   3.201
38141W        W 9670  33.111  43.223   4.800
38142W        W 9671  28.717  16.258  10.616
38143W        W 9672  27.973   5.722   5.110
38144W        W 9673  12.140  21.259   3.765
38145W        W 9674  44.487   0.328   1.849
38146W        W 9675   1.887  38.017   1.674
38147W        W 9676   1.872   3.758   4.564
38148W        W 9677  32.256  12.886   0.842
38149W        W 9678  38.437   0.461  14.358
38150W        W 9679   6.487  22.527  12.487
38151W        W 9680  13.181  22.511   0.814
38152W        W 9681   8.700   4.060   2.354
38153W        W 9682  37.443  11.877   2.278
38154W        W 9683  34.465   6.671   1.630
38155W        W 9684  18.628  25.109  14.768
38156W        W 9685  20.705  31.525  12.019
38157W        W 9686  43.277  43.845   1.184
38158W        W 9687  35.168  38.498  12.235
38159W        W 9688  24.297   0.466  10.678
38160W        W 9689  31.241  36.507  12.409
38161W        W 9690  10.876  10.423  14.562
38162W        W 9691  30.335  24.966  11.110
38163W        W 9692  21.053  43.484   2.397
38164W        W 9693  34.174  12.787  11.083
38165W        W 9694   4.347   8.137   2.849
38166W        W 9695  22.228   2.553  11.568
38167W        W 9696   6.591  21.199  13.209
38168W        W 9697  18.263  30.656   4.086
38169W        W 9698  20.756   9.302   3.943
38170W        W 9699   1.824  24.697  10.792
38171W        W 9700  32.279   5.225  14.978
38172W        W 9701  43.263  30.902   0.321
38173W        W 9702   9.948   3.320  12.841
38174W        W 9703   5.514  18.200   4.086
38175W        W 9704   6.946   6.257   3.584
38176W        W 9705  40.090  37.433  12.595
38177W        W 9706  16.690  43.560   1.120
38178W        W 9707  18.615  42.990  14.530
38179W        W 9708  34.404  18.495   4.216
38180W        W 9709  39.548  30.950   3.591
38181W        W 9710   8.631  40.698  12.332
38182W        W 9711  28.929  24.921   0.137
38183W        W 9712  24.299  20.888  11.164
38184W        W 9713  44.813  39.601   3.414
38185W        W 9714  17.214  27.357  11.906
38186W        W 9715   2.563  14.831  14.055
38187W        W 9716  12.834   9.697  13.927
38188W        W 9717  33.023  15.828   2.212
38189W        W 9718  17.214  34.086  12.445
38190W        W 9719   9.419   1.738  12.444
38191W        W 9720  28.426   0.342  11.186
38192W        W 9721  29.186   7.332   3.174
38193W        W 9722  38.979  44.345  12.009
38194W        W 9723  38.175  30.769   0.359
38195W        W 9724   3.090   0.414   4.520
38196W        W 9725  43.739  40.755   3.410
38197W        W 9726   1.259  13.368  12.497
38198W        W 9727  26.203  44.959  12.523
38199W        W 9728  35.913  11.038  12.505
38200W        W 9729  13.852  17.797   1.400
38201W        W 9730  17.243  12.441   1.289
38202W        W 9731   5.783  37.476   2.377
38203W        W 9732  34.874  22.644   4.424
38204W        W 9733  44.324  20.024   0.544
38205W        W 9734  31.591  23.256   1.739
38206W        W 9735  36.505   5.180   3.755
38207W        W 9736  29.559  37.524  10.145
38208W        W 9737  23.846   3.480  11.241
38209W        W 9738   0.343  11.781  14.795
38210W        W 9739  26.730   4.810  11.552
38211W        W 9740  35.471  17.150  14.422
38212W        W 9741  37.723   6.725   4.537
38213W        W 9742  41.393  17.251  14.936
38214W        W 9743   3.456   7.116  12.011
38215W        W 9744   3.828  28.317  12.943
38216W        W 9745  22.104   0.524  10.597
38217W        W 9746  26.944  17.198  11.081
38218W        W 9747  31.200  30.116   2.767
38219W        W 9748  32.804  14.209  13.010
38220W        W 9749  42.049  16.089  13.193
38221W        W 9750   6.169   9.665  11.201
38222W        W 9751  23.501  13.359  12.836
38223W        W 9752  23.966  13.161  12.983
38224W        W 9753  33.214  16.756  13.944
38225W        W 9754   6.233   0.051   3.281
38226W        W 9755   8.793   1.048   0.411
38227W        W 9756   8.177  12.809   0.281
38228W        W 9757   8.377   6.269  11.337
38229W        W 9758  25.027  21.578   4.078
38230W        W 9759  41.376   0.028  11.482
38231W        W 9760  31.480  14.613   2.336
38232W        W 9761   5.864  29.007   4.638
38233W        W 9762   0.215  21.700   4.257
38234W        W 9763  29.692  36.569  10.680
38235W        W 9764  22.068  42.584  13.424
38236W        W 9765  37.786  13.833   3.290
38237W        W 9766  19.983  10.347   0.682
38238W        W 9767   1.996  19.000  10.744
38239W        W 9768   7.590   3.329  14.699
38240W        W 9769  21.352   1.341  14.096
38241W        W 9770  39.888  16.646   2.674
38242W        W 9771  29.052  12.372   1.888
38243W        W 9772  20.780  23.829   4.138
38244W        W 9773  18.201  29.069  13.963
38245W        W 9774  17.975  33.493   3.694
38246W        W 9775  18.313  29.761  10.687
38247W        W 9776  30.773  31.907  11.593
38248W        W 9777  37.485  19.502  13.872
38249W        W 9778  13.788  39.485   3.567
38250W        W 9779  18.583  27.664  13.828
38251W        W 9780  25.914   8.939   1.766
38252W        W 9781  15.333  10.634  12.007
38253W        W 9782   0.200  29.134  11.068
38254W        W 9783   2.840  37.667   1.462
38255W        W 9784  16.782  33.411   3.257
38256W        W 9785   3.885  32.704  12.730
38257W        W 9786   7.686  11.970  10.330
38258W        W 9787  37.026  12.098  14.501
38259W        W 9788  19.518  24.206  12.022
38260W        W 9789  18.296   4.932   3.659
38261W        W 9790   7.037   2.885   2.874
38262W        W 9791  27.127   6.741  11.457
38263W        W 9792  30.511  21.718   4.812
38264W        W 9793  27.590  24.254  12.892
38265W        W 9794  21.533  37.381  12.436
38266W        W 9795   7.283  41.015   2.212
38267W        W 9796  22.705  34.296   0.474
38268W        W 9797  33.557  42.051   0.496
38269W        W 9798  38.675  11.148  11.066
38270W        W 9799  29.710   7.396   3.315
38271W        W 9800  33.902  30.465  14.081
38272W        W 9801  40.071   6.388   3.573
38273W        W 9802  12.842   3.514   1.377
38274W        W 9803  28.352   9.298  13.629
38275W        W 9804  39.735   6.272   1.832
38276W        W 9805  20.867  35.580   0.278
38277W        W 9806  43.234  41.506   4.387
38278W        W 9807  22.518  43.371   3.747
38279W        W 9808  43.432  20.357   0.038
38280W        W 9809  29.672   6.197  12.454
38281W        W 9810   9.334   9.008  12.304
38282W        W 9811  40.878  12.116   4.116
38283W        W 9812   5.608  10.210  10.624
38284W        W 9813  33.451   6.242  12.556
38285W        W 9814  23.441  14.679   0.735
38286W        W 9815   1.861  36.956   3.847
38287W        W 9816  26.388  38.388   4.448
38288W        W 9817  34.342  34.339   2.756
38289W        W 9818  31.843  25.219  14.816
38290W        W 9819   4.239  14.673   2.873
38291W        W 9820  19.172  33.515   1.484
38292W        W 9821  24.571  11.637  14.917
38293W        W 9822  30.195  20.623   0.581
38294W        W 9823  13.291  16.791   3.515
38295W        W 9824  14.138  10.155   1.339
38296W        W 9825   5.928  16.541  10.387
38297W        W 9826   1.334  12.389  12.668
38298W        W 9827   0.501   9.723   2.361
38299W        W 9828  14.122  16.143  13.916
38300W        W 9829  35.411  11.653   3.120
38301W        W 9830  34.268   2.926  14.035
38302W        W 9831  29.932  21.117  11.981
38303W        W 9832  38.459  13.397   1.870
38304W        W 9833   0.661   1.444   0.442
38305W        W 9834  32.533  38.104   1.846
38306W        W 9835  44.915  30.036  11.600
38307W        W 9836  40.444   0.782  13.756
38308W        W 9837  27.180   3.653  11.042
38309W        W 9838  21.840  27.186   1.344
38310W        W 9839   6.168  26.452  13.601
38311W        W 9840  25.395  28.153  10.206
38312W        W 9841  27.283  16.859   3.277
38313W        W 9842  37.386  10.331  13.718
38314W        W 9843  33.160  25.685   1.262
38315W        W 9844   8.705  14.121   2.737
38316W        W 9845   6.056  44.899  10.971
38317W        W 9846  24.990  42.323  10.727
38318W        W 9847   4.031  35.666   1.043
38319W        W 9848   6.596  16.185  14.459
38320W        W 9849  24.479  36.146   4.662
38321W        W 9850   1.476  10.845   0.984
38322W        W 9851  33.430   5.049  13.376
38323W        W 9852  36.012   3.448   2.202
38324W        W 9853   5.936  10.340  14.835
38325W        W 9854   6.997  11.718   1.210
38326W        W 9855  27.360  40.988   3.150
38327W        W 9856  16.609  34.280  12.883
38328W        W 9857  31.280   0.183   1.236
38329W        W 9858  21.562  28.625   3.221
38330W        W 9859  35.400   3.867   3.926
38331W        W 9860  13.311  23.928  13.960
38332W        W 9861  12.859  32.749  10.625
38333W        W 9862  35.831  34.797   4.584
38334W        W 9863  23.712  40.136  12.104
38335W        W 9864  22.438  20.897   2.532
38336W        W 9865  31.941  38.885  12.969
38337W        W 9866  43.873  34.741  11.113
38338W        W 9867   0.905  24.442   3.686
38339W        W 9868  24.049  28.188  12.172
38340W        W 9869  42.973  11.191  11.028
38341W        W 9870  42.000  38.845   2.366
38342W        W 9871   6.778  35.920   3.262
38343W        W 9872   4.951  33.737  14.690
38344W        W 9873  24.651  23.499   4.577
38345W        W 9874  34.852  18.138  10.096
38346W        W 9875  17.363   2.469  14.485
38347W        W 9876  37.358   1.471  12.111
38348W        W 9877   4.038  19.639  11.150
38349W        W 9878  32.682  18.294  14.066
38350W        W 9879  19.607  22.328  14.422
38351W        W 9880   7.685  36.417  12.314
38352W        W 9881  42.038  33.609   1.963
38353W        W 9882  24.224  32.434  13.966
38354W        W 9883  41.900  20.308   0.755
38355W        W 9884  26.862  15.611   4.354
38356W        W 9885  34.804  26.962  12.890
38357W        W 9886   7.774   3.600  11.603
38358W        W 9887  22.133  31.602   4.929
38359W        W 9888  34.735  29.389   0.484
38360W        W 9889  23.626  29.208   4.486
38361W        W 9890  24.581  18.742   1.174
38362W        W 9891  24.955  18.158  13.890
38363W        W 9892  22.369  36.005   1.857
38364W        W 9893  39.597   7.963   2.743
38365W        W 9894  35.594   5.938   1.200
38366W        W 9895   1.127  41.531  12.036
38367W        W 9896   5.680   6.213   3.865
38368W        W 9897  37.901  42.797  12.640
38369W        W 9898  15.713  16.509  13.969
38370W        W 9899  40.517   2.702   1.110
38371W        W 9900   8.367   2.212   3.582
38372W        W 9901   9.753  10.733   0.945
38373W        W 9902   8.711  19.080   4.470
38374W        W 9903  10.312  42.158  12.184
38375W        W 9904  31.010  19.648  11.949
38376W        W 9905  15.835   1.518  13.291
38377W        W 9906  20.604   0.303  13.337
38378W        W 9907  41.974   8.283   3.140
38379W        W 9908  44.269  41.790  12.896
38380W        W 9909  19.143   8.663  14.787
38381W        W 9910  34.105  15.870  13.514
38382W        W 9911  14.007  31.432   2.643
38383W        W 9912  39.363   8.443   2.768
38384W        W 9913  39.494  35.407   2.325
38385W        W 9914  32.333  22.169  11.989
38386W        W 9915  17.888  20.627  13.647
38387W        W 9916  29.522  39.777   1.435
38388W        W 9917  13.269   1.829  13.087
38389W        W 9918  38.958  21.189  10.643
38390W        W 9919   2.260  12.486   1.774
38391W        W 9920  32.951  36.783   1.881
38392W        W 9921   5.955   9.738   3.126
38393W        W 9922  38.444  40.579  10.564
38394W        W 9923  23.498  17.676  14.346
38395W        W 9924  38.418  18.020  11.648
38396W        W 9925  27.690   7.298  13.401
38397W        W 9926  15.086   9.711   1.305
38398W        W 9927   0.362  20.027  11.520
38399W        W 9928  17.726  14.165   4.295
38400W        W 9929  21.140  41.534   5.201
38401W        W 9930   0.173   3.814   1.694
38402W        W 9931  26.046  43.759   0.480
38403W        W 9932   5.232   9.019   0.079
38404W        W 9933  20.618  22.081   4.364
38405W        W 9934  43.751   1.333  13.707
38406W        W 9935  28.548  27.645  14.416
38407W        W 9936  32.476  28.612  14.765
38408W        W 9937  13.887  35.039  13.001
38409W        W 9938  32.563  16.179  10.213
38410W        W 9939  34.149   8.819  11.354
38411W        W 9940   2.749  23.589   3.346
38412W        W 9941  35.857  36.599  14.777
38413W        W 9942  43.306  32.599   4.841
38414W        W 9943  42.774   7.968  11.988
38415W        W 9944  20.064  18.805  11.276
38416W        W 9945   9.341   4.872  10.743
38417W        W 9946   5.251  31.166   3.126
38418W        W 9947  36.837  33.912   4.989
38419W        W 9948  40.994  10.683  10.875
38420W        W 9949   9.701  32.349  13.966
38421W        W 9950  26.142  42.792   0.418
38422W        W 9951  27.387  36.513   2.590
38423W        W 9952   0.672   3.721   1.747
38424W        W 9953  36.069  39.216   1.830
38425W        W 9954  40.844  33.922   1.286
38426W        W 9955  41.139  35.085   1.921
38427W        W 9956  42.784  19.980  14.462
38428W        W 9957  29.982  13.690   1.897
38429W        W 9958  37.282  38.328   1.868
38430W        W 9959  18.225  10.281  14.337
38431W        W 9960  26.184   5.658   3.135
38432W        W 9961  35.547  33.344   4.086
38433W        W 9962  18.556  13.479   0.018
38434W        W 9963  22.297  13.277  11.110
38435W        W 9964  34.380   5.948  14.014
38436W        W 9965  27.076   0.059  13.309
38437W        W 9966  31.539  23.944   4.846
38438W        W 9967  43.572  17.669  13.521
38439W        W 9968  19.574  30.093   1.411
38440W        W 9969  43.005   6.791   4.335
38441W        W 9970  35.826  16.339  12.840
38442W        W 9971  17.418   7.916  12.539
38443W        W 9972  19.242   0.385  11.512
38444W        W 9973  28.618   9.851   4.061
38445W        W 9974   6.165  39.394   1.493
38446W        W 9975   2.103  28.013   1.634
38447W        W 9976   0.960   1.085  12.997
38448W        W 9977   0.714  18.725   1.396
38449W        W 9978  36.313   6.577   1.856
38450W        W 9979  32.029  19.647  11.911
38451W        W 9980   8.650  17.519   2.134
38452W        W 9981  23.872  44.193  13.945
38453W        W 9982   3.871  21.341  11.065
38454W        W 9983  26.641  22.047   0.821
38455W        W 9984  40.039   1.936   4.135
38456W        W 9985  43.552  23.524   4.463
38457W        W 9986  38.919  17.850   4.985
38458W        W 9987   9.289  28.074  14.903
38459W        W 9988   6.671  25.568  10.358
38460W        W 9989  34.790   5.023  12.445
38461W        W 9990  20.960  13.115   0.018
38462W        W 9991  39.489  10.119   1.255
38463W        W 9992   6.103  23.151  11.184
38464W        W 9993  43.821   8.189   0.155
38465W        W 9994  39.004  43.925   3.990
38466W        W 9995  40.738   3.449  11.597
38467W        W 9996  42.300  20.748  12.420
38468W        W 9997  14.374   5.793   0.884
38469W        W 9998  22.662   8.867   2.011
38470W        W 9999  20.073   7.720  12.592
38471W        W10000  15.811  31.182   4.608
38472W        W10001   4.960  44.768   3.346
38473W        W10002  18.477  20.142   3.779
38474W        W10003   8.602  32.657  14.800
38475W        W10004  10.968   9.549   3.890
38476W        W10005  37.017  36.057  11.999
38477W        W10006   9.077   8.730   3.276
38478W        W10007  35.897  30.387   0.268
38479W        W10008  31.871   1.037  13.550
38480W        W10009  32.835   8.064   2.277
38481W        W10010  15.584  37.537  11.094
38482W        W10011  16.591   4.139   4.551
38483W        W10012  16.555   9.770  13.874
38484W        W10013   8.693  40.434   2.293
38485W        W10014  17.134  24.709   0.220
38486W        W10015   6.139  37.809  11.353
38487W        W10016  27.674  18.559   3.737
38488W        W10017  16.662  27.913  13.227
38489W        W10018  43.756   7.740   2.983
38490W        W10019  42.380   8.369   1.880
38491W        W10020   9.884  27.578  12.339
38492W        W10021  10.942   2.792   4.023
38493W        W10022  43.839  24.641   4.649
38494W        W10023  21.426   1.049  14.518
38495W        W10024  31.266  40.943   1.161
38496W        W10025  40.862  13.843  11.509
38497W        W10026  15.856  12.690   2.304
38498W        W10027  26.204   3.479  10.819
38499W        W10028  38.844  38.324   1.717
38500W        W10029  44.129  33.882   2.170
38501W        W10030  38.937  12.236  14.385
38502W        W10031   8.882  10.871   1.309
38503W        W10032   1.318  40.850  12.488
38504W        W10033  41.370  34.079  12.826
38505W        W10034  39.074  37.235   3.640
38506W        W10035  19.122  34.414   2.849
38507W        W10036  29.549  16.847  10.787
38508W        W10037  40.305  34.783  13.442
38509W        W10038  17.015  33.668   2.840
38510W        W10039  21.105  31.029   1.442
38511W        W10040  39.793  19.092  14.857
38512W        W10041   6.832   0.156  14.705
38513W        W10042  18.591  39.349  12.525
38514W        W10043  28.747  36.799  11.041
38515W        W10044  23.408   7.223  11.866
38516W        W10045  28.649  34.142   0.513
38517W        W10046  37.175  37.292  11.103
38518W        W10047  40.991  24.293  14.062
38519W        W10048   5.659  11.293  14.728
38520W        W10049  25.242  21.020  11.925
38521W        W10050  34.495   6.899   0.726
38522W        W10051  44.448   8.670   1.232
38523W        W10052   3.874  13.600  12.460
38524W        W10053   7.834  40.703   4.110
38525W        W10054  17.201   7.287  14.735
38526W        W10055  28.773  24.047  13.941
38527W        W10056  42.569  27.523  12.063
38528W        W10057  12.689  16.608   0.762
38529W        W10058  32.280  24.564   2.292
38530W        W10059  20.625  42.559   2.346
38531W        W10060  35.613  12.710  13.919
38532W        W10061   0.960   0.169   3.416
38533W        W10062  36.394  32.335  11.518
38534W        W10063  17.539  28.876   3.250
38535W        W10064  13.569  15.196  12.549
38536W        W10065   8.376  22.702   3.651
38537W        W10066  24.934   9.000   1.757
38538W        W10067  12.271  44.908   1.308
38539W        W10068  25.758   0.275  13.043
38540W        W10069  25.589  30.845   1.321
38541W        W10070   0.044  34.210   2.283
38542W        W10071  32.655  11.237   0.755
38543W        W10072  25.394  33.574  11.675
38544W        W10073   0.028  30.243  12.806
38545W        W10074  44.947  21.810   2.927
38546W        W10075   5.864  44.732   4.510
38547W        W10076  29.613  22.541  13.980
38548W        W10077  11.076   1.172   2.156
38549W        W10078   3.836  22.732  13.960
38550W        W10079  20.057  15.278  12.527
38551W        W10080  13.094  11.607   2.693
38552W        W10081  34.497  25.992  13.070
38553W        W10082  35.837   0.069   1.337
38554W        W10083  35.168  21.316  11.261
38555W        W10084  10.705   5.240   4.451
38556W        W10085  31.370  42.087   2.856
38557W        W10086  16.271  18.738   4.385
38558W        W10087  26.654  17.056  10.631
38559W        W10088   9.323  18.409   4.119
38560W        W10089  28.094  16.736   2.668
38561W        W10090  36.101  35.322  14.444
38562W        W10091  19.677  16.692   1.693
38563W        W10092  15.178  31.418   3.388
38564W        W10093  38.552   3.996  13.019
38565W        W10094  12.944  34.651  13.032
38566W        W10095   4.156  39.328   2.271
38567W        W10096  26.437  33.134   1.835
38568W        W10097  32.862  39.107   4.638
38569W        W10098  33.929  32.596   0.171
38570W        W10099   5.672  13.646   3.887
38571W        W10100   3.899   8.416   1.719
38572W        W10101  22.348  19.977   1.478
38573W        W10102  35.401  38.581  14.841
38574W        W10103   8.365  34.494   1.602
38575W        W10104  33.993  33.016  11.018
38576W        W10105   6.648  17.302   3.832
38577W        W10106   2.394  15.041  13.250
38578W        W10107  26.965  36.081   2.396
38579W        W10108  14.209   2.897   4.572
38580W        W10109  37.808  16.778   3.411
38581W        W10110  12.365  18.687   3.254
38582W        W10111  24.666  35.734  12.606
38583W        W10112  38.056  44.076  13.916
38584W        W10113  39.754  37.552  13.540
38585W        W10114   2.565   8.701   2.310
38586W        W10115  15.719  35.502  14.667
38587W        W10116   5.852  14.082  14.777
38588W        W10117  28.072   1.611  12.460
38589W        W10118  20.475   8.145   0.676
38590W        W10119  17.907  14.263   1.660
38591W        W10120  40.588  31.452   1.699
38592W        W10121  19.481   6.448   2.228
38593W        W10122  43.828  42.751   4.252
38594W        W10123  26.528  21.307   0.232
38595W        W10124  11.301  38.691   3.728
38596W        W10125  38.947   9.053   0.982
38597W        W10126  27.436  27.081  14.431
38598W        W10127  13.035   0.676   9.891
38599W        W10128  43.510  31.700  13.947
38600W        W10129  18.107  12.375   0.495
38601W        W10130  29.757  44.102   0.539
38602W        W10131  14.542  38.891  12.576
38603W        W10132  31.951  36.420   2.282
38604W        W10133  36.309  10.409  12.101
38605W        W10134   6.221  11.372   0.208
38606W        W10135  21.033  17.616  14.026
38607W        W10136   9.864   8.704  14.065
38608W        W10137   7.444  17.444   3.313
38609W        W10138   8.623  36.077   4.617
38610W        W10139  28.966   7.927  14.931
38611W        W10140  18.169  17.341   3.279
38612W        W10141  22.715  30.949  11.099
38613W        W10142  11.347  43.546  14.102
38614W        W10143  22.935   6.271   4.541
38615W        W10144   6.546  14.568  12.527
38616W        W10145  14.378  33.103   1.813
38617W        W10146  13.072  24.717   1.310
38618W        W10147  16.630  12.364  11.554
38619W        W10148  14.276  40.661  13.474
38620W        W10149  42.635  20.079   1.393
38621W        W10150  15.202  21.858   3.684
38622W        W10151   2.163  13.294  14.459
38623W        W10152  24.212   7.510  10.387
38624W        W10153   9.471  19.520  10.717
38625W        W10154  44.225  37.247   4.168
38626W        W10155   5.710  31.726  14.309
38627W        W10156   8.812   7.777  12.704
38628W        W10157  15.616  13.647   1.465
38629W        W10158  38.289   0.175  14.841
38630W        W10159  40.062  40.392  10.562
38631W        W10160  27.982   6.760   4.951
38632W        W10161  42.558   2.755   0.352
38633W        W10162  17.161  37.071  14.995
38634W        W10163  21.923  31.188  12.966
38635W        W10164  42.381  35.898   0.273
38636W        W10165  36.613  12.266  14.916
38637W        W10166  23.552   3.959   3.220
38638W        W10167  17.668  27.006  12.484
38639W        W10168   8.619  31.839   3.678
38640W        W10169  24.534  28.995   0.485
38641W        W10170  13.051  39.578  12.711
38642W        W10171  35.783  43.444   1.374
38643W        W10172   8.299  31.169   4.100
38644W        W10173  30.947  10.757   3.226
38645W        W10174  35.047   6.384  13.451
38646W        W10175   1.923  16.262  12.360
38647W        W10176  25.002  36.139   3.340
38648W        W10177  40.793  25.403   1.644
38649W        W10178   5.646   1.354   3.692
38650W        W10179   8.323  34.373   0.969
38651W        W10180  19.724  20.051   3.699
38652W        W10181  12.127   9.351   3.238
38653W        W10182   0.247  30.423  14.410
38654W        W10183  34.946  41.549   4.561
38655W        W10184   8.267  32.709   1.699
38656W        W10185   4.901  37.986   4.647
38657W        W10186   7.097  12.178   2.230
38658W        W10187  39.069  31.971   0.341
38659W        W10188  20.054  10.096   4.134
38660W        W10189  20.458  32.004  14.753
38661W        W10190  25.686  25.751  13.001
38662W        W10191  36.578  38.576   0.389
38663W        W10192  22.711   6.167  12.942
38664W        W10193  41.755  27.877   1.207
38665W        W10194  33.209  37.765  12.903
38666W        W10195   2.282  19.696   0.841
38667W        W10196  40.784  16.266   3.866
38668W        W10197  20.773  36.312   1.181
38669W        W10198  35.861  16.087  11.503
38670W        W10199  16.139  34.160  13.050
38671W        W10200  44.301  18.964   1.801
38672W        W10201  27.927  41.852  14.744
38673W        W10202  40.526   3.669   1.348
38674W        W10203  13.608   1.386   2.280
38675W        W10204  15.532  24.584   2.380
38676W        W10205   0.341   2.972   2.643
38677W        W10206  41.256   0.825   3.068
38678W        W10207  41.221  43.013   0.513
38679W        W10208  11.255  40.849  12.480
38680W        W10209  19.913   3.500  10.100
38681W        W10210   5.886  12.599   2.820
38682W        W10211   1.984  33.119   3.233
38683W        W10212  27.187  15.563  13.726
38684W        W10213  40.026   6.683  14.345
38685W        W10214  28.037  29.783   3.739
38686W        W10215   7.854   8.605   3.608
38687W        W10216  10.025  29.741  12.875
38688W        W10217  36.191   7.776   0.877
38689W        W10218  38.935  31.864   0.828
38690W        W10219  30.930  41.857   1.945
38691W        W10220   5.248  22.989  11.569
38692W        W10221   8.747  44.993  10.726
38693W        W10222  17.358  30.042  11.966
38694W        W10223  19.008   7.765   2.661
38695W        W10224   9.740   6.111   3.306
38696W        W10225   9.675  11.220   3.217
38697W        W10226  19.104  19.297  11.156
38698W        W10227  32.060  22.631  12.055
38699W        W10228   1.021  23.957   1.468
38700W        W10229  41.963  20.023  14.796
38701W        W10230  20.955  34.222   4.762
38702W        W10231  21.525  41.835   5.063
38703W        W10232  43.878   2.964   4.588
38704W        W10233  18.711  36.851  12.221
38705W        W10234   9.116   1.971   3.413
38706W        W10235  22.114  42.923  13.015
38707W        W10236  32.884  34.102   4.560
38708W        W10237   6.309  37.497  14.733
38709W        W10238  21.013   1.986  10.341
38710W        W10239  42.371   6.798   3.701
38711W        W10240  14.741  37.045  14.774
38712W        W10241  40.349  12.416   4.603
38713W        W10242   6.206  42.064   2.207
38714W        W10243  13.522   0.902   0.877
38715W        W10244  19.388  26.044   4.473
38716W        W10245   2.615  21.459   2.148
38717W        W10246  38.051  41.536  11.194
38718W        W10247  18.532  11.631  11.544
38719W        W10248  30.931  36.889  11.497
38720W        W10249  43.721  14.889  14.389
38721W        W10250  11.805  27.177   1.271
38722W        W10251  22.246  34.962   3.330
38723W        W10252  36.380  42.366   0.154
38724W        W10253  37.998  41.058   2.319
38725W        W10254  19.065   2.004  13.915
38726W        W10255  26.982  41.815   0.330
38727W        W10256  36.960  32.832   1.743
38728W        W10257  15.967  17.627   1.576
38729W        W10258  43.987   0.872   4.612
38730W        W10259  38.388  17.533  14.402
38731W        W10260   1.532  30.444  13.050
38732W        W10261   8.844  29.182   2.437
38733W        W10262  26.993  17.677  13.498
38734W        W10263  34.642   7.554  12.592
38735W        W10264  30.307  22.585  14.517
38736W        W10265  14.606   3.186  11.123
38737W        W10266   2.370  28.720  14.567
38738W        W10267  33.053  42.010  10.364
38739W        W10268  20.128  44.880   3.334
38740W        W10269  27.575   1.797  12.127
38741W        W10270  42.241   9.631  13.095
38742W        W10271  27.048  14.277  13.415
38743W        W10272  24.149  24.945  12.558
38744W        W10273  32.907  29.105   0.385
38745W        W10274   6.706  35.093   1.802
38746W        W10275   1.340  34.642  12.350
38747W        W10276   5.836   7.077   4.565
38748W        W10277  28.108   5.172  13.762
38749W        W10278   2.917  25.758   2.768
38750W        W10279  21.648  29.408  13.358
38751W        W10280  21.676  19.813  11.174
38752W        W10281  24.020  33.277   5.009
38753W        W10282   9.885  41.391   4.630
38754W        W10283   3.647  36.102  12.446
38755W        W10284  43.024  43.764  12.961
38756W        W10285  24.982  12.782  14.925
38757W        W10286   6.872  31.486  13.942
38758W        W10287  23.981   7.125  10.653
38759W        W10288  43.574  10.755  14.250
38760W        W10289  16.960  40.045  13.153
38761W        W10290  44.840  37.078   0.885
38762W        W10291  27.915  35.987   3.636
38763W        W10292  23.264  20.853   1.932
38764W        W10293  39.894  24.309  12.159
38765W        W10294  32.789   5.346  14.886
38766W        W10295  20.511  36.482  13.370
38767W        W10296   8.886   8.264  10.749
38768W        W10297   7.922  24.434  12.966
38769W        W10298  24.695  43.805  11.625
38770W        W10299  35.610   8.388  12.223
38771W        W10300  19.210  44.564   3.275
38772W        W10301  18.005  14.641  14.925
38773W        W10302  40.742   8.425   2.652
38774W        W10303  25.425   4.413  10.638
38775W        W10304  20.120   7.364  12.178
38776W        W10305   4.929   3.850   0.953
38777W        W10306  16.561   2.794  11.077
38778W        W10307  18.156  10.204   3.256
38779W        W10308  18.947  34.973   3.716
38780W        W10309   2.302   4.192   0.236
38781W        W10310  25.775  33.994   3.162
38782W        W10311  21.786  41.830   4.186
38783W        W10312   7.322  15.113   3.936
38784W        W10313  20.579  34.558  10.688
38785W        W10314   6.117   4.795  14.039
38786W        W10315  30.704   7.799  12.376
38787W        W10316  27.119  39.668   4.548
38788W        W10317  35.708  42.856  13.757
38789W        W10318  31.379  18.004  14.874
38790W        W10319   5.403   3.665   2.200
38791W        W10320  20.462   6.614  12.035
38792W        W10321   0.273   1.002  10.619
38793W        W10322   1.025  32.090  14.786
38794W        W10323   7.808  26.934  12.261
38795W        W10324  37.016   8.214   3.820
38796W        W10325  36.954  39.056   0.831
38797W        W10326   0.255  15.660   0.728
38798W        W10327  12.269  32.480  12.581
38799W        W10328  12.213  22.752   2.839
38800W        W10329  12.833  33.583   4.688
38801W        W10330  11.083  40.295  13.812
38802W        W10331   4.087  44.416  11.960
38803W        W10332   8.366  15.282  10.630
38804W        W10333  12.154  12.941  11.043
38805W        W10334  40.444  36.075   3.809
38806W        W10335  34.316  32.115  11.243
38807W        W10336  34.607  16.495  11.378
38808W        W10337   0.303  28.794  12.658
38809W        W10338  37.457  42.788   1.289
38810W        W10339  16.126   3.440   3.558
38811W        W10340  31.566   0.184  14.509
38812W        W10341  29.449  10.093  12.941
38813W        W10342   6.127  31.279  12.568
38814W        W10343  29.614  35.834  11.153
38815W        W10344  36.082  21.365   1.822
38816W        W10345  27.161  43.387   2.222
38817W        W10346  29.332  12.385  10.932
38818W        W10347  10.413  11.887  14.838
38819W        W10348   6.707  33.889   0.900
38820W        W10349  33.940   8.101  12.441
38821W        W10350  13.922  10.215   0.826
38822W        W10351  43.470  34.649   2.731
38823W        W10352  11.451  16.234   0.987
38824W        W10353  37.987   5.172  10.736
38825W        W10354  39.221  25.278  13.931
38826W        W10355  10.904  27.614  13.934
38827W        W10356   1.184  39.078  13.414
38828W        W10357   9.252   7.193  14.827
38829W        W10358   6.621  16.102   2.676
38830W        W10359   7.228  32.042   2.367
38831W        W10360  12.724  33.239   0.703
38832W        W10361  39.550  10.920  14.278
38833W        W10362   6.596  38.388  10.455
38834W        W10363  28.482  22.071   0.261
38835W        W10364   0.456  26.078   2.398
38836W        W10365  40.972   6.216   3.230
38837W        W10366  30.188  18.494  14.039
38838W        W10367  19.473   1.361  14.903
38839W        W10368  17.330  42.377   2.588
38840W        W10369  43.052  37.096  13.314
38841W        W10370   2.313  38.431   1.180
38842W        W10371  25.851   3.821   4.570
38843W        W10372  43.555  10.791   1.332
38844W        W10373  23.999  39.923  13.059
38845W        W10374  10.212  11.367  10.934
38846W        W10375   3.811  12.200   2.265
38847W        W10376  19.728   4.860  14.500
38848W        W10377  21.265   2.777   1.789
38849W        W10378  25.262   8.868  13.868
38850W        W10379  23.931   0.225  13.096
38851W        W10380  14.265   6.476  12.012
38852W        W10381  36.340  43.793  12.487
38853W        W10382  25.680  40.458  12.041
38854W        W10383   6.289  27.373   4.972
38855W        W10384  29.063  35.395   3.538
38856W        W10385   6.792  42.797   4.136
38857W        W10386   1.367  42.830   2.595
38858W        W10387  23.068  19.083   1.204
38859W        W10388  33.516   1.087   4.560
38860W        W10389  44.610  18.945  14.265
38861W        W10390  31.836   9.521  12.055
38862W        W10391  15.327  12.838  14.276
38863W        W10392  15.775   6.162  13.933
38864W        W10393   8.783  44.363   0.574
38865W        W10394   4.713   7.752   4.288
38866W        W10395  16.414   1.268   3.743
38867W        W10396   6.275  32.164   3.150
38868W        W10397  33.474  26.108  12.908
38869W        W10398  19.233  38.299   0.334
38870W        W10399  30.601  21.982   3.427
38871W        W10400  27.322  30.657  14.375
38872W        W10401  30.023  23.880  14.224
38873W        W10402   1.934   1.529  13.894
38874W        W10403  43.381   7.959  12.938
38875W        W10404  43.763  11.660  13.917
38876W        W10405  10.837  27.358  13.388
38877W        W10406  27.220  40.975  13.053
38878W        W10407  11.529  40.811  14.416
38879W        W10408  16.962  32.800  14.071
38880W        W10409  41.867   7.638  13.905
38881W        W10410  21.100  28.472   2.061
38882W        W10411  21.799  34.410  13.650
38883W        W10412  19.779  44.745   2.386
38884W        W10413  41.805  25.158  12.510
38885W        W10414  35.344  35.275  11.163
38886W        W10415  23.752   8.062  11.565
38887W        W10416  33.612  38.405   4.000
38888W        W10417   5.236   6.181   2.168
38889W        W10418   8.283  30.835  10.567
38890W        W10419  22.379  44.091  11.157
38891W        W10420  27.554  19.326   4.571
38892W        W10421  20.591   4.890  10.581
38893W        W10422  33.848  31.020  11.949
38894W        W10423   0.497  30.982   4.104
38895W        W10424   3.997  17.222   3.470
38896W        W10425  17.077  30.728   3.189
38897W        W10426  38.773  43.141  13.074
38898W        W10427   8.926  38.640   1.831
38899W        W10428   4.052   1.744   1.668
38900W        W10429  13.884   1.694  11.747
38901W        W10430   8.725   3.963  11.456
38902W        W10431  43.411  36.691   0.991
38903W        W10432  19.692  27.382  14.914
38904W        W10433  22.048  22.613   0.465
38905W        W10434  29.445  41.559   4.109
38906W        W10435   6.408   7.706   0.366
38907W        W10436  14.150  42.556  12.022
38908W        W10437  30.695   4.315   2.757
38909W        W10438  12.564  43.897  12.075
38910W        W10439  35.141  30.492  10.314
38911W        W10440  28.195  32.005   4.573
38912W        W10441  23.920   5.804  14.821
38913W        W10442  38.883  14.394   2.503
38914W        W10443   0.167  12.734  11.031
38915W        W10444  33.619  44.853  11.093
38916W        W10445  41.504   1.003  14.463
38917W        W10446  41.921  22.391   3.268
38918W        W10447  26.383  23.481   1.918
38919W        W10448  25.732   3.842  11.984
38920W        W10449  15.791  43.235  11.993
38921W        W10450  11.631  38.097  12.826
38922W        W10451  24.403   6.936  14.328
38923W        W10452   0.475  13.014   0.949
38924W        W10453  28.168  24.045  10.633
38925W        W10454  15.750  38.474   0.083
38926W        W10455  26.131   6.722  11.950
38927W        W10456   6.412  44.371   2.272
38928W        W10457  33.572  37.446   0.291
38929W        W10458  23.524  36.169  13.539
38930W        W10459  32.299  12.553   4.287
38931W        W10460  13.345  10.146   0.369
38932W        W10461   6.696  44.890  12.219
38933W        W10462  29.906  17.597  11.677
38934W        W10463  13.988  33.923  10.580
38935W        W10464  21.190  38.885   4.129
38936W        W10465  40.925  23.106   1.441
38937W        W10466  10.717   7.902   1.435
38938W        W10467  11.281  23.583   1.560
38939W        W10468  30.481  42.872   3.328
38940W        W10469  42.585  12.136  11.536
38941W        W10470  17.102   5.790   4.580
38942W        W10471  11.289  32.934  12.072
38943W        W10472  16.543  24.709  14.460
38944W        W10473  14.785  41.464   0.758
38945W        W10474  29.993  16.630   1.359
38946W        W10475   8.221  33.003   3.313
38947W        W10476  13.125  44.994   3.193
38948W        W10477  23.963  43.693   4.122
38949W        W10478   7.284  44.821  12.073
38950W        W10479  24.449   5.573   2.033
38951W        W10480  25.426  44.499   0.189
38952W        W10481  30.427  39.328   4.651
38953W        W10482  15.300  25.452   0.879
38954W        W10483  30.704  34.019  12.996
38955W        W10484  34.393  33.199  11.292
38956W        W10485  32.278  31.138   0.744
38957W        W10486  32.506  20.250   3.282
38958W        W10487  38.459   4.426   3.030
38959W        W10488  37.799  13.209  11.575
38960W        W10489  14.166  40.648  11.308
38961W        W10490  16.801  21.569  10.896
38962W        W10491  44.245  30.047  12.359
38963W        W10492   8.150  44.523  10.406
38964W        W10493  33.852  30.872  11.456
38965W        W10494  21.075   2.308   1.927
38966W        W10495  18.626  25.528  11.386
38967W        W10496  21.070  29.531   4.568
38968W        W10497  31.588  34.463   4.663
38969W        W10498  35.360   4.316  12.579
38970W        W10499   2.356  38.330  11.673
38971W        W10500  20.119  23.854  14.007
38972W        W10501  15.623   0.330   1.350
38973W        W10502   5.581  21.671   2.692
38974W        W10503  21.170  44.304   0.596
38975W        W10504  35.584  11.739   4.116
38976W        W10505  11.721  21.734   0.190
38977W        W10506  33.293  37.537  11.509
38978W        W10507   6.055  38.983  14.330
38979W        W10508  10.823   8.517   2.221
38980W        W10509  26.504   3.105   2.524
38981W        W10510  38.386  37.542  14.298
38982W        W10511   2.600   3.695  12.872
38983W        W10512   3.660  30.600  13.370
38984W        W10513  37.945   0.858   4.328
38985W        W10514   3.832  27.854   4.061
38986W        W10515  22.156  24.014  14.033
38987W        W10516  28.355  39.787  11.998
38988W        W10517  38.860   8.377   2.606
38989W        W10518  31.524  40.623  13.074
38990W        W10519   1.556  33.419   3.366
38991W        W10520  11.700  31.183  11.048
38992W        W10521  15.046  26.024  12.477
38993W        W10522  34.348   8.723   2.877
38994W        W10523  44.881  10.312   0.951
38995W        W10524  35.487  17.604   4.124
38996W        W10525   0.773  32.425   0.741
38997W        W10526  42.870  23.081  12.953
38998W        W10527   9.148  28.732   2.645
38999W        W10528  30.401  14.384  12.493
39000W        W10529  36.416   8.391   0.848
39001W        W10530   0.463  40.058  11.113
39002W        W10531  13.657  35.920   4.538
39003W        W10532  41.952  16.855  12.899
39004W        W10533   9.235  19.096   0.934
39005W        W10534  42.888  42.872  12.912
39006W        W10535   6.306   6.910  12.498
39007W        W10536  43.405  36.638   4.422
39008W        W10537  41.453  42.537   0.487
39009W        W10538   6.049  44.478  12.065
39010W        W10539  18.214  25.266  11.596
39011W        W10540  21.524  12.803  14.471
39012W        W10541   2.204  33.069  12.980
39013W        W10542  26.150  34.796   1.365
39014W        W10543  19.730  35.926   1.191
39015W        W10544  22.641  19.681  12.639
39016W        W10545  39.584  38.960  10.799
39017W        W10546   3.802  25.526   2.271
39018W        W10547   9.225   6.634  11.146
39019W        W10548  38.373   7.819   4.515
39020W        W10549  15.889  31.356   1.802
39021W        W10550  26.748   9.239   0.547
39022W        W10551  33.658  24.281  12.440
39023W        W10552   3.803  29.881   3.990
39024W        W10553  41.589  32.858  12.076
39025W        W10554  33.956  14.123  14.915
39026W        W10555  11.873  21.978   3.230
39027W        W10556  29.528  19.403   3.590
39028W        W10557   8.212   1.870  13.968
39029W        W10558  20.268  39.818   2.583
39030W        W10559   0.828  21.738   2.418
39031W        W10560  42.455  41.446  11.163
39032W        W10561  29.630  37.870   1.872
39033W        W10562   3.296  22.030   1.861
39034W        W10563   9.365  23.453   1.642
39035W        W10564  35.233  13.230  12.216
39036W        W10565  17.283  22.298   3.353
39037W        W10566   4.895  34.166   3.799
39038W        W10567   2.611  44.411   1.395
39039W        W10568  18.785  29.448  14.359
39040W        W10569   9.241  18.106  13.628
39041W        W10570   6.848  32.052   0.232
39042W        W10571  20.127  24.620  13.582
39043W        W10572  30.138  18.556   1.730
39044W        W10573  35.481   2.860   4.817
39045W        W10574  30.048  35.135  12.265
39046W        W10575  34.450  23.518  11.576
39047W        W10576  17.022  39.068  12.367
39048W        W10577   8.919  26.472  14.558
39049W        W10578   8.666   9.047  10.700
39050W        W10579  13.225  22.713  12.253
39051W        W10580  32.471   4.465   3.140
39052W        W10581   4.189   9.496   0.944
39053W        W10582  31.279  41.563   2.210
39054W        W10583  11.562   1.048   0.283
39055W        W10584   6.349  13.070   3.664
39056W        W10585  22.512   7.872   4.258
39057W        W10586  42.846   1.463   0.845
39058W        W10587  21.738   0.398  14.870
39059W        W10588  12.385  42.027  11.994
39060W        W10589   7.528  25.914   1.946
39061W        W10590  21.146   2.516   0.182
39062W        W10591   5.449  11.864   3.145
39063W        W10592  24.547  42.240  13.022
39064W        W10593   1.441  15.876   0.315
39065W        W10594  17.493   0.789   1.772
39066W        W10595  33.212  31.075  14.181
39067W        W10596  14.758   3.864   4.570
39068W        W10597  43.157  29.644   4.544
39069W        W10598  20.751  35.071  10.581
39070W        W10599  35.430  17.346  13.921
39071W        W10600  34.988  14.596  13.390
39072W        W10601  43.097  32.135  10.670
39073W        W10602  22.542   6.612   4.597
39074W        W10603  18.299   6.613   1.099
39075W        W10604  27.012  37.942  14.385
39076W        W10605  41.308  34.930   2.388
39077W        W10606   3.920  36.069  14.250
39078W        W10607  16.244  42.813  10.656
39079W        W10608  28.661  10.688   0.995
39080W        W10609   0.068  23.572   1.419
39081W        W10610  32.686  29.484  11.473
39082W        W10611   2.006  22.496  14.335
39083W        W10612  44.860  40.323   0.327
39084W        W10613  29.115  10.700   0.221
39085W        W10614  17.688  27.994   1.823
39086W        W10615  29.415   8.959  14.764
39087W        W10616  30.153  12.890   2.666
39088W        W10617  24.550  35.096  13.476
39089W        W10618  43.312  30.626  11.196
39090W        W10619  25.313   1.157   0.833
39091W        W10620  13.242  33.095   0.680
39092W        W10621  19.632  32.535   4.665
39093W        W10622  44.828  19.528   4.112
39094W        W10623  31.426   0.469   2.926
39095W        W10624  17.198   1.323  10.743
39096W        W10625  12.729  29.642   2.243
39097W        W10626   9.929  32.607   2.278
39098W        W10627  13.277   0.270   2.678
39099W        W10628  12.590  37.495   0.945
39100W        W10629  43.940   6.274   2.742
39101W        W10630  25.491  21.768   3.226
39102W        W10631  25.453   9.973   4.229
39103W        W10632  42.830  21.059  10.670
39104W        W10633  25.041  35.575   3.896
39105W        W10634  33.476  41.460  13.079
39106W        W10635  17.748  37.214   3.410
39107W        W10636  44.900  11.314  14.536
39108W        W10637  32.286   6.804  10.670
39109W        W10638  43.504  37.157   4.474
39110W        W10639  12.082  12.762   1.767
39111W        W10640  40.431  14.115  11.718
39112W        W10641  29.038  26.077   2.413
39113W        W10642  14.161   7.910  13.495
39114W        W10643  23.279   8.234   4.512
39115W        W10644  12.967  26.695   4.305
39116W        W10645  27.435  40.973   1.147
39117W        W10646  38.621   6.959  11.501
39118W        W10647  24.505   2.875  12.115
39119W        W10648  39.037   6.823   4.173
39120W        W10649  23.206  39.540   3.139
39121W        W10650  38.296  17.277   3.954
39122W        W10651  38.528  33.044  13.375
39123W        W10652   4.436   3.902   1.136
39124W        W10653  23.084  42.272  14.877
39125W        W10654  16.152  39.779  13.391
39126W        W10655  15.701   2.807   2.204
39127W        W10656   3.742  12.214  14.635
39128W        W10657   8.290   1.878  12.981
39129W        W10658  30.267  42.254   0.816
39130W        W10659  16.338  14.258   2.236
39131W        W10660  33.738  18.147  13.141
39132W        W10661  25.184  41.985  14.900
39133W        W10662  28.919  32.591  14.789
39134W        W10663   7.795  30.474   4.509
39135W        W10664   9.113  38.831   3.332
39136W        W10665  35.943  16.739  14.868
39137W        W10666   0.903   4.703   4.704
39138W        W10667  28.466  19.184   3.070
39139W        W10668  37.736  18.629   0.638
39140W        W10669  21.125   1.380  11.213
39141W        W10670  41.746   6.386   4.084
39142W        W10671  44.820  40.931   3.482
39143W        W10672  15.220  43.037  10.580
39144W        W10673   1.206  11.812  11.565
39145W        W10674  26.551   9.801  11.405
39146W        W10675  42.008  21.255   2.711
39147W        W10676  28.974   1.596   3.823
39148W        W10677  10.560  10.780  10.664
39149W        W10678  30.925  16.097  13.011
39150W        W10679  19.273   8.195   3.336
39151W        W10680  43.358  35.646   4.694
39152W        W10681  14.263   6.965  11.897
39153W        W10682  26.890   0.834   1.710
39154W        W10683  44.582  11.260  10.330
39155W        W10684  32.414  31.566  14.530
39156W        W10685  38.608  31.861   1.960
39157W        W10686   7.789  41.762  13.119
39158W        W10687  34.449  35.566   2.087
39159W        W10688  41.276  31.680  14.367
39160W        W10689  13.956   6.261   1.741
39161W        W10690  36.064  44.870  14.889
39162W        W10691  12.901   9.243  11.567
39163W        W10692   6.857   8.219   0.871
39164W        W10693  25.470  18.819  13.090
39165W        W10694  25.899   5.640   4.048
39166W        W10695  44.436  11.161   2.706
39167W        W10696  17.046  41.909  14.827
39168W        W10697  17.163  19.321   4.395
39169W        W10698  21.226  27.990   0.888
39170W        W10699  26.998  25.050   4.093
39171W        W10700  34.135  24.807   3.723
39172W        W10701  18.634  18.585   1.425
39173W        W10702  14.749  19.146   3.620
39174W        W10703  18.561  25.104   3.660
39175W        W10704  33.174  39.324   4.265
39176W        W10705  12.184   5.690   0.423
39177W        W10706  37.054  18.879  11.445
39178W        W10707  33.696   8.231   0.769
39179W        W10708  33.872  23.412   2.413
39180W        W10709   8.042  24.646  12.494
39181W        W10710  22.196  42.807  13.901
39182W        W10711  15.571   7.328   1.014
39183W        W10712  25.801  29.599   4.206
39184W        W10713   1.008  34.967   2.142
39185W        W10714  15.668  32.484  12.049
39186W        W10715   1.937   9.394   0.428
39187W        W10716  33.840  21.807   0.312
39188W        W10717   5.406   2.908  14.994
39189W        W10718   1.584  26.265  10.911
39190W        W10719   8.405  44.711   3.590
39191W        W10720  42.337   1.443   4.537
39192W        W10721  25.443   2.693   1.635
39193W        W10722   4.439  31.437   2.892
39194W        W10723  15.350  26.609   3.562
39195W        W10724  18.190   2.142  12.839
39196W        W10725  13.909  43.392   1.577
39197W        W10726  24.967   6.291   3.157
39198W        W10727  22.246  35.474  13.309
39199W        W10728  23.048  11.750   3.186
39200W        W10729  40.459  33.677   1.664
39201W        W10730  20.228   1.385  13.260
39202W        W10731  31.429  13.581   0.303
39203W        W10732   8.856  40.900  13.220
39204W        W10733   8.346  30.510  13.579
39205W        W10734  25.610   7.624   4.527
39206W        W10735  41.460   5.990   3.916
39207W        W10736  16.378  26.657  13.102
39208W        W10737  13.154  13.570   0.240
39209W        W10738  18.703  43.682   3.301
39210W        W10739  25.179  38.414   0.478
39211W        W10740  41.573  32.962  13.465
39212W        W10741   9.456  36.889   0.954
39213W        W10742  36.462  37.919   2.366
39214W        W10743  20.726   3.907   0.274
39215W        W10744  37.937   9.189   0.508
39216W        W10745  19.494  22.015   0.291
39217W        W10746  41.450  42.496  14.057
39218W        W10747  37.539  36.587  10.594
39219W        W10748  25.949  40.213  13.915
39220W        W10749  25.103  36.069  11.416
39221W        W10750  36.094  27.727  14.629
39222W        W10751  37.073  30.223  11.110
39223W        W10752  38.082  14.341   0.871
39224W        W10753  12.276  37.916  13.533
39225W        W10754  21.760  28.475  13.571
39226W        W10755  42.755   9.859  14.003
39227W        W10756  42.270  25.735   3.391
39228W        W10757  10.531  23.117   1.984
39229W        W10758   4.350  41.804  14.429
39230W        W10759  33.570  33.073   3.253
39231W        W10760  12.554  38.899   1.063
39232W        W10761  41.344   5.506   3.701
39233W        W10762   7.142  24.194   0.441
39234W        W10763  43.939  30.721   4.965
39235W        W10764  15.163  29.239  11.089
39236W        W10765   8.908  27.267   3.228
39237W        W10766  36.827  15.414   2.270
39238W        W10767  37.900  32.148   5.046
39239W        W10768  25.769  23.670  12.940
39240W        W10769  32.040  44.450   0.759
39241W        W10770  24.677  37.613  12.525
39242W        W10771  41.833  28.195   4.091
39243W        W10772  24.110  22.741   0.000
39244W        W10773   1.724  44.502  11.328
39245W        W10774  18.200  40.961   4.111
39246W        W10775  33.014   6.669   4.020
39247W        W10776  20.541  11.123   2.226
39248W        W10777  13.858  34.819   0.477
39249W        W10778  34.043   1.846  14.586
39250W        W10779  37.055  12.171  12.060
39251W        W10780   6.538  43.599   3.304
39252W        W10781   9.205  14.806   1.232
39253W        W10782   0.507  35.943   0.483
39254W        W10783  29.067  39.521   1.376
39255W        W10784  39.607  42.107  12.479
39256W        W10785  25.067  32.512   0.294
39257W        W10786  38.175   5.232  14.400
39258W        W10787   4.454  10.869   4.614
39259W        W10788  16.341  26.240  11.627
39260W        W10789   7.253  20.814  14.537
39261W        W10790  38.947  27.927  12.170
39262W        W10791  37.453  10.701   4.603
39263W        W10792  23.905  12.764   0.806
39264W        W10793  34.211  25.986   2.804
39265W        W10794  29.830  12.272  10.994
39266W        W10795  23.907  31.840   3.146
39267W        W10796  14.513  31.635   4.134
39268W        W10797  30.736  30.825   2.082
39269W        W10798  15.565  41.216  11.249
39270W        W10799  16.882   4.468  14.351
39271W        W10800  18.257   6.301  11.183
39272W        W10801   3.301  23.267   1.356
39273W        W10802  40.490  37.489   1.172
39274W        W10803  28.611  19.825   3.727
39275W        W10804  44.120  23.339   1.931
39276W        W10805  12.555   4.730   2.308
39277W        W10806  14.331   1.789   4.685
39278W        W10807  33.374  38.305  10.828
39279W        W10808  30.095  24.731   4.025
39280W        W10809  10.640  40.355  12.417
39281W        W10810  23.943  39.946  11.687
39282W        W10811   4.737  32.211  12.502
39283W        W10812  28.605   3.831  11.145
39284W        W10813  35.785  13.885   3.659
39285W        W10814  25.119  44.536  11.959
39286W        W10815  35.453  30.889   0.942
39287W        W10816  32.337   1.635  13.909
39288W        W10817  30.444  27.502   1.875
39289W        W10818  38.904  17.229  10.752
39290W        W10819  44.518   3.945   0.267
39291W        W10820   2.218  14.800  14.964
39292W        W10821  21.751   1.360   0.652
39293W        W10822  30.594  11.878   4.987
39294W        W10823  14.815  31.097   1.380
39295W        W10824  31.375  16.484   0.716
39296W        W10825   8.783  28.395  12.109
39297W        W10826   7.049  12.578  11.128
39298W        W10827  28.904  34.148   1.758
39299W        W10828  10.775   9.961  12.614
39300W        W10829  31.917  10.862   1.000
39301W        W10830  41.733   6.719   4.549
39302W        W10831  10.040  27.455  13.991
39303W        W10832  14.656  13.389  12.932
39304W        W10833  20.668  20.128   3.239
39305W        W10834  32.159  40.027   3.073
39306W        W10835  14.464  23.562   4.715
39307W        W10836   5.254  31.934  11.960
39308W        W10837  11.701  17.096   4.451
39309W        W10838   7.987  34.898   0.419
39310W        W10839  15.980  11.086  14.928
39311W        W10840  28.157  23.183  11.682
39312W        W10841  39.469  41.584  12.070
39313W        W10842   6.600  34.993  13.990
39314W        W10843  10.766   1.989  11.552
39315W        W10844  24.054  35.379   0.223
39316W        W10845  39.390  32.619   3.643
39317W        W10846  44.360  28.398   2.075
39318W        W10847   6.146   8.243   1.948
39319W        W10848  44.833   6.596  11.119
39320W        W10849  41.140  12.411  12.946
39321W        W10850  13.126   0.010   1.409
39322W        W10851  31.978  15.118  11.332
39323W        W10852  11.734  38.454  13.375
39324W        W10853  11.519   3.275   4.736
39325W        W10854  18.166  37.416  10.705
39326W        W10855  25.341   8.342   2.304
39327W        W10856  44.516  29.391   0.054
39328W        W10857  40.329  21.257   2.188
39329W        W10858  14.520  28.695  14.284
39330W        W10859   5.278   5.716  10.791
39331W        W10860   0.470  19.981   2.088
39332W        W10861   4.981  23.432   2.173
39333W        W10862  44.033  35.623   0.364
39334W        W10863   2.237  37.841  10.779
39335W        W10864  36.606  26.921  13.503
39336W        W10865  34.923  12.908  11.780
39337W        W10866  28.159  29.052  13.291
39338W        W10867   3.110   7.541   4.209
39339W        W10868  10.584  11.857  13.461
39340W        W10869  10.405  33.764   0.464
39341W        W10870   0.475  43.787   0.121
39342W        W10871  41.274  25.518  11.212
39343W        W10872  13.960   8.653   1.474
39344W        W10873  31.021   7.851   2.174
39345W        W10874   0.764   6.323  14.555
39346W        W10875  24.421  38.867   2.736
39347W        W10876   7.902  16.355  13.481
39348W        W10877  21.000  17.734   2.746
39349W        W10878  19.770  21.446   4.795
39350W        W10879   2.329  26.125  14.818
39351W        W10880  44.325  36.857  14.943
39352W        W10881  11.704  27.637  13.361
39353W        W10882   0.505  35.095   1.383
39354W        W10883   8.332  37.537   0.560
39355W        W10884  11.679  42.448  13.667
39356W        W10885  43.957   6.048   1.786
39357W        W10886  14.802  28.427  10.685
39358W        W10887  15.024  40.379  10.522
39359W        W10888  12.375  29.657  13.514
39360W        W10889  44.378  12.623   0.261
39361W        W10890  11.505  23.251   3.130
39362W        W10891  18.652  29.946   3.659
39363W        W10892  22.508  17.742  14.468
39364W        W10893  44.583  41.992  11.609
39365W        W10894  36.456   0.891   2.206
39366W        W10895  23.934  32.127   2.266
39367W        W10896  31.976  33.331  13.307
39368W        W10897  17.678  32.853   4.145
39369W        W10898  37.997  35.077  11.481
39370W        W10899   3.145  12.312  12.422
39371W        W10900  34.471  12.093  14.758
39372W        W10901  28.994  34.192   4.031
39373W        W10902  41.954   8.382  11.000
39374W        W10903  10.230   6.879   4.971
39375W        W10904  22.766  37.830   3.387
39376W        W10905  29.014  43.971  10.892
39377W        W10906   8.912  44.477   2.374
39378W        W10907   3.356  37.232   1.964
39379W        W10908  31.893  40.491   2.312
39380W        W10909  43.675  19.690  12.961
39381W        W10910  40.546  13.890   1.134
39382W        W10911  19.636   1.946   1.229
39383W        W10912  26.240  32.957   2.819
39384W        W10913  33.852  40.969  11.591
39385W        W10914   8.654   1.197  12.033
39386W        W10915  30.400   6.062  11.998
39387W        W10916  30.634   7.928  12.867
39388W        W10917  41.375   4.983  11.524
39389W        W10918  12.959  37.619  12.525
39390W        W10919   0.422  36.980  13.162
39391W        W10920  11.296  12.107   2.765
39392W        W10921  25.280  43.298  11.223
39393W        W10922  23.436  23.126  11.969
39394W        W10923   3.238  23.511   3.177
39395W        W10924  42.897  21.300  14.350
39396W        W10925  40.084  18.959   4.776
39397W        W10926  35.248  13.490   0.398
39398W        W10927  10.144  13.736   0.786
39399W        W10928  35.935   3.431  10.991
39400W        W10929  26.154  25.663   0.813
39401W        W10930  10.301  39.069  12.436
39402W        W10931  11.562  17.796  11.173
39403W        W10932  23.790   2.971  11.569
39404W        W10933  42.507  36.239   1.765
39405W        W10934   4.318  35.638  12.577
39406W        W10935  14.202  14.044  11.953
39407W        W10936  41.420  22.078  14.362
39408W        W10937  38.409  23.481   2.223
39409W        W10938   4.900  15.229  10.942
39410W        W10939  25.584  29.993  11.501
39411W        W10940   4.125  31.797   4.526
39412W        W10941  24.294  38.224   2.153
39413W        W10942  23.097  29.113   1.335
39414W        W10943  21.792  20.094  13.932
39415W        W10944   1.881  18.407   2.556
39416W        W10945   4.917  20.805  12.747
39417W        W10946  21.131  30.336  10.206
39418W        W10947  39.490  13.724   2.879
39419W        W10948  38.586  42.184  13.976
39420W        W10949   9.205  12.867  11.148
39421W        W10950   1.255  42.733  14.699
39422W        W10951  22.295  41.390  13.906
39423W        W10952   8.108   8.730  12.165
39424W        W10953  30.192  42.270  10.426
39425W        W10954   4.872  22.493   0.598
39426W        W10955  39.474  21.949   1.174
39427W        W10956  41.548  38.982   1.435
39428W        W10957  41.551  34.313  11.210
39429W        W10958   5.419  19.955  11.123
39430W        W10959  24.183  34.048   0.841
39431W        W10960  15.699  42.349  13.004
39432W        W10961  24.432  13.761   3.112
39433W        W10962  24.231   0.976  12.462
39434W        W10963  26.836  22.753  11.225
39435W        W10964   7.323   2.653   3.252
39436W        W10965  28.545   5.335  13.498
39437W        W10966  35.874  39.029  10.635
39438W        W10967  38.473  38.588   2.653
39439W        W10968  24.645   2.127  11.723
39440W        W10969  29.043  20.212   1.263
39441W        W10970  21.577  40.979  13.011
39442W        W10971  23.879  17.430   2.831
39443W        W10972   4.465  11.927   4.680
39444W        W10973  12.405  14.679  14.866
39445W        W10974   8.209  43.660  13.548
39446W        W10975   0.955   0.768   2.261
39447W        W10976  42.481   9.692  11.624
39448W        W10977  28.629  12.149  13.915
39449W        W10978  15.103   0.974  10.726
39450W        W10979  15.704  17.268   3.621
39451W        W10980  13.540  15.632   2.709
39452W        W10981   4.981   1.987  10.670
39453W        W10982  21.084  16.970  14.848
39454W        W10983  13.726  38.999  14.825
39455W        W10984   5.538  34.099  12.152
39456W        W10985  13.602  27.471  13.406
39457W        W10986  15.214  32.861   1.929
39458W        W10987  31.474  26.227  11.990
39459W        W10988   3.870   0.289  12.452
39460W        W10989   8.400   2.522   2.727
39461W        W10990   7.016  12.277   3.695
39462W        W10991  23.433  20.794   3.668
39463W        W10992  41.947  16.749  14.389
39464W        W10993  18.129  25.603  13.089
39465W        W10994  28.541   1.946   2.549
39466W        W10995  13.939   7.633  10.180
39467W        W10996  21.591  36.386   4.861
39468W        W10997   1.761  13.184   3.641
39469W        W10998  28.133  14.879   4.218
39470W        W10999  21.301  21.155   4.110
39471W        W11000  27.784  20.121  11.619
39472W        W11001  41.443   0.235   2.229
39473W        W11002  29.202  40.948   0.842
39474W        W11003   0.553  43.514   4.877
39475W        W11004  28.641  23.755  11.005
39476W        W11005   4.876  34.478   4.659
39477W        W11006  20.316  10.333   4.694
39478W        W11007  19.606   5.350   1.368
39479W        W11008  33.856  34.600  12.950
39480W        W11009  19.338  29.107   1.938
39481W        W11010  36.405  23.700   4.648
39482W        W11011  19.745  34.318  13.536
39483W        W11012   0.218  39.455   3.716
39484W        W11013  13.947  17.428   0.558
39485W        W11014  14.045  21.658   2.623
39486W        W11015  41.754  40.399   3.259
39487W        W11016  11.591  44.322  14.630
39488W        W11017   0.744  13.132  12.667
39489W        W11018  30.889  40.264   0.695
39490W        W11019   3.255  17.012  11.660
39491W        W11020  14.629   0.761   0.315
39492W        W11021  27.851  26.760   2.241
39493W        W11022   7.757  44.938  11.877
39494W        W11023  17.554  36.315  12.662
39495W        W11024  44.938  42.937   3.385
39496W        W11025   4.819  27.447   4.200
39497W        W11026   3.638  14.818   1.356
39498W        W11027   5.367  42.598   4.960
39499W        W11028  39.514  37.498   3.630
39500W        W11029  18.244  43.791  13.380
39501W        W11030   3.222   0.436  14.448
39502W        W11031  36.654  16.771   1.296
39503W        W11032  42.007  25.427  10.739
39504W        W11033   3.719  31.288  13.941
39505W        W11034  13.000  27.218  13.389
39506W        W11035  38.953  17.489  10.308
39507W        W11036  21.198   1.696  11.646
39508W        W11037  13.250   6.674  13.757
39509W        W11038   4.057  11.391   4.148
39510W        W11039   4.446  39.996  13.582
39511W        W11040  40.484  44.425   4.624
39512W        W11041  35.615  39.849  14.761
39513W        W11042  11.456  15.340  10.674
39514W        W11043   2.294  23.323  13.329
39515W        W11044  33.183  14.150  12.193
39516W        W11045  22.621  23.070   1.880
39517W        W11046  31.634  35.531   3.693
39518W        W11047  26.415  27.424   4.072
39519W        W11048  26.621  35.378   0.203
39520W        W11049  33.428  21.316   0.302
39521W        W11050   7.609  38.052   0.259
39522W        W11051  13.424  38.844  14.420
39523W        W11052  28.543  35.427   1.927
39524W        W11053  14.140   1.986  10.495
39525W        W11054  18.538  15.878   4.167
39526W        W11055  19.229  35.346  11.857
39527W        W11056  43.286   4.451   4.397
39528W        W11057  12.923  33.600   9.947
39529W        W11058   2.001  43.020  14.504
39530W        W11059   9.122  26.652  11.076
39531W        W11060   1.726  33.826   3.655
39532W        W11061   8.295   4.701   2.837
39533W        W11062  37.329   7.087  12.484
39534W        W11063   6.649  38.315  13.780
39535W        W11064   1.314  37.234  11.630
39536W        W11065  23.196  29.656  12.002
39537W        W11066  38.485   4.746   4.116
39538W        W11067  31.583  23.925  12.966
39539W        W11068  40.318  10.779  10.839
39540W        W11069  15.654  16.771   3.763
39541W        W11070   7.214  40.082  13.079
39542W        W11071   9.268  25.173  14.736
39543W        W11072  44.060  20.144   2.386
39544W        W11073  41.595  21.513  14.293
39545W        W11074   2.226  40.065   3.130
39546W        W11075   1.195   4.068   0.683
39547W        W11076  12.731  40.743   0.443
39548W        W11077   4.779   7.882  11.195
39549W        W11078  21.428  27.165   4.495
39550W        W11079  25.656   7.125  10.744
39551W        W11080  42.767  19.134  11.615
39552W        W11081  14.650  37.403  13.508
39553W        W11082   0.157   5.210   3.422
39554W        W11083  39.750   7.142  14.383
39555W        W11084  28.187  37.540  10.329
39556W        W11085   1.582  26.836   0.031
39557W        W11086  27.114  38.332  13.450
39558W        W11087  10.270  31.260  12.573
39559W        W11088   6.928  24.042  13.992
39560W        W11089   5.575  42.376   1.375
39561W        W11090  19.557  27.812   0.435
39562W        W11091  13.369   8.186  10.700
39563W        W11092   8.703  38.409   0.460
39564W        W11093  16.486  18.591   3.249
39565W        W11094  20.820  17.830  13.576
39566W        W11095  17.454  38.643  14.718
39567W        W11096   3.414  23.785  14.324
39568W        W11097  13.950  33.574   2.796
39569W        W11098  23.465  31.476   1.265
39570W        W11099  25.668   8.276   3.705
39571W        W11100  41.114  29.135   1.388
39572W        W11101  14.152  24.049  14.411
39573W        W11102  34.043   9.098   3.676
39574W        W11103  36.612  13.556   0.368
39575W        W11104  16.600   4.738   1.406
39576W        W11105  39.933  30.703   2.452
39577W        W11106  12.548  26.453   4.125
39578W        W11107   9.095  28.120  12.481
39579W        W11108   8.190  21.641   3.332
39580W        W11109   3.747   9.834   2.844
39581W        W11110   7.514  37.479   3.878
39582W        W11111  17.070  13.838   1.263
39583W        W11112  35.641  36.101  14.506
39584W        W11113  19.493  27.206   2.442
39585W        W11114   2.694  17.025  13.430
39586W        W11115  14.036   0.933  10.658
39587W        W11116  20.638  12.438   3.402
39588W        W11117  23.516  32.893  12.078
39589W        W11118  11.730  37.536  11.055
39590W        W11119   6.893   9.897   3.436
39591W        W11120   1.225  16.781   3.125
39592W        W11121  37.483  40.711  12.584
39593W        W11122  34.853  18.262  10.618
39594W        W11123  18.248   5.155   4.543
39595W        W11124  26.744  20.410   1.872
39596W        W11125   9.720  27.662   3.858
39597W        W11126  38.500  21.257   4.248
39598W        W11127  17.998  22.274  11.301
39599W        W11128  35.594  19.157  13.979
39600W        W11129  36.850  32.018  13.415
39601W        W11130   6.370  18.522   3.579
39602W        W11131  10.917  36.256   2.461
39603W        W11132  32.855  24.164  14.237
39604W        W11133  25.113  35.806  13.411
39605W        W11134  36.175  33.105   3.649
39606W        W11135  16.311  23.456   3.980
39607W        W11136  19.469  31.857   1.289
39608W        W11137  12.038  12.673  13.892
39609W        W11138   7.378   4.882   2.430
39610W        W11139   0.407  39.810   2.827
39611W        W11140   2.601  24.999  11.764
39612W        W11141  34.110  34.349   3.883
39613W        W11142  13.384  15.413  14.791
39614W        W11143  35.112  23.165  12.716
39615W        W11144  41.122  35.965   1.717
39616W        W11145   7.387  30.962   0.534
39617W        W11146  15.047  23.904  14.468
39618W        W11147  40.039  21.258   1.745
39619W        W11148  13.262  21.583   3.693
39620W        W11149  38.818   3.934   4.520
39621W        W11150   5.255   9.766  11.999
39622W        W11151  28.631   5.925   3.584
39623W        W11152  14.250  44.774  13.938
39624W        W11153  30.334  12.274   0.521
39625W        W11154  28.509  30.989   1.892
39626W        W11155   9.595  35.554   3.823
39627W        W11156  40.025  43.462  14.788
39628W        W11157  15.555  18.494  13.785
39629W        W11158  16.559   5.447  14.380
39630W        W11159  30.661  20.289  13.138
39631W        W11160  21.757  39.344   2.345
39632W        W11161  24.602  39.471  11.005
39633W        W11162   9.830  11.282   4.718
39634W        W11163   5.604   5.874   4.700
39635W        W11164  34.390  16.038   0.147
39636W        W11165   9.176   7.804   0.966
39637W        W11166   4.890  30.108  10.117
39638W        W11167  24.104  31.949  11.812
39639W        W11168  15.623  34.081  11.497
39640W        W11169   7.987  24.049  10.677
39641W        W11170  25.439  28.831   1.417
39642W        W11171  12.839  24.672  11.486
39643W        W11172  21.694  32.857  12.052
39644W        W11173  27.920   9.314  10.396
39645W        W11174  16.760  25.399  10.758
39646W        W11175  29.345   9.879   4.534
39647W        W11176  32.066  32.475   0.244
39648W        W11177  30.993  43.799  12.800
39649W        W11178  23.673  12.893  13.928
39650W        W11179   2.376  41.085   0.451
39651W        W11180  41.542  13.664  14.290
39652W        W11181  40.404  35.313  13.416
39653W        W11182   3.788   7.625  12.855
39654W        W11183  11.106   7.799   1.792
39655W        W11184  19.692   5.689   1.784
39656W        W11185  12.823  43.560  12.597
39657W        W11186  27.099  14.612   1.301
39658W        W11187  39.960   6.938  14.841
39659W        W11188  27.566  14.283   1.842
39660W        W11189  23.642  29.204   2.908
39661W        W11190   7.192  32.288   4.592
39662W        W11191  31.805   1.767   0.370
39663W        W11192  22.514  40.551   2.604
39664W        W11193  30.093  40.363  12.942
39665W        W11194  16.235  38.262  14.289
39666W        W11195   3.439  18.458   0.283
39667W        W11196  10.456  26.483   2.901
39668W        W11197   9.242  24.396  13.475
39669W        W11198  40.797  19.968  13.439
39670W        W11199  18.818   9.561   2.859
39671W        W11200  20.713  39.920  13.136
39672W        W11201   2.024   2.055  11.183
39673W        W11202  11.151   3.204   2.348
39674W        W11203  11.219  20.775   3.404
39675W        W11204  30.717  17.753  14.410
39676W        W11205  42.036  20.159  13.039
39677W        W11206  19.341  44.822  13.631
39678W        W11207  39.769  42.261   0.335
39679W        W11208   5.153  34.985   0.004
39680W        W11209  40.519   8.827  12.223
39681W        W11210  25.696  36.433   1.669
39682W        W11211  31.132  19.051  14.286
39683W        W11212  22.633  33.473  14.845
39684W        W11213  20.649  26.679   3.892
39685W        W11214  31.475  23.011  13.148
39686W        W11215  43.430  44.136   4.543
39687W        W11216   4.908   2.009  11.538
39688W        W11217  42.918  23.963  11.251
39689W        W11218  18.186  42.156  14.238
39690W        W11219  10.205  12.425  10.535
39691W        W11220  42.461  28.179  12.321
39692W        W11221  11.323  19.226   4.769
39693W        W11222   7.312   7.664   1.202
39694W        W11223   2.742   8.223   1.945
39695W        W11224  13.101  22.592  13.648
39696W        W11225   0.835  31.591  13.940
39697W        W11226  20.299   1.320   0.265
39698W        W11227  21.009   4.690  12.643
39699W        W11228  43.765  29.591   2.405
39700W        W11229  18.503   7.756   2.703
39701W        W11230  43.523  27.926  12.068
39702W        W11231  16.318   6.371   2.949
39703W        W11232  35.615  11.233   0.658
39704W        W11233  21.483  37.840   9.816
39705W        W11234  31.156  36.649   2.932
39706W        W11235  35.048   4.604   1.418
39707W        W11236  23.255  18.108   2.320
39708W        W11237  32.629  39.570   2.051
39709W        W11238  44.436  30.473  12.029
39710W        W11239  23.938   1.851   2.331
39711W        W11240  28.844  38.038   3.844
39712W        W11241  28.115  40.314  13.954
39713W        W11242  12.600  23.931  13.350
39714W        W11243  18.277  12.848  11.663
39715W        W11244  23.522  31.878  14.052
39716W        W11245  23.751   0.781  12.494
39717W        W11246  13.199  22.351   5.003
39718W        W11247  25.896  13.732   3.136
39719W        W11248  40.494  38.781  14.290
39720W        W11249   7.148   9.247   0.367
39721W        W11250  34.393  14.168   0.827
39722W        W11251   1.237  22.204   3.781
39723W        W11252  31.051  23.409  10.245
39724W        W11253  18.673  44.748   3.292
39725W        W11254  29.320   7.880   2.689
39726W        W11255  39.982  43.500  12.856
39727W        W11256  32.142   8.149  13.942
39728W        W11257  21.997   2.877  12.903
39729W        W11258   3.565  44.063   1.725
39730W        W11259  23.016  14.882  14.810
39731W        W11260  38.791  38.359  14.749
39732W        W11261  26.661  38.908   1.291
39733W        W11262  10.227   7.077   1.285
39734W        W11263  43.417   9.745   1.319
39735W        W11264  14.738  33.358   4.623
39736W        W11265  28.743  31.977  11.336
39737W        W11266  26.829  31.178   4.666
39738W        W11267  39.402  35.530  12.949
39739W        W11268  29.143   5.476   3.149
39740W        W11269   5.050  40.471  14.032
39741W        W11270   9.721  26.899   3.336
39742W        W11271  42.932  33.373  12.623
39743W        W11272  26.128  17.548   0.281
39744W        W11273  31.472   9.556   0.854
39745W        W11274  25.427  35.145   1.812
39746W        W11275   2.303   7.679  14.266
39747W        W11276  28.517  34.475   1.904
39748W        W11277  40.074   2.735   4.522
39749W        W11278  21.457  13.130  14.925
39750W        W11279  19.590  33.849   0.401
39751W        W11280   5.132   1.009   3.198
39752W        W11281  11.611  28.455  10.841
39753W        W11282   0.140  39.142   1.332
39754W        W11283  27.633  38.335  10.978
39755W        W11284  32.868  44.687  11.473
39756W        W11285  24.238   2.042   1.211
39757W        W11286  23.442  12.631  11.018
39758W        W11287   5.241  37.646  13.847
39759W        W11288  38.166  14.216   3.255
39760W        W11289  12.284   9.425  14.441
39761W        W11290   9.699  14.797  13.420
39762W        W11291  14.707  31.955  10.675
39763W        W11292   6.409  21.610  13.475
39764W        W11293  43.870  44.818   3.828
39765W        W11294  28.511   4.271   4.884
39766W        W11295  36.608  13.869  13.463
39767W        W11296  21.865  43.787   3.258
39768W        W11297  30.097  37.066   1.100
39769W        W11298  10.875  40.759  11.575
39770W        W11299  37.479  36.458   1.416
39771W        W11300  18.626  30.735   1.244
39772W        W11301  10.801   4.824   3.247
39773W        W11302  18.460  18.158  10.608
39774W        W11303  21.024  40.497  12.188
39775W        W11304  35.790  20.933  14.298
39776W        W11305  42.995   6.322   0.879
39777W        W11306  30.350  40.380  14.747
39778W        W11307  38.052  12.066  14.888
39779W        W11308  40.285  32.059  10.599
39780W        W11309  40.652  10.867  11.232
39781W        W11310  41.312  41.518  11.586
39782W        W11311   8.405  23.548   0.239
39783W        W11312  41.272  31.114  11.583
39784W        W11313  11.669  14.863  12.356
39785W        W11314  25.393  42.783   1.545
39786W        W11315  32.825   7.475   2.877
39787W        W11316  16.255  17.369  13.105
39788W        W11317   1.126  21.633  11.837
39789W        W11318  11.184   6.911  12.530
39790W        W11319  11.752   6.411  13.064
39791W        W11320  26.192  36.874   0.802
39792W        W11321   9.716  17.833   2.747
39793W        W11322   3.663  12.230  14.116
39794W        W11323  16.136  27.394   4.502
39795W        W11324  26.712  26.469   0.635
39796W        W11325  30.447  21.734   0.999
39797W        W11326  25.099  11.553   4.111
39798W        W11327  16.176   9.263  12.063
39799W        W11328  31.499  38.042   2.360
39800W        W11329  42.066  35.503  14.436
39801W        W11330  38.010   8.360  14.092
39802W        W11331   2.082   3.461  13.045
39803W        W11332  27.453  43.939   1.416
39804W        W11333  14.604  14.642   0.312
39805W        W11334  20.507  39.528   2.923
39806W        W11335  43.396  24.214   2.344
39807W        W11336  18.533  15.673  10.694
39808W        W11337  22.124  28.155   4.834
39809W        W11338   4.734  38.291  11.198
39810W        W11339  11.269   2.491   4.821
39811W        W11340   8.138   0.176   3.754
39812W        W11341  21.288  41.367   4.638
39813W        W11342  16.843   3.629   3.254
39814W        W11343  42.646  43.079  13.599
39815W        W11344   6.435  38.478   3.203
39816W        W11345  23.107  23.969   0.983
39817W        W11346  40.557   2.747   4.685
39818W        W11347  37.423  14.526   3.753
39819W        W11348  14.056  13.557  11.098
39820W        W11349  19.343  28.890   2.844
39821W        W11350  18.129  23.610  11.263
39822W        W11351  30.959   2.947  14.350
39823W        W11352  22.997  23.518   0.322
39824W        W11353   4.607   6.382  14.456
39825W        W11354  20.111  13.064  10.629
39826W        W11355  26.675   6.862   3.717
39827W        W11356  41.440  44.434  13.401
39828W        W11357   2.940  10.694  12.361
39829W        W11358   3.444  37.767  14.329
39830W        W11359   6.094  27.671  13.930
39831W        W11360  13.205  39.030  14.965
39832W        W11361  30.847  35.009   2.787
39833W        W11362  15.761  16.821   4.549
39834W        W11363  35.380   1.379   4.576
39835W        W11364  42.561  31.629  14.120
39836W        W11365  44.294   1.942  13.212
39837W        W11366  29.273   9.778   2.551
39838W        W11367  19.330  43.931  11.900
39839W        W11368   8.142  15.715   4.170
39840W        W11369  42.992  15.842   1.220
39841W        W11370  44.054  37.001  12.425
39842W        W11371  18.263  44.853  14.525
39843W        W11372  36.396  31.268  13.622
39844W        W11373   9.671  23.236   0.404
39845W        W11374   7.983  10.202  10.294
39846W        W11375  31.434  10.838   1.234
39847W        W11376  30.383  16.368   2.365
39848W        W11377  40.492  24.095   4.685
39849W        W11378  30.990   9.705  11.550
39850W        W11379  38.488  34.969   3.722
39851W        W11380  23.249  24.155  14.986
39852W        W11381  30.981  20.583  12.816
39853W        W11382   7.247   2.112   2.269
39854W        W11383  40.782  41.606  11.086
39855W        W11384  38.456  32.416   3.134
39856W        W11385   6.720  37.562  13.802
39857W        W11386  21.491  25.290   0.093
39858W        W11387  25.487  40.700   4.138
39859W        W11388  38.131   8.231  11.654
39860W        W11389  23.523  19.858  10.922
39861W        W11390  41.840  37.780   4.531
39862W        W11391  44.544  44.415   3.675
39863W        W11392  13.707  42.512  11.204
39864W        W11393  28.739  14.302   0.942
39865W        W11394   6.313  11.781  13.359
39866W        W11395  27.137  43.357   4.658
39867W        W11396  31.081  30.972   1.197
39868W        W11397  18.755  32.620   2.392
39869W        W11398   0.269  22.524   4.008
39870W        W11399  39.468  11.604  13.044
39871W        W11400  39.799  40.045  13.065
39872W        W11401  25.983  38.958   2.872
39873W        W11402  31.197  30.735   4.136
39874W        W11403  21.183  32.888  12.129
39875W        W11404  35.026   8.941   1.891
39876W        W11405  29.338  31.334   2.267
39877W        W11406  15.079   5.777   1.402
39878W        W11407  44.010  14.298  12.497
39879W        W11408  28.218  40.648   2.321
39880W        W11409  19.663   3.635   1.795
39881W        W11410  16.690  10.879   2.288
39882W        W11411   1.903  20.771   4.661
39883W        W11412   8.851  28.922  12.973
39884W        W11413  24.576  36.035  11.499
39885W        W11414  36.013  23.988   0.851
39886W        W11415  11.295  18.680   0.979
39887W        W11416   8.643  11.234  13.522
39888W        W11417   3.454  27.611   0.769
39889W        W11418  16.081   0.875   3.702
39890W        W11419  15.627  38.513   2.303
39891W        W11420  30.823  42.941   5.196
39892W        W11421   7.365  38.858  13.296
39893W        W11422  31.976  30.794   2.845
39894W        W11423  39.105  25.143  10.731
39895W        W11424   8.769  29.348  14.796
39896W        W11425   4.469  12.261  11.617
39897W        W11426  29.965  28.591   2.979
39898W        W11427  14.882  15.594  13.405
39899W        W11428   9.800  16.163   1.736
39900W        W11429  28.795  13.365   1.700
39901W        W11430  18.049  39.035   4.198
39902W        W11431  36.140  30.958   2.060
39903W        W11432   5.588  44.538  14.949
39904W        W11433  20.219  30.123   3.233
39905W        W11434  13.420  20.981  14.425
39906W        W11435  10.926  10.219   4.521
39907W        W11436  31.847  42.115  12.431
39908W        W11437   9.826  33.236  12.910
39909W        W11438  36.831  26.411  11.164
39910W        W11439  41.522  37.002  11.094
39911W        W11440  32.560   4.435   4.152
39912W        W11441   1.370  23.834   1.846
39913W        W11442  17.892  39.418  14.014
39914W        W11443   9.347   5.479   4.853
39915W        W11444  11.813  15.719  10.731
39916W        W11445  42.357   4.216  13.358
39917W        W11446  17.023  27.114  10.657
39918W        W11447  16.854   5.079   0.506
39919W        W11448   9.763  37.360   2.674
39920W        W11449  30.439  29.627   1.333
39921W        W11450  44.221  42.861  13.727
39922W        W11451  32.421  14.428   3.891
39923W        W11452  43.384  30.100  11.189
39924W        W11453  21.770  28.176  12.614
39925W        W11454  10.655   0.282  14.613
39926W        W11455  16.264  34.429  12.500
39927W        W11456  27.515  35.058  13.316
39928W        W11457  29.444  24.796  11.973
39929W        W11458  39.387  37.667  12.448
39930W        W11459  13.341  24.498   3.672
39931W        W11460  12.098   4.362   4.331
39932W        W11461   6.432  22.783  12.955
39933W        W11462  27.778  14.536   4.315
39934W        W11463  26.713   2.957  14.380
39935W        W11464  27.552   1.177   4.272
39936W        W11465  14.422  26.958   2.789
39937W        W11466  13.319   0.479   4.080
39938W        W11467  29.787  18.698   4.663
39939W        W11468  16.768  30.260   2.324
39940W        W11469  39.918  44.994   1.012
39941W        W11470  20.562  12.348  14.539
39942W        W11471  18.639   3.890  14.653
39943W        W11472  16.027  44.825  12.950
39944W        W11473  34.576  10.843   2.859
39945W        W11474  12.946  24.784   0.288
39946W        W11475  36.284  34.866   4.323
39947W        W11476  29.181  30.867  14.510
39948W        W11477  37.445  36.544  12.364
39949W        W11478  38.519  13.238   3.276
39950W        W11479  36.243  14.321   4.787
39951W        W11480  43.838  11.799   2.182
39952W        W11481   4.224   6.244   2.369
39953W        W11482   6.735   9.200   2.687
39954W        W11483   2.631   7.254   2.881
39955W        W11484  11.165  39.438  12.823
39956W        W11485  33.854  24.060  11.015
39957W        W11486   2.620  31.385  11.058
39958W        W11487  32.640  30.717  12.061
39959W        W11488  43.671   0.938   0.978
39960W        W11489   1.810  39.791  14.395
39961W        W11490  25.678   5.317  11.120
39962W        W11491   2.197  28.059   2.170
39963W        W11492  35.978  27.076  10.901
39964W        W11493  19.592  21.550  11.086
39965W        W11494  14.701  12.229   4.696
39966W        W11495  29.157  30.594  13.832
39967W        W11496   1.943  28.114   2.921
39968W        W11497   5.222   9.913   1.870
39969W        W11498  24.017   3.434  11.706
39970W        W11499   9.454  23.935  13.327
39971W        W11500  38.693  21.019  11.066
39972W        W11501  32.793  28.086   5.555
39973W        W11502  15.398   7.458  10.992
39974W        W11503  38.642  36.746   2.420
39975W        W11504  13.773  24.593   4.626
39976W        W11505  18.856  44.072  12.623
39977W        W11506  29.011  12.869  13.058
39978W        W11507   6.804  24.541  13.946
39979W        W11508  24.298  25.083   0.248
39980W        W11509  28.523  41.481   2.897
39981W        W11510  24.002  40.963  12.584
39982W        W11511  38.387  13.215  13.010
39983W        W11512  13.165  34.539  10.252
39984W        W11513  26.307  26.892   4.143
39985W        W11514  37.447  20.491   2.833
39986W        W11515  13.656  21.964  13.538
39987W        W11516  20.244   5.935   2.797
39988W        W11517   3.325   9.488  12.956
39989W        W11518   2.232  16.506  10.986
39990W        W11519  11.079  26.384  14.988
39991W        W11520  11.629  17.631  11.967
39992W        W11521  22.871  20.256   3.967
39993W        W11522  28.049  37.960   2.849
39994W        W11523  44.147   7.811   0.840
39995W        W11524  28.377  41.102   3.282
39996W        W11525   7.858  33.807  14.947
39997W        W11526  39.100  32.784  12.554
39998W        W11527  14.102  40.135   2.758
39999W        W11528  14.071  30.946  11.056
40000W        W11529  11.760   6.737  11.485
40001W        W11530  26.769  22.171  13.545
40002W        W11531  18.868   7.831  14.852
40003W        W11532  37.608  11.760   3.602
40004W        W11533  21.506  32.936   4.660
40005W        W11534  20.865  38.998  12.962
40006W        W11535  16.427  18.771   0.781
40007W        W11536  38.705  11.853  11.251
40008W        W11537  44.679  21.765  11.382
40009W        W11538  44.844   5.636   4.282
40010W        W11539  41.838   5.822  11.612
40011W        W11540  34.200  37.081   2.232
40012W        W11541   2.173   5.441   2.336
40013W        W11542   4.692  15.867  14.378
40014W        W11543  44.560  42.309   1.858
40015W        W11544   6.174  25.836  12.027
40016W        W11545  19.035  34.503   1.643
40017W        W11546   0.292  26.278   4.054
40018W        W11547  27.218   9.415   2.675
40019W        W11548  30.980  29.626  10.612
40020W        W11549  24.341  37.431   2.540
40021W        W11550  33.596  17.197  14.915
40022W        W11551   3.440  17.774  12.808
40023W        W11552  13.597  39.020   3.744
40024W        W11553   4.355  15.905   4.587
40025W        W11554  19.996  44.570  12.545
40026W        W11555  40.941  41.978   1.906
40027W        W11556  12.724  23.145  10.807
40028W        W11557  15.192  38.836   3.323
40029W        W11558   5.901  16.367   3.128
40030W        W11559  26.005  25.041   1.997
40031W        W11560   4.757   1.134  10.229
40032W        W11561  35.076  22.804  13.975
40033W        W11562  24.707   1.332  13.113
40034W        W11563   1.914  41.977   4.954
40035W        W11564  32.132  14.373   4.336
40036W        W11565  40.554  25.771  11.665
40037W        W11566  43.828   4.911   1.637
40038W        W11567  26.482  44.895  10.728
40039W        W11568  29.967  18.771   4.116
40040W        W11569  38.422  16.925   1.727
40041W        W11570   5.178  32.939  14.509
40042W        W11571   9.721  13.733  11.961
40043W        W11572  35.311  33.504   3.627
40044W        W11573  39.993  21.049  10.501
40045W        W11574   1.439   9.842   0.890
40046W        W11575  34.541   1.696  11.190
40047W        W11576  13.250  27.405  13.805
40048W        W11577  43.317  23.542  13.573
40049W        W11578  13.242   5.770   0.511
40050W        W11579  41.468  28.205   4.501
40051W        W11580   6.944   8.194  12.488
40052W        W11581   9.972  26.488   3.113
40053W        W11582  40.438   9.460   3.633
40054W        W11583  13.119  35.626  14.755
40055W        W11584  23.459  23.264   0.416
40056W        W11585  44.237   6.691  14.317
40057W        W11586  34.301  14.370  11.534
40058W        W11587  35.556  18.591   1.828
40059W        W11588  25.683  25.480   4.016
40060W        W11589  28.966  31.971   2.715
40061W        W11590  29.677  38.343   3.640
40062W        W11591  30.650  33.529  13.722
40063W        W11592  21.815  19.104   3.606
40064W        W11593  20.984  37.665  11.550
40065W        W11594  43.945  44.564   4.820
40066W        W11595   2.035  38.152   4.295
40067W        W11596  24.149  20.070  11.623
40068W        W11597  16.233  12.541   0.860
40069W        W11598  10.346   6.510   0.447
40070W        W11599  11.791  37.445  14.721
40071W        W11600  38.049  35.903   4.980
40072W        W11601  32.493  35.031   4.472
40073W        W11602  37.097  39.202  10.727
40074W        W11603   3.431  18.695   1.888
40075W        W11604  30.816  30.943  12.437
40076W        W11605   5.579  33.405   4.142
40077W        W11606  15.744   7.561   2.931
40078W        W11607  23.531   5.421  11.179
40079W        W11608  27.924   2.298  12.225
40080W        W11609  13.156  36.623   4.798
40081W        W11610   1.780  20.791   0.194
40082W        W11611  19.229  28.682  14.885
40083W        W11612   7.930  33.437   3.120
40084W        W11613  23.989  21.808  10.875
40085W        W11614  13.079  29.036  12.037
40086W        W11615  20.347  30.221  13.229
40087W        W11616  30.516  42.040  12.805
40088W        W11617  24.508  36.636  10.811
40089W        W11618  26.227  20.311   1.290
40090W        W11619  13.193  26.533   0.272
40091W        W11620  19.370   8.791  14.322
40092W        W11621  37.170   3.831  13.060
40093W        W11622  12.722  12.329  10.613
40094W        W11623  32.336  30.636  13.564
40095W        W11624  43.895  35.566   1.467
40096W        W11625  24.492  10.697   3.291
40097W        W11626  42.012   4.485  13.640
40098W        W11627   2.691  44.468  11.807
40099W        W11628   8.061   9.538   3.163
40100W        W11629   3.661  14.839  12.008
40101W        W11630  22.672  29.736  12.938
40102W        W11631  21.943   9.250  13.643
40103W        W11632  11.307   0.492  11.076
40104W        W11633  32.839  34.093   4.036
40105W        W11634  35.291  21.006   9.934
40106W        W11635  36.375  18.782   1.278
40107W        W11636  27.430  40.392  14.916
40108W        W11637  41.859  26.071   3.329
40109W        W11638   7.946  28.852   2.333
40110W        W11639  44.366  39.543   0.251
40111W        W11640  38.823   7.602  13.484
40112W        W11641  41.584  28.119   0.386
40113W        W11642  39.834  10.810   1.504
40114W        W11643  34.558  22.834  14.334
40115W        W11644  43.742   5.687   2.112
40116W        W11645  39.399  12.729  11.994
40117W        W11646  26.230   5.238   4.082
40118W        W11647  12.929   5.349   0.263
40119W        W11648  16.246   7.876   1.036
40120W        W11649  39.424  18.220   2.627
40121W        W11650  35.238   2.806  12.879
40122W        W11651   2.232  32.100  11.230
40123W        W11652  21.964  26.260   2.659
40124W        W11653  37.987  38.401   0.295
40125W        W11654  19.278  23.513   3.171
40126W        W11655  16.009  41.967  11.106
40127W        W11656  30.561  30.477   1.752
40128W        W11657   0.210  17.625  14.936
40129W        W11658  21.937  19.402   2.711
40130W        W11659  17.350   4.675  14.524
40131W        W11660  36.002  35.581  11.552
40132W        W11661   9.199  26.636  14.993
40133W        W11662   6.298  12.126  12.099
40134W        W11663  38.864  14.890   0.404
40135W        W11664   2.835  32.137   3.714
40136W        W11665  28.720   3.722   0.929
40137W        W11666  30.772  20.165  12.009
40138W        W11667  11.838  25.633  14.058
40139W        W11668  10.819  31.257  11.787
40140W        W11669  21.072  22.167   4.608
40141W        W11670  43.789  23.668  13.343
40142W        W11671  26.484  43.344   1.729
40143W        W11672   9.099  29.044  11.533
40144W        W11673  36.418  44.768  11.706
40145W        W11674  11.865  44.468  11.042
40146W        W11675  21.899   9.493  11.132
40147W        W11676  14.988  42.615  12.111
40148W        W11677  18.091  15.399  13.793
40149W        W11678  20.651  33.505  10.812
40150W        W11679  33.553  34.451   5.114
40151W        W11680  21.651  19.557   4.522
40152W        W11681   8.488  40.296  11.586
40153W        W11682   5.872  37.780   3.183
40154W        W11683  15.635  23.542   3.406
40155W        W11684  36.547  35.576   3.777
40156W        W11685  43.259   3.116   1.005
40157W        W11686  22.286  15.675   3.649
40158W        W11687  13.602  17.616   1.805
40159W        W11688  26.362  16.580   1.268
40160W        W11689   3.015  29.301   3.649
40161W        W11690   7.663   6.404   0.649
40162W        W11691  32.645  21.462  11.081
40163W        W11692  15.064  10.136  14.731
40164W        W11693   0.992  22.942  11.084
40165W        W11694  21.835  24.159   0.898
40166W        W11695  37.300  42.183   5.034
40167W        W11696  28.616  24.126   2.436
40168W        W11697  24.149  12.454  10.577
40169W        W11698  15.746  29.177  13.923
40170W        W11699  29.421  42.806  12.587
40171W        W11700  14.402   2.706  14.043
40172W        W11701  42.630  26.468  10.106
40173W        W11702  13.279  37.500   4.839
40174W        W11703  42.486  27.148  10.854
40175W        W11704  21.150   4.937   3.782
40176W        W11705  41.996  11.425  11.846
40177W        W11706  21.060  12.681  14.288
40178W        W11707  28.464   3.854  12.084
40179W        W11708  26.196  30.052   4.508
40180W        W11709  35.988  25.678   0.395
40181W        W11710  33.838  25.621  14.561
40182W        W11711  30.641  10.112   1.170
40183W        W11712  19.420   4.208  13.060
40184W        W11713  30.602  39.819   9.724
40185W        W11714  14.375  20.010  12.450
40186W        W11715   7.886  21.501  10.891
40187W        W11716  32.616  15.732   0.211
40188W        W11717  16.070  29.867   4.576
40189W        W11718  13.673  32.079   2.505
40190W        W11719  33.794  15.309   0.572
40191W        W11720  40.107  11.572  13.569
40192W        W11721  33.171  32.375   4.612
40193W        W11722   2.341  15.565  11.947
40194W        W11723  37.138   7.636   3.178
40195W        W11724  18.070  31.684  10.438
40196W        W11725  43.477  20.619  12.087
40197W        W11726   3.124  34.976  11.924
40198W        W11727  10.283  15.293   4.932
40199W        W11728  16.586  39.516  12.501
40200W        W11729  19.163  26.707   4.066
40201W        W11730  20.479  42.766   3.656
40202W        W11731   0.967  27.133   0.904
40203W        W11732   7.347  20.079   2.741
40204W        W11733  16.772  40.947  14.319
40205W        W11734  30.812  23.822  13.545
40206W        W11735  20.220   0.474  10.627
40207W        W11736  33.942  41.334   3.626
40208W        W11737  25.072  24.968  13.750
40209W        W11738   1.837  33.119  13.860
40210W        W11739  12.774  37.938  11.688
40211W        W11740  19.635   9.743  14.754
40212W        W11741  27.135  33.695  11.721
40213W        W11742  44.979  40.808  11.922
40214W        W11743  30.019  29.437  13.806
40215W        W11744  12.643  31.562   4.106
40216W        W11745  39.528  25.851   0.304
40217W        W11746  41.526   0.019   1.773
40218W        W11747  26.010  35.019  14.995
40219W        W11748  20.000  23.688  14.865
40220W        W11749  20.063  42.149  12.400
40221W        W11750  10.529  12.405  14.024
40222W        W11751   3.986  43.923  13.618
40223W        W11752   6.343  39.588   4.252
40224W        W11753   8.158  16.771  11.577
40225W        W11754   4.821  43.896  12.036
40226W        W11755   4.835  43.797   4.301
40227W        W11756  39.122  41.182  14.997
40228W        W11757   4.145  32.110  12.905
40229W        W11758  29.882  15.067  11.622
40230W        W11759  28.322  32.010   0.411
40231W        W11760   2.189  13.175   4.870
40232W        W11761  43.963  20.511   1.827
40233W        W11762  23.429  20.524   0.369
40234W        W11763  23.273   7.265  13.617
40235W        W11764  18.084  17.866  13.304
40236W        W11765  25.982  22.155   4.753
40237W        W11766  10.345   6.343  13.861
40238W        W11767  33.730  35.452   4.712
40239W        W11768   0.902   0.943  12.480
40240W        W11769  26.425  17.261  11.062
40241W        W11770  36.946   4.907   3.740
40242W        W11771  29.087  20.892   2.430
40243W        W11772  30.452  19.366  12.248
40244W        W11773  10.295  33.000  12.176
40245W        W11774  21.180   1.086   4.244
40246W        W11775   1.941  22.476   1.310
40247W        W11776   7.370  12.505   3.988
40248W        W11777   7.324  35.026  14.743
40249W        W11778   6.270   3.292   5.200
40250W        W11779  12.347  14.423   4.059
40251W        W11780  42.515  27.636   1.499
40252W        W11781  32.413  20.219  14.438
40253W        W11782  36.641   8.330   2.455
40254W        W11783  27.774  39.354  11.175
40255W        W11784  37.330  26.965  14.380
40256W        W11785  19.124  14.335   4.372
40257W        W11786  11.839   8.867  14.288
40258W        W11787   9.205  44.237  14.338
40259W        W11788   4.320  16.283  13.802
40260W        W11789  30.629  25.424   1.555
40261W        W11790  28.610   7.476   2.164
40262W        W11791  44.832  40.036   2.609
40263W        W11792  19.509  15.846  13.929
40264W        W11793   4.456   9.873   3.623
40265W        W11794  21.876  12.800  13.309
40266W        W11795  18.161  26.190  10.878
40267W        W11796  44.961  10.183   2.509
40268W        W11797  41.458  25.224   0.010
40269W        W11798   9.362  19.719   4.011
40270W        W11799  31.702  12.891   3.183
40271W        W11800   4.235  31.755  11.892
40272W        W11801  29.471  14.514   1.651
40273W        W11802  41.768  15.838   3.135
40274W        W11803  13.129   7.186  11.563
40275W        W11804   5.807  16.059   1.214
40276W        W11805  14.512   0.453   1.122
40277W        W11806  26.943  14.837   0.875
40278W        W11807  25.114  28.036  14.997
40279W        W11808  37.072  35.804  14.054
40280W        W11809   8.526  12.022  12.252
40281W        W11810  35.671  22.470   0.684
40282W        W11811   5.271  37.512  11.420
40283W        W11812  29.551   1.772   4.601
40284W        W11813  10.436  42.899  11.095
40285W        W11814   6.372  29.904  11.203
40286W        W11815  35.478  28.883   3.425
40287W        W11816   4.494  10.204  12.101
40288W        W11817  11.893   8.292   1.713
40289W        W11818  38.593  28.894   3.283
40290W        W11819  41.923  24.339  13.914
40291W        W11820  37.366   2.717   2.242
40292W        W11821  22.379   3.940  12.451
40293W        W11822  22.047   1.753   3.342
40294W        W11823  28.528  10.952  11.259
40295W        W11824  31.970   0.049   3.244
40296W        W11825  42.875  19.975   0.002
40297W        W11826  42.425  32.349  11.820
40298W        W11827   0.722  21.561  13.544
40299W        W11828   4.893   2.622   1.551
40300W        W11829   3.868  38.851  14.065
40301W        W11830   6.318  35.651   0.405
40302W        W11831  40.755  28.652   2.759
40303W        W11832  31.629  29.880   2.929
40304W        W11833  14.109  32.067  12.859
40305W        W11834  42.893  41.011  11.126
40306W        W11835  16.269  29.906   0.924
40307W        W11836  39.991  28.182   2.831
40308W        W11837   7.600  39.716   0.011
40309W        W11838  21.755  28.537  14.477
40310W        W11839  35.418  17.333   0.323
40311W        W11840   6.112  37.906  13.829
40312W        W11841  13.658   9.290  11.120
40313W        W11842  25.575   4.406  13.856
40314W        W11843   9.346  17.717  10.857
40315W        W11844   5.207  27.487   0.756
40316W        W11845  29.547  40.281   1.309
40317W        W11846  40.890   9.931   4.462
40318W        W11847  25.553  44.044  14.384
40319W        W11848  14.461   4.110  13.522
40320W        W11849   3.065  29.021  14.813
40321W        W11850  14.101  14.556   0.372
40322W        W11851   6.644   2.356  12.855
40323W        W11852   8.613  17.078  12.857
40324W        W11853  34.968   8.416  10.997
40325W        W11854  27.346   1.166   1.718
40326W        W11855  10.915  30.164   2.290
40327W        W11856   5.210  20.228   0.463
40328W        W11857  24.224   1.406   2.196
40329W        W11858  42.432  17.084  12.981
40330W        W11859  33.845  19.798   1.361
40331W        W11860   1.468  38.556  11.356
40332W        W11861  14.158  17.554   1.048
40333W        W11862  21.954  38.165  10.163
40334W        W11863  44.916  26.523  12.395
40335W        W11864  31.691  40.861   4.605
40336W        W11865  38.901  19.715   3.106
40337W        W11866  10.189  31.617   4.009
40338W        W11867  40.432   4.935  12.408
40339W        W11868  27.022   7.075  11.043
40340W        W11869  11.655  30.607  14.845
40341W        W11870  11.862  21.025   5.228
40342W        W11871   6.180  10.396   0.297
40343W        W11872  11.097  24.006   3.636
40344W        W11873  22.496  10.113  14.581
40345W        W11874  40.523  24.011   2.755
40346W        W11875   3.377   8.800   3.826
40347W        W11876  29.708  13.185   1.777
40348W        W11877  35.149   7.705  12.472
40349W        W11878  43.897  16.153  14.530
40350W        W11879  16.641  22.246   2.028
40351W        W11880  41.422  21.527   1.787
40352W        W11881  20.776  37.729  14.825
40353W        W11882  12.048  38.944   1.103
40354W        W11883  15.572  41.532  11.690
40355W        W11884  23.216  14.263   0.505
40356W        W11885  19.859   1.421   4.276
40357W        W11886  36.863  35.581  11.925
40358W        W11887   9.751  42.351  10.848
40359W        W11888  42.084  13.719  14.363
40360W        W11889   3.734  26.873   2.241
40361W        W11890  12.890   2.072   3.121
40362W        W11891  16.204   7.600   0.011
40363W        W11892  17.890  35.877  14.047
40364W        W11893  20.295  13.649   0.106
40365W        W11894  14.107  17.779   3.343
40366W        W11895  16.038  40.535   3.248
40367W        W11896  11.129  33.055   3.105
40368W        W11897  24.125  10.894   3.623
40369W        W11898  11.769  14.058   0.497
40370W        W11899   5.263  40.806  12.373
40371W        W11900   1.247  24.672   1.713
40372W        W11901  40.469  32.996  13.467
40373W        W11902   5.155  13.274  11.703
40374W        W11903  17.265  42.330   0.005
40375W        W11904  23.421  14.849   2.821
40376W        W11905   6.790   1.161  11.456
40377W        W11906   0.232  11.327   0.902
40378W        W11907   4.113  29.294   2.299
40379W        W11908  20.283  10.273  11.624
40380W        W11909   4.658  36.483  13.832
40381W        W11910  19.279   8.110  12.084
40382W        W11911   5.629   2.263  14.026
40383W        W11912  16.615  17.089  12.880
40384W        W11913   1.729  26.214   3.184
40385W        W11914  23.470   3.734  11.663
40386W        W11915  16.138  17.391  10.669
40387W        W11916  44.429  41.810  11.144
40388W        W11917  25.923  36.517  10.754
40389W        W11918  40.348  23.641  12.668
40390W        W11919   6.941   5.290  14.405
40391W        W11920   9.347  34.280   3.500
40392W        W11921  41.654  10.604   2.093
40393W        W11922   8.636  36.463  11.111
40394W        W11923   6.382  36.551   1.579
40395W        W11924   0.930   1.866   2.366
40396W        W11925  31.253   4.652  14.816
40397W        W11926  15.491  26.456  14.845
40398W        W11927   2.036  37.596  13.100
40399W        W11928  44.499   3.417  11.998
40400W        W11929  19.675   4.435  12.663
40401W        W11930   0.135   7.407  12.293
40402W        W11931  21.547  40.823  11.415
40403W        W11932  19.160  39.760   1.685
40404W        W11933  25.013  42.813  10.516
40405W        W11934  44.089  31.866  14.946
40406W        W11935  39.480  38.478  12.385
40407W        W11936  35.011   3.363  14.113
40408W        W11937   8.021  27.990  13.342
40409W        W11938   8.153  20.723   3.616
40410W        W11939  41.895   0.440  13.622
40411W        W11940  43.777  37.896   0.722
40412W        W11941  39.505  27.986   2.706
40413W        W11942  35.679  24.517  13.414
40414W        W11943  29.138  30.050  12.533
40415W        W11944  22.305  15.548  13.914
40416W        W11945  31.471   5.568   3.686
40417W        W11946  28.907  27.203   1.375
40418W        W11947   6.151  25.450  13.445
40419W        W11948  41.467  15.606  14.826
40420W        W11949  25.581  30.583   2.383
40421W        W11950  22.501  27.062  14.933
40422W        W11951   1.083  10.253  10.659
40423W        W11952  44.334   7.682  13.489
40424W        W11953  12.096  28.187  11.128
40425W        W11954  18.037   8.616   2.770
40426W        W11955  27.866   7.954  11.755
40427W        W11956   0.848  33.844   1.333
40428W        W11957  14.198   5.144  12.530
40429W        W11958  36.439   6.045   1.040
40430W        W11959  11.299  12.367   3.209
40431W        W11960  36.295  15.103  14.906
40432W        W11961  12.727  19.820   1.244
40433W        W11962  24.560  32.669   0.297
40434W        W11963  41.043  23.634  12.126
40435W        W11964  27.892  36.142  11.481
40436W        W11965  42.050  21.665  14.518
40437W        W11966  14.202  13.800   4.033
40438W        W11967  14.141  30.753  10.387
40439W        W11968  27.400  19.474   2.672
40440W        W11969   8.010  43.232  13.837
40441W        W11970  38.245  16.180   0.702
40442W        W11971   4.701  41.019   2.214
40443W        W11972  44.800  40.532  12.867
40444W        W11973  37.267   3.898   0.854
40445W        W11974  41.326  40.880   4.592
40446W        W11975   7.310   5.845  12.696
40447W        W11976  20.214  29.138   1.642
40448W        W11977   1.333  35.866  11.929
40449W        W11978   9.403   8.127   0.249
40450W        W11979  23.545  17.179  12.072
40451W        W11980  21.769  28.000   1.792
40452W        W11981  24.000  11.200  12.004
40453W        W11982  20.258  36.875   3.239
40454W        W11983  17.694  17.357   1.403
40455W        W11984   7.839  27.184  14.312
40456W        W11985   6.255  41.985  10.819
40457W        W11986  31.991  26.869  13.981
40458W        W11987  26.914   7.790  13.772
40459W        W11988   0.316  31.452  14.006
40460W        W11989  21.077   5.670   1.474
40461W        W11990   2.369   1.734  10.451
40462W        W11991  33.574  35.407   2.809
40463W        W11992  29.090  32.334   4.713
40464W        W11993  31.488  30.043   0.916
40465W        W11994  15.671  11.744  14.404
40466W        W11995  40.371  10.126   2.738
40467W        W11996   7.466  42.886   1.835
40468W        W11997  38.590  24.308   2.033
40469W        W11998  41.826  22.078   0.532
40470W        W11999  37.245  28.404  14.812
40471W        W12000  27.498  27.003   4.666
40472W        W12001  15.866  34.439   0.293
40473W        W12002  11.241  39.138   0.788
40474W        W12003  14.405   7.693   0.415
40475W        W12004   0.366   3.676  12.461
40476W        W12005  20.235  38.283  11.039
40477W        W12006  21.552  30.652  10.422
40478W        W12007  42.659  36.057  14.867
40479W        W12008  30.700  11.184  12.898
40480W        W12009  41.848  27.698   4.256
40481W        W12010   3.561  35.259  12.642
40482W        W12011  38.322  26.669  14.452
40483W        W12012  36.442   7.488  13.352
40484W        W12013  33.049  24.397  12.403
40485W        W12014  22.631  42.685   3.275
40486W        W12015  18.774  13.413  12.085
40487W        W12016   8.193  33.410   0.936
40488W        W12017  20.509  10.848   4.122
40489W        W12018  36.440  19.755   1.312
40490W        W12019  21.307  38.586  13.906
40491W        W12020   5.012  24.981   4.140
40492W        W12021  36.046  36.418   3.563
40493W        W12022  40.249   7.929  11.204
40494W        W12023  34.140  10.619   1.187
40495W        W12024  33.440  42.951   2.840
40496W        W12025  16.661  21.313  10.257
40497W        W12026  40.168   7.418   3.266
40498W        W12027  33.072   2.451   1.253
40499W        W12028  23.761  16.369  10.570
40500W        W12029  24.585  42.080   4.764
40501W        W12030   6.179  36.485  14.811
40502W        W12031  24.663   5.516  14.842
40503W        W12032  23.229   6.332  12.968
40504W        W12033  10.055  22.780   2.816
40505W        W12034   5.457   2.865  12.973
40506W        W12035  42.881  15.873   1.753
40507W        W12036  31.082  20.241   3.263
40508W        W12037  11.157  35.944   0.519
40509W        W12038  28.794  29.414   1.766
40510W        W12039  10.414  16.618   1.430
40511W        W12040  10.581  35.547   4.063
40512W        W12041   4.317  40.559  14.834
40513W        W12042   7.640   3.800  12.076
40514W        W12043  10.822  36.077  11.216
40515W        W12044  44.731   0.036  11.130
40516W        W12045  31.258  27.460   2.874
40517W        W12046  21.244  38.823   1.346
40518W        W12047  22.667  41.957   2.797
40519W        W12048  38.530  11.519  12.375
40520W        W12049  11.044  19.687  11.604
40521W        W12050  39.807  29.600   1.261
40522W        W12051   1.372  13.790  11.941
40523W        W12052  44.097  14.365   1.820
40524W        W12053  15.826   1.036  13.539
40525W        W12054  17.884  21.030   4.155
40526W        W12055  23.458   0.829  11.540
40527W        W12056   5.089  16.717   0.867
40528W        W12057  36.297  21.570  12.499
40529W        W12058   6.718  17.093  12.349
40530W        W12059   1.219  42.507  12.821
40531W        W12060  36.121  37.258  12.716
40532W        W12061   4.845  19.780  10.692
40533W        W12062  35.145  15.021   1.769
40534W        W12063  17.824  28.755  11.090
40535W        W12064  33.448   1.405  11.626
40536W        W12065  44.786  29.794   3.686
40537W        W12066  27.455  25.876   4.052
40538W        W12067  14.258  11.081  13.031
40539W        W12068  18.610  11.713   4.295
40540W        W12069  32.709   2.585   3.835
40541W        W12070  30.862   9.886  11.033
40542W        W12071  20.050  11.611   4.203
40543W        W12072  29.241   2.977  11.345
40544W        W12073  43.388  20.709  11.579
40545W        W12074  15.013  20.068   3.209
40546W        W12075  27.380  22.012  13.839
40547W        W12076  30.878  10.982   4.966
40548W        W12077   9.106  31.988  12.946
40549W        W12078  27.674  44.509  14.917
40550W        W12079  20.741   6.406   4.186
40551W        W12080   8.193  11.883  10.734
40552W        W12081  38.405   8.684  11.887
40553W        W12082   3.064  34.478   0.347
40554W        W12083  20.735  43.972   0.170
40555W        W12084  16.735   3.222  11.320
40556W        W12085   0.442  17.296  11.064
40557W        W12086  18.940  18.173  12.962
40558W        W12087   9.288  22.911   0.398
40559W        W12088   2.917  20.099  14.623
40560W        W12089  20.205  40.594   0.447
40561W        W12090   8.318  13.602   0.853
40562W        W12091  28.467  33.864   1.737
40563W        W12092  36.547   7.183   4.547
40564W        W12093   4.977  17.965   1.385
40565W        W12094   9.917  24.069  10.433
40566W        W12095   6.407   2.550   0.221
40567W        W12096  33.504  12.384  14.851
40568W        W12097  33.504  12.817  12.027
40569W        W12098  38.463  15.971  10.732
40570W        W12099  21.142  27.510   2.154
40571W        W12100  27.838  10.288   0.762
40572W        W12101  17.702  20.016  10.436
40573W        W12102  29.742  25.791   4.174
40574W        W12103  27.663   7.651  10.511
40575W        W12104  19.152  11.172  11.626
40576W        W12105  17.069   9.829   0.323
40577W        W12106  17.209  37.532  13.719
40578W        W12107   5.819  18.626  12.481
40579W        W12108  36.962   2.295  14.350
40580W        W12109  33.253  37.802   0.083
40581W        W12110  31.619  40.108  13.047
40582W        W12111  40.531  27.912   0.894
40583W        W12112   0.754  24.509  12.031
40584W        W12113  29.518  43.540   3.694
40585W        W12114  28.945   8.893  12.865
40586W        W12115  35.895  12.768  10.884
40587W        W12116   9.863  39.449  14.348
40588W        W12117  20.234   8.911   3.293
40589W        W12118  32.912  26.965   0.639
40590W        W12119  19.965  15.509  12.054
40591W        W12120  12.429   0.262  13.740
40592W        W12121  36.657  20.430  11.509
40593W        W12122  14.714  17.666  14.921
40594W        W12123  29.162  36.075  11.158
40595W        W12124  18.765  37.353   0.478
40596W        W12125   9.868  10.621   0.435
40597W        W12126  43.329  37.302  14.770
40598W        W12127  41.442  26.972  10.505
40599W        W12128  14.278  38.942   2.367
40600W        W12129   0.862  27.930   3.654
40601W        W12130  19.185  35.331   2.391
40602W        W12131  19.254  24.647   4.595
40603W        W12132  20.634  33.154   4.306
40604W        W12133  26.524   0.037   1.428
40605W        W12134   4.786   5.883   3.131
40606W        W12135  44.694  28.872  14.769
40607W        W12136   9.981  10.181   0.748
40608W        W12137  40.629  39.538  11.532
40609W        W12138  11.518   4.805   2.468
40610W        W12139   0.489  17.019  11.522
40611W        W12140  37.511   8.404   0.344
40612W        W12141   7.488  27.465  12.451
40613W        W12142  25.058  25.472   2.003
40614W        W12143  35.732   5.370  13.836
40615W        W12144  17.525  44.359   0.785
40616W        W12145  17.044  37.951   3.214
40617W        W12146  10.664   9.541  14.090
40618W        W12147  38.300  25.251   3.614
40619W        W12148  34.875  38.280   0.986
40620W        W12149  23.625   9.131   4.482
40621W        W12150  19.176  21.122   4.554
40622W        W12151   2.847  17.531   3.008
40623W        W12152  30.322  20.199  14.637
40624W        W12153  29.668  44.837  12.143
40625W        W12154   0.472   0.899  11.083
40626W        W12155  12.962  20.666   4.742
40627W        W12156   0.031  44.074  12.736
40628W        W12157  40.770  14.368   3.569
40629W        W12158  28.115  26.408  11.088
40630W        W12159   0.391  41.843  10.962
40631W        W12160  12.706   8.208  13.349
40632W        W12161  30.034  26.601  11.115
40633W        W12162  26.647   7.830   1.248
40634W        W12163  41.039  18.962  14.480
40635W        W12164  10.715  18.784  13.290
40636W        W12165   9.745   0.748   3.057
40637W        W12166  13.224  12.517   0.016
40638W        W12167  30.180  33.597  13.931
40639W        W12168  38.628  25.487  13.056
40640W        W12169  31.551  38.149   0.000
40641W        W12170  36.656  36.923  14.760
40642W        W12171  24.714  20.076   0.696
40643W        W12172  29.010  14.698  11.181
40644W        W12173   8.910  44.654   3.703
40645W        W12174   4.300  12.089   0.900
40646W        W12175  31.793  42.928   1.104
40647W        W12176  10.495  19.682  10.769
40648W        W12177  12.154  42.325   4.100
40649W        W12178  11.582  18.782   4.720
40650W        W12179  43.406  43.656   3.661
40651W        W12180  13.825   5.491  12.488
40652W        W12181  32.234  43.397  12.896
40653W        W12182   6.081  29.147   4.179
40654W        W12183  32.132   3.314   0.915
40655W        W12184  32.123   5.627   1.697
40656W        W12185  44.841  20.807   2.838
40657W        W12186  33.093  12.581   3.892
40658W        W12187  36.956  38.095   4.532
40659W        W12188   9.620  29.018  11.522
40660W        W12189  26.147  37.100   2.754
40661W        W12190  30.869   8.583  14.303
40662W        W12191  19.699   5.769   0.287
40663W        W12192  38.706  39.015   1.222
40664W        W12193  12.371  24.748  13.056
40665W        W12194  36.079   6.936   3.813
40666W        W12195  12.228  33.998  11.145
40667W        W12196  14.539  14.256  11.034
40668W        W12197  28.966  35.091   5.020
40669W        W12198  42.017  25.863  13.953
40670W        W12199  11.427  43.460  10.352
40671W        W12200  24.647  21.929   4.151
40672W        W12201  14.315  22.323   0.169
40673W        W12202  33.507  30.720  12.568
40674W        W12203   7.412  10.354  13.487
40675W        W12204  11.129  41.015  11.949
40676W        W12205  43.011  43.309   2.784
40677W        W12206  21.972  28.139  11.048
40678W        W12207  13.060  43.924  12.333
40679W        W12208  32.541  21.777   4.231
40680W        W12209   9.250   2.098  14.754
40681W        W12210   0.473  15.273   3.132
40682W        W12211  34.292  19.524   2.243
40683W        W12212  26.977   9.722  11.668
40684W        W12213  34.423   2.901   0.324
40685W        W12214  14.843  28.185   2.161
40686W        W12215  33.175  35.975  11.048
40687W        W12216  31.404   0.076   2.557
40688W        W12217  40.352  35.683   2.877
40689W        W12218  24.533  36.188  10.547
40690W        W12219   9.887  39.651   4.162
40691W        W12220   7.385  20.560  10.881
40692W        W12221  17.618  44.263  13.838
40693W        W12222  19.551  42.815   1.233
40694W        W12223  20.523  17.288   1.631
40695W        W12224  41.605  29.411   2.361
40696W        W12225  22.518  11.950  12.514
40697W        W12226  19.263  25.985  12.364
40698W        W12227   6.017  11.826  14.713
40699W        W12228  30.302  41.369  12.182
40700W        W12229  31.412   6.320   1.930
40701W        W12230   2.684   6.311  12.436
40702W        W12231   2.835   2.226  12.401
40703W        W12232  13.816  18.805  12.182
40704W        W12233   6.247  19.640  11.105
40705W        W12234  10.889  35.380  12.372
40706W        W12235  22.324  19.503  10.959
40707W        W12236  42.707  27.653  13.446
40708W        W12237  41.702  32.209   9.715
40709W        W12238  35.870  19.932  14.428
40710W        W12239   1.042  40.392  12.444
40711W        W12240  41.204  19.799  13.135
40712W        W12241  24.194  40.426   1.461
40713W        W12242  36.812  10.650   3.871
40714W        W12243   6.596  28.762  10.570
40715W        W12244  12.009  24.532   1.360
40716W        W12245  34.650  20.594  12.117
40717W        W12246  29.058  19.117   2.380
40718W        W12247   5.603   5.943  11.169
40719W        W12248  37.326  18.043  12.526
40720W        W12249  43.806  26.330  10.628
40721W        W12250   9.351  36.382  14.947
40722W        W12251  15.644  17.316  11.325
40723W        W12252  32.344  18.586   0.455
40724W        W12253  36.247   2.870   4.991
40725W        W12254  20.494   6.447   2.313
40726W        W12255  37.267  44.888   3.210
40727W        W12256  29.171  41.521  13.520
40728W        W12257  10.653  21.252   0.949
40729W        W12258  24.011  18.999   1.761
40730W        W12259  32.837  12.738   1.918
40731W        W12260  15.426  42.899   3.739
40732W        W12261  13.782  33.829   0.407
40733W        W12262  37.981   2.633  10.826
40734W        W12263  19.597  40.356   2.647
40735W        W12264  21.044  11.204  14.907
40736W        W12265  16.085  37.627  12.048
40737W        W12266  26.501  25.435   4.924
40738W        W12267  12.179  23.080  10.725
40739W        W12268  21.830  13.470  11.119
40740W        W12269  11.326   4.254  11.669
40741W        W12270   5.335  32.080  14.412
40742W        W12271   6.782  41.084   0.466
40743W        W12272  21.960  35.790  14.948
40744W        W12273   2.141   1.304  14.320
40745W        W12274  17.837  24.976   4.102
40746W        W12275  43.387  31.201  13.865
40747W        W12276   3.449   3.746  11.639
40748W        W12277   5.123  25.772  12.498
40749W        W12278  21.674  22.785  12.902
40750W        W12279  13.626  28.141  11.460
40751W        W12280  29.439  25.033   3.668
40752W        W12281  20.125  15.215   0.037
40753W        W12282  19.530  25.088   4.671
40754W        W12283  21.274  35.433   4.086
40755W        W12284   8.813  42.008  11.215
40756W        W12285  19.140   3.365  11.629
40757W        W12286  38.352  10.349  13.556
40758W        W12287  26.722  41.274   3.142
40759W        W12288  30.235  36.662  12.531
40760W        W12289   9.587  30.528  10.572
40761W        W12290  31.132   7.472  12.403
40762W        W12291  26.460   7.607   1.816
40763W        W12292   5.328  36.398   1.868
40764W        W12293   5.714   8.407  11.958
40765W        W12294   5.935  38.299   3.237
40766W        W12295  34.663  42.976   2.307
40767W        W12296  23.404  41.955   1.023
40768W        W12297   9.726  33.341  14.374
40769W        W12298   5.560   5.074  12.459
40770W        W12299  38.452  38.800  11.635
40771W        W12300   0.885  33.435   0.410
40772W        W12301  29.088  27.421   4.270
40773W        W12302  36.346   5.554  12.044
40774W        W12303  37.601  41.979  12.821
40775W        W12304  17.528  16.657  11.665
40776W        W12305  33.950   0.014  13.947
40777W        W12306  42.769  33.562  13.594
40778W        W12307  13.833   5.279  14.957
40779W        W12308  22.392   5.735  10.703
40780W        W12309  25.129   7.665   4.713
40781W        W12310  41.136  25.089   3.211
40782W        W12311  24.075  20.232   2.363
40783W        W12312  19.974  19.097   3.555
40784W        W12313  42.723  24.033   4.544
40785W        W12314  15.672  44.457   1.310
40786W        W12315  44.768  40.013  12.708
40787W        W12316  35.371  10.317  10.665
40788W        W12317  34.889  26.026   4.050
40789W        W12318  38.448  30.678   2.396
40790W        W12319  19.096  23.664  13.324
40791W        W12320  37.535  16.525   1.416
40792W        W12321  22.220  42.915   3.625
40793W        W12322  10.076  22.253   0.386
40794W        W12323  17.277  24.503  13.247
40795W        W12324  24.183  10.005  14.236
40796W        W12325   9.542  29.572  11.583
40797W        W12326  42.950  42.805   4.010
40798W        W12327   5.769  34.153   3.650
40799W        W12328  44.799  18.253  11.479
40800W        W12329  43.757   7.691  12.027
40801W        W12330  13.223  22.617  11.207
40802W        W12331  26.987  20.993   2.477
40803W        W12332  38.583  40.055   4.977
40804W        W12333  42.786  14.755   4.153
40805W        W12334  24.583  23.176  14.315
40806W        W12335  34.007  18.691  13.927
40807W        W12336   4.362  15.097   0.990
40808W        W12337  30.014  27.664  13.592
40809W        W12338   1.020   4.961  11.133
40810W        W12339  15.592   7.136   2.004
40811W        W12340  42.401  18.720  13.874
40812W        W12341  11.779   5.855  14.694
40813W        W12342  33.660  16.551   3.069
40814W        W12343  34.437  11.579  13.324
40815W        W12344  20.754   1.350   1.218
40816W        W12345   7.476   2.389   4.083
40817W        W12346  37.431  38.382   3.309
40818W        W12347  23.553   8.116  10.718
40819W        W12348   2.227  10.738  14.043
40820W        W12349  33.509  17.371   1.486
40821W        W12350   1.134  14.083   4.248
40822W        W12351  13.680  23.923  11.590
40823W        W12352  26.188   8.908   4.094
40824W        W12353  36.873   8.196   1.050
40825W        W12354  25.334  26.151   1.827
40826W        W12355   4.105  29.135  12.751
40827W        W12356  34.023  30.904   0.873
40828W        W12357  41.012  18.719   0.821
40829W        W12358  43.897  18.579  12.959
40830W        W12359  29.935  18.066  13.467
40831W        W12360  10.551  44.258   3.980
40832W        W12361  12.418   7.785   4.135
40833W        W12362  12.576  24.653   4.156
40834W        W12363  16.488   1.711   4.139
40835W        W12364  16.527  31.641   1.226
40836W        W12365  11.602  25.203   0.522
40837W        W12366  41.054  16.701  14.359
40838W        W12367   3.930  31.957   0.450
40839W        W12368   5.142  19.795   5.034
40840W        W12369  13.864  32.122   3.827
40841W        W12370  34.648   0.447   0.670
40842W        W12371  27.080   1.925   4.061
40843W        W12372  22.246  33.551   3.146
40844W        W12373  13.202   8.307   0.137
40845W        W12374  12.445  38.344   1.837
40846W        W12375  24.573  13.203  10.646
40847W        W12376  17.205  26.735  13.623
40848W        W12377   8.486  23.984  10.752
40849W        W12378  33.736  10.399   5.200
40850W        W12379  20.987   9.357  11.095
40851W        W12380   7.341  21.305   2.197
40852W        W12381  13.984   9.487  12.283
40853W        W12382   2.880  13.314   0.930
40854W        W12383  33.671  26.182   0.921
40855W        W12384  37.414   2.006   1.784
40856W        W12385  20.091  29.754  13.390
40857W        W12386  14.135  38.209   1.258
40858W        W12387  38.738   5.698  13.246
40859W        W12388   8.394  20.620  11.135
40860W        W12389  29.452   6.411   0.842
40861W        W12390  25.177  43.769  13.487
40862W        W12391  33.342   4.330  12.854
40863W        W12392  28.721  38.543  13.881
40864W        W12393  17.767  20.556   0.774
40865W        W12394  11.606  32.422   0.346
40866W        W12395  35.882  38.890   1.488
40867W        W12396  38.144   6.634  11.581
40868W        W12397   9.802  28.186  13.640
40869W        W12398  42.479  37.905   4.223
40870W        W12399  16.290   2.168   3.170
40871W        W12400  26.903  18.243  11.838
40872W        W12401   0.347  44.737   4.092
40873W        W12402  12.151  28.569   0.826
40874W        W12403  17.362  15.604  12.013
40875W        W12404  24.061  41.840  10.801
40876W        W12405  23.069  29.096   0.430
40877W        W12406  31.526  12.352   3.113
40878W        W12407  29.980  30.892  12.094
40879W        W12408   3.580   0.431   2.281
40880W        W12409  11.157  43.126  13.309
40881W        W12410  38.161  10.563  12.315
40882W        W12411   8.824  14.839  12.160
40883W        W12412  25.037  18.054   4.210
40884W        W12413  34.282  34.837   2.915
40885W        W12414  11.967   7.433   5.024
40886W        W12415  35.832  11.761  14.850
40887W        W12416  14.763   9.112   1.785
40888W        W12417   0.038  10.210  11.688
40889W        W12418   9.951   1.347  10.469
40890W        W12419  18.857  14.625   0.382
40891W        W12420  15.818   9.214  11.703
40892W        W12421  21.908  24.176   1.457
40893W        W12422  44.791  10.629  11.499
40894W        W12423  14.209  34.749   4.195
40895W        W12424  40.462  21.940   1.946
40896W        W12425  19.175   1.051   3.184
40897W        W12426  34.465  36.145  11.670
40898W        W12427  15.757  18.625  10.251
40899W        W12428  41.390  33.042   4.627
40900W        W12429  19.469  14.645  10.948
40901W        W12430  32.639  35.026  13.911
40902W        W12431  31.469  34.998   1.112
40903W        W12432  27.075  16.072   4.306
40904W        W12433   6.268  25.689  10.669
40905W        W12434  36.958  31.650   3.787
40906W        W12435  32.112  43.330   0.817
40907W        W12436  42.712   4.688  14.282
40908W        W12437  35.807  11.249  14.085
40909W        W12438  40.556  19.035  12.899
40910W        W12439  32.779  13.476   5.075
40911W        W12440   6.466  17.347  11.571
40912W        W12441  40.199  44.421   5.083
40913W        W12442  39.934   2.316  13.041
40914W        W12443  34.553  28.834  12.505
40915W        W12444  32.384  27.827  12.390
40916W        W12445  22.942   4.113   2.344
40917W        W12446  29.730  19.201   2.123
40918W        W12447   0.465  27.689   4.210
40919W        W12448   6.039  28.373   3.797
40920W        W12449  27.013  27.713  13.528
40921W        W12450  23.005  31.683  13.650
40922W        W12451  29.095  29.011   2.929
40923W        W12452  23.008  28.230  10.249
40924W        W12453  39.824  13.306   4.621
40925W        W12454  35.373  24.209   1.977
40926W        W12455  36.036  22.513  10.881
40927W        W12456  17.939   9.560  14.800
40928W        W12457  28.936   3.543  14.285
40929W        W12458   9.436   5.746   3.114
40930W        W12459  33.461  41.285  10.622
40931W        W12460   3.298   7.899  12.861
40932W        W12461  29.386  28.641   1.690
40933W        W12462   2.734  43.579  11.647
40934W        W12463  30.534  28.959  14.553
40935W        W12464  28.009  31.704  12.443
40936W        W12465  32.403  23.655   2.278
40937W        W12466  16.220   8.618  14.975
40938W        W12467  35.059  29.143   3.225
40939W        W12468   6.543  33.080   1.900
40940W        W12469   0.396  25.093   0.198
40941W        W12470  36.571  38.541   2.129
40942W        W12471  36.746  38.986  12.349
40943W        W12472  13.943  13.035   0.122
40944W        W12473  23.135  34.904   1.955
40945W        W12474  25.261  17.714  14.849
40946W        W12475  24.026   1.614  10.609
40947W        W12476   9.172  41.618  12.588
40948W        W12477  24.968  21.073  10.443
40949W        W12478  41.764  23.653  11.199
40950W        W12479   5.173  44.809  12.840
40951W        W12480  42.282  16.737  12.085
40952W        W12481  34.498   5.629  13.474
40953W        W12482  30.200  18.970   3.154
40954W        W12483  39.536  25.380  14.964
40955W        W12484  37.557  44.542  11.912
40956W        W12485  38.591  23.629   3.638
40957W        W12486   3.989  17.724  10.706
40958W        W12487  35.199   5.397  11.249
40959W        W12488  29.352  11.687  14.027
40960W        W12489  31.086  25.739  14.793
40961W        W12490  27.773  12.075  14.380
40962W        W12491  41.912   0.389   2.440
40963W        W12492   2.001   8.824   3.652
40964W        W12493  15.103   7.534  11.830
40965W        W12494  21.551  34.452   2.213
40966W        W12495  42.456   8.151   0.308
40967W        W12496  43.290  32.507  13.438
40968W        W12497  41.535   7.214   4.393
40969W        W12498  27.137  33.975   2.764
40970W        W12499   1.707   4.364   3.579
40971W        W12500  32.105   0.729   1.299
40972W        W12501  28.759  40.465  11.550
40973W        W12502  12.184  16.664  14.795
40974W        W12503  37.430  20.039   1.883
40975W        W12504  31.952  41.515  13.330
40976W        W12505   5.619  43.904  11.580
40977W        W12506  23.984  38.253  12.917
40978W        W12507  16.637   5.671  13.778
40979W        W12508  37.166  15.190   4.082
40980W        W12509  43.587  34.003   9.730
40981W        W12510  39.781  26.078  10.653
40982W        W12511  18.081  29.338  12.080
40983W        W12512   0.739  32.802  13.099
40984W        W12513  32.549  17.310  14.946
40985W        W12514  32.363   9.246  14.852
40986W        W12515  19.281  28.928   1.198
40987W        W12516  10.919  21.217  14.961
40988W        W12517   1.538  35.790   4.100
40989W        W12518  30.911  42.548  13.699
40990W        W12519   8.752  41.556   0.436
40991W        W12520  41.289   1.457  14.338
40992W        W12521  32.597   8.990  13.003
40993W        W12522  38.415  21.193  14.133
40994W        W12523  31.844  18.617  11.691
40995W        W12524  43.170   8.981   4.076
40996W        W12525  12.005  33.024   3.286
40997W        W12526  44.638   2.070  11.006
40998W        W12527  26.499  42.103   0.361
40999W        W12528  28.491  44.856   0.462
41000W        W12529   5.283  41.527   0.487
41001W        W12530  28.539  22.462   4.895
41002W        W12531   4.622  32.828  10.552
41003W        W12532  40.042  27.011   0.827
41004W        W12533   3.814  39.954  11.977
41005W        W12534  20.953  28.111   1.575
41006W        W12535   9.527  17.667  13.527
41007W        W12536  18.158  30.546   1.433
41008W        W12537  41.285   9.308   0.989
41009W        W12538  25.481  20.039  12.065
41010W        W12539  36.305  25.204   2.353
41011W        W12540  21.321  42.032   0.438
41012W        W12541  40.850  27.552   0.676
41013W        W12542  21.997  26.144  13.120
41014W        W12543  31.934  44.905   2.727
41015W        W12544  10.095  36.246  12.028
41016W        W12545   0.237  13.386   1.886
41017W        W12546  35.843  16.643  13.531
41018W        W12547  26.900  13.999   3.268
41019W        W12548  15.653   6.029   2.830
41020W        W12549  44.095  42.527   2.897
41021W        W12550  25.503   6.537  14.997
41022W        W12551  41.893  20.587   4.641
41023W        W12552  33.117  20.109   1.883
41024W        W12553   9.864  16.763   2.398
41025W        W12554   8.957  41.432  14.943
41026W        W12555  14.271  11.922   2.040
41027W        W12556  21.740  26.632  14.280
41028W        W12557  16.200  17.773   2.787
41029W        W12558  41.678  40.883   4.194
41030W        W12559  35.754   8.892  12.179
41031W        W12560  18.653  15.764   2.778
41032W        W12561  20.370  11.741  13.873
41033W        W12562  10.417  11.269  10.479
41034W        W12563  44.395  31.310  11.265
41035W        W12564  20.868  35.059   3.565
41036W        W12565  16.063  19.487   1.179
41037W        W12566   5.291  33.323  13.213
41038W        W12567  18.320  36.505  12.286
41039W        W12568  44.175   1.076  14.489
41040W        W12569  11.786  35.351  11.557
41041W        W12570   5.983  27.936   1.681
41042W        W12571  31.492  35.247  11.313
41043W        W12572  34.484  40.539  13.669
41044W        W12573   7.626  23.602   3.230
41045W        W12574  30.504   4.680  12.037
41046W        W12575  27.184  26.289   0.728
41047W        W12576  24.579  11.272   4.651
41048W        W12577  43.442   4.290  14.050
41049W        W12578  26.626  22.816   0.567
41050W        W12579  14.769  32.629   3.895
41051W        W12580  32.773   6.886  10.823
41052W        W12581  28.795  35.958  13.367
41053W        W12582  16.216   7.843   0.506
41054W        W12583  42.338  18.105   1.903
41055W        W12584  22.432  30.353   2.860
41056W        W12585   4.963  17.241   3.504
41057W        W12586  32.198  20.223  14.927
41058W        W12587  18.296  29.651   0.261
41059W        W12588  39.014  11.232  11.503
41060W        W12589   0.208  18.542  14.901
41061W        W12590  37.277   4.755  10.141
41062W        W12591  17.130  23.040   0.312
41063W        W12592  31.129  31.411   0.409
41064W        W12593  29.469  29.668  11.548
41065W        W12594   3.254  34.739   3.772
41066W        W12595   3.397  20.515  11.558
41067W        W12596  34.490  18.154   1.153
41068W        W12597  37.851  40.981  11.854
41069W        W12598  11.408   3.744   2.759
41070W        W12599   3.188  22.383  12.338
41071W        W12600  38.916   2.993  11.590
41072W        W12601  36.533   7.950  13.077
41073W        W12602  12.683   0.397   0.750
41074W        W12603  23.441  10.312  14.350
41075W        W12604  30.357   8.785  14.284
41076W        W12605  18.706  28.480   1.873
41077W        W12606  20.648   0.655  12.920
41078W        W12607  20.236  17.178   1.068
41079W        W12608  27.245   3.925  11.473
41080W        W12609   7.389  11.133   2.692
41081W        W12610   0.471  42.989   2.706
41082W        W12611  37.426   9.860  14.552
41083W        W12612  29.991  29.096  12.857
41084W        W12613  18.249  18.178   1.729
41085W        W12614  35.885  34.629   2.208
41086W        W12615  40.430   5.707  12.045
41087W        W12616  34.021  40.336  13.779
41088W        W12617   9.845  36.161  14.922
41089W        W12618  20.442  35.637  12.855
41090W        W12619   8.630  29.275  13.415
41091W        W12620  36.876   5.218   1.378
41092W        W12621   4.724  23.572  14.589
41093W        W12622  27.661  16.745  13.666
41094W        W12623  28.187   5.412   0.405
41095W        W12624  20.533   7.869  12.888
41096W        W12625  19.255  43.959   4.147
41097W        W12626  42.556  17.253   4.516
41098W        W12627  24.816  36.331   5.054
41099W        W12628  41.326  30.243  11.911
41100W        W12629  42.970  40.006   4.776
41101W        W12630  15.772  25.140  10.807
41102W        W12631   0.231  26.427   0.566
41103W        W12632  32.463   5.783  11.690
41104W        W12633  33.647  34.522   4.051
41105W        W12634  17.560  34.296   3.189
41106W        W12635   9.165   2.787  10.666
41107W        W12636  27.784  26.473  10.681
41108W        W12637  19.049  12.769   2.261
41109W        W12638  31.508  32.971   1.478
41110W        W12639  23.966  40.429  11.205
41111W        W12640  28.045  16.223   1.894
41112W        W12641  30.975  22.461  14.976
41113W        W12642  44.514  30.475   3.614
41114W        W12643  36.308   3.783   1.035
41115W        W12644  22.627   6.923  12.531
41116W        W12645  41.474  30.055  11.082
41117W        W12646  43.785  15.179   4.666
41118W        W12647  26.376  39.505  12.153
41119W        W12648   7.721  12.852   2.203
41120W        W12649  23.136  12.777  13.879
41121W        W12650  23.510  22.560  11.081
41122W        W12651   3.826   8.684   4.062
41123W        W12652   4.679  13.209  14.188
41124W        W12653  22.157  37.586  13.472
41125W        W12654  29.951  18.396  12.123
41126W        W12655  11.657   7.861   0.324
41127W        W12656   5.088  31.386  10.805
41128W        W12657  10.469   6.302  12.423
41129W        W12658   1.955  27.117  13.248
41130W        W12659  37.450  34.634  12.534
41131W        W12660  18.990   6.740   1.412
41132W        W12661  12.158  25.069  14.788
41133W        W12662  16.742   1.684   4.633
41134W        W12663   9.565  21.250   4.883
41135W        W12664   2.814   2.923   4.095
41136W        W12665  10.194   2.397   4.838
41137W        W12666   7.313  35.610  11.881
41138W        W12667   0.086  25.079  11.039
41139W        W12668   8.824  19.541   4.661
41140W        W12669  21.591  17.573  11.257
41141W        W12670  19.686  11.489   0.359
41142W        W12671  20.663  44.749   1.264
41143W        W12672  29.037   2.521  11.167
41144W        W12673   6.075  27.488   1.949
41145W        W12674  24.015  38.322  10.652
41146W        W12675  37.396  10.712  11.353
41147W        W12676   9.069  21.406   4.902
41148W        W12677  24.256  17.163   2.120
41149W        W12678   3.935  23.573  12.029
41150W        W12679   8.613  19.864   3.357
41151W        W12680   6.755  29.543   1.838
41152W        W12681  20.877  27.486  12.423
41153W        W12682   3.846  38.932  14.665
41154W        W12683   4.742  11.301   2.755
41155W        W12684  28.491   7.279   4.387
41156W        W12685  23.944  10.139   1.220
41157W        W12686  41.408  12.292   4.648
41158W        W12687  41.224  41.099   4.124
41159W        W12688   1.724  28.603   0.914
41160W        W12689   3.601  21.584   2.926
41161W        W12690  15.283  28.200   1.348
41162W        W12691  42.587  12.535   1.935
41163W        W12692  19.695  20.134  12.817
41164W        W12693  34.526  18.124   3.288
41165W        W12694   6.388  22.024   3.156
41166W        W12695  19.764  38.231  11.245
41167W        W12696  19.107  10.261  10.715
41168W        W12697  32.557  39.507  12.446
41169W        W12698   3.855  42.758   0.890
41170W        W12699  27.107  28.478  14.344
41171W        W12700  13.130  27.098   4.893
41172W        W12701  36.446  33.610   4.747
41173W        W12702  30.124  25.028   3.045
41174W        W12703  11.904   6.095   2.729
41175W        W12704  24.975   2.532   0.852
41176W        W12705  43.200   8.945  11.307
41177W        W12706  37.896  27.887   2.898
41178W        W12707  35.348  20.306   0.837
41179W        W12708  21.066  11.680   2.339
41180W        W12709  33.598  18.576  12.897
41181W        W12710  16.873  44.399  11.970
41182W        W12711   6.992   0.255   0.951
41183W        W12712   2.377  42.715  11.844
41184W        W12713  19.014  41.995   0.551
41185W        W12714  37.930   8.400   2.775
41186W        W12715   1.429   0.441   2.166
41187W        W12716   7.088  20.061  13.873
41188W        W12717  36.830  28.760   4.292
41189W        W12718   3.802  14.172  13.376
41190W        W12719   3.243   1.455  12.561
41191W        W12720  33.095  19.042   0.247
41192W        W12721  41.028  39.869  11.606
41193W        W12722  44.963  44.380   1.257
41194W        W12723  28.585  10.444  11.166
41195W        W12724  18.994  14.627   3.612
41196W        W12725  25.289  41.845   1.528
41197W        W12726  35.211  26.267   2.764
41198W        W12727   1.239  28.164   2.381
41199W        W12728  40.520  23.033  11.126
41200W        W12729  22.521   4.420  13.638
41201W        W12730  44.475  20.634  11.994
41202W        W12731  42.725  21.059  12.370
41203W        W12732  10.067  44.972  11.109
41204W        W12733  38.549  39.012  10.761
41205W        W12734  26.260  10.432  13.882
41206W        W12735  22.136  30.670  13.649
41207W        W12736   3.896  23.663  11.485
41208W        W12737  29.450  32.819  13.826
41209W        W12738  42.005  18.516   1.711
41210W        W12739   1.915  14.006  12.477
41211W        W12740  26.700  42.595  11.168
41212W        W12741   9.221   2.009  13.015
41213W        W12742   3.071  20.718  12.128
41214W        W12743  34.663  36.078   3.521
41215W        W12744  38.821  11.161  13.748
41216W        W12745   6.471   9.875   3.063
41217W        W12746  43.619  32.139  11.610
41218W        W12747  16.867  43.787  11.154
41219W        W12748  15.150   1.690   4.181
41220W        W12749  29.401   5.273   0.771
41221W        W12750   3.623   0.356   1.760
41222W        W12751   3.448  11.752  12.006
41223W        W12752  20.077  39.356   2.661
41224W        W12753  35.739  17.586   1.767
41225W        W12754  19.466  14.197   2.267
41226W        W12755   7.198  24.655  10.472
41227W        W12756  36.159  39.694  12.335
41228W        W12757  21.706  31.110  12.005
41229W        W12758  44.232  26.033  13.923
41230W        W12759  18.539  21.662  11.761
41231W        W12760  17.853  13.531   1.817
41232W        W12761  34.921  42.068  12.855
41233W        W12762  12.741  18.094  14.107
41234W        W12763  10.127  43.365  13.584
41235W        W12764  26.812  25.264   1.854
41236W        W12765  18.160  18.269   0.193
41237W        W12766  15.413  11.061   4.934
41238W        W12767  24.154   0.224   0.945
41239W        W12768  15.936  27.487   1.265
41240W        W12769  42.666  40.962   4.405
41241W        W12770  44.239  30.454   4.052
41242W        W12771  32.994   3.790   1.257
41243W        W12772  44.660  40.831   0.899
41244W        W12773  27.721  12.904   3.150
41245W        W12774  33.866  30.479  13.566
41246W        W12775  22.058  23.256   1.321
41247W        W12776  21.472  18.819   2.239
41248W        W12777  28.594  17.653   0.220
41249W        W12778  29.529  37.556   0.565
41250W        W12779  25.530  16.465  12.585
41251W        W12780   3.232   0.809   2.118
41252W        W12781  35.018  29.127  14.585
41253W        W12782  34.562  41.401   1.772
41254W        W12783  20.045  11.791   3.165
41255W        W12784  20.032  21.375  10.894
41256W        W12785  17.793   7.531  12.530
41257W        W12786  23.240  21.460  13.940
41258W        W12787   6.831  31.063  14.834
41259W        W12788  28.560   8.644   1.453
41260W        W12789  31.170  19.551   1.355
41261W        W12790   4.431   2.161  12.111
41262W        W12791  18.569   3.312  13.588
41263W        W12792  19.763  10.168  14.338
41264W        W12793  38.454  27.071   1.896
41265W        W12794  36.458  29.737   3.158
41266W        W12795  34.425  23.076  13.328
41267W        W12796  34.614  32.130   3.286
41268W        W12797   5.878  17.532   4.309
41269W        W12798   8.884   1.279   2.702
41270W        W12799  34.476  13.730  11.021
41271W        W12800  44.359  14.275   4.632
41272W        W12801  26.611  36.967  11.623
41273W        W12802   7.377   4.267   1.639
41274W        W12803  23.216   3.635  14.006
41275W        W12804  23.170  22.481   0.898
41276W        W12805  42.778   0.713   3.266
41277W        W12806  36.075  43.810  13.997
41278W        W12807  20.083  35.186   0.535
41279W        W12808  12.760  15.309   2.753
41280W        W12809  21.483  16.304  11.582
41281W        W12810  19.476  38.883  13.455
41282W        W12811  26.072  36.055  14.105
41283W        W12812  44.507   3.736  11.605
41284W        W12813  13.161  40.045   1.370
41285W        W12814   4.940   6.321  13.504
41286W        W12815  13.349  43.521  12.500
41287W        W12816  38.475   6.906   0.386
41288W        W12817  17.084   8.056   1.902
41289W        W12818  25.133  19.189   2.205
41290W        W12819  42.485   5.657  13.337
41291W        W12820   3.421  10.822   3.791
41292W        W12821   5.396  25.129  12.074
41293W        W12822  39.837  18.570  12.498
41294W        W12823  21.964  34.829  12.866
41295W        W12824  15.672  14.197   2.735
41296W        W12825  19.208   5.278   4.526
41297W        W12826  24.541  19.708  12.577
41298W        W12827   2.290  37.865  14.430
41299W        W12828   4.287  13.221   4.486
41300W        W12829   1.786  15.876  10.638
41301W        W12830   7.158  16.446   1.755
41302W        W12831  10.613  32.857   1.353
41303W        W12832   4.485  19.166   2.736
41304W        W12833  13.734  22.050  10.659
41305W        W12834  25.660  16.515   4.150
41306W        W12835  21.219  40.514   2.365
41307W        W12836  12.764  30.920  11.221
41308W        W12837  40.682  20.027  11.163
41309W        W12838   0.296  14.072   0.022
41310W        W12839   2.460  34.302  10.996
41311W        W12840  41.334   5.179   1.336
41312W        W12841   0.389  26.222   0.070
41313W        W12842  41.347   4.843  13.032
41314W        W12843  23.507  15.084  11.493
41315W        W12844  10.934  37.277   1.001
41316W        W12845  20.448  28.271  14.395
41317W        W12846  15.353  13.599   3.137
41318W        W12847  24.607  15.346   0.658
41319W        W12848   6.955  17.095   3.449
41320W        W12849  10.933  20.713   1.808
41321W        W12850  22.606  44.419   0.842
41322W        W12851  44.178  18.305  14.149
41323W        W12852  34.584  22.313  14.397
41324W        W12853  32.564  44.999  14.313
41325W        W12854   5.297   3.214  12.149
41326W        W12855  30.931   1.958  11.695
41327W        W12856  32.384  32.710  10.798
41328W        W12857   6.182   7.764  13.407
41329W        W12858   3.974  34.561   4.408
41330W        W12859   5.779   0.154   4.891
41331W        W12860  29.737  39.745  12.857
41332W        W12861  30.171   4.010  13.786
41333W        W12862   8.111  34.508  13.357
41334W        W12863  25.943  14.160   2.774
41335W        W12864  30.314  14.042  12.020
41336W        W12865  31.160   2.205  14.852
41337W        W12866   7.555  26.801  13.144
41338W        W12867  40.823  28.259  13.378
41339W        W12868   3.787  32.973  14.849
41340W        W12869   3.897  11.318  14.422
41341W        W12870   7.121  41.112   1.067
41342W        W12871  42.875  20.513   5.110
41343W        W12872   6.357  15.050  11.158
41344W        W12873  14.005  26.371   1.231
41345W        W12874  15.438  43.348   0.460
41346W        W12875  28.840  15.653  10.436
41347W        W12876  26.117   6.970  10.513
41348W        W12877  24.943  33.813   1.810
41349W        W12878  14.635   4.902  10.614
41350W        W12879  31.401  30.173  14.895
41351W        W12880  14.633  42.602  11.135
41352W        W12881  13.381   9.602   0.338
41353W        W12882   3.759  19.810  12.827
41354W        W12883  38.806  31.960  12.554
41355W        W12884  12.159  15.813   0.656
41356W        W12885  44.565  14.913   0.271
41357W        W12886  35.274  18.940   4.126
41358W        W12887  16.569  23.794   2.729
41359W        W12888  28.349  28.616  12.363
41360W        W12889  25.161   2.455   2.612
41361W        W12890   6.794   1.662   4.629
41362W        W12891  32.828   5.386   3.295
41363W        W12892  11.877  12.428  12.553
41364W        W12893  34.154  16.254   0.966
41365W        W12894  10.313  15.259  10.014
41366W        W12895  37.821  14.453   4.567
41367W        W12896  20.053   1.942   1.513
41368W        W12897   9.141  26.395   3.991
41369W        W12898  33.035  11.301   1.114
41370W        W12899   5.964  10.883  14.901
41371W        W12900   0.964  32.396  14.298
41372W        W12901  19.489   6.351   0.233
41373W        W12902   2.738  10.156   3.259
41374W        W12903   1.138  39.051   9.838
41375W        W12904   1.254   8.136  12.576
41376W        W12905  30.659  19.678  13.397
41377W        W12906   6.374  34.964  12.593
41378W        W12907   9.853  22.438  13.383
41379W        W12908  17.266  17.534  12.137
41380W        W12909   5.693  42.704   0.628
41381W        W12910  32.943  16.714  12.145
41382W        W12911  15.138  26.081  14.740
41383W        W12912  20.765   9.897   4.547
41384W        W12913  31.112   8.860   2.531
41385W        W12914  21.456  23.940  13.446
41386W        W12915  42.417  11.367   0.949
41387W        W12916  37.695   1.539  11.712
41388W        W12917  13.195  33.360  13.074
41389W        W12918   5.435  24.087  11.974
41390W        W12919   1.567   6.200   1.789
41391W        W12920   8.615  24.285   0.439
41392W        W12921   7.333  38.081   0.931
41393W        W12922  24.690   3.290   0.320
41394W        W12923   3.485  42.338   2.127
41395W        W12924  18.680  13.489   4.119
41396W        W12925  39.637  22.931  10.776
41397W        W12926  31.609  18.124   3.649
41398W        W12927   4.701  22.079   1.819
41399W        W12928  22.574   2.248  10.728
41400W        W12929  24.461  17.141  14.833
41401W        W12930  13.479  37.462   2.503
41402W        W12931  20.312  13.869   4.216
41403W        W12932  14.356  35.640  12.533
41404W        W12933   7.327  31.039  11.517
41405W        W12934  39.330  21.966   1.673
41406W        W12935  28.185  32.572  14.187
41407W        W12936  13.763  26.416   4.955
41408W        W12937  35.865  21.530  13.337
41409W        W12938  27.043   1.611  11.384
41410W        W12939  13.057  27.306  12.526
41411W        W12940  39.918  35.228  11.291
41412W        W12941  26.746  16.984  13.142
41413W        W12942   7.473  36.361   3.814
41414W        W12943   3.804  27.561  13.539
41415W        W12944  25.466  20.217  13.400
41416W        W12945  37.913  30.198   3.258
41417W        W12946   2.030  16.233   1.638
41418W        W12947   4.721  12.261   3.355
41419W        W12948  38.917  11.576  10.881
41420W        W12949  27.989  22.546  13.341
41421W        W12950  34.731   3.011  14.917
41422W        W12951  13.466   5.904   2.295
41423W        W12952  31.090  21.477  11.553
41424W        W12953   1.868  39.268  14.434
41425W        W12954   1.939  39.753  13.455
41426W        W12955  29.593  12.336   3.056
41427W        W12956  18.250  40.560  13.947
41428W        W12957  14.978   7.691   4.724
41429W        W12958   0.481  37.041  12.651
41430W        W12959  24.212  41.658   0.653
41431W        W12960   3.897   4.957  14.315
41432W        W12961  33.297  28.484  13.091
41433W        W12962  17.181  14.582   1.746
41434W        W12963   1.358   5.423  14.518
41435W        W12964  16.492  41.046  14.801
41436W        W12965  10.336   8.749   4.500
41437W        W12966  29.356  40.280  14.846
41438W        W12967   3.591  26.713  14.303
41439W        W12968  20.675  41.255  12.846
41440W        W12969  33.037  36.823   4.307
41441W        W12970  23.146   7.556  14.917
41442W        W12971   6.094  21.271   2.202
41443W        W12972   1.373  32.156   0.207
41444W        W12973  10.834  21.976   2.318
41445W        W12974  27.002  12.520   4.847
41446W        W12975   5.149  17.270  12.118
41447W        W12976  19.526  19.827   2.019
41448W        W12977  12.810  16.248   4.576
41449W        W12978  30.655  38.478   1.260
41450W        W12979   9.295  38.096   1.403
41451W        W12980  37.776  40.110  13.965
41452W        W12981  34.407   7.365  14.480
41453W        W12982  18.170   5.974  10.791
41454W        W12983  44.944   9.821   0.725
41455W        W12984  22.658  17.803  10.376
41456W        W12985  14.685  24.502  11.516
41457W        W12986  37.138  15.297   1.035
41458W        W12987  27.316  43.297   1.340
41459W        W12988  24.988  14.341  10.827
41460W        W12989  22.245  37.825   3.343
41461W        W12990   3.145  40.537   1.692
41462W        W12991  19.086  39.489   2.166
41463W        W12992  29.442  35.681  11.610
41464W        W12993   6.232  39.290  12.594
41465W        W12994   9.234  34.825  10.743
41466W        W12995  44.996  23.326  11.795
41467W        W12996  32.056  33.076  14.562
41468W        W12997  43.248  17.093   3.724
41469W        W12998  10.897  30.908   0.949
41470W        W12999  31.604  30.943   2.531
41471W        W13000  24.997  34.315   1.886
41472W        W13001   3.922  18.182  13.452
41473W        W13002  23.098  12.831  11.659
41474W        W13003  29.273  44.097   2.858
41475W        W13004   0.145  29.430   0.857
41476W        W13005  26.442  36.346  12.443
41477W        W13006  37.525  10.437   3.647
41478W        W13007  37.284  23.505  10.698
41479W        W13008   7.284  42.209   1.342
41480W        W13009  34.122  38.909   1.195
41481W        W13010  29.537  27.520   1.082
41482W        W13011   2.360   5.955   4.651
41483W        W13012  41.978  27.973   3.631
41484W        W13013  21.146  44.820  14.255
41485W        W13014   4.808  29.257   1.781
41486W        W13015  44.269  38.920   3.563
41487W        W13016  31.789  33.332   2.861
41488W        W13017  41.020   4.350  11.628
41489W        W13018   3.267   6.963   0.895
41490W        W13019  11.794   1.850  11.538
41491W        W13020  43.315  33.892  10.435
41492W        W13021  10.124  38.430   4.785
41493W        W13022   8.304  31.846  12.494
41494W        W13023  12.817  19.824   4.229
41495W        W13024   8.266  18.524   3.424
41496W        W13025   4.178  35.179  11.524
41497W        W13026  37.047  23.703   3.000
41498W        W13027  13.703   8.922  11.631
41499W        W13028  33.096  19.955   0.424
41500W        W13029   3.093   4.440   0.702
41501W        W13030  21.267  36.889   0.865
41502W        W13031  16.650  40.006   2.867
41503W        W13032  43.497  15.527   3.723
41504W        W13033   9.926  33.968  10.688
41505W        W13034  26.589  10.057   1.153
41506W        W13035  20.716   8.832   4.162
41507W        W13036  26.977  24.092  11.461
41508W        W13037  20.384   4.515   3.027
41509W        W13038  27.645  44.455  12.983
41510W        W13039  39.877  44.481   0.882
41511W        W13040  35.551  19.612  12.380
41512W        W13041  38.396   2.361  10.604
41513W        W13042  30.370   7.893  14.872
41514W        W13043   8.317  17.586  14.897
41515W        W13044  44.589  29.717   2.017
41516W        W13045  13.792  41.979   3.893
41517W        W13046  18.596  19.668  11.364
41518W        W13047  14.563  18.724  11.466
41519W        W13048  43.361  11.550   0.455
41520W        W13049  27.696  39.092  14.328
41521W        W13050   3.369  41.090  13.701
41522W        W13051  21.823   1.353  14.364
41523W        W13052  36.956  18.674  12.291
41524W        W13053  10.444  20.726   2.715
41525W        W13054   0.268  23.744  12.509
41526W        W13055  38.388  26.435   4.673
41527W        W13056  30.596  43.773   1.977
41528W        W13057  16.562  41.091   4.064
41529W        W13058  17.596  31.544  11.086
41530W        W13059  30.981  37.388  11.445
41531W        W13060  33.321  34.132   4.277
41532W        W13061  40.968   9.615   0.708
41533W        W13062   9.762   6.711  13.476
41534W        W13063  18.302  34.559   0.290
41535W        W13064  44.478  21.699   0.284
41536W        W13065  24.611   1.494  13.585
41537W        W13066  22.896   9.116   4.263
41538W        W13067  25.837   2.122   5.104
41539W        W13068  17.186  21.116  13.077
41540W        W13069  25.042  22.455   1.926
41541W        W13070  38.333   4.985  12.606
41542W        W13071  42.892  38.152   3.376
41543W        W13072  14.810  17.098   4.695
41544W        W13073  33.618   3.756  14.374
41545W        W13074  22.728  20.575  12.084
41546W        W13075  33.211   4.233   1.351
41547W        W13076   0.518  23.600  13.515
41548W        W13077  41.304  34.441   2.776
41549W        W13078   8.372  27.489   4.211
41550W        W13079   2.239  15.220  12.341
41551W        W13080  15.582  29.669  14.986
41552W        W13081   2.748   5.756  13.625
41553W        W13082   4.093  13.000  10.321
41554W        W13083   9.963  14.239   0.961
41555W        W13084  11.674  38.879   3.204
41556W        W13085   3.853  10.104   4.963
41557W        W13086  15.635  27.179  12.946
41558W        W13087   4.001  28.410   2.161
41559W        W13088  14.583  14.157   4.053
41560W        W13089  30.462  40.831   0.011
41561W        W13090  41.443   2.951  14.908
41562W        W13091  17.372  30.278   4.038
41563W        W13092  24.587   8.756  10.829
41564W        W13093  25.908  12.345   2.254
41565W        W13094  18.293   9.747  13.962
41566W        W13095  18.275  13.547   1.245
41567W        W13096  38.578  27.112   0.896
41568W        W13097  15.291  42.355   3.136
41569W        W13098   8.748  27.784   4.405
41570W        W13099  39.306  28.651   3.700
41571W        W13100  30.412  39.418  11.601
41572W        W13101  26.120  36.138   0.087
41573W        W13102   6.357   2.026  11.648
41574W        W13103  12.817  18.508   3.629
41575W        W13104  41.665  22.838  12.005
41576W        W13105  29.936   8.348   2.981
41577W        W13106   4.569  43.278   1.300
41578W        W13107  35.326  29.872  14.748
41579W        W13108  23.648  23.150   3.383
41580W        W13109  39.256  13.014  11.455
41581W        W13110  21.482  11.461  14.846
41582W        W13111  18.623  41.329  13.755
41583W        W13112   7.234   2.408   4.563
41584W        W13113  32.114  35.028  13.936
41585W        W13114  33.969  40.078   3.253
41586W        W13115  14.389  16.094   3.863
41587W        W13116  13.591  37.562  14.242
41588W        W13117  25.223  23.027  11.525
41589W        W13118  39.870   5.953  11.031
41590W        W13119  22.583  41.305   1.271
41591W        W13120  41.841  33.447  14.572
41592W        W13121  19.095  23.488   4.523
41593W        W13122  17.896   1.873   0.497
41594W        W13123  28.667  20.785  14.413
41595W        W13124  44.093  10.654   0.057
41596W        W13125  10.932  14.539  13.598
41597W        W13126  43.566  14.344  12.242
41598W        W13127  38.002  39.852   0.394
41599W        W13128  23.556   8.131   0.590
41600W        W13129  35.441   9.594  11.630
41601W        W13130  32.446  18.606  11.036
41602W        W13131  12.861  26.011   0.866
41603W        W13132  28.277   0.072  12.454
41604W        W13133  21.866   7.957  11.565
41605W        W13134  23.995  21.974   1.796
41606W        W13135  40.076  35.680   2.407
41607W        W13136  22.306  23.483   1.882
41608W        W13137  22.942  18.222  11.510
41609W        W13138   6.271  35.182  14.484
41610W        W13139  20.821  24.170   0.762
41611W        W13140   8.877   9.903  12.459
41612W        W13141   2.027   3.080   2.118
41613W        W13142  14.673  23.695   3.273
41614W        W13143  22.665  29.153  10.265
41615W        W13144  18.840  41.010  11.514
41616W        W13145  18.673  13.895   0.987
41617W        W13146  35.351  41.373  10.801
41618W        W13147  33.591  16.820  11.550
41619W        W13148  16.782  41.926   0.279
41620W        W13149   2.494   7.666   0.525
41621W        W13150  24.587   1.342  14.090
41622W        W13151  25.461  38.996  14.069
41623W        W13152  42.259  24.366   3.216
41624W        W13153  38.437  38.292  11.317
41625W        W13154  22.509  26.048  12.523
41626W        W13155  26.120  27.264   3.700
41627W        W13156  10.141  41.553   1.379
41628W        W13157  36.088  12.250  14.868
41629W        W13158  35.563  26.398   2.353
41630W        W13159   4.830  39.254  13.474
41631W        W13160  16.309  32.916  11.729
41632W        W13161   9.084  16.180   1.222
41633W        W13162  25.009  26.740   1.438
41634W        W13163  18.387  25.801  10.601
41635W        W13164   9.817  31.091   3.797
41636W        W13165  27.121  28.554   2.848
41637W        W13166   8.401  32.305   0.210
41638W        W13167  11.803  40.298   0.872
41639W        W13168  10.733  34.293   3.675
41640W        W13169  10.008  24.485   0.796
41641W        W13170  27.464  31.572   1.272
41642W        W13171  30.803  42.743   0.124
41643W        W13172  25.468  34.568  11.472
41644W        W13173  29.661  38.111  12.137
41645W        W13174  12.750   6.999   4.462
41646W        W13175   8.229  32.907  11.730
41647W        W13176  31.444  33.495  11.191
41648W        W13177  17.635   4.174  13.380
41649W        W13178  31.119   8.569   3.888
41650W        W13179  13.745  43.947  14.950
41651W        W13180  23.585   6.657  14.431
41652W        W13181   0.207  15.015  13.539
41653W        W13182  11.553   9.838  13.038
41654W        W13183  21.833   9.998   0.899
41655W        W13184  41.279  35.476   3.865
41656W        W13185  41.052  44.589  10.762
41657W        W13186  41.090  11.143   4.009
41658W        W13187  23.248   5.856   1.895
41659W        W13188  13.311  41.259   0.744
41660W        W13189  30.103  28.073   3.785
41661W        W13190  23.126  35.004  12.425
41662W        W13191  40.930  35.903   3.756
41663W        W13192  40.737  32.926   2.811
41664W        W13193  38.105   3.995  11.118
41665W        W13194  16.259  32.315  14.586
41666W        W13195   4.353  19.609   3.849
41667W        W13196  33.192  10.788  11.659
41668W        W13197  32.428  37.340  14.460
41669W        W13198  38.427  24.687  13.711
41670W        W13199   1.467  24.662  13.528
41671W        W13200  12.066   5.714  10.793
41672W        W13201   8.872   5.865  13.040
41673W        W13202  17.462  42.545   4.913
41674W        W13203  40.365   8.879  10.601
41675W        W13204  20.939  25.751   4.200
41676W        W13205  42.429  42.787   0.804
41677W        W13206  43.027   8.395   2.294
41678W        W13207  35.055  27.057   4.082
41679W        W13208   0.233  26.707   3.244
41680W        W13209  16.265  11.075   0.846
41681W        W13210   4.942  40.025  12.269
41682W        W13211  43.902  42.226   1.513
41683W        W13212  14.142  22.721   1.781
41684W        W13213   0.366  38.818  11.873
41685W        W13214   8.536  37.404   3.572
41686W        W13215  15.718  31.440   3.271
41687W        W13216  32.748   2.969   1.273
41688W        W13217  32.086   4.259   0.843
41689W        W13218  23.644  12.286  10.653
41690W        W13219  13.895   4.749  13.211
41691W        W13220  38.479  14.858   3.445
41692W        W13221  38.895  44.352  13.965
41693W        W13222  14.243   0.879   1.359
41694W        W13223  25.981  25.247  13.545
41695W        W13224  30.462  15.851   4.926
41696W        W13225  40.874  32.021  11.256
41697W        W13226  36.916  35.863  14.706
41698W        W13227  44.383  37.578  10.814
41699W        W13228  33.503  39.499   1.696
41700W        W13229  14.953  42.408   0.370
41701W        W13230  42.948  44.480  12.616
41702W        W13231  25.554  18.739  14.107
41703W        W13232  14.901  29.154   3.938
41704W        W13233  26.589  21.943  11.389
41705W        W13234  22.089  31.126  11.622
41706W        W13235   3.405  32.311   4.478
41707W        W13236  13.058  21.610  11.300
41708W        W13237  18.451  28.372   4.709
41709W        W13238   8.278  30.520  12.932
41710W        W13239  16.055  44.624  14.859
41711W        W13240  10.254  26.918  13.892
41712W        W13241   7.360  42.310   0.467
41713W        W13242  14.793  18.322  13.446
41714W        W13243   4.830  39.975   4.866
41715W        W13244  44.603   0.022  11.628
41716W        W13245  11.776  14.335  14.534
41717W        W13246   2.975  22.855  14.591
41718W        W13247  32.646  19.059   2.912
41719W        W13248  35.854  36.592  13.920
41720W        W13249   9.293   9.821  10.613
41721W        W13250  36.981  38.505  12.448
41722W        W13251  25.637  32.478  14.531
41723W        W13252  36.381  19.508  13.041
41724W        W13253  35.137   2.319   4.104
41725W        W13254  12.818  18.779  10.989
41726W        W13255  32.110  13.900   4.124
41727W        W13256   4.311  27.429  12.869
41728W        W13257   0.530  30.159  13.766
41729W        W13258  16.064   0.599  13.255
41730W        W13259  31.551   8.131   3.072
41731W        W13260  40.072   7.418   4.392
41732W        W13261  40.012  40.852   2.733
41733W        W13262   7.496  25.111  11.248
41734W        W13263   1.410  20.574   4.353
41735W        W13264  44.008  29.319  11.968
41736W        W13265  20.745  27.117   3.173
41737W        W13266  20.279  22.442   0.180
41738W        W13267  24.553   1.186   2.887
41739W        W13268   2.077   3.356   4.235
41740W        W13269  32.045  16.095  13.492
41741W        W13270  37.407   4.812  13.437
41742W        W13271  21.675   8.835   1.758
41743W        W13272   4.731   7.161  13.038
41744W        W13273  26.039  23.959   1.835
41745W        W13274  40.637   2.245   0.895
41746W        W13275  32.825  15.225   0.311
41747W        W13276   1.832   5.859   0.908
41748W        W13277  19.370   7.875  14.348
41749W        W13278  23.189  26.403   3.110
41750W        W13279  39.222  12.811  13.952
41751W        W13280  15.505  39.736  14.371
41752W        W13281  44.367  25.721   3.319
41753W        W13282   3.915  32.765   5.426
41754W        W13283  32.253  40.503  14.284
41755W        W13284  26.189   6.622   2.722
41756W        W13285  39.196  18.157   1.607
41757W        W13286  38.528  21.871   2.740
41758W        W13287  38.791  22.083   1.782
41759W        W13288  25.436  27.569   3.199
41760W        W13289  13.774  24.536   1.595
41761W        W13290  12.761   8.344   3.747
41762W        W13291  25.587   2.531  11.609
41763W        W13292  23.120   3.852   3.670
41764W        W13293   0.921  13.803  13.332
41765W        W13294  14.581  23.485  10.684
41766W        W13295  15.731  43.094  11.509
41767W        W13296  42.483  32.386   4.538
41768W        W13297  41.545   9.267  10.810
41769W        W13298  27.122   8.953   4.312
41770W        W13299  34.112  26.569  12.334
41771W        W13300  12.630  26.661   0.962
41772W        W13301   3.003  35.467  13.407
41773W        W13302  20.136  44.888   4.988
41774W        W13303   6.926  23.718   0.439
41775W        W13304  41.742  13.132   4.154
41776W        W13305  18.253  16.492   4.330
41777W        W13306   9.190  14.971  13.388
41778W        W13307  18.954  38.924   4.494
41779W        W13308   5.322  13.965   4.133
41780W        W13309  15.941  27.508  11.706
41781W        W13310  13.121  43.853  12.879
41782W        W13311   7.930  32.596  14.346
41783W        W13312  36.369  25.238  11.563
41784W        W13313  14.382  17.599   0.322
41785W        W13314  27.148  44.547   3.833
41786W        W13315   6.927  34.330  12.067
41787W        W13316  18.460  11.269  11.175
41788W        W13317  29.673   8.331   4.789
41789W        W13318  15.261  10.195   3.152
41790W        W13319  36.434  10.439   2.665
41791W        W13320  32.573  26.508   3.390
41792W        W13321  19.230  11.182  10.723
41793W        W13322   4.708  32.491  11.894
41794W        W13323  22.909  14.996   4.107
41795W        W13324  26.484  34.115   2.642
41796W        W13325  11.463  34.306   3.355
41797W        W13326   5.278   3.361  11.646
41798W        W13327  26.967  24.111   2.562
41799W        W13328  20.329  14.696   1.698
41800W        W13329  44.851  16.687   1.552
41801W        W13330  28.629  29.926  13.875
41802W        W13331  16.755   9.304  11.582
41803W        W13332  18.512  17.128  12.362
41804W        W13333   8.437  20.814   3.176
41805W        W13334  27.712   0.428  11.947
41806W        W13335  12.828  17.759  13.350
41807W        W13336  14.793   6.356  11.618
41808W        W13337  37.433   5.657   3.635
41809W        W13338  14.896  38.194   5.001
41810W        W13339  43.683   6.351   3.196
41811W        W13340  21.448  17.212   0.763
41812W        W13341  26.699  30.961   1.399
41813W        W13342  32.032  36.909  14.825
41814W        W13343  44.205   6.374   5.147
41815W        W13344  19.846   8.892   0.899
41816W        W13345   5.914  14.707  13.504
41817W        W13346   4.768  36.745   2.624
41818W        W13347  18.741  31.784   1.469
41819W        W13348  43.753  40.039   1.878
41820W        W13349  26.455  28.395   4.092
41821W        W13350   9.210  14.057   2.801
41822W        W13351  18.292  23.835  13.387
41823W        W13352  21.539  34.006  10.991
41824W        W13353  25.099  33.650  12.122
41825W        W13354  29.729  10.081   4.207
41826W        W13355  26.190  40.985   4.486
41827W        W13356  32.228  32.963   2.270
41828W        W13357  14.833  37.118  11.372
41829W        W13358  12.509  16.191   3.563
41830W        W13359  12.623  13.923   2.641
41831W        W13360  18.914  32.981  13.106
41832W        W13361  29.129  32.371  14.353
41833W        W13362  37.623  16.839  13.986
41834W        W13363  30.434  24.204  14.039
41835W        W13364  24.432   1.798   3.624
41836W        W13365  43.276  22.051   4.773
41837W        W13366  39.911  18.301  11.573
41838W        W13367  17.720  21.229  12.858
41839W        W13368   1.934  39.252  13.552
41840W        W13369  11.291   6.564  11.401
41841W        W13370   9.735  34.065   0.695
41842W        W13371  17.282  24.067   3.240
41843W        W13372  24.643   3.226   2.646
41844W        W13373  13.626  21.071   3.286
41845W        W13374  30.606   7.271  11.537
41846W        W13375  18.236   8.515  12.488
41847W        W13376  36.514  15.220  10.855
41848W        W13377   2.942  25.606  10.617
41849W        W13378  33.569  33.966  11.327
41850W        W13379  40.929  15.583  10.435
41851W        W13380  29.902  27.656  13.076
41852W        W13381  29.592  41.536   4.618
41853W        W13382  32.386  26.233   1.356
41854W        W13383   6.272  35.999   3.453
41855W        W13384   5.891  17.509  13.845
41856W        W13385  25.191  18.505   0.514
41857W        W13386  23.791  30.123   0.457
41858W        W13387  40.273   5.653   4.665
41859W        W13388  10.401  43.526   1.835
41860W        W13389  30.170   5.042  11.718
41861W        W13390  36.077  12.708   4.036
41862W        W13391  27.201  37.531   4.071
41863W        W13392   4.234  38.971  11.552
41864W        W13393  34.383  33.827   2.610
41865W        W13394   3.798  12.039   1.085
41866W        W13395  35.473  38.454   2.763
41867W        W13396  38.508  34.507   3.932
41868W        W13397  20.303  25.731  12.901
41869W        W13398   8.301  37.995  14.750
41870W        W13399  27.205   7.678   0.057
41871W        W13400  18.229  25.704   3.680
41872W        W13401  10.766  35.311   1.550
41873W        W13402  37.517   2.183   3.911
41874W        W13403  42.392   5.762  12.476
41875W        W13404  41.080  44.781  13.542
41876W        W13405  38.995  18.209  14.839
41877W        W13406   6.258  22.120   4.772
41878W        W13407   2.514   3.283  12.574
41879W        W13408  33.580  44.410  12.862
41880W        W13409  41.296  36.637  12.043
41881W        W13410  41.262  25.944  14.342
41882W        W13411   1.961   2.522  10.968
41883W        W13412  11.826  11.722   0.917
41884W        W13413   8.300  18.160  13.568
41885W        W13414  20.343  28.418   4.110
41886W        W13415  43.010  12.157  14.850
41887W        W13416  10.735  28.480  14.803
41888W        W13417  22.749  42.048  10.993
41889W        W13418   3.760  19.507  13.220
41890W        W13419  12.517  19.228  12.330
41891W        W13420  14.085  20.755   2.605
41892W        W13421  26.472  39.548  12.889
41893W        W13422  38.494  18.350  14.810
41894W        W13423  36.806  43.308  13.303
41895W        W13424  12.310  28.792  14.336
41896W        W13425  21.749  41.602   4.657
41897W        W13426  34.131  35.784   3.844
41898W        W13427   4.188  17.822   1.931
41899W        W13428  43.663  27.230  14.801
41900W        W13429  37.111   2.493  12.849
41901W        W13430  19.318  12.275   0.821
41902W        W13431  38.252  25.913  13.874
41903W        W13432   5.705  25.092  12.816
41904W        W13433  11.274   6.912   4.270
41905W        W13434  18.145  30.925  12.994
41906W        W13435  16.773   5.800   0.290
41907W        W13436  22.549  38.259  13.613
41908W        W13437   2.256  18.771   2.721
41909W        W13438  28.114   7.366  13.684
41910W        W13439  15.224  40.395   0.840
41911W        W13440  41.423  30.727  12.098
41912W        W13441  35.302  25.620   0.406
41913W        W13442   8.790  28.231  11.596
41914W        W13443  13.830  33.901  13.439
41915W        W13444  20.261  37.362  10.989
41916W        W13445  20.222  26.948   3.088
41917W        W13446  33.058  38.294   4.519
41918W        W13447   6.154   1.648  12.452
41919W        W13448   2.755   8.094   3.400
41920W        W13449  36.522  38.737  14.519
41921W        W13450  35.309  24.070   1.488
41922W        W13451  38.488  14.355   4.926
41923W        W13452  19.727  37.730  11.541
41924W        W13453  35.442  38.952   0.738
41925W        W13454  14.903  10.391  14.283
41926W        W13455  30.292  10.374  11.427
41927W        W13456  28.083  20.749  12.973
41928W        W13457  37.439  34.827   1.906
41929W        W13458  44.464  20.698   1.802
41930W        W13459  28.450  44.934   4.091
41931W        W13460  10.545  31.105   4.860
41932W        W13461  13.102  21.292  12.550
41933W        W13462  23.572  16.830   1.446
41934W        W13463  19.967  38.295   3.497
41935W        W13464  42.856  12.587   3.691
41936W        W13465  26.508  38.282   3.874
41937W        W13466  35.051  37.402   1.522
41938W        W13467  19.638  19.112  11.193
41939W        W13468  43.135   2.494  13.531
41940W        W13469  43.215  31.040  14.367
41941W        W13470  22.190  40.565  14.484
41942W        W13471   1.221  33.416  14.858
41943W        W13472   8.382  35.661  12.829
41944W        W13473  42.719  25.636   4.132
41945W        W13474  43.993  21.336   2.834
41946W        W13475   4.508  42.405  11.128
41947W        W13476  10.494   8.984  12.884
41948W        W13477   5.242   2.494  11.567
41949W        W13478  11.820  34.345  13.468
41950W        W13479  18.464  26.973   4.992
41951W        W13480  32.635  18.710   4.615
41952W        W13481   9.626   9.174  11.874
41953W        W13482  41.052  10.168  10.973
41954W        W13483  10.301   1.449   2.825
41955W        W13484  29.797  13.495   0.873
41956W        W13485  27.746  42.773   5.282
41957W        W13486   4.436  37.824  11.235
41958W        W13487  13.422  38.362   4.082
41959W        W13488  26.558   8.920   3.711
41960W        W13489  44.511   4.001   4.914
41961W        W13490  31.469  30.995  10.809
41962W        W13491  41.487  37.597  13.987
41963W        W13492  18.026   4.001  14.827
41964W        W13493   3.389   4.684   0.331
41965W        W13494  12.615  24.100  14.363
41966W        W13495  22.152  30.980   2.259
41967W        W13496  40.433  15.371  14.284
41968W        W13497  37.079  25.584   4.066
41969W        W13498   3.055   8.595   2.117
41970W        W13499  29.630  18.282   1.675
41971W        W13500  12.052  23.566  12.076
41972W        W13501  21.183  16.357   4.113
41973W        W13502  34.226  42.410  14.982
41974W        W13503   8.392  38.612  11.337
41975W        W13504  39.943  22.668   2.198
41976W        W13505  10.827   2.372  10.382
41977W        W13506  31.485  13.329  12.434
41978W        W13507  37.805  33.092  14.638
41979W        W13508  34.964  16.882  12.564
41980W        W13509  10.891  43.575   4.981
41981W        W13510  17.541   0.714  12.810
41982W        W13511  13.668  26.868   3.331
41983W        W13512  44.025   7.430   2.295
41984W        W13513   6.271  12.688   4.552
41985W        W13514  28.671   9.677   1.254
41986W        W13515  25.737  33.273  14.225
41987W        W13516   0.857  33.598   2.297
41988W        W13517  34.865   7.164  14.793
41989W        W13518  12.328  10.981  11.556
41990W        W13519  19.432   3.816   2.769
41991W        W13520  39.112  34.884  14.831
41992W        W13521  16.069  33.515  11.043
41993W        W13522   7.441   6.614  11.078
41994W        W13523   6.882  26.914   0.725
41995W        W13524   4.996  30.583  13.282
41996W        W13525   5.458  10.705   0.831
41997W        W13526  27.312  31.795   2.689
41998W        W13527   9.433  37.077  12.356
41999W        W13528  30.061  20.732  14.572
42000W        W13529  37.554  17.844  14.856
42001W        W13530  32.354   0.436   3.409
42002W        W13531   1.188   9.172   3.421
42003W        W13532  15.579  10.474   3.981
42004W        W13533  39.064  23.375  10.697
42005W        W13534   1.835  13.901   4.780
42006W        W13535  33.151  20.167   4.261
42007W        W13536  22.668   6.453  10.765
42008W        W13537  11.670  10.353   0.429
42009W        W13538  15.629   9.411  13.556
42010W        W13539  24.163  16.226   2.356
42011W        W13540  11.052   7.410   4.122
42012W        W13541  37.303  24.502   0.943
42013W        W13542   2.136  19.939   2.243
42014W        W13543  32.640  34.579   1.953
42015W        W13544  31.674  34.615  12.614
42016W        W13545  22.758  39.002  13.185
42017W        W13546   6.918  28.445   2.839
42018W        W13547  12.630  39.823   4.177
42019W        W13548  16.094   6.775  11.244
42020W        W13549   5.040  20.455   2.341
42021W        W13550  43.393  10.549  10.748
42022W        W13551  14.801  14.388   2.141
42023W        W13552  41.268  25.551   2.304
42024W        W13553   3.564  20.740  11.982
42025W        W13554  38.898  32.497  14.434
42026W        W13555  27.544  38.582   3.256
42027W        W13556  24.878  39.549  13.064
42028W        W13557  42.460  30.067  11.984
42029W        W13558  21.271  37.141  14.041
42030W        W13559  27.907  13.523   0.929
42031W        W13560  41.583  11.335   0.864
42032W        W13561  11.715  22.410   2.005
42033W        W13562  37.467  43.698  14.574
42034W        W13563  40.013  43.002  10.480
42035W        W13564  29.130  33.980   2.665
42036W        W13565   5.371  26.608  12.332
42037W        W13566  40.397  26.541   4.021
42038W        W13567  30.163  22.157   4.856
42039W        W13568  16.667  39.218  11.027
42040W        W13569  44.735  16.296   4.666
42041W        W13570  33.890  25.832   0.614
42042W        W13571   8.428   9.630  13.294
42043W        W13572  41.071  12.794  14.409
42044W        W13573  30.896  18.683   2.436
42045W        W13574  37.607  17.053   4.085
42046W        W13575   8.635  23.677  13.836
42047W        W13576  41.356   9.834   0.968
42048W        W13577  27.510  15.848  14.984
42049W        W13578  25.397  24.020   3.577
42050W        W13579  11.680  40.496  11.107
42051W        W13580  10.254  44.221   3.549
42052W        W13581  29.129  12.731  11.384
42053W        W13582  33.346  10.042   5.192
42054W        W13583   6.274  17.144  14.475
42055W        W13584  10.726  24.188  13.587
42056W        W13585  19.568  22.532  13.555
42057W        W13586   6.554  25.373   2.636
42058W        W13587   2.161  24.014  11.186
42059W        W13588  34.506  12.637  11.914
42060W        W13589  29.089  29.325  14.365
42061W        W13590  18.110  14.750   0.768
42062W        W13591   3.836  41.627  14.338
42063W        W13592   7.814  28.586  13.529
42064W        W13593  28.128  27.197  13.756
42065W        W13594  23.565  10.219  12.197
42066W        W13595  28.636   5.374   1.187
42067W        W13596  26.390  41.397   2.768
42068W        W13597  36.488  21.096   0.975
42069W        W13598  19.045  26.534  11.540
42070W        W13599  11.244  42.248   4.780
42071W        W13600  29.687  10.693   2.761
42072W        W13601   9.366  18.091  13.126
42073W        W13602  21.773  31.999  11.409
42074W        W13603   7.852  43.924   4.362
42075W        W13604  20.042  32.837  12.541
42076W        W13605   9.432  17.186  10.091
42077W        W13606  27.517  19.221   2.221
42078W        W13607  25.918   5.295  10.645
42079W        W13608  37.485  12.898   2.148
42080W        W13609  39.860  30.412  10.733
42081W        W13610   0.269  28.059  14.010
42082W        W13611  13.806   1.861   4.111
42083W        W13612  42.457  23.575  12.503
42084W        W13613   0.734  44.709   0.721
42085W        W13614  19.593  40.390  12.511
42086W        W13615  43.258  34.883  14.436
42087W        W13616  26.631   5.354   4.407
42088W        W13617   9.463  34.060  11.570
42089W        W13618   9.677  21.224  11.085
42090W        W13619  20.855  32.171   2.390
42091W        W13620   6.424  44.312  13.375
42092W        W13621  19.248  21.847   3.718
42093W        W13622  16.428  16.538   3.794
42094W        W13623  31.667   5.742  13.466
42095W        W13624  31.720   2.275   0.545
42096W        W13625  26.274  11.431   1.826
42097W        W13626  10.833  31.873   4.118
42098W        W13627  21.106  25.259  14.292
42099W        W13628  12.096  27.160  11.979
42100W        W13629   2.420   1.354  13.872
42101W        W13630  39.592  31.549   1.878
42102W        W13631  10.714  11.278   1.878
42103W        W13632  13.762  12.605   4.697
42104W        W13633  26.751  14.418  12.360
42105W        W13634   3.322  25.818  14.357
42106W        W13635  13.083  35.885  10.318
42107W        W13636   4.197  32.556   1.717
42108W        W13637  18.035   1.436  10.893
42109W        W13638  41.513   6.831   4.068
42110W        W13639  38.431  40.450  14.927
42111W        W13640   7.379   7.039   3.709
42112W        W13641  30.168  40.747   0.931
42113W        W13642  43.703  30.859   2.213
42114W        W13643  19.938  19.268   2.709
42115W        W13644   5.329  21.961   3.620
42116W        W13645   9.773   1.388  11.320
42117W        W13646   4.966   8.544   1.322
42118W        W13647  14.507  19.023  12.899
42119W        W13648  40.982  25.511  10.784
42120W        W13649  36.313   6.940   0.821
42121W        W13650  14.734  19.510   4.589
42122W        W13651  32.033   7.216  10.839
42123W        W13652   1.011   2.344  10.541
42124W        W13653  40.351  25.463   4.178
42125W        W13654   0.945  35.075  13.059
42126W        W13655   6.808  27.101  13.082
42127W        W13656  41.963   5.535  11.207
42128W        W13657  17.479  35.077   2.644
42129W        W13658  13.762  37.946  13.359
42130W        W13659  39.406   3.388   0.269
42131W        W13660  12.658   7.965  10.724
42132W        W13661  31.228  32.598   4.112
42133W        W13662  23.066  15.820  14.317
42134W        W13663   9.882   8.394  11.667
42135W        W13664  31.407  23.624   3.493
42136W        W13665   9.804  29.441  14.738
42137W        W13666  10.443  32.415   3.668
42138W        W13667  33.577  27.612   2.781
42139W        W13668   9.947  18.588   0.817
42140W        W13669  25.463  25.991  14.332
42141W        W13670  30.073  42.941  11.496
42142W        W13671   8.480  43.250  10.932
42143W        W13672  39.397  35.140   1.217
42144W        W13673  38.551   7.153  11.015
42145W        W13674  44.485  12.213  13.871
42146W        W13675  42.809   1.324  14.260
42147W        W13676  21.324  14.026  11.564
42148W        W13677   3.845   4.644   4.521
42149W        W13678  39.744  13.217  11.551
42150W        W13679  11.315  29.537   4.492
42151W        W13680  41.500  40.891  12.216
42152W        W13681  22.588  44.882   2.673
42153W        W13682   3.060  35.861  13.737
42154W        W13683   9.628  42.930  13.501
42155W        W13684  28.829   7.788   0.915
42156W        W13685  11.079  44.366  14.538
42157W        W13686   6.460  42.699  14.977
42158W        W13687  27.608  29.931  13.978
42159W        W13688  24.694  20.604   2.269
42160W        W13689  22.025  30.623   4.733
42161W        W13690  36.886  22.726   0.522
42162W        W13691  34.246  23.376  12.433
42163W        W13692  43.918  41.261  14.369
42164W        W13693  20.797  41.409  14.948
42165W        W13694  11.210  16.584   1.797
42166W        W13695  42.309  17.539  11.100
42167W        W13696  15.047   0.288   3.177
42168W        W13697   7.822  36.637   1.880
42169W        W13698  20.917  42.867  12.568
42170W        W13699   6.229  38.398   4.564
42171W        W13700  34.249   5.874  12.344
42172W        W13701   7.651  42.522  14.451
42173W        W13702  23.546  25.999  11.084
42174W        W13703   4.476   3.417   3.514
42175W        W13704  44.192   9.038  10.405
42176W        W13705  34.256  41.491   0.367
42177W        W13706  43.863  42.961   2.699
42178W        W13707   3.399  27.178   3.654
42179W        W13708  25.829   9.224  12.046
42180W        W13709  25.849  21.342   4.146
42181W        W13710  17.675  22.556   3.158
42182W        W13711   4.978   6.723  12.347
42183W        W13712  25.261  35.109  12.121
42184W        W13713   0.453  29.107   0.306
42185W        W13714  34.889  11.348  10.610
42186W        W13715  40.733  36.076   4.245
42187W        W13716  17.293   5.565  12.527
42188W        W13717  30.004   2.387  13.467
42189W        W13718  22.661  37.968  14.926
42190W        W13719  28.120  10.029   5.005
42191W        W13720  28.176  32.118  12.692
42192W        W13721  17.155  22.145   2.141
42193W        W13722   3.250  28.524  14.760
42194W        W13723  28.261  27.442   3.796
42195W        W13724   8.962  28.257  11.109
42196W        W13725  39.173   1.535  11.543
42197W        W13726  40.481  32.678  11.396
42198W        W13727  37.458   9.853   0.069
42199W        W13728  37.511  33.504   2.621
42200W        W13729  19.015  37.288   9.587
42201W        W13730   1.345   0.457  14.817
42202W        W13731  31.401  25.227  10.765
42203W        W13732  43.778  18.162   4.173
42204W        W13733  18.396  31.014  10.188
42205W        W13734  24.989  11.892   3.101
42206W        W13735  25.032   1.793   0.275
42207W        W13736   3.478  24.614  11.468
42208W        W13737  13.758  22.630  14.320
42209W        W13738  42.463  18.614   1.413
42210W        W13739  10.418  34.145   3.296
42211W        W13740  26.683   5.428  11.955
42212W        W13741  20.268  12.198  11.187
42213W        W13742   1.795  41.804  14.248
42214W        W13743   1.886  19.730   3.180
42215W        W13744  42.172  21.776  13.173
42216W        W13745   4.734  30.111   2.407
42217W        W13746  21.766   2.210  12.021
42218W        W13747  35.124  14.580  12.874
42219W        W13748  42.353  44.331   3.060
42220W        W13749  12.722  38.254   0.173
42221W        W13750  12.742  24.011   2.743
42222W        W13751  41.675   9.091   0.695
42223W        W13752  18.562  25.601  14.416
42224W        W13753   1.374  27.829   3.841
42225W        W13754  28.194  43.978  11.138
42226W        W13755  37.613   3.413   2.660
42227W        W13756  38.923  37.813   0.458
42228W        W13757  38.998  27.014   2.266
42229W        W13758   6.668  42.628  11.040
42230W        W13759   6.800  41.054   4.389
42231W        W13760   0.037  11.762   1.674
42232W        W13761   5.782  36.162  13.092
42233W        W13762  29.710  40.987   0.848
42234W        W13763  38.967   7.101  13.515
42235W        W13764  40.747  28.539  14.869
42236W        W13765  20.798  29.616   0.750
42237W        W13766  11.660   7.680  14.788
42238W        W13767  16.616   5.938   2.816
42239W        W13768  28.136  12.447  14.466
42240W        W13769  38.326   1.097  12.420
42241W        W13770  23.239  39.280  14.801
42242W        W13771  16.051  28.017  10.989
42243W        W13772  27.227   0.243   2.479
42244W        W13773  30.999   4.995  13.571
42245W        W13774  16.768   5.370   4.640
42246W        W13775  26.131  31.956  10.699
42247W        W13776   2.366  21.271  14.344
42248W        W13777   9.731  20.916  10.102
42249W        W13778  36.120   6.049   3.256
42250W        W13779  43.936   2.606  14.299
42251W        W13780  30.045  16.315  11.927
42252W        W13781  15.230  29.715   0.354
42253W        W13782  32.750  38.214  14.315
42254W        W13783  29.884   8.632   1.443
42255W        W13784   0.236  31.019  14.434
42256W        W13785  12.144  39.775   2.931
42257W        W13786  40.831  28.500   3.702
42258W        W13787   4.470   0.705   0.980
42259W        W13788  36.035  39.523  10.725
42260W        W13789   8.565  33.419   2.258
42261W        W13790  37.514  27.556   0.338
42262W        W13791  41.291  28.042   1.396
42263W        W13792  33.970  38.418   0.875
42264W        W13793  29.535   4.820  13.564
42265W        W13794   3.122   1.517   2.656
42266W        W13795   8.484   6.305  12.493
42267W        W13796  10.107  27.265   3.391
42268W        W13797   8.771  17.334  14.783
42269W        W13798  18.122  43.453  11.089
42270W        W13799  26.685  20.974  13.948
42271W        W13800  38.562   3.443  12.963
42272W        W13801  30.764   4.472   1.330
42273W        W13802  38.960  38.027  10.819
42274W        W13803  43.336  13.732  12.583
42275W        W13804  14.739  44.792   1.262
42276W        W13805   9.350  39.768   3.489
42277W        W13806  17.063   9.739  13.984
42278W        W13807   9.234  29.525  10.316
42279W        W13808  26.993   4.288   2.109
42280W        W13809  10.226   3.377   2.875
42281W        W13810  11.813  20.990   4.306
42282W        W13811  29.967  14.544   1.351
42283W        W13812  35.379   8.955  14.803
42284W        W13813  18.172  22.981  13.005
42285W        W13814   9.879   3.266  13.744
42286W        W13815   2.484  23.974   3.117
42287W        W13816  15.414  29.199   3.220
42288W        W13817   3.456   9.983  12.980
42289W        W13818  24.542  21.216   0.542
42290W        W13819  17.804  31.216   4.655
42291W        W13820  36.592   1.961  14.223
42292W        W13821  43.875  13.367   0.467
42293W        W13822  34.450  13.158  11.802
42294W        W13823  44.730  21.671  13.946
42295W        W13824  42.948  43.365  12.257
42296W        W13825  18.171  13.766  11.153
42297W        W13826  35.186  34.890  14.791
42298W        W13827  36.564  17.768   3.747
42299W        W13828  43.347  28.000   0.721
42300W        W13829  19.185  34.418  10.805
42301W        W13830  35.659  36.127   0.833
42302W        W13831  42.868   7.387   3.727
42303W        W13832  22.448  13.316  12.232
42304W        W13833   0.303  12.625   2.260
42305W        W13834   0.524  31.617   4.685
42306W        W13835  30.884  44.192   1.272
42307W        W13836  21.637   6.292   3.631
42308W        W13837  25.859  17.845   2.715
42309W        W13838  36.695   0.809   1.736
42310W        W13839   4.256  38.262  11.027
42311W        W13840  36.494   1.657   4.042
42312W        W13841  24.569  26.610  14.273
42313W        W13842  24.960  39.790  11.861
42314W        W13843  24.462  16.564   1.445
42315W        W13844  38.971  22.477   2.224
42316W        W13845  42.419  38.040   0.386
42317W        W13846  13.494  28.650   0.481
42318W        W13847  24.588  29.195   1.910
42319W        W13848  42.741  41.427   0.261
42320W        W13849  30.849   1.513   0.345
42321W        W13850   2.812  38.151   1.720
42322W        W13851   8.340  44.366   0.290
42323W        W13852  35.211   1.877   4.643
42324W        W13853  31.884   1.466   3.247
42325W        W13854  11.067  20.507  14.895
42326W        W13855   8.840  37.458   2.326
42327W        W13856  10.220  41.518   0.435
42328W        W13857  34.488  16.957  11.539
42329W        W13858  30.342  35.909   3.705
42330W        W13859  35.516  39.416  14.510
42331W        W13860   7.435   9.995  12.279
42332W        W13861  32.201  40.896   3.666
42333W        W13862   3.145  39.906  14.840
42334W        W13863  33.597  34.570   3.521
42335W        W13864  10.751  10.728   3.640
42336W        W13865  25.903  19.740   4.583
42337W        W13866  37.562  17.028   0.370
42338W        W13867  36.594  18.348   3.121
42339W        W13868  32.277   0.896   4.873
42340W        W13869  42.545  19.045  14.303
42341W        W13870  32.589  10.780  13.137
42342W        W13871  31.551  13.833  14.308
42343W        W13872   4.352   4.213   2.397
42344W        W13873  21.210  37.403  11.981
42345W        W13874  19.153  34.859   4.178
42346W        W13875  24.744  18.789  11.079
42347W        W13876  40.882   4.410   3.002
42348W        W13877   4.075  26.551  14.430
42349W        W13878  23.653   0.029  11.127
42350W        W13879  38.538  39.113   2.709
42351W        W13880  42.663  16.050   0.184
42352W        W13881   1.973  24.733  14.976
42353W        W13882  42.029  23.127  14.916
42354W        W13883  30.286  19.341  14.478
42355W        W13884  14.369   6.280  12.936
42356W        W13885  44.745  40.415   3.394
42357W        W13886   1.389  39.797   1.375
42358W        W13887   9.351   6.804   0.318
42359W        W13888  31.510  41.831   4.873
42360W        W13889  44.268  40.025   1.738
42361W        W13890   8.188  24.296  12.133
42362W        W13891   8.151  30.406  12.431
42363W        W13892  38.294  34.609   2.884
42364W        W13893  19.080  28.721   2.157
42365W        W13894   3.230   3.120   4.316
42366W        W13895  36.359  19.611  10.475
42367W        W13896  28.236  21.529  12.404
42368W        W13897  28.473  25.511  11.136
42369W        W13898  40.384   1.247  11.936
42370W        W13899   2.715  37.050   3.637
42371W        W13900   0.517  11.202  11.575
42372W        W13901  27.693  14.818   1.909
42373W        W13902  16.598  26.169   4.064
42374W        W13903  34.973  34.368   3.621
42375W        W13904  10.665  33.726   0.968
42376W        W13905   2.756  21.100  11.938
42377W        W13906  21.126  22.153  11.698
42378W        W13907  13.393  36.875  11.143
42379W        W13908  16.485   7.105   0.819
42380W        W13909  16.159  20.994  11.994
42381W        W13910   4.282  31.919  11.126
42382W        W13911  36.085  14.589   4.349
42383W        W13912  15.869  19.570   2.987
42384W        W13913   5.885  36.617  13.328
42385W        W13914   8.823   4.196  12.840
42386W        W13915   0.748  19.823   2.526
42387W        W13916  26.523   0.666  12.354
42388W        W13917  29.492  16.645  12.477
42389W        W13918   2.341  37.324  11.621
42390W        W13919   8.845  23.551  14.933
42391W        W13920  33.865  13.736  13.660
42392W        W13921  39.971  40.112   3.307
42393W        W13922   8.364  32.693  12.173
42394W        W13923  38.971   1.805   4.131
42395W        W13924   5.572  10.877  12.694
42396W        W13925   3.660  35.192   4.584
42397W        W13926  33.157  27.135   4.547
42398W        W13927  31.400  30.402  12.082
42399W        W13928  23.826  37.459   2.672
42400W        W13929  19.715  26.986  12.610
42401W        W13930  40.844   0.988   3.977
42402W        W13931  12.808  35.419   0.560
42403W        W13932  22.749  43.252   1.775
42404W        W13933  39.618  37.013  12.936
42405W        W13934  10.858  29.507  11.964
42406W        W13935  43.157   5.120   1.387
42407W        W13936  12.206  10.867   4.151
42408W        W13937  36.962   4.308  13.882
42409W        W13938  14.217  13.894   1.881
42410W        W13939  42.438  37.882  13.957
42411W        W13940  21.150  22.757   0.419
42412W        W13941  29.706  37.071   0.695
42413W        W13942   0.964  32.361   1.810
42414W        W13943  24.586  36.443   1.258
42415W        W13944  23.584   6.748  11.687
42416W        W13945  19.621  37.134  13.004
42417W        W13946   5.015  29.085  11.561
42418W        W13947  31.971  13.410   4.189
42419W        W13948  18.670   1.947   0.204
42420W        W13949  22.629  23.175  14.047
42421W        W13950  23.517  38.360   1.144
42422W        W13951  22.184  31.169  11.103
42423W        W13952   8.094  28.883   0.707
42424W        W13953  27.172   8.342  11.536
42425W        W13954  16.180  30.624  11.247
42426W        W13955   7.182  44.843   2.910
42427W        W13956  40.517   4.455  11.538
42428W        W13957  34.031   1.689   4.238
42429W        W13958  10.185   2.623  10.373
42430W        W13959  36.624  43.839  12.921
42431W        W13960  28.860  21.942  14.311
42432W        W13961  21.216  30.587  11.532
42433W        W13962  17.377  41.786   5.340
42434W        W13963   0.547  39.051   0.779
42435W        W13964   1.282  37.004   5.013
42436W        W13965  14.555   6.265  11.177
42437W        W13966  23.161  18.615  10.752
42438W        W13967  33.883  15.506  14.857
42439W        W13968  12.341  27.549  12.198
42440W        W13969  42.301  27.697  12.500
42441W        W13970  36.220   4.831   0.689
42442W        W13971  31.419  33.201  12.403
42443W        W13972  26.910  40.543   4.236
42444W        W13973  15.793  24.347  10.651
42445W        W13974   9.733  28.529   4.059
42446W        W13975  27.601  16.402   0.381
42447W        W13976  23.175  38.964  10.661
42448W        W13977  37.917  42.279  10.677
42449W        W13978  35.544   7.217   1.891
42450W        W13979   8.275   5.251  14.029
42451W        W13980   6.397  23.254  14.950
42452W        W13981  42.708  30.825  14.778
42453W        W13982  17.085   4.536   4.552
42454W        W13983  41.042  13.339  14.996
42455W        W13984   9.984  23.186  13.849
42456W        W13985  31.530   2.418  10.779
42457W        W13986  11.111  11.235  11.210
42458W        W13987  12.665  11.282  12.542
42459W        W13988  17.669  12.164   1.213
42460W        W13989  37.433  27.660   4.754
42461W        W13990  10.832  43.199  12.045
42462W        W13991  21.471   1.824   3.253
42463W        W13992  16.740   1.290  13.609
42464W        W13993  16.087  16.880  12.997
42465W        W13994  22.207  22.016  10.853
42466W        W13995   2.322  10.179   2.902
42467W        W13996  12.069   5.428   1.873
42468W        W13997  38.792  40.960   0.320
42469W        W13998  18.657   8.079  13.554
42470W        W13999   2.469  25.798  13.481
42471W        W14000  14.749  38.453  12.261
42472W        W14001  13.660  19.966   1.284
42473W        W14002  38.794  36.995   3.270
42474W        W14003  25.127  15.897   2.885
42475W        W14004   8.448  37.770   1.639
42476W        W14005   9.810  14.014  13.745
42477W        W14006  42.459  40.977   3.922
42478W        W14007  21.963  13.202  11.559
42479W        W14008  36.861  33.868  14.495
42480W        W14009  29.121   0.705   0.764
42481W        W14010  40.068  23.967   4.366
42482W        W14011  42.515  13.788  10.684
42483W        W14012   8.970  42.638  10.283
42484W        W14013  42.436  13.596   0.281
42485W        W14014  25.947  28.544   3.380
42486W        W14015  32.417  38.034   2.787
42487W        W14016  16.024  27.724   2.744
42488W        W14017  29.589  21.046  11.581
42489W        W14018   3.912  43.362   4.130
42490W        W14019  44.787  24.054   0.492
42491W        W14020   9.276  24.122   0.321
42492W        W14021  15.161  16.713  13.007
42493W        W14022  19.483  22.326  13.078
42494W        W14023  15.041  21.694  10.541
42495W        W14024  29.883  11.948   4.287
42496W        W14025   6.177   8.399  10.747
42497W        W14026  26.955  18.681  12.137
42498W        W14027  36.928  20.294   4.039
42499W        W14028   0.406   2.479   2.788
42500W        W14029   3.258  18.020   0.542
42501W        W14030  32.119  29.456   0.452
42502W        W14031  24.409  13.070   2.775
42503W        W14032  15.784  16.410  14.888
42504W        W14033  38.688  31.392   2.164
42505W        W14034   3.162  33.894  13.843
42506W        W14035  10.674  33.583  13.534
42507W        W14036   3.930  38.574  13.298
42508W        W14037  43.910  34.833  12.528
42509W        W14038  38.009   0.518  14.002
42510W        W14039  12.395  33.010  10.725
42511W        W14040  12.374  44.954  14.585
42512W        W14041  27.878  29.005  14.911
42513W        W14042  39.059  14.689  13.449
42514W        W14043  19.043  36.041   4.166
42515W        W14044  29.726   0.282  13.616
42516W        W14045  44.734  42.990  10.684
42517W        W14046  41.351  36.543   3.657
42518W        W14047  36.113  21.968   2.802
42519W        W14048   0.001  24.224   2.660
42520W        W14049   0.542  21.203   4.132
42521W        W14050  35.876  25.567   3.228
42522W        W14051   3.966  20.705  13.782
42523W        W14052   7.269  29.442   4.686
42524W        W14053  10.293  35.925  12.890
42525W        W14054  23.714  41.557   4.720
42526W        W14055  17.609  20.103   1.822
42527W        W14056  38.235  30.615   3.730
42528W        W14057  14.366  39.681  12.452
42529W        W14058   8.460  10.201  14.954
42530W        W14059   8.904  42.922   5.008
42531W        W14060   3.144   6.642  13.205
42532W        W14061  26.605  19.080   2.175
42533W        W14062  14.295   9.644   0.031
42534W        W14063  41.885  27.870  10.259
42535W        W14064   3.625  11.886   3.119
42536W        W14065  44.551  26.171  14.356
42537W        W14066   6.894  26.181  11.574
42538W        W14067  31.098  23.243  11.144
42539W        W14068  18.977  10.419  14.896
42540W        W14069  41.386  44.293   0.660
42541W        W14070  36.922   5.420   3.552
42542W        W14071  29.498  41.782  11.116
42543W        W14072   6.971  42.309  10.636
42544W        W14073  23.819  40.472  14.812
42545W        W14074  38.070  30.034   3.750
42546W        W14075  17.307   1.371   2.650
42547W        W14076  28.988  34.665   1.746
42548W        W14077  18.581  27.082  11.009
42549W        W14078  26.714  43.800  14.491
42550W        W14079  32.639  21.242  14.807
42551W        W14080  26.516  42.625   3.579
42552W        W14081  22.551  18.624  14.892
42553W        W14082  13.375  14.860  14.705
42554W        W14083   7.095  16.330   1.255
42555W        W14084  41.393  13.202   1.707
42556W        W14085   3.630   6.807  13.269
42557W        W14086  23.085  32.601  14.853
42558W        W14087  37.896  41.292  12.660
42559W        W14088  17.650  20.888   2.105
42560W        W14089   5.505  37.493  13.138
42561W        W14090   8.782  12.568  11.140
42562W        W14091  12.786  36.179  14.382
42563W        W14092  13.365  37.266  13.841
42564W        W14093  24.122  38.526   4.760
42565W        W14094  43.304  13.249  14.392
42566W        W14095   4.746  41.516   3.235
42567W        W14096  26.023   3.362  13.382
42568W        W14097   0.398   4.732   3.472
42569W        W14098   6.126  39.086   5.005
42570W        W14099  42.370   9.273  11.899
42571W        W14100  30.036  22.892   4.221
42572W        W14101  21.549  31.728   2.095
42573W        W14102  16.998  30.189  11.639
42574W        W14103  12.353  17.109   3.200
42575W        W14104  32.431  29.842  12.438
42576W        W14105  32.626  44.291   1.828
42577W        W14106  27.431  27.521   4.169
42578W        W14107   0.242  36.181   3.251
42579W        W14108  11.543  13.132  14.413
42580W        W14109  19.542   5.822   0.799
42581W        W14110  28.518  14.985  12.000
42582W        W14111  38.222  36.586  11.953
42583W        W14112  41.991  39.445   3.081
42584W        W14113  22.702  34.658   1.764
42585W        W14114  10.859  23.691  13.369
42586W        W14115  13.798  23.233  12.168
42587W        W14116  27.389   8.097  11.928
42588W        W14117  25.920  13.256  14.832
42589W        W14118  25.798  15.319  11.783
42590W        W14119  41.533  39.023  10.662
42591W        W14120  19.796  16.875  12.525
42592W        W14121  40.972  12.217   0.123
42593W        W14122  23.870  37.300  13.103
42594W        W14123  13.190  25.152  14.977
42595W        W14124  36.774  32.141  14.100
42596W        W14125   6.195  21.970  11.037
42597W        W14126  19.241  36.909   2.219
42598W        W14127   9.722  30.578   0.716
42599W        W14128  13.321  29.936  12.190
42600W        W14129  29.187  25.224   3.238
42601W        W14130  32.363   1.425   1.955
42602W        W14131   7.846  19.612   4.598
42603W        W14132  11.322  37.909   3.158
42604W        W14133  31.676   2.703   3.668
42605W        W14134  21.413  42.834  10.064
42606W        W14135   4.156  28.683  11.199
42607W        W14136  23.393   3.840  12.437
42608W        W14137  26.301  41.685  12.064
42609W        W14138   1.035  34.683  11.691
42610W        W14139  43.473  25.758   3.365
42611W        W14140  18.173  38.467   0.178
42612W        W14141  28.128  32.121   3.137
42613W        W14142   4.888  24.814   1.757
42614W        W14143   3.334  33.601   1.197
42615W        W14144  37.008  15.608   2.769
42616W        W14145  43.826   9.818   3.846
42617W        W14146   1.665  15.729   3.172
42618W        W14147  32.528  25.026   2.428
42619W        W14148  14.313  30.684  14.447
42620W        W14149  31.876  43.294  11.142
42621W        W14150  25.594  29.446  11.987
42622W        W14151  17.105  19.052  11.126
42623W        W14152  31.179  38.452   2.898
42624W        W14153  42.864  37.144  10.700
42625W        W14154  20.912  19.578  14.709
42626W        W14155  17.156  25.217   5.153
42627W        W14156   7.649  36.311   4.319
42628W        W14157  39.997  24.734  13.879
42629W        W14158  37.946  14.776  11.571
42630W        W14159  14.900  34.017   1.772
42631W        W14160  15.820   1.303   3.587
42632W        W14161   7.444   2.812  11.389
42633W        W14162  21.995   3.817   0.748
42634W        W14163  26.492  29.474  12.381
42635W        W14164  30.161  25.563   4.381
42636W        W14165  24.821  32.425   0.746
42637W        W14166  37.354  12.882  14.933
42638W        W14167  44.936  27.632   2.776
42639W        W14168  35.652  32.485  11.988
42640W        W14169  44.417  37.936   4.642
42641W        W14170  28.460  34.839  12.829
42642W        W14171  35.598   7.970  12.552
42643W        W14172  24.975   1.409  14.433
42644W        W14173   6.126   0.878   2.393
42645W        W14174   8.626   1.275  14.482
42646W        W14175  21.758  18.370  13.521
42647W        W14176   3.339  21.941  12.587
42648W        W14177  32.617  32.484   4.163
42649W        W14178   5.784  30.368   3.292
42650W        W14179  13.210  29.597  11.193
42651W        W14180  19.236  14.337   0.641
42652W        W14181  10.807   5.184  14.487
42653W        W14182  12.437  13.121   2.820
42654W        W14183  27.019  23.161  14.454
42655W        W14184   4.053   0.622  13.085
42656W        W14185  30.543  25.935  11.105
42657W        W14186   2.832  29.023  13.289
42658W        W14187   6.506  38.091   1.245
42659W        W14188   4.216  30.531  14.495
42660W        W14189  37.756  43.314   2.710
42661W        W14190   7.760  19.299   2.707
42662W        W14191  28.572  32.350   3.239
42663W        W14192  16.686  11.767   3.701
42664W        W14193  24.704   0.419   2.368
42665W        W14194  14.386  30.468   4.877
42666W        W14195  13.846  44.585   3.989
42667W        W14196   2.869  16.234  12.376
42668W        W14197  24.654   8.184  14.407
42669W        W14198  15.538  35.036   4.678
42670W        W14199  21.724   9.257   0.159
42671W        W14200   9.684  24.071  14.976
42672W        W14201  35.564  35.660  13.871
42673W        W14202  32.595  15.107   3.911
42674W        W14203  21.528  16.667  13.879
42675W        W14204  24.472  17.512  14.482
42676W        W14205  36.020  32.244  14.869
42677W        W14206  17.459  32.593  11.064
42678W        W14207  40.696  11.886  11.181
42679W        W14208  10.788  44.026  12.565
42680W        W14209  28.958  25.835   0.230
42681W        W14210  21.556   7.026   4.130
42682W        W14211   3.798  11.831   2.622
42683W        W14212  27.256  39.236  12.445
42684W        W14213   4.132  13.370  11.163
42685W        W14214  38.278  38.772  11.158
42686W        W14215  37.974  32.895   0.086
42687W        W14216  36.340  43.751   3.563
42688W        W14217  24.663   3.930   1.892
42689W        W14218  34.416  31.142  12.673
42690W        W14219  14.344  28.442  10.416
42691W        W14220  29.465  40.686   2.769
42692W        W14221   6.210  31.643  11.626
42693W        W14222  10.732  33.086  11.130
42694W        W14223  42.348  19.221  12.817
42695W        W14224   0.057  29.620  11.023
42696W        W14225  15.206   1.404  13.864
42697W        W14226  12.249  12.054  11.308
42698W        W14227  23.452   9.588   3.644
42699W        W14228  34.372  43.937  12.590
42700W        W14229  26.055   5.383  14.343
42701W        W14230   1.641  36.595   4.183
42702W        W14231  25.714  12.334   0.826
42703W        W14232  24.138  22.967   1.715
42704W        W14233  33.799   9.249   0.290
42705W        W14234  33.862  39.112  14.966
42706W        W14235  36.855  19.316  11.234
42707W        W14236  22.034  37.199   3.884
42708W        W14237  27.739  24.527   2.325
42709W        W14238  34.134  20.740   3.780
42710W        W14239  26.932   1.304  14.430
42711W        W14240  11.758   1.982   2.357
42712W        W14241  29.405  37.007   2.318
42713W        W14242  14.178  43.264  14.996
42714W        W14243   0.234  24.700  12.082
42715W        W14244  30.937  44.243   2.180
42716W        W14245  11.996  20.746   0.027
42717W        W14246   5.813  20.315   1.199
42718W        W14247  33.144  14.006  13.327
42719W        W14248  42.485  25.128  13.582
42720W        W14249  24.954  41.055  13.821
42721W        W14250   1.787  41.073  11.653
42722W        W14251   8.568  14.392   0.588
42723W        W14252  28.008  14.044  12.145
42724W        W14253  27.049  12.045   3.070
42725W        W14254  29.232  37.612   3.089
42726W        W14255   6.793  29.613   3.644
42727W        W14256  40.102  44.254  10.726
42728W        W14257  39.658  41.936   2.375
42729W        W14258   5.899  28.134   0.054
42730W        W14259   7.420  40.006   3.356
42731W        W14260   0.703  29.497   2.368
42732W        W14261   0.170  21.626  11.473
42733W        W14262   3.679  37.702   4.110
42734W        W14263  11.654   3.177  12.590
42735W        W14264  20.992  39.118  14.751
42736W        W14265  15.954  14.966   1.608
42737W        W14266  14.006  25.744   4.282
42738W        W14267  18.697  20.034  13.478
42739W        W14268  10.785  43.082   5.101
42740W        W14269   0.035   3.927   0.342
42741W        W14270  17.120  38.967   0.940
42742W        W14271  23.226  21.518   4.712
42743W        W14272   8.428  28.845   4.156
42744W        W14273   1.110  23.643   2.283
42745W        W14274  42.449  35.595   4.645
42746W        W14275   6.386  29.274   1.326
42747W        W14276  25.774  23.012  11.024
42748W        W14277   6.760  11.627  14.084
42749W        W14278  18.861   4.590  14.287
42750W        W14279  16.601  17.288   3.562
42751W        W14280  41.493   5.223   4.125
42752W        W14281  42.363  42.105   4.009
42753W        W14282  26.078  24.179   3.116
42754W        W14283  30.309  19.728  11.352
42755W        W14284  38.955  11.129  10.613
42756W        W14285  22.078  35.260  11.979
42757W        W14286   0.231  43.916  11.783
42758W        W14287  43.449   2.816   4.164
42759W        W14288  17.599   0.300  11.996
42760W        W14289  27.611  33.890   3.038
42761W        W14290   9.779  16.363  10.691
42762W        W14291  44.761   6.171  14.797
42763W        W14292  29.145   5.717  14.652
42764W        W14293  17.235  19.987  12.073
42765W        W14294  17.025  29.615   1.566
42766W        W14295  18.430  20.680   2.772
42767W        W14296  43.816   3.071   1.728
42768W        W14297  24.793  24.054  13.813
42769W        W14298  17.297   5.779   0.327
42770W        W14299  15.044  11.196   4.109
42771W        W14300   5.035  26.745  14.405
42772W        W14301  17.427  15.190   2.752
42773W        W14302  44.079   9.868   2.077
42774W        W14303  31.497   9.770   0.351
42775W        W14304   5.717   0.681   4.793
42776W        W14305   1.737  11.093   3.415
42777W        W14306  25.246  24.645   2.721
42778W        W14307  21.425  21.445  11.750
42779W        W14308  20.287  13.289   2.538
42780W        W14309   7.960  10.707   3.671
42781W        W14310  41.139  40.581  14.596
42782W        W14311   2.209  16.807  13.512
42783W        W14312  43.371   6.212  13.000
42784W        W14313  30.934  20.255   4.117
42785W        W14314   8.230   5.400   3.438
42786W        W14315  26.769  40.635   3.732
42787W        W14316   8.819  14.861   0.881
42788W        W14317  19.980  26.438   1.815
42789W        W14318  43.858   8.583  12.069
42790W        W14319  16.697  24.246   1.423
42791W        W14320  32.144  23.733  11.052
42792W        W14321   4.345  30.943   2.864
42793W        W14322  15.839  44.352  10.702
42794W        W14323   0.688  16.822  14.379
42795W        W14324  42.348  27.086   4.464
42796W        W14325  44.503  36.523   1.410
42797W        W14326  26.136  40.276   0.435
42798W        W14327  21.193   5.874   2.857
42799W        W14328  29.492  12.636  13.037
42800W        W14329   4.438  19.218  12.396
42801W        W14330  17.988  34.648  13.940
42802W        W14331  17.729  24.507  12.110
42803W        W14332  20.838  35.064   3.056
42804W        W14333   2.340  16.129  14.782
42805W        W14334  23.749  15.246  13.491
42806W        W14335  13.401   0.360  11.686
42807W        W14336  22.135  22.007  11.411
42808W        W14337  23.445  11.818   4.286
42809W        W14338   4.675  39.759  12.600
42810W        W14339   4.035  24.981   1.510
42811W        W14340   7.355  17.662   2.434
42812W        W14341  24.048  32.540  11.058
42813W        W14342  12.795  39.808  11.942
42814W        W14343  41.506   8.319   3.526
42815W        W14344  44.267  31.970   0.713
42816W        W14345  14.187  16.602  13.001
42817W        W14346  25.064  20.308   1.017
42818W        W14347  14.353   5.250  14.067
42819W        W14348  30.456  35.599   1.653
42820W        W14349   2.436  14.286  11.301
42821W        W14350  17.327  41.471  14.846
42822W        W14351  26.637  39.971   2.080
42823W        W14352  38.759  43.751   1.457
42824W        W14353  41.760  28.609  13.628
42825W        W14354  37.946  24.135  12.589
42826W        W14355  18.098   5.960  11.539
42827W        W14356   8.232  34.534   4.678
42828W        W14357   9.327   6.320  10.745
42829W        W14358  15.703  37.054  11.283
42830W        W14359   0.417  25.663  11.886
42831W        W14360   3.382  30.068  12.871
42832W        W14361  18.784  19.203   0.246
42833W        W14362  23.784  44.826  12.355
42834W        W14363  44.565  15.765   4.651
42835W        W14364  11.914   6.438   0.996
42836W        W14365   5.503  28.592   1.714
42837W        W14366  29.756  13.555   1.408
42838W        W14367   8.921  16.214   3.111
42839W        W14368  10.141  22.467  12.333
42840W        W14369  34.987   3.755   0.909
42841W        W14370  35.973   0.863  13.391
42842W        W14371  28.556  43.879   3.558
42843W        W14372   1.472  27.217   4.600
42844W        W14373  23.570  14.319   4.668
42845W        W14374  23.253  18.050   4.119
42846W        W14375  18.314  33.431   4.096
42847W        W14376   3.029  13.541   2.159
42848W        W14377  13.070  31.483  10.686
42849W        W14378  11.511  19.055  11.182
42850W        W14379  16.143   6.306   2.213
42851W        W14380   4.925  26.302  10.604
42852W        W14381  32.664  40.284  11.100
42853W        W14382  40.369  12.624  11.719
42854W        W14383  17.623  28.468   0.793
42855W        W14384  41.653  19.905   0.184
42856W        W14385  32.084  30.174   4.576
42857W        W14386   0.660  35.354   4.164
42858W        W14387  29.138   1.375   1.221
42859W        W14388  12.765  17.549  14.919
42860W        W14389  32.380  11.473  11.573
42861W        W14390  39.311   5.706   2.395
42862W        W14391  33.219  17.264  12.352
42863W        W14392  39.112   4.664  12.392
42864W        W14393   0.509   1.964  14.757
42865W        W14394  32.179  13.319   1.783
42866W        W14395  38.193  40.626  11.975
42867W        W14396  24.707   5.711  12.965
42868W        W14397  23.215  26.658  12.161
42869W        W14398  31.947  27.485   4.225
42870W        W14399  40.958  28.443  11.396
42871W        W14400   9.820  41.345   0.700
42872W        W14401  38.311  31.430  12.049
42873W        W14402  38.475   6.771  14.299
42874W        W14403  30.020  43.205   0.430
42875W        W14404  32.604  36.897  12.325
42876W        W14405   1.949   3.487   3.113
42877W        W14406  16.092  19.685  12.851
42878W        W14407  16.853  27.478   1.757
42879W        W14408  23.093  34.422   2.663
42880W        W14409   2.083  30.693   2.802
42881W        W14410  20.403  25.684   2.835
42882W        W14411  32.590  35.991  14.733
42883W        W14412  17.607  44.370  14.902
42884W        W14413  29.833  11.723   1.664
42885W        W14414   1.812  15.032   1.179
42886W        W14415  19.670   1.005  12.964
42887W        W14416  39.289  33.433   3.071
42888W        W14417  30.028  43.400  12.708
42889W        W14418  13.817  33.406  13.596
42890W        W14419  19.298   3.318   2.879
42891W        W14420  37.871  44.045   1.243
42892W        W14421  20.644  18.024   3.582
42893W        W14422  10.951  33.902  10.777
42894W        W14423   6.355   0.360  10.232
42895W        W14424  31.970  33.480  10.961
42896W        W14425  28.370  32.619  14.785
42897W        W14426  27.075  20.546   3.196
42898W        W14427  36.397  27.433   1.888
42899W        W14428  40.814  32.812   4.171
42900W        W14429  16.628  20.831   4.464
42901W        W14430   8.084  19.830  10.536
42902W        W14431  10.768  35.294  14.755
42903W        W14432  14.017  38.072   0.262
42904W        W14433   2.025  37.032   1.477
42905W        W14434  25.558  28.209  14.751
42906W        W14435  30.696  26.650  11.645
42907W        W14436  42.473  24.001   1.371
42908W        W14437  10.875  10.854  11.495
42909W        W14438  14.590  35.439  11.218
42910W        W14439  16.776  25.874  11.046
42911W        W14440  17.096  28.263  10.691
42912W        W14441  18.801  12.223  13.880
42913W        W14442  10.701  27.034  12.433
42914W        W14443  35.900   6.308  13.814
42915W        W14444  22.142   7.872  10.511
42916W        W14445  26.456  10.900  10.765
42917W        W14446  42.450  38.918  10.732
42918W        W14447  12.339  10.459  11.544
42919W        W14448   8.816   0.680  14.949
42920W        W14449  31.579  14.867  13.267
42921W        W14450  17.023  42.367   0.455
42922W        W14451  33.710   5.350   3.563
42923W        W14452  14.351  40.879  12.992
42924W        W14453  28.826  24.370  13.539
42925W        W14454   6.257   6.717  11.217
42926W        W14455   6.898  36.078   4.590
42927W        W14456  33.618   7.167   0.875
42928W        W14457  19.242  12.095  11.107
42929W        W14458  12.286  15.028  11.220
42930W        W14459  44.611  24.890  11.106
42931W        W14460  13.073   2.418   4.204
42932W        W14461  24.495  41.302   1.506
42933W        W14462  18.267  25.624   2.613
42934W        W14463  42.454  14.142  11.595
42935W        W14464   1.368  21.930  12.788
42936W        W14465  13.260  34.295  12.843
42937W        W14466  39.895  22.535  10.562
42938W        W14467   3.912  44.584  11.516
42939W        W14468  29.572  41.633   1.810
42940W        W14469  29.595  35.938   4.439
42941W        W14470  44.426  15.883  13.040
42942W        W14471  22.024   3.226  12.519
42943W        W14472  21.145  13.162   2.415
42944W        W14473  12.551  16.792  14.404
42945W        W14474  36.466   1.933   4.480
42946W        W14475  36.104  16.320   2.068
42947W        W14476  25.770  25.688  11.258
42948W        W14477  36.621  22.588  14.272
42949W        W14478  18.633  11.672  10.395
42950W        W14479   7.073  39.664   3.115
42951W        W14480  39.369  20.886   2.339
42952W        W14481  13.744  13.571   2.774
42953W        W14482   3.414  30.468  13.824
42954W        W14483  31.729  29.572   0.846
42955W        W14484  38.956  35.522  14.255
42956W        W14485  12.892  36.884   1.437
42957W        W14486  32.374   6.435   1.366
42958W        W14487  19.484   5.299   0.791
42959W        W14488  24.417  18.947  12.101
42960W        W14489  27.887  17.484   3.712
42961W        W14490  25.519  33.152   0.969
42962W        W14491  19.825  15.475  13.285
42963W        W14492  41.523   1.376  14.825
42964W        W14493  43.846   7.209  10.686
42965W        W14494  18.745   0.241  11.454
42966W        W14495  16.080  39.786   3.547
42967W        W14496  19.900   9.148  11.839
42968W        W14497  19.772  43.029  11.903
42969W        W14498   0.226  34.353   1.317
42970W        W14499  30.997   5.882   4.491
42971W        W14500   6.641  15.779  11.003
42972W        W14501  43.560  13.552   2.275
42973W        W14502  44.933   7.220   1.879
42974W        W14503   4.317   8.074  12.918
42975W        W14504  20.277  14.791   3.128
42976W        W14505  23.107  32.576   2.250
42977W        W14506  15.761  35.897   4.669
42978W        W14507  32.781  19.574   4.913
42979W        W14508  32.268  37.406   1.433
42980W        W14509   9.278  33.899   3.853
42981W        W14510  38.458  38.958   4.152
42982W        W14511  16.973  25.062  12.057
42983W        W14512   6.583  23.785  14.626
42984W        W14513  39.478  32.692  13.468
42985W        W14514  26.318  12.784   3.607
42986W        W14515  41.391  20.241   2.533
42987W        W14516  29.142  24.534   3.646
42988W        W14517  38.042  19.981  10.703
42989W        W14518  28.649  22.093   0.844
42990W        W14519   9.867  13.831  13.104
42991W        W14520  42.040  13.878   3.270
42992W        W14521  21.840  35.580   0.446
42993W        W14522  19.729  33.953  12.856
42994W        W14523  10.739  14.295   2.116
42995W        W14524  30.847  11.344   4.386
42996W        W14525  18.371  18.190   3.642
42997W        W14526  38.401  38.025   2.398
42998W        W14527  19.255   5.751  12.081
42999W        W14528  15.123  14.059   4.885
43000W        W14529  33.106  34.755  13.828
43001W        W14530   9.494  12.691  13.270
43002W        W14531  13.680  40.351   2.952
43003W        W14532   5.164  19.808  12.845
43004W        W14533  21.210  42.692   2.021
43005W        W14534   2.922  40.765  14.816
43006W        W14535  32.619  43.785  14.420
43007W        W14536  24.249  10.893  12.569
43008W        W14537  33.047  27.673   3.762
43009W        W14538   2.267  20.678  10.768
43010W        W14539  13.890  13.140  13.572
43011W        W14540  11.561  42.307  13.040
43012W        W14541  27.172  20.178   1.675
43013W        W14542  14.373   3.375  10.696
43014W        W14543   9.846  13.856  14.468
43015W        W14544  30.728   5.913  14.395
43016W        W14545  35.865  31.466   4.645
43017W        W14546  18.765  32.536  12.874
43018W        W14547  21.188  16.100   2.187
43019W        W14548  35.401   5.967   0.699
43020W        W14549  21.183  36.310   4.148
43021W        W14550  42.889  34.520  14.564
43022W        W14551  18.293  19.212  14.758
43023W        W14552  44.808  24.981   3.147
43024W        W14553  37.656  23.646  13.120
43025W        W14554  16.146  16.889   0.428
43026W        W14555  26.533  23.738  11.100
43027W        W14556  19.855  13.499   1.954
43028W        W14557   3.247  28.932  10.845
43029W        W14558   1.009  41.036  12.866
43030W        W14559  33.877   3.283   3.167
43031W        W14560  41.045  22.686   2.800
43032W        W14561  30.981  44.901  13.532
43033W        W14562  33.952  28.633   1.274
43034W        W14563  23.708  18.512  14.938
43035W        W14564  15.187  32.357   1.816
43036W        W14565  30.271   2.134  14.671
43037W        W14566  36.363  27.680  13.958
43038W        W14567  35.909  11.341  10.682
43039W        W14568  13.160   0.500   2.233
43040W        W14569  30.913  37.549   0.946
43041W        W14570  33.508  26.804   3.206
43042W        W14571  14.878  30.603  11.105
43043W        W14572  22.927  43.818   2.817
43044W        W14573  36.400  27.228  11.122
43045W        W14574  38.068   3.531   2.415
43046W        W14575  25.463  13.206   1.418
43047W        W14576   1.433  19.835  12.604
43048W        W14577   3.969   6.014   0.745
43049W        W14578  25.102   5.216  11.085
43050W        W14579  28.704  42.466  14.264
43051W        W14580  44.588  35.476   0.634
43052W        W14581  40.087  24.941   4.631
43053W        W14582  34.765  16.289  13.076
43054W        W14583  15.644  28.743  10.746
43055W        W14584  40.017  10.838  11.251
43056W        W14585  23.956  17.250  11.414
43057W        W14586   1.044  25.607   2.784
43058W        W14587  23.430   0.253  14.410
43059W        W14588  23.575  38.421  12.642
43060W        W14589  31.627   5.441  12.995
43061W        W14590  24.196  39.938   0.801
43062W        W14591  13.791  14.493   3.422
43063W        W14592  13.662  41.250  11.664
43064W        W14593  20.085   1.274   3.306
43065W        W14594  39.940  15.222   0.966
43066W        W14595  29.798  38.022  10.814
43067W        W14596  17.809  21.805  11.130
43068W        W14597  15.563  13.047  11.138
43069W        W14598  37.304  21.589  12.794
43070W        W14599  42.275  20.205  12.582
43071W        W14600  38.533  23.617   0.384
43072W        W14601  38.397  17.125   0.366
43073W        W14602   3.054  33.831   3.275
43074W        W14603  43.537   8.900  14.527
43075W        W14604   6.241  23.458  12.487
43076W        W14605  11.206  23.482   3.664
43077W        W14606   9.795   5.936   2.800
43078W        W14607  22.797  27.572  11.062
43079W        W14608   8.268  10.927   1.729
43080W        W14609  14.317  17.957  11.487
43081W        W14610  26.146  10.590  11.655
43082W        W14611   8.766  16.125  12.758
43083W        W14612  39.551  34.690   0.029
43084W        W14613  27.165  24.487   3.523
43085W        W14614  41.978  39.127  12.722
43086W        W14615  25.550  15.365  10.485
43087W        W14616  42.392  25.787  10.763
43088W        W14617  25.639  43.590   0.803
43089W        W14618  30.056  29.643   0.226
43090W        W14619  31.438  15.565   3.911
43091W        W14620  42.256  41.282  12.240
43092W        W14621  16.266  37.680  10.290
43093W        W14622  44.239  31.861   3.296
43094W        W14623  20.728  34.843   0.717
43095W        W14624  22.392  43.398  14.791
43096W        W14625  18.790  17.590  11.126
43097W        W14626  26.570  36.876   3.131
43098W        W14627  25.751  17.520  14.826
43099W        W14628  22.087  36.801  12.037
43100W        W14629  10.710  17.100   0.302
43101W        W14630  43.005  34.325  12.576
43102W        W14631  18.684  17.100  11.007
43103W        W14632  17.175  42.293  11.099
43104W        W14633  33.083  36.462  13.782
43105W        W14634  44.766  27.058  13.106
43106W        W14635  16.506  42.323   0.478
43107W        W14636  25.905  33.078   1.783
43108W        W14637  23.041  32.820  11.839
43109W        W14638  35.832   1.789  13.864
43110W        W14639   5.445  20.170   4.199
43111W        W14640  40.300  42.042   2.087
43112W        W14641  14.630  23.479  11.673
43113W        W14642  42.851  25.928   1.357
43114W        W14643   8.817  34.831  10.447
43115W        W14644  14.192  41.506   4.280
43116W        W14645   1.057   8.276   0.061
43117W        W14646  38.556  16.737   2.573
43118W        W14647  29.044  35.457   0.153
43119W        W14648  16.605  31.571  13.326
43120W        W14649  16.855  40.651   3.206
43121W        W14650  13.333  37.878   3.270
43122W        W14651  19.194   8.217   2.842
43123W        W14652  37.401   0.830   4.418
43124W        W14653  13.588  30.317  10.939
43125W        W14654  37.749  15.621  12.625
43126W        W14655  13.075  40.419  11.643
43127W        W14656   0.409  10.283  13.768
43128W        W14657  25.516  12.220  13.564
43129W        W14658   9.058  27.532   2.135
43130W        W14659  29.389  34.748   0.441
43131W        W14660   6.775  39.841  12.903
43132W        W14661  43.266  24.064  14.398
43133W        W14662   1.899   2.957   0.783
43134W        W14663  25.431  26.476   0.544
43135W        W14664   1.811  33.589  11.342
43136W        W14665   7.933  15.991  12.389
43137W        W14666   1.489   1.327   0.783
43138W        W14667  20.567  23.626  12.526
43139W        W14668  14.131   2.900   1.844
43140W        W14669  40.753  23.493  11.293
43141W        W14670   6.372  18.641   1.773
43142W        W14671  15.214  19.629  14.473
43143W        W14672  44.771  37.113  12.804
43144W        W14673  39.057  30.596   0.754
43145W        W14674  12.705  42.242   4.216
43146W        W14675  29.638  40.560  11.602
43147W        W14676  10.322   5.684  11.466
43148W        W14677  42.410  39.117  13.019
43149W        W14678  32.013  38.385  13.184
43150W        W14679   4.972  19.178  12.052
43151W        W14680  19.762  13.568   3.371
43152W        W14681  24.530  17.194   1.671
43153W        W14682   1.850  28.196   0.614
43154W        W14683  35.233  16.100   1.889
43155W        W14684   3.424  41.593  10.925
43156W        W14685  32.469   1.710   3.818
43157W        W14686  28.663  10.984  14.409
43158W        W14687   3.427   7.574   3.730
43159W        W14688  25.615  22.232  13.470
43160W        W14689  17.651   0.177   4.843
43161W        W14690  43.734   0.870   1.845
43162W        W14691  30.100  30.237   1.780
43163W        W14692  30.608  22.010  13.565
43164W        W14693  30.572  26.725  10.271
43165W        W14694   4.636   9.830   2.607
43166W        W14695  34.565  39.074   2.230
43167W        W14696  34.921  36.268  13.965
43168W        W14697  39.561   4.400  14.005
43169W        W14698   1.432  42.506  13.723
43170W        W14699  26.434   7.988   0.222
43171W        W14700  28.975  26.374   4.274
43172W        W14701  25.977  30.484  10.718
43173W        W14702  16.311  21.656   4.021
43174W        W14703   1.356  31.348  13.544
43175W        W14704  32.515  10.550  12.499
43176W        W14705  14.593  24.493  14.016
43177W        W14706  27.508  11.237   4.588
43178W        W14707  38.023  18.783  13.053
43179W        W14708  22.014   3.185   2.281
43180W        W14709  36.076   8.467  12.026
43181W        W14710  32.521  17.836  14.263
43182W        W14711   9.177  24.634   2.062
43183W        W14712  33.560  43.582   0.470
43184W        W14713  19.050  22.775   0.871
43185W        W14714  23.215  38.754   2.639
43186W        W14715  38.883  18.161  12.446
43187W        W14716  25.386  28.835  13.839
43188W        W14717  16.843   4.933   0.002
43189W        W14718  26.967   6.549  11.006
43190W        W14719  28.146   7.177  11.516
43191W        W14720   4.841   0.010  13.164
43192W        W14721  30.975   9.871   3.404
43193W        W14722  31.023  28.944   1.224
43194W        W14723  30.066  32.959  11.755
43195W        W14724  33.078   4.296  13.356
43196W        W14725  40.839  11.381  12.995
43197W        W14726  35.071  25.020  14.149
43198W        W14727   3.285  39.687  11.192
43199W        W14728  38.034  18.577  14.808
43200W        W14729  12.694  44.085  12.668
43201W        W14730  10.319  34.396  13.021
43202W        W14731  44.386   2.297   3.401
43203W        W14732  37.912   2.731   0.819
43204W        W14733   7.319  36.850  14.283
43205W        W14734  24.725  38.925   3.730
43206W        W14735  14.949  33.357  14.288
43207W        W14736  16.133  31.943   3.897
43208W        W14737  37.797  26.050  11.064
43209W        W14738  30.992  26.788  11.207
43210W        W14739  13.798  25.061  14.976
43211W        W14740  34.085  13.504   3.170
43212W        W14741   6.360  16.219   3.297
43213W        W14742   0.497  33.854   3.931
43214W        W14743  39.146   4.673   0.767
43215W        W14744  14.357  23.988  10.832
43216W        W14745  41.448  14.371  10.674
43217W        W14746  40.702  30.155  12.477
43218W        W14747  39.285  23.979  14.376
43219W        W14748  43.157  41.623   1.830
43220W        W14749   1.512   6.219  14.969
43221W        W14750  31.587  22.921   1.306
43222W        W14751  32.937  36.314  10.757
43223W        W14752  28.686  33.001   4.254
43224W        W14753   6.768  29.207   3.311
43225W        W14754  10.804  14.132  14.308
43226W        W14755  36.267   5.697   0.555
43227W        W14756  19.198  14.656   2.317
43228W        W14757  41.082  33.950   2.875
43229W        W14758  27.643   4.436  14.031
43230W        W14759   0.151  19.119   4.168
43231W        W14760  14.705  21.523   3.658
43232W        W14761   3.814   7.022  10.684
43233W        W14762   8.896   5.424  13.320
43234W        W14763  20.674   3.706   2.664
43235W        W14764  21.805  16.688  14.319
43236W        W14765  11.555  17.666  14.324
43237W        W14766  21.283  36.017   0.934
43238W        W14767  43.736  11.587   1.704
43239W        W14768  35.403  31.889   2.339
43240W        W14769  15.423   9.720  11.149
43241W        W14770  36.169  12.554   1.199
43242W        W14771  13.540  44.079   1.271
43243W        W14772  35.845  23.601  11.610
43244W        W14773  24.592   7.160  12.812
43245W        W14774  26.597  43.677   2.342
43246W        W14775   4.839  42.697  13.419
43247W        W14776  38.792  35.844  11.677
43248W        W14777  42.769   0.121   1.491
43249W        W14778  40.722   2.029  13.360
43250W        W14779   1.507   3.699   0.505
43251W        W14780  38.830  20.577   0.135
43252W        W14781  35.871  14.730  14.250
43253W        W14782   6.903   9.250  14.869
43254W        W14783  38.059  21.089   0.945
43255W        W14784  32.805  36.512  11.633
43256W        W14785  29.503  28.993  13.455
43257W        W14786   4.259  40.716   4.483
43258W        W14787  37.553   7.833  14.726
43259W        W14788   2.913  22.364   4.132
43260W        W14789  20.003  19.716  12.847
43261W        W14790  18.582  18.681   2.304
43262W        W14791  12.648  13.350  12.209
43263W        W14792  30.437  44.880  10.435
43264W        W14793  37.582  31.125   3.237
43265W        W14794  21.480  32.500   1.427
43266W        W14795   2.764  42.768   4.450
43267W        W14796  29.019  41.730  14.015
43268W        W14797  13.163   0.382   0.983
43269W        W14798  20.772  19.207  13.572
43270W        W14799  35.026  24.511   1.378
43271W        W14800  32.900   8.471  14.823
43272W        W14801   8.665  28.879  12.208
43273W        W14802   1.591  35.811  11.476
43274W        W14803  17.669  19.337   2.303
43275W        W14804  20.106   6.947   3.596
43276W        W14805  18.342  25.131  13.034
43277W        W14806  31.924  10.206   1.334
43278W        W14807  11.602  37.953  12.309
43279W        W14808   5.202   2.693  12.087
43280W        W14809   7.340  27.012   0.950
43281W        W14810  32.935  32.643  13.924
43282W        W14811  31.605  34.908   0.628
43283W        W14812  15.611  36.804   4.606
43284W        W14813  20.884   0.231   4.489
43285W        W14814   5.988  32.382   1.948
43286W        W14815  11.595  37.045  14.988
43287W        W14816   8.609   0.037   3.959
43288W        W14817  13.355  33.979   3.315
43289W        W14818  13.659  41.773  12.480
43290W        W14819   0.219  40.869   2.766
43291W        W14820  15.195   4.721   4.225
43292W        W14821  16.154  29.655   0.267
43293W        W14822  43.927  14.206  13.119
43294W        W14823  36.012  15.360   0.250
43295W        W14824  44.716  31.945  13.067
43296W        W14825   4.251  37.126   2.868
43297W        W14826   3.635  36.866  13.536
43298W        W14827  42.435  43.928  12.527
43299W        W14828  12.351  23.131  11.217
43300W        W14829   4.283  33.940   0.048
43301W        W14830  35.029  10.931   2.234
43302W        W14831  13.665   6.086   1.321
43303W        W14832  21.519  13.574  11.504
43304W        W14833  28.855  12.099   4.176
43305W        W14834  44.584   4.259  11.687
43306W        W14835  27.158  16.105  13.110
43307W        W14836   3.341   7.360  11.592
43308W        W14837   1.250  15.651  13.769
43309W        W14838   0.824  25.422  14.006
43310W        W14839  21.319  10.180  12.611
43311W        W14840  17.778  43.083  10.972
43312W        W14841  12.417  11.667  11.030
43313W        W14842  42.394  11.357  12.135
43314W        W14843  30.990   0.640   0.903
43315W        W14844  39.696  23.532   3.577
43316W        W14845  26.206   3.893   1.928
43317W        W14846  32.392  36.861  11.871
43318W        W14847   3.314  40.302  12.515
43319W        W14848   0.991  38.793   0.949
43320W        W14849   2.674  21.863   4.113
43321W        W14850  34.686  33.114  14.738
43322W        W14851  36.342  26.416   0.707
43323W        W14852  21.239  40.766   0.300
43324W        W14853  15.215  21.029  11.577
43325W        W14854   6.823  38.814   3.232
43326W        W14855  26.099  34.863  13.141
43327W        W14856  24.101  42.944  13.250
43328W        W14857   6.669   2.380  11.446
43329W        W14858   6.852  38.120   2.154
43330W        W14859  15.215   9.834   0.383
43331W        W14860   1.448  24.685  12.529
43332W        W14861  11.312   5.856  12.542
43333W        W14862   4.826   5.510  10.577
43334W        W14863   7.201  32.395   4.100
43335W        W14864   2.780  30.698   4.121
43336W        W14865  15.212   5.346   3.131
43337W        W14866  13.154  32.218   3.313
43338W        W14867  16.405  37.248  14.470
43339W        W14868  41.996  24.813   3.413
43340W        W14869  44.736  26.252   2.645
43341W        W14870  39.009  18.260  13.812
43342W        W14871  17.857   0.392   2.682
43343W        W14872  31.675  36.815   1.843
43344W        W14873  22.649  40.707   0.433
43345W        W14874  23.228  32.063  11.206
43346W        W14875  15.299  38.939   2.264
43347W        W14876   0.903   1.264  14.799
43348W        W14877  19.442  43.923  11.053
43349W        W14878  27.204   1.989   3.556
43350W        W14879  34.121   2.062  14.133
43351W        W14880   3.708  40.500  14.203
43352W        W14881   8.925   3.876   4.126
43353W        W14882  38.121  22.111   2.080
43354W        W14883  24.448  43.894  11.176
43355W        W14884  30.785   5.694  12.696
43356W        W14885  41.451  16.640   0.600
43357W        W14886  24.572  39.020  10.721
43358W        W14887  21.785  18.736  12.571
43359W        W14888  43.308  36.455  11.155
43360W        W14889  21.737   3.487   1.422
43361W        W14890  44.703  27.502   0.708
43362W        W14891  16.405  27.393   1.474
43363W        W14892  10.128  39.408   3.773
43364W        W14893  33.019  42.337   4.441
43365W        W14894  14.513   0.002   3.642
43366W        W14895   6.821  10.275  11.537
43367W        W14896  41.042   9.716   3.185
43368W        W14897   4.280  41.263   0.472
43369W        W14898  22.793  11.656   3.641
43370W        W14899  42.370   7.317  11.680
43371W        W14900   8.431  13.804   2.417
43372W        W14901  43.305  39.853   1.644
43373W        W14902   6.835  12.553  13.298
43374W        W14903   9.968   7.711   2.599
43375W        W14904  24.620  29.366   2.424
43376W        W14905  34.450  16.086   1.365
43377W        W14906  43.732  33.321  14.036
43378W        W14907  13.399  33.497   2.817
43379W        W14908   6.800  26.426   0.546
43380W        W14909  29.241  16.602   1.782
43381W        W14910  42.953   1.202   3.348
43382W        W14911   1.298  44.585  14.082
43383W        W14912   4.470   8.417  12.506
43384W        W14913  13.309  14.408  11.573
43385W        W14914  19.914  16.437  11.142
43386W        W14915  34.467  21.802  14.435
43387W        W14916   3.325  23.618   2.137
43388W        W14917  19.087  14.087  11.566
43389W        W14918  11.520  41.469  10.761
43390W        W14919  23.484  16.652  12.079
43391W        W14920  10.250  13.921  13.501
43392W        W14921  34.327   9.410  13.048
43393W        W14922   0.204  16.806   4.975
43394W        W14923  41.925  43.999  12.540
43395W        W14924  13.164   7.091   2.690
43396W        W14925   4.495   4.154   4.081
43397W        W14926   4.643  28.086  14.494
43398W        W14927  32.428  38.785  14.823
43399W        W14928   9.837  23.685   1.731
43400W        W14929  38.705  31.676   0.151
43401W        W14930  39.607  42.961  12.492
43402W        W14931  20.000   7.120   2.149
43403W        W14932   5.937  13.303   0.835
43404W        W14933  14.730  16.057   3.206
43405W        W14934  43.582  30.585  10.753
43406W        W14935  34.204  21.406   1.313
43407W        W14936  10.305  23.039  12.964
43408W        W14937  20.055  10.039   1.097
43409W        W14938  13.718   4.816  11.772
43410W        W14939   4.301   2.423  14.104
43411W        W14940   5.260  24.641   1.424
43412W        W14941  15.041   0.922   3.713
43413W        W14942  10.161  34.682  11.183
43414W        W14943  28.586  42.861  12.290
43415W        W14944   2.943   9.048   3.647
43416W        W14945  40.192   7.700  14.358
43417W        W14946  30.431  28.738   2.654
43418W        W14947  35.612  28.093   1.274
43419W        W14948  17.119   0.998  11.366
43420W        W14949   9.048  17.951   3.733
43421W        W14950  12.665  11.638   2.193
43422W        W14951  12.619  25.249   0.185
43423W        W14952  15.563  37.789  13.944
43424W        W14953   9.882  12.697   3.292
43425W        W14954   6.200  39.935   4.601
43426W        W14955  37.967  16.747   1.912
43427W        W14956  17.610  38.338  13.801
43428W        W14957  24.259  23.248   0.044
43429W        W14958  41.910  25.391  12.956
43430W        W14959   3.417  28.027   4.327
43431W        W14960  44.502  33.331   1.326
43432W        W14961   0.228  10.194   4.694
43433W        W14962  23.141  24.179   3.719
43434W        W14963  28.906  20.061  14.743
43435W        W14964  28.920  38.541  12.429
43436W        W14965  25.218  25.532   2.558
43437W        W14966  27.921  25.659   1.372
43438W        W14967  22.774  11.122  11.642
43439W        W14968   2.159  10.416   0.409
43440W        W14969   8.494  35.199  12.565
43441W        W14970  28.278   5.810  10.477
43442W        W14971   5.915  36.786  11.418
43443W        W14972  40.786  44.991   3.729
43444W        W14973  15.823   1.018   0.787
43445W        W14974  18.151   6.846   0.054
43446W        W14975  10.286  17.154   4.606
43447W        W14976  30.142  38.825  10.689
43448W        W14977  36.636  16.569  13.892
43449W        W14978   4.240  40.345  14.358
43450W        W14979  11.599  41.201  10.278
43451W        W14980  35.937   1.012   3.691
43452W        W14981   8.943  23.477   1.915
43453W        W14982  11.864  37.772  11.536
43454W        W14983   2.746  42.605   4.922
43455W        W14984  36.675   9.692   1.369
43456W        W14985  22.890  32.131  14.835
43457W        W14986   8.621  43.296  13.155
43458W        W14987  31.222  39.181  11.499
43459W        W14988  31.641   1.447   0.780
43460W        W14989  13.158   9.419  11.146
43461W        W14990  23.617  37.121   0.367
43462W        W14991  21.276   3.422  12.940
43463W        W14992  37.756   6.935  14.021
43464W        W14993  20.284  15.537   4.202
43465W        W14994  10.074  34.478   0.001
43466W        W14995   1.929  25.005   3.300
43467W        W14996  27.523  40.039  11.621
43468W        W14997  20.954  20.568   3.289
43469W        W14998  31.113  30.894  13.862
43470W        W14999  42.594   4.771   4.075
43471W        W15000  36.439   2.919  14.002
43472W        W15001  28.981   4.854   3.859
43473W        W15002  34.362  42.125   4.231
43474W        W15003  33.626  22.354  14.431
43475W        W15004  22.603  12.841   2.780
43476W        W15005  15.599  23.203  11.442
43477W        W15006  38.657   1.198   4.840
43478W        W15007  42.874  27.529   3.941
43479W        W15008  44.078   0.072  11.758
43480W        W15009   1.201  33.379  14.327
43481W        W15010  27.106  41.486   2.134
43482W        W15011   1.394  24.947   3.024
43483W        W15012   4.864  25.101  10.247
43484W        W15013  25.478  34.432   3.217
43485W        W15014  29.025  21.833  12.961
43486W        W15015  28.480  25.510  12.554
43487W        W15016  34.315   7.211  11.766
43488W        W15017  39.021  21.561   0.001
43489W        W15018  29.563  20.615  14.447
43490W        W15019  22.398   4.405  13.124
43491W        W15020  24.447  20.258   3.219
43492W        W15021  40.275  10.155  14.835
43493W        W15022  44.561   4.411   2.601
43494W        W15023   3.085  20.645   0.025
43495W        W15024  16.649   0.298   3.365
43496W        W15025   1.881  42.275  12.383
43497W        W15026  32.702  11.769  11.249
43498W        W15027  14.653  21.235  13.898
43499W        W15028  33.513   7.225  11.195
43500W        W15029  42.200  23.557   1.429
43501W        W15030  15.114  19.082   0.897
43502W        W15031  12.716  34.338   2.623
43503W        W15032  17.421  25.538   2.183
43504W        W15033  37.389  26.368   4.162
43505W        W15034  32.457  41.018  13.926
43506W        W15035  26.993  31.483  11.504
43507W        W15036  15.572  36.649   1.889
43508W        W15037  40.322   3.307   0.481
43509W        W15038  34.333  34.048   4.288
43510W        W15039  24.935  38.873   2.897
43511W        W15040  33.964  28.983   4.462
43512W        W15041  38.455  27.694  12.587
43513W        W15042  34.520   3.444   2.197
43514W        W15043  30.451  31.848   3.546
43515W        W15044   9.574   6.744   1.727
43516W        W15045  29.145  37.362  12.264
43517W        W15046   6.430  37.088   3.441
43518W        W15047  23.880   5.667   3.630
43519W        W15048  10.110  22.565  13.830
43520W        W15049   1.304  31.082  11.868
43521W        W15050   6.313  20.963  10.909
43522W        W15051  30.995   0.428   3.704
43523W        W15052  26.687  25.949  11.573
43524W        W15053  14.915  36.232  14.905
43525W        W15054  10.824   7.260   1.693
43526W        W15055  44.801  40.834  12.400
43527W        W15056   4.472  17.308  14.009
43528W        W15057  28.069  34.585   0.338
43529W        W15058   4.638  10.139  10.934
43530W        W15059  15.676  13.109   0.558
43531W        W15060  31.163   0.675  12.370
43532W        W15061  37.875  15.710  10.240
43533W        W15062  27.855   3.738  14.929
43534W        W15063  19.745  14.073  14.304
43535W        W15064  18.360  38.481  12.414
43536W        W15065   8.015  44.070   4.948
43537W        W15066   2.563  35.608   1.210
43538W        W15067  19.121   2.324   3.649
43539W        W15068   8.930   4.471  13.721
43540W        W15069  16.858  36.642  12.916
43541W        W15070  24.500   2.732  12.994
43542W        W15071  26.204  28.633   2.927
43543W        W15072  19.208   9.643  12.013
43544W        W15073  28.542  26.161   2.255
43545W        W15074  44.126  38.112   3.810
43546W        W15075  35.125  32.133   3.263
43547W        W15076  32.928  28.695   3.627
43548W        W15077   9.436  33.544  13.490
43549W        W15078  17.987  27.942  13.255
43550W        W15079   1.838  33.667  13.825
43551W        W15080   6.461  17.847   2.214
43552W        W15081  30.613  12.215  10.565
43553W        W15082  44.795  20.292  13.741
43554W        W15083  18.146   7.315  13.322
43555W        W15084  19.475   8.312  13.559
43556W        W15085  24.626  34.367   0.969
43557W        W15086  44.083  19.082   4.238
43558W        W15087  43.256  44.386   3.111
43559W        W15088  30.577  40.412  10.753
43560W        W15089   8.553  11.189  11.776
43561W        W15090  20.626  34.750   2.125
43562W        W15091   9.280   7.901  10.670
43563W        W15092   6.002  41.407   3.375
43564W        W15093  10.608  21.993  12.041
43565W        W15094  39.582   3.305  12.415
43566W        W15095   6.601  32.422   0.523
43567W        W15096   8.826  15.057  10.447
43568W        W15097  26.601  28.579   2.101
43569W        W15098  20.690   9.359   4.447
43570W        W15099  31.528  18.272   0.289
43571W        W15100  36.661  34.670  12.160
43572W        W15101  26.464  13.228   5.033
43573W        W15102  30.031   6.946  12.189
43574W        W15103   7.202  23.272  14.699
43575W        W15104   1.080   7.784  10.660
43576W        W15105   5.338  23.309  10.701
43577W        W15106  40.297   4.589  12.925
43578W        W15107  22.927  37.818   4.731
43579W        W15108  43.569   0.283  12.556
43580W        W15109   0.718  35.070  12.593
43581W        W15110   2.587  24.934  12.973
43582W        W15111  13.165  10.736  13.222
43583W        W15112   7.178   9.868   4.706
43584W        W15113  22.976  19.167   0.685
43585W        W15114  15.837  33.019  10.755
43586W        W15115  35.073  13.209  14.483
43587W        W15116  11.296  32.642   2.220
43588W        W15117  43.908  30.338  12.060
43589W        W15118   8.284  11.819   3.380
43590W        W15119   1.688  40.287   1.973
43591W        W15120   1.018  11.973   1.717
43592W        W15121  26.915  13.798   0.483
43593W        W15122  17.533  14.605  11.265
43594W        W15123  19.119  21.340  10.977
43595W        W15124   8.774  42.798  10.752
43596W        W15125  13.276   6.422   4.091
43597W        W15126  14.360  31.695  13.926
43598W        W15127  35.421  21.149   3.650
43599W        W15128   1.112   8.749   2.730
43600W        W15129  39.380  40.613  11.074
43601W        W15130  24.461  21.737  11.131
43602W        W15131  26.181   4.304   3.715
43603W        W15132   1.783  38.974   2.077
43604W        W15133   0.279  12.628  13.784
43605W        W15134  39.897  16.160   2.826
43606W        W15135  23.954   0.618   3.237
43607W        W15136  16.542  19.645   0.421
43608W        W15137  13.112   9.392  13.081
43609W        W15138  30.579  24.721  13.908
43610W        W15139  40.832  29.033  10.726
43611W        W15140  28.887  30.957  12.665
43612W        W15141  36.174   3.771  14.606
43613W        W15142   2.245  35.165   4.075
43614W        W15143  20.934  29.730  11.591
43615W        W15144   1.200  41.983   4.076
43616W        W15145  35.187  30.348  11.986
43617W        W15146  31.586  33.145  10.839
43618W        W15147  27.661  42.591  14.348
43619W        W15148   0.924   5.002   0.007
43620W        W15149  21.562  26.494   3.278
43621W        W15150   4.160  17.276   2.923
43622W        W15151  16.291  18.115  13.501
43623W        W15152  36.900  33.551  13.674
43624W        W15153  37.711  33.386  11.328
43625W        W15154  26.444   1.372  13.468
43626W        W15155  32.654  43.795  11.005
43627W        W15156  41.045  17.300   3.790
43628W        W15157  17.371  26.509   2.739
43629W        W15158   3.309   9.590   2.723
43630W        W15159  11.866  16.678  13.824
43631W        W15160   4.346  41.843  10.570
43632W        W15161  22.105  43.815   1.332
43633W        W15162   6.304  26.038  10.043
43634W        W15163   2.860  38.034   0.505
43635W        W15164   0.076  28.977  13.358
43636W        W15165  38.541  43.739  14.584
43637W        W15166  13.321  24.085  10.781
43638W        W15167  11.032  41.614  10.616
43639W        W15168  28.609  17.737  11.900
43640W        W15169  15.663   6.395   0.617
43641W        W15170  17.499  33.129  12.794
43642W        W15171   1.661   4.821   1.904
43643W        W15172  39.362  32.911   3.174
43644W        W15173  11.316  36.620   3.740
43645W        W15174   7.707  31.991   2.185
43646W        W15175  40.492  18.202  13.405
43647W        W15176  15.728  12.088  12.209
43648W        W15177  17.718  28.473  14.427
43649W        W15178  42.625  26.468   4.451
43650W        W15179   2.010   0.024  13.001
43651W        W15180  35.085   1.577  10.313
43652W        W15181  10.137  27.646   4.174
43653W        W15182  13.842  37.781   3.303
43654W        W15183  44.908  28.914  12.348
43655W        W15184   2.319  42.902   4.684
43656W        W15185  41.510   2.626   0.292
43657W        W15186  18.155  26.497   4.850
43658W        W15187   1.939  17.814  13.381
43659W        W15188  23.815  33.677   4.043
43660W        W15189  17.685  41.452  11.541
43661W        W15190   3.502  12.724   0.736
43662W        W15191  23.142  30.587  13.900
43663W        W15192  10.867  43.786  13.880
43664W        W15193  20.846  24.706  11.928
43665W        W15194  29.161  11.315  12.987
43666W        W15195  41.716  31.671   0.753
43667W        W15196   6.486  34.847  11.535
43668W        W15197  12.943  16.761   0.188
43669W        W15198  33.323  37.438  14.264
43670W        W15199   5.225  33.863   1.532
43671W        W15200  10.146   8.837   3.191
43672W        W15201   1.277   0.912  14.473
43673W        W15202  27.235  43.204  12.832
43674W        W15203  33.540  21.857   2.012
43675W        W15204  44.831  12.306   1.398
43676W        W15205  11.531  40.998  10.986
43677W        W15206  16.588  30.439   0.332
43678W        W15207   0.213  16.284   4.084
43679W        W15208  21.710  17.947   1.286
43680W        W15209   5.759  26.882  10.590
43681W        W15210  10.256   8.778  11.903
43682W        W15211  38.913   3.423   4.495
43683W        W15212  15.365  25.039  13.078
43684W        W15213   9.754  37.665   4.487
43685W        W15214  42.403  17.038   2.888
43686W        W15215  38.664  22.066  13.883
43687W        W15216  18.653  12.228   1.395
43688W        W15217  40.322  19.291   2.914
43689W        W15218  14.593  39.777  14.308
43690W        W15219  33.493  32.805   0.379
43691W        W15220  24.500  18.869  10.591
43692W        W15221   6.414  37.062   4.177
43693W        W15222   5.819  14.880  13.008
43694W        W15223   2.397  14.477   1.836
43695W        W15224  33.583   3.352   2.727
43696W        W15225  25.596   3.018  11.217
43697W        W15226  15.666  15.215  11.993
43698W        W15227  12.355  37.043  13.016
43699W        W15228  17.732  15.172   3.351
43700W        W15229  11.865  25.675  12.823
43701W        W15230   7.536   3.785  14.452
43702W        W15231  30.083   6.823  11.703
43703W        W15232  24.508  33.502  14.599
43704W        W15233  36.281   0.359  14.011
43705W        W15234  20.229   1.645   4.544
43706W        W15235  23.081   8.563   0.011
43707W        W15236  44.995  35.897   2.883
43708W        W15237  24.716  38.821  12.035
43709W        W15238  20.068  21.093  13.284
43710W        W15239  33.390  20.133  14.348
43711W        W15240  34.133   8.429  11.684
43712W        W15241  11.373  26.631  13.414
43713W        W15242  28.742  13.119   2.224
43714W        W15243  35.081   4.664   2.376
43715W        W15244  28.913  29.529   2.704
43716W        W15245  25.036  10.355  12.002
43717W        W15246  24.100  21.040  14.777
43718W        W15247  29.374  38.027   1.445
43719W        W15248  19.986   9.838   0.561
43720W        W15249  13.251  38.297  12.938
43721W        W15250  32.229  15.764  10.993
43722W        W15251  28.569  23.700  10.435
43723W        W15252  39.063   9.201  14.535
43724W        W15253  39.390   9.176   1.387
43725W        W15254  36.028   3.920   1.446
43726W        W15255  43.787  21.748  13.892
43727W        W15256  21.718  19.296   2.256
43728W        W15257  34.034   7.176   0.525
43729W        W15258   7.328  39.369  12.514
43730W        W15259  39.333  42.509  12.643
43731W        W15260  44.065   4.483   3.881
43732W        W15261  25.526   1.650  12.672
43733W        W15262  20.114  39.243  12.126
43734W        W15263   4.298   9.887   2.204
43735W        W15264  44.423  19.215   0.802
43736W        W15265  27.773  16.783   3.096
43737W        W15266  36.359  27.547   2.426
43738W        W15267  18.600  39.145   1.272
43739W        W15268  38.385  28.666   2.609
43740W        W15269  14.225   1.755  12.643
43741W        W15270   3.801  12.315  12.968
43742W        W15271  14.713  23.626   1.407
43743W        W15272  13.423   5.263   0.369
43744W        W15273  41.813  14.391   2.776
43745W        W15274   5.342  30.890  12.107
43746W        W15275  23.439  12.340   3.754
43747W        W15276  41.991  10.752  12.582
43748W        W15277   7.889  42.710  12.542
43749W        W15278  24.555  27.282   0.299
43750W        W15279  25.695  10.324  11.583
43751W        W15280  40.341  18.694  12.556
43752W        W15281  25.802  34.493  11.098
43753W        W15282  14.004   4.551   3.227
43754W        W15283  14.210  17.062   0.279
43755W        W15284   4.651  42.129   4.577
43756W        W15285   2.147  35.853  11.573
43757W        W15286  24.630  30.353   2.352
43758W        W15287  17.064  10.899   4.318
43759W        W15288  36.158  17.881  12.032
43760W        W15289   1.676  22.411   1.770
43761W        W15290  22.223  18.877   4.609
43762W        W15291  12.381  29.367  12.099
43763W        W15292  16.876  39.640   0.196
43764W        W15293  38.808  34.240   4.256
43765W        W15294   5.061  18.471   0.693
43766W        W15295  23.426  36.538  11.449
43767W        W15296   1.486  11.405   2.855
43768W        W15297  39.843  43.730  14.263
43769W        W15298  35.827  16.767  10.868
43770W        W15299  14.115   2.805   0.901
43771W        W15300  31.111  44.761  12.136
43772W        W15301  33.699  12.574  14.369
43773W        W15302  30.506  34.009   0.721
43774W        W15303  27.516  28.929   4.321
43775W        W15304  30.470   7.060  11.968
43776W        W15305  44.938   6.339   1.718
43777W        W15306  18.437  25.865   1.269
43778W        W15307   2.296  22.842  13.126
43779W        W15308  19.261  10.908   4.777
43780W        W15309  11.905  24.129   2.295
43781W        W15310  21.236  38.275  12.006
43782W        W15311  33.235   4.459  11.931
43783W        W15312  30.887  23.620   0.458
43784W        W15313  39.352  29.169  11.545
43785W        W15314  23.997  38.830  14.267
43786W        W15315  23.884   6.825   4.186
43787W        W15316  34.293  30.529   4.616
43788W        W15317  36.336   2.264   0.528
43789W        W15318  21.067  33.648  12.595
43790W        W15319  37.041  44.051   4.196
43791W        W15320   8.727   8.346   4.775
43792W        W15321  29.078  19.526   3.327
43793W        W15322   4.920  24.446   2.127
43794W        W15323  26.076  42.462  12.868
43795W        W15324  19.309  25.173   3.263
43796W        W15325  41.099  14.863   2.499
43797W        W15326  25.512   6.839   1.328
43798W        W15327  19.851  28.875   2.828
43799W        W15328   7.964  23.514   4.968
43800W        W15329   5.920  28.641   2.241
43801W        W15330   4.572  14.171   9.999
43802W        W15331  29.105   3.788   3.405
43803W        W15332   9.043   6.318   1.257
43804W        W15333  32.319  18.497   2.292
43805W        W15334  21.602  29.785  13.000
43806W        W15335  30.507  12.182   3.604
43807W        W15336  44.993  20.474  12.530
43808W        W15337  38.365   9.162   1.242
43809W        W15338  36.163  10.830  12.895
43810W        W15339  15.779  23.965  10.311
43811W        W15340  30.531   3.362   0.037
43812W        W15341  21.510  41.995   0.930
43813W        W15342  19.651  39.986  14.292
43814W        W15343   6.190  24.208  12.899
43815W        W15344  14.840   8.785   1.379
43816W        W15345  14.729  17.740   0.706
43817W        W15346   8.835   0.629  12.606
43818W        W15347  35.528  14.862  12.992
43819W        W15348  42.643   6.416   2.005
43820W        W15349  21.749  41.098   1.125
43821W        W15350  27.972   8.660   4.075
43822W        W15351   7.625  33.573   4.134
43823W        W15352  40.564  24.681   3.783
43824W        W15353  16.761  17.743   2.616
43825W        W15354   9.357   8.682  11.178
43826W        W15355   3.247  25.389   0.411
43827W        W15356  34.871   4.496  12.494
43828W        W15357  22.178  21.533  10.656
43829W        W15358  24.280  11.607   3.014
43830W        W15359  30.056  31.191   1.371
43831W        W15360  38.005  42.793  10.637
43832W        W15361  22.719  21.958  13.319
43833W        W15362  34.434  20.645  11.653
43834W        W15363  40.172  18.663  13.040
43835W        W15364  12.538  16.613  11.166
43836W        W15365  28.523  19.340  10.444
43837W        W15366  30.024  34.055  13.716
43838W        W15367  38.597  18.558   4.551
43839W        W15368  21.017  27.455   4.650
43840W        W15369  14.308  40.883   2.397
43841W        W15370  14.327   1.626   2.355
43842W        W15371  38.336  23.721  13.523
43843W        W15372   9.807  42.844   4.316
43844W        W15373   5.617  16.800   3.161
43845W        W15374  17.094   7.241  10.482
43846W        W15375  26.852  17.717   0.754
43847W        W15376  16.282   6.868  10.778
43848W        W15377  41.360   4.724  14.415
43849W        W15378  21.003  15.522   1.694
43850W        W15379  20.139  20.557  11.516
43851W        W15380  12.103  35.872   0.793
43852W        W15381  30.306  40.530  12.447
43853W        W15382  11.170  21.610   2.976
43854W        W15383  21.673  26.854  11.190
43855W        W15384  27.678  36.527  13.015
43856W        W15385  41.081  22.186  13.989
43857W        W15386  11.774   3.062  10.679
43858W        W15387  26.650  36.794  13.835
43859W        W15388   6.883   0.807   1.774
43860W        W15389   2.363  25.338  11.203
43861W        W15390  36.106  24.091  12.408
43862W        W15391   8.155  31.372  12.405
43863W        W15392   7.153   2.778   4.190
43864W        W15393   4.301  21.740  10.715
43865W        W15394   1.857  31.374  10.694
43866W        W15395  20.979   4.581   2.304
43867W        W15396  33.070  23.236  11.048
43868W        W15397  17.755  33.092  10.437
43869W        W15398   2.844  10.761   1.403
43870W        W15399  29.402  38.394  12.463
43871W        W15400  32.010  28.988  12.931
43872W        W15401  17.370  12.377  12.876
43873W        W15402  15.338  26.855  14.410
43874W        W15403   4.926  42.011   3.272
43875W        W15404   7.200  39.284   2.176
43876W        W15405  21.735  25.033  12.699
43877W        W15406   6.037  18.790   3.018
43878W        W15407  24.448  33.928  12.035
43879W        W15408  32.253  14.034   3.631
43880W        W15409  16.819  10.392   1.350
43881W        W15410  36.833  33.302  14.510
43882W        W15411   8.750  35.784   0.236
43883W        W15412   5.341  18.060   0.907
43884W        W15413  27.061   9.821  10.719
43885W        W15414  30.504  24.256  13.519
43886W        W15415  20.694  22.734  14.734
43887W        W15416  44.518  44.968   0.408
43888W        W15417   5.740   6.223  13.778
43889W        W15418  17.494  14.810  10.802
43890W        W15419  39.966  43.239  14.307
43891W        W15420  43.413   3.294   5.051
43892W        W15421  27.659  29.860   4.105
43893W        W15422   1.365  34.659  10.481
43894W        W15423  21.183  10.451   0.507
43895W        W15424  43.440  31.167  12.723
43896W        W15425   5.810  15.546   0.274
43897W        W15426   7.793   2.922  14.945
43898W        W15427  36.862  37.023   0.223
43899W        W15428  17.757  23.496  14.691
43900W        W15429  36.819  16.117  10.666
43901W        W15430   4.894  10.664  14.399
43902W        W15431  40.524   1.991  10.792
43903W        W15432  44.869  41.918   1.685
43904W        W15433  38.466  26.152  14.566
43905W        W15434  24.488   8.922  13.339
43906W        W15435  30.952  43.384   2.531
43907W        W15436  41.267  18.465   2.748
43908W        W15437  27.009  41.051   3.512
43909W        W15438  17.604   0.309   3.349
43910W        W15439   9.361  12.658  10.344
43911W        W15440  15.782  25.736  12.069
43912W        W15441  18.655   3.417  10.313
43913W        W15442  27.435  31.215  11.087
43914W        W15443   1.304   1.306   1.278
43915W        W15444  13.777   2.926   2.250
43916W        W15445   9.112  37.555  11.631
43917W        W15446  17.614   6.216   2.878
43918W        W15447  23.218  41.329  12.737
43919W        W15448  29.575  44.273  14.524
43920W        W15449  25.645  21.675   2.240
43921W        W15450  18.590  12.574   0.341
43922W        W15451  28.014   5.771  13.813
43923W        W15452  42.010  13.076   1.069
43924W        W15453  36.424  20.892  11.519
43925W        W15454  15.173  26.766  13.920
43926W        W15455  37.798  22.616  10.510
43927W        W15456  34.410   5.388   0.337
43928W        W15457  10.424  15.154   3.140
43929W        W15458  36.829   3.225   0.343
43930W        W15459  17.863  11.347   0.837
43931W        W15460  32.573  26.143   2.997
43932W        W15461  41.391  29.734  10.684
43933W        W15462  22.153  19.394   4.507
43934W        W15463  37.518   7.894   0.237
43935W        W15464  28.984  36.488   1.000
43936W        W15465   4.254  12.869   3.274
43937W        W15466  28.710  10.313   0.345
43938W        W15467  12.625  31.145  12.617
43939W        W15468  31.673   1.357   2.795
43940W        W15469  34.066   3.912   4.600
43941W        W15470  29.441  34.953   1.315
43942W        W15471  12.855  40.518  12.985
43943W        W15472  31.855  18.620   2.469
43944W        W15473  32.193  20.763   2.808
43945W        W15474  13.847  27.083   3.776
43946W        W15475   7.306  31.404  14.950
43947W        W15476  39.102  26.300   4.096
43948W        W15477   0.743  14.282  12.031
43949W        W15478  26.629   1.312   0.939
43950W        W15479   9.821  26.189  12.074
43951W        W15480  35.826  40.306  14.793
43952W        W15481  24.124  23.894  10.472
43953W        W15482  22.524  33.950   3.288
43954W        W15483   7.282   9.469  14.595
43955W        W15484  22.379  14.090   2.610
43956W        W15485  41.360  14.108   2.750
43957W        W15486  20.812  15.035  11.143
43958W        W15487  20.988  38.013   9.740
43959W        W15488  15.759  32.685   4.570
43960W        W15489  15.583  41.028  13.467
43961W        W15490  16.369  28.488   5.413
43962W        W15491  32.666  26.722  14.266
43963W        W15492  25.992   2.647   4.130
43964W        W15493  28.378  21.730  14.468
43965W        W15494  31.969  12.635  14.022
43966W        W15495  35.960  42.474  11.339
43967W        W15496  39.293  34.420   4.506
43968W        W15497  27.553  41.290   1.931
43969W        W15498  12.856  11.836   1.754
43970W        W15499  16.224  22.507  12.842
43971W        W15500  14.887  29.202   4.515
43972W        W15501  18.695   4.468   1.417
43973W        W15502   6.806  36.848  11.174
43974W        W15503  41.494  30.028   3.617
43975W        W15504  40.550  40.394   4.679
43976W        W15505  37.816  27.360  14.045
43977W        W15506  34.935  11.198   1.336
43978W        W15507   9.167  23.139   3.653
43979W        W15508  21.066  42.348   3.926
43980W        W15509   7.721  41.390  10.673
43981W        W15510  43.391  27.694  11.623
43982W        W15511  10.594  38.080   4.594
43983W        W15512  11.943  41.254  13.598
43984W        W15513  39.720  22.934  11.285
43985W        W15514  44.919  37.916   4.552
43986W        W15515  18.902  36.047   2.177
43987W        W15516  39.584  12.238   2.381
43988W        W15517  28.074   1.489   0.745
43989W        W15518  15.087   3.422  11.597
43990W        W15519  30.046  29.130  14.508
43991W        W15520  34.864  14.981   3.309
43992W        W15521  43.987   4.982   4.161
43993W        W15522  41.580  27.732  12.022
43994W        W15523   0.132  21.749  13.613
43995W        W15524  20.442  25.703   4.365
43996W        W15525  39.236  23.775   4.199
43997W        W15526   0.514  37.967   2.314
43998W        W15527  33.515  22.090  12.402
43999W        W15528  29.996  40.257  10.390
44000W        W15529  39.138  37.461   1.899
44001W        W15530   2.334  42.464   4.389
44002W        W15531  35.444  37.155   4.030
44003W        W15532  13.327   2.876  13.204
44004W        W15533  34.320  30.636   1.734
44005W        W15534   7.409  29.671   4.232
44006W        W15535  42.825   7.081  11.562
44007W        W15536  41.467  44.624   3.059
44008W        W15537  32.356  20.431  11.352
44009W        W15538   3.190  23.513  13.345
44010W        W15539   9.884  35.805  11.717
44011W        W15540  11.933  17.219  12.941
44012W        W15541  17.049  11.746   3.330
44013W        W15542  17.729  27.481  14.539
44014W        W15543   3.841   8.222   1.252
44015W        W15544  15.845  15.536  11.625
44016W        W15545  38.420   8.490   0.395
44017W        W15546  44.799  22.210  10.615
44018W        W15547  37.275  12.692   1.655
44019W        W15548  38.469  19.125   0.951
44020W        W15549  27.032   6.709  14.910
44021W        W15550  18.850  35.984  13.180
44022W        W15551  42.292  27.974   4.234
44023W        W15552  26.211   4.183  11.944
44024W        W15553   0.699  28.142   4.110
44025W        W15554  28.517  34.349  13.019
44026W        W15555  12.321   3.014  13.437
44027W        W15556  13.343   3.223  10.720
44028W        W15557  43.925  11.113  10.936
44029W        W15558  33.868  27.472  13.766
44030W        W15559   7.971  44.292  13.841
44031W        W15560  39.184  42.618  10.209
44032W        W15561  21.614  13.234   1.950
44033W        W15562  28.367   8.135  14.985
44034W        W15563  11.573   4.161   4.256
44035W        W15564  17.536  41.716  11.102
44036W        W15565  38.947   6.729  11.958
44037W        W15566  19.830  11.437  12.364
44038W        W15567   6.171  38.395  13.589
44039W        W15568  30.129   6.706  13.573
44040W        W15569   5.181   3.378   0.827
44041W        W15570  20.751  44.572   0.761
44042W        W15571   8.277  30.215  11.960
44043W        W15572  31.126  24.163   1.418
44044W        W15573   5.631  20.006  14.010
44045W        W15574   0.932  24.650  12.497
44046W        W15575   2.661   8.598  12.438
44047W        W15576  30.358  41.810  10.660
44048W        W15577  28.734  27.327   3.585
44049W        W15578  17.779   8.945  13.062
44050W        W15579  35.949  13.693  14.237
44051W        W15580  20.300   9.663   1.897
44052W        W15581  22.068  44.492   3.900
44053W        W15582   9.189   6.208  12.812
44054W        W15583  22.699  15.588   2.728
44055W        W15584  35.589  11.146  12.127
44056W        W15585   1.409  11.233  13.346
44057W        W15586  11.652   8.205   4.371
44058W        W15587  25.041  37.592   3.691
44059W        W15588  38.480   6.037   3.350
44060W        W15589   1.833  17.117  12.804
44061W        W15590  42.445  44.408   4.556
44062W        W15591  38.841  11.945   5.290
44063W        W15592   2.767  39.480   0.829
44064W        W15593  16.608  23.863   4.093
44065W        W15594  12.634  13.280  13.659
44066W        W15595   6.292  28.161  11.586
44067W        W15596  20.342  39.011  12.568
44068W        W15597   1.424  10.099  12.445
44069W        W15598  33.587  29.360  12.624
44070W        W15599   9.468  30.976   1.686
44071W        W15600  39.322  19.472  13.380
44072W        W15601  17.839  11.426  13.662
44073W        W15602  12.975  17.779  10.711
44074W        W15603  10.534   4.319   2.442
44075W        W15604  31.273  37.738  13.797
44076W        W15605  27.067   0.535   4.523
44077W        W15606  36.413  26.489   0.200
44078W        W15607  17.537  12.652  13.289
44079W        W15608  14.629  37.958  12.096
44080W        W15609  44.741  36.308  12.921
44081W        W15610  38.796  14.972   4.256
44082W        W15611  11.123  20.250  12.859
44083W        W15612  20.985  32.132  12.492
44084W        W15613  21.357   6.675  14.117
44085W        W15614  27.499  23.841   0.831
44086W        W15615  25.759  32.980  14.663
44087W        W15616  16.277  40.327   4.158
44088W        W15617  20.884  39.479   3.264
44089W        W15618  22.969  17.152  14.803
44090W        W15619   4.825  15.383  12.914
44091W        W15620  36.280  23.080  14.263
44092W        W15621  27.082  38.629   4.598
44093W        W15622  29.037   0.695  11.952
44094W        W15623  36.555  17.329  11.931
44095W        W15624  18.403  15.489   3.149
44096W        W15625  19.626  15.092   1.738
44097W        W15626  25.237   7.001  14.111
44098W        W15627  40.994  21.792   3.276
44099W        W15628  21.809   5.167  14.387
44100W        W15629   1.498  32.981  14.850
44101W        W15630   9.249  22.855  11.269
44102W        W15631  36.582   5.145  13.834
44103W        W15632  32.910  43.805  11.466
44104W        W15633  15.200  11.070  11.143
44105W        W15634  38.360  20.979  13.663
44106W        W15635   3.982  17.815   4.088
44107W        W15636  44.619  15.400  12.921
44108W        W15637  33.216  14.955   1.219
44109W        W15638  24.436  20.541  13.882
44110W        W15639  28.675  16.859  11.478
44111W        W15640  23.737   3.168   2.793
44112W        W15641   0.776  28.634  12.899
44113W        W15642  22.951  26.415  11.656
44114W        W15643  17.602  38.863   2.755
44115W        W15644  43.056  16.544   1.232
44116W        W15645  18.490  29.104   3.129
44117W        W15646  33.419  13.933   2.430
44118W        W15647  23.591   7.169   2.200
44119W        W15648  33.782  23.685   3.377
44120W        W15649  44.696  44.952   0.920
44121W        W15650  15.176  31.083  11.175
44122W        W15651   4.233  19.235  10.913
44123W        W15652   4.403  42.040   3.290
44124W        W15653  23.187   9.810   2.113
44125W        W15654  13.179   0.719   4.514
44126W        W15655   1.552   6.307   0.885
44127W        W15656   7.189   8.546  10.854
44128W        W15657  21.368  32.131   3.255
44129W        W15658  29.092   4.976   3.370
44130W        W15659   3.513  28.064   2.835
44131W        W15660  42.780  16.078  11.938
44132W        W15661  29.364   2.334  14.033
44133W        W15662  28.086  24.604  10.636
44134W        W15663   9.448  19.639  12.849
44135W        W15664   4.368   6.298  14.923
44136W        W15665  22.623  16.531  10.695
44137W        W15666  41.744  15.203  13.431
44138W        W15667   1.159   5.370  13.642
44139W        W15668  27.640  39.577   4.023
44140W        W15669   7.977  15.762  14.970
44141W        W15670  33.388   3.729   3.682
44142W        W15671  14.652  12.719   2.659
44143W        W15672  43.795   3.378  14.910
44144W        W15673  34.565  13.369  14.064
44145W        W15674   5.127  37.386  14.312
44146W        W15675  25.979  10.668   4.797
44147W        W15676  15.280  29.921   4.484
44148W        W15677  25.237  30.086  13.447
44149W        W15678  19.059  23.713   1.232
44150W        W15679  11.703  28.079   4.612
44151W        W15680  35.103   3.217   1.002
44152W        W15681  42.569   1.737  12.464
44153W        W15682  11.084  27.912   0.329
44154W        W15683   6.420  11.757   4.917
44155W        W15684   1.184  35.049   3.170
44156W        W15685  32.428  27.037  12.796
44157W        W15686  17.938   4.485   2.018
44158W        W15687  31.749  32.035  12.473
44159W        W15688  10.182  42.354   1.737
44160W        W15689   7.477  35.399   1.990
44161W        W15690  40.530  36.825   1.910
44162W        W15691  37.489  29.749   1.788
44163W        W15692  16.853  21.129   0.918
44164W        W15693  35.648  16.089  13.413
44165W        W15694  39.831  40.797   4.111
44166W        W15695  43.548  10.775  12.107
44167W        W15696  38.510  10.912   0.982
44168W        W15697  11.740  35.125  12.598
44169W        W15698  42.356  43.861   1.763
44170W        W15699  35.443  40.826   0.941
44171W        W15700   1.187  28.019  14.017
44172W        W15701  43.517  29.941  13.420
44173W        W15702  26.176  39.063   3.840
44174W        W15703   3.978   8.408   4.665
44175W        W15704  41.901   7.279  13.526
44176W        W15705  34.035  11.608   3.638
44177W        W15706   8.439  39.167  10.429
44178W        W15707  12.043  20.307  11.063
44179W        W15708  12.765  44.441  14.060
44180W        W15709  31.060  13.348   4.113
44181W        W15710   8.651  24.197  14.036
44182W        W15711  30.945  15.908  11.011
44183W        W15712  10.115  25.684  10.869
44184W        W15713  30.493  21.716   1.514
44185W        W15714  15.031   1.879   1.754
44186W        W15715  32.873  11.527  10.800
44187W        W15716  43.531  28.051   2.738
44188W        W15717  28.714   8.310  14.649
44189W        W15718  41.875  28.966   0.277
44190W        W15719   1.346   4.422   2.082
44191W        W15720  31.400  22.218   1.802
44192W        W15721  14.441  39.253   2.781
44193W        W15722  19.622  35.393   1.179
44194W        W15723  12.966   4.518  13.452
44195W        W15724  41.984  25.644   1.159
44196W        W15725  13.876   0.143  11.747
44197W        W15726  16.015  33.041  13.807
44198W        W15727  23.154  10.758   2.755
44199W        W15728  13.976  20.055   3.237
44200W        W15729  29.362   7.348  12.499
44201W        W15730   2.053   1.976  11.698
44202W        W15731  33.030  39.711   1.702
44203W        W15732  42.353  14.593  12.469
44204W        W15733  31.220  41.752  14.898
44205W        W15734  17.034   9.603  14.480
44206W        W15735  15.231  26.171  10.262
44207W        W15736   9.401  19.084   9.758
44208W        W15737   0.390  29.675   4.536
44209W        W15738  18.528  30.038   0.551
44210W        W15739  23.058   4.739  12.418
44211W        W15740  38.284  29.607   1.444
44212W        W15741  42.276  31.186   1.461
44213W        W15742  30.504  43.805  11.162
44214W        W15743   3.741  20.614  14.720
44215W        W15744  29.605  21.202  14.443
44216W        W15745  31.135  17.538  10.475
44217W        W15746   5.974  40.904   2.554
44218W        W15747  31.627  18.478  14.816
44219W        W15748  30.832  44.239   3.166
44220W        W15749  11.826   5.138  12.418
44221W        W15750   3.446  41.766   2.780
44222W        W15751  22.654  22.074  11.327
44223W        W15752  21.137  26.037   0.110
44224W        W15753  43.536  43.396  11.022
44225W        W15754  13.605  23.633   0.073
44226W        W15755   8.111  19.792  14.854
44227W        W15756  28.602   0.397   3.865
44228W        W15757  41.057   1.919   3.709
44229W        W15758   1.374   3.381  12.434
44230W        W15759   3.352  13.873  13.986
44231W        W15760   2.257  11.174   0.356
44232W        W15761  25.549  16.112  10.632
44233W        W15762  43.918   2.143   3.209
44234W        W15763  17.297  41.961  11.483
44235W        W15764  16.347  25.163  14.031
44236W        W15765  22.711  42.900   3.751
44237W        W15766  18.241  40.939   3.591
44238W        W15767  43.258  13.153   2.437
44239W        W15768  18.703  16.975   4.862
44240W        W15769  31.498  13.147   4.235
44241W        W15770   0.763  11.810  12.518
44242W        W15771  26.190  20.213   3.769
44243W        W15772  30.630  40.835  11.597
44244W        W15773  15.142  44.751   4.090
44245W        W15774   3.883  40.830  11.564
44246W        W15775   6.650  10.061   0.302
44247W        W15776  25.086   8.942  12.074
44248W        W15777  38.633  31.632  13.660
44249W        W15778  16.462  12.464  13.935
44250W        W15779  31.953  29.186  10.759
44251W        W15780  23.127   2.320  14.296
44252W        W15781  10.707  15.526  14.419
44253W        W15782  27.960  36.002   2.178
44254W        W15783  24.247   2.874  12.557
44255W        W15784  16.348  20.184  11.599
44256W        W15785  34.418  29.414   2.012
44257W        W15786  44.169  40.671   0.919
44258W        W15787  36.023  13.809  14.735
44259W        W15788  24.978  17.562  14.393
44260W        W15789   0.538  20.813   4.482
44261W        W15790  29.771  33.479  14.559
44262W        W15791   6.817  38.030   0.321
44263W        W15792  24.209  23.481   0.839
44264W        W15793  21.028  37.219  14.891
44265W        W15794  42.368   1.882  11.139
44266W        W15795  23.117  21.698  11.138
44267W        W15796  34.150  43.454   3.591
44268W        W15797   1.264  15.681   1.748
44269W        W15798  21.971   3.376   4.491
44270W        W15799  34.857   3.465   1.815
44271W        W15800  26.655  32.415  13.414
44272W        W15801  35.672   7.344   4.144
44273W        W15802  38.570  19.652   1.743
44274W        W15803  18.614  16.033  14.951
44275W        W15804  15.091  26.400   4.698
44276W        W15805  11.273  44.620  12.934
44277W        W15806   6.228  32.516   4.166
44278W        W15807  23.588  44.481  11.082
44279W        W15808  15.010  44.908   1.688
44280W        W15809  36.612  16.790   0.432
44281W        W15810   7.312  32.067   1.834
44282W        W15811  12.157  20.309   3.754
44283W        W15812  40.136   5.880   0.232
44284W        W15813   4.860  40.515   2.960
44285W        W15814  26.230   5.908   0.882
44286W        W15815  16.566   0.381   0.890
44287W        W15816  28.067   4.737   1.886
44288W        W15817  20.333  39.913  13.521
44289W        W15818  32.664  38.758  11.923
44290W        W15819  44.599  13.811   5.095
44291W        W15820  30.207  13.788   0.918
44292W        W15821  18.489  29.063   0.394
44293W        W15822  11.179  40.950  14.058
44294W        W15823  31.160   4.851  12.593
44295W        W15824  36.698  42.533  13.911
44296W        W15825  16.605  35.979   0.752
44297W        W15826  14.252  11.335   4.374
44298W        W15827  12.715  19.055  11.859
44299W        W15828  41.759  35.318   0.779
44300W        W15829   0.720  41.760   4.116
44301W        W15830  15.178  35.535   0.326
44302W        W15831  18.042  32.143  14.492
44303W        W15832  41.549  26.030   0.795
44304W        W15833  43.505   7.791  11.585
44305W        W15834  11.211  37.468   1.373
44306W        W15835  14.710   3.405   1.211
44307W        W15836  11.449  11.197  14.941
44308W        W15837  35.924  41.991  11.130
44309W        W15838  21.945  17.196  11.509
44310W        W15839  18.231   7.628   0.921
44311W        W15840  34.429   5.966   4.111
44312W        W15841  26.758  11.153  11.117
44313W        W15842  35.600  22.695   1.168
44314W        W15843  34.274   6.237  11.451
44315W        W15844  20.618  40.791  14.721
44316W        W15845  14.571  18.798   5.088
44317W        W15846  42.005  44.081   0.022
44318W        W15847  20.208  21.015   0.194
44319W        W15848  44.836  24.795   0.809
44320W        W15849  21.631   9.183  14.133
44321W        W15850  36.887   6.295  13.919
44322W        W15851  20.620   3.638   0.700
44323W        W15852  23.763  37.044   4.327
44324W        W15853   6.075  34.969  14.040
44325W        W15854  12.177  40.849  13.318
44326W        W15855  18.621   1.761  13.846
44327W        W15856  23.982  27.990  13.099
44328W        W15857  44.212  30.559   2.315
44329W        W15858  12.560   4.051  14.320
44330W        W15859  20.919   3.818  11.316
44331W        W15860  41.481   1.958  12.976
44332W        W15861  29.705  18.887  13.945
44333W        W15862  37.459  38.585  12.168
44334W        W15863  22.962  24.855  10.873
44335W        W15864  34.619  40.828  14.982
44336W        W15865  41.812  38.384  14.310
44337W        W15866  18.479  42.897   3.739
44338W        W15867   7.479  11.754  12.584
44339W        W15868  28.616   3.660   3.226
44340W        W15869  37.996  10.150  14.062
44341W        W15870  17.558  24.715   1.982
44342W        W15871  22.615  11.624  11.573
44343W        W15872  23.208  26.971   1.307
44344W        W15873  41.400   3.777   2.481
44345W        W15874  19.151  34.083   0.202
44346W        W15875  11.945  12.408  11.105
44347W        W15876  17.702   3.249  12.433
44348W        W15877   6.703  22.822   1.888
44349W        W15878   4.303  33.176   3.569
44350W        W15879  42.833   9.602   4.139
44351W        W15880  27.579  29.523   0.366
44352W        W15881  30.689   7.364  10.648
44353W        W15882   8.681  15.110  11.465
44354W        W15883  34.889  43.464  13.773
44355W        W15884  11.674  11.419   1.831
44356W        W15885   4.949  41.344   1.796
44357W        W15886   4.106  38.380   1.370
44358W        W15887  37.665  11.255  13.357
44359W        W15888  16.153  13.498  12.986
44360W        W15889  27.700  27.838   0.726
44361W        W15890  44.453  33.806  12.943
44362W        W15891  18.086   4.833   2.381
44363W        W15892   8.211  38.907  14.818
44364W        W15893   1.053  21.379   4.089
44365W        W15894  42.497  34.832   1.868
44366W        W15895  43.295   9.402  11.883
44367W        W15896  29.882  30.076  14.969
44368W        W15897   7.144  22.444   3.005
44369W        W15898  31.892  35.030   2.675
44370W        W15899  31.857  30.974  14.897
44371W        W15900   0.364  41.426  14.055
44372W        W15901  21.327  26.728  14.585
44373W        W15902  13.731  30.068   1.365
44374W        W15903   7.914   8.927  11.253
44375W        W15904  22.586  39.262   4.211
44376W        W15905  37.273  36.964  12.082
44377W        W15906   8.219  19.357  12.679
44378W        W15907  41.179  27.869  13.395
44379W        W15908  37.057  16.591  10.775
44380W        W15909  29.540  41.145   1.620
44381W        W15910  33.450   0.309  11.220
44382W        W15911  38.100  13.017   1.860
44383W        W15912   1.093  14.774   0.192
44384W        W15913   8.031  38.505  14.023
44385W        W15914   1.147  38.904   1.430
44386W        W15915   2.280  21.151  11.294
44387W        W15916  33.643  43.007  11.065
44388W        W15917  15.110  21.198  11.088
44389W        W15918  30.699  39.805   3.792
44390W        W15919  38.397  36.010   0.318
44391W        W15920  38.472  38.941  12.537
44392W        W15921   3.677  14.303  10.752
44393W        W15922  31.340  20.505   4.303
44394W        W15923  39.522  30.176  13.006
44395W        W15924  17.909  15.204   2.565
44396W        W15925   0.983  32.444   2.345
44397W        W15926  19.066  32.078   4.128
44398W        W15927  31.418  11.249   3.667
44399W        W15928   6.916  24.691   3.482
44400W        W15929   2.922  40.341   4.357
44401W        W15930   4.407  15.215   1.978
44402W        W15931  25.195  32.939   4.861
44403W        W15932   5.564  35.103   3.126
44404W        W15933  18.141  19.862  12.202
44405W        W15934  37.153   2.486   2.643
44406W        W15935  13.676   2.514   0.914
44407W        W15936  36.855  16.737  14.979
44408W        W15937  44.461  37.989   3.172
44409W        W15938  29.672  16.840   4.265
44410W        W15939  15.211  13.441   1.828
44411W        W15940  15.615  18.216   3.807
44412W        W15941   3.431   4.520  13.440
44413W        W15942  18.166  23.300   4.124
44414W        W15943  28.927  26.760  12.117
44415W        W15944  21.084  14.940   4.193
44416W        W15945  22.301   9.646  11.955
44417W        W15946   3.124  11.775   3.247
44418W        W15947  27.184  42.812  11.262
44419W        W15948  26.009  40.092   2.961
44420W        W15949  28.167  42.305  13.908
44421W        W15950  15.865  22.284   3.232
44422W        W15951  23.172  42.041   2.036
44423W        W15952   8.200  17.737   0.911
44424W        W15953   0.120  44.095  14.923
44425W        W15954  36.832   8.649  12.005
44426W        W15955  27.586  25.953  12.401
44427W        W15956  22.734   1.974  14.254
44428W        W15957  20.005  11.287  14.059
44429W        W15958   5.153  30.557   1.241
44430W        W15959  13.567  20.456   3.629
44431W        W15960  23.675   7.755   0.234
44432W        W15961  21.303  16.848  14.344
44433W        W15962   7.883  37.796  10.567
44434W        W15963  42.964  28.940  13.140
44435W        W15964  13.186   8.202   4.811
44436W        W15965  16.328   4.329   0.615
44437W        W15966  22.522  21.056   3.019
44438W        W15967  32.652   3.887  12.405
44439W        W15968  31.846  23.585   2.265
44440W        W15969   4.497  27.587  14.650
44441W        W15970   4.940   8.335   0.776
44442W        W15971  39.766  23.066  12.127
44443W        W15972  28.942  26.168  12.889
44444W        W15973  32.125   7.800   0.488
44445W        W15974  21.150  22.027  14.815
44446W        W15975  32.425  29.068   0.559
44447W        W15976   1.223  43.334   0.955
44448W        W15977  38.901  25.144   1.527
44449W        W15978   0.956  14.371  12.498
44450W        W15979  43.431  40.307   4.102
44451W        W15980  30.868   9.185   2.207
44452W        W15981  35.072  39.392   2.982
44453W        W15982  28.134   6.650   3.538
44454W        W15983   5.221   7.442   0.823
44455W        W15984  43.369  33.809   3.284
44456W        W15985  34.006   6.279  13.850
44457W        W15986  39.450  29.400   1.724
44458W        W15987  14.618  41.174   4.143
44459W        W15988  21.391   3.675  11.122
44460W        W15989  16.238  14.010  11.912
44461W        W15990  44.349  37.405  12.617
44462W        W15991   3.507   3.558   4.272
44463W        W15992  41.309   2.728   4.343
44464W        W15993  34.952  43.512   0.327
44465W        W15994  32.040  33.514  12.055
44466W        W15995  38.483  31.930  12.024
44467W        W15996  12.856  41.508   2.089
44468W        W15997  42.676  39.734   4.182
44469W        W15998   3.924  19.363   3.420
44470W        W15999   6.270  29.704  12.659
44471W        W16000  30.204  27.547   3.649
44472W        W16001  17.159   4.946  12.153
44473W        W16002  30.557  22.590   4.207
44474W        W16003  36.997  30.433  14.346
44475W        W16004  44.654  14.889  13.015
44476W        W16005  32.046  33.394   3.869
44477W        W16006  41.066  18.863  13.156
44478W        W16007  14.192   0.848   3.597
44479W        W16008  29.851  25.190   4.174
44480W        W16009  25.608   2.425  13.848
44481W        W16010  29.761  29.657  11.111
44482W        W16011  28.777  39.074   3.258
44483W        W16012   2.432  40.406   1.215
44484W        W16013  37.339   9.418  14.262
44485W        W16014  18.652   3.459   0.418
44486W        W16015  21.830   6.819   0.020
44487W        W16016  16.774  33.202   1.220
44488W        W16017   4.227  23.192   3.317
44489W        W16018  36.604  10.955   1.925
44490W        W16019  15.925   0.053  11.085
44491W        W16020  11.619  41.016   4.812
44492W        W16021  31.216  33.653  14.258
44493W        W16022  34.118  30.723   3.783
44494W        W16023  42.755  20.054  12.076
44495W        W16024  35.354   4.191  13.077
44496W        W16025  41.663  38.789   4.135
44497W        W16026  11.824  34.965   0.992
44498W        W16027  43.553  38.898   3.128
44499W        W16028   5.494  27.041   3.647
44500W        W16029   8.661  27.584   1.768
44501W        W16030  42.424  40.501   0.478
44502W        W16031  20.570  39.635  13.928
44503W        W16032  24.814  22.039   2.108
44504W        W16033  43.774  37.817  12.169
44505W        W16034  40.224  30.357   2.115
44506W        W16035  15.406  21.288  13.429
44507W        W16036  20.784  37.973   3.241
44508W        W16037  40.729  31.107   1.335
44509W        W16038   9.937  14.124   0.462
44510W        W16039   4.265   7.925  11.609
44511W        W16040  11.152  12.616   1.897
44512W        W16041  26.216  25.510  12.147
44513W        W16042  32.056  18.190  11.909
44514W        W16043   7.151  21.010   1.804
44515W        W16044  16.283  15.674  13.498
44516W        W16045  24.959  28.579   1.445
44517W        W16046  28.457  24.032  13.431
44518W        W16047   4.646  32.413  14.037
44519W        W16048  23.222  19.745  11.741
44520W        W16049  30.590  44.801   3.162
44521W        W16050  24.840   1.799  14.790
44522W        W16051  29.425  37.882  11.138
44523W        W16052   1.659  20.503  14.771
44524W        W16053  13.859  19.274   0.496
44525W        W16054  20.644   7.467  12.088
44526W        W16055  41.557  34.542   3.826
44527W        W16056  41.464  10.854   3.703
44528W        W16057  27.384  28.016   1.333
44529W        W16058  40.351  21.754  13.295
44530W        W16059  39.510  31.437  10.706
44531W        W16060  30.622  11.363   1.350
44532W        W16061  22.988  26.042   2.168
44533W        W16062  25.139   0.882  10.442
44534W        W16063  11.170  38.901  11.084
44535W        W16064   7.168  19.652   0.218
44536W        W16065  25.206  29.727   3.403
44537W        W16066  34.059  38.970  12.974
44538W        W16067  24.503  11.848  14.431
44539W        W16068  20.744  33.094  10.437
44540W        W16069  42.728  43.190   1.299
44541W        W16070  27.039  41.958   3.315
44542W        W16071   9.154  27.116  14.807
44543W        W16072  20.181  36.635   2.341
44544W        W16073  41.876  10.099  13.882
44545W        W16074  35.869  26.729   1.722
44546W        W16075   6.746  31.961   2.625
44547W        W16076  25.623  19.183  14.387
44548W        W16077  26.601   1.521  11.138
44549W        W16078  25.004  28.183  12.168
44550W        W16079  20.687   0.270   1.352
44551W        W16080  30.134  44.036  13.793
44552W        W16081  12.285   8.832  12.339
44553W        W16082  42.592  12.336  12.042
44554W        W16083  15.671  30.198   4.615
44555W        W16084  10.080  25.080  11.511
44556W        W16085   3.739  15.113   4.499
44557W        W16086  27.952   9.624   2.359
44558W        W16087  27.115  31.572   4.445
44559W        W16088  43.354  39.575  13.480
44560W        W16089   8.500  37.394   4.079
44561W        W16090   3.044  44.104  11.599
44562W        W16091  13.696  10.630   0.064
44563W        W16092  17.580   5.779   1.593
44564W        W16093  32.439  27.554   4.071
44565W        W16094  15.646  37.262  14.003
44566W        W16095  17.527  16.845   1.424
44567W        W16096  33.497   6.305  12.024
44568W        W16097  37.366  15.610   1.426
44569W        W16098  30.372  13.336  10.274
44570W        W16099  30.470  21.556  10.994
44571W        W16100  40.591  31.013   4.506
44572W        W16101  12.395  34.772  11.864
44573W        W16102   1.311  17.526   1.684
44574W        W16103  21.961  29.484  10.635
44575W        W16104  34.970  15.312   2.151
44576W        W16105  37.468  44.095   1.868
44577W        W16106  22.606  36.459   4.959
44578W        W16107   5.036  43.849   1.296
44579W        W16108  20.608  27.130   2.669
44580W        W16109  11.617  14.360   2.631
44581W        W16110  17.988  41.896   1.631
44582W        W16111  31.379  43.461  11.258
44583W        W16112  17.069  38.446   3.351
44584W        W16113  16.423  37.389  10.720
44585W        W16114   9.552  43.896   2.117
44586W        W16115  10.978  32.518  12.828
44587W        W16116  40.796  33.154   3.351
44588W        W16117   3.874  21.171   0.093
44589W        W16118  43.494   2.446   0.251
44590W        W16119  43.266  23.956   4.617
44591W        W16120  22.908   3.101  11.549
44592W        W16121  18.672  23.572  13.578
44593W        W16122  33.560  25.140  13.016
44594W        W16123   0.983  15.055  13.009
44595W        W16124  22.966  16.048   3.262
44596W        W16125  14.330  15.665   1.560
44597W        W16126   4.490  21.726  11.576
44598W        W16127  36.342  40.003  11.963
44599W        W16128  28.649  25.950  11.967
44600W        W16129  41.000  32.705   2.280
44601W        W16130  25.485  31.228   3.113
44602W        W16131   9.481  25.542   1.820
44603W        W16132  24.943  10.441   3.258
44604W        W16133  19.783  37.861   3.742
44605W        W16134  38.111  38.278  13.543
44606W        W16135  26.227  23.055   4.396
44607W        W16136  26.739  44.385  14.825
44608W        W16137  37.363   5.263   3.130
44609W        W16138  39.286  18.666   2.423
44610W        W16139   7.256  28.989   1.557
44611W        W16140  13.538   3.952  11.699
44612W        W16141  11.226   4.305   1.684
44613W        W16142  33.317  19.270   0.966
44614W        W16143  13.272  39.952  11.845
44615W        W16144  41.262  44.846  12.623
44616W        W16145  17.418  37.136  13.370
44617W        W16146   9.226  35.606  12.114
44618W        W16147  35.333  36.506   0.957
44619W        W16148  22.157  19.825  11.344
44620W        W16149  38.849  23.108   0.953
44621W        W16150  27.680   2.936   0.935
44622W        W16151   6.726   9.317   3.549
44623W        W16152  10.865  31.879  14.227
44624W        W16153  29.384  26.297  13.952
44625W        W16154  18.689  29.849   4.254
44626W        W16155  25.432   2.633   1.092
44627W        W16156  38.334  41.271   4.611
44628W        W16157  24.044  19.535  12.624
44629W        W16158  37.511  24.600   3.314
44630W        W16159  15.267  11.902   0.254
44631W        W16160  21.503  17.300   4.127
44632W        W16161  18.330   1.308  11.795
44633W        W16162  42.275  43.298  10.556
44634W        W16163   5.027  28.135  10.446
44635W        W16164  11.553  20.137   4.630
44636W        W16165   1.406   0.782  11.188
44637W        W16166   0.838   8.011   5.086
44638W        W16167  39.253  44.494   0.425
44639W        W16168  37.250  26.840   3.307
44640W        W16169  11.559  12.631   0.567
44641W        W16170  25.417  38.883  12.620
44642W        W16171  27.171  31.704  13.380
44643W        W16172  24.939   4.244   0.099
44644W        W16173   5.883  25.463   1.978
44645W        W16174  31.538   4.662  11.677
44646W        W16175  36.692  23.906   1.779
44647W        W16176   1.349  23.715   1.105
44648W        W16177   0.743  26.138  13.607
44649W        W16178  34.826  25.598  11.158
44650W        W16179  40.866  27.108  13.167
44651W        W16180   6.886  43.440   1.357
44652W        W16181  44.461  12.412  12.828
44653W        W16182  43.026   1.210  11.202
44654W        W16183  42.765  10.307  14.315
44655W        W16184  39.569  28.208   3.663
44656W        W16185  25.480  26.766  11.239
44657W        W16186  29.653  21.980   0.630
44658W        W16187   7.666  40.556   3.625
44659W        W16188  34.642  37.363  11.039
44660W        W16189  10.130  32.027  13.791
44661W        W16190   2.256  27.806  11.958
44662W        W16191  27.993  20.835  11.189
44663W        W16192  12.748  12.854  12.315
44664W        W16193   9.350   7.674  11.135
44665W        W16194  18.201  36.011   4.691
44666W        W16195  12.617   0.358  14.799
44667W        W16196  18.807  27.977  12.398
44668W        W16197  32.406  37.855   3.284
44669W        W16198  30.452  41.400   2.614
44670W        W16199  27.783  21.027   2.721
44671W        W16200  44.321  38.387  12.547
44672W        W16201  23.173   3.805  12.946
44673W        W16202  18.763   5.884   1.273
44674W        W16203  24.082   7.323   3.489
44675W        W16204   5.997   1.232   4.169
44676W        W16205  28.565  19.234  11.994
44677W        W16206  21.569   0.576  14.372
44678W        W16207   0.806  36.847  10.713
44679W        W16208  28.237  13.509  13.633
44680W        W16209  42.991  27.836   2.003
44681W        W16210  39.866  37.751  11.802
44682W        W16211  27.541  19.028   4.085
44683W        W16212  32.953   7.514  10.490
44684W        W16213  34.903  31.245  11.540
44685W        W16214  20.753  19.198  12.611
44686W        W16215  40.875  10.850  13.085
44687W        W16216  16.810  20.021  13.899
44688W        W16217  12.300   3.440  11.112
44689W        W16218  20.659  41.697  13.112
44690W        W16219  10.849  43.836   9.761
44691W        W16220  17.033  44.525   2.055
44692W        W16221  39.674   0.167  13.527
44693W        W16222  10.902  10.815   0.323
44694W        W16223  18.743  21.258   1.342
44695W        W16224   1.162  12.273   4.696
44696W        W16225  12.219  19.073  14.496
44697W        W16226  37.618  22.183   2.226
44698W        W16227   2.971  31.117   1.043
44699W        W16228   2.071   7.048  11.309
44700W        W16229   9.603  18.307  13.969
44701W        W16230  25.503  32.905   0.485
44702W        W16231  12.090  35.402  11.141
44703W        W16232  28.494   7.711   4.676
44704W        W16233  17.126  26.916   3.802
44705W        W16234  41.939  38.482   1.944
44706W        W16235  28.526   8.344   0.461
44707W        W16236  11.684  37.938  13.348
44708W        W16237   2.257   7.729  13.366
44709W        W16238   3.131  36.844   2.889
44710W        W16239  14.146  16.642   0.599
44711W        W16240  15.747  30.703  13.742
44712W        W16241  22.991  12.601   4.599
44713W        W16242  40.334  27.641  13.750
44714W        W16243   0.019   6.246  11.958
44715W        W16244  14.715  42.109  11.236
44716W        W16245  26.479  18.621   1.972
44717W        W16246  18.770  33.373   4.906
44718W        W16247  19.890  10.724  13.428
44719W        W16248  20.203  38.875   2.752
44720W        W16249  13.142  43.317  12.932
44721W        W16250  35.776  16.618  12.399
44722W        W16251  12.210  42.229   3.605
44723W        W16252  23.279  43.444  11.207
44724W        W16253  13.040   3.216  14.969
44725W        W16254   7.373   1.813   4.751
44726W        W16255  22.476  44.872  11.504
44727W        W16256  11.301   4.785  13.552
44728W        W16257   1.948   0.464   2.241
44729W        W16258   7.256  20.764   4.228
44730W        W16259  40.241  10.443  13.489
44731W        W16260  24.315  30.143  14.578
44732W        W16261  43.364  31.377   1.324
44733W        W16262  28.562   4.193   1.768
44734W        W16263   5.799  21.251  11.198
44735W        W16264  37.839  43.750  11.921
44736W        W16265  36.084  23.965  12.982
44737W        W16266   0.227  16.875  14.615
44738W        W16267  30.996  33.307   3.152
44739W        W16268   8.902  40.706   3.165
44740W        W16269   8.530   4.680   4.110
44741W        W16270  44.011  25.609  12.991
44742W        W16271  10.454  15.558   2.421
44743W        W16272  19.752   3.274   2.601
44744W        W16273  18.980   7.889  13.995
44745W        W16274   8.139  27.546  11.856
44746W        W16275   1.719  31.927  12.530
44747W        W16276   0.237  32.341   4.205
44748W        W16277  39.239  33.989  14.601
44749W        W16278   7.752  26.612   0.942
44750W        W16279  27.984  12.616  11.188
44751W        W16280   7.325   1.035   1.898
44752W        W16281  14.583   0.814   3.929
44753W        W16282  31.353  39.646  14.304
44754W        W16283  22.969  41.717   1.263
44755W        W16284   4.233  21.993  13.038
44756W        W16285  37.662  30.524  13.494
44757W        W16286  43.840  16.651   5.048
44758W        W16287   8.334   9.838   3.520
44759W        W16288  12.132  40.958  11.907
44760W        W16289  30.866   7.901  11.883
44761W        W16290  37.469  26.163   4.868
44762W        W16291  36.389   7.217  14.917
44763W        W16292  24.195   9.833  14.788
44764W        W16293  23.187  42.379   2.708
44765W        W16294  16.793   1.739   0.299
44766W        W16295  43.242   8.832  12.665
44767W        W16296  26.397  25.434  14.335
44768W        W16297  22.279  28.627   4.943
44769W        W16298  28.942  10.717   4.066
44770W        W16299  19.455   1.828  11.173
44771W        W16300  18.549  33.990   2.253
44772W        W16301  21.694  30.007   4.329
44773W        W16302  25.537   1.880   0.358
44774W        W16303  29.641  14.229   3.609
44775W        W16304  19.304  42.906   2.286
44776W        W16305   5.349   8.831   3.836
44777W        W16306  19.703  24.517  11.197
44778W        W16307   1.709   5.070  10.702
44779W        W16308  21.210  34.162  11.363
44780W        W16309  20.841   7.123  10.960
44781W        W16310  36.570   5.949  11.165
44782W        W16311  15.769   3.755   2.278
44783W        W16312  27.186  14.736   0.428
44784W        W16313  40.016  19.878  13.016
44785W        W16314  39.806  12.878  13.135
44786W        W16315   1.824  11.689  13.476
44787W        W16316   6.266   8.947   2.762
44788W        W16317  39.017  43.777   0.906
44789W        W16318  39.785   9.909   1.921
44790W        W16319  38.380  42.541   0.985
44791W        W16320  37.603  24.152  12.984
44792W        W16321  21.115  37.421  11.064
44793W        W16322  40.972   1.874   1.729
44794W        W16323   8.130  25.368  12.730
44795W        W16324  35.963  27.666   0.128
44796W        W16325  28.390  44.600  12.189
44797W        W16326  40.719  38.848   0.961
44798W        W16327   9.733  16.192  14.437
44799W        W16328  34.271  13.429  13.650
44800W        W16329  29.955  40.584   1.379
44801W        W16330  21.430  43.276  14.375
44802W        W16331  41.047  44.170  13.615
44803W        W16332  21.792  30.094   3.298
44804W        W16333  37.290  31.715   4.616
44805W        W16334  23.630  39.331   5.127
44806W        W16335  22.288  43.506  12.407
44807W        W16336  31.503  13.170  11.102
44808W        W16337   9.239   3.041  14.336
44809W        W16338  36.072  41.023  12.032
44810W        W16339  11.614  40.480  12.528
44811W        W16340   9.341  15.682  11.935
44812W        W16341  13.943  13.155  14.614
44813W        W16342  25.725  41.772   4.011
44814W        W16343   8.755  14.640   4.887
44815W        W16344  40.880   2.818  13.927
44816W        W16345  42.327   1.902   3.366
44817W        W16346  33.432  14.226  10.241
44818W        W16347  16.347  22.571   4.137
44819W        W16348  12.500  29.530   1.745
44820W        W16349  40.942  32.575   3.722
44821W        W16350  10.620  30.491  10.726
44822W        W16351  26.751  10.549  14.385
44823W        W16352   7.817  15.330   1.253
44824W        W16353  37.473  27.101  10.678
44825W        W16354   6.312  18.515   2.655
44826W        W16355  25.860  14.804   2.791
44827W        W16356   8.837  26.556   4.579
44828W        W16357  43.820  38.315  12.507
44829W        W16358   6.217  35.223  11.183
44830W        W16359  22.451  16.125   1.846
44831W        W16360  16.577   3.147   4.679
44832W        W16361  34.387   6.278  14.496
44833W        W16362  27.168  44.689  14.778
44834W        W16363  37.946  44.226   0.326
44835W        W16364  44.232   4.706  12.472
44836W        W16365  39.625  21.183  13.571
44837W        W16366  15.869  36.975   3.294
44838W        W16367  43.262  25.644   1.201
44839W        W16368  34.777   5.687  11.191
44840W        W16369  15.699  38.803  14.224
44841W        W16370  15.571  27.648   1.906
44842W        W16371  35.896  26.005  13.924
44843W        W16372  17.642  33.760   4.386
44844W        W16373  14.688  26.617  11.912
44845W        W16374   8.361  20.520   1.380
44846W        W16375  43.529  33.857  13.136
44847W        W16376  11.795   7.244  13.578
44848W        W16377  23.054   2.435   4.690
44849W        W16378  18.168  27.721   9.861
44850W        W16379  13.794   2.280   3.141
44851W        W16380   1.936  30.653  14.723
44852W        W16381  28.672  28.312  13.224
44853W        W16382   4.829  16.061  13.907
44854W        W16383  17.359  35.129   3.201
44855W        W16384  42.356   8.849   1.423
44856W        W16385  28.063  35.780  14.394
44857W        W16386  22.293   4.767   1.094
44858W        W16387  10.285  36.461  14.836
44859W        W16388  11.946  39.512  11.192
44860W        W16389  19.566  38.548  11.826
44861W        W16390   6.225   4.030  12.133
44862W        W16391  43.877  25.714   1.774
44863W        W16392  26.484   6.928   2.422
44864W        W16393  22.802  43.478  11.062
44865W        W16394  32.666  34.486   0.494
44866W        W16395  34.490  30.458   1.258
44867W        W16396   4.004  26.032   4.113
44868W        W16397   1.946  35.022   1.700
44869W        W16398  11.627  18.177   0.464
44870W        W16399   3.609  30.250   5.178
44871W        W16400  10.264  21.621  14.278
44872W        W16401  35.934  31.982  11.842
44873W        W16402  16.096  23.196  11.487
44874W        W16403  20.112  31.595   0.769
44875W        W16404  14.598  27.376  12.391
44876W        W16405  27.689  27.078   4.208
44877W        W16406   2.452  43.009   1.762
44878W        W16407  10.754  37.585   3.136
44879W        W16408  17.593  14.052   2.018
44880W        W16409  11.441  20.430   0.376
44881W        W16410  17.596  21.839   1.776
44882W        W16411  31.811  30.628  13.599
44883W        W16412  16.367  41.918  14.302
44884W        W16413  43.989  30.572  14.967
44885W        W16414   7.753  16.658   0.444
44886W        W16415  41.723   0.843   3.295
44887W        W16416  14.404  41.109   0.369
44888W        W16417   4.487  30.139   4.699
44889W        W16418  22.032  36.460   1.740
44890W        W16419  30.062  14.235   4.014
44891W        W16420   1.052  34.877   2.684
44892W        W16421  31.108  42.020   3.634
44893W        W16422   3.516   1.801   0.469
44894W        W16423  17.036  28.489   2.579
44895W        W16424  44.747   3.908   3.779
44896W        W16425   3.485   6.110  14.002
44897W        W16426  15.226  11.386   0.215
44898W        W16427  14.264  39.553   1.447
44899W        W16428   9.685  39.377  12.054
44900W        W16429  35.522  42.096  14.413
44901W        W16430  31.625  19.038  14.414
44902W        W16431   6.701  43.451   2.213
44903W        W16432  20.081  43.308  14.794
44904W        W16433   7.132  27.156   4.593
44905W        W16434  42.722   8.233  11.544
44906W        W16435   7.271  34.041  13.014
44907W        W16436  22.059   0.331   3.627
44908W        W16437  15.296  35.988   1.344
44909W        W16438  17.966  18.825  14.570
44910W        W16439   6.716  18.614  12.604
44911W        W16440  23.770  40.139   2.729
44912W        W16441  18.217  25.475  14.802
44913W        W16442  19.286  29.052  12.753
44914W        W16443   2.891  30.521  14.695
44915W        W16444  24.456  24.662  10.500
44916W        W16445  27.084  19.618   4.606
44917W        W16446   9.418   8.363  10.801
44918W        W16447  21.338   6.194   0.402
44919W        W16448  17.627  21.677   2.715
44920W        W16449   9.098   0.413  13.013
44921W        W16450  17.089  34.058   3.236
44922W        W16451   9.650  16.357  11.596
44923W        W16452   8.317  21.301   0.011
44924W        W16453  26.983  42.411   0.954
44925W        W16454  31.562  35.268   4.498
44926W        W16455  13.522  18.398  13.957
44927W        W16456  23.252  11.438   3.867
44928W        W16457  34.551  25.115  11.935
44929W        W16458  39.547  28.130  11.530
44930W        W16459   5.140  38.006   1.761
44931W        W16460  13.195  43.707  14.771
44932W        W16461  22.220  32.991  14.236
44933W        W16462  44.493  15.748   3.765
44934W        W16463  17.081   5.229   2.309
44935W        W16464  36.566  18.431  14.595
44936W        W16465  32.698  23.484  13.543
44937W        W16466  43.652  27.051   1.424
44938W        W16467  20.189  13.694   1.087
44939W        W16468  38.531  19.680   4.425
44940W        W16469  27.555   9.318   4.629
44941W        W16470  39.366  24.603   4.947
44942W        W16471  40.155  31.012   0.326
44943W        W16472  36.822   4.420   3.627
44944W        W16473  41.220  35.071  11.325
44945W        W16474  31.324  41.448  14.477
44946W        W16475  35.213  30.892   3.678
44947W        W16476  43.480   2.452   2.334
44948W        W16477  15.663  34.149   3.328
44949W        W16478  25.121   8.222   3.590
44950W        W16479  23.509  28.764  13.615
44951W        W16480  38.887  39.354  11.106
44952W        W16481   0.435   0.529  14.778
44953W        W16482  13.123  10.420   2.289
44954W        W16483  10.302  43.440  11.004
44955W        W16484  42.317  16.298   0.498
44956W        W16485  16.844  18.060  14.893
44957W        W16486  36.453  44.730   3.623
44958W        W16487   7.776  31.590   3.903
44959W        W16488  30.618  38.521  13.109
44960W        W16489  11.794  12.312  13.395
44961W        W16490  39.559  13.196   2.974
44962W        W16491  14.544  40.867  12.112
44963W        W16492  13.887   3.474  12.934
44964W        W16493   0.011  19.310   1.419
44965W        W16494  41.135  22.057  14.966
44966W        W16495  29.458  10.762   4.112
44967W        W16496  24.480  17.291  11.632
44968W        W16497  31.791  11.269  12.561
44969W        W16498   4.951  35.620  10.865
44970W        W16499  41.215  42.437   2.269
44971W        W16500  25.166  33.563   3.347
44972W        W16501  25.460   9.084   1.424
44973W        W16502  39.258  44.768  12.826
44974W        W16503   9.886   1.886  13.876
44975W        W16504   8.909  43.870   0.720
44976W        W16505  20.371  18.064  11.565
44977W        W16506  40.621  35.055   1.805
44978W        W16507   5.023  14.353  12.816
44979W        W16508  36.158   7.201  11.113
44980W        W16509  39.580  23.286  11.687
44981W        W16510  25.108  18.720   0.038
44982W        W16511  38.905  12.445   0.778
44983W        W16512  33.481  32.699  11.519
44984W        W16513  10.870  42.268   0.497
44985W        W16514  31.344  33.657   2.909
44986W        W16515  19.971  10.141  14.801
44987W        W16516  18.735  22.977   2.533
44988W        W16517  23.070  26.981   2.138
44989W        W16518  29.291  10.088   3.413
44990W        W16519  31.053  20.291  13.509
44991W        W16520  31.390  15.514   0.813
44992W        W16521  30.438  19.033  12.623
44993W        W16522  30.573  41.781  13.627
44994W        W16523  26.752  41.760   2.921
44995W        W16524  37.505  20.804  13.394
44996W        W16525   4.108  17.630  13.392
44997W        W16526  34.287   1.451   1.820
44998W        W16527  23.642  29.154   1.404
44999W        W16528  29.185   2.842   1.690
45000W        W16529  16.586  13.500   3.147
45001W        W16530  11.586  17.702  10.183
45002W        W16531  26.494  27.781  12.958
45003W        W16532  42.235  38.393  13.378
45004W        W16533  10.563  32.564  12.004
45005W        W16534  40.178   4.993   0.058
45006W        W16535  44.459  36.290  14.986
45007W        W16536  33.319   7.412   2.671
45008W        W16537  26.287  16.328  12.604
45009W        W16538   9.076  18.118  12.153
45010W        W16539  20.222  18.600  12.810
45011W        W16540  17.247  11.815  12.074
45012W        W16541  16.274  30.681  12.754
45013W        W16542  42.063  10.348   1.926
45014W        W16543   8.393  32.140  13.790
45015W        W16544  31.349  26.199  13.906
45016W        W16545   4.459   2.130  14.497
45017W        W16546  30.536  40.334  11.592
45018W        W16547  11.488  19.157   0.975
45019W        W16548   4.524  40.744   2.614
45020W        W16549   3.531   1.483   0.949
45021W        W16550   5.595   9.178   0.395
45022W        W16551  39.625   3.004  11.983
45023W        W16552  44.671  36.983   4.113
45024W        W16553  38.720  26.229   2.859
45025W        W16554  34.495  20.279   4.630
45026W        W16555  12.294  17.803   2.193
45027W        W16556   8.916   4.222   1.903
45028W        W16557  19.331   8.886   0.698
45029W        W16558  23.078   2.784  14.047
45030W        W16559  36.154   6.822  11.502
45031W        W16560  42.289   9.179  12.850
45032W        W16561  37.005  14.821  13.537
45033W        W16562  31.884  28.385   4.648
45034W        W16563  15.787   4.842  12.589
45035W        W16564  28.010  21.152   2.260
45036W        W16565  26.443  32.057  12.984
45037W        W16566  23.047  38.431  14.289
45038W        W16567  15.124  17.315   1.318
45039W        W16568  11.125  40.008  14.584
45040W        W16569   4.766   6.250   2.777
45041W        W16570  34.726  36.090   2.208
45042W        W16571  12.908   8.610  11.542
45043W        W16572  40.564  26.424   1.723
45044W        W16573  27.610   8.565  11.961
45045W        W16574   8.480  37.862   3.821
45046W        W16575  34.513  22.971  10.681
45047W        W16576  15.305  22.650  14.854
45048W        W16577  38.338   5.855  13.510
45049W        W16578  19.617  43.894  12.776
45050W        W16579  35.805  24.131   1.330
45051W        W16580  20.456  10.827   4.628
45052W        W16581   2.390  11.773   3.768
45053W        W16582   3.879  41.916   3.310
45054W        W16583  40.881  34.418   0.634
45055W        W16584  34.385  16.616  13.321
45056W        W16585  15.073  19.133  11.107
45057W        W16586  22.050  32.927  11.493
45058W        W16587  38.979  31.885  11.140
45059W        W16588  15.208  28.940  13.155
45060W        W16589  32.679  22.187   3.631
45061W        W16590   4.481   4.343   1.904
45062W        W16591   6.811  15.536   1.316
45063W        W16592  33.142  30.967  13.174
45064W        W16593  23.269  28.435   0.973
45065W        W16594  37.045  11.766  10.780
45066W        W16595   8.617  22.596   4.558
45067W        W16596  37.994  35.409  14.768
45068W        W16597  31.919  26.294   4.512
45069W        W16598  44.877  24.983   2.198
45070W        W16599  41.270  34.136  10.814
45071W        W16600  26.189  36.026   4.848
45072W        W16601  18.343  40.813  14.394
45073W        W16602  41.186   2.040  12.550
45074W        W16603  30.511   2.116  11.438
45075W        W16604   4.294  39.323   0.391
45076W        W16605  12.575  31.187   4.539
45077W        W16606   0.910  37.404   0.696
45078W        W16607   0.688   7.720  13.313
45079W        W16608  28.272  20.357  13.954
45080W        W16609  15.334  29.115   4.244
45081W        W16610  42.257  41.192   1.568
45082W        W16611  43.454  22.455   0.770
45083W        W16612  17.011   0.521  11.156
45084W        W16613  34.085  43.506  14.730
45085W        W16614  36.566  41.364  11.462
45086W        W16615  10.207   5.467  12.035
45087W        W16616  30.179  15.739  11.567
45088W        W16617  42.577  25.978   0.658
45089W        W16618  36.548  40.251  14.280
45090W        W16619  19.243  35.859   3.145
45091W        W16620   3.097  24.297  11.191
45092W        W16621  19.607  10.065  12.958
45093W        W16622   5.812  19.648   3.506
45094W        W16623   8.372  28.076  13.824
45095W        W16624  43.742  17.635  11.117
45096W        W16625  15.459   2.689   1.764
45097W        W16626  24.840   3.518  10.345
45098W        W16627  31.928  38.960  14.901
45099W        W16628   5.544  19.492  12.464
45100W        W16629  44.504   8.803  12.454
45101W        W16630  23.279  36.459  14.385
45102W        W16631  11.639  33.907   1.872
45103W        W16632   9.309   8.672   0.223
45104W        W16633  37.301   1.345   3.214
45105W        W16634   5.232   4.698  14.473
45106W        W16635  40.508  21.047  11.711
45107W        W16636  14.125  19.721   1.359
45108W        W16637  39.603  41.732  14.444
45109W        W16638  42.341  27.164   1.692
45110W        W16639  33.446   5.878   3.720
45111W        W16640   5.338  40.053   1.319
45112W        W16641  19.771  15.176   3.733
45113W        W16642  23.098  22.637  10.058
45114W        W16643   0.739   5.708   2.904
45115W        W16644  12.810  41.838  11.217
45116W        W16645  18.088  24.990  14.827
45117W        W16646  17.057  42.495   1.827
45118W        W16647  28.414  44.493   4.355
45119W        W16648  34.414  19.790  11.556
45120W        W16649  17.018   4.602   0.370
45121W        W16650   7.252  17.827   0.358
45122W        W16651  21.017  15.038   1.456
45123W        W16652   7.365  28.671  12.090
45124W        W16653  23.568  41.754  14.569
45125W        W16654  18.955  18.609  12.036
45126W        W16655  42.429  26.255  10.972
45127W        W16656  43.410  34.389   3.808
45128W        W16657  38.387  29.131   2.856
45129W        W16658  13.643  20.768   2.886
45130W        W16659   9.228  40.528   2.332
45131W        W16660   2.489  22.573  10.118
45132W        W16661  28.150   2.502   2.054
45133W        W16662  11.919  35.485   2.299
45134W        W16663  23.699  34.584   3.890
45135W        W16664   7.730  15.084  13.912
45136W        W16665  32.075  39.282  12.616
45137W        W16666  43.411  15.243   2.155
45138W        W16667  22.749  22.711  14.291
45139W        W16668  11.769  36.933   2.498
45140W        W16669  11.477  19.609   1.320
45141W        W16670  44.962  38.635  10.547
45142W        W16671  33.525  15.927  10.713
45143W        W16672  34.927  12.275  14.916
45144W        W16673  12.105  31.652  10.529
45145W        W16674  19.273  20.292   0.138
45146W        W16675  42.285   0.869  12.627
45147W        W16676  18.379  15.164  14.442
45148W        W16677  18.195  41.321  12.077
45149W        W16678  44.708  23.664   2.680
45150W        W16679   4.479  18.752  11.019
45151W        W16680   4.513  26.179  13.950
45152W        W16681  10.249   4.867  10.406
45153W        W16682  21.096   7.719  12.943
45154W        W16683  36.321  29.776  10.904
45155W        W16684  32.699  11.654  14.959
45156W        W16685   2.566  24.681  10.554
45157W        W16686  35.009  25.068  13.643
45158W        W16687  20.486   6.959   2.163
45159W        W16688   5.044  27.695   2.720
45160W        W16689  19.819   7.798  10.727
45161W        W16690  11.300  37.441  12.576
45162W        W16691  28.068  32.612  12.797
45163W        W16692  15.357  31.129  12.979
45164W        W16693   8.949  32.137  11.650
45165W        W16694   2.298  35.400   0.775
45166W        W16695  38.125   6.275  12.392
45167W        W16696  17.196  42.197   1.416
45168W        W16697  21.293  19.853  11.574
45169W        W16698  41.424   4.455   0.041
45170W        W16699  11.299  20.627   3.889
45171W        W16700  41.501  24.836   1.480
45172W        W16701  28.711  21.220  10.630
45173W        W16702  34.423  38.124  11.615
45174W        W16703  20.050  14.718  14.871
45175W        W16704  11.390  43.097   4.226
45176W        W16705   7.174  35.128   1.066
45177W        W16706  12.352  19.888  13.924
45178W        W16707  40.559   3.137  12.000
45179W        W16708  21.068  29.427  10.744
45180W        W16709  32.349  31.643  11.728
45181W        W16710   9.292  35.498   1.222
45182W        W16711  22.884  12.980  13.495
45183W        W16712  19.327  10.084   4.526
45184W        W16713  16.259  34.612   1.076
45185W        W16714  41.564  11.097   3.257
45186W        W16715  14.032  28.982  13.433
45187W        W16716  14.155  35.262   4.285
45188W        W16717  26.086  27.921   1.854
45189W        W16718  36.306   3.896   4.241
45190W        W16719  44.670  25.190  11.922
45191W        W16720  23.777  21.919   0.342
45192W        W16721   9.337  35.979  13.498
45193W        W16722   9.274  39.322  14.165
45194W        W16723   1.511  39.986   0.389
45195W        W16724  41.890  22.290  11.194
45196W        W16725   2.331  22.447   3.141
45197W        W16726  34.122  23.931  14.945
45198W        W16727  26.090  22.498  14.242
45199W        W16728  42.279  14.780   4.263
45200W        W16729   1.911  43.997  14.491
45201W        W16730  30.385  38.902   4.955
45202W        W16731   8.176  22.212   0.943
45203W        W16732  41.106  15.146   3.870
45204W        W16733  23.152   6.984   2.555
45205W        W16734   2.262  25.471   1.466
45206W        W16735  17.828  44.686   2.694
45207W        W16736  33.143  11.837   4.643
45208W        W16737  16.167  18.100   2.329
45209W        W16738  24.644   6.755   1.092
45210W        W16739  44.742  40.397   2.217
45211W        W16740  19.251  15.324   0.982
45212W        W16741  23.411  32.629   1.705
45213W        W16742   2.150  25.751   4.063
45214W        W16743  41.586  23.633   3.470
45215W        W16744   8.136   0.275   1.295
45216W        W16745  10.761  20.020  10.491
45217W        W16746  34.512   6.859  10.637
45218W        W16747  36.594  14.508   2.594
45219W        W16748  19.156  38.738   4.020
45220W        W16749   2.365  33.413   3.012
45221W        W16750   4.236  39.897  11.592
45222W        W16751  20.654  22.120   0.895
45223W        W16752   2.801  22.205   1.813
45224W        W16753  26.374  26.048   0.548
45225W        W16754   7.246  23.746  12.526
45226W        W16755  24.135   9.067  11.045
45227W        W16756   8.910  14.070   3.240
45228W        W16757  40.420  21.550   4.984
45229W        W16758  37.034  20.610  10.703
45230W        W16759  44.457  12.396  14.776
45231W        W16760  43.424  13.412  14.881
45232W        W16761  18.440  25.101  11.137
45233W        W16762  31.542  23.905   5.351
45234W        W16763  23.956  15.975  12.482
45235W        W16764  14.625  36.627   4.500
45236W        W16765  11.178  13.331   3.212
45237W        W16766  17.069  34.381   1.377
45238W        W16767  20.528   3.375  13.502
45239W        W16768  25.581   7.611   2.068
45240W        W16769   8.795  40.090   0.278
45241W        W16770  20.851  30.019   4.656
45242W        W16771  13.222  32.822  13.039
45243W        W16772   4.755  23.595  14.099
45244W        W16773  40.354  17.350   0.406
45245W        W16774  37.716  28.637  13.590
45246W        W16775   6.876  32.368   1.826
45247W        W16776  17.718  33.546   1.814
45248W        W16777  44.240  26.230  11.564
45249W        W16778  37.431  12.303   4.704
45250W        W16779  19.794  25.999   3.175
45251W        W16780   2.897  38.249  12.379
45252W        W16781   3.863  18.028   0.781
45253W        W16782  22.676  18.725   4.394
45254W        W16783  36.133  42.014   0.457
45255W        W16784  27.452  22.066   3.336
45256W        W16785  37.858  12.772   0.799
45257W        W16786   4.452   8.719  13.443
45258W        W16787  17.703  27.465   5.606
45259W        W16788  36.556  23.987   2.909
45260W        W16789  41.540  12.789   4.475
45261W        W16790  17.435   7.875   3.656
45262W        W16791  23.114   7.172  14.078
45263W        W16792  21.032  15.796   0.815
45264W        W16793   4.839  37.458   4.530
45265W        W16794  16.168  17.472   3.758
45266W        W16795  40.805  39.343  11.994
45267W        W16796  16.873   2.632   0.160
45268W        W16797   9.170  32.459   0.453
45269W        W16798  17.546  26.155  10.734
45270W        W16799   1.071   5.440   0.263
45271W        W16800   7.124   8.082   3.232
45272W        W16801   2.762  42.796  13.856
45273W        W16802  13.231  36.504   4.315
45274W        W16803   1.533  28.651   0.361
45275W        W16804   4.000  13.879   1.249
45276W        W16805   9.785   6.531   4.159
45277W        W16806  44.901  11.786   4.159
45278W        W16807  13.884  31.180   1.939
45279W        W16808  11.542  14.705  12.812
45280W        W16809  21.698  36.271  13.307
45281W        W16810  25.949   4.355   1.737
45282W        W16811  31.161  25.056   2.177
45283W        W16812  24.114  28.124   2.490
45284W        W16813  37.718  17.848  11.194
45285W        W16814  10.718   1.561   0.057
45286W        W16815  19.255   2.609  12.633
45287W        W16816   3.396  22.493   4.142
45288W        W16817  40.942  13.075   1.228
45289W        W16818  16.098  44.511   1.602
45290W        W16819  38.124  28.683   1.628
45291W        W16820  26.584  32.551   2.768
45292W        W16821  31.476  41.542   2.898
45293W        W16822  32.394  15.131  11.648
45294W        W16823  42.398  29.975   0.831
45295W        W16824   7.432  28.603  11.163
45296W        W16825  10.823  23.663   3.369
45297W        W16826  13.299  17.487  13.391
45298W        W16827   0.803  27.474   4.562
45299W        W16828  16.698   9.393   0.274
45300W        W16829   4.296   2.286  11.605
45301W        W16830  20.186  24.572   2.391
45302W        W16831   2.331  31.722   0.285
45303W        W16832  26.990  36.503  14.496
45304W        W16833  17.795  16.230  11.544
45305W        W16834  24.839  22.679  12.607
45306W        W16835  21.900  11.158  12.886
45307W        W16836  31.873  22.537   3.263
45308W        W16837  13.121  29.918   3.853
45309W        W16838  27.914  12.063   4.106
45310W        W16839  28.783   7.707   4.181
45311W        W16840  44.777  25.996   3.171
45312W        W16841  39.028  30.275   0.275
45313W        W16842  29.198  11.246  11.150
45314W        W16843  41.270  15.612   3.694
45315W        W16844  37.751   4.657  11.622
45316W        W16845   9.289  31.165  11.033
45317W        W16846  44.267  19.978   3.651
45318W        W16847  18.293   6.003   4.789
45319W        W16848  16.780  15.047  11.555
45320W        W16849  15.621  32.104   2.452
45321W        W16850  38.980   6.326   4.369
45322W        W16851  35.887  16.587   0.836
45323W        W16852   7.284   9.746   3.139
45324W        W16853   4.844  44.856   4.270
45325W        W16854  25.393   1.782  11.038
45326W        W16855   1.925   0.629   1.305
45327W        W16856  44.405  11.228  14.441
45328W        W16857   1.840  32.011  12.032
45329W        W16858  13.549  21.519  12.675
45330W        W16859  23.729  13.117   4.297
45331W        W16860  12.299  18.513  11.179
45332W        W16861  26.873  25.837   2.439
45333W        W16862  14.316  32.664  10.676
45334W        W16863  35.143  16.746  10.074
45335W        W16864   3.300   1.849  14.984
45336W        W16865  33.066   6.265  12.993
45337W        W16866  44.811  10.232  10.710
45338W        W16867   7.188  34.366   4.084
45339W        W16868  41.103  21.051  12.664
45340W        W16869  30.294  16.775   5.183
45341W        W16870  28.788  18.664  14.844
45342W        W16871   9.418  36.374   4.598
45343W        W16872   5.800  44.562   3.580
45344W        W16873  18.832  26.512  14.459
45345W        W16874  44.011  15.646  11.816
45346W        W16875  36.262  24.914   2.790
45347W        W16876  31.248  24.067   2.789
45348W        W16877   5.683  29.468   1.721
45349W        W16878   4.414  26.982  12.642
45350W        W16879  10.708  14.109  13.787
45351W        W16880  19.010  12.175   0.410
45352W        W16881   0.946   9.048   1.695
45353W        W16882  18.963  22.019   0.190
45354W        W16883  39.417  16.054  10.679
45355W        W16884  20.742  17.670   0.336
45356W        W16885  21.125  13.455  13.705
45357W        W16886  35.512  30.421   1.388
45358W        W16887  30.784   8.558   5.115
45359W        W16888  32.527   5.227  12.047
45360W        W16889   7.567  14.694  12.443
45361W        W16890  25.913  19.601   0.382
45362W        W16891  14.840   1.733   1.305
45363W        W16892  16.741  29.203   3.981
45364W        W16893  27.074  37.085   2.379
45365W        W16894  10.063  13.592   4.208
45366W        W16895   1.987  44.859  11.569
45367W        W16896  20.745  21.337  12.622
45368W        W16897   3.522  22.018   3.221
45369W        W16898  28.480  15.296  13.017
45370W        W16899  35.538  33.866   0.920
45371W        W16900  19.733   5.433   4.494
45372W        W16901  42.759   0.372   0.204
45373W        W16902  13.534  24.499   1.133
45374W        W16903  12.861  42.534   0.392
45375W        W16904   6.058  39.326  14.997
45376W        W16905  35.074  26.751  13.903
45377W        W16906   6.200  15.944   0.390
45378W        W16907   5.706  15.613  12.480
45379W        W16908   4.197  35.200   0.915
45380W        W16909  32.398  23.097  12.729
45381W        W16910  24.556  12.465   0.364
45382W        W16911  10.706  26.285  12.297
45383W        W16912  29.649  41.547  14.515
45384W        W16913  36.908  36.360   3.051
45385W        W16914   6.408  20.505   1.858
45386W        W16915  37.463   7.601  12.463
45387W        W16916   4.329  32.376  13.607
45388W        W16917  41.578  18.185  12.740
45389W        W16918  32.616  12.931  12.008
45390W        W16919  15.598  30.684  13.168
45391W        W16920  34.077   6.027  11.869
45392W        W16921  40.387  34.485   3.606
45393W        W16922  37.077  35.819   2.176
45394W        W16923  32.534   9.334  13.828
45395W        W16924  23.162  31.686   3.779
45396W        W16925  38.556  29.715  12.994
45397W        W16926  35.944  17.215   3.105
45398W        W16927  25.810  35.874   3.906
45399W        W16928  33.990  43.870  10.598
45400W        W16929  30.162  36.091   1.356
45401W        W16930   4.465  22.171   1.348
45402W        W16931  44.307   6.408  14.732
45403W        W16932  18.877   6.952   0.365
45404W        W16933  20.177   5.900  14.793
45405W        W16934  10.344  15.745  13.791
45406W        W16935  14.161  25.969  14.039
45407W        W16936  31.604  41.261   2.487
45408W        W16937  35.128  21.868  11.262
45409W        W16938   7.695   7.981   1.405
45410W        W16939  10.576  40.962  14.779
45411W        W16940  13.402   5.831   3.209
45412W        W16941   0.768  19.187  14.760
45413W        W16942  19.707   8.213   3.050
45414W        W16943   6.248  21.463  11.062
45415W        W16944   9.933  28.273  10.879
45416W        W16945  11.736  30.667   2.632
45417W        W16946  20.505  32.160   1.285
45418W        W16947  32.838  44.232  14.341
45419W        W16948  16.833  30.925   4.568
45420W        W16949   0.432  19.107   4.633
45421W        W16950  30.063  20.558   3.866
45422W        W16951  17.693  33.591  13.051
45423W        W16952  17.019  13.312  11.489
45424W        W16953  41.910  18.266   4.572
45425W        W16954  31.633  18.652  13.112
45426W        W16955   8.712   6.352  12.968
45427W        W16956  42.692  31.516   4.096
45428W        W16957  11.789  21.578   3.561
45429W        W16958  34.063  31.042   4.667
45430W        W16959  27.701   2.130  11.376
45431W        W16960  17.234   1.424   2.158
45432W        W16961  33.809  32.050  11.182
45433W        W16962  42.038  17.284   2.590
45434W        W16963   7.272  23.638  11.206
45435W        W16964  11.333  39.245   4.564
45436W        W16965  27.255  39.856   0.445
45437W        W16966  18.738   2.898  10.441
45438W        W16967   2.889  32.128  12.450
45439W        W16968  15.006  25.763   2.198
45440W        W16969  16.712  18.102  12.780
45441W        W16970  44.614  13.831   3.667
45442W        W16971  20.810  30.403  11.171
45443W        W16972  14.792  37.071  11.956
45444W        W16973  12.470   3.394   2.134
45445W        W16974  10.034  22.879  14.274
45446W        W16975  23.092  12.036   1.414
45447W        W16976  17.802   9.213   3.324
45448W        W16977   0.399  17.662   1.357
45449W        W16978  11.671  14.149   0.011
45450W        W16979   3.188   0.189  13.509
45451W        W16980  35.584  21.197  14.979
45452W        W16981  33.161   6.696  12.075
45453W        W16982  35.297   3.680  13.823
45454W        W16983  38.997  33.965   1.755
45455W        W16984  29.041   3.326   1.858
45456W        W16985  36.861  10.151   3.779
45457W        W16986   3.599  14.065   4.366
45458W        W16987  24.583  13.535   2.652
45459W        W16988  17.074  23.018   4.056
45460W        W16989   3.942  36.690   1.737
45461W        W16990  22.590  15.216  14.811
45462W        W16991  18.547  36.819   0.597
45463W        W16992  24.723  42.521   3.644
45464W        W16993  16.547  36.593   3.632
45465W        W16994  15.179   5.104   2.253
45466W        W16995  20.022  36.639   2.847
45467W        W16996  44.903   4.123   4.226
45468W        W16997  43.345  29.278  13.986
45469W        W16998  12.236  10.707   2.275
45470W        W16999   6.228  44.432  10.705
45471W        W17000  13.375  26.730   4.622
45472W        W17001  25.601  17.335   3.732
45473W        W17002  32.882  43.873  13.953
45474W        W17003  34.989  20.562  11.679
45475W        W17004  20.131  12.219   1.883
45476W        W17005  16.105  13.945   4.561
45477W        W17006   2.458   6.158   4.184
45478W        W17007  20.513  23.524  13.042
45479W        W17008  44.485   3.219  14.300
45480W        W17009  40.352  37.858  11.938
45481W        W17010  17.043  18.681   0.570
45482W        W17011  11.484  34.568  12.477
45483W        W17012  27.512  38.357   4.669
45484W        W17013  36.604   7.755   1.169
45485W        W17014   0.542  18.791   4.194
45486W        W17015  33.110   5.337  11.145
45487W        W17016  42.970  37.317   2.317
45488W        W17017  31.546  23.956   1.168
45489W        W17018   2.407  24.699   0.776
45490W        W17019  32.078  44.811   0.352
45491W        W17020   2.267  26.161   3.698
45492W        W17021  19.761   2.313   4.297
45493W        W17022  12.792  23.026   0.371
45494W        W17023   1.300  17.179   0.309
45495W        W17024  37.063  33.387   3.342
45496W        W17025  22.201  41.784   2.562
45497W        W17026   8.701  26.740   0.899
45498W        W17027  23.265  27.939  12.503
45499W        W17028  25.424  33.985   1.884
45500W        W17029  41.826  26.718   2.723
45501W        W17030  14.508  25.481  12.960
45502W        W17031  35.481  17.083   2.855
45503W        W17032  44.313   1.341  12.491
45504W        W17033  23.277  11.426   0.470
45505W        W17034   1.933  37.175   4.309
45506W        W17035  39.506  37.349  11.094
45507W        W17036  36.556  23.029   2.717
45508W        W17037   6.127   6.379   3.175
45509W        W17038  17.254  17.207   1.686
45510W        W17039   6.606  36.335   4.200
45511W        W17040  28.829  36.601  12.601
45512W        W17041  27.955  35.073   0.391
45513W        W17042  21.854  20.285   4.047
45514W        W17043  35.791  31.221  12.484
45515W        W17044  42.118  17.983   2.376
45516W        W17045   1.222  28.571  13.152
45517W        W17046  33.839  29.513   2.800
45518W        W17047  44.422   4.492   5.154
45519W        W17048  11.723  20.115   2.667
45520W        W17049   9.639  33.371   4.282
45521W        W17050  30.144  41.292  11.701
45522W        W17051  37.605   2.934   1.819
45523W        W17052   4.645  43.336  12.743
45524W        W17053   6.701  44.400  11.020
45525W        W17054  18.992  13.703   3.775
45526W        W17055  15.574  12.245  13.556
45527W        W17056  42.854  42.826   2.639
45528W        W17057  21.242  10.354  14.452
45529W        W17058  36.082  25.619   4.252
45530W        W17059  27.050   7.627  12.785
45531W        W17060  36.334  25.978  12.889
45532W        W17061   0.628  32.093   5.299
45533W        W17062  39.932   3.171  14.492
45534W        W17063  31.518  23.644   2.654
45535W        W17064  43.795  23.681  11.006
45536W        W17065  11.203  28.611  13.010
45537W        W17066  32.909  20.751  10.531
45538W        W17067   2.877   1.194  14.049
45539W        W17068  15.647  13.824   4.358
45540W        W17069  27.234  41.865   4.292
45541W        W17070  10.742  37.855  12.363
45542W        W17071  30.375  26.950  13.143
45543W        W17072  14.138   7.872   1.813
45544W        W17073  23.300   6.850  13.020
45545W        W17074  42.886  10.219  11.369
45546W        W17075  35.222  42.970   4.942
45547W        W17076  43.329  24.598  13.557
45548W        W17077   2.127  26.390  14.374
45549W        W17078  19.172  23.634  14.315
45550W        W17079   6.300  29.288   4.635
45551W        W17080  43.421   6.899   1.780
45552W        W17081  19.979  17.938  10.319
45553W        W17082   5.890  41.239   1.926
45554W        W17083  40.283  39.093   0.772
45555W        W17084  26.125   4.651  12.967
45556W        W17085  24.258  10.313   2.206
45557W        W17086  11.163  15.727  10.390
45558W        W17087  15.819  38.015   2.360
45559W        W17088  11.426  36.525  12.507
45560W        W17089   8.874  36.338  11.565
45561W        W17090  30.016  24.543   3.231
45562W        W17091  21.219  19.525   4.862
45563W        W17092  29.101  33.661  13.892
45564W        W17093  37.377  24.568  12.122
45565W        W17094  31.384  24.917   0.769
45566W        W17095  26.643   6.840  10.707
45567W        W17096  16.215  26.498  11.178
45568W        W17097  16.152  39.104   2.810
45569W        W17098  41.780  27.762  12.515
45570W        W17099  29.974  14.398  12.162
45571W        W17100  21.478   9.222   2.054
45572W        W17101  23.325  40.031   0.355
45573W        W17102  10.836  23.756  14.772
45574W        W17103  38.422  15.631  12.060
45575W        W17104  15.505  33.329  12.054
45576W        W17105  33.085  24.535  10.612
45577W        W17106  25.129  16.303   1.956
45578W        W17107  29.084   6.021   1.767
45579W        W17108  34.873  43.940   1.534
45580W        W17109  24.623   8.303   4.809
45581W        W17110   1.414  39.114   0.736
45582W        W17111  35.789   6.807  13.688
45583W        W17112  20.539  34.876  12.545
45584W        W17113  39.004  15.143   4.724
45585W        W17114  35.777  25.584  13.643
45586W        W17115  32.684  18.617  12.998
45587W        W17116  40.743  42.874  14.540
45588W        W17117  20.297   6.503  14.031
45589W        W17118  19.331   7.265   1.728
45590W        W17119  10.308  10.222  12.509
45591W        W17120  30.861   0.888  13.375
45592W        W17121  36.613  19.230   3.112
45593W        W17122   5.806   7.268  13.987
45594W        W17123  43.052  38.223  14.532
45595W        W17124  31.566   3.002  13.944
45596W        W17125  24.991   4.132  10.660
45597W        W17126  24.880   4.413   1.792
45598W        W17127   7.898  21.180   0.343
45599W        W17128  28.999  15.303  12.848
45600W        W17129  10.727  12.301  13.191
45601W        W17130  15.176   5.740  11.407
45602W        W17131  24.034   9.258  14.824
45603W        W17132   8.711   9.310   4.819
45604W        W17133  17.770  35.325  14.860
45605W        W17134  34.624  44.239   1.908
45606W        W17135  12.466  21.194  11.932
45607W        W17136   0.824  10.255   3.456
45608W        W17137  11.707   5.002   0.701
45609W        W17138  24.116  15.141   2.408
45610W        W17139  38.744  35.892   3.332
45611W        W17140  19.902  42.326  11.575
45612W        W17141  16.791   0.181  10.840
45613W        W17142  25.628  31.159   1.729
45614W        W17143  18.050  35.897   2.205
45615W        W17144  11.279  19.228  14.447
45616W        W17145   7.208  18.374  12.456
45617W        W17146  27.393   6.706   1.039
45618W        W17147   6.730   9.655  10.693
45619W        W17148  44.731   5.204  10.665
45620W        W17149  39.359  22.763  11.952
45621W        W17150  43.838   7.803   1.960
45622W        W17151  14.880  14.000  13.807
45623W        W17152   0.265  15.111  14.887
45624W        W17153  41.051   9.141  11.215
45625W        W17154  31.714  11.303   1.177
45626W        W17155  37.503  18.077   3.234
45627W        W17156  40.076  34.622   3.185
45628W        W17157   1.343   8.191  13.435
45629W        W17158  39.322  33.634   3.541
45630W        W17159  39.898   6.959  11.022
45631W        W17160  42.582  31.541  12.659
45632W        W17161   9.593  17.856   3.703
45633W        W17162  25.046   6.353   2.271
45634W        W17163  32.596  26.464  13.460
45635W        W17164  12.183  38.859  12.597
45636W        W17165   9.093  25.651  11.167
45637W        W17166  36.027   3.678   0.523
45638W        W17167   6.700  29.254   0.860
45639W        W17168  32.040  37.424  14.078
45640W        W17169  37.091   7.277   4.340
45641W        W17170  19.719  15.956   2.818
45642W        W17171  10.076  32.912  10.738
45643W        W17172  19.862   9.938   1.910
45644W        W17173  26.454   4.437  10.557
45645W        W17174   4.288   7.362  11.624
45646W        W17175  41.872  35.459  13.328
45647W        W17176  14.663  34.766   2.786
45648W        W17177  29.844  42.509   3.825
45649W        W17178  35.611  29.363  10.999
45650W        W17179  16.660  13.093   2.789
45651W        W17180  23.589  43.387  12.599
45652W        W17181  43.416   7.626   1.349
45653W        W17182  17.573  28.807  13.389
45654W        W17183   0.945   6.014   3.925
45655W        W17184   3.316  31.683  14.398
45656W        W17185  16.236  38.844   4.223
45657W        W17186   2.823  17.034   3.153
45658W        W17187  43.981  16.935  13.870
45659W        W17188   8.134   7.282   4.628
45660W        W17189   4.209  42.777   3.809
45661W        W17190  32.721  17.386  14.415
45662W        W17191  41.055  19.726   0.673
45663W        W17192  33.624   4.731  11.509
45664W        W17193  19.804  16.241  10.688
45665W        W17194  38.838  24.200   2.782
45666W        W17195  19.032  43.354   2.100
45667W        W17196  27.879  24.252   1.369
45668W        W17197  24.343  17.641   3.757
45669W        W17198  27.459  30.067   3.660
45670W        W17199  16.669  37.653  11.092
45671W        W17200  23.323  12.836   0.263
45672W        W17201  41.141  23.885  13.800
45673W        W17202  34.413  36.387  11.233
45674W        W17203  31.831   1.194  14.502
45675W        W17204  33.145  38.129   0.488
45676W        W17205  25.250   5.981  12.377
45677W        W17206  37.604   0.885   3.408
45678W        W17207  44.701   9.332   4.461
45679W        W17208  22.628  34.079   0.989
45680W        W17209  37.787  31.728   4.287
45681W        W17210  41.823  18.053   0.836
45682W        W17211  40.545  43.766   0.816
45683W        W17212  19.498  20.279   2.786
45684W        W17213  18.712  15.855  12.613
45685W        W17214  33.031  34.258  14.791
45686W        W17215  35.961  39.098  14.288
45687W        W17216  14.637  15.148   3.748
45688W        W17217  40.376  25.306   2.425
45689W        W17218  19.840  41.398   1.308
45690W        W17219   2.042   3.347  11.195
45691W        W17220  19.756   1.708   3.699
45692W        W17221   5.290  25.273  12.562
45693W        W17222  44.283  13.662   0.362
45694W        W17223  15.106  41.785  12.518
45695W        W17224  27.956  40.132  11.204
45696W        W17225  10.420  22.570   3.123
45697W        W17226  42.618   1.347   2.104
45698W        W17227  16.871   6.914   2.780
45699W        W17228  44.066  36.194   3.893
45700W        W17229  33.097  40.751  13.794
45701W        W17230  42.836  35.033  13.435
45702W        W17231   8.376  34.812   4.249
45703W        W17232   6.790  20.333  12.983
45704W        W17233  33.317  26.694  13.937
45705W        W17234   9.648   7.952  13.025
45706W        W17235  32.617  20.283   1.816
45707W        W17236  21.497  13.105  13.571
45708W        W17237  41.242   6.411  14.952
45709W        W17238  44.934  25.217   1.737
45710W        W17239  43.335  23.797   3.606
45711W        W17240   0.422   2.343   1.807
45712W        W17241  31.279  38.413  12.421
45713W        W17242  29.969  30.577  13.539
45714W        W17243  34.414  22.173  11.044
45715W        W17244  44.609  33.909  14.635
45716W        W17245  27.155   8.830  12.002
45717W        W17246  26.987  23.162   0.784
45718W        W17247  43.300  31.139   1.768
45719W        W17248  42.911  27.080   4.986
45720W        W17249  39.458   3.904   0.326
45721W        W17250  26.915  27.669  11.697
45722W        W17251   7.118  42.469  12.921
45723W        W17252  30.668  30.494   4.340
45724W        W17253  12.070  31.062   4.569
45725W        W17254  17.647  18.876   4.580
45726W        W17255  15.208  33.943   3.556
45727W        W17256  26.043   5.941  13.562
45728W        W17257  33.041  28.402   1.764
45729W        W17258  44.763   4.758   1.902
45730W        W17259  32.016   4.215  11.214
45731W        W17260  20.060  10.152  12.088
45732W        W17261  41.866   3.890  11.917
45733W        W17262  25.023   2.861   0.392
45734W        W17263  39.752  23.832  12.054
45735W        W17264  22.513   6.524   0.824
45736W        W17265  18.217  36.533  14.811
45737W        W17266  38.104   7.957   4.068
45738W        W17267  21.707  17.837   2.182
45739W        W17268   2.826   1.704  13.895
45740W        W17269  34.018  27.702   5.098
45741W        W17270  33.923   0.879   1.330
45742W        W17271  43.268  13.130   3.296
45743W        W17272  38.121  44.527   3.329
45744W        W17273  32.393  32.932   3.249
45745W        W17274  42.369  23.321  11.506
45746W        W17275  26.744   9.101  11.117
45747W        W17276  28.613  36.299   4.473
45748W        W17277  18.517   3.448   4.072
45749W        W17278   1.076  34.054   2.079
45750W        W17279  31.036  33.896  10.568
45751W        W17280  12.791  25.808   1.352
45752W        W17281  17.249  43.285   2.215
45753W        W17282  25.262  38.812   3.284
45754W        W17283  18.462  37.449   3.653
45755W        W17284  31.453   8.695  11.966
45756W        W17285  20.380  36.813   4.073
45757W        W17286  39.234   4.094   0.817
45758W        W17287  37.976  34.939  14.537
45759W        W17288   1.842  19.482  14.299
45760W        W17289   8.010  38.604   0.938
45761W        W17290  35.286  22.708  11.220
45762W        W17291  17.697   6.275  11.654
45763W        W17292  21.122  32.185  13.365
45764W        W17293   5.981  27.190  10.957
45765W        W17294  23.897  30.966   3.707
45766W        W17295  38.975  18.121   3.826
45767W        W17296  36.177  14.262   1.050
45768W        W17297  31.513  10.304  12.317
45769W        W17298  14.617  43.853   1.491
45770W        W17299  16.506  44.956  11.493
45771W        W17300  40.310  26.105   1.248
45772W        W17301  36.396  21.747   4.924
45773W        W17302   1.258  11.876   2.899
45774W        W17303  15.663   0.245   4.864
45775W        W17304   7.888  29.039   2.800
45776W        W17305  34.762  41.807   3.266
45777W        W17306  19.543  38.393   3.807
45778W        W17307  35.939   5.351   2.479
45779W        W17308   1.722  16.604   2.305
45780W        W17309   2.781  18.655   2.667
45781W        W17310  27.386  32.440  10.634
45782W        W17311  35.490  20.690  14.845
45783W        W17312  24.145   7.996  14.388
45784W        W17313  31.967  23.790   5.073
45785W        W17314  30.696  22.124   1.276
45786W        W17315  25.174  36.437   1.525
45787W        W17316  23.151   2.798   3.443
45788W        W17317  26.569   3.369   3.992
45789W        W17318   3.596  35.932  14.805
45790W        W17319  40.012  39.649   4.656
45791W        W17320   5.642  35.963  14.623
45792W        W17321  26.794  14.892  10.741
45793W        W17322  31.112  23.270  12.488
45794W        W17323  18.103  32.275   0.387
45795W        W17324  41.500  31.628  14.878
45796W        W17325   4.285  26.114   3.700
45797W        W17326  27.415  17.099   2.832
45798W        W17327   1.853  29.210   2.325
45799W        W17328  15.216  27.440   4.789
45800W        W17329  41.046  31.230  14.038
45801W        W17330  11.880  18.245   3.915
45802W        W17331  38.992  41.427  14.554
45803W        W17332  26.612  44.565  11.521
45804W        W17333  21.899   0.329  11.080
45805W        W17334  15.683  15.764   3.709
45806W        W17335  21.135   8.427  13.473
45807W        W17336   1.994  29.733   4.052
45808W        W17337  32.965  37.299   1.874
45809W        W17338  21.614  15.243   3.815
45810W        W17339  23.794  28.514  14.503
45811W        W17340   1.876  17.228  11.401
45812W        W17341  43.740  27.603  13.415
45813W        W17342  23.687  26.942   0.264
45814W        W17343  43.530  36.120  12.389
45815W        W17344   8.792  40.407  14.042
45816W        W17345   0.052  29.633  11.903
45817W        W17346   7.602  20.553  14.857
45818W        W17347  16.113  13.218  10.671
45819W        W17348   0.408   5.431  10.707
45820W        W17349  16.859  11.675   2.777
45821W        W17350  39.042  16.036  13.514
45822W        W17351  17.655  41.793  12.937
45823W        W17352  37.061  16.610  12.947
45824W        W17353  19.330  14.305  12.958
45825W        W17354   9.371   2.866  14.828
45826W        W17355  17.978  13.221  14.461
45827W        W17356  16.373  32.084   3.012
45828W        W17357  40.331  37.059  10.824
45829W        W17358   0.902  25.212  10.684
45830W        W17359  30.433  20.643   4.245
45831W        W17360  42.638  10.380  13.369
45832W        W17361   7.981   5.371  14.471
45833W        W17362  25.779  27.199   3.326
45834W        W17363  27.669   5.647  11.927
45835W        W17364   1.965  37.969   3.225
45836W        W17365  32.135   8.014   3.142
45837W        W17366   9.844  41.729  13.833
45838W        W17367   1.634  23.758   2.280
45839W        W17368  15.315  44.826   3.305
45840W        W17369  43.291  44.771  11.227
45841W        W17370  12.725  16.602  12.997
45842W        W17371  12.503  39.007   4.866
45843W        W17372  15.879   2.233  10.584
45844W        W17373  39.868  12.152   2.796
45845W        W17374   4.349  18.255  14.746
45846W        W17375  16.747  42.790   0.388
45847W        W17376  37.686  35.408   0.304
45848W        W17377  13.711  36.353   4.263
45849W        W17378  32.366  42.610  13.432
45850W        W17379  27.086   6.763   4.865
45851W        W17380  43.303  41.943  13.917
45852W        W17381  23.519   6.768   4.546
45853W        W17382  17.759  26.582  10.491
45854W        W17383  12.388  17.569   4.199
45855W        W17384  29.703  32.878  11.360
45856W        W17385  24.012  13.709  14.214
45857W        W17386  43.466  40.882   2.108
45858W        W17387  42.402  28.199   3.334
45859W        W17388   0.751  40.167   3.525
45860W        W17389  14.226   2.575   3.176
45861W        W17390  37.054  43.846  14.291
45862W        W17391   5.442  39.690  14.327
45863W        W17392  20.345   2.809  10.752
45864W        W17393   8.625  15.393   2.762
45865W        W17394  34.371  16.547  11.842
45866W        W17395  11.313  29.117  13.718
45867W        W17396  30.427  11.056  14.503
45868W        W17397  16.549  15.757   0.004
45869W        W17398  43.528  38.609  10.986
45870W        W17399  41.667  23.745   3.965
45871W        W17400  42.694  16.719   3.481
45872W        W17401  18.771  43.536   1.681
45873W        W17402  16.218  22.067  11.194
45874W        W17403   8.726  15.357   1.006
45875W        W17404   3.782  28.582  14.699
45876W        W17405  18.789  17.130  13.159
45877W        W17406  29.595  35.334  13.419
45878W        W17407   8.173   7.895  12.004
45879W        W17408  25.122  35.497   1.027
45880W        W17409  31.504   2.954  10.850
45881W        W17410   4.775   1.541  12.481
45882W        W17411  22.194  38.314  14.886
45883W        W17412  12.213  36.154  14.824
45884W        W17413  44.291  21.075  13.110
45885W        W17414   6.808   9.789  11.714
45886W        W17415  37.067  33.117  13.422
45887W        W17416  26.588  42.337  10.730
45888W        W17417  19.748  27.889   0.945
45889W        W17418  19.905   8.912   2.447
45890W        W17419  14.057  43.547   0.707
45891W        W17420  10.561   3.208  14.468
45892W        W17421  33.119  19.295  13.274
45893W        W17422  32.180  26.703  12.525
45894W        W17423  12.636   9.374   2.785
45895W        W17424   0.249  14.190  13.977
45896W        W17425  39.906  26.159   4.576
45897W        W17426   1.200  28.910   1.911
45898W        W17427  26.442  13.555   0.469
45899W        W17428   0.807  14.875  12.535
45900W        W17429  43.426  34.401  14.394
45901W        W17430  35.790   6.409   4.500
45902W        W17431  31.622  30.096   0.401
45903W        W17432   1.791  15.881   4.506
45904W        W17433  37.100  13.758  14.951
45905W        W17434  32.018  39.489   3.698
45906W        W17435  40.992   4.782   1.336
45907W        W17436  43.145  17.739  14.454
45908W        W17437   0.518  30.781   3.630
45909W        W17438   1.463  31.666   4.810
45910W        W17439  22.421  36.920   3.670
45911W        W17440   3.177  38.791  10.728
45912W        W17441  42.320  41.859  13.870
45913W        W17442  40.085  24.095  10.741
45914W        W17443  18.586  11.776  14.473
45915W        W17444  31.705   4.149  14.798
45916W        W17445  27.561  21.177   4.736
45917W        W17446  11.359  32.077   3.995
45918W        W17447   4.624   3.386   0.131
45919W        W17448  42.865  43.078   0.819
45920W        W17449   8.328  39.353   0.523
45921W        W17450  20.062  14.710  13.952
45922W        W17451  27.671  17.563  14.019
45923W        W17452  37.771  14.462   0.284
45924W        W17453  11.354  10.694   3.754
45925W        W17454  18.269  13.082  14.865
45926W        W17455  13.872  41.632  12.932
45927W        W17456  26.956   2.206  14.488
45928W        W17457   9.087  38.891  12.974
45929W        W17458  19.657  23.498  14.519
45930W        W17459  22.790  36.925  11.592
45931W        W17460  24.155  42.379  14.058
45932W        W17461  21.615  38.236   4.845
45933W        W17462  34.504  19.036   1.370
45934W        W17463  13.135   8.111   4.270
45935W        W17464   8.719  37.644  14.777
45936W        W17465  44.391  38.007  14.287
45937W        W17466   7.641  12.218  12.081
45938W        W17467  24.509   3.423  13.366
45939W        W17468   1.790  35.616   2.308
45940W        W17469  20.190   9.186  14.650
45941W        W17470  37.446  43.265   2.297
45942W        W17471  14.721  13.875  12.769
45943W        W17472  33.521  44.002  13.173
45944W        W17473  33.170  22.119   2.323
45945W        W17474  21.197   4.160  11.038
45946W        W17475  11.222   2.262  11.556
45947W        W17476  29.547  37.129  14.743
45948W        W17477  21.111  22.571   3.849
45949W        W17478   2.414  37.830   0.309
45950W        W17479  10.226   3.588   9.955
45951W        W17480  22.764  19.420  14.422
45952W        W17481  10.874  21.975  13.532
45953W        W17482  21.842  39.882  11.541
45954W        W17483  37.834   7.095   3.200
45955W        W17484   2.447  19.141   4.778
45956W        W17485  23.031  37.763  12.868
45957W        W17486  31.109  21.314  12.495
45958W        W17487  23.742  33.790   0.811
45959W        W17488  39.330  33.512  12.706
45960W        W17489  29.516  32.017   5.444
45961W        W17490  35.621   1.820   0.889
45962W        W17491  14.339  33.536   0.502
45963W        W17492  28.396  16.557   4.472
45964W        W17493   6.766   3.741  12.413
45965W        W17494  38.386  20.951   1.352
45966W        W17495   5.473  25.956   4.409
45967W        W17496  24.904  28.929  10.635
45968W        W17497  24.068   4.551  11.625
45969W        W17498  25.982  25.991  12.154
45970W        W17499  29.129   5.842   0.339
45971W        W17500   8.405   9.712  12.575
45972W        W17501   0.297  36.878  10.648
45973W        W17502  30.446  10.606   4.152
45974W        W17503  21.468  13.229   1.448
45975W        W17504   6.771  37.600   1.284
45976W        W17505  42.338  23.140  10.620
45977W        W17506  11.415   2.327  12.962
45978W        W17507  34.674  27.613  14.349
45979W        W17508  39.002  42.217  11.634
45980W        W17509  28.316  23.205  12.190
45981W        W17510  11.463  38.755  11.505
45982W        W17511  39.773  36.059  11.698
45983W        W17512  31.902  27.152  12.663
45984W        W17513  23.272  33.362  11.933
45985W        W17514  18.219  20.168  13.713
45986W        W17515  32.902  22.165   4.157
45987W        W17516  25.457  25.115   2.839
45988W        W17517  24.033  11.785  13.423
45989W        W17518  26.558  27.217  12.077
45990W        W17519   9.890   0.493   0.382
45991W        W17520  16.042  42.413   1.427
45992W        W17521  40.477  19.475   1.941
45993W        W17522  14.349   7.156  14.823
45994W        W17523  25.964  17.913   3.796
45995W        W17524  25.187  26.653   4.999
45996W        W17525  13.055  27.956   4.166
45997W        W17526  22.367  35.056  13.622
45998W        W17527  43.831  11.674  12.996
45999W        W17528  43.890  41.531   2.714
46000W        W17529  27.370   9.926   2.669
46001W        W17530  35.771  34.444   2.682
46002W        W17531   9.944  40.518  13.175
46003W        W17532   5.194   7.255  14.403
46004W        W17533  10.599   2.649   0.197
46005W        W17534  35.334  24.025  11.385
46006W        W17535  35.920  40.716   1.829
46007W        W17536  27.972  25.069  10.879
46008W        W17537  29.701  35.983  11.990
46009W        W17538   4.784  20.314   3.804
46010W        W17539  27.086  21.133   1.928
46011W        W17540   7.559  31.899  12.941
46012W        W17541  38.252  12.461   1.786
46013W        W17542  25.980   4.917   0.949
46014W        W17543  33.675  34.658   2.185
46015W        W17544  35.419  19.561  14.823
46016W        W17545  15.919  11.291   1.844
46017W        W17546   3.892  15.609   4.609
46018W        W17547  15.598   3.203  12.907
46019W        W17548   1.301  14.794  12.456
46020W        W17549  35.025  17.769   4.399
46021W        W17550  28.718  32.482  13.491
46022W        W17551  12.536  28.136   0.426
46023W        W17552  12.747   3.381   0.341
46024W        W17553  35.995   2.708   0.986
46025W        W17554  38.533  39.653  10.856
46026W        W17555  12.078  40.774  14.336
46027W        W17556  12.694  18.227  12.662
46028W        W17557   5.700   4.200   2.749
46029W        W17558  26.996  25.587   4.778
46030W        W17559  25.754  33.816   2.277
46031W        W17560  25.998   7.929   4.278
46032W        W17561  13.653  27.566   0.975
46033W        W17562  31.395  11.750  10.700
46034W        W17563  35.991  12.353   3.137
46035W        W17564  32.028  19.539   3.143
46036W        W17565  43.908  29.386  12.848
46037W        W17566  31.547   7.865   4.418
46038W        W17567   7.985  13.195  10.519
46039W        W17568  29.785  24.644  12.551
46040W        W17569  12.006  16.960  12.494
46041W        W17570  19.640   2.052  12.104
46042W        W17571   2.312  26.590   4.428
46043W        W17572  42.524  28.196   2.347
46044W        W17573  28.456   3.357   4.275
46045W        W17574  21.180  32.858  13.041
46046W        W17575  11.248  11.844   1.048
46047W        W17576  31.410  32.971  14.759
46048W        W17577  12.228  18.444  12.596
46049W        W17578  36.499  29.208   3.191
46050W        W17579   6.413  14.885  13.430
46051W        W17580  44.855   9.681   2.654
46052W        W17581  18.641  36.362   4.605
46053W        W17582  16.597   0.698   4.826
46054W        W17583   7.893  10.894   0.045
46055W        W17584  44.411  39.995  12.088
46056W        W17585   8.573  33.159  14.658
46057W        W17586  10.441  14.679  12.867
46058W        W17587  10.773  32.400   4.253
46059W        W17588  39.851   9.176   3.315
46060W        W17589  21.505  38.943  14.903
46061W        W17590  34.432  44.916   0.831
46062W        W17591  16.437  30.084   4.881
46063W        W17592   2.649  42.736  13.351
46064W        W17593  33.865   2.555  11.111
46065W        W17594  34.540  44.449   2.710
46066W        W17595   2.051   9.893  11.770
46067W        W17596   3.203  41.352   4.499
46068W        W17597  29.012  24.563   4.176
46069W        W17598   8.205  34.095  12.007
46070W        W17599  16.250  34.591  13.908
46071W        W17600  13.719  21.503   2.250
46072W        W17601  44.494   3.846   4.392
46073W        W17602  35.726  10.320  13.426
46074W        W17603  19.332  31.412   0.325
46075W        W17604   1.553  42.723  12.481
46076W        W17605  29.130   3.371   0.222
46077W        W17606  30.289   7.522   5.069
46078W        W17607  12.346   8.355   0.731
46079W        W17608   0.513  12.535   3.143
46080W        W17609  29.466   4.237   3.285
46081W        W17610  28.750  11.829   2.589
46082W        W17611  17.316  33.693   0.789
46083W        W17612  21.200   1.037   1.293
46084W        W17613  33.620   8.370  13.870
46085W        W17614  32.369  16.801  12.489
46086W        W17615  13.321   2.554   3.408
46087W        W17616  10.818  10.158   3.319
46088W        W17617   7.628  22.846   4.410
46089W        W17618  25.708   8.193   0.949
46090W        W17619  23.176   5.210  10.734
46091W        W17620  21.150  12.340   2.728
46092W        W17621  23.262  28.332   4.171
46093W        W17622  19.490  25.706  11.941
46094W        W17623   4.495  26.013  11.664
46095W        W17624  34.032  26.927   4.636
46096W        W17625  17.048   6.789   3.244
46097W        W17626   5.529  28.596   3.874
46098W        W17627  31.424  26.078  11.491
46099W        W17628  32.715  12.443  14.536
46100W        W17629   2.859  20.736   3.600
46101W        W17630  31.154   9.443   3.195
46102W        W17631  11.881  36.591  14.852
46103W        W17632  27.167  44.742  14.247
46104W        W17633  35.468  27.961   1.912
46105W        W17634  31.464  41.490  11.495
46106W        W17635  14.714  40.440   4.048
46107W        W17636   1.432   1.804  12.581
46108W        W17637  16.906  25.208   0.653
46109W        W17638  42.362  30.689   0.557
46110W        W17639  25.209   3.389   4.969
46111W        W17640  29.974   8.269  12.261
46112W        W17641  38.342  28.847   4.161
46113W        W17642  20.159  24.946  14.494
46114W        W17643  18.321   4.406   0.751
46115W        W17644  32.831  21.625   0.142
46116W        W17645  23.068   7.328  10.571
46117W        W17646  23.616  40.431  13.738
46118W        W17647  37.957  17.998  10.749
46119W        W17648  21.327   7.294   2.613
46120W        W17649  31.395  34.935   4.850
46121W        W17650  17.632  37.520  12.006
46122W        W17651  41.408  26.091  13.855
46123W        W17652   4.803  35.125  14.531
46124W        W17653  44.980  14.647  13.936
46125W        W17654  17.116   6.890  12.455
46126W        W17655  28.148   1.278   2.344
46127W        W17656  11.342  21.597   3.859
46128W        W17657  28.679  39.754   1.104
46129W        W17658  16.202   2.975   1.315
46130W        W17659  14.298  13.373  11.540
46131W        W17660   5.711  41.826  10.745
46132W        W17661  44.778  30.447   4.053
46133W        W17662  13.691   7.319  13.963
46134W        W17663  16.051  30.660   3.698
46135W        W17664  31.012   3.580   1.293
46136W        W17665   9.296  24.136   1.279
46137W        W17666  37.473  27.019   2.447
46138W        W17667  29.420  31.698  12.545
46139W        W17668  39.424  10.630   1.258
46140W        W17669   3.992  39.450   2.754
46141W        W17670   1.820  13.987   1.473
46142W        W17671   5.569  29.536   3.063
46143W        W17672   7.793  10.963   1.498
46144W        W17673  22.609  30.491  13.245
46145W        W17674  12.774   7.517   1.698
46146W        W17675  23.475  13.820   2.057
46147W        W17676  39.044  31.367  13.468
46148W        W17677  10.842  27.400   2.661
46149W        W17678  17.298  19.980  11.133
46150W        W17679   1.658  18.748  14.926
46151W        W17680  11.384  11.508  10.580
46152W        W17681  17.223  22.199   1.633
46153W        W17682  11.578  39.577  13.078
46154W        W17683  24.097  15.003  12.639
46155W        W17684  12.350   4.167  12.883
46156W        W17685  19.760  43.795  12.294
46157W        W17686   8.936  34.482  12.603
46158W        W17687   8.300   0.748   2.174
46159W        W17688  34.452   5.782   1.803
46160W        W17689  10.820   2.949   2.641
46161W        W17690  43.864   8.253   4.683
46162W        W17691  17.567   2.676  14.919
46163W        W17692  15.293  33.463  11.600
46164W        W17693   8.851  23.980  11.608
46165W        W17694   9.516  39.805  14.057
46166W        W17695  32.018  19.918  12.922
46167W        W17696  44.720  21.295  12.769
46168W        W17697  25.120   4.892   1.725
46169W        W17698  33.598  25.286  14.938
46170W        W17699  27.401  26.525   1.154
46171W        W17700  28.224   5.693  12.793
46172W        W17701   9.943  12.266  11.105
46173W        W17702  43.703   0.122   1.214
46174W        W17703  29.010  27.599  10.924
46175W        W17704   9.678  17.597   3.235
46176W        W17705  26.393  22.430  13.266
46177W        W17706  30.005   5.896  12.960
46178W        W17707   5.471  42.933  10.554
46179W        W17708  26.035  10.242   2.432
46180W        W17709  18.161  39.033  13.136
46181W        W17710   9.107  18.382  14.052
46182W        W17711  19.157  13.011  14.748
46183W        W17712  28.816  20.636   2.072
46184W        W17713  40.757  31.182  11.545
46185W        W17714  30.686   6.813  10.585
46186W        W17715  15.827  13.345  12.352
46187W        W17716   3.324  37.830   1.307
46188W        W17717  29.973   5.452  14.159
46189W        W17718  23.715   2.431   2.156
46190W        W17719  43.458  20.593   2.005
46191W        W17720  39.403  19.553   4.760
46192W        W17721  30.682  34.985   4.186
46193W        W17722  23.111  36.131   3.932
46194W        W17723  29.253  25.618   2.424
46195W        W17724  16.260  43.381  12.895
46196W        W17725  20.015   4.096  12.384
46197W        W17726  20.166  40.916   4.584
46198W        W17727   8.838  20.161   0.525
46199W        W17728  14.882  23.891  10.750
46200W        W17729   7.167  23.716   4.464
46201W        W17730  18.760   2.435   0.526
46202W        W17731  30.123   6.167   3.266
46203W        W17732  37.117  30.075  12.759
46204W        W17733  21.702  25.515   1.037
46205W        W17734   6.197  18.848  10.457
46206W        W17735  37.977  10.193   1.271
46207W        W17736  18.731  27.386   4.063
46208W        W17737   3.390   7.426   0.665
46209W        W17738  34.848   0.105  12.519
46210W        W17739  21.606  11.758   1.263
46211W        W17740   5.341  23.505  11.634
46212W        W17741  10.085   0.366   2.230
46213W        W17742  40.562  28.068   3.742
46214W        W17743  38.940  37.003   1.997
46215W        W17744  42.284  35.669  13.588
46216W        W17745  20.696  21.216  14.446
46217W        W17746  32.039  25.679  12.579
46218W        W17747  41.972  20.532  14.859
46219W        W17748  39.283  30.968  14.817
46220W        W17749  14.373  42.267   1.824
46221W        W17750  32.819  43.980   1.187
46222W        W17751   6.429  38.254  12.597
46223W        W17752  28.891  16.692  14.409
46224W        W17753  38.482  39.101   0.273
46225W        W17754  32.148   3.362   1.419
46226W        W17755  32.582   4.704  14.328
46227W        W17756  34.995  21.843  13.514
46228W        W17757   5.385   5.933  14.062
46229W        W17758  25.904  39.383  13.562
46230W        W17759  30.375  40.318   0.698
46231W        W17760  24.631  12.158  14.855
46232W        W17761  15.583  38.923   3.684
46233W        W17762  11.945  25.460   1.388
46234W        W17763  33.530  29.963   4.846
46235W        W17764  29.128   0.863   1.360
46236W        W17765  30.430  20.151   4.069
46237W        W17766  25.171   9.212  11.287
46238W        W17767   9.786  35.995  13.044
46239W        W17768   7.977  26.016  12.133
46240W        W17769   7.224  28.961  11.661
46241W        W17770  24.524  38.492  10.616
46242W        W17771  29.819  44.109   1.175
46243W        W17772  22.757  25.443   4.160
46244W        W17773  16.327  39.299   0.062
46245W        W17774  26.594  41.364   1.438
46246W        W17775  10.208  19.832   0.352
46247W        W17776  41.523  19.184   2.357
46248W        W17777  44.147  26.129  13.031
46249W        W17778  13.735  37.059   0.010
46250W        W17779  21.184  44.348  14.010
46251W        W17780   6.686  24.640  11.349
46252W        W17781  34.932  21.575  11.635
46253W        W17782  21.975  21.601   4.421
46254W        W17783  37.764  33.113   1.497
46255W        W17784  33.951  25.000   2.731
46256W        W17785  39.742  31.210  12.818
46257W        W17786  40.629  34.217  12.348
46258W        W17787  23.462   2.897   1.250
46259W        W17788  24.781   2.722  13.844
46260W        W17789  44.042  32.630  14.494
46261W        W17790  25.079  27.591   0.271
46262W        W17791   0.550  29.931  12.072
46263W        W17792  44.626  12.102   4.910
46264W        W17793  36.654  41.571  13.948
46265W        W17794  43.149  24.267  12.904
46266W        W17795  33.828   0.358  12.947
46267W        W17796  27.117  14.226  13.944
46268W        W17797  28.185  20.486  13.457
46269W        W17798  11.808   2.998  13.472
46270W        W17799   0.737  12.445   1.974
46271W        W17800   9.787  11.676  11.886
46272W        W17801  29.301  44.729   4.010
46273W        W17802  41.537  31.471   1.823
46274W        W17803  23.447   2.018   2.304
46275W        W17804  22.628  23.297   3.572
46276W        W17805   8.366  43.441   3.547
46277W        W17806  38.639  18.250  11.236
46278W        W17807  40.760  32.140   1.430
46279W        W17808   1.912   5.946   4.067
46280W        W17809  14.632  14.798   1.294
46281W        W17810   9.880  44.833   3.064
46282W        W17811  30.990  16.302  14.951
46283W        W17812  24.760  37.098  12.478
46284W        W17813   2.484  32.715  11.998
46285W        W17814  12.307  34.579   4.727
46286W        W17815  27.982  43.413  13.409
46287W        W17816  22.072  28.866   4.054
46288W        W17817  12.803  39.261  11.926
46289W        W17818  21.272  21.194   0.131
46290W        W17819  43.558  20.750   3.451
46291W        W17820   5.578  28.083   3.714
46292W        W17821  16.110   7.718   4.555
46293W        W17822  24.593  17.649   0.357
46294W        W17823   8.270  36.998   3.839
46295W        W17824  10.770  21.304  11.102
46296W        W17825  21.444  18.136  12.437
46297W        W17826  34.353  28.568   4.113
46298W        W17827  36.130  41.278   3.299
46299W        W17828  43.429  36.318   1.338
46300W        W17829  29.708  25.490   3.752
46301W        W17830  23.791  10.462   0.827
46302W        W17831   1.204   3.484   5.126
46303W        W17832   6.487  31.469   4.584
46304W        W17833  24.537   2.313   3.785
46305W        W17834   7.103   1.942   1.797
46306W        W17835  29.542  43.547  14.888
46307W        W17836   1.654  32.187  13.019
46308W        W17837  19.597  32.916   1.060
46309W        W17838  33.197  41.033  13.350
46310W        W17839  15.151  27.509  13.510
46311W        W17840   6.924  25.911   1.876
46312W        W17841  15.800  18.645  11.239
46313W        W17842   7.919  10.738   4.716
46314W        W17843  15.189   6.685  11.519
46315W        W17844   6.188   2.505  13.055
46316W        W17845  37.585  30.007  12.572
46317W        W17846  17.216  25.452  14.391
46318W        W17847   2.712   3.940  13.791
46319W        W17848  35.355   3.001   0.410
46320W        W17849  10.317  44.959   3.348
46321W        W17850   1.627  10.616   4.369
46322W        W17851   6.187   9.905  11.702
46323W        W17852  28.912  32.190   1.275
46324W        W17853   7.048  11.533   4.271
46325W        W17854  39.819  14.743  11.931
46326W        W17855   9.851  25.960   3.158
46327W        W17856   1.150   7.728  13.524
46328W        W17857  28.489  35.986  12.086
46329W        W17858  25.131  19.325  11.140
46330W        W17859  18.105  21.093  13.523
46331W        W17860  27.639   0.892   0.515
46332W        W17861   0.264   9.169   3.592
46333W        W17862  11.236  14.363   1.398
46334W        W17863  24.234  12.848  14.466
46335W        W17864  26.588  21.495  11.146
46336W        W17865  14.614   7.167   3.830
46337W        W17866  44.562  12.586  10.823
46338W        W17867  18.019  21.550  14.988
46339W        W17868  43.913  12.851   0.412
46340W        W17869  14.608  26.736   2.330
46341W        W17870  26.968  25.959  14.890
46342W        W17871   8.834  19.752   2.634
46343W        W17872  21.582   9.481  11.529
46344W        W17873  17.225  26.080   1.796
46345W        W17874  11.805  23.623  11.635
46346W        W17875   8.102  39.549  12.936
46347W        W17876   7.885  10.214  12.112
46348W        W17877  10.165  17.150   0.265
46349W        W17878   8.536  16.671  10.159
46350W        W17879  18.173  34.126   0.861
46351W        W17880  26.119  15.967   3.778
46352W        W17881  26.438  39.522   3.281
46353W        W17882  27.171   3.186  14.481
46354W        W17883   6.006  43.932   1.004
46355W        W17884   9.782  23.656  11.199
46356W        W17885  38.814  17.684   1.462
46357W        W17886  21.028  34.601   5.183
46358W        W17887  28.134  40.329  10.750
46359W        W17888  38.166  11.743   0.288
46360W        W17889  38.810  23.016  12.124
46361W        W17890  38.458  35.843   0.831
46362W        W17891  27.427  39.070   3.124
46363W        W17892   4.410  12.588   0.902
46364W        W17893  25.586  36.120  12.251
46365W        W17894  10.875  30.945  10.692
46366W        W17895  20.363  36.639   1.268
46367W        W17896  19.142   6.864  12.463
46368W        W17897  39.211  28.641   0.822
46369W        W17898   2.794  32.440  12.871
46370W        W17899  20.016   8.220  12.713
46371W        W17900  31.016  32.088   2.315
46372W        W17901  11.711   3.282   0.418
46373W        W17902  20.810  40.955   4.582
46374W        W17903  12.843  42.340  11.251
46375W        W17904  21.692  37.583  13.762
46376W        W17905  22.117  11.885   1.323
46377W        W17906   2.032   4.751   3.754
46378W        W17907  28.663  32.403   3.740
46379W        W17908  13.334   6.649   3.633
46380W        W17909  41.799  21.919  13.542
46381W        W17910  37.031   4.208  10.654
46382W        W17911  22.094  19.541   3.860
46383W        W17912  44.315  35.189   2.665
46384W        W17913   6.277  29.044   3.214
46385W        W17914  37.324   8.235  10.500
46386W        W17915   3.261  35.612   0.812
46387W        W17916  43.528  34.186   2.942
46388W        W17917  44.488   7.938   4.171
46389W        W17918  30.672  19.727  14.252
46390W        W17919   7.668  41.068   3.728
46391W        W17920   2.542  16.082   2.322
46392W        W17921   9.232  42.563   0.820
46393W        W17922   5.228  32.950  12.495
46394W        W17923  33.455   6.408   1.381
46395W        W17924  24.530  32.350  11.085
46396W        W17925   2.424  41.696  13.465
46397W        W17926   4.745  38.196  14.301
46398W        W17927  35.108  30.935  14.983
46399W        W17928  25.488   8.995  13.397
46400W        W17929  18.366  18.727  13.567
46401W        W17930  13.409  21.714  11.698
46402W        W17931  27.659  38.854   1.266
46403W        W17932  35.427  19.490  13.354
46404W        W17933  14.827  14.695  13.385
46405W        W17934  43.439  34.226   4.400
46406W        W17935   3.217  20.971  11.658
46407W        W17936   2.104  30.091   0.764
46408W        W17937  21.932  26.175  13.979
46409W        W17938  10.587  28.980  14.803
46410W        W17939  34.417  34.946  10.417
46411W        W17940  40.426  42.711   0.850
46412W        W17941  19.339  33.395  10.929
46413W        W17942   7.665  22.351  14.490
46414W        W17943  14.830  11.671   3.635
46415W        W17944  41.944   9.311   4.567
46416W        W17945  13.730  12.730  11.427
46417W        W17946  12.841  27.534   4.356
46418W        W17947  30.451   2.006   1.871
46419W        W17948   9.966  25.640  13.650
46420W        W17949  10.278  37.910  10.623
46421W        W17950  28.627  16.776   2.691
46422W        W17951  16.024  29.671   2.644
46423W        W17952   7.940  41.878  10.687
46424W        W17953  19.066  11.391  12.913
46425W        W17954  42.367   2.334  11.405
46426W        W17955   3.524   1.748  11.767
46427W        W17956  13.172   7.696   4.723
46428W        W17957  11.209  11.156   4.847
46429W        W17958  39.857  40.936  12.633
46430W        W17959  21.323  37.336   9.803
46431W        W17960  35.730  14.166   3.231
46432W        W17961  31.144   2.760  12.992
46433W        W17962  36.545  19.769  11.396
46434W        W17963   8.800  10.364   4.664
46435W        W17964   9.610   2.793   0.315
46436W        W17965  42.706   9.253   1.835
46437W        W17966  41.394   8.666   1.798
46438W        W17967  26.024  42.812  14.904
46439W        W17968  17.740  33.329  11.703
46440W        W17969  14.331   4.681  14.946
46441W        W17970  40.041  13.162  14.913
46442W        W17971  38.650  23.062   1.467
46443W        W17972  42.346   3.355  13.966
46444W        W17973  22.741  41.712   0.323
46445W        W17974  42.772  38.504  10.770
46446W        W17975   6.805  10.299  11.025
46447W        W17976  19.909   1.775  12.522
46448W        W17977  27.624  30.214  14.409
46449W        W17978  39.512  37.863  14.512
46450W        W17979   1.719  36.610  14.806
46451W        W17980  42.333  17.317  11.608
46452W        W17981  43.811  12.408  12.609
46453W        W17982   5.498  21.203  12.089
46454W        W17983  17.741  25.308  14.357
46455W        W17984  43.816  12.678   0.901
46456W        W17985  29.411  39.816  11.950
46457W        W17986  10.114  28.808   1.978
46458W        W17987  33.918  39.988   2.744
46459W        W17988  24.687  32.619   2.217
46460W        W17989  15.080  25.212   1.305
46461W        W17990  13.807  11.355  12.933
46462W        W17991   7.164   2.367  12.671
46463W        W17992  42.092   4.791  12.282
46464W        W17993  12.204  42.280   2.756
46465W        W17994   0.010  26.616  13.842
46466W        W17995  18.316  19.435   1.361
46467W        W17996  16.689  12.322  12.410
46468W        W17997  25.629  40.697  10.698
46469W        W17998  23.903  13.028   2.726
46470W        W17999  41.338  27.322   0.700
46471W        W18000  37.067  26.747   1.525
46472W        W18001  24.245   0.267   1.458
46473W        W18002  30.315  19.164   4.930
46474W        W18003  22.699  30.679  12.795
46475W        W18004  11.333  41.603  11.311
46476W        W18005  24.753   9.356   3.766
46477W        W18006   2.962  27.498  12.303
46478W        W18007  31.510  44.221  13.040
46479W        W18008  15.296  16.080  13.277
46480W        W18009   2.606  40.379   4.760
46481W        W18010  41.999  39.431  11.923
46482W        W18011  21.139  28.126  11.271
46483W        W18012  34.607  27.989   1.374
46484W        W18013  29.416  43.355   0.906
46485W        W18014   5.820  21.853  11.845
46486W        W18015  16.207  21.771  13.849
46487W        W18016  21.295  30.038  14.194
46488W        W18017  20.039   7.276  10.837
46489W        W18018  42.564   7.809   3.715
46490W        W18019  41.383  22.283   0.372
46491W        W18020   0.016   3.622   4.130
46492W        W18021  22.649  35.921   1.312
46493W        W18022   8.642   2.477  12.502
46494W        W18023  40.700  24.951   0.690
46495W        W18024  32.950  38.548   0.753
46496W        W18025  31.427  29.642  14.916
46497W        W18026  43.872  12.920   1.397
46498W        W18027  11.793  20.953  14.573
46499W        W18028  21.493  34.985   2.330
46500W        W18029  24.084  43.051   1.836
46501W        W18030  14.431   3.867  11.444
46502W        W18031  43.924   7.886  13.790
46503W        W18032  28.974  39.071  12.336
46504W        W18033  18.755  10.678  10.775
46505W        W18034   8.131   6.689  10.597
46506W        W18035  38.358  21.464   1.284
46507W        W18036  29.708   3.403  13.512
46508W        W18037  41.960  10.970   3.676
46509W        W18038  39.477  26.116   1.776
46510W        W18039   2.266  23.818   1.273
46511W        W18040  14.309  34.470   4.861
46512W        W18041  14.184  21.470  11.236
46513W        W18042  20.607   8.323  13.533
46514W        W18043   3.573  33.074  12.912
46515W        W18044  39.049  39.152   1.923
46516W        W18045  16.249  33.582   4.792
46517W        W18046  36.859  30.245   3.963
46518W        W18047  27.372  39.555  11.936
46519W        W18048  41.708  32.008   1.726
46520W        W18049  10.439  23.835  12.915
46521W        W18050  36.426   5.205   2.279
46522W        W18051  39.064  26.620   2.986
46523W        W18052  36.524  23.099   0.743
46524W        W18053  11.949  34.822   1.496
46525W        W18054   9.441  14.120   3.265
46526W        W18055  39.946  37.786   3.598
46527W        W18056   9.472  40.793   1.881
46528W        W18057  42.822   7.410   4.576
46529W        W18058   0.578  35.077  14.889
46530W        W18059  32.127  18.134  14.440
46531W        W18060  30.533  30.983   4.092
46532W        W18061   1.001  31.828  11.525
46533W        W18062  25.239  34.430  10.522
46534W        W18063  19.203  38.302   3.005
46535W        W18064  36.001  29.035   3.638
46536W        W18065  13.692  43.454  13.825
46537W        W18066  20.179  42.853  12.143
46538W        W18067   0.019  19.396   0.406
46539W        W18068   9.928  10.247   4.193
46540W        W18069  13.732   4.315   3.730
46541W        W18070  41.858  24.530   4.356
46542W        W18071  32.666  39.356   4.225
46543W        W18072  12.818  17.566  14.075
46544W        W18073  28.097  37.902   3.355
46545W        W18074  32.322  28.605  11.389
46546W        W18075  34.784  29.626  10.720
46547W        W18076  29.166  22.112   3.695
46548W        W18077  36.730  32.811  14.263
46549W        W18078  43.296  40.934  11.440
46550W        W18079  24.879  25.170  11.978
46551W        W18080   3.568  16.771   2.719
46552W        W18081  10.189  36.597   4.202
46553W        W18082   6.700  22.302  14.132
46554W        W18083  19.017   5.565   4.147
46555W        W18084  39.463  36.945  12.040
46556W        W18085  13.099  26.679  13.331
46557W        W18086  23.907  20.265   0.138
46558W        W18087  39.576  23.444  10.731
46559W        W18088   6.476  37.445   1.751
46560W        W18089  12.235   7.028   2.807
46561W        W18090  29.126  43.909   4.230
46562W        W18091  30.318  42.031   1.435
46563W        W18092  36.288  14.192   2.345
46564W        W18093  41.269  29.680   1.024
46565W        W18094  11.937  44.891  14.925
46566W        W18095  32.089   4.738   5.159
46567W        W18096  36.469  31.892  11.032
46568W        W18097  40.883  28.571   1.840
46569W        W18098  35.122  38.773   1.130
46570W        W18099   3.278  24.025   1.847
46571W        W18100  15.322  22.996  10.614
46572W        W18101  26.064  19.721  10.598
46573W        W18102  33.516  34.074  14.733
46574W        W18103  12.767   4.232  13.864
46575W        W18104  10.648   4.222   4.120
46576W        W18105  42.892  24.475  12.073
46577W        W18106   7.514  12.067   3.734
46578W        W18107  30.962  24.536   0.103
46579W        W18108  24.090  28.429   1.444
46580W        W18109   2.005  36.172  10.697
46581W        W18110  43.927  29.628  12.395
46582W        W18111  30.164   7.399  10.809
46583W        W18112  14.255  34.023   0.280
46584W        W18113  40.758  17.617   2.490
46585W        W18114  40.881  20.650  12.383
46586W        W18115  26.458  18.567   4.432
46587W        W18116  21.978  18.245   3.827
46588W        W18117   5.416  38.460   1.803
46589W        W18118  19.214  10.579   1.310
46590W        W18119  40.438   9.681  14.017
46591W        W18120   0.766  31.989   3.197
46592W        W18121   7.230  10.861   1.151
46593W        W18122   0.101  19.442  12.559
46594W        W18123  32.379  20.278  12.966
46595W        W18124  42.758  33.877  12.412
46596W        W18125  34.149  37.096   1.432
46597W        W18126  13.872  12.701   3.846
46598W        W18127  10.832  40.204  12.874
46599W        W18128  27.530  32.146   2.420
46600W        W18129  28.042  23.164  10.243
46601W        W18130  35.874  23.684  12.612
46602W        W18131   4.341  14.478   4.242
46603W        W18132  28.836  24.092  14.764
46604W        W18133   8.373   7.749  13.023
46605W        W18134  19.770  26.945   0.279
46606W        W18135  39.981  12.466   0.946
46607W        W18136  11.379   5.820   0.972
46608W        W18137  44.073  44.590  11.002
46609W        W18138  34.084   3.824  14.877
46610W        W18139  14.859  40.948  13.945
46611W        W18140  27.624  40.410   4.231
46612W        W18141  23.648   6.626   1.905
46613W        W18142   1.728  33.092   4.189
46614W        W18143   3.659   2.807   4.180
46615W        W18144  29.430  39.160  12.007
46616W        W18145  39.519  34.905  11.366
46617W        W18146  33.096   8.730   4.081
46618W        W18147  16.590  10.879   0.433
46619W        W18148   9.460  42.292   0.452
46620W        W18149  25.735  40.399   3.787
46621W        W18150   8.104   4.872   0.433
46622W        W18151  11.368  28.502  14.482
46623W        W18152  33.288  34.110   3.365
46624W        W18153   4.369  41.491   4.150
46625W        W18154  32.005  41.403   3.362
46626W        W18155  41.521  21.126   0.867
46627W        W18156  36.168  23.262   2.375
46628W        W18157  43.779  16.336   1.731
46629W        W18158  29.019  12.782  11.896
46630W        W18159  36.549  37.372   0.900
46631W        W18160   9.183  42.786  14.493
46632W        W18161  24.675  34.610   0.492
46633W        W18162   0.205  35.608  12.106
46634W        W18163  12.014  30.321  11.728
46635W        W18164  43.737  16.733   0.505
46636W        W18165  44.725  21.611  11.860
46637W        W18166   6.747  24.996  10.924
46638W        W18167  40.812  11.050  13.929
46639W        W18168  29.472  26.279   3.139
46640W        W18169  33.612  33.434  12.562
46641W        W18170  33.059   2.709  10.693
46642W        W18171  28.903  44.906  11.603
46643W        W18172  15.117  25.923   4.885
46644W        W18173  14.792  10.494   3.228
46645W        W18174  13.694  31.002   1.059
46646W        W18175  14.383  14.886   4.187
46647W        W18176  17.083  39.415  10.445
46648W        W18177  42.525  13.727  12.232
46649W        W18178  28.433   0.119   0.912
46650W        W18179  39.486  23.490   0.324
46651W        W18180   3.436  12.696   2.692
46652W        W18181  29.374  25.422   4.164
46653W        W18182  33.892  14.567   4.286
46654W        W18183  36.062   2.936  10.998
46655W        W18184  33.600  31.552  11.242
46656W        W18185   0.169  40.366  13.672
46657W        W18186  16.627  17.515   4.039
46658W        W18187  22.132  19.847   4.271
46659W        W18188  21.140  32.137   1.067
46660W        W18189  13.572  11.197   2.792
46661W        W18190  44.402  11.493  13.251
46662W        W18191  33.922  21.678   1.681
46663W        W18192   4.372  31.344   4.621
46664W        W18193  24.681  26.860   4.869
46665W        W18194  34.652  40.416  11.561
46666W        W18195  14.696  15.715  12.935
46667W        W18196   3.278  21.039   2.118
46668W        W18197   1.501  28.773   4.159
46669W        W18198  44.412  17.224  14.027
46670W        W18199  16.732  29.093  14.763
46671W        W18200  42.792  41.869  12.565
46672W        W18201   8.344  15.812   4.631
46673W        W18202  23.701  31.489   4.602
46674W        W18203   6.843  36.036  14.542
46675W        W18204  24.378   3.608   2.257
46676W        W18205  10.143   4.352  14.687
46677W        W18206  41.450  34.617  14.396
46678W        W18207   0.488  10.861  14.897
46679W        W18208   5.021  28.107  14.077
46680W        W18209  44.285  25.158  11.595
46681W        W18210  43.937  26.653  11.507
46682W        W18211  43.448   7.303  12.128
46683W        W18212  41.339  30.082   1.357
46684W        W18213   9.284  17.201  13.545
46685W        W18214  33.439  21.756   3.639
46686W        W18215  41.553   5.318   2.297
46687W        W18216  21.979  24.071  11.114
46688W        W18217  43.076  35.870  13.779
46689W        W18218  24.568  30.360  13.949
46690W        W18219   1.866  19.072  12.535
46691W        W18220  34.615  10.665  12.842
46692W        W18221  16.569  42.926  12.910
46693W        W18222  27.048  33.917  11.217
46694W        W18223  21.366  31.342  10.700
46695W        W18224   3.845  19.610  10.676
46696W        W18225   5.447   1.699  10.771
46697W        W18226   9.664  43.182   0.315
46698W        W18227  42.922  42.470   3.624
46699W        W18228  12.085   3.493  12.644
46700W        W18229  14.352  24.194   4.267
46701W        W18230   5.125  43.427  11.929
46702W        W18231  44.341  16.909  10.856
46703W        W18232  16.162  29.431   2.202
46704W        W18233   2.929   1.147  14.564
46705W        W18234   0.107  14.879   0.342
46706W        W18235  13.853  29.866   1.849
46707W        W18236  12.669  20.992  13.798
46708W        W18237  29.122  43.212   4.582
46709W        W18238   1.719  27.804   3.274
46710W        W18239  30.919  29.365  12.550
46711W        W18240   1.970  35.107  13.552
46712W        W18241  32.625  16.396   0.802
46713W        W18242  43.318  38.032   4.577
46714W        W18243   0.893  10.203   2.940
46715W        W18244  35.390  18.642  11.630
46716W        W18245  36.343  23.639  12.277
46717W        W18246  31.402  40.963   0.301
46718W        W18247  29.040  38.780  11.898
46719W        W18248  20.498   8.402  12.603
46720W        W18249  41.093  38.061  10.609
46721W        W18250  28.450  11.169  10.623
46722W        W18251  44.895  16.040  11.642
46723W        W18252   0.259  43.224   4.052
46724W        W18253  39.548  18.157   1.227
46725W        W18254  33.159  26.448   4.106
46726W        W18255  44.904  24.074  11.405
46727W        W18256  38.805   0.735  14.059
46728W        W18257  13.829  17.275  14.540
46729W        W18258  16.535  24.347   4.250
46730W        W18259   7.309  35.788  14.516
46731W        W18260   8.348  17.700  10.262
46732W        W18261  33.608   0.319   4.177
46733W        W18262   3.486  33.942   2.364
46734W        W18263  30.102  39.319   2.815
46735W        W18264  16.734  44.012  13.681
46736W        W18265  19.005  19.492  13.675
46737W        W18266   9.312  30.515  13.328
46738W        W18267  31.397  43.680  13.155
46739W        W18268  30.747  29.096   3.255
46740W        W18269  22.054  21.058   0.691
46741W        W18270  26.989  30.126  14.929
46742W        W18271  26.048  21.253  14.761
46743W        W18272  24.011  17.834   0.368
46744W        W18273  25.854  44.311  13.049
46745W        W18274  41.843  13.618   4.292
46746W        W18275  42.298   4.739   2.332
46747W        W18276  21.031   0.824   2.763
46748W        W18277  42.547  43.121   4.931
46749W        W18278  39.784   5.855  13.008
46750W        W18279   5.146  33.593   2.868
46751W        W18280  37.871   2.419  12.129
46752W        W18281   7.695  38.776   1.314
46753W        W18282   1.315  32.766  12.405
46754W        W18283  22.186  22.566   4.737
46755W        W18284  40.209   6.012  11.700
46756W        W18285  21.696  29.480   0.873
46757W        W18286   8.658  12.648  13.463
46758W        W18287  32.599  24.614   2.728
46759W        W18288  20.275  16.069  13.570
46760W        W18289  11.259  21.108  12.296
46761W        W18290  16.743  38.415   1.953
46762W        W18291  14.320  21.959  12.013
46763W        W18292   9.198  24.028  12.003
46764W        W18293  29.128   7.198  10.764
46765W        W18294  44.938  11.840  10.291
46766W        W18295  30.694  40.557  14.391
46767W        W18296  13.751  28.491   1.399
46768W        W18297  37.630  35.495  12.352
46769W        W18298  33.469  30.400   2.311
46770W        W18299  10.221   6.964  12.321
46771W        W18300  35.463  11.770   4.627
46772W        W18301  37.564   4.270   4.679
46773W        W18302   0.849   8.731   0.221
46774W        W18303  28.813   4.327   2.699
46775W        W18304  10.782  19.006  14.432
46776W        W18305  30.123  11.489  11.089
46777W        W18306   6.802  24.071   4.311
46778W        W18307  22.226   4.332  12.141
46779W        W18308  10.881   6.832  12.936
46780W        W18309   4.904   7.828   0.547
46781W        W18310  19.647   6.308   4.930
46782W        W18311  36.035  22.990   2.790
46783W        W18312  36.817  38.550  14.944
46784W        W18313  11.369   9.696  11.207
46785W        W18314  42.474   9.669   0.412
46786W        W18315   3.324  14.580  13.359
46787W        W18316  13.176  38.516   1.455
46788W        W18317  22.573  30.906  13.534
46789W        W18318   4.197  20.859   4.062
46790W        W18319  43.969   5.693  10.634
46791W        W18320  40.060  42.440  14.064
46792W        W18321  41.462  24.435  14.527
46793W        W18322   2.505   9.283   3.812
46794W        W18323  24.175  27.432   1.504
46795W        W18324  15.774  29.009  14.411
46796W        W18325  15.442  34.351   0.009
46797W        W18326  43.975  30.091   3.194
46798W        W18327  24.011   9.232   3.166
46799W        W18328  32.855   1.663   3.324
46800W        W18329   0.203  14.118  10.767
46801W        W18330  12.963  44.353  10.212
46802W        W18331  32.942  38.293   1.590
46803W        W18332  39.345   6.700   3.097
46804W        W18333  27.710   2.859   3.787
46805W        W18334  19.104  22.508   4.594
46806W        W18335  17.003  20.501  13.866
46807W        W18336  21.711  35.702   2.664
46808W        W18337  17.803  28.986   3.671
46809W        W18338  13.592  28.447   4.904
46810W        W18339  10.204  18.420   4.122
46811W        W18340  10.191  36.966  14.925
46812W        W18341   6.513  35.131   0.415
46813W        W18342  15.387   7.786   1.262
46814W        W18343  29.511  22.247  10.014
46815W        W18344  21.687  22.610   4.660
46816W        W18345  12.244  34.854   4.290
46817W        W18346  28.689  29.924   1.732
46818W        W18347  20.215  42.415   3.048
46819W        W18348  28.148  29.664  14.003
46820W        W18349  31.804   4.806   1.341
46821W        W18350   3.842   6.278   2.742
46822W        W18351  11.067   8.304   1.293
46823W        W18352  31.933   2.705  11.088
46824W        W18353  21.623   0.301   3.370
46825W        W18354   5.313  24.767  14.510
46826W        W18355  10.446  19.154  14.813
46827W        W18356  36.460  13.206  14.962
46828W        W18357  25.772  15.689  10.861
46829W        W18358  17.255  18.752   3.779
46830W        W18359   5.859  26.384  10.470
46831W        W18360  35.928  43.908   3.096
46832W        W18361  27.947  27.437   3.339
46833W        W18362  24.796  16.872   3.670
46834W        W18363  40.028  33.989  13.013
46835W        W18364  33.853  33.259   1.229
46836W        W18365  39.991   4.426   5.056
46837W        W18366  13.339  15.326   3.205
46838W        W18367  34.734   1.056   0.011
46839W        W18368  18.124   8.604  11.991
46840W        W18369  16.374   7.847   3.702
46841W        W18370  43.013   6.313  11.169
46842W        W18371  27.008  42.310   0.440
46843W        W18372  22.454   1.855   0.839
46844W        W18373   1.415  16.156  14.886
46845W        W18374  37.793  43.408  14.291
46846W        W18375   0.345  31.636   3.880
46847W        W18376  23.274  22.729  13.423
46848W        W18377  44.061  43.821  10.534
46849W        W18378  33.415   3.494   3.216
46850W        W18379  18.720  10.377  14.344
46851W        W18380   3.023  43.333   2.219
46852W        W18381  40.793  34.369   2.764
46853W        W18382  33.461   8.884   1.474
46854W        W18383  24.533  18.364   0.753
46855W        W18384   4.436  44.902  12.836
46856W        W18385   4.254  10.583  11.872
46857W        W18386  21.194  13.192   3.335
46858W        W18387  14.609  31.129   3.423
46859W        W18388  13.679  22.613   2.219
46860W        W18389  22.882  34.905  10.655
46861W        W18390  18.182  19.745   9.701
46862W        W18391  32.047   7.228  14.327
46863W        W18392  12.360  33.526   2.336
46864W        W18393  13.628  25.400   1.052
46865W        W18394  12.164  38.163   4.569
46866W        W18395  26.813  22.377   2.219
46867W        W18396  13.127  38.538   4.507
46868W        W18397  35.170   1.130  14.698
46869W        W18398  42.410   7.290   4.904
46870W        W18399  21.112  21.112   1.133
46871W        W18400   4.129  44.175   3.244
46872W        W18401   8.713  31.735  13.754
46873W        W18402  44.992  14.909   1.250
46874W        W18403  40.797  16.318  14.606
46875W        W18404  23.313  44.472  11.594
46876W        W18405  38.429  44.368  12.783
46877W        W18406  36.667   1.414   4.448
46878W        W18407   6.605  34.544  10.940
46879W        W18408  22.645  19.265   4.119
46880W        W18409   4.739  20.526   0.474
46881W        W18410  34.182  38.629  11.129
46882W        W18411  44.216   5.248  10.745
46883W        W18412  40.613   5.740   4.074
46884W        W18413  27.017   6.723   4.107
46885W        W18414  23.144  41.964   3.031
46886W        W18415  33.441  14.271  11.769
46887W        W18416  29.271  28.085   2.274
46888W        W18417   8.663  13.193   1.414
46889W        W18418  21.562  22.859   2.146
46890W        W18419  26.621  37.715  12.553
46891W        W18420  42.241   3.426  10.977
46892W        W18421  30.430  10.583   3.320
46893W        W18422  34.404  38.352   2.828
46894W        W18423   0.725  43.924   3.597
46895W        W18424  39.308  17.043   1.684
46896W        W18425  21.974  27.982  11.872
46897W        W18426  30.676  19.230  14.099
46898W        W18427  13.088   7.193  10.661
46899W        W18428  43.032  20.080   2.970
46900W        W18429  32.581  42.622  11.922
46901W        W18430  21.144  33.885  13.167
46902W        W18431  21.776  38.934   3.712
46903W        W18432  15.163  26.225  12.967
46904W        W18433  26.705  30.861  10.046
46905W        W18434  15.315  37.336  11.502
46906W        W18435   8.735  23.468  12.497
46907W        W18436  20.371   0.255   1.770
46908W        W18437  13.703  13.039   2.716
46909W        W18438  11.307  36.143  11.923
46910W        W18439  15.231  38.546   3.763
46911W        W18440  39.497  20.889   5.144
46912W        W18441  30.235  18.485  11.693
46913W        W18442   4.798  39.922  11.340
46914W        W18443  37.953   3.675  10.709
46915W        W18444  37.008  12.344   3.316
46916W        W18445  23.012   8.630   4.108
46917W        W18446   0.576  28.186  11.403
46918W        W18447  17.174  36.239  13.018
46919W        W18448  30.604  24.057   1.885
46920W        W18449  16.771  26.669  10.669
46921W        W18450  16.108  36.843   0.844
46922W        W18451  34.042   2.967   4.568
46923W        W18452   2.879  41.847   0.787
46924W        W18453  25.472  29.053  11.203
46925W        W18454   2.941  13.094  12.477
46926W        W18455  44.927  27.999  13.107
46927W        W18456  20.495  26.480   1.795
46928W        W18457  25.225  26.140  10.710
46929W        W18458  32.040  17.322  12.877
46930W        W18459  35.898  42.485  14.346
46931W        W18460  44.978  23.013  13.877
46932W        W18461   0.937  33.119  13.543
46933W        W18462  27.873  33.354  12.107
46934W        W18463  40.967  29.338   3.166
46935W        W18464  43.389  16.883  10.552
46936W        W18465  34.878  24.104   2.789
46937W        W18466  25.635  14.508  14.703
46938W        W18467  17.844  30.515  11.579
46939W        W18468  24.554  22.566  12.170
46940W        W18469  35.499   9.235  11.253
46941W        W18470  34.798  41.394   1.295
46942W        W18471   3.535  30.629   4.568
46943W        W18472   8.391   9.310   2.349
46944W        W18473  12.744  24.661  10.646
46945W        W18474  40.061   7.970  14.776
46946W        W18475  20.691   6.876   2.697
46947W        W18476   9.984  19.770   2.407
46948W        W18477   3.189   3.845  14.005
46949W        W18478   1.079   7.033   4.118
46950W        W18479  37.968  34.834  10.473
46951W        W18480  16.166  31.594   3.030
46952W        W18481  20.086  42.272  10.550
46953W        W18482  37.170  35.423   0.220
46954W        W18483  38.904  22.574   0.834
46955W        W18484  37.990  25.972  12.461
46956W        W18485   2.033  22.528   4.467
46957W        W18486  16.876  15.069  12.515
46958W        W18487  18.593   7.753   0.312
46959W        W18488  31.340  35.681   0.359
46960W        W18489  19.835  39.639   3.406
46961W        W18490  44.604   6.119   3.450
46962W        W18491  22.478  34.029   5.002
46963W        W18492  14.746  40.401  13.451
46964W        W18493  41.482  42.338  11.164
46965W        W18494  43.838  40.852  10.363
46966W        W18495  42.562  35.049  12.988
46967W        W18496  25.047  10.734   3.678
46968W        W18497  41.090  21.665  14.291
46969W        W18498   6.192  43.834   1.472
46970W        W18499  17.149  16.859  14.037
46971W        W18500  13.525  15.771   1.389
46972W        W18501   7.183   3.191  11.150
46973W        W18502  12.780  26.188   3.747
46974W        W18503  14.164   8.366   2.918
46975W        W18504  11.556  41.861   2.256
46976W        W18505  16.173  38.355  13.134
46977W        W18506  39.961  16.077   1.026
46978W        W18507  31.952  39.971   0.125
46979W        W18508  28.931  36.088  12.407
46980W        W18509  29.913  23.086  12.101
46981W        W18510  34.299   9.250  13.962
46982W        W18511   5.035  33.527   0.444
46983W        W18512  23.033  23.712  14.839
46984W        W18513   0.233  11.811   2.685
46985W        W18514   8.593  31.757  10.773
46986W        W18515  44.917  31.657   1.532
46987W        W18516  13.817  35.526  14.304
46988W        W18517   0.272  17.106   4.544
46989W        W18518  16.191   5.945   3.189
46990W        W18519  23.247  25.492  14.903
46991W        W18520   2.440   2.354  11.185
46992W        W18521  21.071  42.310  12.536
46993W        W18522  18.828  31.262   0.360
46994W        W18523   9.707  25.473  10.599
46995W        W18524  24.593  40.636  12.056
46996W        W18525  25.725  10.219   0.817
46997W        W18526  31.535  33.532   2.452
46998W        W18527  41.267  26.129   4.652
46999W        W18528  36.884  33.621   0.926
47000W        W18529  33.651  10.660  12.507
47001W        W18530   4.681  41.845   3.696
47002W        W18531  14.181  13.665  14.071
47003W        W18532   9.439   2.928  11.105
47004W        W18533   3.687  25.111  11.453
47005W        W18534   5.711   1.348  14.495
47006W        W18535  43.331  23.582  11.189
47007W        W18536  19.604  37.656  12.946
47008W        W18537  19.130  14.649  12.434
47009W        W18538  26.614   2.869  13.037
47010W        W18539  25.638  20.792   0.344
47011W        W18540   4.226  41.528   3.369
47012W        W18541  12.694   7.382   1.207
47013W        W18542  27.006  11.338  12.940
47014W        W18543   8.187  43.544  12.954
47015W        W18544  10.394   8.141   1.866
47016W        W18545   5.184  39.495   3.652
47017W        W18546  42.438  10.667  13.924
47018W        W18547   9.366  29.881  12.602
47019W        W18548  33.962  16.071   3.279
47020W        W18549  14.445  40.235  11.294
47021W        W18550   5.391  33.708   3.334
47022W        W18551   1.651  29.076   3.746
47023W        W18552  43.862  40.339  12.938
47024W        W18553  25.623  21.584  14.786
47025W        W18554  24.210  42.374  12.484
47026W        W18555  40.444  28.988  14.914
47027W        W18556  44.192  34.978  10.201
47028W        W18557  34.507   3.793  14.564
47029W        W18558  17.787  12.146   3.259
47030W        W18559  44.199  44.435   2.747
47031W        W18560  20.136  14.292  14.560
47032W        W18561  22.007  28.463   1.907
47033W        W18562   9.727  28.664  12.902
47034W        W18563  21.538   6.212   1.817
47035W        W18564   2.146  43.498  10.643
47036W        W18565  26.535  17.941  12.174
47037W        W18566  43.876  32.171   0.473
47038W        W18567  43.454   9.771   4.747
47039W        W18568  12.612   5.036   3.159
47040W        W18569  17.685  12.043  13.071
47041W        W18570  12.704   0.993   2.329
47042W        W18571  13.743  38.971  11.627
47043W        W18572  30.700  30.084  10.977
47044W        W18573  18.270  13.807   4.104
47045W        W18574  20.573  25.856   2.387
47046W        W18575   7.705  20.102   4.701
47047W        W18576   2.510   7.487  10.477
47048W        W18577  41.253  17.480  14.364
47049W        W18578  22.567   5.310   2.114
47050W        W18579   0.497  15.943   9.864
47051W        W18580  19.410  41.731  10.512
47052W        W18581  23.114  41.583   1.777
47053W        W18582  37.222  15.800   4.546
47054W        W18583  24.908  19.196   2.703
47055W        W18584   3.760   9.743   0.503
47056W        W18585  33.165  23.220  13.727
47057W        W18586  19.798  30.182   2.365
47058W        W18587   3.223  22.031  11.084
47059W        W18588  17.779  41.328  13.131
47060W        W18589  18.150   5.454  14.912
47061W        W18590   5.960  33.959  14.001
47062W        W18591  33.958  19.423   3.099
47063W        W18592  22.220  14.304  13.048
47064W        W18593  16.244   7.258  11.115
47065W        W18594  27.597   4.520   1.790
47066W        W18595  27.248  28.495  13.044
47067W        W18596  32.507  33.804  13.581
47068W        W18597  33.635  14.177   3.412
47069W        W18598  26.043  36.066  13.063
47070W        W18599  23.093  27.771   0.225
47071W        W18600  30.795  39.594  14.358
47072W        W18601   2.987   6.721   1.671
47073W        W18602  17.839  13.286   1.339
47074W        W18603  29.688  39.396  13.563
47075W        W18604  20.646  18.110  11.146
47076W        W18605  32.197  42.331  12.948
47077W        W18606   9.713  25.166   4.766
47078W        W18607   4.258   2.415  12.599
47079W        W18608  33.575  18.851   3.751
47080W        W18609  30.592  21.121  13.374
47081W        W18610  38.834  40.210  11.624
47082W        W18611   6.587  11.106  12.056
47083W        W18612  12.292  41.820   1.381
47084W        W18613  25.497   4.906  13.585
47085W        W18614  18.502  13.333   3.208
47086W        W18615  43.577   3.977   4.499
47087W        W18616   1.294  37.634   3.424
47088W        W18617  25.639  36.498   5.067
47089W        W18618  35.963  33.507  10.771
47090W        W18619  40.586  43.795  10.730
47091W        W18620  24.113  21.287  12.902
47092W        W18621  35.358  29.928   1.249
47093W        W18622  10.434  24.005   0.854
47094W        W18623  40.119  42.064   1.565
47095W        W18624  41.784  35.855   1.544
47096W        W18625   6.205  10.227   4.037
47097W        W18626   7.829  35.632   4.722
47098W        W18627  33.912  30.966  10.582
47099W        W18628   3.753  16.330  14.562
47100W        W18629  32.687  10.773   2.669
47101W        W18630  41.407   5.804   2.172
47102W        W18631   0.644  15.542   4.456
47103W        W18632   5.884  12.180  13.023
47104W        W18633  14.185  21.977  14.770
47105W        W18634  36.749   3.940   0.788
47106W        W18635  11.196  34.050   0.473
47107W        W18636  13.423  44.719   0.525
47108W        W18637  11.781   0.407   2.369
47109W        W18638  30.335  15.860  12.039
47110W        W18639  41.398   6.148  13.272
47111W        W18640  23.140  30.187   2.143
47112W        W18641  30.115  28.105   0.471
47113W        W18642  33.473  26.506   2.208
47114W        W18643  29.062  21.052  13.462
47115W        W18644  33.062   7.885  12.282
47116W        W18645  20.103  19.743  11.167
47117W        W18646   1.253  12.288   0.940
47118W        W18647  37.172  18.699   5.055
47119W        W18648  30.455   7.827   3.612
47120W        W18649   4.059  32.403   2.192
47121W        W18650  14.809  42.825   2.198
47122W        W18651  32.919  21.115   0.309
47123W        W18652  10.670  42.930   4.621
47124W        W18653  27.833  38.521  11.703
47125W        W18654   5.319  15.855   1.339
47126W        W18655   0.158  14.670   0.822
47127W        W18656  40.467  19.228  11.942
47128W        W18657   3.062   6.256   0.957
47129W        W18658  14.171  44.650  11.039
47130W        W18659  26.464  22.419   5.079
47131W        W18660  34.911  31.470   0.313
47132W        W18661  42.841  35.146  10.749
47133W        W18662  19.073  19.550   2.671
47134W        W18663  18.143  41.520   0.278
47135W        W18664  39.371  14.909   2.389
47136W        W18665  16.018   0.472  14.287
47137W        W18666  31.003   6.750  11.295
47138W        W18667  22.093   7.868   2.882
47139W        W18668  42.806  14.667  12.239
47140W        W18669  15.731  10.863   0.796
47141W        W18670   9.047  36.831  11.514
47142W        W18671  20.249  22.720   1.336
47143W        W18672  40.495  40.989   0.386
47144W        W18673  37.812  10.879   3.816
47145W        W18674  29.203   1.387  12.450
47146W        W18675  12.228   4.299   3.087
47147W        W18676  34.988  37.519   0.327
47148W        W18677  35.994  25.140   4.011
47149W        W18678  24.522  37.424  12.975
47150W        W18679  33.030  15.339   1.761
47151W        W18680  11.635   4.781   3.271
47152W        W18681  29.175  31.024   2.656
47153W        W18682  24.231  19.575  11.048
47154W        W18683  32.318  37.469  13.095
47155W        W18684  33.825  39.557  14.721
47156W        W18685   0.081  35.013  14.961
47157W        W18686  23.659  42.784   0.062
47158W        W18687  17.761   1.291  13.498
47159W        W18688  27.140  11.862   1.830
47160W        W18689  40.395  34.971  13.941
47161W        W18690  17.795  18.810   3.787
47162W        W18691  14.771  24.194   4.586
47163W        W18692  35.096  21.827   1.036
47164W        W18693  34.024  22.097   1.990
47165W        W18694   1.892  10.836   0.237
47166W        W18695  28.241  22.008   4.153
47167W        W18696  34.209  14.334  12.439
47168W        W18697  22.714   8.768  13.511
47169W        W18698  36.103  19.799  11.128
47170W        W18699   4.856  25.014  14.381
47171W        W18700  42.601   9.332  13.863
47172W        W18701  26.016  32.857   5.005
47173W        W18702  33.624  29.181   3.713
47174W        W18703  20.827  14.175  11.533
47175W        W18704  38.543  31.149   0.332
47176W        W18705  16.317   4.663  12.183
47177W        W18706  38.422   8.145   2.827
47178W        W18707  27.467  12.339   1.151
47179W        W18708  38.034  23.460   3.586
47180W        W18709   0.935  38.317  10.709
47181W        W18710  38.501  12.157  14.639
47182W        W18711  14.741  39.348  12.361
47183W        W18712  37.629  25.602  14.880
47184W        W18713  24.936  21.527   0.582
47185W        W18714  31.175   4.983   2.642
47186W        W18715  19.595  40.494  13.929
47187W        W18716  21.003   5.318   4.079
47188W        W18717  44.805  23.984   3.072
47189W        W18718  20.108   2.332  12.912
47190W        W18719  19.655  39.441  12.037
47191W        W18720  40.394  17.074   3.586
47192W        W18721  20.559   4.425   1.149
47193W        W18722  19.116   5.248   1.165
47194W        W18723  44.262  34.012   0.919
47195W        W18724  23.191  28.603  14.064
47196W        W18725  12.918  22.359   4.080
47197W        W18726  21.529  25.597   2.316
47198W        W18727  22.628  35.344   4.148
47199W        W18728  14.784  39.913   4.914
47200W        W18729  37.361  20.792  14.876
47201W        W18730  23.382  17.534   4.236
47202W        W18731  37.307  26.646   1.072
47203W        W18732  36.113   3.705  10.601
47204W        W18733  43.589  15.129  13.968
47205W        W18734  35.347  33.497  12.009
47206W        W18735  23.682  26.977  13.474
47207W        W18736  19.622  22.842  14.534
47208W        W18737  28.772  35.066  11.216
47209W        W18738  41.054  38.526  14.839
47210W        W18739  42.222  30.840  10.610
47211W        W18740  23.090  33.055  12.300
47212W        W18741  16.854  29.734  14.490
47213W        W18742  38.107  37.887  12.558
47214W        W18743  34.397  15.584  11.462
47215W        W18744  16.330  43.544  13.390
47216W        W18745  20.760  20.577  13.074
47217W        W18746  18.749  23.171   0.695
47218W        W18747  37.347  41.359  13.339
47219W        W18748   2.898  23.506   2.397
47220W        W18749  17.836  18.334  13.331
47221W        W18750  29.686  17.115   2.847
47222W        W18751  13.196   0.295  13.086
47223W        W18752   4.210  24.028  12.103
47224W        W18753  28.900  19.282  12.435
47225W        W18754   2.785  21.071  11.427
47226W        W18755  34.809  27.149  14.110
47227W        W18756  20.663  34.054   3.902
47228W        W18757  33.669  33.616   1.977
47229W        W18758   2.667   0.732   3.792
47230W        W18759  34.150  14.140  11.084
47231W        W18760  26.413  17.493   4.699
47232W        W18761  18.973  13.260  11.212
47233W        W18762  27.473  40.803   0.279
47234W        W18763   3.457  15.018   4.082
47235W        W18764  25.446  43.297  10.673
47236W        W18765  27.071  40.702  11.180
47237W        W18766  24.050  25.841  11.005
47238W        W18767  21.676  18.008   2.669
47239W        W18768  13.931  27.318  14.827
47240W        W18769  16.652  35.848   3.229
47241W        W18770  26.236   8.144   1.190
47242W        W18771  37.134  34.774   5.024
47243W        W18772  29.089  14.024  11.056
47244W        W18773  29.534  11.899   4.664
47245W        W18774  35.199  14.612  13.857
47246W        W18775   7.764  30.159   4.077
47247W        W18776  39.530  34.471   3.083
47248W        W18777  10.862  23.176  13.503
47249W        W18778  33.913  32.476   1.603
47250W        W18779  28.010  24.949   0.123
47251W        W18780  32.434  13.591   0.304
47252W        W18781  16.283  24.621  13.720
47253W        W18782  34.196  40.158  12.872
47254W        W18783  24.682   1.997  13.482
47255W        W18784   5.958  12.819  11.227
47256W        W18785   6.493  32.115   4.033
47257W        W18786  30.975  33.565  10.980
47258W        W18787  24.026   1.487  14.812
47259W        W18788  25.576   7.256  11.624
47260W        W18789  14.310  38.892  11.015
47261W        W18790  15.370  10.646   2.411
47262W        W18791  43.268  32.158   1.689
47263W        W18792  36.091   5.863  12.861
47264W        W18793  19.533  37.311   2.394
47265W        W18794   5.127  19.995   3.228
47266W        W18795  23.173  12.576   2.689
47267W        W18796  41.426  10.312   3.777
47268W        W18797  32.980   6.378   3.211
47269W        W18798  37.604  35.261   1.690
47270W        W18799  14.386  35.364   3.288
47271W        W18800   4.708   4.651   0.822
47272W        W18801  41.987  42.011   0.651
47273W        W18802  28.135  26.928  12.534
47274W        W18803   2.775  44.575  13.590
47275W        W18804   6.889  22.144   1.375
47276W        W18805  34.059   1.492   3.762
47277W        W18806  30.816   4.850   4.687
47278W        W18807  35.914  20.104   4.865
47279W        W18808  24.232  34.384   3.689
47280W        W18809  31.047  13.079  10.898
47281W        W18810  14.905  38.511   4.536
47282W        W18811  22.944  44.559  13.434
47283W        W18812  39.555  23.192   2.347
47284W        W18813  17.396  12.241  13.852
47285W        W18814  24.599  20.862  12.538
47286W        W18815  29.057  28.484  12.875
47287W        W18816  11.153  33.588  13.343
47288W        W18817   5.821  37.477   4.493
47289W        W18818  23.811   5.303   4.757
47290W        W18819   4.504  30.720  13.164
47291W        W18820  17.834   6.805   0.907
47292W        W18821   8.121  14.228  12.907
47293W        W18822  43.757  43.481  14.421
47294W        W18823  38.898  21.171  14.371
47295W        W18824  30.188  20.122   2.279
47296W        W18825  10.223  39.965   4.428
47297W        W18826  34.200  25.900  14.818
47298W        W18827  38.029  23.680   0.429
47299W        W18828   2.501  44.941   1.405
47300W        W18829   5.192  15.544  12.551
47301W        W18830  13.067  19.750   0.261
47302W        W18831  36.793  21.968  13.499
47303W        W18832  40.398  43.855  14.094
47304W        W18833  30.846  13.026   1.876
47305W        W18834  11.564  17.261  11.615
47306W        W18835  27.057  15.587  13.230
47307W        W18836  23.646  24.695  11.431
47308W        W18837  24.056  22.053  12.653
47309W        W18838  37.336  14.292   0.042
47310W        W18839  33.371  22.154   2.832
47311W        W18840  26.481  39.533   2.357
47312W        W18841  27.071  30.800  13.174
47313W        W18842  25.469  38.053  14.976
47314W        W18843  37.532   0.586  12.207
47315W        W18844  40.402  22.334   3.711
47316W        W18845  21.103  12.168   4.738
47317W        W18846   3.157   5.357   2.119
47318W        W18847  24.612  31.809   1.920
47319W        W18848  15.099  29.244   1.329
47320W        W18849   1.439  40.362  12.789
47321W        W18850  38.421  20.253  10.908
47322W        W18851  16.761  27.213   2.582
47323W        W18852  44.032   5.782  14.283
47324W        W18853  33.143  40.752   4.212
47325W        W18854   3.313  16.246   0.877
47326W        W18855   2.600  23.642  12.541
47327W        W18856  38.961  13.707  14.104
47328W        W18857  16.114  34.941  12.519
47329W        W18858  32.840   2.584  11.141
47330W        W18859  40.929  17.519  11.515
47331W        W18860  19.195  18.846   1.150
47332W        W18861  43.961  15.352   0.901
47333W        W18862   0.778  40.153   0.264
47334W        W18863  35.966  37.333  11.288
47335W        W18864  35.860  33.504  13.263
47336W        W18865  37.524  35.117  12.689
47337W        W18866  26.560  41.399  12.434
47338W        W18867  27.109  43.233  11.553
47339W        W18868  13.218  36.581   1.164
47340W        W18869  22.159  29.991   0.330
47341W        W18870  17.311  35.998   0.386
47342W        W18871  26.683  34.454  14.299
47343W        W18872  24.815  32.948   4.490
47344W        W18873  32.037  14.844  11.910
47345W        W18874  22.772   9.117   2.516
47346W        W18875  13.587  12.850  13.881
47347W        W18876  17.461  20.724   3.084
47348W        W18877  23.345  22.518  10.525
47349W        W18878  36.097  10.164   2.359
47350W        W18879  14.571  18.167   3.652
47351W        W18880  26.475  44.735  12.105
47352W        W18881   3.797  28.109  12.463
47353W        W18882   8.864  13.133   0.941
47354W        W18883  35.509  18.471   2.714
47355W        W18884  25.261   7.846  14.725
47356W        W18885  14.651  15.461  10.274
47357W        W18886  16.131   0.422   1.187
47358W        W18887  38.273  33.922   1.259
47359W        W18888  23.029  14.166   4.005
47360W        W18889   9.499  24.996   1.842
47361W        W18890  11.695  33.870   4.434
47362W        W18891  40.478  30.981  11.138
47363W        W18892  42.555  33.003   3.471
47364W        W18893  32.431  21.457   3.849
47365W        W18894  28.048  27.494  14.535
47366W        W18895  38.484   2.211   4.731
47367W        W18896   9.754  10.694  11.906
47368W        W18897  20.561  10.213  12.060
47369W        W18898  12.873  12.327   1.907
47370W        W18899  21.805  14.894  14.400
47371W        W18900   6.822  44.446  12.464
47372W        W18901  22.437  32.960   2.311
47373W        W18902  21.487  34.636  14.038
47374W        W18903  16.444  37.133   0.471
47375W        W18904  14.173  30.370   3.684
47376W        W18905  14.882  13.866  11.012
47377W        W18906   9.306  19.919   0.345
47378W        W18907  14.651  24.240  14.457
47379W        W18908  28.228   8.449  10.090
47380W        W18909  13.654  33.550   4.279
47381W        W18910  15.237  35.924  10.738
47382W        W18911  44.184  27.220   0.556
47383W        W18912  36.801  21.814   2.386
47384W        W18913  27.545  24.762  12.800
47385W        W18914  15.296   9.246   3.551
47386W        W18915  41.966  30.224   1.036
47387W        W18916  35.186  13.305  13.521
47388W        W18917  28.966  35.167   1.789
47389W        W18918  17.886  16.234   2.820
47390W        W18919  19.179  31.748  11.880
47391W        W18920  27.689  43.227  13.055
47392W        W18921  42.901  14.525   2.157
47393W        W18922  25.623   5.489   3.316
47394W        W18923  32.577   8.356  11.560
47395W        W18924   3.285  30.925   4.100
47396W        W18925  26.524  36.088  10.283
47397W        W18926  35.068  44.851  14.864
47398W        W18927  31.943  20.277   2.648
47399W        W18928  31.768   2.173   3.660
47400W        W18929  15.232  12.659   0.789
47401W        W18930   3.273  27.139   0.631
47402W        W18931   5.639  18.291  12.869
47403W        W18932  16.565  24.695  14.991
47404W        W18933  43.789  38.752  13.487
47405W        W18934  25.251   3.882  11.736
47406W        W18935  36.685   7.342   4.020
47407W        W18936   5.186   1.434  14.015
47408W        W18937  35.518   8.713  12.621
47409W        W18938   7.330  18.240  14.088
47410W        W18939  11.689  35.862  10.792
47411W        W18940  18.407  34.894  13.708
47412W        W18941   3.877  43.650   2.553
47413W        W18942  39.941  39.343  10.996
47414W        W18943  40.940  17.835  12.409
47415W        W18944  27.215   4.822  12.485
47416W        W18945   9.425  10.313  14.522
47417W        W18946  21.239  16.093   0.212
47418W        W18947  22.911  44.449   2.693
47419W        W18948  19.132  41.463  11.720
47420W        W18949  22.449  39.023  11.831
47421W        W18950  42.717  42.582  10.729
47422W        W18951  44.703   3.392   3.749
47423W        W18952  16.501  41.859   0.742
47424W        W18953  21.064  37.515   3.230
47425W        W18954  40.426  37.478  11.114
47426W        W18955  19.852  41.478  14.816
47427W        W18956   5.340  21.483  11.188
47428W        W18957  11.435  21.247   2.160
47429W        W18958  18.163  28.149   0.084
47430W        W18959  40.589   5.730   2.664
47431W        W18960  30.474  12.234  14.992
47432W        W18961  30.002  28.938   2.392
47433W        W18962  27.100  34.068  12.092
47434W        W18963  25.980   1.556   0.269
47435W        W18964  10.349  40.959  10.457
47436W        W18965   0.193  31.620   2.841
47437W        W18966  34.012  24.491   4.670
47438W        W18967  30.708  35.618  14.249
47439W        W18968  15.764  44.271  13.534
47440W        W18969  15.931  38.986   1.891
47441W        W18970   1.265  10.414   3.663
47442W        W18971   5.586  34.677   0.923
47443W        W18972   9.403  42.768   1.509
47444W        W18973  43.137   2.944  12.154
47445W        W18974  21.649   8.043   3.982
47446W        W18975  19.693  35.497  14.842
47447W        W18976  13.831  39.329   4.091
47448W        W18977   2.995  44.785   1.351
47449W        W18978  21.619  33.972   4.829
47450W        W18979  29.290  15.756  13.435
47451W        W18980   7.396  26.959   2.684
47452W        W18981   1.941  27.548   2.757
47453W        W18982   5.892  26.733   3.464
47454W        W18983   8.617   2.356   2.301
47455W        W18984   8.052  39.896  13.967
47456W        W18985  30.849   8.343  12.118
47457W        W18986  39.147  16.906   0.045
47458W        W18987  34.354   6.899   4.021
47459W        W18988  44.132  28.163   5.021
47460W        W18989  17.768  15.260   4.715
47461W        W18990  37.727  40.027   3.395
47462W        W18991  36.394  34.372  10.434
47463W        W18992   2.116  23.483  14.487
47464W        W18993  35.496  29.829  11.877
47465W        W18994  17.765  19.757   0.461
47466W        W18995  18.151   2.342   3.628
47467W        W18996  36.461  21.899  11.505
47468W        W18997   2.008   7.060  12.887
47469W        W18998  34.997  44.780  13.379
47470W        W18999  34.484  38.621  11.532
47471W        W19000  35.874   3.351  14.553
47472W        W19001  26.404  31.847   1.509
47473W        W19002  32.623   7.132   2.132
47474W        W19003  33.396  15.807   0.769
47475W        W19004  25.507   9.678   3.329
47476W        W19005  37.535   6.109   2.324
47477W        W19006  18.150   7.360  11.154
47478W        W19007   3.830   7.113  12.889
47479W        W19008  26.713  35.396   0.715
47480W        W19009  41.573  42.247   0.917
47481W        W19010  23.987  31.108   4.786
47482W        W19011  13.563   6.388  11.315
47483W        W19012   3.450   9.446  11.599
47484W        W19013   4.030  24.192   3.165
47485W        W19014  34.707  42.934  11.258
47486W        W19015  13.327  20.760  11.471
47487W        W19016  23.998  20.760  11.586
47488W        W19017   3.214  26.326  14.402
47489W        W19018  21.415  19.002  12.362
47490W        W19019  29.862  23.560   3.810
47491W        W19020  18.036  16.408  13.970
47492W        W19021  21.061  44.898   0.345
47493W        W19022   5.000  42.306  11.180
47494W        W19023  12.206  21.507   0.180
47495W        W19024  18.591  25.501  12.409
47496W        W19025  12.654  14.261  10.714
47497W        W19026  31.607  31.616   3.889
47498W        W19027  17.766  25.003  13.920
47499W        W19028  17.315  13.139   2.281
47500W        W19029  44.944  44.186  13.745
47501W        W19030  17.990  32.310  11.893
47502W        W19031  27.554  44.214   0.953
47503W        W19032  16.543   3.702  12.883
47504W        W19033  25.817  19.111  13.889
47505W        W19034  43.454  24.413  14.020
47506W        W19035   0.366  15.715  12.510
47507W        W19036  40.094   3.514   4.263
47508W        W19037  36.451   6.858   4.166
47509W        W19038  14.206  22.394   2.157
47510W        W19039  32.344  15.298   3.220
47511W        W19040  19.470  10.285  14.792
47512W        W19041  36.493  23.089  12.869
47513W        W19042  16.807  27.724   3.957
47514W        W19043  35.467  26.207  14.252
47515W        W19044  13.728  27.248  13.907
47516W        W19045   5.163  41.741  13.355
47517W        W19046  24.345  43.993  13.818
47518W        W19047   3.917  11.669  12.223
47519W        W19048  32.448  15.278   0.841
47520W        W19049  19.949  28.545   3.760
47521W        W19050   2.248  30.582  10.231
47522W        W19051  12.062   3.325  14.676
47523W        W19052  34.111  13.998   3.308
47524W        W19053  44.148  31.096   2.137
47525W        W19054  33.225   7.657  11.329
47526W        W19055  20.564  16.227   1.950
47527W        W19056  26.632  37.006   1.664
47528W        W19057   7.271  34.448   0.320
47529W        W19058  15.793  16.765  12.039
47530W        W19059  18.981  25.644  14.084
47531W        W19060  43.903  44.660  14.053
47532W        W19061  23.334   0.013   3.843
47533W        W19062   4.822  41.593  10.506
47534W        W19063   7.719   1.584  12.124
47535W        W19064  22.287  34.462   3.216
47536W        W19065  22.691   7.735  12.121
47537W        W19066  24.113   7.297  12.981
47538W        W19067  35.507  35.281   1.304
47539W        W19068   3.921  22.599  10.342
47540W        W19069  41.774  15.685  13.908
47541W        W19070  19.905  41.771  14.237
47542W        W19071  22.755  15.075   2.676
47543W        W19072  20.934  12.064   1.339
47544W        W19073  20.189  15.476   4.768
47545W        W19074  39.805  21.291   2.230
47546W        W19075   5.950  17.074  12.215
47547W        W19076   4.040  32.177  13.981
47548W        W19077  20.219  16.737   2.797
47549W        W19078  31.348  38.926   2.794
47550W        W19079  16.341  23.350  14.452
47551W        W19080  38.788  25.671   0.411
47552W        W19081  17.138  24.055  14.516
47553W        W19082  13.381  12.771   3.692
47554W        W19083   1.968  17.153   3.305
47555W        W19084  19.773   6.212   1.810
47556W        W19085  29.179  28.568   2.161
47557W        W19086   1.491  21.659  14.020
47558W        W19087   8.415   9.894   3.005
47559W        W19088  26.139  43.007   2.354
47560W        W19089  11.243  34.029  14.915
47561W        W19090  24.614  16.841  13.962
47562W        W19091  35.441  28.996   0.317
47563W        W19092  17.735  27.819   4.701
47564W        W19093  10.356  22.594   3.654
47565W        W19094  21.234   8.654  11.543
47566W        W19095  10.193   8.816  12.410
47567W        W19096  12.724  27.519   2.262
47568W        W19097  18.597  13.728   4.564
47569W        W19098  25.451  19.424  12.494
47570W        W19099  19.487  12.469   0.377
47571W        W19100  34.142  44.966  14.443
47572W        W19101  27.170  12.889   0.464
47573W        W19102  23.405  37.362  12.011
47574W        W19103  21.978   5.287  11.856
47575W        W19104   0.254  26.790  14.261
47576W        W19105   1.446  12.196   4.217
47577W        W19106  39.344  10.906   4.104
47578W        W19107   4.446  21.041  12.612
47579W        W19108  21.303   4.715  14.493
47580W        W19109   6.655  22.319  13.126
47581W        W19110  26.362  11.759  10.646
47582W        W19111  37.841   1.998  13.085
47583W        W19112  40.553  32.954  12.969
47584W        W19113  17.696  25.426   4.409
47585W        W19114   8.657  41.398   1.891
47586W        W19115  11.965  10.680  12.573
47587W        W19116  39.726  25.204  13.889
47588W        W19117  12.737  27.517  13.011
47589W        W19118   4.778   8.214   1.734
47590W        W19119  30.076  36.928  11.656
47591W        W19120  41.420   9.698  12.583
47592W        W19121  11.780  11.904   2.799
47593W        W19122  33.419   5.843   0.934
47594W        W19123   8.713  36.201   2.212
47595W        W19124  29.045   8.724   2.718
47596W        W19125   3.409  33.266  10.203
47597W        W19126  39.895  28.241  12.621
47598W        W19127  35.438  36.937   0.677
47599W        W19128  20.456   5.821   2.299
47600W        W19129   3.509  44.128  10.012
47601W        W19130  11.088  11.885   3.194
47602W        W19131  26.788   9.027  10.333
47603W        W19132  19.153  42.216  10.765
47604W        W19133   8.840  31.487   4.270
47605W        W19134  39.278  21.126   3.660
47606W        W19135   7.954  13.727   0.363
47607W        W19136  22.160  43.312  13.998
47608W        W19137  36.366  15.208   2.355
47609W        W19138  21.466  28.669   1.281
47610W        W19139  31.596  38.559  14.676
47611W        W19140  27.659  24.579   3.367
47612W        W19141  25.614  39.433  11.221
47613W        W19142  29.753  11.155  12.982
47614W        W19143  17.709  43.468  11.390
47615W        W19144  35.144  37.008  12.726
47616W        W19145  31.674   3.358  14.744
47617W        W19146  23.211  39.028  12.503
47618W        W19147  23.172  36.199  13.942
47619W        W19148  43.705   4.545  11.171
47620W        W19149   8.596  37.884   2.129
47621W        W19150  39.836  21.424  14.042
47622W        W19151   3.000   4.983  13.544
47623W        W19152  17.539   6.767   2.199
47624W        W19153  30.638  35.359  11.137
47625W        W19154  28.370   7.188  13.286
47626W        W19155   5.691  16.487   1.796
47627W        W19156  35.772  40.616  13.492
47628W        W19157   6.167  20.577   9.961
47629W        W19158  43.719  41.585   3.720
47630W        W19159  21.978  32.367   0.514
47631W        W19160  39.448  18.529   0.568
47632W        W19161  15.386  13.623  10.615
47633W        W19162  24.988  43.775  11.058
47634W        W19163  42.574  23.905  11.629
47635W        W19164  27.703  12.311   2.627
47636W        W19165  23.580   8.004   1.101
47637W        W19166   5.139  40.828   0.014
47638W        W19167  24.187   9.805   3.552
47639W        W19168   8.885  11.361   4.306
47640W        W19169   8.866  13.171   2.822
47641W        W19170  43.258  44.411   2.598
47642W        W19171   7.733   6.636   1.812
47643W        W19172   1.554   5.287  11.881
47644W        W19173  15.082  11.347  13.349
47645W        W19174  23.707  31.282  11.142
47646W        W19175   7.404   6.817  13.755
47647W        W19176  32.972  32.654   2.439
47648W        W19177  14.325  44.333  13.574
47649W        W19178  26.994  33.764  14.489
47650W        W19179   0.733   2.331   4.116
47651W        W19180  15.971  28.684   1.820
47652W        W19181  18.283  13.754  13.439
47653W        W19182  41.825  37.438   1.042
47654W        W19183   7.847  24.007  11.577
47655W        W19184  15.299  13.864   3.587
47656W        W19185  33.845  26.114  12.459
47657W        W19186  43.811  16.032  13.086
47658W        W19187  18.069   1.876   1.004
47659W        W19188  21.621  42.500  12.142
47660W        W19189  37.007  32.995   4.805
47661W        W19190  35.407   0.677  11.637
47662W        W19191   9.594  15.051  14.998
47663W        W19192  14.819  22.027   1.823
47664W        W19193   9.711   6.031   4.112
47665W        W19194   9.359  41.969  13.859
47666W        W19195  19.533  35.162   4.277
47667W        W19196  14.025  29.703  11.555
47668W        W19197  21.019  10.150   3.283
47669W        W19198  21.713  18.241   3.127
47670W        W19199  29.611  26.947   3.651
47671W        W19200  18.258  35.607  14.289
47672W        W19201   2.657  42.302   0.844
47673W        W19202   6.846  35.569   4.691
47674W        W19203   3.828  27.738   1.896
47675W        W19204  29.824   5.927  13.936
47676W        W19205   6.717  37.792  14.855
47677W        W19206  15.247  29.218  11.604
47678W        W19207  32.973   0.896   2.870
47679W        W19208  28.409  26.314   1.446
47680W        W19209  23.721  16.233  12.875
47681W        W19210  35.613  39.963  13.501
47682W        W19211   4.820  11.327   1.895
47683W        W19212  27.801  29.299  10.342
47684W        W19213  27.943   3.547  13.312
47685W        W19214  29.918  10.347   0.825
47686W        W19215  16.766  26.082   1.581
47687W        W19216  19.748   5.915   1.297
47688W        W19217  26.151   1.056  10.672
47689W        W19218  26.276   9.638   2.856
47690W        W19219  13.306  30.479  12.409
47691W        W19220  10.572   9.110  14.926
47692W        W19221   2.715  18.431   3.144
47693W        W19222   9.414  34.996   1.391
47694W        W19223   1.705  43.339   4.614
47695W        W19224  34.562  12.943   4.584
47696W        W19225  44.533  38.619  10.828
47697W        W19226  29.484   7.693   1.334
47698W        W19227  36.925  28.334   4.595
47699W        W19228  39.942   5.702  12.536
47700W        W19229  35.934  25.638  12.670
47701W        W19230   1.956  12.301   4.173
47702W        W19231  18.045  23.010  12.111
47703W        W19232  18.131  28.609   0.977
47704W        W19233  18.076  12.700   2.103
47705W        W19234  10.444  33.952  10.687
47706W        W19235  16.430  35.127   0.223
47707W        W19236  30.411   2.431  12.530
47708W        W19237  43.834  12.155   4.316
47709W        W19238  43.362  13.839  10.609
47710W        W19239   1.795  17.550  13.791
47711W        W19240  13.813   6.772   3.917
47712W        W19241  19.794  13.893  12.524
47713W        W19242  30.618  26.140   0.836
47714W        W19243   3.738  33.973   2.825
47715W        W19244  43.946   0.617  14.476
47716W        W19245   4.501   6.942   1.355
47717W        W19246  21.111  12.873   2.838
47718W        W19247  43.705  11.081   1.747
47719W        W19248  34.855  40.325  14.971
47720W        W19249  28.464  44.800  14.527
47721W        W19250  21.384  27.588  12.369
47722W        W19251  12.371  43.300  13.893
47723W        W19252  34.999  14.041   4.072
47724W        W19253   6.957  22.906   3.192
47725W        W19254  34.138  10.749   4.063
47726W        W19255  39.366  29.564   0.257
47727W        W19256  29.404  22.575   4.851
47728W        W19257  32.459  16.980   2.051
47729W        W19258  17.329   3.223  12.043
47730W        W19259   4.823  26.505   4.291
47731W        W19260   7.454  12.575  14.762
47732W        W19261  35.048  44.352   2.800
47733W        W19262  28.066  29.042   1.879
47734W        W19263  25.740  35.472   0.587
47735W        W19264  25.621   4.675   0.192
47736W        W19265  33.455  14.943  10.669
47737W        W19266  38.976  42.327  14.803
47738W        W19267   9.153   0.216  10.966
47739W        W19268  33.701  31.682  13.462
47740W        W19269  24.213   2.953  13.391
47741W        W19270  34.835  18.119  14.917
47742W        W19271   5.524   1.821  13.778
47743W        W19272  14.107  18.264   3.462
47744W        W19273  17.574  10.138  12.443
47745W        W19274  29.062  29.960  13.033
47746W        W19275   6.182  42.897  13.506
47747W        W19276  30.286  25.437  11.954
47748W        W19277  12.664   9.968  10.663
47749W        W19278  44.198   9.191  12.508
47750W        W19279  27.120   4.852  10.086
47751W        W19280  42.895  33.625   3.490
47752W        W19281  16.710  19.813  13.429
47753W        W19282  12.513  18.580   2.673
47754W        W19283   5.772  28.573   3.414
47755W        W19284  23.316  39.075   4.800
47756W        W19285  38.962  11.252   1.780
47757W        W19286   8.930  30.555   2.312
47758W        W19287   2.440   7.805  12.841
47759W        W19288  25.696  23.234   2.922
47760W        W19289  43.391  16.389  10.652
47761W        W19290   3.406  40.897  14.671
47762W        W19291  24.053  38.770  12.965
47763W        W19292  43.473  33.448  10.661
47764W        W19293  21.029  17.167  10.713
47765W        W19294  36.677  40.134   2.319
47766W        W19295  14.579  41.981  13.427
47767W        W19296   0.226   6.931  11.123
47768W        W19297  37.476  17.046  14.461
47769W        W19298  30.568   5.275  13.717
47770W        W19299  40.654  33.586   4.552
47771W        W19300  37.067  17.602  13.054
47772W        W19301  16.052  29.450  12.045
47773W        W19302   8.937  42.942  14.069
47774W        W19303  18.981   2.413  10.694
47775W        W19304  40.532   4.966   0.726
47776W        W19305  40.474  18.634   0.841
47777W        W19306   8.089  13.226  14.754
47778W        W19307  44.028  33.529   2.684
47779W        W19308  43.436  30.123  12.069
47780W        W19309  29.659   0.133   0.413
47781W        W19310  43.065   1.759  12.566
47782W        W19311  33.500   1.948  11.634
47783W        W19312  36.620  32.281   4.019
47784W        W19313  37.755  31.675   4.840
47785W        W19314  16.711  41.080   4.598
47786W        W19315  13.842  21.987   1.419
47787W        W19316  39.811  35.876   1.275
47788W        W19317  19.636  38.145   1.219
47789W        W19318  10.015  18.733   1.552
47790W        W19319  10.817  27.958  14.846
47791W        W19320   8.533  20.280   0.926
47792W        W19321  13.139  11.186  11.222
47793W        W19322  21.524  10.138  12.117
47794W        W19323   4.972  34.564   4.129
47795W        W19324  26.257  20.219  12.439
47796W        W19325   5.826  24.870   0.821
47797W        W19326  23.009  18.875  12.227
47798W        W19327  15.526  39.908   2.834
47799W        W19328  28.444  35.958   3.518
47800W        W19329  22.048  18.094  11.195
47801W        W19330  33.295  36.993  14.553
47802W        W19331  38.442  30.430   1.935
47803W        W19332  38.537  26.604  14.995
47804W        W19333  39.722  36.080   4.098
47805W        W19334  19.640  39.907   0.714
47806W        W19335  13.836  24.582  13.486
47807W        W19336  27.771   2.491  14.805
47808W        W19337  26.982  39.530  14.300
47809W        W19338  26.015  18.414   5.047
47810W        W19339  22.113  24.011   4.590
47811W        W19340  36.833  39.457   3.289
47812W        W19341  44.417  19.491   3.818
47813W        W19342   0.820   2.281  12.081
47814W        W19343  20.149  38.453  10.480
47815W        W19344  39.498  18.491   4.786
47816W        W19345  26.725  16.829   0.948
47817W        W19346  26.083  37.460  14.047
47818W        W19347  42.422  14.595   1.974
47819W        W19348  44.255  38.941   1.184
47820W        W19349   3.751  19.717   2.657
47821W        W19350  15.642  13.737  13.196
47822W        W19351   2.901  13.788   0.470
47823W        W19352  24.118  21.793  13.140
47824W        W19353   0.460  31.589   0.319
47825W        W19354  40.320  42.968   3.388
47826W        W19355  17.338  26.570   1.508
47827W        W19356  15.831  14.422   0.838
47828W        W19357  32.174  12.252   4.738
47829W        W19358  26.909   7.909   0.429
47830W        W19359  10.314  18.765   5.076
47831W        W19360   1.698  39.535  13.941
47832W        W19361  32.457  35.184   3.545
47833W        W19362   8.715  16.256  13.724
47834W        W19363  32.089  43.977  13.480
47835W        W19364   1.738  21.155   0.604
47836W        W19365  37.754  17.350  13.867
47837W        W19366  35.382   1.589   4.110
47838W        W19367  16.809  41.179   3.187
47839W        W19368  31.660  29.033  13.410
47840W        W19369  36.061  18.300  13.228
47841W        W19370  36.354  21.045   5.223
47842W        W19371  42.387  42.601   4.165
47843W        W19372  26.012   3.885  13.437
47844W        W19373   5.211  43.322   3.666
47845W        W19374  33.979   8.832   2.213
47846W        W19375  23.540  13.336  14.213
47847W        W19376  37.601  41.301   0.808
47848W        W19377  21.381  11.878   1.758
47849W        W19378  40.939  24.672   4.733
47850W        W19379   5.929   0.461  11.125
47851W        W19380  17.987  12.423   2.823
47852W        W19381  29.584  12.158   0.888
47853W        W19382  15.701  29.537   3.874
47854W        W19383  12.859  16.173   2.714
47855W        W19384  26.128  43.442   4.585
47856W        W19385  43.799  13.369   4.298
47857W        W19386  18.373   5.370  12.471
47858W        W19387  24.114  36.372   1.517
47859W        W19388  32.081  23.011  11.697
47860W        W19389  21.350  36.506   0.353
47861W        W19390   7.923  36.649   2.817
47862W        W19391   5.700  22.003  14.830
47863W        W19392   6.927  44.473   2.220
47864W        W19393  34.852  40.143  11.129
47865W        W19394  40.774  42.092  12.008
47866W        W19395  21.008   2.035  13.595
47867W        W19396  16.600  24.186  13.304
47868W        W19397  41.495  36.822  12.476
47869W        W19398   4.099  20.557   1.279
47870W        W19399  34.610   0.542   2.158
47871W        W19400  25.839  31.363  12.958
47872W        W19401  42.793   1.943   1.042
47873W        W19402  31.739  20.809   1.774
47874W        W19403  28.853   1.225  10.492
47875W        W19404  12.983  12.776   3.340
47876W        W19405  10.591  12.191   4.074
47877W        W19406  37.951  44.087  11.549
47878W        W19407  23.625  32.832   0.868
47879W        W19408  27.089   2.330  10.765
47880W        W19409  35.118  18.701  13.118
47881W        W19410   0.518  34.875   4.055
47882W        W19411   5.513  41.026  11.505
47883W        W19412  40.240  15.118   4.147
47884W        W19413  13.750  35.445  10.771
47885W        W19414  13.705  23.026   4.404
47886W        W19415   5.742  20.186   0.398
47887W        W19416  33.101   6.490  10.735
47888W        W19417  12.692  24.878  14.822
47889W        W19418  29.734  42.810   5.012
47890W        W19419   0.491  44.300   2.362
47891W        W19420  27.520  27.335   0.746
47892W        W19421  22.443   4.262   2.396
47893W        W19422  12.835  21.003   3.833
47894W        W19423  41.123   6.037  12.119
47895W        W19424  36.884   0.505  14.843
47896W        W19425   7.913  20.651   1.608
47897W        W19426  34.958  15.934   3.391
47898W        W19427  25.361  22.727  11.128
47899W        W19428   5.454  33.637  12.381
47900W        W19429   2.528  38.074  14.857
47901W        W19430  15.651  41.777   2.215
47902W        W19431  30.477  30.458   2.901
47903W        W19432  38.434  32.686   2.696
47904W        W19433  17.544  10.762  10.278
47905W        W19434  24.682  10.184  13.975
47906W        W19435   7.124   3.125  12.606
47907W        W19436  27.466   3.927  12.125
47908W        W19437  41.032   5.958   2.779
47909W        W19438  38.808  24.968  13.931
47910W        W19439  19.284  15.679  13.430
47911W        W19440   6.686  25.520  10.923
47912W        W19441  28.429  11.817   4.019
47913W        W19442  43.216  38.040   2.338
47914W        W19443  40.743   0.043   1.083
47915W        W19444  37.651  33.523  14.190
47916W        W19445  33.875  44.838  10.647
47917W        W19446  26.490  15.101   0.886
47918W        W19447  42.527   6.675   4.205
47919W        W19448  33.889  32.423  12.474
47920W        W19449  22.620  34.839   4.235
47921W        W19450  36.310   7.953  13.538
47922W        W19451  26.103  42.476   2.258
47923W        W19452  42.268  11.917  11.103
47924W        W19453  32.175  36.372   4.563
47925W        W19454  18.450  24.863  11.850
47926W        W19455   6.696  37.916   1.706
47927W        W19456  20.575  24.124   0.276
47928W        W19457  35.606  39.495  13.097
47929W        W19458   1.576  33.190   1.739
47930W        W19459  43.780  42.320   3.905
47931W        W19460  39.082  38.850  10.245
47932W        W19461  19.706  12.145  13.151
47933W        W19462  34.799  35.646  12.329
47934W        W19463   7.329  37.576  14.010
47935W        W19464   1.438   5.697  14.957
47936W        W19465   0.962  10.686   0.701
47937W        W19466  11.767   4.919  14.811
47938W        W19467  36.066   5.747  14.452
47939W        W19468   7.783  40.029   1.892
47940W        W19469  38.806  21.455   2.187
47941W        W19470  16.763  15.251  11.096
47942W        W19471  15.410  42.007  14.695
47943W        W19472   7.742  15.798  11.949
47944W        W19473  15.027  28.619  14.416
47945W        W19474  17.325  31.041   4.569
47946W        W19475  11.875  27.123   2.156
47947W        W19476  25.128  20.807   4.690
47948W        W19477  20.198  34.857   0.932
47949W        W19478  42.723  42.971   0.344
47950W        W19479  42.561  42.475   1.776
47951W        W19480  20.721  22.443   0.484
47952W        W19481  37.652   1.007   0.714
47953W        W19482  25.981  17.839  11.605
47954W        W19483  27.955  25.490  11.198
47955W        W19484  39.119  32.313  14.880
47956W        W19485  32.472  43.036   3.165
47957W        W19486   8.073   8.180  11.019
47958W        W19487  14.232  35.851  14.276
47959W        W19488   0.053  11.799  14.360
47960W        W19489  28.340   2.438  13.831
47961W        W19490  17.126   2.886  14.706
47962W        W19491   8.864  37.151  14.886
47963W        W19492  33.030   5.493   0.803
47964W        W19493  42.828   3.416   4.248
47965W        W19494  12.438   3.726   0.522
47966W        W19495   7.882  29.490  11.096
47967W        W19496  26.387  44.445  10.999
47968W        W19497  13.637  25.522   0.103
47969W        W19498  32.615   4.717  12.793
47970W        W19499   9.360  32.968  12.803
47971W        W19500  11.951  16.149   4.858
47972W        W19501   8.698  29.242   4.919
47973W        W19502  20.347  37.926   1.522
47974W        W19503   6.239   5.651   3.243
47975W        W19504  27.490   6.780  14.693
47976W        W19505   0.847   4.867   3.204
47977W        W19506  14.718   3.922  13.980
47978W        W19507   0.541  34.377  13.703
47979W        W19508  12.397  31.060   4.085
47980W        W19509  35.427  42.386   0.421
47981W        W19510   9.928  15.859   3.809
47982W        W19511   4.753  23.523   1.696
47983W        W19512  35.819  44.201  13.369
47984W        W19513  19.572   9.232  13.476
47985W        W19514  34.552   1.710  13.362
47986W        W19515  30.054  43.485  10.838
47987W        W19516  11.374  10.624  14.398
47988W        W19517   5.964  39.593  11.464
47989W        W19518   0.519  41.814   2.897
47990W        W19519   8.283  21.009   4.039
47991W        W19520  22.708  43.049  14.998
47992W        W19521   0.889  39.519   1.955
47993W        W19522  31.437  38.220   1.024
47994W        W19523  19.961   8.644   2.905
47995W        W19524   8.426  10.609   1.319
47996W        W19525  20.229   5.476  14.469
47997W        W19526  25.054  31.982   1.670
47998W        W19527  43.880   8.475  13.374
47999W        W19528   9.617  30.360   1.186
48000W        W19529  23.431  33.040  11.580
48001W        W19530  40.798   8.969  13.470
48002W        W19531  40.856  36.869  12.790
48003W        W19532  24.343   5.375  11.729
48004W        W19533  18.092   0.391  12.107
48005W        W19534  44.681  12.411   3.942
48006W        W19535  19.458  16.479   2.135
48007W        W19536  30.142  22.338   2.285
48008W        W19537  14.828  11.783  13.088
48009W        W19538  24.507  17.729  13.448
48010W        W19539  22.087  25.362   0.276
48011W        W19540  41.877  15.184  10.929
48012W        W19541   2.216  30.072  11.107
48013W        W19542  35.487  16.998  12.598
48014W        W19543  26.970  32.343   3.726
48015W        W19544  22.765  41.020  10.300
48016W        W19545  35.523   7.350  13.226
48017W        W19546  27.574   7.418   0.316
48018W        W19547  21.827  36.467  14.447
48019W        W19548  11.609  32.672  11.100
48020W        W19549   8.477  26.087  12.155
48021W        W19550  16.854  24.157  12.838
48022W        W19551  31.299   1.896  14.447
48023W        W19552  25.475  40.913   3.661
48024W        W19553  22.755  30.161  14.461
48025W        W19554  12.583   8.338   4.295
48026W        W19555  30.767  17.761   3.608
48027W        W19556  13.656   1.210  10.479
48028W        W19557  30.687  13.326   0.258
48029W        W19558  12.042   8.397  14.051
48030W        W19559  23.352  25.653  12.425
48031W        W19560  22.834   6.640  14.717
48032W        W19561  40.278   0.684  12.765
48033W        W19562  16.162   0.280   0.174
48034W        W19563  20.425  34.234   0.234
48035W        W19564   2.444  33.888   2.295
48036W        W19565  15.159  18.799   3.533
48037W        W19566  25.127  26.128  14.819
48038W        W19567  27.553   9.999  13.025
48039W        W19568  22.018  37.590  10.289
48040W        W19569  28.067  28.376   3.197
48041W        W19570   2.764  39.831   0.184
48042W        W19571  35.455  16.205   1.292
48043W        W19572   9.419  42.476  13.294
48044W        W19573  11.085  35.520  11.009
48045W        W19574  25.824  17.826   0.763
48046W        W19575  24.740  39.948  11.277
48047W        W19576   6.212  27.054   2.212
48048W        W19577  10.239  27.489  10.797
48049W        W19578  40.855  16.357   3.353
48050W        W19579  21.072  11.182   0.705
48051W        W19580   4.724  43.348   0.284
48052W        W19581  36.581  41.899   2.300
48053W        W19582   5.648  18.741   3.989
48054W        W19583  15.540  41.551   4.524
48055W        W19584   4.370  22.220   2.206
48056W        W19585   8.443  37.618  11.200
48057W        W19586  24.785  16.083  12.905
48058W        W19587  11.622  10.639   3.303
48059W        W19588   2.701  38.663  13.888
48060W        W19589  29.959  31.710  14.503
48061W        W19590  11.890  23.839   3.188
48062W        W19591  15.590   4.909   1.435
48063W        W19592   0.970  43.247  13.016
48064W        W19593  37.029  29.171   2.533
48065W        W19594  42.745   6.004  13.017
48066W        W19595  12.253  15.913  11.502
48067W        W19596  18.657  32.973  12.499
48068W        W19597   2.362   2.281   1.504
48069W        W19598   3.200  17.337  11.255
48070W        W19599  19.264  16.621   4.400
48071W        W19600   5.319  38.973  11.652
48072W        W19601  15.773  25.069   0.085
48073W        W19602  36.362  44.418   2.428
48074W        W19603  14.752  26.546  14.406
48075W        W19604  42.213   7.178   0.564
48076W        W19605  12.723   5.252  10.720
48077W        W19606  41.925  19.241  11.170
48078W        W19607  28.681   2.924  13.830
48079W        W19608   0.713  41.550   0.732
48080W        W19609  18.320  19.416  10.126
48081W        W19610  33.912  40.596  12.897
48082W        W19611  40.887  30.105   1.652
48083W        W19612  20.379  42.452  11.384
48084W        W19613  28.364  37.598  14.288
48085W        W19614  32.605   4.857  14.820
48086W        W19615   0.801  13.370   1.140
48087W        W19616   8.776  31.441  14.187
48088W        W19617  44.293  39.325  13.943
48089W        W19618   7.866  18.341  13.374
48090W        W19619  14.950  30.094   2.459
48091W        W19620  42.324  39.968  11.871
48092W        W19621   0.040  32.119   1.283
48093W        W19622  23.128  38.368  11.120
48094W        W19623  15.282   7.291  13.333
48095W        W19624   1.770  21.177  13.110
48096W        W19625  28.565  42.600  13.771
48097W        W19626  35.308  20.759  12.823
48098W        W19627  22.998  27.651  11.524
48099W        W19628  36.299  26.691   3.250
48100W        W19629  39.458  10.594  13.008
48101W        W19630   3.958  19.240   9.808
48102W        W19631   5.408  37.936   4.503
48103W        W19632   9.177  41.813   4.466
48104W        W19633  41.076  29.772  11.171
48105W        W19634  21.734  40.739  12.578
48106W        W19635   7.177  10.505  10.713
48107W        W19636   2.415  19.268   2.819
48108W        W19637  27.399  27.799  11.908
48109W        W19638  39.777  14.286   3.706
48110W        W19639   8.597  10.091  12.895
48111W        W19640  38.516   3.449   0.784
48112W        W19641  33.154  15.259   4.690
48113W        W19642  25.830  37.360  14.922
48114W        W19643  35.496  22.249   2.300
48115W        W19644  23.964  25.953   3.265
48116W        W19645  15.328  21.668  14.444
48117W        W19646  12.584   8.812   0.587
48118W        W19647  23.640   3.026   0.202
48119W        W19648  42.001  38.964   3.740
48120W        W19649  33.127   1.727  10.944
48121W        W19650   3.725   5.938  12.255
48122W        W19651   9.190  41.285  14.476
48123W        W19652  12.287  38.444  14.497
48124W        W19653  28.098   1.482   2.850
48125W        W19654  29.389  24.170   3.345
48126W        W19655  15.754   2.275   3.256
48127W        W19656  18.800  22.255  10.184
48128W        W19657   3.938  10.802   3.734
48129W        W19658  27.242  17.854   1.883
48130W        W19659  20.689  44.142  11.393
48131W        W19660  29.480  29.694   3.345
48132W        W19661  21.265  29.550  11.203
48133W        W19662  11.696  32.017   3.058
48134W        W19663  37.533  24.606  11.038
48135W        W19664  32.658  34.050   1.308
48136W        W19665  10.214  15.415   1.811
48137W        W19666  41.234  43.064   1.778
48138W        W19667   7.895  22.360  10.874
48139W        W19668  16.041  17.288   2.737
48140W        W19669  17.338  18.068  10.475
48141W        W19670  40.831  41.326  11.512
48142W        W19671   8.805  35.808   3.338
48143W        W19672   2.979  24.547   2.347
48144W        W19673  27.411  11.356   3.557
48145W        W19674  15.229   5.465   4.417
48146W        W19675  13.998  23.908   1.796
48147W        W19676  37.795   6.077   0.285
48148W        W19677  42.411  11.864  14.718
48149W        W19678  42.028  32.227   2.074
48150W        W19679  20.946  22.294   2.645
48151W        W19680  25.022  30.108   0.222
48152W        W19681   8.110  18.733   1.361
48153W        W19682  33.116  32.547  11.167
48154W        W19683  21.136  20.546   2.399
48155W        W19684  38.004  23.445  11.430
48156W        W19685  38.212  32.088   1.735
48157W        W19686   2.207  17.096  14.356
48158W        W19687  36.440  34.137  12.960
48159W        W19688   9.105  38.981   1.476
48160W        W19689  42.590  33.940   3.866
48161W        W19690  28.231  19.945   2.793
48162W        W19691  22.638  20.657   4.250
48163W        W19692  37.350  43.969  10.716
48164W        W19693  16.805  14.296   2.482
48165W        W19694  41.981   4.830   3.158
48166W        W19695   0.725  21.608  12.186
48167W        W19696  27.594   5.386   3.889
48168W        W19697   0.312   9.749   2.855
48169W        W19698  34.898   6.816  11.503
48170W        W19699  29.961  13.139   4.075
48171W        W19700  43.441  23.460   3.967
48172W        W19701  38.819   7.148  14.365
48173W        W19702  34.497  40.544  12.616
48174W        W19703  42.423  21.039  12.843
48175W        W19704  38.571  15.792   3.105
48176W        W19705   6.110   5.131   1.814
48177W        W19706   3.274  14.563   3.695
48178W        W19707  28.713  44.384  10.854
48179W        W19708  40.413  37.574   3.569
48180W        W19709   5.350   5.723  14.544
48181W        W19710   7.885   0.329   4.265
48182W        W19711  12.533  37.847  13.064
48183W        W19712  24.611  29.291   1.357
48184W        W19713  31.171   1.938  10.768
48185W        W19714   6.692   6.593  12.528
48186W        W19715  11.672  14.280  14.034
48187W        W19716  26.945   7.855  14.302
48188W        W19717  10.436  15.177  13.112
48189W        W19718  22.598  17.581  12.046
48190W        W19719  22.515  31.175   3.343
48191W        W19720  27.423  22.596  12.142
48192W        W19721  34.567  13.026  14.453
48193W        W19722  30.599  15.974  14.905
48194W        W19723  41.043  31.906   2.750
48195W        W19724  14.565  14.327   1.117
48196W        W19725  18.583  15.066  13.969
48197W        W19726   0.644  35.361   3.302
48198W        W19727  13.256  43.602   0.772
48199W        W19728   4.637  16.543   1.778
48200W        W19729  21.462  22.648   5.195
48201W        W19730   2.772  15.357   0.975
48202W        W19731  10.289   2.228  11.463
48203W        W19732  32.341  22.724   3.332
48204W        W19733  17.727  12.743  10.968
48205W        W19734  33.867  15.012   0.157
48206W        W19735  22.698  41.774  14.379
48207W        W19736  34.071   8.331   0.424
48208W        W19737  40.844  27.611  12.453
48209W        W19738  25.091  23.134  12.809
48210W        W19739  44.003  34.215   0.501
48211W        W19740  18.526  26.558  11.540
48212W        W19741   0.700   5.433   1.248
48213W        W19742  19.569  25.405   3.875
48214W        W19743  18.329  42.453   2.205
48215W        W19744  22.140  41.644  13.484
48216W        W19745  24.497  26.640   2.769
48217W        W19746  42.247  20.633   2.167
48218W        W19747  10.611  30.831  11.581
48219W        W19748  20.751  33.449   2.034
48220W        W19749   3.478  28.653   0.516
48221W        W19750  27.510  12.847  13.757
48222W        W19751   8.346  11.132  14.576
48223W        W19752  22.440  32.681   1.859
48224W        W19753   5.971  34.604   3.707
48225W        W19754   8.376  41.394   3.584
48226W        W19755  44.015   8.854   3.415
48227W        W19756  43.936   5.220   0.825
48228W        W19757  30.565   3.179  12.018
48229W        W19758  18.563  38.706   0.458
48230W        W19759   7.062  36.018   0.037
48231W        W19760  19.818   9.517  11.478
48232W        W19761  41.003  32.859   1.772
48233W        W19762  30.531  12.723   0.307
48234W        W19763  17.617  24.534  10.637
48235W        W19764  40.440  31.092  13.293
48236W        W19765   1.844  43.797  14.963
48237W        W19766  33.348  27.801  12.585
48238W        W19767  22.728  43.846  12.130
48239W        W19768   1.031  10.675  14.036
48240W        W19769  37.262  24.977   0.752
48241W        W19770  34.010   5.345  14.343
48242W        W19771  14.107  23.649   2.256
48243W        W19772  30.208   8.012  13.136
48244W        W19773  24.788  24.326  14.840
48245W        W19774  43.895  22.476   2.178
48246W        W19775  21.193   1.299   1.915
48247W        W19776  28.497  17.568   2.269
48248W        W19777  21.595  41.503  11.210
48249W        W19778  40.542  41.506  10.577
48250W        W19779  12.180   7.044   4.699
48251W        W19780  16.175  12.131   4.569
48252W        W19781  14.328  18.722   2.221
48253W        W19782  36.810  25.853  13.947
48254W        W19783  13.690  36.009  13.422
48255W        W19784  31.092  38.999   3.755
48256W        W19785  10.636  30.211   0.291
48257W        W19786  33.558  36.974   0.003
48258W        W19787  36.652  37.095  13.400
48259W        W19788  18.310  17.033  12.847
48260W        W19789  12.888  36.898  12.804
48261W        W19790  13.120  32.808   2.005
48262W        W19791   0.721  16.541  12.704
48263W        W19792  42.380  39.862   1.825
48264W        W19793   7.077  36.646   0.804
48265W        W19794  39.409  23.337   4.411
48266W        W19795   1.225   8.358  10.683
48267W        W19796   6.654  18.807   1.366
48268W        W19797  33.515  26.181   0.426
48269W        W19798  42.755   0.815   4.245
48270W        W19799  18.027  43.805   2.784
48271W        W19800  14.066  41.757   1.790
48272W        W19801  30.486  29.588  10.779
48273W        W19802   4.195  36.480  12.008
48274W        W19803  17.942   7.427  10.689
48275W        W19804  17.166  36.295   3.930
48276W        W19805  29.094  41.097  12.268
48277W        W19806  30.579  16.737  13.853
48278W        W19807  36.719  41.385   3.316
48279W        W19808  36.605  38.711   5.111
48280W        W19809  16.830   5.198   2.770
48281W        W19810   8.684  26.507  12.399
48282W        W19811  35.070  39.316   1.381
48283W        W19812  10.740   5.202  13.504
48284W        W19813  21.465  15.636  12.085
48285W        W19814  11.406   6.127  10.403
48286W        W19815  10.127   7.598   2.078
48287W        W19816   5.718   3.175   2.664
48288W        W19817  13.302  17.711   3.071
48289W        W19818  37.512  23.528  14.133
48290W        W19819   5.367  10.555  13.076
48291W        W19820  33.947   5.952   4.774
48292W        W19821   0.942   1.383  12.019
48293W        W19822  22.831  24.344  10.753
48294W        W19823  32.294  18.711   2.760
48295W        W19824   4.166  32.678  14.029
48296W        W19825  31.965   7.467   2.820
48297W        W19826  33.049  17.206  11.366
48298W        W19827   3.666  14.108   5.286
48299W        W19828  39.911  25.477  10.728
48300W        W19829  39.301  21.009   1.448
48301W        W19830  11.385  25.606  13.134
48302W        W19831  18.978  25.978   0.896
48303W        W19832  23.091   8.333   0.477
48304W        W19833  42.039   6.857   4.127
48305W        W19834  39.597  19.019   2.175
48306W        W19835   6.760  29.062   1.670
48307W        W19836  24.307   8.907   0.753
48308W        W19837  34.339  23.314   1.818
48309W        W19838  24.881   7.915  13.832
48310W        W19839  36.792  14.759   0.299
48311W        W19840  26.344   6.101  11.401
48312W        W19841   2.974  25.653   1.781
48313W        W19842   3.057  21.758   3.767
48314W        W19843  20.523  21.841   3.663
48315W        W19844  22.504  15.808   3.197
48316W        W19845  14.273  41.972   4.078
48317W        W19846   9.926  33.053   1.992
48318W        W19847   5.958  10.228  13.401
48319W        W19848   9.821  11.204   1.486
48320W        W19849  13.142  37.157   2.744
48321W        W19850  11.880  23.036   4.634
48322W        W19851  43.466  11.224   4.689
48323W        W19852  44.527  30.777   1.348
48324W        W19853  18.760   7.982   3.116
48325W        W19854  38.934   6.673   1.337
48326W        W19855  12.253   2.837   4.360
48327W        W19856  40.998  26.624   0.680
48328W        W19857  12.603  29.734  14.337
48329W        W19858  21.807  40.405  13.274
48330W        W19859  19.493  43.978   2.842
48331W        W19860  16.052  25.556  13.793
48332W        W19861   8.406   5.290   0.415
48333W        W19862  17.266  25.165  12.513
48334W        W19863   2.030   8.765  14.840
48335W        W19864  32.857  26.579   0.984
48336W        W19865   1.486   5.278   2.668
48337W        W19866  13.038  20.735  12.487
48338W        W19867   6.858  34.321   2.242
48339W        W19868   6.200   6.148   0.418
48340W        W19869   2.747  29.521  13.224
48341W        W19870  42.989   4.467  13.900
48342W        W19871   1.953  35.654  14.337
48343W        W19872  16.768   4.660  13.896
48344W        W19873  27.798  41.187   4.686
48345W        W19874  19.170   1.859  12.054
48346W        W19875  30.574  28.070   0.710
48347W        W19876  14.584  25.211  12.205
48348W        W19877  20.696   8.422  11.511
48349W        W19878  21.509  37.937  10.311
48350W        W19879  12.471   4.482  10.326
48351W        W19880   8.734  11.886  14.577
48352W        W19881  18.678   7.792  11.673
48353W        W19882  15.384  40.947   3.591
48354W        W19883  21.823  25.090   3.360
48355W        W19884   9.837  31.825   5.112
48356W        W19885  13.063  32.839  11.631
48357W        W19886  14.478   5.364  11.336
48358W        W19887  12.301   3.907  12.424
48359W        W19888  26.990   7.928   2.300
48360W        W19889  19.065   8.206   0.924
48361W        W19890  14.703   5.951  13.698
48362W        W19891  14.646  32.387  10.410
48363W        W19892  34.928   8.946   3.649
48364W        W19893  27.071  19.155   3.351
48365W        W19894  13.706   9.145  14.371
48366W        W19895   1.048  31.506  12.090
48367W        W19896  41.068  41.045  13.624
48368W        W19897  38.402  30.455  10.364
48369W        W19898  40.624  18.251  12.507
48370W        W19899  17.280   5.632  14.798
48371W        W19900  42.876  40.323  10.562
48372W        W19901  39.208  25.400   3.176
48373W        W19902  44.442  15.166  12.463
48374W        W19903   6.598  40.474  12.118
48375W        W19904   4.411  11.886   3.180
48376W        W19905  40.625   3.200  11.158
48377W        W19906  23.508   7.153   0.821
48378W        W19907  36.012  33.182  13.974
48379W        W19908  13.064  32.460  11.969
48380W        W19909  11.798   4.113   2.880
48381W        W19910   2.262   4.459   2.511
48382W        W19911  28.362  16.032  14.166
48383W        W19912  26.689   8.908   2.394
48384W        W19913  12.188  26.960   1.739
48385W        W19914  21.035  38.809  13.462
48386W        W19915  37.818  34.826   1.492
48387W        W19916  41.001  23.627   1.684
48388W        W19917  30.210   4.409   0.188
48389W        W19918  11.920  21.694  14.729
48390W        W19919   2.732   4.301   2.681
48391W        W19920  34.984  43.213  14.247
48392W        W19921  37.006  44.049   0.378
48393W        W19922  32.076  10.405  14.247
48394W        W19923  41.459  30.608  12.590
48395W        W19924  15.386   5.613  10.972
48396W        W19925   8.557  21.126  12.913
48397W        W19926  29.741   9.308   3.695
48398W        W19927  34.423  27.630   0.445
48399W        W19928  13.145   4.808  14.531
48400W        W19929   2.532  41.292  13.769
48401W        W19930  37.984  38.606   3.507
48402W        W19931   8.806   6.152   0.810
48403W        W19932   4.910  19.931  11.164
48404W        W19933  30.929   7.785  10.471
48405W        W19934  10.873  43.528  12.484
48406W        W19935  43.066  33.874  12.842
48407W        W19936   0.749  19.436  10.039
48408W        W19937  18.527  31.973   4.961
48409W        W19938  38.202  17.528   2.388
48410W        W19939  34.769  29.544   2.377
48411W        W19940  13.868  39.121  11.155
48412W        W19941  29.535   7.684  14.255
48413W        W19942  17.597  32.943  12.292
48414W        W19943  21.935  18.562   2.265
48415W        W19944  40.594  24.016  10.740
48416W        W19945  10.634  41.597   2.644
48417W        W19946  43.300   0.726  12.431
48418W        W19947  32.581  34.923  13.419
48419W        W19948  23.563  29.673   0.281
48420W        W19949   3.787  29.934  14.499
48421W        W19950   1.777  21.032   3.780
48422W        W19951  43.453  13.924   3.081
48423W        W19952  40.433   6.815  13.568
48424W        W19953  15.308  39.778   1.975
48425W        W19954  20.985  18.742  11.445
48426W        W19955  23.424  27.418   3.222
48427W        W19956  32.598  43.217   4.803
48428W        W19957   3.710  25.727   0.364
48429W        W19958  41.571   8.341   4.050
48430W        W19959  20.595  34.892  12.035
48431W        W19960  42.409  17.381  13.403
48432W        W19961  29.304  35.454  12.056
48433W        W19962   3.146  34.505  10.483
48434W        W19963  44.136  31.595  11.665
48435W        W19964  30.610  28.122  13.326
48436W        W19965   0.464  33.494   1.190
48437W        W19966  36.525   9.385   0.048
48438W        W19967  14.751  15.627   0.042
48439W        W19968   9.741  23.862   1.241
48440W        W19969  17.117  17.203  13.020
48441W        W19970  32.696  21.687  13.824
48442W        W19971  30.861  31.029  11.646
48443W        W19972  37.751  43.233  11.925
48444W        W19973   5.281  36.748   0.457
48445W        W19974  25.144  14.960  14.326
48446W        W19975   2.407   2.305   4.224
48447W        W19976  10.877  43.385   1.996
48448W        W19977  15.698  15.331   0.795
48449W        W19978  21.508   1.565  12.901
48450W        W19979   9.747   1.740   1.701
48451W        W19980  16.755  22.239   2.873
48452W        W19981  33.882  26.656  11.876
48453W        W19982  37.885   9.196  12.288
48454W        W19983  32.429  33.259   1.248
48455W        W19984  38.989  19.180  12.533
48456W        W19985  13.577   6.470  13.398
48457W        W19986  21.501  14.907  10.711
48458W        W19987  37.921   2.174  10.581
48459W        W19988  32.414  28.439   4.686
48460W        W19989  12.518  41.881  10.727
48461W        W19990  39.141  26.527  11.970
48462W        W19991  35.359   8.706   4.223
48463W        W19992  35.500  32.177   0.575
48464W        W19993  43.504  10.232   0.759
48465W        W19994  17.938  15.761  11.710
48466W        W19995  10.438  40.196  11.586
48467W        W19996  32.804   9.903   0.875
48468W        W19997  12.141  31.118  12.391
48469W        W19998   8.473   3.322  14.445
48470W        W19999  21.055  18.308   4.251
48471W        W20000  10.376  37.876  11.484
48472W        W20001  35.509   3.682   2.387
48473W        W20002  22.174  11.207  10.498
48474W        W20003  12.833  33.524  11.124
48475W        W20004  15.320  30.957   2.689
48476W        W20005  22.717  35.812   3.766
48477W        W20006   0.287  13.114  13.500
48478W        W20007   7.075  43.145  14.316
48479W        W20008  34.766  18.679  14.427
48480W        W20009   2.388  40.865  13.979
48481W        W20010  42.113   8.811  14.491
48482W        W20011  37.858  11.745   3.157
48483W        W20012  26.372  15.756   4.200
48484W        W20013  23.504  16.211  13.532
48485W        W20014   7.381  19.857   5.190
48486W        W20015  15.585  23.692   3.916
48487W        W20016  26.382   9.553   0.296
48488W        W20017  15.896  30.153  10.350
48489W        W20018  38.314  44.048   2.719
48490W        W20019  21.268  26.670  10.939
48491W        W20020  35.071  20.844   4.032
48492W        W20021  16.883  31.410  13.806
48493W        W20022  38.490  12.823  10.427
48494W        W20023  32.516  30.297  13.901
48495W        W20024  38.569  29.404   1.917
48496W        W20025   5.450  32.968   4.387
48497W        W20026  12.282  12.095  12.519
48498W        W20027  30.287  13.313  11.190
48499W        W20028  41.836  36.048  12.063
48500W        W20029  42.044  19.551   3.238
48501W        W20030  40.063  33.973   3.720
48502W        W20031  10.159  14.718   3.327
48503W        W20032  42.597   6.554  11.449
48504W        W20033  31.673  14.772  11.567
48505W        W20034  39.547   4.369   0.009
48506W        W20035   1.052  21.585  11.308
48507W        W20036  17.619  17.088  14.742
48508W        W20037  30.679   1.173  11.170
48509W        W20038   6.814   2.384   2.213
48510W        W20039  36.265  11.138  11.118
48511W        W20040   2.174  14.207   3.222
48512W        W20041  23.112  21.757  14.443
48513W        W20042  19.590  11.982   0.458
48514W        W20043  12.825  17.292  12.162
48515W        W20044  17.874   0.661   4.144
48516W        W20045   4.755  31.186   2.411
48517W        W20046  38.003  12.273   4.247
48518W        W20047  14.679  37.983   3.303
48519W        W20048   7.139  23.798   3.960
48520W        W20049  37.801  22.065   4.080
48521W        W20050  28.594  21.296  12.099
48522W        W20051   3.070  37.475  14.552
48523W        W20052  42.358   1.376   2.601
48524W        W20053  29.475  29.585  10.643
48525W        W20054  40.409  25.290  13.403
48526W        W20055  40.977  41.709   1.445
48527W        W20056  26.088  21.559  13.344
48528W        W20057   6.873  14.701   1.919
48529W        W20058  37.074  34.412  12.289
48530W        W20059  26.934  19.405   2.888
48531W        W20060   1.656   3.859  12.464
48532W        W20061  13.601  30.930   1.563
48533W        W20062  40.313   4.368   4.211
48534W        W20063  34.810  38.835  14.874
48535W        W20064   5.941   4.233  12.537
48536W        W20065   9.431  19.614   3.503
48537W        W20066  42.612  29.250   3.716
48538W        W20067  24.029   9.809   4.410
48539W        W20068  29.954   2.803   3.276
48540W        W20069   8.686  11.205   4.747
48541W        W20070  40.110   7.335  12.733
48542W        W20071  11.414  31.041  14.989
48543W        W20072  26.607   3.010   4.605
48544W        W20073   8.289  23.924   4.224
48545W        W20074  38.645  36.967   3.796
48546W        W20075  31.515  30.463   2.325
48547W        W20076  30.985   7.077   2.792
48548W        W20077  15.680  24.758   2.861
48549W        W20078  24.928  37.186  13.350
48550W        W20079  20.457  34.203   3.378
48551W        W20080  12.632   4.234  12.200
48552W        W20081   9.772  35.974   3.583
48553W        W20082   6.130   5.939  13.483
48554W        W20083  14.650  32.480   1.225
48555W        W20084  43.088  23.097  11.107
48556W        W20085  42.902  40.306   2.660
48557W        W20086  10.015  42.323   4.868
48558W        W20087  42.907   0.497   4.643
48559W        W20088  28.682   1.457   0.713
48560W        W20089  16.847  35.195  12.013
48561W        W20090  23.082   5.297   3.517
48562W        W20091  35.826   2.828  11.598
48563W        W20092  25.244  11.194  12.581
48564W        W20093   8.503  12.355  13.875
48565W        W20094   0.299  12.818   4.619
48566W        W20095  38.074  33.024  12.474
48567W        W20096   7.396  14.163   4.034
48568W        W20097  14.181  25.620   2.239
48569W        W20098   5.335  20.576  11.543
48570W        W20099   5.215  37.169  12.384
48571W        W20100  17.410  38.504  13.365
48572W        W20101   4.172  11.794   1.351
48573W        W20102  31.421  36.137  11.534
48574W        W20103   5.971  20.605  14.344
48575W        W20104  22.924  37.948  10.610
48576W        W20105  12.677  44.865   1.637
48577W        W20106  23.922  25.114   1.291
48578W        W20107  25.365   8.341  13.847
48579W        W20108  20.685  37.613  10.835
48580W        W20109  24.770   0.289   0.126
48581W        W20110  16.486  10.202  14.932
48582W        W20111  30.391  15.505  11.023
48583W        W20112  37.374  41.355  10.539
48584W        W20113  23.369  38.320   0.569
48585W        W20114  19.368  21.848  14.383
48586W        W20115  20.205  12.750  12.401
48587W        W20116   7.201  24.250   4.604
48588W        W20117  34.375  35.358   3.213
48589W        W20118  26.951   4.483  13.931
48590W        W20119  44.818  24.488   1.266
48591W        W20120   8.691  41.337   2.430
48592W        W20121  38.262  18.261   1.168
48593W        W20122  10.538   0.312   2.497
48594W        W20123   2.998  15.580  13.196
48595W        W20124  23.665  30.991   2.793
48596W        W20125  31.156  41.134  13.286
48597W        W20126  10.828  21.522   3.929
48598W        W20127   9.997  19.496  10.750
48599W        W20128  38.270  40.740   1.219
48600W        W20129  34.920   6.711  12.406
48601W        W20130  43.054  15.704   0.072
48602W        W20131  22.602  13.612   0.362
48603W        W20132   8.570   5.193  12.082
48604W        W20133   1.401  24.238  11.161
48605W        W20134  14.700  32.954  14.515
48606W        W20135  10.195  42.299  11.126
48607W        W20136  34.645  23.034  12.515
48608W        W20137  39.454  15.085   3.257
48609W        W20138  27.635  14.563  14.502
48610W        W20139  18.280  17.197   1.881
48611W        W20140  26.396  44.131  10.153
48612W        W20141  10.061  40.029  12.557
48613W        W20142  25.940  43.525  10.569
48614W        W20143   4.787  30.549   1.621
48615W        W20144  32.897  19.080   1.192
48616W        W20145  17.030  44.931  12.783
48617W        W20146  41.143  27.932   2.405
48618W        W20147  28.469  27.534   1.802
48619W        W20148  11.225  20.687   0.818
48620W        W20149  32.881  32.670  12.410
48621W        W20150  24.220   2.517   1.425
48622W        W20151  15.582  12.825  12.898
48623W        W20152  17.145  17.708  14.466
48624W        W20153  20.779  18.552   3.612
48625W        W20154  26.556   0.573  11.858
48626W        W20155  30.104  21.281  11.526
48627W        W20156  37.907   5.302   0.870
48628W        W20157  32.990   3.117  11.988
48629W        W20158  13.650  14.848   1.356
48630W        W20159  37.451  42.026   3.783
48631W        W20160   4.650  33.902   4.249
48632W        W20161  17.539  29.438   3.642
48633W        W20162  21.960  23.131  14.562
48634W        W20163  10.757  18.008   0.741
48635W        W20164  10.820   0.257  12.184
48636W        W20165  25.375  26.636  13.909
48637W        W20166  13.264  26.060   0.048
48638W        W20167  34.080  15.614  13.969
48639W        W20168  11.103  14.650   4.956
48640W        W20169  28.406  16.593   2.227
48641W        W20170  29.335   9.114   0.980
48642W        W20171  33.793  28.894   1.700
48643W        W20172  13.094  11.808   3.193
48644W        W20173  33.375   8.261   4.639
48645W        W20174  17.583   0.834   2.713
48646W        W20175  42.156  15.244   3.634
48647W        W20176  38.631  21.002   2.961
48648W        W20177   5.259   3.628   4.083
48649W        W20178  34.624  23.055  13.831
48650W        W20179  29.396   8.333  13.386
48651W        W20180   7.038   4.261  14.981
48652W        W20181  28.620  13.164  11.931
48653W        W20182  17.170  31.597   0.797
48654W        W20183   1.514  35.020   1.306
48655W        W20184  11.582  15.827   1.805
48656W        W20185  33.344  13.531   2.829
48657W        W20186   6.082  31.541   2.335
48658W        W20187  36.680  21.723  13.936
48659W        W20188  43.055  34.413   2.959
48660W        W20189  18.990  36.611   0.803
48661W        W20190  35.505  44.363   0.465
48662W        W20191  19.624   0.524  14.345
48663W        W20192  35.165  21.949  11.917
48664W        W20193  30.933  10.302   5.023
48665W        W20194   7.172  24.978  11.624
48666W        W20195   7.693   4.903  12.403
48667W        W20196  22.836  22.621   4.154
48668W        W20197  22.548  42.157   2.322
48669W        W20198  10.216   6.209  12.862
48670W        W20199  23.012  31.242   4.544
48671W        W20200  34.987  15.787  10.326
48672W        W20201   6.124  32.837   1.708
48673W        W20202  14.351  26.441  13.927
48674W        W20203  28.979  26.597  12.605
48675W        W20204  19.932  28.702   0.278
48676W        W20205   8.098  26.298  14.149
48677W        W20206  34.000  17.495   3.395
48678W        W20207  27.209  43.711  12.837
48679W        W20208  15.096  35.608  11.169
48680W        W20209  10.808  39.362   0.607
48681W        W20210  43.247  13.890   1.904
48682W        W20211  10.685  21.837   1.850
48683W        W20212  26.669   8.364  14.970
48684W        W20213  41.501   0.503  12.068
48685W        W20214  10.722  43.378  13.535
48686W        W20215  35.538   3.339  14.152
48687W        W20216  30.096  36.611   1.404
48688W        W20217   5.657   2.462  14.919
48689W        W20218  12.372  30.987  13.718
48690W        W20219  20.294  32.083   0.802
48691W        W20220  12.699  17.941   0.779
48692W        W20221  13.352  20.703  12.025
48693W        W20222  24.515   2.905   1.195
48694W        W20223  16.113  35.459   0.503
48695W        W20224   2.809  22.007  14.867
48696W        W20225  21.700  13.390  12.963
48697W        W20226  14.817   5.819  14.186
48698W        W20227  10.192  39.828   1.898
48699W        W20228  33.714   9.805   3.420
48700W        W20229  14.839  14.062   2.542
48701W        W20230  42.732  44.249  10.831
48702W        W20231  38.095   5.681  11.636
48703W        W20232   3.896   8.106   3.194
48704W        W20233   8.791   0.676   2.711
48705W        W20234  22.907  31.463   1.096
48706W        W20235   1.018  44.693  10.708
48707W        W20236  36.426  25.296   1.502
48708W        W20237  44.264  27.535  13.383
48709W        W20238  35.075  11.150   4.655
48710W        W20239  38.556  35.472  10.952
48711W        W20240  43.690  26.446  11.935
48712W        W20241  18.558  26.657  13.335
48713W        W20242  42.512  16.235   3.403
48714W        W20243  23.109  32.929  13.314
48715W        W20244  43.238  19.306  11.402
48716W        W20245   4.412  18.323  12.304
48717W        W20246   8.212   4.623  13.347
48718W        W20247  25.639   7.634   5.277
48719W        W20248  14.064  14.042   0.447
48720W        W20249  10.131   5.373   0.779
48721W        W20250  32.071  32.431  11.325
48722W        W20251   0.201   7.512   2.826
48723W        W20252  39.998  13.783  11.692
48724W        W20253  35.259  37.004   3.107
48725W        W20254  36.348   2.050   1.307
48726W        W20255  19.212  18.508   1.781
48727W        W20256  26.515  43.680   1.331
48728W        W20257  20.115  22.160   3.711
48729W        W20258   3.889  41.021  12.040
48730W        W20259  36.310  38.317   0.757
48731W        W20260   8.805  33.973  11.547
48732W        W20261   7.212  19.314  12.326
48733W        W20262  39.089  13.233  14.696
48734W        W20263  12.309  10.746  11.065
48735W        W20264  12.105  34.592  14.722
48736W        W20265   4.268  12.437  12.063
48737W        W20266  26.232  37.300   1.796
48738W        W20267  37.582  29.595   0.324
48739W        W20268  27.920  18.283  12.798
48740W        W20269  40.279  42.022  13.823
48741W        W20270  24.794   9.373  14.352
48742W        W20271   2.440  43.575  14.963
48743W        W20272  40.008   0.909  12.063
48744W        W20273  36.144  25.932   0.814
48745W        W20274  14.678  22.520   1.798
48746W        W20275  12.140   5.638  14.384
48747W        W20276  37.918  24.160   4.666
48748W        W20277  10.873  23.526  12.535
48749W        W20278  24.813  11.840   4.408
48750W        W20279  44.931  43.913   4.441
48751W        W20280  29.440   5.710  13.663
48752W        W20281  43.439   8.718   2.306
48753W        W20282  30.547  44.764  14.469
48754W        W20283  31.612   9.608   3.342
48755W        W20284  22.754  36.489   0.710
48756W        W20285   4.239   3.303  14.778
48757W        W20286  11.800   5.414  11.103
48758W        W20287  21.941  18.470  14.001
48759W        W20288   4.127   2.753  10.569
48760W        W20289  23.984  27.508  11.602
48761W        W20290  31.078   4.116  10.879
48762W        W20291  37.326  29.570  12.667
48763W        W20292  44.751  35.603   4.604
48764W        W20293  39.860  26.040   2.174
48765W        W20294  23.698  39.334  11.112
48766W        W20295  17.075  13.567   4.110
48767W        W20296  10.088   6.769   1.690
48768W        W20297  41.942  42.421  13.789
48769W        W20298   7.130  26.694   2.249
48770W        W20299  10.463  22.264  13.595
48771W        W20300  13.546  32.557   4.215
48772W        W20301  11.735  15.010   3.592
48773W        W20302  28.648  43.569  13.878
48774W        W20303  25.599  26.383   2.882
48775W        W20304  43.224  40.320   3.095
48776W        W20305  41.131   5.899  14.373
48777W        W20306  15.095  14.368  11.124
48778W        W20307  42.187  36.108   4.098
48779W        W20308  23.148  41.512  14.370
48780W        W20309  14.682  12.780   1.651
48781W        W20310   8.439  24.083  13.551
48782W        W20311  15.584  11.986   5.301
48783W        W20312   9.704   2.811  10.672
48784W        W20313   3.703   8.621  11.674
48785W        W20314  35.760  19.146  12.450
48786W        W20315  41.148  42.487   4.935
48787W        W20316  29.346   1.142  10.591
48788W        W20317  10.949  27.467   3.649
48789W        W20318   6.838   5.219  11.349
48790W        W20319  29.653  32.287   0.149
48791W        W20320  33.040   7.988  14.979
48792W        W20321  29.316   5.804   0.957
48793W        W20322  26.153  26.204   3.701
48794W        W20323  34.623  13.866  14.159
48795W        W20324   1.520  17.739   3.117
48796W        W20325  17.078   6.001  12.394
48797W        W20326  25.608  14.513   1.025
48798W        W20327  23.618   8.350  11.168
48799W        W20328  26.238  36.039   0.596
48800W        W20329  12.393  11.858  12.081
48801W        W20330   9.292   0.526   4.065
48802W        W20331   8.671  42.967  11.890
48803W        W20332  20.005  42.633  13.472
48804W        W20333   5.803  11.908  13.462
48805W        W20334  11.177   7.217   3.208
48806W        W20335  13.731  38.243   0.907
48807W        W20336   9.338  21.767   2.311
48808W        W20337  42.550  40.856   2.818
48809W        W20338   7.579  43.575   3.133
48810W        W20339  40.562  11.331  13.441
48811W        W20340  43.886  39.254   3.349
48812W        W20341  15.854  35.338  10.927
48813W        W20342   9.973  42.793  13.854
48814W        W20343   8.598   5.718   2.831
48815W        W20344  17.038  41.970   1.866
48816W        W20345  37.364  43.418  10.701
48817W        W20346  20.137  16.466   4.644
48818W        W20347  40.136  20.059   1.349
48819W        W20348  42.343  11.268   4.658
48820W        W20349  13.081  18.363  11.238
48821W        W20350   5.345   8.026   4.805
48822W        W20351  34.923  36.947   4.836
48823W        W20352  17.953  16.861   0.122
48824W        W20353  19.822  27.135   1.429
48825W        W20354  35.941  20.730  11.544
48826W        W20355  32.101   8.181  10.648
48827W        W20356  43.354   1.807   1.689
48828W        W20357  24.752  35.562   1.428
48829W        W20358  27.898   6.045   4.143
48830W        W20359  11.939  36.651  12.508
48831W        W20360  41.384   0.828  10.906
48832W        W20361  13.092  18.549  11.715
48833W        W20362  42.091  28.467  13.002
48834W        W20363  25.248  15.292   4.987
48835W        W20364  20.146  27.309   0.807
48836W        W20365  35.800  13.970   0.904
48837W        W20366  15.678  25.307   0.555
48838W        W20367   9.590  20.090  10.757
48839W        W20368  12.625   5.747  12.160
48840W        W20369  34.029  39.480  10.621
48841W        W20370  35.601  27.062   3.559
48842W        W20371  25.508  12.689   2.199
48843W        W20372   3.963  11.757   0.663
48844W        W20373  29.277  31.617  13.905
48845W        W20374  22.347  36.019   5.043
48846W        W20375  27.147  39.012  10.638
48847W        W20376  28.581   4.777  12.538
48848W        W20377   3.366  14.578  11.113
48849W        W20378   6.059  10.632  11.255
48850W        W20379  20.744   9.605  12.891
48851W        W20380  13.702  34.408  12.547
48852W        W20381  16.913  42.691   2.647
48853W        W20382  42.614  23.995  10.848
48854W        W20383   3.402  38.639  13.111
48855W        W20384  23.997  17.756  14.500
48856W        W20385   4.989  25.911  14.894
48857W        W20386  25.242  31.535  14.455
48858W        W20387   0.865   4.346   3.201
48859W        W20388   7.326  35.668  11.350
48860W        W20389  25.210  21.471  10.698
48861W        W20390  32.724  36.177   1.027
48862W        W20391  21.092  34.228  10.869
48863W        W20392  37.269  26.147  13.880
48864W        W20393  15.635  17.649  10.676
48865W        W20394  11.362   6.187  14.038
48866W        W20395   6.311  21.090   9.966
48867W        W20396  24.077  25.185   1.804
48868W        W20397  34.577  25.595  10.698
48869W        W20398  12.820  17.245  14.479
48870W        W20399  36.387   9.323  13.213
48871W        W20400  13.545  18.682  14.958
48872W        W20401   3.819  21.578  10.614
48873W        W20402  15.886  35.720  11.546
48874W        W20403  42.762   3.487   1.879
48875W        W20404  11.789  38.772  10.568
48876W        W20405  24.539   4.938  10.436
48877W        W20406  30.793  40.006   1.198
48878W        W20407  16.179  21.623   0.421
48879W        W20408  26.047  44.271   0.245
48880W        W20409  23.627  24.624   2.448
48881W        W20410  17.098   8.611  14.053
48882W        W20411  16.700  28.227  12.781
48883W        W20412  21.589  33.449   4.713
48884W        W20413  40.309  32.474   0.719
48885W        W20414  43.741  26.144  11.485
48886W        W20415  17.661  17.576  13.115
48887W        W20416   6.285  18.379  10.721
48888W        W20417  27.500   4.893   3.750
48889W        W20418  39.633  20.018  12.585
48890W        W20419   9.179   0.887   0.768
48891W        W20420  12.696  10.798  13.464
48892W        W20421  29.999   8.563   3.469
48893W        W20422   8.613  30.147  13.043
48894W        W20423  36.724  18.003  13.091
48895W        W20424  34.953  44.399   3.663
48896W        W20425   5.158   5.440  12.668
48897W        W20426  33.917  42.496  11.001
48898W        W20427  43.493   5.505   0.809
48899W        W20428  35.310   1.853  11.565
48900W        W20429  12.846   2.718  11.933
48901W        W20430   7.123  11.439  12.814
48902W        W20431   0.266  31.101   2.782
48903W        W20432  15.737  11.777   1.950
48904W        W20433  21.512  27.052  14.971
48905W        W20434  44.042  32.096   4.262
48906W        W20435  36.297  24.978   1.088
48907W        W20436   8.586   8.134  11.188
48908W        W20437  36.929  34.564   0.667
48909W        W20438   0.151  37.917  11.083
48910W        W20439  33.224  16.772  13.049
48911W        W20440  18.344   3.401   1.858
48912W        W20441  20.938  20.219  11.494
48913W        W20442  16.888  17.140  10.263
48914W        W20443  41.308  37.063   2.273
48915W        W20444   5.321  44.071  13.375
48916W        W20445  26.870  19.719  12.582
48917W        W20446  39.102  26.493  11.115
48918W        W20447  20.943  37.889   4.179
48919W        W20448  16.247  37.892   4.405
48920W        W20449  38.521  31.445  10.585
48921W        W20450   0.704  31.433   4.189
48922W        W20451  14.782   5.019  14.652
48923W        W20452  27.205  30.249  14.057
48924W        W20453  12.833  38.036  10.833
48925W        W20454  25.789  34.414   1.424
48926W        W20455   9.210  16.255  13.539
48927W        W20456  19.142  13.346   0.707
48928W        W20457  15.083   6.296  11.164
48929W        W20458  10.197  37.827   3.826
48930W        W20459   1.749  25.088  13.443
48931W        W20460   0.283  33.520  13.782
48932W        W20461  23.057   8.738   1.294
48933W        W20462  44.784  29.186   1.876
48934W        W20463  11.760  31.878  14.498
48935W        W20464  14.307  44.926  12.394
48936W        W20465  21.169  18.280  12.015
48937W        W20466  16.337  32.042  13.911
48938W        W20467   9.856  40.961  10.625
48939W        W20468  11.720  42.624   1.786
48940W        W20469  36.532  30.335   0.790
48941W        W20470   7.750  26.091  11.065
48942W        W20471  29.911  28.673  14.750
48943W        W20472  43.915  34.273   1.860
48944W        W20473  37.448   2.607  13.527
48945W        W20474   6.140  17.625   0.861
48946W        W20475  15.414   9.749   0.872
48947W        W20476  37.325  16.927  12.570
48948W        W20477   8.709  11.370   2.254
48949W        W20478   6.708  30.547  13.398
48950W        W20479   8.670   4.923   4.988
48951W        W20480  10.699   4.644  12.294
48952W        W20481  24.590  18.383  10.717
48953W        W20482  31.526  22.619   0.885
48954W        W20483  27.714  15.620   3.892
48955W        W20484  33.517   1.953   1.663
48956W        W20485  39.974  42.457  12.583
48957W        W20486  25.106  16.078  11.659
48958W        W20487  33.886   3.706  13.287
48959W        W20488  12.256  30.868   1.350
48960W        W20489  25.966  22.679   3.599
48961W        W20490  14.220  37.782   1.578
48962W        W20491  34.433  10.807  13.994
48963W        W20492  13.630   3.720   3.018
48964W        W20493   0.713  23.614   2.655
48965W        W20494  21.223  27.892   2.482
48966W        W20495   3.629  31.710   4.454
48967W        W20496  41.214  17.059   0.387
48968W        W20497  44.450  15.249   1.068
48969W        W20498  38.481   9.141  12.854
48970W        W20499  14.129   1.747  10.949
48971W        W20500  35.420  41.035   4.144
48972W        W20501  38.074  17.030  11.102
48973W        W20502  13.370  42.731  14.627
48974W        W20503   8.380  32.577   0.668
48975W        W20504  13.057  15.714   2.835
48976W        W20505  35.857   1.107  14.477
48977W        W20506  44.590  33.404  14.394
48978W        W20507   9.139  32.103   1.763
48979W        W20508  20.670  31.103  13.690
48980W        W20509  34.589  33.964  13.286
48981W        W20510  19.781  12.433   4.313
48982W        W20511   4.440  38.293  12.594
48983W        W20512  40.490  21.152  10.703
48984W        W20513   5.305  25.536   1.178
48985W        W20514   4.078  28.578  12.083
48986W        W20515  32.599  25.538  14.897
48987W        W20516   8.577  14.260   2.229
48988W        W20517  33.717  30.961  14.398
48989W        W20518  17.692  21.432  13.396
48990W        W20519  44.232  18.286   0.903
48991W        W20520   5.677  28.439  13.503
48992W        W20521  25.540  13.785  11.554
48993W        W20522  23.010  35.884  12.906
48994W        W20523  26.555  34.752   5.120
48995W        W20524  38.392   6.465   3.663
48996W        W20525  39.550  35.227  11.795
48997W        W20526   7.433   6.346  13.420
48998W        W20527  36.861   0.485   2.842
48999W        W20528   5.998  18.408  14.987
49000W        W20529   4.004  23.132   2.434
49001W        W20530  18.728  36.616  14.904
49002W        W20531  10.336  33.572   1.805
49003W        W20532  22.568  17.562  13.991
49004W        W20533  17.514  21.688   0.239
49005W        W20534  30.546  36.911   1.325
49006W        W20535  35.322   6.882  13.495
49007W        W20536  40.154  13.402   0.762
49008W        W20537   4.445  10.763   3.803
49009W        W20538   0.309   9.057   4.507
49010W        W20539   3.983  21.618  11.492
49011W        W20540  39.704  14.279  12.835
49012W        W20541  10.258  40.996   0.474
49013W        W20542  34.090  17.063  12.206
49014W        W20543  14.125  10.350  10.554
49015W        W20544  26.067   0.457  12.600
49016W        W20545  11.992  36.150  13.460
49017W        W20546  29.892  41.555   2.207
49018W        W20547  34.663  20.216  11.437
49019W        W20548  40.733  41.286  12.316
49020W        W20549  24.304   9.125   2.196
49021W        W20550   6.379  19.782  14.903
49022W        W20551  18.443  34.438  13.923
49023W        W20552  43.807   0.814  12.400
49024W        W20553  12.870  42.502   4.672
49025W        W20554  36.504  39.553   4.336
49026W        W20555  19.995  44.114   1.834
49027W        W20556  22.423  43.386   1.388
49028W        W20557  23.766  16.242  11.090
49029W        W20558   5.997  44.220   3.216
49030W        W20559  39.489   8.869  14.584
49031W        W20560  19.397  31.742  11.432
49032W        W20561  40.541   8.683  12.717
49033W        W20562  32.195  31.940  13.918
49034W        W20563  19.878  27.496  12.620
49035W        W20564  16.275  24.485   1.633
49036W        W20565  26.579  16.342   0.865
49037W        W20566  35.067  24.117  12.249
49038W        W20567  10.874  32.771   1.925
49039W        W20568   4.323   2.799   0.959
49040W        W20569  20.545  25.099  11.203
49041W        W20570   7.167  25.470  11.081
49042W        W20571  36.092  14.293   0.547
49043W        W20572  23.258  40.888  10.377
49044W        W20573  28.372  42.280   1.150
49045W        W20574  35.997   9.569   3.651
49046W        W20575  15.486  30.984   3.309
49047W        W20576  22.667  38.504  14.942
49048W        W20577   9.761  37.979   4.065
49049W        W20578  28.839  38.540  11.450
49050W        W20579   2.244  40.389  13.979
49051W        W20580  10.445   6.890  13.217
49052W        W20581  29.562   8.194  12.593
49053W        W20582  19.552  11.299  14.911
49054W        W20583  23.547   0.749  10.665
49055W        W20584   2.146  10.635   4.227
49056W        W20585  23.737   3.721  14.690
49057W        W20586  22.494  43.272  12.849
49058W        W20587  40.863  31.865   0.995
49059W        W20588   4.836  17.987  13.040
49060W        W20589  33.042  12.644   1.408
49061W        W20590  35.910  39.593  14.165
49062W        W20591  18.639   6.918   3.297
49063W        W20592   8.864  12.812   4.623
49064W        W20593  21.922  17.116  10.610
49065W        W20594  35.887  43.969   3.627
49066W        W20595  38.487  13.582   2.679
49067W        W20596   2.991  10.267  14.143
49068W        W20597  15.708  14.753   3.852
49069W        W20598   2.801  29.250   4.616
49070W        W20599   4.123  16.271  14.918
49071W        W20600   6.259  43.362  13.289
49072W        W20601  25.095   8.792  11.578
49073W        W20602  39.922  33.121  13.885
49074W        W20603  34.810   5.307   3.308
49075W        W20604  28.845   3.146  13.387
49076W        W20605  37.298   3.314  12.003
49077W        W20606  29.286  41.771  14.791
49078W        W20607  17.609  17.189  10.597
49079W        W20608   0.680  36.426   0.557
49080W        W20609  39.200   7.487  12.132
49081W        W20610  13.689   9.939   1.188
49082W        W20611  11.256  10.103   2.644
49083W        W20612   8.879  38.018   3.527
49084W        W20613  21.218  17.640  11.634
49085W        W20614  12.167  11.119   2.672
49086W        W20615  19.372   8.395  11.625
49087W        W20616  25.799   9.434   1.684
49088W        W20617  24.467  44.901   0.369
49089W        W20618   8.370   2.671  13.275
49090W        W20619  40.800  39.874  13.879
49091W        W20620  44.486  44.069  13.453
49092W        W20621   6.800  18.999  14.980
49093W        W20622   7.496  14.143   1.771
49094W        W20623  17.105  19.743  13.100
49095W        W20624  24.678   8.362   3.803
49096W        W20625  33.152   2.349   2.276
49097W        W20626  36.002   1.296   0.311
49098W        W20627  14.521  24.940   2.399
49099W        W20628  11.897  38.440  11.903
49100W        W20629  10.432   3.583   1.864
49101W        W20630  37.687   2.222   0.388
49102W        W20631  22.576  39.776  14.552
49103W        W20632  25.399  36.387  11.687
49104W        W20633  19.784  30.453  13.857
49105W        W20634  11.313  27.399  13.625
49106W        W20635  43.082   6.636  11.606
49107W        W20636  12.719   1.565   0.732
49108W        W20637   9.125   5.338   0.819
49109W        W20638  12.836  39.403   3.136
49110W        W20639  28.700  17.979   4.111
49111W        W20640   8.262  24.970  10.896
49112W        W20641  34.110  24.682  14.314
49113W        W20642   5.991  27.201   3.636
49114W        W20643   6.712  13.812  12.968
49115W        W20644  44.852   7.842   3.614
49116W        W20645   3.484   7.520   2.858
49117W        W20646  30.188  19.028   0.357
49118W        W20647  40.051   0.995   0.920
49119W        W20648  22.092  38.547  12.391
49120W        W20649  34.235  17.384  13.605
49121W        W20650  40.995  10.429   4.471
49122W        W20651  23.004  21.194   2.802
49123W        W20652  18.907   8.251  11.757
49124W        W20653   4.768  39.019  11.659
49125W        W20654   3.387  18.890  13.570
49126W        W20655   0.921  17.868  11.748
49127W        W20656   4.077  22.812   1.638
49128W        W20657   5.261  24.258   2.881
49129W        W20658  37.820   2.021   3.534
49130W        W20659  39.682   6.125  11.853
49131W        W20660   3.831  13.271  12.001
49132W        W20661  37.595  14.121  11.758
49133W        W20662  42.418   5.647   4.287
49134W        W20663   3.700  41.943  13.853
49135W        W20664  20.282   6.386  11.168
49136W        W20665  39.331  42.200   1.268
49137W        W20666  18.070   1.385   0.578
49138W        W20667   9.756  18.138   4.169
49139W        W20668  27.406  32.886   4.167
49140W        W20669  31.727  33.911  11.929
49141W        W20670  32.720  40.962  12.658
49142W        W20671   5.479   1.187   1.500
49143W        W20672  41.309  22.681   4.051
49144W        W20673   8.363   4.254  11.693
49145W        W20674   0.217  29.114   1.590
49146W        W20675  18.685  20.284  13.924
49147W        W20676  32.149  29.184  14.438
49148W        W20677  10.272  13.330   0.476
49149W        W20678   3.879  26.497  13.939
49150W        W20679  11.819  36.830   4.886
49151W        W20680  13.103  19.218   2.347
49152W        W20681  40.454  11.620  10.822
49153W        W20682  31.572  20.892  11.924
49154W        W20683   0.220  15.778   3.200
49155W        W20684  35.274  26.752  10.991
49156W        W20685  13.351  29.577  12.983
49157W        W20686  29.564  35.447   1.435
49158W        W20687  14.403  35.034  13.047
49159W        W20688  25.976   2.346  13.405
49160W        W20689  37.902  21.134  12.882
49161W        W20690  11.060  18.251   4.182
49162W        W20691  14.514  34.476  11.569
49163W        W20692  11.757  15.283   4.032
49164W        W20693  34.451   7.803  13.551
49165W        W20694   5.729  41.735  14.481
49166W        W20695  14.432   0.749   9.811
49167W        W20696  17.565  42.452  10.761
49168W        W20697  36.676  16.039  14.976
49169W        W20698  15.599   1.491   4.364
49170W        W20699  36.090   6.167   2.238
49171W        W20700  11.905  27.413   1.706
49172W        W20701  36.120  39.242   4.157
49173W        W20702  20.831   8.360   1.627
49174W        W20703   1.131   9.605  13.452
49175W        W20704  42.813  30.606   3.896
49176W        W20705  39.607  22.799  12.844
49177W        W20706  33.049  14.336   4.184
49178W        W20707  19.502   8.667   2.640
49179W        W20708  18.807  40.892  12.155
49180W        W20709  11.089  25.031  11.603
49181W        W20710   9.327  33.172   2.589
49182W        W20711   6.160   6.367   3.945
49183W        W20712  38.528  41.590   2.835
49184W        W20713  14.214  30.046   2.802
49185W        W20714   6.414   1.427  11.238
49186W        W20715  40.041  29.208   4.617
49187W        W20716  39.004  35.082  11.260
49188W        W20717  33.013  14.473   1.282
49189W        W20718   4.213  36.314   4.884
49190W        W20719  44.401  37.487  11.303
49191W        W20720  37.458   6.432   3.546
49192W        W20721  27.635  40.560   3.198
49193W        W20722  38.031  41.038  14.847
49194W        W20723   9.201   9.877   4.111
49195W        W20724  37.318  22.509   2.877
49196W        W20725  41.648  31.285   2.329
49197W        W20726  28.587  21.815  12.110
49198W        W20727  41.490  10.831   0.796
49199W        W20728  39.914  32.622   2.673
49200W        W20729  19.114  17.197   2.926
49201W        W20730   9.924   0.310   3.265
49202W        W20731   3.940   9.503   2.238
49203W        W20732  26.132  27.188  14.548
49204W        W20733  37.106   8.152  14.572
49205W        W20734   0.905  31.852   1.724
49206W        W20735   1.978  31.452  13.429
49207W        W20736  19.340  33.073  14.920
49208W        W20737   6.626   8.351  13.879
49209W        W20738  17.346  33.081  13.849
49210W        W20739   0.333  35.297   2.340
49211W        W20740   5.547  13.742  12.294
49212W        W20741  12.679  37.096   1.895
49213W        W20742   4.067  21.376  12.731
49214W        W20743   4.892  23.940  11.061
49215W        W20744   2.727   4.843   2.776
49216W        W20745  43.930  31.200   2.604
49217W        W20746  18.235  36.902  13.063
49218W        W20747  23.148  23.212   4.839
49219W        W20748  13.253  20.103   1.857
49220W        W20749  12.303  43.479   0.838
49221W        W20750  24.460  23.905  14.178
49222W        W20751   5.784   6.767   3.038
49223W        W20752  23.106  13.795   1.703
49224W        W20753   7.753  21.128   1.410
49225W        W20754  25.035  26.298   4.671
49226W        W20755  12.763  31.518   0.768
49227W        W20756  30.443  19.728   3.362
49228W        W20757  38.074  42.922  11.144
49229W        W20758  14.591  37.140   4.598
49230W        W20759   8.468   0.372   9.845
49231W        W20760  21.444  44.524  11.201
49232W        W20761  25.316  10.659   2.684
49233W        W20762  36.488   4.382  13.340
49234W        W20763  39.740   1.517  11.109
49235W        W20764   7.091   8.646  13.209
49236W        W20765  41.879   3.206   0.704
49237W        W20766   0.228   9.273   2.165
49238W        W20767  27.944  22.420  14.814
49239W        W20768  32.702  32.920  11.155
49240W        W20769  21.584  13.937  11.122
49241W        W20770  44.936  25.994   2.245
49242W        W20771  36.426  17.037   2.576
49243W        W20772   5.297  16.955   0.452
49244W        W20773  41.324  25.331   2.793
49245W        W20774  38.999  22.901   3.196
49246W        W20775  35.078  20.215  12.765
49247W        W20776  42.752  30.956   4.543
49248W        W20777  25.615   4.008  13.065
49249W        W20778  41.246  28.998   2.322
49250W        W20779  24.100  27.238   2.792
49251W        W20780   9.768  40.548  14.391
49252W        W20781  33.258  30.051  14.236
49253W        W20782  33.195  40.874  14.296
49254W        W20783  26.453  21.143  12.454
49255W        W20784   7.278   3.501  14.072
49256W        W20785  36.641  15.173  14.500
49257W        W20786  20.391  13.998  12.955
49258W        W20787  31.052  27.940   1.502
49259W        W20788  32.795  11.789  12.974
49260W        W20789  36.152  29.488   0.457
49261W        W20790  12.304   8.042   2.892
49262W        W20791  15.502  33.833  11.919
49263W        W20792  11.754  20.396   2.193
49264W        W20793   6.317   6.318   4.962
49265W        W20794  22.513   3.915  13.389
49266W        W20795  28.564   5.224  14.435
49267W        W20796  36.629  10.836  11.389
49268W        W20797   2.967   2.328   2.743
49269W        W20798  18.031  24.046  12.214
49270W        W20799   9.365  43.020   1.967
49271W        W20800  35.342  41.368   1.307
49272W        W20801  44.960   9.752  12.455
49273W        W20802  31.305  28.151   3.314
49274W        W20803  44.998   5.640  11.596
49275W        W20804  35.110  13.750  14.363
49276W        W20805  42.224  13.282   3.346
49277W        W20806  15.766  32.177  13.428
49278W        W20807  20.418  31.364  12.463
49279W        W20808   8.882  25.106   2.620
49280W        W20809  25.475  26.544  10.402
49281W        W20810  11.167  30.008   0.293
49282W        W20811  10.733   7.351   0.326
49283W        W20812  12.342   1.029  10.513
49284W        W20813  16.205  43.305  11.439
49285W        W20814  27.439  13.691   0.624
49286W        W20815  37.586  25.674   4.725
49287W        W20816  30.036  35.414   3.080
49288W        W20817  21.313  41.223  13.434
49289W        W20818   6.313  33.054   1.256
49290W        W20819   1.389  40.993   2.565
49291W        W20820  42.397  32.686  13.163
49292W        W20821  23.630   6.134  10.702
49293W        W20822  24.605  27.613   1.764
49294W        W20823  39.166   7.932  13.327
49295W        W20824  35.873  28.668  14.896
49296W        W20825  40.039  26.172   1.688
49297W        W20826   6.753  36.424   3.226
49298W        W20827  44.971  39.060   4.682
49299W        W20828  14.125  26.266  14.925
49300W        W20829  23.045  44.918  14.403
49301W        W20830   1.997  38.353  14.412
49302W        W20831  18.179  36.844  11.491
49303W        W20832  26.180  37.877  13.762
49304W        W20833   2.539  21.679  13.589
49305W        W20834  17.415  43.888  12.059
49306W        W20835  40.407  19.694   4.682
49307W        W20836  39.561  35.445  12.449
49308W        W20837  34.643  36.451  12.071
49309W        W20838   8.340   4.378  12.903
49310W        W20839  27.506  20.976   4.246
49311W        W20840  23.571  10.897  11.458
49312W        W20841  35.200  38.013  14.026
49313W        W20842  15.129  33.131   3.296
49314W        W20843  34.352   7.979  12.133
49315W        W20844  26.085  30.149  12.127
49316W        W20845  43.977   0.686  13.193
49317W        W20846   7.300  27.084  12.787
49318W        W20847  25.179  32.471   4.130
49319W        W20848  31.036  29.126   3.777
49320W        W20849  44.196  26.984   1.475
49321W        W20850  34.277   9.016  13.368
49322W        W20851  36.333  26.549   1.812
49323W        W20852  41.489   5.485  11.385
49324W        W20853   5.652  34.235  11.682
49325W        W20854  12.897  41.766   4.122
49326W        W20855  38.105  27.369  12.070
49327W        W20856   5.674  21.717   3.191
49328W        W20857   5.335  11.267   0.561
49329W        W20858  35.891  17.778   4.453
49330W        W20859  35.450   9.571   4.756
49331W        W20860  21.354  39.072  13.129
49332W        W20861  40.877  29.089   1.862
49333W        W20862  33.576  11.538   0.216
49334W        W20863   3.762   9.337   2.694
49335W        W20864   7.109  15.388   4.919
49336W        W20865  27.758  42.835   4.253
49337W        W20866  26.474   6.357  11.880
49338W        W20867  37.396  36.777  11.613
49339W        W20868  27.013  17.592   4.104
49340W        W20869  25.358  24.475   4.590
49341W        W20870   3.436  24.523   4.680
49342W        W20871  28.833  22.202  11.449
49343W        W20872  35.536   0.685   3.841
49344W        W20873  34.943  23.269  11.248
49345W        W20874  44.613  38.838  12.561
49346W        W20875  19.822  25.024   4.174
49347W        W20876  17.963  29.853  14.386
49348W        W20877  41.927  40.118  13.629
49349W        W20878  21.241   6.198   4.043
49350W        W20879  32.118  44.358  13.065
49351W        W20880  11.961   3.354   2.206
49352W        W20881  15.905  15.177  14.587
49353W        W20882   6.639  22.256   1.848
49354W        W20883  37.667  38.500  13.636
49355W        W20884  26.972  22.841   1.997
49356W        W20885  44.974  10.470   1.977
49357W        W20886  17.998  13.230   3.395
49358W        W20887  20.757  37.055  13.968
49359W        W20888  37.288  41.945  11.072
49360W        W20889  11.864  14.209   2.215
49361W        W20890  27.501  40.952  11.008
49362W        W20891  35.493  32.392   4.600
49363W        W20892  23.412  28.932  11.515
49364W        W20893  21.784  21.424   0.417
49365W        W20894   5.209  22.466  11.611
49366W        W20895   9.263  35.882   4.585
49367W        W20896  28.203  30.635   3.492
49368W        W20897  28.055  14.556  13.263
49369W        W20898  26.697  29.848   1.221
49370W        W20899  11.762  16.846   1.758
49371W        W20900  44.378   9.164   0.311
49372W        W20901  44.954  20.200  14.255
49373W        W20902   1.614   0.867   4.558
49374W        W20903  37.106  28.085  13.857
49375W        W20904   1.184  22.642   1.782
49376W        W20905  16.687  29.673  13.956
49377W        W20906   3.943   9.411  11.862
49378W        W20907  36.399   9.496  11.721
49379W        W20908  36.559  16.181  11.101
49380W        W20909   1.948  27.035  14.707
49381W        W20910  40.388   3.859   2.200
49382W        W20911  31.233  42.428  14.083
49383W        W20912  21.039  38.845  12.056
49384W        W20913  31.892  26.449   3.640
49385W        W20914   3.979  34.319  14.414
49386W        W20915  13.636  36.559   2.751
49387W        W20916  10.361  13.600   2.138
49388W        W20917   9.078  31.896  10.699
49389W        W20918  33.871  43.960   3.235
49390W        W20919   8.568  39.079  11.173
49391W        W20920  39.841  10.314   1.599
49392W        W20921  37.671  13.507   2.906
49393W        W20922  34.472  36.345   0.321
49394W        W20923  21.409   5.935  10.471
49395W        W20924  24.740  23.854   4.223
49396W        W20925   2.231  19.382  11.021
49397W        W20926  24.794  16.345   0.688
49398W        W20927  31.074  32.169  13.097
49399W        W20928  10.738  42.715  13.297
49400W        W20929  31.531  11.572   0.775
49401W        W20930   9.160  41.529   3.116
49402W        W20931   8.482   1.821   3.902
49403W        W20932   0.004  34.718   0.741
49404W        W20933  44.362   7.443  14.820
49405W        W20934  34.019  40.370  12.435
49406W        W20935  23.979   2.724  12.976
49407W        W20936  39.505  43.849  11.514
49408W        W20937  20.161  33.646  12.854
49409W        W20938  39.640  28.005   2.132
49410W        W20939   5.244   0.904   4.659
49411W        W20940  32.140   7.703  11.955
49412W        W20941  23.049  12.945  10.776
49413W        W20942  32.400  18.775   1.839
49414W        W20943  17.100   9.747  13.074
49415W        W20944   8.208  37.788  11.846
49416W        W20945  10.410  14.212  12.421
49417W        W20946  42.027  37.401  10.454
49418W        W20947   6.884  34.841   2.227
49419W        W20948  43.837   2.537   2.816
49420W        W20949  37.968  44.274  12.529
49421W        W20950  15.848  35.079  13.256
49422W        W20951  25.011  41.902   2.487
49423W        W20952  40.358  37.602   4.551
49424W        W20953   5.998  14.281   5.043
49425W        W20954  16.387  18.082  14.434
49426W        W20955  19.573  23.160  13.791
49427W        W20956  37.542   3.317  11.557
49428W        W20957  29.656  12.084  14.538
49429W        W20958  29.545  17.853   4.133
49430W        W20959   3.858  32.121  13.442
49431W        W20960  43.399  11.622   2.387
49432W        W20961  30.644   6.549  12.821
49433W        W20962   5.672  26.384   2.627
49434W        W20963   1.189  38.459   4.075
49435W        W20964  13.318  16.542   1.569
49436W        W20965  32.526  10.282  14.917
49437W        W20966  34.621  19.941  12.802
49438W        W20967   2.062  12.136  13.364
49439W        W20968   3.986  29.535   1.302
49440W        W20969  40.940  29.700  13.486
49441W        W20970  15.146  24.159   3.151
49442W        W20971   8.163  38.353  12.055
49443W        W20972  42.888   8.173   1.817
49444W        W20973  18.185   6.927   2.414
49445W        W20974  43.920  34.513  10.269
49446W        W20975  32.412  25.725  14.395
49447W        W20976  13.396   4.868   2.035
49448W        W20977  16.145  38.934  11.140
49449W        W20978  22.311   1.772  10.906
49450W        W20979  24.132  10.077  11.135
49451W        W20980  31.037  29.372  13.914
49452W        W20981   4.747  26.450  11.074
49453W        W20982   9.579  17.046   4.123
49454W        W20983  22.599   8.321  12.330
49455W        W20984   9.633  24.068  13.797
49456W        W20985  31.854  32.036   4.062
49457W        W20986  18.218  44.278  10.089
49458W        W20987  40.932  35.881  13.904
49459W        W20988   8.305   2.393  13.871
49460W        W20989  22.315  24.287  10.811
49461W        W20990  20.681   5.690  14.732
49462W        W20991  20.597  20.553  11.261
49463W        W20992  13.746  44.060  14.007
49464W        W20993  25.715  44.963  14.353
49465W        W20994  18.949   8.883  10.833
49466W        W20995  39.490  17.592   3.890
49467W        W20996  29.938  40.471   2.707
49468W        W20997  33.493  35.009  14.050
49469W        W20998  31.529   0.963  13.972
49470W        W20999  14.019  32.485  12.542
49471W        W21000   1.808   5.313   1.363
49472W        W21001   5.794  35.969  13.603
49473W        W21002   1.445  26.457   1.286
49474W        W21003   9.661  17.106  14.360
49475W        W21004  17.810  28.964   2.270
49476W        W21005  22.125  26.626   0.767
49477W        W21006   3.962  15.173  10.839
49478W        W21007  31.745  19.546   4.981
49479W        W21008  21.457  36.932   1.359
49480W        W21009  44.173  37.395   0.096
49481W        W21010  41.697  29.040  11.956
49482W        W21011  38.254  26.187  13.434
49483W        W21012  27.563  17.467  13.077
49484W        W21013   3.438  31.963   4.051
49485W        W21014  38.476  32.195  11.155
49486W        W21015  34.699  32.660  14.982
49487W        W21016  17.722  39.434  13.029
49488W        W21017  38.585  38.056   4.626
49489W        W21018  36.449  44.310  14.693
49490W        W21019  27.983  15.538   3.029
49491W        W21020  36.518  34.765   1.398
49492W        W21021  39.981  21.817  11.125
49493W        W21022  22.428  36.537  12.355
49494W        W21023  41.272  22.014   2.912
49495W        W21024  18.741  44.731   4.164
49496W        W21025  19.134  18.158  14.291
49497W        W21026   7.149  44.469   4.049
49498W        W21027  24.142  26.633   3.660
49499W        W21028  39.952  35.125  13.603
49500W        W21029  41.912   5.984  12.481
49501W        W21030  34.356   6.718  11.601
49502W        W21031   0.941  13.567  14.704
49503W        W21032  31.846  35.491  14.989
49504W        W21033   0.494  29.832   3.224
49505W        W21034  14.734  31.041  14.466
49506W        W21035  38.578  41.010   2.314
49507W        W21036  20.120  33.030  13.985
49508W        W21037  42.047  14.776  14.799
49509W        W21038  24.102  23.711   3.239
49510W        W21039  34.931  27.810  13.107
49511W        W21040  36.533  43.950  14.299
49512W        W21041   7.223  14.708   2.348
49513W        W21042  33.573  27.109   0.893
49514W        W21043  28.463  16.777   0.345
49515W        W21044  26.222  38.665  10.710
49516W        W21045   5.240   9.296  13.805
49517W        W21046  20.530  22.065   2.457
49518W        W21047  35.994   5.444   2.981
49519W        W21048  26.908  41.919  10.701
49520W        W21049  17.681  26.019  12.619
49521W        W21050  22.788   8.758  12.128
49522W        W21051   3.666   5.836  13.577
49523W        W21052  34.867  24.602  13.916
49524W        W21053  27.690  19.599   0.250
49525W        W21054  25.449  32.630   4.539
49526W        W21055   0.804  19.440  11.097
49527W        W21056  23.524   3.886   0.974
49528W        W21057  25.966  20.484  13.937
49529W        W21058  27.955  41.072   2.470
49530W        W21059  34.857   3.405   3.370
49531W        W21060  19.456  25.857  10.945
49532W        W21061   1.392  16.671   4.113
49533W        W21062   9.589  15.138  11.183
49534W        W21063   1.376   5.956   3.603
49535W        W21064  31.230  44.902  14.044
49536W        W21065   6.321  23.302   4.209
49537W        W21066  28.447  26.154   4.164
49538W        W21067  17.568  19.377   4.687
49539W        W21068   9.212   6.858   3.396
49540W        W21069   6.973  41.858   4.044
49541W        W21070  10.844  41.087   2.353
49542W        W21071   3.510  31.041  13.079
49543W        W21072  31.841  17.685  12.567
49544W        W21073  42.334  22.497  14.798
49545W        W21074   8.305  20.738   0.912
49546W        W21075  11.712  36.557  14.346
49547W        W21076  41.760  22.581   3.772
49548W        W21077  42.915  25.015  14.965
49549W        W21078  40.706  41.513  14.310
49550W        W21079  22.660  24.254  14.265
49551W        W21080  29.280  44.504  13.099
49552W        W21081  38.540  36.482  10.501
49553W        W21082   7.475  23.371  14.289
49554W        W21083  33.465  38.027   4.324
49555W        W21084  34.908   6.752   2.358
49556W        W21085  41.517  26.622   1.438
49557W        W21086  26.469  13.165   1.265
49558W        W21087  30.626  30.428  14.473
49559W        W21088  20.670  19.371   0.504
49560W        W21089  12.593  17.086   2.616
49561W        W21090  32.513  43.258   1.735
49562W        W21091   3.266  39.454   3.642
49563W        W21092  44.757  28.427  11.446
49564W        W21093  41.586  39.161   2.290
49565W        W21094  16.874  19.610  12.010
49566W        W21095   3.770  30.404  14.246
49567W        W21096  30.497   5.761   4.487
49568W        W21097  25.403  44.948   4.851
49569W        W21098   9.126  44.995   4.098
49570W        W21099   7.154   1.503   2.056
49571W        W21100  11.310   8.806  12.065
49572W        W21101  16.014   1.780   1.723
49573W        W21102  30.881  17.250  12.438
49574W        W21103  31.730  44.371   3.641
49575W        W21104  24.063  20.013   1.284
49576W        W21105  42.728  31.995  12.861
49577W        W21106   5.195  11.477  14.571
49578W        W21107   8.483   1.540  14.907
49579W        W21108  23.529  10.390   3.168
49580W        W21109  28.359  44.893   2.638
49581W        W21110  13.234  24.732  14.203
49582W        W21111  28.292  42.986  13.385
49583W        W21112   0.881  42.658   2.673
49584W        W21113   4.349   9.268  12.189
49585W        W21114   5.921   5.307   3.994
49586W        W21115  25.500  10.554  14.873
49587W        W21116  42.059  10.142   3.232
49588W        W21117  16.075  37.319  11.093
49589W        W21118   1.358   9.145  13.410
49590W        W21119  44.174  16.561   2.250
49591W        W21120  18.692   2.032  11.977
49592W        W21121  36.451  43.404  11.748
49593W        W21122   8.142   1.880  12.116
49594W        W21123  15.539   4.675   3.148
49595W        W21124  19.226  25.106  12.448
49596W        W21125  10.887  33.215   1.638
49597W        W21126  33.876  18.080   4.618
49598W        W21127  32.616  38.522   2.379
49599W        W21128  28.994  18.601   2.408
49600W        W21129  25.014  33.776   2.821
49601W        W21130  43.870  40.600   3.903
49602W        W21131  30.248  40.620   3.645
49603W        W21132  31.653  23.909   9.820
49604W        W21133   0.316  38.074   3.676
49605W        W21134  19.330   0.250   0.227
49606W        W21135   8.858  34.823   2.342
49607W        W21136  11.172  18.846   1.441
49608W        W21137  19.602  43.092  14.898
49609W        W21138  18.426  10.837   3.909
49610W        W21139   0.398  35.487  12.560
49611W        W21140  22.425  37.842   3.828
49612W        W21141  20.707  17.591   2.304
49613W        W21142  38.015  34.012  13.061
49614W        W21143  33.632   7.328   2.247
49615W        W21144  24.235  26.954   3.226
49616W        W21145  42.971  11.454   3.868
49617W        W21146  31.960  18.082   3.136
49618W        W21147  11.092  41.277  11.015
49619W        W21148  39.721  11.769  11.240
49620W        W21149  11.847   0.227   1.336
49621W        W21150  16.401  44.721   5.005
49622W        W21151  33.112  26.896   2.883
49623W        W21152   5.353   2.354  13.585
49624W        W21153  29.064  35.243   4.014
49625W        W21154  19.665  33.477  14.086
49626W        W21155  12.097  24.149  14.278
49627W        W21156  40.750  42.574   1.248
49628W        W21157  36.846  14.159  10.795
49629W        W21158  39.876  35.892  14.790
49630W        W21159  26.936   2.392   0.896
49631W        W21160  13.659   7.129  14.447
49632W        W21161  18.769  31.175   2.145
49633W        W21162  38.867  30.680   1.637
49634W        W21163  38.904   5.887   2.043
49635W        W21164  29.179  32.879  14.422
49636W        W21165  28.510  41.547   4.225
49637W        W21166  42.328   0.530   2.177
49638W        W21167  41.032  38.373   4.851
49639W        W21168  15.342   3.873  12.435
49640W        W21169   8.961  13.295  14.477
49641W        W21170  34.019   2.811   2.587
49642W        W21171  22.716   5.016   1.277
49643W        W21172  28.275  19.859   3.321
49644W        W21173   9.260  18.036   0.821
49645W        W21174  43.553  36.299  10.730
49646W        W21175  17.141   9.836  11.097
49647W        W21176  40.073  27.052  10.730
49648W        W21177  35.282   2.941   4.323
49649W        W21178  38.826  29.680   0.087
49650W        W21179  10.316  25.708   1.767
49651W        W21180   2.302  40.540   3.317
49652W        W21181  17.798  40.831   3.837
49653W        W21182  38.345  36.788   3.422
49654W        W21183  10.206  11.293   4.119
49655W        W21184   0.357  14.580  14.938
49656W        W21185   2.923  19.653   3.188
49657W        W21186  32.316  10.604  11.133
49658W        W21187   7.679  20.550  13.017
49659W        W21188   4.301  34.597   2.311
49660W        W21189  23.479   4.238  11.584
49661W        W21190   7.568  12.379   2.404
49662W        W21191  15.132  10.091  13.839
49663W        W21192  32.378  10.069   1.565
49664W        W21193  44.218  40.366   1.340
49665W        W21194  15.262   5.872   3.212
49666W        W21195   3.838  11.057  14.868
49667W        W21196  35.432  20.341   1.731
49668W        W21197   9.934  16.279  14.916
49669W        W21198   0.388  39.835  14.900
49670W        W21199  10.224  18.370   3.264
49671W        W21200  17.646  17.857  12.433
49672W        W21201  10.725  39.892   4.258
49673W        W21202  39.068   3.328  12.442
49674W        W21203  26.381   7.070   3.331
49675W        W21204  40.322   9.174   0.440
49676W        W21205  17.101  34.852  12.933
49677W        W21206   7.892  43.455  14.813
49678W        W21207  17.978  13.333  12.556
49679W        W21208   8.084  10.218   0.530
49680W        W21209  16.696  44.413  13.326
49681W        W21210  22.582  42.568  13.597
49682W        W21211  33.506  21.064  10.844
49683W        W21212  21.689   7.103  11.554
49684W        W21213  29.219  32.459  13.517
49685W        W21214   3.771  41.006   2.303
49686W        W21215  25.430  32.498  11.537
49687W        W21216   4.371   1.455   2.823
49688W        W21217  36.506  17.529   1.706
49689W        W21218  12.182  42.328  10.715
49690W        W21219  20.811  30.192   0.128
49691W        W21220  38.425  17.759   1.095
49692W        W21221  26.742  27.672  10.485
49693W        W21222  44.938   7.027  13.565
49694W        W21223  19.587  18.193   0.691
49695W        W21224  32.057  14.030  14.956
49696W        W21225  17.177  19.191  13.814
49697W        W21226   2.333  34.066  14.521
49698W        W21227  35.042  39.435  13.899
49699W        W21228  29.870  16.165  11.456
49700W        W21229  34.132  10.737  13.031
49701W        W21230   0.532   8.818   3.294
49702W        W21231   7.472   5.228  11.255
49703W        W21232   9.355   9.082   3.618
49704W        W21233  26.238  10.354   0.797
49705W        W21234  22.156  17.360  11.934
49706W        W21235  35.101  43.360  12.350
49707W        W21236   4.207  19.263  13.791
49708W        W21237  25.094   0.426  12.789
49709W        W21238   8.653   9.717   2.564
49710W        W21239   6.978  37.160  14.019
49711W        W21240  39.845   6.714   3.200
49712W        W21241  44.569   6.620  12.666
49713W        W21242  11.554  34.829  12.992
49714W        W21243  28.184   6.476   3.046
49715W        W21244  25.089  33.492  10.738
49716W        W21245  26.780  25.117  11.509
49717W        W21246  41.399  44.923   0.359
49718W        W21247  42.492  37.782   1.830
49719W        W21248  17.318  10.264   1.178
49720W        W21249  15.446  14.655   1.256
49721W        W21250  11.816   3.026  14.989
49722W        W21251   5.955  38.245  11.704
49723W        W21252   7.834  10.277   4.464
49724W        W21253  10.471  21.840   3.182
49725W        W21254   0.857  41.550  10.954
49726W        W21255  25.533   1.033  13.339
49727W        W21256  16.195  25.146  14.517
49728W        W21257  22.851  33.639   0.772
49729W        W21258  28.153  44.315  14.894
49730W        W21259  37.124  42.875  13.301
49731W        W21260  34.759  35.794   1.739
49732W        W21261  38.128  14.741  14.975
49733W        W21262  14.746  11.767   2.786
49734W        W21263   9.772   3.856  14.463
49735W        W21264  24.033  31.946  14.047
49736W        W21265  19.795  36.640  13.993
49737W        W21266   5.654   8.156   1.832
49738W        W21267  25.131  36.056  14.178
49739W        W21268  16.657  19.996  10.990
49740W        W21269  39.532  15.563   3.399
49741W        W21270  39.245  25.414   1.199
49742W        W21271  28.395  10.732   0.534
49743W        W21272  20.935  19.635  13.809
49744W        W21273  12.218   7.153   1.271
49745W        W21274  20.398   9.430   3.223
49746W        W21275  25.774  29.748  14.893
49747W        W21276  37.482  36.020   2.757
49748W        W21277  20.230  16.839  12.821
49749W        W21278  26.734  34.287   3.050
49750W        W21279  36.569  22.785   1.260
49751W        W21280  35.687   7.864   3.609
49752W        W21281  44.351  26.993   2.475
49753W        W21282  20.243  17.050   3.693
49754W        W21283  37.498  25.749   1.510
49755W        W21284  34.655  20.633  14.009
49756W        W21285  17.165  28.514  14.368
49757W        W21286   5.353  19.946  12.368
49758W        W21287   5.546  20.499   2.450
49759W        W21288  21.549  43.616   3.667
49760W        W21289  17.595   7.649  14.798
49761W        W21290  28.036  39.366   3.709
49762W        W21291   6.239  44.888   4.908
49763W        W21292  33.044  31.144   1.739
49764W        W21293  26.975   9.324  10.720
49765W        W21294   1.468   7.001   4.487
49766W        W21295   1.854  39.261   4.936
49767W        W21296  40.917  20.117  14.746
49768W        W21297  15.995  15.828   1.946
49769W        W21298  32.298  11.839  13.068
49770W        W21299  11.179   7.979  12.224
49771W        W21300  38.579  17.804  12.205
49772W        W21301   5.458  24.658   3.820
49773W        W21302  26.873  34.714   1.029
49774W        W21303  37.855  31.987  13.878
49775W        W21304   2.850  38.038   4.734
49776W        W21305   4.087  44.492  13.605
49777W        W21306  17.242   5.775  13.388
49778W        W21307  28.188   7.433  11.943
49779W        W21308  34.204  32.038   0.712
49780W        W21309  26.124   1.313   1.867
49781W        W21310  31.782  10.378  11.596
49782W        W21311  39.444  38.274   3.273
49783W        W21312  44.454  32.526  13.891
49784W        W21313   2.776  12.260  11.590
49785W        W21314  12.835   3.964  12.598
49786W        W21315  13.218   5.621   2.723
49787W        W21316  14.789   7.483   3.150
49788W        W21317   3.380  34.419  12.661
49789W        W21318  18.031  16.972   1.414
49790W        W21319   7.706  33.361   1.705
49791W        W21320  25.790  34.654  12.522
49792W        W21321  11.529  17.305  14.964
49793W        W21322  38.693   7.036   5.024
49794W        W21323   1.647  13.097   1.159
49795W        W21324   9.874  14.074   4.218
49796W        W21325   8.437  42.787  13.191
49797W        W21326  23.077  30.481  11.188
49798W        W21327  16.709   3.705  11.480
49799W        W21328  33.061  24.496   1.794
49800W        W21329  32.098  32.255   1.556
49801W        W21330  19.977   2.372  10.567
49802W        W21331  40.768   3.450   4.130
49803W        W21332  19.545  44.758  12.362
49804W        W21333  28.056  23.472   2.705
49805W        W21334   9.875  25.221  11.010
49806W        W21335  37.025  21.366  13.789
49807W        W21336   5.681  19.116   1.680
49808W        W21337   2.580   4.519  14.451
49809W        W21338  20.870  38.523   9.837
49810W        W21339  12.766  20.132  14.108
49811W        W21340  31.854  34.815  11.588
49812W        W21341  11.540  24.517  11.184
49813W        W21342   8.099  26.751   0.567
49814W        W21343  43.298  12.598   3.177
49815W        W21344   2.320  15.863   1.874
49816W        W21345  20.563  26.946  14.940
49817W        W21346   8.445  16.592   4.719
49818W        W21347  10.709  23.044   0.997
49819W        W21348  10.799   8.837  11.920
49820W        W21349  19.327  32.551  12.215
49821W        W21350  15.715   4.813  13.089
49822W        W21351   8.181  32.175   4.413
49823W        W21352  13.046  12.382   3.704
49824W        W21353  34.602  11.687   0.686
49825W        W21354  16.466  27.610  10.275
49826W        W21355   3.740  31.399   3.330
49827W        W21356   5.783  16.642   3.622
49828W        W21357  11.241   8.296   3.213
49829W        W21358  37.559  28.063  10.753
49830W        W21359  19.558  34.830  12.816
49831W        W21360  37.354  14.155   1.400
49832W        W21361   8.391  17.095   0.082
49833W        W21362  21.539  23.001  14.270
49834W        W21363  32.071  10.854   1.887
49835W        W21364   1.259  32.549  13.873
49836W        W21365  15.350  26.949  14.928
49837W        W21366  31.752   6.825   0.901
49838W        W21367  16.322  34.725   3.534
49839W        W21368  16.617  16.248   4.622
49840W        W21369   0.542  44.207  12.554
49841W        W21370   8.485  24.743   2.785
49842W        W21371  32.732   1.340   2.937
49843W        W21372   8.360  17.898   4.244
49844W        W21373  42.363  34.437  14.761
49845W        W21374  13.250  20.988   1.807
49846W        W21375   4.424   7.652   2.731
49847W        W21376   8.388  34.402  14.457
49848W        W21377  15.285  20.958  13.061
49849W        W21378  27.358  34.526   0.887
49850W        W21379  30.936  15.187   0.814
49851W        W21380  39.833  44.939   3.032
49852W        W21381  27.244  43.058  12.259
49853W        W21382  42.948  15.132  13.397
49854W        W21383  15.812  21.280  13.089
49855W        W21384  23.575  10.549  11.826
49856W        W21385   4.345  28.189  12.977
49857W        W21386  30.159  11.279   2.193
49858W        W21387  16.466  41.342   3.627
49859W        W21388  13.553   5.643  14.295
49860W        W21389  36.941  44.218   4.665
49861W        W21390  34.050  26.733  11.349
49862W        W21391   6.179  25.340   4.630
49863W        W21392   0.961  39.499  10.687
49864W        W21393  20.857  21.495   0.262
49865W        W21394  36.514  22.823  13.299
49866W        W21395  18.142  23.877  12.903
49867W        W21396  30.456  41.385  13.951
49868W        W21397  27.089  41.874  11.642
49869W        W21398  12.071  36.559  11.239
49870W        W21399  43.208  14.999  14.401
49871W        W21400  15.076  29.576   2.647
49872W        W21401  12.663  39.048  14.900
49873W        W21402  31.968  28.681   3.657
49874W        W21403  30.529  13.729   2.930
49875W        W21404  36.642  25.265   2.747
49876W        W21405  36.683  44.321  11.491
49877W        W21406  14.612   8.101   1.741
49878W        W21407   7.695   1.888  13.664
49879W        W21408  26.283   0.323  13.069
49880W        W21409   3.517   6.507   1.017
49881W        W21410  34.541  10.151  11.170
49882W        W21411  17.285  39.193   2.374
49883W        W21412  14.159  26.935  13.921
49884W        W21413  34.864  44.558   2.272
49885W        W21414  36.949  35.334  14.739
49886W        W21415   9.118  11.249   3.217
49887W        W21416  12.681   5.611   2.686
49888W        W21417  24.674  17.315  10.744
49889W        W21418  28.705   0.923   0.481
49890W        W21419   8.431   1.278   1.224
49891W        W21420  35.648  15.271   0.960
49892W        W21421  17.558  13.167   4.236
49893W        W21422  20.247  26.950  11.886
49894W        W21423  24.370  30.550   2.756
49895W        W21424  27.120  40.514   1.974
49896W        W21425  12.622  40.560   0.928
49897W        W21426  42.710  36.791   4.174
49898W        W21427  26.721   3.360   4.974
49899W        W21428  15.418  15.527  14.150
49900W        W21429   2.256  24.873   2.913
49901W        W21430  44.350  14.119  10.425
49902W        W21431  10.342  10.605   2.753
49903W        W21432   6.947  19.750   4.047
49904W        W21433  14.668  12.927  13.606
49905W        W21434  28.461  21.777  13.595
49906W        W21435  22.755  37.008   3.242
49907W        W21436  44.145   6.318   1.365
49908W        W21437   8.227   2.239   0.256
49909W        W21438  11.684   2.315   4.581
49910W        W21439  12.635  13.913   1.049
49911W        W21440  24.160   7.622  10.881
49912W        W21441  15.818  29.146   2.738
49913W        W21442  21.202  16.893   4.063
49914W        W21443  21.355  15.356  12.513
49915W        W21444  34.123  43.717  13.278
49916W        W21445  29.634  41.073  11.608
49917W        W21446   3.950  32.409   1.265
49918W        W21447  24.308   3.224  12.938
49919W        W21448  42.568  20.733  11.894
49920W        W21449  29.154   0.823   4.480
49921W        W21450  16.191  11.978   1.751
49922W        W21451  21.080   6.777  11.267
49923W        W21452  34.215  16.337  11.070
49924W        W21453  30.565  31.333   2.812
49925W        W21454   7.171  29.869   0.449
49926W        W21455  18.075  38.163   3.319
49927W        W21456  17.344  41.014   0.352
49928W        W21457   2.538   3.229  13.113
49929W        W21458  34.521  17.337  11.185
49930W        W21459   8.662  11.520   3.166
49931W        W21460  33.543  36.114  12.524
49932W        W21461  15.213  29.869  14.713
49933W        W21462  20.249  25.984   0.527
49934W        W21463  37.460  39.084  14.487
49935W        W21464  15.735   8.254  12.869
49936W        W21465  31.485   8.342   4.192
49937W        W21466  13.456   3.524  10.331
49938W        W21467  18.755  16.540  11.729
49939W        W21468  14.181   3.396   1.932
49940W        W21469  31.425  22.008  11.179
49941W        W21470  27.456  29.422  12.091
49942W        W21471  15.293  15.523  11.549
49943W        W21472  39.177  11.222   3.244
49944W        W21473  32.523   5.202   1.833
49945W        W21474   3.200  43.523  12.775
49946W        W21475   6.863  28.742   0.707
49947W        W21476   8.146   1.383  13.833
49948W        W21477  33.640  35.620  11.645
49949W        W21478  16.794   1.678   1.384
49950W        W21479  22.060  36.288   3.213
49951W        W21480   4.135  29.980   0.769
49952W        W21481  39.202  40.467  14.424
49953W        W21482  10.416  10.628  14.441
49954W        W21483  30.368  11.566  14.353
49955W        W21484  12.994  26.913  11.157
49956W        W21485  14.604  28.234   3.738
49957W        W21486  35.977   0.482   3.617
49958W        W21487  12.731  28.858   2.913
49959W        W21488  20.937  44.735   4.380
49960W        W21489  19.198  34.996   3.241
49961W        W21490  43.832  17.742  10.616
49962W        W21491   0.162  40.932   0.823
49963W        W21492  10.191   1.203   1.708
49964W        W21493  16.529  43.694   4.537
49965W        W21494   1.350  15.536  14.302
49966W        W21495  14.857  42.680  10.673
49967W        W21496  34.075  21.126  14.989
49968W        W21497  33.717  17.547  13.524
49969W        W21498   7.349  36.394  13.717
49970W        W21499  15.298   9.273  11.931
49971W        W21500  40.392   8.467  11.367
49972W        W21501  31.702  27.037  13.389
49973W        W21502   6.854   3.946   3.214
49974W        W21503  19.234  33.112   0.734
49975W        W21504   2.782  24.150  11.686
49976W        W21505  19.303  26.972   0.753
49977W        W21506   0.848  41.040  10.738
49978W        W21507  12.286   2.798  14.824
49979W        W21508  24.327   2.858  10.773
49980W        W21509  39.378  33.128   2.655
49981W        W21510   0.453  28.063  13.098
49982W        W21511  18.958  10.809   3.883
49983W        W21512  27.096  24.499  13.981
49984W        W21513   6.700  41.184  13.441
49985W        W21514  17.124   2.228   4.128
49986W        W21515   0.444  38.000   4.608
49987W        W21516  38.478  41.390  14.556
49988W        W21517  28.199  44.338  10.773
49989W        W21518  13.530   7.740   5.099
49990W        W21519  18.563  19.582  14.427
49991W        W21520  27.709   3.817   0.965
49992W        W21521  13.840  40.835   3.645
49993W        W21522  19.576  12.799  14.986
49994W        W21523  20.277   7.223  14.815
49995W        W21524  38.888  38.744  14.407
49996W        W21525  34.532  17.138   4.423
49997W        W21526   6.886  43.901   0.708
49998W        W21527   2.780  19.560  14.218
49999W        W21528   5.496  24.176   1.336
50000W        W21529  20.859  43.942  13.411
50001W        W21530  25.771  42.394  12.450
50002W        W21531  29.638   3.729  11.130
50003W        W21532   8.150  33.266   2.517
50004W        W21533  42.234  21.509   1.445
50005W        W21534   0.849   9.251  10.670
50006W        W21535  28.665   3.627  11.645
50007W        W21536  31.705  15.956  12.547
50008W        W21537  36.860  33.867   3.286
50009W        W21538  13.386  25.319   2.703
50010W        W21539  16.997   0.565   0.324
50011W        W21540  34.859  33.623  12.064
50012W        W21541  28.057  29.509   2.230
50013W        W21542   8.759  43.508  14.912
50014W        W21543   9.096  38.903  14.418
50015W        W21544  21.616   6.224   4.592
50016W        W21545  35.334  30.564  11.537
50017W        W21546  20.512  16.553  14.434
50018W        W21547  27.725  16.251  10.215
50019W        W21548  26.247  39.080   2.214
50020W        W21549  29.057  41.909   3.564
50021W        W21550   4.612  39.508  13.885
50022W        W21551  35.381  34.055   2.786
50023W        W21552  35.483  31.569   4.306
50024W        W21553  30.601  12.567  13.448
50025W        W21554  44.300  28.517  14.027
50026W        W21555  41.520   8.999   1.371
50027W        W21556  29.185  12.847   1.369
50028W        W21557  21.053  19.341   0.151
50029W        W21558  31.607  35.463   1.351
50030W        W21559  22.309   3.557  12.789
50031W        W21560  35.576  32.395   3.286
50032W        W21561   9.834   3.926   1.234
50033W        W21562  20.899  33.312  12.194
50034W        W21563   4.014  11.662   4.602
50035W        W21564  20.353   7.414   1.247
50036W        W21565   3.148  37.097   3.353
50037W        W21566  30.245  22.091  14.830
50038W        W21567   0.567  23.234  11.032
50039W        W21568   5.494  41.199   0.087
50040W        W21569  41.646  26.152  14.954
50041W        W21570  37.301  25.113   2.118
50042W        W21571  14.209   7.408   2.888
50043W        W21572  35.754  28.587   3.742
50044W        W21573  42.856  20.438   2.648
50045W        W21574  41.092  19.609  14.790
50046W        W21575  14.990   0.569  14.438
50047W        W21576  35.495  28.413   0.866
50048W        W21577   9.404  18.353   3.604
50049W        W21578  19.510  24.195   4.518
50050W        W21579  20.175  25.932   1.849
50051W        W21580  43.350  10.706   4.164
50052W        W21581  12.128  28.317  14.485
50053W        W21582  10.917  23.679   1.148
50054W        W21583  15.630  38.217  11.898
50055W        W21584   3.477  30.379  10.566
50056W        W21585  19.816  24.523  14.455
50057W        W21586  18.271   6.904  10.542
50058W        W21587  44.809  21.921   2.431
50059W        W21588  24.768  13.581  14.561
50060W        W21589   6.915   2.533  10.697
50061W        W21590  12.705   3.223  11.936
50062W        W21591  21.781  10.467  11.238
50063W        W21592  44.163   8.702   2.852
50064W        W21593  10.911   6.936  13.444
50065W        W21594  43.534  20.588  11.096
50066W        W21595  27.559  38.071  14.410
50067W        W21596  22.170  33.481   1.689
50068W        W21597  33.524   4.026  11.858
50069W        W21598   7.354  21.499   1.717
50070W        W21599  37.282  32.604   4.017
50071W        W21600  36.925  25.426  12.897
50072W        W21601  23.150   0.444   3.655
50073W        W21602  32.212  40.502   2.840
50074W        W21603  24.506   8.815   4.673
50075W        W21604  43.819  10.672   3.304
50076W        W21605   5.760  31.459   4.071
50077W        W21606  25.152  44.555  12.517
50078W        W21607   2.413  40.445   4.289
50079W        W21608  32.206  44.712  13.970
50080W        W21609  40.062   3.987   4.535
50081W        W21610  13.418  41.909  12.912
50082W        W21611  16.346  41.371  10.886
50083W        W21612  23.059  35.985  11.423
50084W        W21613  41.785  43.691  14.174
50085W        W21614  11.197  39.944   1.398
50086W        W21615  38.566  41.858  14.753
50087W        W21616  12.876  34.990  11.265
50088W        W21617  12.257  23.083   1.672
50089W        W21618  42.176  37.488   4.170
50090W        W21619   2.181  25.095   2.359
50091W        W21620  20.556  29.389   0.282
50092W        W21621  15.806  11.078   3.245
50093W        W21622  10.165  24.251  11.952
50094W        W21623  23.954  11.880  12.466
50095W        W21624  21.177  18.568  12.478
50096W        W21625  15.265  14.619  14.367
50097W        W21626  12.715   8.362   0.347
50098W        W21627  34.539  34.693   2.436
50099W        W21628  25.793  38.149  12.053
50100W        W21629  15.221  16.274  13.949
50101W        W21630  25.923   2.409   0.939
50102W        W21631  22.550  12.477  12.507
50103W        W21632  15.859  38.247   4.491
50104W        W21633   8.909  19.698  12.958
50105W        W21634  23.023  26.966  14.910
50106W        W21635  33.428  37.871  13.469
50107W        W21636   5.886  10.065  11.045
50108W        W21637   5.317  44.929  14.087
50109W        W21638  20.867  43.015   2.433
50110W        W21639  15.833   2.223  13.816
50111W        W21640   4.248  11.595   2.792
50112W        W21641  24.118  34.869   1.792
50113W        W21642   3.758  20.276   0.523
50114W        W21643  16.092  21.418   3.619
50115W        W21644  17.640   5.816   2.092
50116W        W21645  41.563   5.893   0.829
50117W        W21646  12.379  22.017  14.006
50118W        W21647  11.388  41.674   3.888
50119W        W21648  30.726  31.367  12.052
50120W        W21649   4.510   7.758  14.702
50121W        W21650  20.042  25.270  12.932
50122W        W21651   5.877   9.391   0.775
50123W        W21652  33.256  40.889   0.501
50124W        W21653   8.296   0.496   2.629
50125W        W21654  18.099  42.476  11.485
50126W        W21655  30.967  27.600  14.257
50127W        W21656  26.247  41.326  11.109
50128W        W21657   9.234  29.452   4.456
50129W        W21658   2.004  14.196  14.393
50130W        W21659  40.057  21.147  12.440
50131W        W21660   5.734  31.603  12.402
50132W        W21661   3.640  40.118  12.977
50133W        W21662   0.426  35.590   1.907
50134W        W21663  43.880  40.825  13.132
50135W        W21664  26.649   9.584   1.362
50136W        W21665  41.652  23.483  14.973
50137W        W21666   2.192  38.704   9.879
50138W        W21667  27.582  15.410  11.181
50139W        W21668  22.966  41.790  12.649
50140W        W21669   0.303   7.564  13.623
50141W        W21670   0.255  40.545   2.111
50142W        W21671  33.092  27.516   1.794
50143W        W21672  13.372  21.073   2.342
50144W        W21673   9.796  21.368  11.564
50145W        W21674  35.260  29.010  13.489
50146W        W21675  28.552  14.383  12.961
50147W        W21676   5.755  10.327   4.270
50148W        W21677  22.047  10.787  11.688
50149W        W21678  38.389   8.352   4.290
50150W        W21679  36.987  36.249  12.488
50151W        W21680  38.833  29.088  14.462
50152W        W21681  21.719  31.945   4.954
50153W        W21682  19.550  15.045  13.332
50154W        W21683   5.605  22.656  13.955
50155W        W21684   9.192  34.521  11.165
50156W        W21685  22.080   3.984   2.162
50157W        W21686  40.769  34.762  13.646
50158W        W21687  35.095  33.587   0.403
50159W        W21688   3.368  22.528   3.312
50160W        W21689  15.869  14.634  13.314
50161W        W21690  18.193  39.771   1.065
50162W        W21691  21.619  38.633  11.935
50163W        W21692  13.574   7.195  10.276
50164W        W21693  42.965  39.048  14.073
50165W        W21694   2.727  18.748   3.565
50166W        W21695  41.640  23.965  12.994
50167W        W21696  26.572  21.938  10.884
50168W        W21697  27.597  38.604  14.465
50169W        W21698  16.472  30.060   4.295
50170W        W21699  37.409  23.206  13.298
50171W        W21700  14.592  19.801  10.687
50172W        W21701  15.580  14.701  11.843
50173W        W21702  20.305  35.550   4.943
50174W        W21703  36.448  31.692   3.195
50175W        W21704   0.039   8.434  11.234
50176W        W21705  12.970  14.294   2.727
50177W        W21706  39.975  44.847   0.030
50178W        W21707   0.213  28.090   1.489
50179W        W21708   7.578  15.288   4.707
50180W        W21709  40.652   4.248   2.419
50181W        W21710  41.038  23.757  11.639
50182W        W21711  30.402   7.884   0.878
50183W        W21712  16.529  39.948   0.474
50184W        W21713   2.197  16.129   0.282
50185W        W21714  11.501  33.242  11.700
50186W        W21715  33.819  35.415  13.346
50187W        W21716  21.114  15.508  11.542
50188W        W21717  18.733  23.378   1.538
50189W        W21718  17.252  37.876   9.902
50190W        W21719  18.630  18.790  11.647
50191W        W21720  34.511  13.597   2.310
50192W        W21721  15.757  42.609   0.224
50193W        W21722  40.938  14.570  10.695
50194W        W21723  41.852  44.543  11.213
50195W        W21724  24.785  41.524  14.546
50196W        W21725  43.517  15.747   1.228
50197W        W21726  29.063  39.836  11.552
50198W        W21727  39.195  24.086  13.885
50199W        W21728  30.214  36.156  11.140
50200W        W21729  29.983   5.244   0.075
50201W        W21730  14.161  26.863   1.122
50202W        W21731  35.378  20.644   1.280
50203W        W21732  42.431  19.142  11.226
50204W        W21733  15.388  23.163   3.143
50205W        W21734   9.513  32.174   0.195
50206W        W21735  35.490  19.556  14.293
50207W        W21736  11.614  19.061   3.902
50208W        W21737  40.281  26.853   2.621
50209W        W21738  39.441  13.611   0.397
50210W        W21739   3.785  28.987  12.130
50211W        W21740  32.146  23.761   4.195
50212W        W21741  38.103  11.548  14.004
50213W        W21742  30.593  22.073  12.516
50214W        W21743  21.519   4.466  10.780
50215W        W21744  40.488   9.098   2.715
50216W        W21745  17.638   2.733   4.759
50217W        W21746  26.244  33.327   4.086
50218W        W21747   2.316  20.520   4.851
50219W        W21748  32.632  30.587   1.267
50220W        W21749  17.562  20.763  12.216
50221W        W21750  44.731  18.665  10.575
50222W        W21751  15.603   1.945  14.564
50223W        W21752  38.001   4.978   4.174
50224W        W21753   8.370  43.449  14.536
50225W        W21754  26.659  31.884   3.149
50226W        W21755  17.356   1.547   5.030
50227W        W21756   8.775  29.286  10.505
50228W        W21757  40.894  20.040   2.716
50229W        W21758   3.856  19.061  12.019
50230W        W21759  11.668   8.722  10.318
50231W        W21760  30.518  12.169  14.470
50232W        W21761  17.607   5.991  12.551
50233W        W21762  19.819  20.019  13.306
50234W        W21763  11.282  23.570   2.769
50235W        W21764  13.599  17.871  11.983
50236W        W21765  23.484  15.775  12.702
50237W        W21766  23.231   7.386   2.904
50238W        W21767  33.821   5.197  11.586
50239W        W21768  15.016  25.250   2.212
50240W        W21769  15.551   8.307   3.662
50241W        W21770  27.463  34.821  12.448
50242W        W21771  38.744  19.175   1.880
50243W        W21772  39.408  11.561   0.993
50244W        W21773  13.313  31.670  12.192
50245W        W21774  29.540   3.930  10.655
50246W        W21775  43.328   7.513   0.011
50247W        W21776  29.971  29.896   1.388
50248W        W21777  23.733  36.683  14.533
50249W        W21778  28.099  38.400  11.256
50250W        W21779  24.260  41.523  11.655
50251W        W21780   8.752  21.462  11.497
50252W        W21781  28.111  14.320   0.313
50253W        W21782  16.630   9.726   3.484
50254W        W21783  30.158  29.924   4.869
50255W        W21784  41.604  19.236   3.794
50256W        W21785   4.632  19.559  12.064
50257W        W21786  27.283  21.593  12.528
50258W        W21787  28.839  11.673  13.843
50259W        W21788   2.975  42.816  12.928
50260W        W21789   5.978  29.461   3.390
50261W        W21790   4.936  30.932   1.975
50262W        W21791   6.995  42.681   1.874
50263W        W21792   1.323  33.519   0.664
50264W        W21793  24.468  41.242  13.822
50265W        W21794  14.822  34.143  10.559
50266W        W21795  19.001  19.479  14.736
50267W        W21796  33.503  24.553  10.915
50268W        W21797   1.939  17.717   2.339
50269W        W21798  10.027  28.944   4.173
50270W        W21799  21.939  31.025   1.796
50271W        W21800  22.595  22.621  11.188
50272W        W21801  38.920  37.142  11.287
50273W        W21802   1.738  19.638   2.422
50274W        W21803  42.551  39.921   3.690
50275W        W21804  34.551   0.621  11.752
50276W        W21805  18.517   5.850  13.931
50277W        W21806  11.761  14.870   0.863
50278W        W21807  31.321  37.091  11.195
50279W        W21808  28.271  43.843   0.439
50280W        W21809  33.788  26.003  13.855
50281W        W21810  18.996  30.659  13.256
50282W        W21811  33.661  40.774   0.847
50283W        W21812   0.655   4.938   1.805
50284W        W21813   6.015  24.190   1.315
50285W        W21814  18.074  30.547   2.016
50286W        W21815  36.026   8.117  11.113
50287W        W21816  24.110  13.573  12.059
50288W        W21817  16.973  19.942   4.046
50289W        W21818  13.144   3.936   2.302
50290W        W21819   1.497   7.732   1.274
50291W        W21820  43.895   4.056  14.084
50292W        W21821  25.696  36.376  13.859
50293W        W21822  36.233  12.251  11.632
50294W        W21823  10.098  30.845  11.559
50295W        W21824  13.215  43.965  10.442
50296W        W21825  34.887  19.077  12.174
50297W        W21826  22.277  10.377   3.644
50298W        W21827  35.488  29.781   3.024
50299W        W21828  31.426  26.150  14.970
50300W        W21829  32.068  16.161   4.293
50301W        W21830  39.882  37.994   3.118
50302W        W21831  25.237  36.297   4.776
50303W        W21832   8.326  40.376  11.117
50304W        W21833  37.953  34.073   0.312
50305W        W21834  15.335  24.607  10.742
50306W        W21835   3.673  31.585   1.209
50307W        W21836   0.180  35.179   4.294
50308W        W21837  19.049  43.268   4.031
50309W        W21838   3.370  23.226  12.464
50310W        W21839  34.796  21.143   4.558
50311W        W21840  39.534  35.874  13.869
50312W        W21841  41.447  21.316  12.987
50313W        W21842   8.319  13.970  10.107
50314W        W21843  26.990   5.931   4.648
50315W        W21844  24.788  13.437  11.057
50316W        W21845  30.885  40.294  13.550
50317W        W21846  39.887  31.779  11.196
50318W        W21847  42.334  29.127   3.228
50319W        W21848   6.580  23.570  13.362
50320W        W21849  12.854  33.073   4.654
50321W        W21850   0.371  40.961   3.669
50322W        W21851  23.654   6.269   2.735
50323W        W21852   8.683  30.530   2.758
50324W        W21853  30.376   2.776  13.357
50325W        W21854  38.039  26.776  14.900
50326W        W21855  14.790   6.143  13.202
50327W        W21856   1.480  11.456  14.339
50328W        W21857  29.937  14.515  14.439
50329W        W21858   2.781   9.810   1.400
50330W        W21859  27.470  13.663  11.398
50331W        W21860   6.307  30.191  13.855
50332W        W21861   2.228  42.319  11.256
50333W        W21862  12.748  22.214  12.500
50334W        W21863  21.158  11.737   0.955
50335W        W21864  24.214  13.461   3.577
50336W        W21865  13.213  35.098  14.737
50337W        W21866   1.511  37.047   1.347
50338W        W21867   2.200   4.492  12.994
50339W        W21868   3.915   6.667   3.614
50340W        W21869  26.224  17.628   3.035
50341W        W21870  14.124  29.722   3.215
50342W        W21871  12.557   9.425  10.617
50343W        W21872  31.640  31.974   1.637
50344W        W21873  36.309  40.895  11.584
50345W        W21874   0.402  32.617   0.409
50346W        W21875  31.016  41.874   4.122
50347W        W21876  29.998   0.481   0.578
50348W        W21877  33.156  11.295   4.210
50349W        W21878  14.504   0.906   1.858
50350W        W21879  35.052   7.432   1.759
50351W        W21880   7.195   6.684  14.235
50352W        W21881  27.001  16.256  11.587
50353W        W21882   5.405  34.495   4.429
50354W        W21883  16.854  28.161   3.416
50355W        W21884   5.657   0.858  11.996
50356W        W21885  19.076  15.139  13.518
50357W        W21886  20.454  25.725   1.453
50358W        W21887  37.476  14.833   3.328
50359W        W21888  42.514   6.671  10.807
50360W        W21889  23.437  30.135  13.009
50361W        W21890  11.308  31.981   2.611
50362W        W21891   8.749  13.398   0.528
50363W        W21892  10.778   3.963  14.929
50364W        W21893  15.884  40.710   2.155
50365W        W21894   5.896   4.362  11.973
50366W        W21895   6.760  18.315  13.030
50367W        W21896  41.208  22.949   0.784
50368W        W21897  29.481  30.996   3.688
50369W        W21898  13.210   3.257   1.007
50370W        W21899   5.011  29.191  14.870
50371W        W21900   3.881  14.122  11.727
50372W        W21901  10.636  21.120   3.563
50373W        W21902   4.576  16.606  11.117
50374W        W21903  24.096   6.276  10.565
50375W        W21904   3.578  37.688   0.835
50376W        W21905  43.801  30.892  12.959
50377W        W21906  41.286  11.648  12.930
50378W        W21907  19.061  32.335   3.522
50379W        W21908  32.867   1.568   0.674
50380W        W21909  27.934  17.199   2.796
50381W        W21910  36.464  39.737   4.872
50382W        W21911  27.547  20.584  12.917
50383W        W21912  23.508  19.108  13.499
50384W        W21913  10.352  26.076   3.229
50385W        W21914  17.188  27.185  13.344
50386W        W21915  38.512  39.041   3.602
50387W        W21916  21.536  20.975   1.401
50388W        W21917  12.239  32.418  13.094
50389W        W21918  16.630   6.527   2.152
50390W        W21919   0.363  42.715   3.132
50391W        W21920  12.789  27.748  11.010
50392W        W21921  15.555  22.538  14.413
50393W        W21922  19.121  42.737   2.772
50394W        W21923  24.136  37.050   3.925
50395W        W21924  21.185  35.460  11.651
50396W        W21925  43.379  35.454  14.926
50397W        W21926  35.445  34.622   1.912
50398W        W21927   6.223  31.603   1.408
50399W        W21928  21.778  17.216   1.412
50400W        W21929  16.921  20.204  11.389
50401W        W21930   3.178   0.025   3.715
50402W        W21931  34.672   0.198  14.835
50403W        W21932  27.391  10.820   2.406
50404W        W21933  29.911  42.944  12.488
50405W        W21934  16.831  32.048  12.546
50406W        W21935  29.971  15.241  13.570
50407W        W21936  10.962   3.440   1.903
50408W        W21937  40.732  28.036   3.226
50409W        W21938  33.927  24.033   3.034
50410W        W21939  31.711  22.325  14.895
50411W        W21940  41.335  41.811  12.569
50412W        W21941  34.031   2.474  14.465
50413W        W21942   2.922  11.112   0.022
50414W        W21943  22.238  17.733  13.315
50415W        W21944  21.042  29.168  10.078
50416W        W21945   2.157  40.067  13.100
50417W        W21946   0.918   1.964  12.594
50418W        W21947  32.090  18.114  13.414
50419W        W21948   6.115  12.348  11.116
50420W        W21949  19.686   2.726  14.198
50421W        W21950  27.884  16.725   2.197
50422W        W21951   8.652   4.829  14.054
50423W        W21952   4.234  33.131   0.079
50424W        W21953   5.201  41.556  14.467
50425W        W21954  34.331  25.533  11.163
50426W        W21955  28.557  39.372   4.581
50427W        W21956  40.438   3.190   4.911
50428W        W21957  29.186  17.124  14.356
50429W        W21958  14.643   3.120  12.002
50430W        W21959   4.634  28.084   0.477
50431W        W21960   8.916  39.371  12.781
50432W        W21961  16.515  20.277   3.804
50433W        W21962   9.429  14.220  11.526
50434W        W21963   5.791   0.067   3.524
50435W        W21964   4.337  13.601   0.962
50436W        W21965  43.930   2.563  11.034
50437W        W21966   8.352  14.770  10.435
50438W        W21967  14.312  25.192  11.369
50439W        W21968  19.295  12.184  10.413
50440W        W21969  28.690  38.311  12.022
50441W        W21970  40.819   7.400   2.683
50442W        W21971  11.452   8.834  11.104
50443W        W21972  19.560  25.704   2.156
50444W        W21973  21.140   9.132   4.243
50445W        W21974  15.551  38.886   0.395
50446W        W21975  25.408  36.329   0.774
50447W        W21976  41.978   3.427  13.459
50448W        W21977   4.718  44.544  10.563
50449W        W21978   9.201  30.585  13.877
50450W        W21979  37.034  30.200  14.836
50451W        W21980  28.845  41.732   1.752
50452W        W21981  12.511   9.465  13.064
50453W        W21982  23.392  15.708   3.267
50454W        W21983  23.241  40.360   2.189
50455W        W21984   4.206  30.172   2.450
50456W        W21985  15.267  37.012  12.180
50457W        W21986  21.934   1.843   0.790
50458W        W21987   6.061   9.163  11.203
50459W        W21988  26.666  32.138   0.798
50460W        W21989  10.302  10.289   3.241
50461W        W21990  31.943  40.447   3.832
50462W        W21991   4.300  12.110   3.616
50463W        W21992  19.708  40.904  12.569
50464W        W21993  12.698  34.977   0.331
50465W        W21994   3.681  32.474   3.352
50466W        W21995  39.427   8.554  11.485
50467W        W21996  17.676  31.071  11.333
50468W        W21997  40.799  22.161   4.565
50469W        W21998  39.603   7.297  12.612
50470W        W21999   1.798  44.789  14.764
50471W        W22000  34.324  36.437   4.347
50472W        W22001  19.239   0.542   4.137
50473W        W22002   1.498  18.391  13.763
50474W        W22003  24.438  26.720  13.790
50475W        W22004  40.516  18.837  11.187
50476W        W22005   8.194  40.044   0.790
50477W        W22006  19.730   4.417  11.139
50478W        W22007  24.210   4.299   1.198
50479W        W22008  28.412  40.487   4.741
50480W        W22009  22.442   1.511  13.050
50481W        W22010  17.748   1.660   3.810
50482W        W22011   5.293  26.475   2.292
50483W        W22012  13.095  41.981   2.932
50484W        W22013  17.298  39.534  14.877
50485W        W22014  40.843  19.026  11.581
50486W        W22015  21.667  38.466   0.632
50487W        W22016  27.870  10.149  10.499
50488W        W22017   4.963  39.329   0.812
50489W        W22018  11.561   9.274  12.091
50490W        W22019  44.589  15.763  14.747
50491W        W22020   1.450   0.393  13.800
50492W        W22021   8.190   9.146  13.504
50493W        W22022   4.385   6.468   3.792
50494W        W22023   4.664   2.807  11.883
50495W        W22024  44.052   9.818  14.312
50496W        W22025  37.613  18.543   4.113
50497W        W22026  27.528  17.782  13.540
50498W        W22027  24.084  12.777   2.308
50499W        W22028  16.656   5.757   4.302
50500W        W22029   6.709  21.961   4.116
50501W        W22030  24.187   6.843   3.616
50502W        W22031  26.058  11.762  14.063
50503W        W22032  22.687   1.388  11.640
50504W        W22033  19.606   7.769   0.172
50505W        W22034  35.155  20.449  13.924
50506W        W22035  20.179  21.132   4.665
50507W        W22036   8.901  23.004   3.236
50508W        W22037   8.086  18.772  13.544
50509W        W22038  31.643  31.861   0.813
50510W        W22039  32.493  36.086   0.274
50511W        W22040  24.616  27.045  10.912
50512W        W22041  29.887  32.846   3.535
50513W        W22042   9.714   6.250  12.968
50514W        W22043   2.033  20.141   4.075
50515W        W22044  35.320  37.440   0.759
50516W        W22045   8.050   9.042   3.293
50517W        W22046  18.561  22.566  10.604
50518W        W22047  32.969  20.294  13.960
50519W        W22048   1.048  15.593   0.490
50520W        W22049  14.203   2.789  12.036
50521W        W22050  16.522  32.106   0.367
50522W        W22051  40.354  22.152  14.515
50523W        W22052  38.541  18.442  13.963
50524W        W22053  41.414  32.021  11.499
50525W        W22054   0.332  38.900   1.760
50526W        W22055  15.856   6.543   5.043
50527W        W22056   0.744   0.565  12.796
50528W        W22057   1.727   2.857   0.292
50529W        W22058  29.185   3.882   4.416
50530W        W22059   1.968  15.149   2.399
50531W        W22060  31.833  31.490  14.902
50532W        W22061  18.303  20.760   4.317
50533W        W22062   4.492  28.685  10.809
50534W        W22063  21.013  21.571   3.895
50535W        W22064   8.813   0.767   4.019
50536W        W22065  37.863   4.885   2.119
50537W        W22066  15.072   1.794  13.332
50538W        W22067  36.071  40.481  12.005
50539W        W22068  33.387  16.270  13.250
50540W        W22069  21.571   2.503   3.719
50541W        W22070  16.093  10.684   4.020
50542W        W22071  19.494  34.907   2.219
50543W        W22072   6.903  23.240   4.570
50544W        W22073  21.429  34.696   1.395
50545W        W22074   3.863   0.913  14.895
50546W        W22075  12.090  12.553   3.637
50547W        W22076  33.391  25.987   2.213
50548W        W22077  20.082  19.740   2.832
50549W        W22078   4.567  26.885   2.790
50550W        W22079  15.254  27.482  10.485
50551W        W22080  36.460  10.716   4.661
50552W        W22081  21.655  30.999  13.347
50553W        W22082  28.976  20.193  12.437
50554W        W22083   9.368  40.921  10.776
50555W        W22084  36.542  18.174   4.127
50556W        W22085   1.321   9.647   1.373
50557W        W22086  23.691  23.108  13.387
50558W        W22087  25.547  20.723  11.610
50559W        W22088  24.560  25.264   0.989
50560W        W22089  20.989  24.644   1.957
50561W        W22090  42.355  41.577  10.647
50562W        W22091   7.455  10.191   2.889
50563W        W22092  30.961  33.452  12.371
50564W        W22093  21.161  43.777  10.679
50565W        W22094  28.605  18.828   3.570
50566W        W22095  40.263  43.028   0.483
50567W        W22096   5.327  20.373   1.419
50568W        W22097  11.904  20.614   2.780
50569W        W22098  42.888  28.145   0.520
50570W        W22099  15.840  15.697  10.760
50571W        W22100  26.487  15.585  11.906
50572W        W22101   0.001   8.903   0.679
50573W        W22102  34.897  36.909  11.937
50574W        W22103  35.635  44.747   2.370
50575W        W22104   4.686   3.964  12.127
50576W        W22105  15.479  27.595  11.501
50577W        W22106  11.867  44.111   2.798
50578W        W22107  36.848  16.281  11.572
50579W        W22108  13.755  20.349   2.643
50580W        W22109  13.177  10.604   2.779
50581W        W22110  21.170  43.357   0.720
50582W        W22111  17.542  21.359   1.931
50583W        W22112   6.470  22.686  12.000
50584W        W22113  17.326   8.197   3.242
50585W        W22114  42.449  25.738  12.124
50586W        W22115  42.238  25.221   3.162
50587W        W22116   9.859  19.720   3.876
50588W        W22117  12.277   5.405  12.486
50589W        W22118  33.920  22.693   4.873
50590W        W22119  42.746   2.774  14.819
50591W        W22120  19.790   0.022  14.300
50592W        W22121  38.366   5.388   2.702
50593W        W22122  27.577  17.102   0.943
50594W        W22123   0.473  34.092   3.033
50595W        W22124  25.993   8.832  13.357
50596W        W22125  15.458   6.106  14.734
50597W        W22126  35.387  10.698   0.726
50598W        W22127  38.741  10.282   0.761
50599W        W22128  32.748  43.666   2.452
50600W        W22129  30.069  44.510   0.960
50601W        W22130   9.790  37.042  14.068
50602W        W22131   9.054  42.818   3.623
50603W        W22132  44.104  30.451   1.469
50604W        W22133  41.612  22.306  13.922
50605W        W22134   2.683  42.904   2.218
50606W        W22135  30.164   2.446   3.631
50607W        W22136   2.847  20.585  11.645
50608W        W22137  21.734   5.390   0.473
50609W        W22138  43.684   3.368   2.262
50610W        W22139  19.333   9.155   1.382
50611W        W22140  25.261  15.591  13.483
50612W        W22141  28.637  30.606  11.284
50613W        W22142  19.215  18.693  14.867
50614W        W22143  30.883  14.495  10.661
50615W        W22144  39.706  22.074  10.754
50616W        W22145  12.264  20.222  12.766
50617W        W22146  25.073  25.868  12.502
50618W        W22147   5.738  35.945  14.110
50619W        W22148   6.170  39.542  12.157
50620W        W22149  30.189  27.039  10.870
50621W        W22150  40.408  19.201  10.587
50622W        W22151  25.154  22.997  12.320
50623W        W22152  10.654  26.932   2.747
50624W        W22153  14.820  30.460  12.103
50625W        W22154  43.614  42.317   1.964
50626W        W22155  18.260   2.419   3.121
50627W        W22156  23.633   3.386   1.161
50628W        W22157  42.767   2.924   1.725
50629W        W22158  28.227  14.738  12.795
50630W        W22159  17.729  30.436   3.708
50631W        W22160  43.422   9.627  13.429
50632W        W22161  16.380  23.084   4.635
50633W        W22162   6.610  32.446   1.039
50634W        W22163   6.093  42.807  12.614
50635W        W22164  34.854  25.010   3.162
50636W        W22165  11.268  40.567  10.693
50637W        W22166  24.477   9.131   4.173
50638W        W22167  43.572  19.461  13.409
50639W        W22168   6.979  33.381   0.429
50640W        W22169  39.196  36.772   2.372
50641W        W22170  14.729  22.130   2.822
50642W        W22171  39.494  13.060   1.680
50643W        W22172   7.193  32.946   2.366
50644W        W22173  33.423  42.244  11.889
50645W        W22174  13.231   3.743   4.885
50646W        W22175   4.008   5.161  11.591
50647W        W22176  23.798   0.154  14.741
50648W        W22177  42.842   5.456   4.514
50649W        W22178   6.778   2.926   0.211
50650W        W22179   3.911  25.431   2.785
50651W        W22180   8.251  32.529   3.136
50652W        W22181  23.598  33.100  13.593
50653W        W22182  25.043  44.938   2.605
50654W        W22183  17.845  40.561  12.007
50655W        W22184  21.151  21.782  13.817
50656W        W22185  18.782  25.056  11.510
50657W        W22186  35.861  19.340   0.871
50658W        W22187  22.362  22.978  13.614
50659W        W22188  19.664  36.749   2.458
50660W        W22189  27.864  24.133   3.564
50661W        W22190   9.356   4.328  11.980
50662W        W22191  13.677  24.104   2.906
50663W        W22192  13.188  44.392  11.483
50664W        W22193  10.097   3.247   4.822
50665W        W22194  13.416  23.268   4.052
50666W        W22195  44.531  25.216   0.830
50667W        W22196  28.605  34.044   2.212
50668W        W22197  27.604   9.044   2.661
50669W        W22198  36.496   7.234   2.569
50670W        W22199  30.769  43.897   4.259
50671W        W22200  30.631   3.934   1.318
50672W        W22201   1.692  40.569  11.785
50673W        W22202   4.180  15.771   0.397
50674W        W22203  40.355  20.046  14.945
50675W        W22204   0.818  38.612  14.973
50676W        W22205   5.248  31.640   9.974
50677W        W22206  19.625  24.907   3.694
50678W        W22207  33.963  33.482  11.258
50679W        W22208  40.741  42.789  12.957
50680W        W22209  41.728   9.941  11.632
50681W        W22210  10.190  20.631   4.651
50682W        W22211  42.965  25.660  11.410
50683W        W22212  23.528  15.747  11.089
50684W        W22213  15.839  25.657   4.068
50685W        W22214  29.095  37.408  14.800
50686W        W22215  20.162  11.236   4.807
50687W        W22216   4.188  33.757  12.226
50688W        W22217   2.949   9.665  11.533
50689W        W22218  36.626  16.352   3.242
50690W        W22219   2.871   9.334   2.778
50691W        W22220  42.270   2.341   1.763
50692W        W22221   3.257  33.501  11.192
50693W        W22222   0.170   1.861   1.848
50694W        W22223  33.678  40.990  13.140
50695W        W22224  14.048   5.347   3.705
50696W        W22225  41.018   0.144  12.297
50697W        W22226  41.633  28.798   0.829
50698W        W22227  26.435  14.113  12.071
50699W        W22228  22.040  13.117   3.725
50700W        W22229  25.398  36.906   1.619
50701W        W22230   2.319  33.667   3.912
50702W        W22231  11.142  41.028   0.920
50703W        W22232   9.751  40.928  13.413
50704W        W22233  11.240  35.525  14.948
50705W        W22234   1.757  31.939  11.127
50706W        W22235  40.968  10.242   2.288
50707W        W22236   8.419  33.165  13.825
50708W        W22237  30.530  25.889  11.849
50709W        W22238  35.073  34.979   1.280
50710W        W22239  23.208  27.732  11.996
50711W        W22240  40.774  16.015   1.919
50712W        W22241  42.032  39.906  10.612
50713W        W22242  13.719   6.472   0.785
50714W        W22243   6.145  42.557  13.061
50715W        W22244  29.107  17.701   3.861
50716W        W22245  14.366  11.483   3.303
50717W        W22246  43.431  21.446   1.638
50718W        W22247  24.326   8.188  14.833
50719W        W22248   4.861   2.062  12.438
50720W        W22249   1.859  18.263   0.000
50721W        W22250  26.644   6.418   2.574
50722W        W22251  26.544   4.851  13.826
50723W        W22252   7.865  16.622   1.458
50724W        W22253   8.938  40.381   2.744
50725W        W22254  22.584   7.833  14.566
50726W        W22255  28.428  40.277   0.861
50727W        W22256   1.390  38.030  11.265
50728W        W22257  15.209  11.809  11.541
50729W        W22258  26.234  42.652   2.748
50730W        W22259  44.196  41.789   3.099
50731W        W22260  11.275  22.567  10.458
50732W        W22261  22.435  22.238  12.981
50733W        W22262  23.766  24.146  14.913
50734W        W22263  38.310   8.431  10.641
50735W        W22264  38.015  33.437   0.016
50736W        W22265   3.022  38.597  12.759
50737W        W22266   4.112   3.487   0.248
50738W        W22267  35.487  41.264  12.906
50739W        W22268  32.706  28.997  12.625
50740W        W22269  34.902  10.836  14.196
50741W        W22270  39.580  28.366   4.604
50742W        W22271  43.454  21.203   2.166
50743W        W22272   2.420   1.799  10.977
50744W        W22273  22.004  24.198  11.849
50745W        W22274  30.919   7.882  10.987
50746W        W22275   8.869   8.772   1.491
50747W        W22276  34.572  41.727  12.714
50748W        W22277   4.700   5.778  12.489
50749W        W22278  38.106  10.024  12.308
50750W        W22279   3.768  19.929  14.084
50751W        W22280  20.902  33.599   4.194
50752W        W22281  14.261  24.589  14.437
50753W        W22282   1.233   3.386   2.358
50754W        W22283  23.866   7.581   4.877
50755W        W22284  21.452  35.458  11.194
50756W        W22285   7.740   9.939   4.077
50757W        W22286   7.587  32.232  10.763
50758W        W22287  38.810   9.800   2.926
50759W        W22288  44.393  32.083  10.809
50760W        W22289  25.053  25.743  13.411
50761W        W22290  13.200   8.709  13.851
50762W        W22291  22.208  20.084  13.567
50763W        W22292  40.405   1.473  10.742
50764W        W22293   6.658  37.508   4.152
50765W        W22294  39.530  23.230  12.567
50766W        W22295  18.868  41.039   3.454
50767W        W22296  11.499  41.957  11.649
50768W        W22297  30.963   3.270   3.720
50769W        W22298  20.779  33.042   3.801
50770W        W22299  32.184  35.084   3.117
50771W        W22300  19.233   3.023   4.254
50772W        W22301  16.147  22.370   5.006
50773W        W22302  17.624  43.202  11.840
50774W        W22303   8.331  24.876  14.966
50775W        W22304  38.000  43.561  13.849
50776W        W22305  44.248  36.724   4.184
50777W        W22306  10.701   9.919   2.401
50778W        W22307   8.085   8.882   4.177
50779W        W22308  31.046   9.417  11.105
50780W        W22309  29.589  37.164  11.575
50781W        W22310  36.584  16.123   1.974
50782W        W22311   0.370   2.942   4.162
50783W        W22312  33.924  44.443  11.005
50784W        W22313  44.768  25.476  14.739
50785W        W22314  26.486  17.188   2.901
50786W        W22315   2.779  21.005   1.940
50787W        W22316   9.861  27.588  12.922
50788W        W22317  43.579  18.882   0.238
50789W        W22318  27.420  29.118  11.595
50790W        W22319  27.140  30.159   2.802
50791W        W22320  18.604  11.370  14.111
50792W        W22321  39.120   3.960  11.133
50793W        W22322  19.223  39.493  11.783
50794W        W22323  42.576  21.737  14.399
50795W        W22324  31.931  35.176   1.907
50796W        W22325   9.627  21.729   1.358
50797W        W22326   4.432   0.706  13.773
50798W        W22327  17.277  14.819   0.222
50799W        W22328  32.102  40.921   3.170
50800W        W22329  20.712  21.606   0.743
50801W        W22330  23.349  21.418  10.294
50802W        W22331  13.800  39.325  13.450
50803W        W22332  16.233  18.591   0.328
50804W        W22333  39.258  41.100  13.421
50805W        W22334  44.125   0.873  11.480
50806W        W22335  30.176  22.255  11.712
50807W        W22336  33.570  37.409  13.212
50808W        W22337  27.505  19.474   1.770
50809W        W22338  14.027  35.027  13.526
50810W        W22339  35.974   7.214   4.660
50811W        W22340  14.429  12.249  11.155
50812W        W22341   2.482  14.705   4.094
50813W        W22342  15.425   1.115   1.970
50814W        W22343  34.426   6.775   2.151
50815W        W22344  24.428  33.940  11.147
50816W        W22345  10.585  36.942  12.654
50817W        W22346  20.612   7.566  11.075
50818W        W22347  18.634   9.857   3.688
50819W        W22348  32.039  10.269   3.025
50820W        W22349   2.739   1.498  11.766
50821W        W22350  35.119  10.666   1.286
50822W        W22351  25.072   8.218   4.107
50823W        W22352  20.759   6.201  12.130
50824W        W22353   8.761  34.723  10.962
50825W        W22354  13.342   8.308  14.645
50826W        W22355  23.002  39.771  13.830
50827W        W22356  43.505  28.924   1.391
50828W        W22357   5.577  29.526  13.961
50829W        W22358  36.474   6.390  10.932
50830W        W22359  22.251  12.894  12.503
50831W        W22360   8.951  24.349   3.140
50832W        W22361  37.934  34.838  12.465
50833W        W22362  31.132  28.481   1.430
50834W        W22363  38.984  39.225   3.734
50835W        W22364  44.335  34.815  11.447
50836W        W22365  16.295  44.893   3.553
50837W        W22366  20.972  22.253  13.117
50838W        W22367  18.712  21.634   2.500
50839W        W22368  32.059  20.002   0.394
50840W        W22369  35.570  44.005  10.636
50841W        W22370  44.700  11.485  11.663
50842W        W22371   8.551  39.977  13.867
50843W        W22372  10.317  27.484  13.203
50844W        W22373   7.581  28.920   0.739
50845W        W22374  24.750  42.960  11.836
50846W        W22375  13.861  27.630   1.437
50847W        W22376   3.520  24.764  13.537
50848W        W22377  33.194   9.745  12.380
50849W        W22378  10.348  38.739  11.975
50850W        W22379  13.991  36.122   3.559
50851W        W22380  43.242   2.639  14.836
50852W        W22381   9.971   2.629   0.731
50853W        W22382  10.265  11.007   4.572
50854W        W22383  43.772  38.416   3.160
50855W        W22384  36.169  10.591   0.426
50856W        W22385  28.213  27.983   0.742
50857W        W22386  22.641   5.975   4.235
50858W        W22387  17.170  25.524  12.059
50859W        W22388   0.985  38.626   3.623
50860W        W22389   2.142  20.454  11.509
50861W        W22390  27.523  12.019  12.414
50862W        W22391  42.000  31.986  12.458
50863W        W22392  39.095  21.097   1.939
50864W        W22393  37.755  39.482   4.575
50865W        W22394   4.703  11.308  12.854
50866W        W22395  12.454  32.362  13.815
50867W        W22396  10.812  11.916   2.745
50868W        W22397  37.690  35.507   2.754
50869W        W22398  33.443  41.793  10.667
50870W        W22399  34.232  37.283  12.402
50871W        W22400  20.466  17.638   1.251
50872W        W22401  29.566  40.345   5.013
50873W        W22402  41.295  43.818   2.837
50874W        W22403   0.905  36.920   1.318
50875W        W22404  24.220  17.156   3.804
50876W        W22405  33.984   1.882   4.716
50877W        W22406  29.235  37.910  14.138
50878W        W22407  37.277  19.705   3.691
50879W        W22408  22.011  15.005   3.185
50880W        W22409  12.179  18.214   2.498
50881W        W22410  44.243  28.129   0.435
50882W        W22411  19.832  42.957   2.258
50883W        W22412  14.762  32.358   3.113
50884W        W22413  17.158   2.994   4.576
50885W        W22414  29.005  24.486   1.008
50886W        W22415   3.384  13.897   2.292
50887W        W22416  18.199  30.598   5.394
50888W        W22417   1.000  30.507  11.025
50889W        W22418  31.157   8.770  13.822
50890W        W22419  42.898  26.433  14.889
50891W        W22420  26.714  32.800   2.151
50892W        W22421  22.122  32.305   3.623
50893W        W22422  42.425  31.185  13.909
50894W        W22423  26.746  27.924   0.352
50895W        W22424  13.726  24.584   2.100
50896W        W22425  29.926  16.135   2.259
50897W        W22426  14.545  42.896   9.911
50898W        W22427  29.732  44.631   0.470
50899W        W22428  13.617  16.138  13.924
50900W        W22429  23.160  41.066   1.979
50901W        W22430  37.670  24.194   1.739
50902W        W22431   2.408  13.286  14.962
50903W        W22432  34.513  33.918  11.828
50904W        W22433   4.810   6.616   0.962
50905W        W22434  18.164   4.582   3.295
50906W        W22435  36.131  14.197  11.627
50907W        W22436  39.917  35.257  12.797
50908W        W22437   1.220   2.494   3.832
50909W        W22438   2.456  25.239   4.158
50910W        W22439  33.591   8.546   3.376
50911W        W22440  30.386   8.113   0.392
50912W        W22441  37.889   6.431  14.136
50913W        W22442   8.705  30.510  11.178
50914W        W22443   4.334  27.484   1.186
50915W        W22444  20.952  41.556  13.597
50916W        W22445  26.117  35.865   2.881
50917W        W22446  26.206  40.457  12.161
50918W        W22447  17.320  25.512   3.154
50919W        W22448  39.933  21.613  13.564
50920W        W22449  30.469   7.577  11.974
50921W        W22450  13.711  33.909  14.442
50922W        W22451  15.828  28.629  13.066
50923W        W22452  44.930   3.437  14.440
50924W        W22453   5.312  19.125  14.788
50925W        W22454  39.832  34.070   2.117
50926W        W22455   7.372  26.264   4.535
50927W        W22456  32.572  22.993  14.327
50928W        W22457  15.565  42.241  11.147
50929W        W22458  31.323  37.189   3.072
50930W        W22459  42.973  26.094   4.172
50931W        W22460   5.156  42.894   2.734
50932W        W22461  39.897   7.855  12.922
50933W        W22462  16.193  22.146   0.443
50934W        W22463  14.285  31.430   3.686
50935W        W22464  41.604  19.580  14.792
50936W        W22465   3.431  41.242   2.747
50937W        W22466  37.369  22.708  13.585
50938W        W22467  39.321   0.826   4.210
50939W        W22468  12.167  15.801  13.022
50940W        W22469  27.658  21.922   4.731
50941W        W22470  20.501   9.940  12.544
50942W        W22471  30.037  43.032  14.087
50943W        W22472  18.789  40.045  10.675
50944W        W22473  37.179   6.398   0.973
50945W        W22474  26.714  14.604   1.941
50946W        W22475   9.727   0.685   2.549
50947W        W22476  25.716  17.197   1.045
50948W        W22477   7.188  39.171   3.111
50949W        W22478  43.768   0.204  13.048
50950W        W22479  32.470   2.040  12.504
50951W        W22480  35.503  11.608  13.063
50952W        W22481  41.562  22.126   0.967
50953W        W22482   5.742  42.504  14.902
50954W        W22483   3.997  30.331   0.434
50955W        W22484   8.345  23.679   1.388
50956W        W22485   0.616   9.271  11.137
50957W        W22486  38.641  40.560  14.439
50958W        W22487   3.986   7.970  12.537
50959W        W22488  27.863   6.743  10.777
50960W        W22489   0.163  39.725   2.359
50961W        W22490  41.707  30.107   4.618
50962W        W22491  37.051  18.045  11.702
50963W        W22492  30.447   6.238   4.293
50964W        W22493   6.544  17.995  14.291
50965W        W22494  10.719  15.550  12.582
50966W        W22495  30.439  30.816  11.445
50967W        W22496  22.058  15.525   3.193
50968W        W22497  14.145   8.256   3.411
50969W        W22498  44.440  22.946   1.318
50970W        W22499   9.870  40.979  11.492
50971W        W22500   8.494   1.274  11.536
50972W        W22501   8.233  26.090   3.412
50973W        W22502  16.466  11.616   0.840
50974W        W22503  19.993  24.769   2.828
50975W        W22504  38.498  33.081   0.838
50976W        W22505  19.216   8.432  10.760
50977W        W22506  25.331  30.904   4.093
50978W        W22507  43.835  33.903   4.527
50979W        W22508  18.060  27.566   2.717
50980W        W22509  38.494   5.704  14.451
50981W        W22510  16.126  14.051  14.971
50982W        W22511  33.035  27.635  11.013
50983W        W22512  41.957  41.500  13.664
50984W        W22513   0.924  39.366  12.192
50985W        W22514   8.127  31.867   4.828
50986W        W22515  37.492  41.437   1.299
50987W        W22516   4.342  19.967  12.044
50988W        W22517  35.649  35.054  14.620
50989W        W22518   1.862  29.201  14.736
50990W        W22519  41.312   4.356  10.687
50991W        W22520  17.747  38.290   4.581
50992W        W22521  26.826  22.422   4.186
50993W        W22522   1.947  12.836  10.668
50994W        W22523  30.835  35.317  12.083
50995W        W22524  16.199   7.106  14.837
50996W        W22525   0.018  22.086   1.449
50997W        W22526   2.239   3.892   4.922
50998W        W22527  14.052  28.029  11.739
50999W        W22528  29.556   5.469  14.450
51000W        W22529   5.761  19.043   0.773
51001W        W22530   1.242  40.444   0.260
51002W        W22531  39.869  23.025   4.701
51003W        W22532  20.044  12.366   3.883
51004W        W22533   0.449  23.244   3.652
51005W        W22534   2.686  26.365  13.486
51006W        W22535  34.234  29.492   0.374
51007W        W22536  27.686   3.595   4.837
51008W        W22537  41.575  44.742   4.723
51009W        W22538  29.116  16.117   2.384
51010W        W22539  34.481   3.019   2.476
51011W        W22540  24.595  20.060  12.969
51012W        W22541  38.980   8.619   4.577
51013W        W22542  41.789  41.931  13.889
51014W        W22543  21.745   8.414  12.531
51015W        W22544  16.653  40.933   0.856
51016W        W22545  42.808  41.363   4.070
51017W        W22546  26.424  22.786   2.051
51018W        W22547  27.672  30.304   4.497
51019W        W22548  38.062  24.952  11.056
51020W        W22549  41.513  20.354   0.359
51021W        W22550  37.001   4.245   4.079
51022W        W22551  13.294  10.395   1.766
51023W        W22552  42.276  17.244   3.347
51024W        W22553  34.541   0.267  14.328
51025W        W22554  33.866  37.071   3.232
51026W        W22555  23.575   2.312  13.155
51027W        W22556  40.575   6.215   2.876
51028W        W22557  36.806  40.411   4.224
51029W        W22558  24.184  27.640  13.534
51030W        W22559   0.927  16.361  14.362
51031W        W22560  26.517  35.179   4.819
51032W        W22561  26.903   1.189   2.741
51033W        W22562  20.043  16.376   1.932
51034W        W22563  16.746  21.231  13.354
51035W        W22564  27.653  32.438   0.973
51036W        W22565  20.659  42.856  11.932
51037W        W22566  39.756  40.279   4.150
51038W        W22567  26.575  43.616   2.877
51039W        W22568  40.013  14.750  10.730
51040W        W22569  44.333  36.140  12.001
51041W        W22570  42.715   7.117   0.752
51042W        W22571   1.442   6.186   2.686
51043W        W22572  23.087  33.057   1.762
51044W        W22573  37.521  10.431   0.358
51045W        W22574  21.713  30.905  13.835
51046W        W22575  30.071  33.175   2.312
51047W        W22576   4.197  37.577  13.274
51048W        W22577  25.705  44.803  14.862
51049W        W22578  23.480   3.210  13.811
51050W        W22579  26.622  27.750  13.876
51051W        W22580  15.597  17.009  12.830
51052W        W22581  38.901  25.053   0.502
51053W        W22582  29.661  29.212   3.183
51054W        W22583  12.363   1.498   5.114
51055W        W22584  33.892  39.824   4.243
51056W        W22585  12.200   1.493   4.271
51057W        W22586  37.359  19.155  13.424
51058W        W22587  11.062  34.524  14.829
51059W        W22588   1.966  26.468  13.886
51060W        W22589  13.546  17.269   5.225
51061W        W22590  14.364   6.809  10.495
51062W        W22591   8.423  17.365   4.203
51063W        W22592  21.330  19.283   1.227
51064W        W22593  34.455  31.122   2.615
51065W        W22594  24.794  30.191  14.380
51066W        W22595  34.451  37.936  12.087
51067W        W22596  37.638  43.052   3.245
51068W        W22597   2.084   9.028   2.600
51069W        W22598  44.927   4.704   0.792
51070W        W22599  22.242  34.236  13.372
51071W        W22600  30.691  10.685   2.791
51072W        W22601  12.039  33.175  14.419
51073W        W22602  28.585  17.446  12.302
51074W        W22603  12.897  32.653   2.422
51075W        W22604  37.592  42.740   0.772
51076W        W22605  14.178  31.857   0.205
51077W        W22606  35.451  41.516   1.844
51078W        W22607  29.681  44.901  11.221
51079W        W22608  28.925   9.801   0.346
51080W        W22609  14.265  10.394   1.795
51081W        W22610  12.936   5.939   3.006
51082W        W22611  12.117   5.948   1.863
51083W        W22612  22.064  41.289  12.466
51084W        W22613  35.440  29.840   0.748
51085W        W22614  33.065  14.752   4.856
51086W        W22615  29.588  21.190  12.364
51087W        W22616   7.635  17.712   4.544
51088W        W22617  30.951  38.056   1.104
51089W        W22618  30.000  27.064   4.584
51090W        W22619  26.090   3.251  11.679
51091W        W22620   2.446  42.919   3.618
51092W        W22621  38.478  35.003  11.218
51093W        W22622  28.681  30.004  10.766
51094W        W22623  10.214  28.615  14.706
51095W        W22624  40.556  11.628  13.868
51096W        W22625  38.286  40.063  10.450
51097W        W22626  16.179  10.270   2.614
51098W        W22627  43.049  11.309  13.289
51099W        W22628  32.867  22.192  13.839
51100W        W22629   1.713  26.423  12.962
51101W        W22630  34.383   7.984  12.653
51102W        W22631  41.462   5.228  14.334
51103W        W22632   5.750   0.210   0.496
51104W        W22633  39.794  39.901   1.364
51105W        W22634  16.668   8.339  11.959
51106W        W22635  17.445  15.310  12.999
51107W        W22636  31.546  29.357  12.994
51108W        W22637  11.699  40.466   4.637
51109W        W22638  15.623  14.426   5.042
51110W        W22639  20.430  27.907   5.063
51111W        W22640  37.049  24.898   4.207
51112W        W22641  17.112  36.995  11.827
51113W        W22642  27.131  20.322  14.416
51114W        W22643  14.093  29.246   4.101
51115W        W22644  39.039  41.204   1.230
51116W        W22645   9.307   4.502   0.938
51117W        W22646  20.923  33.188   2.482
51118W        W22647  26.226  31.073   2.613
51119W        W22648  15.731  15.980  13.030
51120W        W22649  15.835  16.319   1.819
51121W        W22650  13.061  27.911  14.396
51122W        W22651  43.704  24.456   1.558
51123W        W22652   5.808  33.698  11.996
51124W        W22653  19.303  36.652  12.166
51125W        W22654  14.848  27.001   1.929
51126W        W22655  18.941  36.799  14.187
51127W        W22656  29.917  39.325  13.077
51128W        W22657  31.119  38.574  10.700
51129W        W22658  34.443  44.110  13.122
51130W        W22659   8.189  42.145  11.873
51131W        W22660   5.613   8.180  11.488
51132W        W22661  19.027   5.727  12.567
51133W        W22662  24.111  32.933   1.016
51134W        W22663  42.282  13.183   1.484
51135W        W22664   6.381  27.592   4.491
51136W        W22665  21.920  21.761   1.428
51137W        W22666   2.593  18.351  10.279
51138W        W22667  37.300   5.349  14.751
51139W        W22668  26.603  15.319   4.012
51140W        W22669  44.808  25.738   1.759
51141W        W22670  26.394  34.464  11.705
51142W        W22671  37.551  21.883  12.408
51143W        W22672  30.891   1.308   1.684
51144W        W22673   8.601  42.269  11.600
51145W        W22674   3.824  15.167   2.672
51146W        W22675  25.892   3.799   2.348
51147W        W22676  33.933  16.299  10.641
51148W        W22677  26.102  36.104  11.049
51149W        W22678  10.178  22.080   1.885
51150W        W22679  18.014  38.103  12.545
51151W        W22680  36.831  26.797  14.372
51152W        W22681  40.773  16.775  10.658
51153W        W22682  40.144  13.730   4.671
51154W        W22683  43.561   7.389   1.829
51155W        W22684   8.420   8.721  12.579
51156W        W22685  22.743  38.918   0.484
51157W        W22686   7.324  27.931   3.167
51158W        W22687  41.330   5.393  12.384
51159W        W22688  33.524  20.295   0.270
51160W        W22689   1.314  31.987  14.352
51161W        W22690  18.278  35.702  11.146
51162W        W22691  27.177  43.979   4.710
51163W        W22692  40.977   8.342   3.553
51164W        W22693   3.956   8.276  11.353
51165W        W22694   0.534  16.476  12.087
51166W        W22695  23.253  38.780   0.368
51167W        W22696  19.259  14.162   3.630
51168W        W22697  44.391  32.693   2.807
51169W        W22698  34.563  26.049   2.412
51170W        W22699  39.374  38.421  10.275
51171W        W22700  30.681   1.246   1.207
51172W        W22701  17.257  25.560   4.708
51173W        W22702   1.757  21.400  14.795
51174W        W22703  20.209   0.768   3.360
51175W        W22704  21.329  28.607   0.329
51176W        W22705   5.838  19.570   0.796
51177W        W22706  33.720  30.342   2.770
51178W        W22707  26.024  35.901   4.374
51179W        W22708  12.546  44.362  13.107
51180W        W22709   6.759  39.567   2.316
51181W        W22710   6.502  19.662  14.403
51182W        W22711  30.078  10.801  10.452
51183W        W22712  29.272  18.351   1.307
51184W        W22713  43.485  39.438   4.119
51185W        W22714  43.664   1.136   4.950
51186W        W22715  15.318  30.097   4.973
51187W        W22716  22.674   2.747   2.228
51188W        W22717  44.747   9.443   1.095
51189W        W22718  33.447  43.779  12.160
51190W        W22719  26.643  28.849   1.257
51191W        W22720   5.258  18.830  13.865
51192W        W22721  31.066  27.451   1.735
51193W        W22722  43.284  30.156  14.327
51194W        W22723   7.118  28.013   3.647
51195W        W22724  26.482  39.521  14.173
51196W        W22725   3.205  20.793  14.022
51197W        W22726  12.016  33.402   5.289
51198W        W22727   5.783  35.955   3.289
51199W        W22728  44.879  18.074  13.571
51200W        W22729  42.364  15.263   4.480
51201W        W22730   1.691  20.786   2.825
51202W        W22731  10.763  30.388   2.756
51203W        W22732   5.412  42.004   1.702
51204W        W22733   0.699  16.587   2.262
51205W        W22734   0.779  14.195   4.634
51206W        W22735  29.838  23.170   2.641
51207W        W22736   0.813   8.191  13.483
51208W        W22737  24.530  34.337   3.238
51209W        W22738   7.163  17.750  13.428
51210W        W22739  10.849   6.102  14.020
51211W        W22740  15.745   8.147   5.036
51212W        W22741   9.056  35.094  12.510
51213W        W22742  31.933  29.674  12.480
51214W        W22743  12.581  12.768  14.711
51215W        W22744   3.019   1.905   2.320
51216W        W22745  14.353  35.864  10.909
51217W        W22746  31.962  37.496   3.907
51218W        W22747  35.345  27.908   0.813
51219W        W22748  35.040   6.230   2.262
51220W        W22749   5.282  31.444   2.669
51221W        W22750  30.673   5.272   0.721
51222W        W22751   9.879  10.340  14.882
51223W        W22752  12.704  16.776  12.045
51224W        W22753  10.132   6.423   3.186
51225W        W22754  17.743   3.920  14.338
51226W        W22755  30.097  38.771   1.502
51227W        W22756  19.323  21.791   1.718
51228W        W22757  44.742   4.850  14.511
51229W        W22758  34.158  44.321   4.075
51230W        W22759  43.883  21.222   0.995
51231W        W22760  16.733  19.857   2.279
51232W        W22761  37.428   9.284   4.277
51233W        W22762  31.907  27.188  11.522
51234W        W22763   4.278  43.493   3.334
51235W        W22764  18.322  21.662  13.515
51236W        W22765  18.753  28.568  14.707
51237W        W22766  27.667  27.222   2.112
51238W        W22767  32.348  19.268  12.023
51239W        W22768  21.602  18.062  14.005
51240W        W22769  23.701  33.403  12.211
51241W        W22770  21.937  37.943  11.561
51242W        W22771  17.086  15.615   2.765
51243W        W22772  13.228  28.028  13.879
51244W        W22773   3.379  20.601   1.857
51245W        W22774  38.117   5.900  11.179
51246W        W22775  44.773  27.999  13.996
51247W        W22776  15.795  17.618  13.086
51248W        W22777  21.360   4.746   0.201
51249W        W22778  40.397  21.036  10.146
51250W        W22779   7.176  17.804  14.343
51251W        W22780   6.352   8.168   0.120
51252W        W22781   6.971  33.392   5.022
51253W        W22782  41.276  28.646   2.794
51254W        W22783  42.482  29.093  13.454
51255W        W22784  37.894   1.303  12.677
51256W        W22785  20.893   9.307  13.617
51257W        W22786  17.599  14.750   0.929
51258W        W22787  15.830  16.409   0.825
51259W        W22788  43.332   8.358   4.610
51260W        W22789  44.388  21.027  14.587
51261W        W22790   2.439  30.869   1.325
51262W        W22791  14.271  33.476  11.311
51263W        W22792  14.814  38.408   2.786
51264W        W22793  39.005   8.971   2.350
51265W        W22794   9.945  18.551  10.649
51266W        W22795  22.497   6.698   3.217
51267W        W22796   1.192  39.367  13.876
51268W        W22797  31.522  35.533  12.618
51269W        W22798   0.378  32.335  12.466
51270W        W22799   2.380  25.492  10.707
51271W        W22800  40.493  34.102  12.828
51272W        W22801  23.842  39.149  11.968
51273W        W22802  34.063   7.261   4.283
51274W        W22803   6.300  42.128  11.705
51275W        W22804   2.036   1.969   0.366
51276W        W22805  28.732  22.107  13.297
51277W        W22806   8.218  29.648   1.771
51278W        W22807  16.038  12.519   1.796
51279W        W22808  43.213  39.862   0.690
51280W        W22809  27.613   6.587  10.363
51281W        W22810  31.395   8.975  10.152
51282W        W22811   5.718   3.785   3.852
51283W        W22812  11.307  31.102   4.061
51284W        W22813  25.963  33.591   1.180
51285W        W22814  26.723  24.266   4.225
51286W        W22815  22.235  25.694  13.940
51287W        W22816   1.264  44.439  11.555
51288W        W22817  44.537  37.485  13.102
51289W        W22818   1.319  11.808   4.524
51290W        W22819  20.146  11.029  14.931
51291W        W22820  31.643  22.384   1.356
51292W        W22821   4.219  38.909   2.714
51293W        W22822  10.886   0.486   0.031
51294W        W22823  10.383  13.174  11.521
51295W        W22824  34.941   1.261   4.196
51296W        W22825  22.888  10.156  10.510
51297W        W22826   0.715  31.086  12.207
51298W        W22827   4.208   3.405  12.541
51299W        W22828  44.022  10.913  13.422
51300W        W22829  14.063  23.046  13.955
51301W        W22830  29.948  18.722   0.808
51302W        W22831  32.585  17.820   1.271
51303W        W22832  29.698   1.168  12.671
51304W        W22833   2.823  33.764   4.053
51305W        W22834   7.762  26.194   4.186
51306W        W22835  23.008  12.774   3.156
51307W        W22836  28.348  34.338   0.871
51308W        W22837  29.462  20.253   4.296
51309W        W22838  42.881   4.639  12.559
51310W        W22839  20.313  23.832  12.092
51311W        W22840   3.286  30.670   0.449
51312W        W22841  25.024   3.260  14.538
51313W        W22842  31.489  40.652   4.006
51314W        W22843  10.087   4.883   4.072
51315W        W22844  10.185   6.525  12.019
51316W        W22845  31.613   2.778   2.742
51317W        W22846  23.056  29.694   2.277
51318W        W22847   6.097   9.680  14.817
51319W        W22848   2.826   7.858   2.918
51320W        W22849  20.197  17.580   4.856
51321W        W22850  28.279  39.187   3.237
51322W        W22851  10.296  22.003  11.522
51323W        W22852  39.975  18.500   4.554
51324W        W22853  16.733   5.155   1.932
51325W        W22854  15.632  24.668   1.854
51326W        W22855  28.196  12.485   1.352
51327W        W22856  42.463  28.068   4.713
51328W        W22857  33.507  25.114   2.979
51329W        W22858  25.721  37.882   3.243
51330W        W22859  27.522   9.330   2.233
51331W        W22860  34.065  36.757  11.522
51332W        W22861  34.308  32.498   0.956
51333W        W22862  25.477  25.449   3.554
51334W        W22863   1.683  14.614  14.337
51335W        W22864   0.015   5.747  10.654
51336W        W22865  16.860  22.225  12.148
51337W        W22866   6.148   9.460  12.570
51338W        W22867  23.549   9.655   4.524
51339W        W22868  42.971  17.377   1.685
51340W        W22869  41.429  15.726  10.581
51341W        W22870  29.619   1.538  14.775
51342W        W22871  13.368  18.250  12.923
51343W        W22872   4.730  27.955   4.052
51344W        W22873  32.880  40.092  14.974
51345W        W22874  28.965  21.466   1.655
51346W        W22875  41.005  44.233   4.346
51347W        W22876   4.224  44.951  14.898
51348W        W22877  22.513  29.250  12.994
51349W        W22878  12.067  19.529   0.322
51350W        W22879   3.389   1.776   4.530
51351W        W22880  28.132  33.110   4.198
51352W        W22881  43.270  36.000  11.971
51353W        W22882  17.353   5.162   3.994
51354W        W22883  33.574  17.001  14.297
51355W        W22884  26.026   0.406   1.751
51356W        W22885  44.446  42.272  12.026
51357W        W22886  21.608  43.923   4.539
51358W        W22887  42.645  36.197   2.882
51359W        W22888  34.086  17.262   1.690
51360W        W22889  31.595  10.306  14.368
51361W        W22890  44.876   6.351  12.995
51362W        W22891   6.818  26.566   3.710
51363W        W22892  44.996  30.907  13.339
51364W        W22893  16.485  30.558   2.701
51365W        W22894  44.783   2.188  13.132
51366W        W22895   2.270  40.947  11.393
51367W        W22896  10.506  26.485  13.599
51368W        W22897  11.621  25.137   2.683
51369W        W22898  13.784  40.827  13.472
51370W        W22899   2.308  38.876  11.736
51371W        W22900  35.397  24.592   4.113
51372W        W22901  14.990  10.892  14.308
51373W        W22902  11.653  43.008  12.522
51374W        W22903  24.769  30.404  11.639
51375W        W22904  28.409  37.086   4.166
51376W        W22905  43.626  35.332  14.473
51377W        W22906  16.681  23.695  13.369
51378W        W22907  37.481  16.329  14.004
51379W        W22908  34.314  43.885   0.009
51380W        W22909  19.012  11.674  10.748
51381W        W22910   4.304  35.366  14.881
51382W        W22911  35.522  38.278  14.417
51383W        W22912  37.611   3.234  10.197
51384W        W22913   1.947  26.488  12.508
51385W        W22914  35.818  13.832  10.712
51386W        W22915  41.250  36.046  14.763
51387W        W22916  42.059  42.779   2.852
51388W        W22917  23.690  36.463   1.836
51389W        W22918  25.557  34.041  12.469
51390W        W22919  43.152  38.658   2.846
51391W        W22920   6.472  28.412  13.023
51392W        W22921  18.551  32.468  10.606
51393W        W22922  34.664  27.338  11.166
51394W        W22923  19.270  24.515   3.667
51395W        W22924  22.861  44.807   5.001
51396W        W22925  17.332  22.311   1.143
51397W        W22926  28.240   6.762  11.164
51398W        W22927  10.784  21.463   2.261
51399W        W22928   2.259  36.534   1.953
51400W        W22929  37.091  42.373  12.130
51401W        W22930  41.244   7.353   2.390
51402W        W22931  44.383  43.088   0.730
51403W        W22932  33.334  33.665   4.644
51404W        W22933  23.187   1.446  10.818
51405W        W22934  35.971  37.568   4.835
51406W        W22935   3.704  18.609  12.269
51407W        W22936   5.863  42.953  11.582
51408W        W22937  22.482  22.109   2.791
51409W        W22938  12.185  18.693  11.672
51410W        W22939  31.117  37.558  12.322
51411W        W22940  20.266  21.134  14.175
51412W        W22941   3.023  23.745  11.519
51413W        W22942   3.004  14.205  11.907
51414W        W22943   2.245  15.193  13.742
51415W        W22944   0.183  20.675  14.378
51416W        W22945  39.065  15.728  10.526
51417W        W22946  34.955  35.059   2.669
51418W        W22947  11.810  25.328  12.437
51419W        W22948  31.078  12.162  11.521
51420W        W22949  24.492  15.562   1.701
51421W        W22950  17.325  31.395  13.084
51422W        W22951  25.689   1.887   1.075
51423W        W22952  24.422  13.263   1.384
51424W        W22953  16.591  17.124  10.697
51425W        W22954   6.774  39.073  11.651
51426W        W22955   5.535   0.791   0.201
51427W        W22956   3.348   6.852  14.207
51428W        W22957  36.464  15.703  13.345
51429W        W22958  44.018  20.974  11.871
51430W        W22959  24.753   3.748  11.639
51431W        W22960  26.598   2.461   1.760
51432W        W22961  26.036  24.190   3.892
51433W        W22962  29.634   9.225   4.575
51434W        W22963  27.902  44.146   2.740
51435W        W22964  30.643   3.786  13.913
51436W        W22965   1.710  17.690  12.103
51437W        W22966   8.463  19.462  10.409
51438W        W22967  29.432  41.690   2.862
51439W        W22968  39.316  11.870  14.522
51440W        W22969  33.175   7.248   3.157
51441W        W22970   5.367  12.937   3.742
51442W        W22971  31.610   5.673  12.530
51443W        W22972  35.640  14.160   1.895
51444W        W22973  44.580  26.781  14.836
51445W        W22974  18.587  34.540  10.722
51446W        W22975  38.460  42.630   2.927
51447W        W22976  13.621  22.365   3.540
51448W        W22977  24.665   5.316  12.144
51449W        W22978  16.169  28.781   3.717
51450W        W22979  12.969   1.515   1.458
51451W        W22980   3.054  30.862   4.552
51452W        W22981  36.912  42.091   0.969
51453W        W22982  37.567  33.354   3.524
51454W        W22983  19.668   1.621   0.823
51455W        W22984  14.674  19.658  13.553
51456W        W22985  41.495  23.446  12.933
51457W        W22986  25.926  14.676  13.862
51458W        W22987  22.540   5.442  11.102
51459W        W22988  42.313  44.448   2.576
51460W        W22989  19.355  31.330   1.378
51461W        W22990  31.876  16.522  14.734
51462W        W22991   6.474  11.414  11.629
51463W        W22992  35.575  11.914   1.640
51464W        W22993  26.682  27.610  11.003
51465W        W22994   7.769  32.414  13.010
51466W        W22995  21.421  43.612  10.218
51467W        W22996  43.537  41.927  10.738
51468W        W22997  21.064  29.389   2.533
51469W        W22998  38.155  31.430   2.821
51470W        W22999  23.804  41.262  11.634
51471W        W23000  37.874  43.708   0.252
51472W        W23001  26.628  24.627   1.889
51473W        W23002   3.486  23.909  13.135
51474W        W23003  10.874   4.266  11.976
51475W        W23004  44.453  41.952  10.653
51476W        W23005  30.582  29.964  13.141
51477W        W23006   3.924  25.110  14.315
51478W        W23007  12.607   2.794   1.828
51479W        W23008  11.663  10.714  14.840
51480W        W23009  26.903   8.385  11.964
51481W        W23010   9.804  32.178  11.558
51482W        W23011   4.313  13.417   3.247
51483W        W23012  18.831  33.593  11.026
51484W        W23013  21.460  39.293   1.435
51485W        W23014  21.615  42.530   2.360
51486W        W23015   6.534  19.449   0.263
51487W        W23016   1.917   6.816   2.227
51488W        W23017  19.760  16.698  13.000
51489W        W23018  21.747   8.793   3.312
51490W        W23019  25.948  19.813   0.879
51491W        W23020  40.321  43.431   3.591
51492W        W23021  23.262  28.090  11.630
51493W        W23022  13.136  27.414  11.231
51494W        W23023  16.567  14.371   3.735
51495W        W23024  12.609  43.378  12.180
51496W        W23025  41.793  29.434  13.916
51497W        W23026   8.167   6.582   5.096
51498W        W23027  42.804  30.369  12.884
51499W        W23028   5.199  19.289   0.292
51500W        W23029   0.506  30.556  11.104
51501W        W23030  12.771  36.187   2.134
51502W        W23031  21.695  35.408   4.402
51503W        W23032   3.205  39.391   1.398
51504W        W23033  18.846   0.949   2.060
51505W        W23034  42.301  14.918  11.453
51506W        W23035   0.907   1.927  10.826
51507W        W23036  23.067  11.102   3.539
51508W        W23037  33.087  35.287  13.894
51509W        W23038  35.107   3.201  11.268
51510W        W23039  18.625  34.865   1.940
51511W        W23040  20.044  23.580  12.452
51512W        W23041  37.648  13.687  11.493
51513W        W23042  26.068   7.150  12.897
51514W        W23043  36.486  29.684  10.429
51515W        W23044  43.378  13.608   0.530
51516W        W23045   8.622   8.568   2.829
51517W        W23046   2.962  40.104   2.699
51518W        W23047  43.064  23.467   4.647
51519W        W23048  39.936  28.500  11.546
51520W        W23049  40.032  24.430  11.667
51521W        W23050  24.762  41.569  11.530
51522W        W23051   7.656   2.085  12.255
51523W        W23052   3.823   7.109  11.551
51524W        W23053  28.920  28.057  11.825
51525W        W23054  27.063  44.493  12.447
51526W        W23055  27.753  23.910  12.046
51527W        W23056  20.164  34.097  10.975
51528W        W23057  20.341   1.515   1.483
51529W        W23058  19.203  38.477  10.016
51530W        W23059  28.523   9.364   4.209
51531W        W23060  23.902  28.487   0.040
51532W        W23061  22.527  37.622   5.034
51533W        W23062  35.556  36.398   3.745
51534W        W23063  21.129  16.769   0.348
51535W        W23064  20.171  27.997  10.949
51536W        W23065  11.632   2.749  11.601
51537W        W23066  37.633  34.231  14.921
51538W        W23067  36.025   3.994  13.529
51539W        W23068  31.190  39.805   0.676
51540W        W23069   9.075   3.439  12.426
51541W        W23070   6.195  18.627  13.433
51542W        W23071  44.442  19.917   1.588
51543W        W23072  27.367  28.632   3.904
51544W        W23073  14.848  37.558   4.782
51545W        W23074  11.192  27.211   1.709
51546W        W23075  43.067  22.541   0.268
51547W        W23076  41.237  23.740   0.269
51548W        W23077  13.715  34.914  10.710
51549W        W23078  30.369  30.445  13.231
51550W        W23079  43.037  13.732  12.169
51551W        W23080  33.479  26.788  11.024
51552W        W23081  19.048  42.362   4.518
51553W        W23082  32.330  15.370   4.852
51554W        W23083  14.895  35.514   3.226
51555W        W23084  33.674  36.045  12.012
51556W        W23085   2.966  23.292   4.505
51557W        W23086  29.655  11.772  12.650
51558W        W23087  44.435  17.795  12.846
51559W        W23088  10.604  31.385  10.679
51560W        W23089  20.113  38.801   5.225
51561W        W23090  36.483  41.222   4.625
51562W        W23091  34.821   2.234  12.061
51563W        W23092  42.081  44.764   4.646
51564W        W23093  28.403  20.682   4.836
51565W        W23094   3.134  35.349  12.312
51566W        W23095  30.247  26.147  13.445
51567W        W23096   3.879  43.327   3.613
51568W        W23097  37.738  11.683  13.085
51569W        W23098  13.476  13.882  11.525
51570W        W23099  20.791   8.812  13.495
51571W        W23100   2.792  19.520  13.397
51572W        W23101  15.378  40.376  12.199
51573W        W23102  33.792   2.175  12.046
51574W        W23103   7.829   4.734   2.621
51575W        W23104  10.623   1.121   1.292
51576W        W23105  34.312  18.234   3.767
51577W        W23106  40.507   6.069   4.460
51578W        W23107  19.448  18.171  12.838
51579W        W23108  39.859  12.282  11.389
51580W        W23109  30.011  37.118  11.183
51581W        W23110  34.072  31.818  14.779
51582W        W23111   3.289  19.797  13.917
51583W        W23112  10.386  21.828   0.108
51584W        W23113  38.251   3.736   3.197
51585W        W23114  24.149  14.219   0.965
51586W        W23115  12.235  26.998   2.814
51587W        W23116   0.724  42.914   2.205
51588W        W23117  25.502  18.228   2.603
51589W        W23118  10.124  42.875   1.534
51590W        W23119  19.905  16.520   2.430
51591W        W23120  34.881   8.732   2.820
51592W        W23121  23.652  42.591   2.759
51593W        W23122  11.895  20.125  13.986
51594W        W23123  16.711  24.749   2.873
51595W        W23124  44.809  26.122  14.959
51596W        W23125  11.282  38.439  13.952
51597W        W23126  42.235  44.230  12.905
51598W        W23127  44.300  30.502  13.049
51599W        W23128  37.823   1.407   3.226
51600W        W23129  18.055  35.145  14.051
51601W        W23130   7.133  35.571  13.378
51602W        W23131   5.428  39.489   2.619
51603W        W23132  11.150  21.493  11.414
51604W        W23133   2.197  31.662  10.957
51605W        W23134  16.345  26.506   1.178
51606W        W23135  23.071  42.863   3.000
51607W        W23136  36.015  27.162  14.743
51608W        W23137  27.978   8.752  13.730
51609W        W23138   0.949  23.412  11.299
51610W        W23139  37.598  33.485  11.825
51611W        W23140  41.346  24.572   0.869
51612W        W23141  32.105  25.180  14.320
51613W        W23142   1.282  27.623   4.893
51614W        W23143  25.029  18.032   3.230
51615W        W23144  37.986  22.990  11.625
51616W        W23145  29.922  44.253   3.272
51617W        W23146   4.073  38.463   2.457
51618W        W23147  18.063  14.422  13.990
51619W        W23148  14.995  44.079   0.429
51620W        W23149  33.579  41.278  13.566
51621W        W23150  21.237  16.217  13.776
51622W        W23151   4.497   9.437   3.325
51623W        W23152  37.671  39.757   2.124
51624W        W23153   8.733  14.791   3.358
51625W        W23154  29.033  10.433  12.913
51626W        W23155   4.752  26.127   0.919
51627W        W23156   9.241   2.462  11.057
51628W        W23157  37.103   4.731   4.229
51629W        W23158  25.210  14.200   0.772
51630W        W23159  34.889   6.879   0.247
51631W        W23160  44.933  30.193   2.734
51632W        W23161   0.421  29.053  14.258
51633W        W23162  25.741  10.779   1.439
51634W        W23163  25.665   2.755  13.445
51635W        W23164  29.880  31.377  12.525
51636W        W23165  12.614   1.828   1.721
51637W        W23166  27.704  26.028   2.699
51638W        W23167   1.440   7.780   4.449
51639W        W23168  40.132  31.151   4.283
51640W        W23169   5.556  24.062  13.903
51641W        W23170   2.322  25.881  14.347
51642W        W23171  14.565   9.735   3.573
51643W        W23172  21.500  36.864  12.467
51644W        W23173  42.979  28.124  13.492
51645W        W23174  17.355  15.322  12.480
51646W        W23175   9.136  24.617  12.621
51647W        W23176   8.220  20.235  10.824
51648W        W23177  33.707  10.841   2.675
51649W        W23178   5.246  36.537   1.369
51650W        W23179   3.239   8.903  11.625
51651W        W23180  30.425  15.620   3.270
51652W        W23181  36.243  42.510   1.357
51653W        W23182  12.771  33.049   4.091
51654W        W23183  30.602  31.780   2.221
51655W        W23184  26.127  21.229  10.191
51656W        W23185  11.135  39.757  11.307
51657W        W23186  33.685  10.679  11.524
51658W        W23187  16.772   3.388   2.785
51659W        W23188  33.483   4.203  12.356
51660W        W23189  20.437   6.979  13.852
51661W        W23190   2.210  17.830  12.136
51662W        W23191  34.479   9.187  14.452
51663W        W23192   0.101  22.213  14.489
51664W        W23193  38.381  33.193   2.684
51665W        W23194  24.663  38.581   2.262
51666W        W23195   1.408  23.771  13.367
51667W        W23196  32.040  13.606  10.703
51668W        W23197   4.070   6.923  12.476
51669W        W23198  25.745  44.218  13.886
51670W        W23199  24.558   6.269   0.282
51671W        W23200  16.078  24.473   4.068
51672W        W23201  33.499   8.736  14.428
51673W        W23202  42.887  17.126   2.708
51674W        W23203  28.143  12.218  14.009
51675W        W23204  16.881  33.468  11.374
51676W        W23205  33.674  19.249  11.542
51677W        W23206  38.117  18.733  13.944
51678W        W23207  16.631  17.223  11.545
51679W        W23208  33.047  20.046  11.699
51680W        W23209  20.802  43.371   1.721
51681W        W23210  30.444   5.317  14.733
51682W        W23211   5.880  21.091   0.015
51683W        W23212  10.376   3.612  12.911
51684W        W23213  31.837  44.387  12.061
51685W        W23214  10.399  26.653  14.292
51686W        W23215   4.324   5.263   1.489
51687W        W23216  31.502   1.879   2.776
51688W        W23217  43.759  25.077  12.172
51689W        W23218  40.084   6.245   0.856
51690W        W23219  13.730  41.759   3.397
51691W        W23220  20.692  39.571   1.811
51692W        W23221  29.830   0.519   4.601
51693W        W23222  33.858   1.298  14.824
51694W        W23223   7.900  26.604  13.488
51695W        W23224   6.417  19.255   2.282
51696W        W23225  18.558  23.873  11.173
51697W        W23226  18.997  34.536   3.330
51698W        W23227  17.001  12.908   1.247
51699W        W23228  13.920  22.495   1.376
51700W        W23229  38.482   2.682   4.933
51701W        W23230   6.150  32.416  13.448
51702W        W23231   7.268  15.563  11.924
51703W        W23232  33.364  33.928  13.840
51704W        W23233  15.373  10.374  11.570
51705W        W23234  34.507  36.931   4.386
51706W        W23235  23.478  34.710  11.127
51707W        W23236   4.575  24.094  14.038
51708W        W23237   6.475  32.888  10.979
51709W        W23238  31.605  42.909  12.831
51710W        W23239  20.515  10.322   4.214
51711W        W23240   4.893  25.347  12.104
51712W        W23241  34.045  29.348   4.090
51713W        W23242  40.823  24.591  11.905
51714W        W23243   6.755  10.790  10.808
51715W        W23244   9.877  44.179  12.715
51716W        W23245  35.439   7.427  14.785
51717W        W23246  18.017  11.863  10.754
51718W        W23247  22.961  38.434   4.123
51719W        W23248  38.927   2.140   2.715
51720W        W23249   4.843  38.055   0.325
51721W        W23250  25.723  31.597  10.548
51722W        W23251   1.188  27.042  12.422
51723W        W23252  34.541   9.795  13.787
51724W        W23253  14.445  10.187   0.920
51725W        W23254   1.894  19.357   4.115
51726W        W23255  39.001  14.618   4.544
51727W        W23256  32.596  28.754   5.043
51728W        W23257  24.916  33.843  13.554
51729W        W23258  29.164  35.938  13.791
51730W        W23259  43.933   7.880  14.488
51731W        W23260  36.134   9.542  14.746
51732W        W23261  12.505  41.060   0.769
51733W        W23262  13.224  22.085  13.801
51734W        W23263  11.635   5.366   1.049
51735W        W23264  16.360  34.349  13.461
51736W        W23265  21.351   0.347   0.368
51737W        W23266   1.881  23.002  13.455
51738W        W23267   4.784  19.357  11.614
51739W        W23268  12.578  19.567  11.550
51740W        W23269  41.786  11.746  11.270
51741W        W23270   3.333  42.313   1.636
51742W        W23271  27.062   6.685   1.815
51743W        W23272  21.513  29.629   3.766
51744W        W23273  33.582   8.433  10.819
51745W        W23274  14.112  12.784   4.310
51746W        W23275  38.032   0.600   1.480
51747W        W23276  32.314  41.567   1.603
51748W        W23277   3.841   4.929  12.006
51749W        W23278  44.402   4.215  12.397
51750W        W23279  32.990   4.949  12.463
51751W        W23280  25.695  30.234  13.257
51752W        W23281  39.855  21.538   0.294
51753W        W23282  23.228  40.098   0.849
51754W        W23283  11.922   6.234   3.667
51755W        W23284   9.652  41.433  13.300
51756W        W23285   4.698   5.855   4.563
51757W        W23286   7.986  34.394  14.771
51758W        W23287   5.845  14.665   4.650
51759W        W23288  14.719  10.872  11.205
51760W        W23289  36.830  38.735   1.229
51761W        W23290  12.231  16.064   1.330
51762W        W23291  43.494  31.959   4.250
51763W        W23292  30.207  37.020   0.547
51764W        W23293  25.923  21.143  10.715
51765W        W23294  37.899  34.294  11.728
51766W        W23295  12.341   3.627   4.869
51767W        W23296  21.918  16.227   3.608
51768W        W23297  32.032  31.354   0.352
51769W        W23298  36.816  39.525   0.110
51770W        W23299  20.488  31.534  13.919
51771W        W23300  36.302  14.101  12.121
51772W        W23301  28.509   3.213  10.349
51773W        W23302   8.616  20.145  11.467
51774W        W23303  18.959  34.575   4.576
51775W        W23304  25.762  31.931  13.657
51776W        W23305   8.739  29.140   3.403
51777W        W23306  23.964  26.057  14.222
51778W        W23307  37.415  41.995  12.339
51779W        W23308  27.274  25.587   0.036
51780W        W23309  14.626  27.798  13.976
51781W        W23310  11.685  16.196  12.980
51782W        W23311  19.630  24.179   0.493
51783W        W23312   1.303  23.279   4.056
51784W        W23313  35.357  12.132  11.652
51785W        W23314   7.035  42.815   4.601
51786W        W23315  18.187  44.243  13.098
51787W        W23316   5.075  43.249   1.296
51788W        W23317  20.237  39.018  11.663
51789W        W23318  27.465  20.643   3.837
51790W        W23319   7.332  20.762   2.249
51791W        W23320   8.200   9.790  11.464
51792W        W23321   9.397  19.069  13.518
51793W        W23322  18.295  11.299   4.467
51794W        W23323   6.803  15.329  12.039
51795W        W23324  11.075  42.385   0.033
51796W        W23325  43.785  23.939   2.170
51797W        W23326  10.432  34.883  13.961
51798W        W23327  33.644  39.478   0.706
51799W        W23328  40.512  37.331   1.895
51800W        W23329  36.570  20.600   3.830
51801W        W23330  14.793  15.633   1.814
51802W        W23331  24.031  32.924  13.944
51803W        W23332  42.661  27.108  11.425
51804W        W23333  33.066  13.097  12.162
51805W        W23334  13.813  29.571   1.411
51806W        W23335  42.648  15.231  12.983
51807W        W23336   0.550  22.089   3.038
51808W        W23337   5.086  17.036   2.633
51809W        W23338  41.374  20.490   1.888
51810W        W23339   1.832  37.511  10.816
51811W        W23340  32.123  34.031  14.054
51812W        W23341  40.365   8.702  14.686
51813W        W23342  24.057  14.046  12.364
51814W        W23343  21.384   0.445  11.134
51815W        W23344   3.188   1.977   4.064
51816W        W23345  38.997   1.063  11.657
51817W        W23346  42.440  42.946  12.653
51818W        W23347   3.893  14.651   3.547
51819W        W23348   4.395  42.071  14.872
51820W        W23349  30.496   5.286   2.243
51821W        W23350   4.304  38.032  13.773
51822W        W23351   7.828  32.434  11.169
51823W        W23352   3.693  17.835   1.245
51824W        W23353  43.089  42.466   1.840
51825W        W23354   3.981  34.416  10.980
51826W        W23355  26.759  12.651  13.337
51827W        W23356   4.441  27.129   1.767
51828W        W23357  14.478  22.170   0.647
51829W        W23358  43.906  38.752  14.364
51830W        W23359  22.199  16.083  14.840
51831W        W23360  39.547  44.083   0.187
51832W        W23361  36.560  37.436  12.100
51833W        W23362  29.939  26.041   3.097
51834W        W23363  25.480  38.074   1.310
51835W        W23364  23.663  13.058  12.350
51836W        W23365  30.471  32.333   2.357
51837W        W23366  44.947  28.937  11.485
51838W        W23367  10.640  24.080  10.608
51839W        W23368   7.792  34.051  12.898
51840W        W23369  21.836  15.527   0.226
51841W        W23370  28.533  44.382  10.365
51842W        W23371  18.309  18.299   4.454
51843W        W23372   1.951  44.423  12.321
51844W        W23373   1.440  21.281  14.403
51845W        W23374  18.845   4.826   3.554
51846W        W23375  41.848  27.049   1.397
51847W        W23376   7.642  17.974  12.455
51848W        W23377  19.676  21.486   1.498
51849W        W23378  34.844  17.581   0.453
51850W        W23379  22.106  36.436   4.774
51851W        W23380  12.806  30.240  14.543
51852W        W23381  31.046  24.023  11.477
51853W        W23382  28.839  43.904  13.544
51854W        W23383   1.406   4.795   4.963
51855W        W23384  26.258  20.623   2.641
51856W        W23385  34.826  15.845  14.958
51857W        W23386  13.642  28.598  11.648
51858W        W23387  38.659  40.707   2.838
51859W        W23388   0.359  13.036   3.223
51860W        W23389  32.450  32.854  13.827
51861W        W23390  23.498  27.635  11.535
51862W        W23391  10.116   8.144   1.429
51863W        W23392  36.022   6.252  11.134
51864W        W23393  14.102   7.816  12.183
51865W        W23394  21.125  31.433   2.854
51866W        W23395  27.078  37.112  13.004
51867W        W23396  16.454  26.501   1.753
51868W        W23397  18.710  23.946   2.384
51869W        W23398  30.101  32.102  14.819
51870W        W23399  40.501  15.920  14.356
51871W        W23400  33.207  13.094  14.582
51872W        W23401  11.243  11.260  13.534
51873W        W23402  35.477  44.785   0.171
51874W        W23403  24.319  23.558   4.165
51875W        W23404   9.162  32.570   3.778
51876W        W23405  29.879  12.262  10.084
51877W        W23406   2.925  18.313   2.202
51878W        W23407   8.056  11.399   1.451
51879W        W23408  20.884  35.649  14.053
51880W        W23409  14.108  39.781   4.098
51881W        W23410  34.167   1.239  13.284
51882W        W23411   6.640   6.282  12.937
51883W        W23412   7.496  32.529   4.937
51884W        W23413  23.265  38.931   1.255
51885W        W23414   0.259  22.439  10.688
51886W        W23415  18.508  28.497   3.759
51887W        W23416  19.644  17.741   1.009
51888W        W23417  28.232  12.056   0.856
51889W        W23418  26.947  42.912  13.135
51890W        W23419   7.360  32.382   3.624
51891W        W23420  41.606   5.729  14.334
51892W        W23421  21.253   7.472  10.809
51893W        W23422  13.763  16.600  12.431
51894W        W23423  22.204  32.487  12.933
51895W        W23424  26.935  14.320   3.925
51896W        W23425  26.171  30.552  11.178
51897W        W23426  17.655  19.739  11.401
51898W        W23427  21.391  38.421   0.174
51899W        W23428  35.024  15.872   2.861
51900W        W23429  11.811  29.022  13.805
51901W        W23430  42.689   9.216  12.503
51902W        W23431   7.792   8.827  13.390
51903W        W23432  32.992  33.532  10.901
51904W        W23433  31.085  21.184   5.019
51905W        W23434  14.659  26.941   4.151
51906W        W23435  40.112  36.053  10.734
51907W        W23436   0.227  32.920   1.716
51908W        W23437  18.808  38.570  14.378
51909W        W23438  14.761  44.331   1.734
51910W        W23439  40.862   0.871   3.445
51911W        W23440  39.020   1.374  12.966
51912W        W23441   2.863  44.331  13.137
51913W        W23442   7.118  29.933   4.610
51914W        W23443  24.485   1.897   4.141
51915W        W23444   3.533  29.713   1.722
51916W        W23445  16.086  28.578  14.438
51917W        W23446  41.005   5.352  11.565
51918W        W23447  39.347   2.664   3.313
51919W        W23448   4.431  21.589   3.579
51920W        W23449  26.091  25.037  11.159
51921W        W23450  11.961  41.790  11.830
51922W        W23451   5.139  38.526   1.357
51923W        W23452   3.847  27.954   0.819
51924W        W23453  13.663  41.460   4.427
51925W        W23454  39.929   2.514   0.433
51926W        W23455   9.243  37.245  11.245
51927W        W23456   4.265  43.098  12.446
51928W        W23457  21.973  34.047   3.111
51929W        W23458  15.783   3.134  13.881
51930W        W23459   1.505   4.638  14.127
51931W        W23460  35.027   9.944   0.873
51932W        W23461  34.009   1.895   2.793
51933W        W23462  22.191  15.318  12.979
51934W        W23463  20.328   4.686  11.549
51935W        W23464  30.941  10.808  10.686
51936W        W23465   9.349  41.408   1.274
51937W        W23466  16.042   8.115  11.570
51938W        W23467   8.485  38.232   3.237
51939W        W23468  21.121   3.547   0.169
51940W        W23469  26.094  19.797   2.141
51941W        W23470  19.118  35.343   1.443
51942W        W23471  42.691  21.755   1.429
51943W        W23472  23.650  22.708  14.762
51944W        W23473  16.841  42.459  14.003
51945W        W23474   6.712  12.110   2.817
51946W        W23475  18.045  32.971  12.569
51947W        W23476  35.331  34.872  13.844
51948W        W23477  15.585  27.175   4.534
51949W        W23478  40.225  19.859   2.166
51950W        W23479  38.847  10.713   4.133
51951W        W23480  12.117   3.168   1.183
51952W        W23481  42.205  19.721  12.855
51953W        W23482  40.287  27.151  13.904
51954W        W23483  23.600  36.943  11.183
51955W        W23484  43.920  22.493  12.549
51956W        W23485  36.345  17.333   0.442
51957W        W23486  44.194  22.471   1.400
51958W        W23487  43.528  28.660   4.132
51959W        W23488  10.367  43.354   0.972
51960W        W23489  13.232  43.227  13.817
51961W        W23490  44.899  19.488   0.917
51962W        W23491   0.344  25.164   2.371
51963W        W23492  44.884  25.372   4.097
51964W        W23493  31.375  40.378  11.230
51965W        W23494  43.273  40.091  12.193
51966W        W23495  43.525  28.072  14.773
51967W        W23496  30.107  42.721   0.608
51968W        W23497  15.645  22.573  13.511
51969W        W23498   0.535  22.698  13.403
51970W        W23499   7.832   8.172   2.791
51971W        W23500  37.455  34.416   1.388
51972W        W23501  42.401  17.084  14.934
51973W        W23502   1.069   6.840  10.813
51974W        W23503  30.686  27.171  13.578
51975W        W23504   3.483   4.616   2.651
51976W        W23505   7.426   6.756  12.853
51977W        W23506  28.444  14.145  14.548
51978W        W23507   7.249  33.847   3.886
51979W        W23508  25.812  26.992   2.091
51980W        W23509  38.641  31.102  10.957
51981W        W23510  34.847  32.015  11.186
51982W        W23511  34.271  16.139  13.102
51983W        W23512   8.165   3.460  12.894
51984W        W23513  14.192  12.803   1.416
51985W        W23514  39.009  31.096   3.355
51986W        W23515   9.633  44.519  14.477
51987W        W23516  21.436  17.162  11.524
51988W        W23517  17.900  40.449   1.341
51989W        W23518   1.450  24.215   0.983
51990W        W23519  41.862  10.499  13.025
51991W        W23520  26.496  37.372  10.785
51992W        W23521  36.520  28.658   4.694
51993W        W23522  38.480  34.075  13.292
51994W        W23523  36.672  19.285   2.198
51995W        W23524  42.344  37.159  11.564
51996W        W23525  28.020   9.801  13.077
51997W        W23526  13.232  33.867  11.931
51998W        W23527  22.716  28.052  11.697
51999W        W23528   1.511  14.785  13.868
52000W        W23529   8.105  25.819  13.920
52001W        W23530   4.444  14.591  14.715
52002W        W23531  44.746  15.738   0.697
52003W        W23532  32.712   3.810   0.260
52004W        W23533  23.071  40.823  13.888
52005W        W23534  28.344  14.356   3.628
52006W        W23535  16.889  25.958  12.020
52007W        W23536  12.229  11.350  14.005
52008W        W23537   2.488  10.243  14.026
52009W        W23538  15.335  32.983   2.841
52010W        W23539  10.743   6.697   2.910
52011W        W23540  43.301   9.381   3.270
52012W        W23541  19.087  17.732  10.704
52013W        W23542  38.977  40.303   2.618
52014W        W23543  16.667  33.336  13.210
52015W        W23544  21.083  19.038   1.771
52016W        W23545  35.054  26.660   1.419
52017W        W23546  10.505  38.230  12.050
52018W        W23547  27.360  23.237   0.349
52019W        W23548   0.207  44.993  10.944
52020W        W23549  31.689  33.039   4.965
52021W        W23550  42.771  24.676   1.830
52022W        W23551  10.273  23.179  12.066
52023W        W23552  23.211  40.056  13.451
52024W        W23553  17.352  13.597  14.039
52025W        W23554  33.935  11.555   1.489
52026W        W23555  26.000   2.340  14.426
52027W        W23556   4.405  15.836  14.863
52028W        W23557   3.399  42.083  13.456
52029W        W23558  26.889  39.504   0.313
52030W        W23559   4.676  17.135   1.188
52031W        W23560  14.280  37.039  11.710
52032W        W23561  20.749  36.870   0.798
52033W        W23562  16.836  16.064   1.534
52034W        W23563  28.669  15.576  14.153
52035W        W23564   6.734  25.416   1.840
52036W        W23565  12.691  19.080  13.815
52037W        W23566  22.746   1.379   4.381
52038W        W23567   7.430  35.852   1.723
52039W        W23568   1.696  36.577  13.949
52040W        W23569  10.349  33.474   2.847
52041W        W23570  29.491  21.883  11.046
52042W        W23571  42.885  19.237  10.684
52043W        W23572  22.145  17.861   2.879
52044W        W23573   6.324  32.143   0.187
52045W        W23574  20.455  17.590  13.829
52046W        W23575   9.882   7.902   0.204
52047W        W23576  25.094  39.302   4.569
52048W        W23577  23.280  12.136   1.896
52049W        W23578  14.624   4.337  12.307
52050W        W23579  29.936   7.122  14.867
52051W        W23580  39.901  44.773  12.605
52052W        W23581  25.252  20.017   1.400
52053W        W23582   5.723   8.850   2.135
52054W        W23583  44.152  44.053  12.580
52055W        W23584   9.793   5.674  13.446
52056W        W23585  40.847  29.661   4.610
52057W        W23586  35.615  14.921  13.846
52058W        W23587  41.308  40.778   1.505
52059W        W23588  25.853  36.997  10.543
52060W        W23589  30.703  10.350   3.718
52061W        W23590  34.856   9.789  13.360
52062W        W23591   4.397  21.686  14.389
52063W        W23592  41.209  29.193  12.010
52064W        W23593  26.406   3.748   2.402
52065W        W23594  39.578   7.159   4.515
52066W        W23595   2.490   3.968   2.380
52067W        W23596  40.454   2.384   0.419
52068W        W23597   7.566  11.598   2.950
52069W        W23598  41.297   9.663   1.851
52070W        W23599   1.612  33.629   0.226
52071W        W23600  20.198  40.483  14.677
52072W        W23601  31.143   8.458   2.903
52073W        W23602  41.011  17.639   2.966
52074W        W23603  17.221   6.868  11.427
52075W        W23604  36.459  42.328   4.041
52076W        W23605  25.525  44.284   3.807
52077W        W23606  16.218  28.996  14.107
52078W        W23607  37.658  44.436   5.173
52079W        W23608  32.669  37.462  10.699
52080W        W23609   1.171  18.293  11.611
52081W        W23610  37.432  21.216  10.743
52082W        W23611  23.501  29.477   2.114
52083W        W23612  33.940  34.367  13.402
52084W        W23613  28.161  35.263  14.601
52085W        W23614  21.460  29.552  14.964
52086W        W23615  11.073  39.769  12.417
52087W        W23616  38.603  24.283  11.847
52088W        W23617  42.284   9.766  11.131
52089W        W23618   5.039  13.017   4.158
52090W        W23619   3.692  17.266   2.641
52091W        W23620   6.042  21.407  11.633
52092W        W23621  17.427  23.530  10.616
52093W        W23622  44.045   3.330   4.934
52094W        W23623  43.382  33.704  14.898
52095W        W23624  26.604  23.367   4.599
52096W        W23625   5.332   2.169   0.247
52097W        W23626  12.601  37.136  11.876
52098W        W23627   0.765  16.004  14.029
52099W        W23628  43.980   9.835  13.434
52100W        W23629  41.699  30.167  11.569
52101W        W23630  38.840  31.041  12.532
52102W        W23631   7.801  41.005   2.218
52103W        W23632  29.611  30.009   0.413
52104W        W23633  32.333  12.849   1.940
52105W        W23634   4.607  13.272   4.044
52106W        W23635  39.648   1.720  11.596
52107W        W23636  42.498   3.837  11.187
52108W        W23637  35.466   1.235   2.815
52109W        W23638  29.896  19.772   3.692
52110W        W23639  39.937  24.127   0.119
52111W        W23640   8.878  14.800   3.837
52112W        W23641  32.328   8.294   0.415
52113W        W23642  15.608  20.976   2.858
52114W        W23643  37.437  32.925  10.724
52115W        W23644   7.933  17.451  11.097
52116W        W23645  20.126   8.752   1.417
52117W        W23646  25.245  14.147  11.755
52118W        W23647  39.234  41.445   1.807
52119W        W23648  18.266   5.456  10.798
52120W        W23649   0.827  34.193   0.943
52121W        W23650  44.974  12.634   1.854
52122W        W23651  38.007  42.361   1.658
52123W        W23652  11.159  15.238  11.100
52124W        W23653  22.920   6.386  13.398
52125W        W23654   8.933  18.204   1.366
52126W        W23655   6.590   4.842  14.314
52127W        W23656   8.917  15.236   4.154
52128W        W23657   4.805  42.037   2.388
52129W        W23658  24.871  33.918  14.829
52130W        W23659   7.854  21.675   0.795
52131W        W23660   3.139  34.296   3.571
52132W        W23661  26.052  44.803   0.252
52133W        W23662  19.464   3.885  14.317
52134W        W23663  10.235  39.586   2.880
52135W        W23664  30.831  44.528  13.213
52136W        W23665  14.771   0.335   1.560
52137W        W23666   7.895  35.438   1.677
52138W        W23667  33.773  43.471   2.191
52139W        W23668  37.709  12.102   2.808
52140W        W23669  18.098  24.373  10.539
52141W        W23670  40.051  32.558  12.638
52142W        W23671  24.566   4.395   4.091
52143W        W23672  37.320  37.858  11.934
52144W        W23673   5.294   9.322   2.925
52145W        W23674  11.217  11.077   2.864
52146W        W23675  14.542   4.401   4.071
52147W        W23676  22.918  29.037  11.405
52148W        W23677  40.843  10.789  11.711
52149W        W23678  23.997  11.891   0.333
52150W        W23679  17.739  32.268   0.776
52151W        W23680  42.543  16.042  13.294
52152W        W23681  33.454   8.720  13.519
52153W        W23682  33.084   7.702  13.534
52154W        W23683   0.734  30.090  10.116
52155W        W23684  43.054  40.774   2.847
52156W        W23685  34.346  38.096  12.716
52157W        W23686  24.942  38.348   4.637
52158W        W23687  34.188  22.779  12.442
52159W        W23688  25.026  11.445   1.195
52160W        W23689   6.272  32.986  14.826
52161W        W23690  36.465  39.901  13.298
52162W        W23691  18.185  10.486  13.486
52163W        W23692  19.987  28.498  14.779
52164W        W23693  20.436  28.168  10.174
52165W        W23694   5.767  10.126  14.383
52166W        W23695  19.303  25.936  14.452
52167W        W23696  18.316  16.522   4.853
52168W        W23697   7.091  34.980  13.808
52169W        W23698  37.472   8.172  12.493
52170W        W23699   1.509  12.555  10.813
52171W        W23700   3.965  36.604  14.359
52172W        W23701  30.976  13.322   2.279
52173W        W23702  35.267  28.522   3.765
52174W        W23703  39.508  32.458  12.571
52175W        W23704   6.714  28.148  14.737
52176W        W23705  14.324  14.921  14.505
52177W        W23706  40.946   6.808  11.676
52178W        W23707  31.864  21.289   2.322
52179W        W23708   4.189  29.537   4.090
52180W        W23709  41.784   2.048   1.026
52181W        W23710  41.486  31.994  12.297
52182W        W23711  12.268  12.281   3.233
52183W        W23712  40.824  14.204   4.798
52184W        W23713  34.497   2.007   2.653
52185W        W23714  14.528   1.682  10.283
52186W        W23715  11.182  23.762   4.102
52187W        W23716  25.113  15.721  12.072
52188W        W23717   3.200  25.027  11.596
52189W        W23718  18.280  19.154  13.295
52190W        W23719  16.274  16.679   1.307
52191W        W23720  29.651  34.794   5.533
52192W        W23721  15.081   6.487   2.372
52193W        W23722   5.072   5.213   3.615
52194W        W23723  40.453   5.105  12.882
52195W        W23724  30.916   7.350  10.138
52196W        W23725  35.533  30.564   2.697
52197W        W23726  12.383  32.243  11.350
52198W        W23727   7.908   6.373  14.359
52199W        W23728  11.857  16.919   3.189
52200W        W23729  37.842  42.580  11.593
52201W        W23730  26.117   9.887   0.993
52202W        W23731  32.444  17.637  10.897
52203W        W23732   1.271  36.127   1.811
52204W        W23733  21.031  34.957  12.386
52205W        W23734   6.314  37.341   2.241
52206W        W23735  39.324  33.536   1.765
52207W        W23736  14.639  42.411   4.079
52208W        W23737  20.052  13.174  12.150
52209W        W23738   2.249  12.025   0.553
52210W        W23739  19.415  17.669  11.639
52211W        W23740  26.107  18.550   0.460
52212W        W23741  20.275  23.347  11.508
52213W        W23742  36.501  22.153   1.051
52214W        W23743  29.480   7.738   0.281
52215W        W23744  44.669  10.920   1.607
52216W        W23745  41.913  33.199   0.900
52217W        W23746  14.334  17.363   2.294
52218W        W23747  26.081  13.378  11.178
52219W        W23748  22.942   3.541  13.368
52220W        W23749   2.767   9.144  11.556
52221W        W23750  26.064  29.921  13.068
52222W        W23751   0.781  24.247  11.590
52223W        W23752  21.046  28.720  13.206
52224W        W23753  14.706   6.599   1.408
52225W        W23754   9.075  11.298   0.864
52226W        W23755  12.369  37.984   0.860
52227W        W23756  21.764   5.187   2.756
52228W        W23757  34.982  12.311  13.428
52229W        W23758  16.826  40.965  12.459
52230W        W23759   5.026  30.993   1.482
52231W        W23760  25.924  40.716  13.903
52232W        W23761  35.208  20.924   3.244
52233W        W23762  44.913  41.584   1.284
52234W        W23763  21.252  36.480   2.108
52235W        W23764  31.049  20.313   0.855
52236W        W23765  20.528   1.510   0.743
52237W        W23766   3.401  31.380   0.817
52238W        W23767  21.005   6.978  13.458
52239W        W23768  12.391  27.448   4.140
52240W        W23769  44.861   3.951  14.441
52241W        W23770  25.107   4.821   3.052
52242W        W23771  14.806  32.812   1.597
52243W        W23772   5.816  15.050   1.376
52244W        W23773  38.436   4.891   2.807
52245W        W23774  20.176   0.996   4.300
52246W        W23775   7.397  31.178  14.526
52247W        W23776  10.863   1.215   0.435
52248W        W23777  25.352   2.235  11.240
52249W        W23778  19.471  37.781  14.351
52250W        W23779   7.923  28.401   1.029
52251W        W23780  38.053  32.978   0.585
52252W        W23781  34.593  31.448   2.209
52253W        W23782  23.694   9.825   1.859
52254W        W23783  24.315  36.235  11.082
52255W        W23784  20.874  33.927   0.978
52256W        W23785  30.681  36.020  12.891
52257W        W23786  42.826  31.670   0.100
52258W        W23787  16.346  19.289  12.577
52259W        W23788  39.535  26.570   4.159
52260W        W23789  13.495  34.105  14.899
52261W        W23790  19.168   0.304   0.714
52262W        W23791  13.095  22.590   4.536
52263W        W23792  17.612  25.605   0.302
52264W        W23793   8.457  30.735   0.554
52265W        W23794  23.102   7.367  13.154
52266W        W23795  16.619  26.598  13.866
52267W        W23796  12.769   4.989   1.453
52268W        W23797   5.642   8.407   5.031
52269W        W23798  42.485   7.544  13.548
52270W        W23799  12.674  35.517  11.032
52271W        W23800  28.845  36.604  14.513
52272W        W23801  32.275  31.940  12.516
52273W        W23802  24.649  14.050   2.722
52274W        W23803  10.688  44.957  13.363
52275W        W23804  11.214   6.553   0.494
52276W        W23805  35.197  22.202   2.722
52277W        W23806  11.045   2.078   5.053
52278W        W23807   7.262  32.482  11.733
52279W        W23808  39.745  42.461   1.486
52280W        W23809   1.436  42.865   3.601
52281W        W23810  17.766   0.261  14.872
52282W        W23811  14.790  35.674  10.762
52283W        W23812  12.330   1.258  14.001
52284W        W23813   2.499   8.772   2.816
52285W        W23814  41.889  15.087   4.652
52286W        W23815  26.473  24.647  14.779
52287W        W23816   6.134  25.732  11.160
52288W        W23817   4.422  20.204  13.346
52289W        W23818  10.861   1.483   0.881
52290W        W23819  33.473   0.087   2.839
52291W        W23820   8.603  14.913   2.362
52292W        W23821  34.776  20.925   2.468
52293W        W23822  19.972  26.645   1.300
52294W        W23823  11.670  30.062  11.423
52295W        W23824  15.504  27.352   2.337
52296W        W23825   9.578   6.230   1.939
52297W        W23826  24.638  37.963   2.446
52298W        W23827  43.322  26.572   0.339
52299W        W23828  13.188  41.931   0.375
52300W        W23829  20.935  39.678   4.474
52301W        W23830  30.896  10.965  14.755
52302W        W23831  34.517  41.499   0.833
52303W        W23832  43.057  34.417   2.447
52304W        W23833   7.550  34.933  11.200
52305W        W23834  34.609  10.790   1.286
52306W        W23835  37.666   0.336   2.254
52307W        W23836  22.809   1.003   1.680
52308W        W23837  28.518  37.784   4.698
52309W        W23838  31.681  33.863  14.288
52310W        W23839  11.421  15.781   3.706
52311W        W23840  33.063  34.011  10.573
52312W        W23841  14.368  17.979  10.792
52313W        W23842  35.729  25.772   5.091
52314W        W23843  25.517  15.767   2.465
52315W        W23844  17.071  44.256  11.143
52316W        W23845  39.381  42.317   4.121
52317W        W23846  40.923  32.916  11.542
52318W        W23847  43.153  41.004   4.727
52319W        W23848  25.019  43.778   3.751
52320W        W23849  11.835  36.392   0.757
52321W        W23850  24.132  27.161  10.741
52322W        W23851  30.523  10.895   2.311
52323W        W23852  22.909  19.441   1.963
52324W        W23853  42.587  42.513  12.034
52325W        W23854  13.075  32.215   4.989
52326W        W23855   5.451  12.629   0.213
52327W        W23856  18.289  38.043  12.074
52328W        W23857   6.941  19.271   1.395
52329W        W23858  39.363  41.668  12.591
52330W        W23859  15.964  29.996   2.171
52331W        W23860  44.584  44.867  13.126
52332W        W23861  16.324  29.069   2.616
52333W        W23862  34.222  30.144  13.380
52334W        W23863  25.654   4.941  12.544
52335W        W23864  11.645  27.654  12.436
52336W        W23865  36.154  14.670  12.459
52337W        W23866   7.154   7.347  14.893
52338W        W23867  43.181  39.778  13.921
52339W        W23868  23.742  14.171  11.948
52340W        W23869   1.208  20.799   1.680
52341W        W23870  11.821  25.673  10.633
52342W        W23871  20.939   3.900  11.936
52343W        W23872  33.325   4.979   2.186
52344W        W23873   5.911  27.666  11.175
52345W        W23874  29.160  43.832  14.055
52346W        W23875  18.629  23.748  14.558
52347W        W23876  12.375   8.441  10.731
52348W        W23877   1.908  29.559  10.513
52349W        W23878  43.952  23.163   4.155
52350W        W23879  24.738  28.704   1.923
52351W        W23880  29.749  31.613  12.096
52352W        W23881  40.330  15.899   2.725
52353W        W23882  36.711  44.473  10.781
52354W        W23883  20.407  19.963  13.981
52355W        W23884  18.983  16.167   4.306
52356W        W23885   8.811  44.435   4.580
52357W        W23886  36.157  44.061  12.097
52358W        W23887   0.532  25.140   4.845
52359W        W23888  18.631  33.386   0.760
52360W        W23889  17.305  41.499  10.701
52361W        W23890  19.833  28.881   1.907
52362W        W23891  43.791   9.674   0.675
52363W        W23892  41.007   9.621   4.069
52364W        W23893  23.453   3.276   4.637
52365W        W23894  21.589  30.881   4.849
52366W        W23895   4.346  13.319   0.500
52367W        W23896  15.391  32.527   2.274
52368W        W23897   4.019  25.977  13.917
52369W        W23898  15.294   5.607   2.131
52370W        W23899   3.481   9.768   3.265
52371W        W23900  14.158   8.914  11.386
52372W        W23901  36.898  30.733   0.947
52373W        W23902  38.786   0.894  12.621
52374W        W23903  21.848  11.693   1.747
52375W        W23904   2.567  14.005  11.702
52376W        W23905  42.215  13.335   2.288
52377W        W23906  22.115   6.685   4.220
52378W        W23907   2.506  43.421   2.332
52379W        W23908  13.063   6.104   0.081
52380W        W23909   4.222  25.066  13.028
52381W        W23910  44.945   1.864  13.947
52382W        W23911  30.729  22.985   4.733
52383W        W23912  17.579   7.803  11.638
52384W        W23913   2.400   2.091  13.369
52385W        W23914   7.930   7.878   3.201
52386W        W23915   3.563  33.853  10.976
52387W        W23916  13.575   0.661  10.622
52388W        W23917  18.377  15.204  10.515
52389W        W23918  14.367  13.322   4.258
52390W        W23919   5.352  40.998   4.288
52391W        W23920  42.611  11.662   2.964
52392W        W23921  14.187  18.468  13.535
52393W        W23922   3.321   2.418  11.136
52394W        W23923  35.449  42.872   2.750
52395W        W23924   5.935  17.657   2.280
52396W        W23925   5.431  16.930   4.828
52397W        W23926  10.632  26.135  10.474
52398W        W23927  16.614   1.192  12.521
52399W        W23928  29.684   6.779  10.910
52400W        W23929  33.326  28.021  14.477
52401W        W23930   9.778  15.889   2.410
52402W        W23931  37.328  43.518   0.529
52403W        W23932  26.659  20.989  11.987
52404W        W23933  33.499  41.875  14.415
52405W        W23934  25.712  14.795  11.127
52406W        W23935  26.574  33.886   0.034
52407W        W23936   2.442   3.574   2.714
52408W        W23937  10.693  28.588  13.863
52409W        W23938  15.798  26.875  14.655
52410W        W23939  38.871  40.439   0.240
52411W        W23940  35.531   5.989  11.586
52412W        W23941  44.247  26.801   4.221
52413W        W23942   1.070  26.476   2.143
52414W        W23943   4.317  42.960  11.029
52415W        W23944   9.364   8.593   3.720
52416W        W23945  12.150   5.610   2.714
52417W        W23946  37.624  31.479   2.814
52418W        W23947   8.941  31.031  12.652
52419W        W23948  25.246  16.829   2.780
52420W        W23949  44.839  12.450  13.502
52421W        W23950   0.407  30.030   0.210
52422W        W23951  12.091  23.295   3.142
52423W        W23952  43.233  14.022   3.664
52424W        W23953  37.353   1.749   3.667
52425W        W23954  35.458  15.666   3.069
52426W        W23955  11.895  23.263  12.514
52427W        W23956   0.344  44.251  13.424
52428W        W23957  17.730  44.326  12.872
52429W        W23958  31.612   9.779  13.128
52430W        W23959  35.562  26.477   0.109
52431W        W23960  44.025  18.701   0.495
52432W        W23961  41.808   3.214   0.177
52433W        W23962  30.627  40.096   4.188
52434W        W23963  21.057  14.774   5.053
52435W        W23964  31.434  18.144   4.122
52436W        W23965  38.544  38.814  14.826
52437W        W23966   5.851   0.657  13.299
52438W        W23967  22.561  10.803  13.949
52439W        W23968   3.728  40.743  12.447
52440W        W23969  42.889  16.830  14.897
52441W        W23970   3.299  24.630  11.952
52442W        W23971  27.055  32.080  12.159
52443W        W23972  35.760   2.532  11.138
52444W        W23973  27.688   0.411  12.978
52445W        W23974  23.441  42.895   1.055
52446W        W23975   9.927  20.729  14.380
52447W        W23976  39.993  20.539   1.298
52448W        W23977  19.910  29.968  14.768
52449W        W23978   1.997  13.338  10.827
52450W        W23979  43.311   9.757   0.821
52451W        W23980  13.672   8.314   2.186
52452W        W23981  32.213  40.551  11.069
52453W        W23982  26.678  30.499  13.393
52454W        W23983  40.968  33.381   4.187
52455W        W23984  12.621  10.875   2.637
52456W        W23985  35.362  34.401  14.714
52457W        W23986   5.174  44.249  11.664
52458W        W23987   4.962  30.049   0.327
52459W        W23988  41.885  17.031   4.060
52460W        W23989  13.160  41.607  12.506
52461W        W23990  25.978  37.433   5.041
52462W        W23991  16.074  32.949   3.146
52463W        W23992  33.299  24.116  14.482
52464W        W23993  40.812   7.866   3.678
52465W        W23994  20.793  25.365   2.850
52466W        W23995  23.757  32.127  14.446
52467W        W23996  34.647   8.355   1.124
52468W        W23997  18.123  19.743  14.625
52469W        W23998  11.456  13.647  12.983
52470W        W23999  30.686   4.965  11.651
52471W        W24000  16.527  37.116   4.339
52472W        W24001  15.034   5.855  11.907
52473W        W24002  31.015   8.430   3.406
52474W        W24003  26.614  21.779   1.292
52475W        W24004  38.792  19.775  14.233
52476W        W24005  13.170  11.578  11.567
52477W        W24006  17.688  36.940   0.784
52478W        W24007  18.846  24.233  14.967
52479W        W24008  12.448  14.243  11.587
52480W        W24009  22.983  41.295   2.401
52481W        W24010   1.424  37.446   2.015
52482W        W24011  21.139  14.223  11.119
52483W        W24012  31.382  42.916  11.926
52484W        W24013   5.259  15.582   0.918
52485W        W24014  27.176  11.595  14.720
52486W        W24015  41.620  30.029   0.321
52487W        W24016  20.875  42.339  14.859
52488W        W24017  40.764  28.014   0.018
52489W        W24018   7.521  13.366   2.812
52490W        W24019   9.934  11.257  13.860
52491W        W24020   7.716  19.789   1.454
52492W        W24021  25.075  18.679  13.929
52493W        W24022  24.746  23.294   4.050
52494W        W24023   2.903  29.716  10.794
52495W        W24024   1.162   6.253   3.136
52496W        W24025   2.802  37.092  14.842
52497W        W24026   1.404  30.057  14.030
52498W        W24027  26.561   5.501  12.996
52499W        W24028  33.496  23.815  12.644
52500W        W24029   5.825  17.673   2.808
52501W        W24030   5.886  35.860   3.795
52502W        W24031  14.224  25.545   3.248
52503W        W24032   3.141  10.781  11.368
52504W        W24033   5.507  27.428  10.962
52505W        W24034   3.394  30.868   0.911
52506W        W24035  38.750  11.950   2.287
52507W        W24036  41.783  16.534  10.773
52508W        W24037   2.785  18.271  13.314
52509W        W24038  32.467   8.376  14.290
52510W        W24039  32.145  27.676  13.335
52511W        W24040  21.735   6.917   2.259
52512W        W24041   7.715  33.207  10.832
52513W        W24042  21.270   4.326   4.914
52514W        W24043  11.880  34.569   3.178
52515W        W24044   2.252  16.213  13.044
52516W        W24045  43.648  40.417  13.400
52517W        W24046  19.632  32.054  14.185
52518W        W24047   1.781  38.311   2.875
52519W        W24048  12.846  14.537   4.180
52520W        W24049   5.687   1.669   2.735
52521W        W24050  12.753  23.825  13.859
52522W        W24051  23.349  10.815   3.928
52523W        W24052  11.905  43.728   4.215
52524W        W24053  36.988  15.810   1.074
52525W        W24054  26.675  30.160   4.738
52526W        W24055  29.694   3.251   4.557
52527W        W24056   4.837  31.618   3.163
52528W        W24057  40.001  35.439   0.023
52529W        W24058  28.599  16.655  12.368
52530W        W24059   5.831  26.802  13.829
52531W        W24060  13.230  34.930   3.781
52532W        W24061  24.165  10.885  14.521
52533W        W24062   3.363  24.896   0.318
52534W        W24063   1.517  22.744  14.342
52535W        W24064  16.665  14.034   2.910
52536W        W24065  26.461  42.849   1.411
52537W        W24066  19.220   7.204  11.183
52538W        W24067  33.428  26.663   0.210
52539W        W24068   9.251  33.913  14.855
52540W        W24069   3.918  22.118  10.648
52541W        W24070   4.849  11.493   1.080
52542W        W24071  11.531   5.280  11.516
52543W        W24072  23.404  27.113   3.629
52544W        W24073   3.971  35.982  13.246
52545W        W24074  29.623   7.842   4.105
52546W        W24075  23.689  35.561   1.872
52547W        W24076  28.497   1.364   4.372
52548W        W24077  18.483  24.695   3.316
52549W        W24078  17.879   2.510  11.566
52550W        W24079  13.554  30.078  14.069
52551W        W24080  30.956  36.980  14.316
52552W        W24081  33.301  36.951  14.020
52553W        W24082   6.918  24.010  10.753
52554W        W24083  19.766  36.300  14.390
52555W        W24084  32.196  39.513   4.163
52556W        W24085  19.207  25.790  14.982
52557W        W24086   1.754   8.443  13.862
52558W        W24087  21.549  31.889  10.956
52559W        W24088  32.585   8.655  12.612
52560W        W24089  40.483  10.119   5.306
52561W        W24090   4.383  24.537   3.365
52562W        W24091  17.648  29.554   1.086
52563W        W24092  25.482   0.843  11.061
52564W        W24093  11.877  34.906   0.072
52565W        W24094  19.303  33.399  13.557
52566W        W24095   2.527   2.881  12.243
52567W        W24096  29.670  22.950   0.830
52568W        W24097  39.949   3.472   2.459
52569W        W24098  20.947  40.405  13.227
52570W        W24099   9.658   2.715  14.384
52571W        W24100   5.753   8.574  14.399
52572W        W24101  27.537   1.702   4.182
52573W        W24102  11.997  27.218  14.855
52574W        W24103  10.346  24.288  13.248
52575W        W24104  38.662  17.046  10.245
52576W        W24105   9.730  21.156   4.066
52577W        W24106  15.803  11.721  10.879
52578W        W24107  19.018   5.158   3.166
52579W        W24108  38.608  37.516   4.541
52580W        W24109   1.826  21.533   1.340
52581W        W24110  35.425   4.642  12.179
52582W        W24111  31.780  13.144  13.671
52583W        W24112  16.165  22.051   1.912
52584W        W24113  20.575  14.360   0.316
52585W        W24114  34.135  26.644   4.227
52586W        W24115   1.868  31.619   0.967
52587W        W24116  14.593  38.518   2.326
52588W        W24117  12.907  27.003  14.493
52589W        W24118  22.522  13.506   4.089
52590W        W24119  16.731  34.325  13.817
52591W        W24120  35.942  26.365  14.296
52592W        W24121  31.073  16.913   9.823
52593W        W24122  36.067  10.077  11.111
52594W        W24123  19.491   5.370   4.044
52595W        W24124  17.657  32.510   0.160
52596W        W24125  35.948  43.471   3.841
52597W        W24126  10.646  38.920   4.237
52598W        W24127  34.553  40.776   2.956
52599W        W24128  36.974  29.332   3.038
52600W        W24129  37.687  21.060  14.505
52601W        W24130  12.938  23.455   2.872
52602W        W24131  13.231  19.803  12.965
52603W        W24132  10.324  18.245   0.838
52604W        W24133   8.915  10.945   3.986
52605W        W24134  40.078   5.127   0.573
52606W        W24135  16.902  11.021  10.684
52607W        W24136  29.236  31.720  10.770
52608W        W24137   0.830   8.897   3.715
52609W        W24138  17.792  43.871   0.674
52610W        W24139  28.293  32.252  11.366
52611W        W24140  23.045  22.285  14.591
52612W        W24141   7.952   1.037   3.543
52613W        W24142  30.494  14.895  11.182
52614W        W24143  20.746   1.243   2.683
52615W        W24144  35.573  13.718  12.423
52616W        W24145  34.157  15.897   4.639
52617W        W24146   7.760  28.252  10.732
52618W        W24147  34.398  36.511   2.172
52619W        W24148  14.196  35.498   0.320
52620W        W24149  40.424  10.147   0.351
52621W        W24150   4.175  38.553   3.732
52622W        W24151  16.539  29.755  11.168
52623W        W24152   6.012   3.778  11.273
52624W        W24153  36.445   2.275   1.929
52625W        W24154   3.646  43.314  13.005
52626W        W24155  22.295  40.676  13.469
52627W        W24156  42.502  24.207   1.906
52628W        W24157  16.806  37.582  14.572
52629W        W24158  29.461  20.281   1.567
52630W        W24159   9.901  13.068  14.116
52631W        W24160  15.726  35.978   2.783
52632W        W24161  13.078  18.549   4.656
52633W        W24162   8.806  38.489  13.402
52634W        W24163  29.554  30.495   1.869
52635W        W24164  43.776  36.568  12.412
52636W        W24165  42.312  13.632   1.245
52637W        W24166  10.953  17.059   3.215
52638W        W24167   5.213  10.330   0.252
52639W        W24168  25.960   2.272  12.001
52640W        W24169   8.863  11.130  14.844
52641W        W24170  33.391   5.777   2.807
52642W        W24171  33.267  28.725   0.347
52643W        W24172  33.165  11.290  12.126
52644W        W24173  18.147  23.811  14.389
52645W        W24174  12.797   3.015   1.245
52646W        W24175  44.218  21.323  12.640
52647W        W24176   8.747  37.222   0.712
52648W        W24177   0.183  27.457  11.963
52649W        W24178   6.777  20.820  12.859
52650W        W24179  40.765  44.735   3.288
52651W        W24180  33.084   8.411  11.518
52652W        W24181   3.269  14.312   4.712
52653W        W24182  23.795  30.965  12.596
52654W        W24183  10.154  21.580  12.494
52655W        W24184   2.235  17.007   0.652
52656W        W24185  21.055  10.889  11.604
52657W        W24186   4.405  17.975  11.310
52658W        W24187  32.806  34.595   2.433
52659W        W24188  32.082  20.129  13.420
52660W        W24189   7.713  30.149  12.461
52661W        W24190   5.565  37.368   3.403
52662W        W24191  20.330   3.465  11.810
52663W        W24192  39.593   7.178   0.755
52664W        W24193  34.670  11.236   0.436
52665W        W24194  30.226  21.788  10.609
52666W        W24195  21.552  24.402  11.206
52667W        W24196  13.084  43.732  10.986
52668W        W24197  24.588  28.236   1.768
52669W        W24198  12.709  11.826  10.642
52670W        W24199  27.042  41.984   2.189
52671W        W24200  11.833  28.869  11.596
52672W        W24201  13.216  44.740  11.040
52673W        W24202  19.041  23.748   2.759
52674W        W24203   7.807  17.212  11.918
52675W        W24204   8.275  38.316   2.334
52676W        W24205  40.861  35.114  13.248
52677W        W24206  30.692  10.872   3.676
52678W        W24207  26.687  15.770  11.079
52679W        W24208   8.662  12.132   4.779
52680W        W24209  25.666  21.762  11.599
52681W        W24210  24.260  16.599   2.775
52682W        W24211   6.853  14.748  14.956
52683W        W24212  32.788   2.222   2.656
52684W        W24213  31.276  14.576   0.942
52685W        W24214  31.033  28.180   4.963
52686W        W24215  17.596  30.488  12.044
52687W        W24216  10.688   6.648   0.827
52688W        W24217  15.543  36.468   1.384
52689W        W24218  38.375  33.516   3.082
52690W        W24219  35.501  15.618  10.397
52691W        W24220  33.008  25.660   3.625
52692W        W24221  17.463   7.674  13.840
52693W        W24222  18.570  21.160   4.568
52694W        W24223  43.799  36.042   4.706
52695W        W24224  39.968  27.629   1.534
52696W        W24225  33.139  39.507  10.848
52697W        W24226  32.633  27.699  14.800
52698W        W24227  40.058  32.149  11.963
52699W        W24228  34.564  17.227   3.886
52700W        W24229  35.082  44.911  12.031
52701W        W24230  26.454  21.166  13.496
52702W        W24231  42.455  42.910  11.591
52703W        W24232   1.220  11.206   0.721
52704W        W24233  41.443  28.626   0.387
52705W        W24234   4.730  19.980   0.305
52706W        W24235  18.471  34.384   4.516
52707W        W24236  41.266  24.107  12.062
52708W        W24237  37.028  19.007   0.222
52709W        W24238  12.817  40.294  12.080
52710W        W24239  21.559  37.140  14.928
52711W        W24240   9.441  33.601  11.107
52712W        W24241  24.819  10.295  12.659
52713W        W24242   4.881   2.193   4.839
52714W        W24243   7.693  22.006  13.332
52715W        W24244  38.373   0.241   1.662
52716W        W24245  38.772  25.127   4.614
52717W        W24246  12.227  12.600   1.292
52718W        W24247  42.916   3.265   5.203
52719W        W24248   3.905  18.688   1.666
52720W        W24249  19.545  39.714  14.715
52721W        W24250  32.010  20.053   3.119
52722W        W24251  16.693   2.451   1.896
52723W        W24252   3.077  16.901   1.934
52724W        W24253  14.172  39.529   1.969
52725W        W24254  31.148  33.328   1.672
52726W        W24255  15.387  15.119  14.554
52727W        W24256  43.407  28.753  12.471
52728W        W24257   0.386  27.068   3.720
52729W        W24258  22.057  40.389  12.804
52730W        W24259  26.532   0.814  12.838
52731W        W24260  24.089   7.102   4.905
52732W        W24261  17.708  33.707   0.401
52733W        W24262  33.436  32.765   3.768
52734W        W24263  28.923  35.863  11.558
52735W        W24264  33.180  21.036   1.928
52736W        W24265  29.965  42.853   2.012
52737W        W24266  33.145   6.162  13.862
52738W        W24267   8.669   6.180   1.595
52739W        W24268  17.646   4.625   3.280
52740W        W24269  36.781  27.183  13.095
52741W        W24270  22.210   9.564  10.715
52742W        W24271  22.789  37.559   2.668
52743W        W24272   8.535   6.472   1.148
52744W        W24273  25.813  43.754  14.857
52745W        W24274  14.794  14.649   3.352
52746W        W24275  15.358  20.183  13.158
52747W        W24276   5.756  21.825   0.741
52748W        W24277  43.477  15.685   2.653
52749W        W24278   8.728  43.844  11.908
52750W        W24279  28.173  27.941   4.555
52751W        W24280  31.432  14.053   0.497
52752W        W24281   4.711  11.123   3.579
52753W        W24282   0.921   1.734   0.008
52754W        W24283   3.171  11.526   0.389
52755W        W24284  11.267  22.890  13.294
52756W        W24285  20.797  44.969  11.661
52757W        W24286  41.470  13.106  13.437
52758W        W24287  35.082   4.466  13.421
52759W        W24288   9.181   2.314   0.780
52760W        W24289   7.357  25.219   0.054
52761W        W24290  16.514  16.203   2.446
52762W        W24291   6.809   3.500   2.331
52763W        W24292  12.021  14.228   4.836
52764W        W24293  40.739  15.175   2.730
52765W        W24294  40.332  19.249  12.457
52766W        W24295  10.023  12.851  10.794
52767W        W24296  19.645  26.035  14.831
52768W        W24297   7.334   6.894  14.678
52769W        W24298  35.911  18.665  10.664
52770W        W24299  40.031  20.054  14.533
52771W        W24300  33.186  19.124  11.609
52772W        W24301  12.564   3.262  14.782
52773W        W24302  27.706  21.160   0.965
52774W        W24303   3.107  29.053  11.524
52775W        W24304  26.528  21.409   1.677
52776W        W24305  38.574   5.164   0.281
52777W        W24306  42.779   7.976  11.088
52778W        W24307   1.217  25.048  13.285
52779W        W24308  35.156   5.012  11.623
52780W        W24309  42.806  35.789  12.789
52781W        W24310  39.662   4.775   0.846
52782W        W24311  13.945   9.320  13.949
52783W        W24312   2.147   0.144   4.400
52784W        W24313  35.585   2.403   1.254
52785W        W24314  19.721  14.672   2.220
52786W        W24315   4.587  16.871   2.966
52787W        W24316   1.331  43.954  14.817
52788W        W24317  20.704   7.961  11.925
52789W        W24318  29.413  17.337  13.949
52790W        W24319  28.189  22.165   2.295
52791W        W24320  35.776  23.682  13.916
52792W        W24321  39.909   6.905  12.421
52793W        W24322  30.550  29.574   4.826
52794W        W24323  41.439  35.826  12.322
52795W        W24324   1.713  25.943  13.194
52796W        W24325  40.997  42.547  14.853
52797W        W24326  12.433  39.050  13.579
52798W        W24327  20.956  21.562   1.339
52799W        W24328  25.434  40.854  13.714
52800W        W24329  44.993  23.824   0.949
52801W        W24330  30.085  12.076  14.241
52802W        W24331  34.372  10.663  11.129
52803W        W24332  24.159   1.977  11.563
52804W        W24333   0.413   7.787   3.232
52805W        W24334   0.839  23.842  13.168
52806W        W24335  34.528  28.339  12.467
52807W        W24336   8.463  16.158   2.184
52808W        W24337  10.696  44.272  11.244
52809W        W24338  18.567   2.405  14.529
52810W        W24339  13.335  40.733   3.698
52811W        W24340   4.715  31.196  14.821
52812W        W24341  22.087  31.611   3.276
52813W        W24342   8.196  21.115  10.374
52814W        W24343  29.508  32.983   3.186
52815W        W24344  27.351   9.204  13.313
52816W        W24345  13.602  17.819   4.880
52817W        W24346  18.654  23.234  13.958
52818W        W24347  41.410  42.294   2.737
52819W        W24348  39.358   5.263  10.881
52820W        W24349  29.840  40.737  14.207
52821W        W24350   8.554  42.986   0.844
52822W        W24351  18.176   3.271   3.670
52823W        W24352  22.559  32.899   3.240
52824W        W24353  21.211  23.096   0.036
52825W        W24354  23.223  36.724  13.929
52826W        W24355  12.669  32.549   1.903
52827W        W24356  41.510  10.835  10.815
52828W        W24357  28.410  11.156   1.747
52829W        W24358   5.960  15.773  13.275
52830W        W24359   5.390  24.674   1.932
52831W        W24360   5.376   8.553   4.624
52832W        W24361  44.978   7.924  10.474
52833W        W24362  24.102  42.896  14.844
52834W        W24363  21.035   4.510  14.883
52835W        W24364  13.537  12.348   0.923
52836W        W24365   5.882  30.476   0.399
52837W        W24366  33.628  10.263   1.834
52838W        W24367  30.027  19.989  13.865
52839W        W24368  22.541  44.706   1.602
52840W        W24369  24.597  35.073   1.339
52841W        W24370  16.033  39.936   2.654
52842W        W24371  32.782  11.078  14.270
52843W        W24372  37.409   4.073  12.377
52844W        W24373  33.854  21.304   3.576
52845W        W24374   8.322   4.931  14.934
52846W        W24375  31.613   5.256   4.973
52847W        W24376   3.420   4.851  13.060
52848W        W24377   8.807  26.262   0.058
52849W        W24378  18.156  35.164  14.554
52850W        W24379  12.639  14.748   3.729
52851W        W24380  17.115  18.569   2.377
52852W        W24381  21.417  14.733  13.422
52853W        W24382   7.659  22.122   0.967
52854W        W24383  15.627   3.775  12.869
52855W        W24384  23.167  20.049   4.335
52856W        W24385  26.720  12.327   1.654
52857W        W24386  18.554   4.217  13.356
52858W        W24387  20.105  17.659   0.354
52859W        W24388  13.679  17.682  13.750
52860W        W24389  43.306  30.695  12.985
52861W        W24390  33.059  14.719  12.989
52862W        W24391  30.556   9.062   0.043
52863W        W24392   3.849  18.197  10.648
52864W        W24393  12.363  17.779  13.981
52865W        W24394  35.800  14.002  12.005
52866W        W24395  31.111  21.054  14.910
52867W        W24396   6.417  29.542   4.163
52868W        W24397  42.070  15.843  14.336
52869W        W24398  43.108  25.114   4.353
52870W        W24399   9.815  20.307   4.014
52871W        W24400  17.627  14.592   2.499
52872W        W24401  33.478  12.341   1.334
52873W        W24402  19.519  32.825   4.239
52874W        W24403  43.169   8.894  13.167
52875W        W24404  20.651   8.544  14.764
52876W        W24405  15.076  10.069  11.248
52877W        W24406   6.986  42.274  14.054
52878W        W24407  12.359   7.549   4.679
52879W        W24408   5.303  25.158   1.772
52880W        W24409   1.238  15.593   2.259
52881W        W24410  41.231  33.133   2.575
52882W        W24411  22.110   0.160  11.716
52883W        W24412  36.625  44.970  14.072
52884W        W24413  22.659  44.960  13.606
52885W        W24414   2.444  11.021   2.224
52886W        W24415   3.396  13.403  14.936
52887W        W24416  22.746  44.398  12.934
52888W        W24417  26.842  38.833  14.274
52889W        W24418  21.358  12.774   1.972
52890W        W24419  24.762  18.766   2.956
52891W        W24420  15.614  37.419   0.335
52892W        W24421  25.770  23.033  10.396
52893W        W24422   2.735  36.910   2.167
52894W        W24423  35.848  28.191   3.438
52895W        W24424  15.733  12.794  12.401
52896W        W24425   6.349  20.490   9.488
52897W        W24426  20.675   1.637  12.957
52898W        W24427  41.508  19.556   3.194
52899W        W24428  14.083   0.924  11.579
52900W        W24429  34.849   9.245   2.274
52901W        W24430  19.275  26.782   0.272
52902W        W24431  16.954  13.152   3.318
52903W        W24432  31.574   1.873   4.234
52904W        W24433  44.327  24.270   0.295
52905W        W24434  32.913  28.887  10.660
52906W        W24435  24.388  16.983  12.862
52907W        W24436  24.974   1.804  12.974
52908W        W24437   4.377  28.149  12.096
52909W        W24438  34.526   7.482   3.346
52910W        W24439   1.783   8.300   1.379
52911W        W24440   5.664  10.679   2.851
52912W        W24441  34.874  35.463   2.341
52913W        W24442  25.877  19.304   0.855
52914W        W24443  11.650  10.939  12.226
52915W        W24444  19.053  17.338   3.917
52916W        W24445  38.405  17.213   2.763
52917W        W24446  42.584   4.854   0.046
52918W        W24447  12.835   3.692  14.550
52919W        W24448  12.579  19.120   1.674
52920W        W24449   3.941  33.851   1.281
52921W        W24450  13.099  38.589  13.419
52922W        W24451  39.690  13.638   1.316
52923W        W24452  42.539  31.572   3.610
52924W        W24453  20.488  19.166   4.856
52925W        W24454  21.970  37.085  12.475
52926W        W24455  41.384  39.534   3.782
52927W        W24456  30.383  32.666  12.602
52928W        W24457  24.064  37.248   0.786
52929W        W24458  36.985   2.066   4.049
52930W        W24459  42.595  34.896   0.818
52931W        W24460  27.970  37.958  11.079
52932W        W24461  17.016  18.628   3.295
52933W        W24462  44.108   6.025  11.457
52934W        W24463  44.101   9.317  14.890
52935W        W24464  20.065  37.770  13.136
52936W        W24465  32.200  12.685   3.259
52937W        W24466  33.739  29.175   3.191
52938W        W24467   8.678  22.082  13.166
52939W        W24468  24.913   2.211  12.517
52940W        W24469   8.201  32.561   3.670
52941W        W24470  19.317   7.581  14.780
52942W        W24471  37.981  25.001   4.197
52943W        W24472  22.721   5.338  14.719
52944W        W24473  28.950  24.253   4.593
52945W        W24474  29.487  21.597  13.573
52946W        W24475   7.008   3.754  12.924
52947W        W24476  19.296  12.338  12.919
52948W        W24477  26.159  12.326   2.803
52949W        W24478  19.614  40.536  11.620
52950W        W24479   3.344  44.035   4.653
52951W        W24480   1.502  10.643   3.248
52952W        W24481  37.758   4.240  11.992
52953W        W24482  25.694   9.640   0.842
52954W        W24483  13.294  39.293   3.362
52955W        W24484  40.219  43.971  14.569
52956W        W24485  12.437  34.059  13.451
52957W        W24486   4.332  27.717   0.717
52958W        W24487  29.573  20.714   4.061
52959W        W24488  17.225   0.331  14.862
52960W        W24489  36.019  12.524  12.956
52961W        W24490  29.503  35.533  13.872
52962W        W24491   5.480  42.381  13.976
52963W        W24492  26.012  32.591   1.391
52964W        W24493  17.523  18.246   2.284
52965W        W24494   4.739  31.421  14.338
52966W        W24495  11.598  42.432  14.955
52967W        W24496  41.804  12.523   3.049
52968W        W24497  40.583  22.555  14.307
52969W        W24498  12.203  31.509   4.365
52970W        W24499  27.592   7.881  10.992
52971W        W24500  12.758  38.528  12.980
52972W        W24501  31.051  43.157  14.904
52973W        W24502   4.650   9.168  12.594
52974W        W24503   9.331  25.407   2.658
52975W        W24504  15.392  43.899   4.953
52976W        W24505  38.387  26.180   3.717
52977W        W24506  44.796   1.332  11.443
52978W        W24507   4.227   2.263   2.422
52979W        W24508  10.179  23.102   3.775
52980W        W24509   8.189  29.454  12.520
52981W        W24510  31.482   1.916   4.754
52982W        W24511  41.633  12.125   3.331
52983W        W24512  21.278  40.576  14.009
52984W        W24513  37.825  26.554  10.204
52985W        W24514  38.933  12.928  12.164
52986W        W24515  11.651  28.430   0.719
52987W        W24516  30.189   8.409   4.776
52988W        W24517  35.033  30.461   2.344
52989W        W24518  39.490   1.392   2.995
52990W        W24519  34.644   3.901   3.317
52991W        W24520   8.573   3.504   5.260
52992W        W24521   5.189   1.378   0.051
52993W        W24522  15.752   2.885   4.535
52994W        W24523  18.098  15.707  14.313
52995W        W24524  29.986  19.310  12.508
52996W        W24525  23.008   4.427  11.558
52997W        W24526   9.781   8.016   4.224
52998W        W24527  42.939  24.140   2.609
52999W        W24528   5.307  31.209  14.033
53000W        W24529  27.262   2.414  14.871
53001W        W24530   3.305   8.339  14.796
53002W        W24531  27.704  44.003  14.292
53003W        W24532  28.438  28.413  13.814
53004W        W24533  20.663  29.947   1.173
53005W        W24534  35.975   7.247  13.479
53006W        W24535  23.938  36.471   0.036
53007W        W24536  29.069  17.739   0.476
53008W        W24537  22.271  22.989   0.882
53009W        W24538  17.762  17.377   2.297
53010W        W24539  41.256  14.157   3.709
53011W        W24540  40.351  16.123  14.845
53012W        W24541  13.656  32.544  12.930
53013W        W24542  35.123  33.150  12.378
53014W        W24543  12.193  43.821  13.892
53015W        W24544  35.981  34.363  12.845
53016W        W24545   9.624   3.585   0.865
53017W        W24546  35.885   4.998   4.672
53018W        W24547  28.612  28.058   1.708
53019W        W24548  29.207  22.261   2.245
53020W        W24549  22.792  17.791   4.220
53021W        W24550  26.005   9.451  10.721
53022W        W24551  35.596   6.727   0.021
53023W        W24552   4.562  26.261  13.132
53024W        W24553   7.899  29.915  13.709
53025W        W24554  21.073  29.499   4.038
53026W        W24555  43.328  20.810  12.944
53027W        W24556  16.616  32.025  11.168
53028W        W24557  41.789  17.481  11.160
53029W        W24558   3.841  16.786  13.696
53030W        W24559  15.881  38.503   0.575
53031W        W24560  32.082   8.856   2.623
53032W        W24561  26.604  32.880  14.340
53033W        W24562  37.019  25.855  12.002
53034W        W24563  18.979  34.849   2.346
53035W        W24564  41.563   2.995   2.898
53036W        W24565  11.703  12.876   2.697
53037W        W24566  25.572  33.380   1.450
53038W        W24567  39.435  41.507   3.653
53039W        W24568  29.182  44.898  11.154
53040W        W24569  21.143   2.202  14.726
53041W        W24570  12.362  10.145   0.159
53042W        W24571  43.797  21.106  13.354
53043W        W24572  13.757  24.958  11.640
53044W        W24573  27.796  19.612   4.979
53045W        W24574  30.877  31.242  14.964
53046W        W24575  32.253   6.513  11.603
53047W        W24576  38.450  43.478  12.402
53048W        W24577  33.978  26.810  14.453
53049W        W24578   6.463   8.170   4.093
53050W        W24579   0.472  22.490  11.617
53051W        W24580  27.930  25.616   4.092
53052W        W24581  43.018  30.077   0.202
53053W        W24582  38.975  44.425  10.665
53054W        W24583   1.673  39.563  14.839
53055W        W24584  15.038  25.698  11.079
53056W        W24585  41.413  42.315   0.030
53057W        W24586  29.914   5.348   2.906
53058W        W24587   4.930  27.166   1.043
53059W        W24588   2.705  26.501   0.735
53060W        W24589  15.590  27.472  12.080
53061W        W24590  11.278  32.168  14.387
53062W        W24591  31.357   9.149   2.005
53063W        W24592  10.691  32.564  11.046
53064W        W24593  44.055   3.828   4.715
53065W        W24594  42.270   2.838   1.593
53066W        W24595  31.458  34.618   4.014
53067W        W24596  22.191   9.915  11.085
53068W        W24597  23.447  34.324  12.928
53069W        W24598   3.360   9.225   0.343
53070W        W24599  34.470  30.678   0.731
53071W        W24600   1.484  41.911  12.014
53072W        W24601  37.911   0.494  14.951
53073W        W24602  43.249  11.835   0.852
53074W        W24603  10.591  41.056  14.240
53075W        W24604  39.310  21.420   2.380
53076W        W24605   5.649  24.704  12.482
53077W        W24606  26.626  38.246  12.473
53078W        W24607  13.911  36.949  12.965
53079W        W24608  14.431  19.063   2.643
53080W        W24609   6.328  28.036  10.077
53081W        W24610  12.296  22.004   2.287
53082W        W24611  32.290  16.351  11.954
53083W        W24612  40.006  14.268  11.454
53084W        W24613  30.211  26.596   4.439
53085W        W24614  15.609  34.144   3.855
53086W        W24615  40.924  42.843   2.139
53087W        W24616  35.299  10.081   4.831
53088W        W24617   7.436  32.131  13.913
53089W        W24618  17.945  30.470  14.907
53090W        W24619   0.502  19.470   3.400
53091W        W24620  26.881  29.430  10.510
53092W        W24621  24.810  30.890  12.362
53093W        W24622  38.977  17.094   2.427
53094W        W24623   0.241  25.443  11.456
53095W        W24624  14.378  21.665  13.960
53096W        W24625  30.581   8.866   2.627
53097W        W24626  16.062   6.780   0.777
53098W        W24627   5.926  40.323   4.363
53099W        W24628  26.175   6.919  14.408
53100W        W24629  29.098   8.375   4.744
53101W        W24630  11.379  41.207  13.619
53102W        W24631   5.134  37.610   3.548
53103W        W24632  14.388  36.870   4.100
53104W        W24633  29.700  26.375  14.747
53105W        W24634  15.658  39.794  12.519
53106W        W24635  22.938   0.342   4.130
53107W        W24636  35.053   2.358  11.627
53108W        W24637   2.987   3.375  14.435
53109W        W24638  34.289   6.662   3.165
53110W        W24639   1.212  24.971   4.011
53111W        W24640  44.056  12.760   2.235
53112W        W24641  34.935  25.661  12.981
53113W        W24642  29.646  33.305   3.599
53114W        W24643  14.260  14.927   0.009
53115W        W24644  38.653  43.043  14.223
53116W        W24645  18.274  36.923  10.791
53117W        W24646   3.402  29.484  10.794
53118W        W24647   2.673   3.910   1.869
53119W        W24648   2.741  28.871  11.064
53120W        W24649   9.356  15.594   2.359
53121W        W24650  22.501   3.795   0.812
53122W        W24651  20.719  43.447  13.480
53123W        W24652  39.404  17.375  12.404
53124W        W24653  19.210  34.924  10.658
53125W        W24654  13.751  28.540   0.007
53126W        W24655  31.006  22.161  13.891
53127W        W24656  30.287   0.344  11.651
53128W        W24657  28.720  39.290   0.822
53129W        W24658  25.982  20.216  13.391
53130W        W24659  29.708   8.331   3.872
53131W        W24660   3.296  41.797  11.655
53132W        W24661  43.780  36.992   3.353
53133W        W24662   3.315  20.105   1.464
53134W        W24663  30.243  30.430   3.781
53135W        W24664  15.560  24.692  13.903
53136W        W24665  43.047  35.328  12.556
53137W        W24666  42.848  40.970   1.372
53138W        W24667  17.890  44.908   1.880
53139W        W24668  14.149  25.901  12.799
53140W        W24669  13.742  20.260   1.742
53141W        W24670  23.781  34.513  10.757
53142W        W24671   4.193  34.853  14.519
53143W        W24672   1.002  18.947   4.389
53144W        W24673  22.571  31.487  11.142
53145W        W24674  15.029  16.142  11.984
53146W        W24675  32.450  31.042  14.410
53147W        W24676  30.613  23.700   0.894
53148W        W24677   4.527  26.022   4.153
53149W        W24678  18.941   2.125  14.803
53150W        W24679  38.079   0.973   3.204
53151W        W24680   1.478   6.553  11.004
53152W        W24681  13.700  33.242   2.469
53153W        W24682  15.835  26.045  13.958
53154W        W24683   6.253  17.295  12.564
53155W        W24684  37.915  39.829   0.893
53156W        W24685  16.500  42.595   1.300
53157W        W24686  26.888  33.126  10.601
53158W        W24687  21.735  10.245   3.645
53159W        W24688  42.618  28.952  14.404
53160W        W24689   0.025  17.064  13.330
53161W        W24690  31.812   2.381  11.467
53162W        W24691  18.619  20.900   1.827
53163W        W24692  13.810  15.518  10.533
53164W        W24693  34.449  25.158   1.928
53165W        W24694   9.915  22.708  11.148
53166W        W24695   2.036  25.344   2.813
53167W        W24696  24.106   7.111   0.418
53168W        W24697  40.076  18.051  12.434
53169W        W24698   3.413   0.445  12.239
53170W        W24699  21.654  13.305  14.482
53171W        W24700  40.430  14.602   3.276
53172W        W24701  20.491  33.438   0.335
53173W        W24702  26.020  35.590  13.859
53174W        W24703  10.358  14.794   1.304
53175W        W24704  39.447  13.879  10.470
53176W        W24705  27.057  28.290  12.613
53177W        W24706   2.172  29.058  12.400
53178W        W24707  10.432   1.499  14.201
53179W        W24708  19.420  17.316  14.319
53180W        W24709  11.388  43.791   0.258
53181W        W24710  18.828   3.833   0.125
53182W        W24711  28.977  37.619   3.552
53183W        W24712  11.969  30.857   3.219
53184W        W24713  13.618  15.183  13.987
53185W        W24714  17.095  10.910   0.488
53186W        W24715  21.625  14.899  13.899
53187W        W24716  28.838   5.683   0.815
53188W        W24717  16.748  43.294   0.247
53189W        W24718  34.953  28.161   1.830
53190W        W24719  43.470  15.939  14.309
53191W        W24720   3.484   7.053   3.789
53192W        W24721   4.083  14.497  10.505
53193W        W24722   4.579  44.676   1.263
53194W        W24723  22.503   5.627  11.579
53195W        W24724  21.111   1.733   4.997
53196W        W24725  39.317  28.691   2.231
53197W        W24726  26.121  39.560  11.213
53198W        W24727  10.263  20.066   4.065
53199W        W24728   3.409  44.202   3.615
53200W        W24729   5.261  32.379  13.559
53201W        W24730  42.612  19.741  13.356
53202W        W24731  25.276  31.430  12.947
53203W        W24732   5.333  25.153   2.657
53204W        W24733  30.969  14.208  13.295
53205W        W24734  34.956  21.058  10.361
53206W        W24735  35.356  16.211  14.339
53207W        W24736  34.299  38.075  14.952
53208W        W24737  15.268  30.847  14.438
53209W        W24738  11.393   0.747   0.888
53210W        W24739  18.095  12.122  11.190
53211W        W24740  18.033  16.112   4.635
53212W        W24741   0.171  34.504  14.190
53213W        W24742  43.447  16.219   3.395
53214W        W24743   7.138   4.915   4.306
53215W        W24744  13.402  13.345  14.851
53216W        W24745  36.402  37.188   1.883
53217W        W24746  15.076  35.865  11.642
53218W        W24747  43.418  36.853   2.566
53219W        W24748  42.392  28.967   4.534
53220W        W24749  12.307  21.754  13.213
53221W        W24750  16.208  38.714  14.010
53222W        W24751  22.578  21.686  10.992
53223W        W24752  36.551  13.795  10.542
53224W        W24753  11.990   1.663  14.027
53225W        W24754  33.133   1.390   4.631
53226W        W24755   4.304  10.978   2.303
53227W        W24756  33.887   5.703  11.496
53228W        W24757   2.291  33.343  13.980
53229W        W24758  44.578   1.858   2.759
53230W        W24759   3.960  38.295  10.620
53231W        W24760  12.728  43.962  14.786
53232W        W24761  33.066  39.101   3.164
53233W        W24762   9.224   3.831  13.613
53234W        W24763   1.182  10.864  11.169
53235W        W24764   8.229   2.297  14.395
53236W        W24765   3.904  33.659   1.948
53237W        W24766  28.912   8.212   4.236
53238W        W24767  11.737  15.184  12.897
53239W        W24768  12.067   4.457   0.970
53240W        W24769   7.944  33.664  10.855
53241W        W24770  31.090  41.037   5.132
53242W        W24771  11.139  31.228   3.196
53243W        W24772  31.342   4.058   0.796
53244W        W24773  32.131   6.835  11.173
53245W        W24774  13.770   9.161   2.629
53246W        W24775  30.092  38.945   4.164
53247W        W24776   0.314  38.864   4.346
53248W        W24777  13.098  40.658  14.630
53249W        W24778  18.427  18.280  13.244
53250W        W24779  28.837  29.552  12.536
53251W        W24780  16.554  13.599   4.819
53252W        W24781  21.108  15.006  11.589
53253W        W24782  17.161   5.071  12.651
53254W        W24783   5.115  10.180  10.762
53255W        W24784   3.678  33.371   2.350
53256W        W24785   7.163  15.188  14.888
53257W        W24786  36.831  25.195  14.825
53258W        W24787  17.728  20.549   3.959
53259W        W24788  32.849  37.341  12.906
53260W        W24789  27.636  43.953  12.948
53261W        W24790  26.079  15.657   2.542
53262W        W24791  30.887   1.199   4.244
53263W        W24792   3.210  16.763   0.910
53264W        W24793  14.314  22.847  14.959
53265W        W24794  11.937   9.893   0.370
53266W        W24795  41.151  37.831  11.528
53267W        W24796   8.295  29.999   3.879
53268W        W24797  35.279  18.051  11.020
53269W        W24798  17.700  21.005  14.865
53270W        W24799  30.545  21.482   2.386
53271W        W24800  43.094  21.722  10.976
53272W        W24801  12.355  41.479  11.971
53273W        W24802  12.175  34.875  13.857
53274W        W24803   9.129  22.594  11.683
53275W        W24804  30.849  30.188  14.926
53276W        W24805  12.401  32.725   2.342
53277W        W24806  16.317  19.252   5.377
53278W        W24807   3.750   8.366   3.672
53279W        W24808  43.498  26.271   3.330
53280W        W24809  20.562  15.106   0.751
53281W        W24810  15.038  18.687  14.840
53282W        W24811  39.897  41.122   4.513
53283W        W24812  14.789  39.068  11.094
53284W        W24813   2.429  23.304   2.252
53285W        W24814  41.950   7.778  12.867
53286W        W24815  29.908  19.757   0.856
53287W        W24816   6.200  27.504   4.011
53288W        W24817   0.426  17.196   0.652
53289W        W24818  27.480  28.639  13.493
53290W        W24819  34.415  42.670  12.082
53291W        W24820   2.900  33.843  12.934
53292W        W24821  12.144  40.866  12.794
53293W        W24822  32.615  32.152   3.759
53294W        W24823  16.355  36.204   4.555
53295W        W24824  24.506  13.787  11.517
53296W        W24825  43.954   2.330  11.521
53297W        W24826  43.442  36.846   2.055
53298W        W24827  28.174  31.540   3.732
53299W        W24828  20.709   3.478  12.156
53300W        W24829  37.473  18.635  11.203
53301W        W24830  28.870  28.573   0.775
53302W        W24831   7.295  20.255   3.620
53303W        W24832   7.652  24.367   0.483
53304W        W24833  34.038  30.140  12.197
53305W        W24834   0.834  30.899  11.336
53306W        W24835  11.148  24.708   2.143
53307W        W24836   9.117   5.349  14.822
53308W        W24837   4.797  42.793   1.164
53309W        W24838  33.272  15.276  14.526
53310W        W24839  39.092   8.700  13.344
53311W        W24840   8.813  17.792   1.713
53312W        W24841  14.753  16.938   1.306
53313W        W24842   3.951   4.903   2.609
53314W        W24843  15.785   5.300  11.018
53315W        W24844  26.029  33.882   2.715
53316W        W24845  23.567  34.835  12.215
53317W        W24846  37.394  29.218   4.690
53318W        W24847  11.173   5.234   1.216
53319W        W24848  16.409  38.452  13.596
53320W        W24849   7.230  22.083   0.043
53321W        W24850   9.847   4.126  12.683
53322W        W24851  29.639  27.147   2.226
53323W        W24852  42.348  19.734   2.258
53324W        W24853  22.572  37.554  12.166
53325W        W24854  29.577  19.764   4.483
53326W        W24855  31.838  40.443   4.328
53327W        W24856  31.906  36.619  11.893
53328W        W24857  17.222   8.218  14.390
53329W        W24858  34.862   1.617  10.785
53330W        W24859   2.812  44.270  14.921
53331W        W24860   0.477  18.981  10.730
53332W        W24861  25.149  22.602   4.537
53333W        W24862  20.805   2.927  13.465
53334W        W24863  23.082  11.161   1.488
53335W        W24864  17.080  36.287  14.328
53336W        W24865  11.658   2.279  13.505
53337W        W24866   9.626  13.194  11.975
53338W        W24867  12.160   9.780  13.932
53339W        W24868  44.275   3.182   3.921
53340W        W24869  40.057   1.330  12.853
53341W        W24870   3.365   0.898  14.716
53342W        W24871   7.720  34.062   3.898
53343W        W24872  24.210  27.262  11.224
53344W        W24873  37.065   6.130  14.394
53345W        W24874  22.693  14.315   2.261
53346W        W24875  29.216  12.684   3.782
53347W        W24876  15.141  11.621   1.209
53348W        W24877  32.466  18.199   2.860
53349W        W24878  14.180  16.357  14.761
53350W        W24879  26.399  31.841   4.202
53351W        W24880  30.668   6.195   2.346
53352W        W24881  12.690  10.498  14.887
53353W        W24882  41.215  33.296  11.187
53354W        W24883  34.459  26.454  11.491
53355W        W24884   7.579   5.288  12.054
53356W        W24885  14.587  27.451   2.886
53357W        W24886   3.227   8.795   0.073
53358W        W24887  40.316   3.883  14.226
53359W        W24888  17.213  29.457  13.103
53360W        W24889  40.186  30.569   3.512
53361W        W24890  30.997  26.308  12.842
53362W        W24891   5.340  28.304  12.198
53363W        W24892  34.511  35.467  12.706
53364W        W24893  35.396  12.102   3.779
53365W        W24894  21.734  37.343  14.207
53366W        W24895  11.768  37.464  14.225
53367W        W24896   7.763   7.903   0.397
53368W        W24897  34.603  32.194  12.104
53369W        W24898  23.231  18.548  12.668
53370W        W24899  21.766  24.619   1.195
53371W        W24900   0.715  17.728  14.895
53372W        W24901  42.822  37.425   3.595
53373W        W24902  29.555   5.704  13.155
53374W        W24903   2.986  36.915  12.089
53375W        W24904   0.810  11.995   0.470
53376W        W24905  39.064  29.103   3.709
53377W        W24906  19.050  11.684  11.626
53378W        W24907  13.262  16.503   4.464
53379W        W24908   4.227   5.857   4.762
53380W        W24909  23.595  26.703   4.368
53381W        W24910  22.462  20.133  12.130
53382W        W24911  16.730   5.940  13.333
53383W        W24912  39.861  12.709  11.702
53384W        W24913  40.811  22.011   2.328
53385W        W24914  29.663  14.594  11.514
53386W        W24915  24.684  40.445   0.301
53387W        W24916  37.975  11.103  14.815
53388W        W24917  31.232  21.354   0.975
53389W        W24918  42.945  12.134   4.675
53390W        W24919  26.505  17.816  13.578
53391W        W24920  41.041   6.918  13.477
53392W        W24921  20.027  23.917   0.320
53393W        W24922  31.918   4.352  13.297
53394W        W24923  30.135  10.354   1.745
53395W        W24924  36.343  19.704  14.547
53396W        W24925  44.304   9.414  10.743
53397W        W24926  19.918  30.528   3.209
53398W        W24927  14.335  24.973  14.961
53399W        W24928   5.959  29.963   0.378
53400W        W24929   4.464  17.308   0.722
53401W        W24930   1.758  11.647  10.911
53402W        W24931  26.745  41.197   2.403
53403W        W24932  18.516  37.795  11.666
53404W        W24933  35.986   3.475  13.488
53405W        W24934  26.720   3.575   4.493
53406W        W24935  11.692  15.636   0.502
53407W        W24936   1.947   2.959  14.811
53408W        W24937   4.815  24.100  13.224
53409W        W24938  44.258   0.697   2.699
53410W        W24939  16.434  38.335   4.608
53411W        W24940  12.307  15.767   4.673
53412W        W24941   7.879   5.165   1.328
53413W        W24942   1.218   3.742  12.807
53414W        W24943  40.881  37.393  11.470
53415W        W24944   6.455  15.261  14.373
53416W        W24945  26.414  33.405  14.925
53417W        W24946   4.792  13.384  12.845
53418W        W24947  20.097  38.782  12.972
53419W        W24948   1.848  12.736   1.484
53420W        W24949  11.792  27.675   0.374
53421W        W24950   7.954   5.498  13.449
53422W        W24951  23.839  27.638   0.883
53423W        W24952  14.310  31.451   2.196
53424W        W24953  33.585  11.671   4.951
53425W        W24954  20.677  24.653  11.453
53426W        W24955   0.391  19.034   0.478
53427W        W24956  14.397  18.375  14.895
53428W        W24957  39.693   1.864  13.334
53429W        W24958  31.050   8.146  11.412
53430W        W24959   7.157  11.171   3.691
53431W        W24960  36.997  23.784   2.244
53432W        W24961   5.056  18.456   1.218
53433W        W24962  20.652  16.366   1.436
53434W        W24963  15.206  40.410   4.196
53435W        W24964   1.110  40.271   1.273
53436W        W24965   9.511   6.444  12.487
53437W        W24966  21.185   2.912   3.212
53438W        W24967  30.397  25.667  13.389
53439W        W24968  42.482  26.196   3.200
53440W        W24969   3.997  42.017  11.999
53441W        W24970   4.797  31.620  13.413
53442W        W24971  21.967   2.509   1.226
53443W        W24972  20.355   1.942  14.318
53444W        W24973  19.748  19.024   0.366
53445W        W24974  27.693  28.047   4.796
53446W        W24975   1.360  40.564   3.326
53447W        W24976  12.306  17.957   1.441
53448W        W24977  20.030  27.964  14.458
53449W        W24978   6.916  10.883   0.724
53450W        W24979  39.536  35.064   2.700
53451W        W24980   9.199   9.065   1.199
53452W        W24981   3.331   0.200   1.342
53453W        W24982  26.186  30.605  11.697
53454W        W24983  30.860  30.489  11.490
53455W        W24984  25.030  15.456  11.163
53456W        W24985  29.940  16.684   3.856
53457W        W24986   6.990  33.739  12.672
53458W        W24987   4.787  12.301   0.045
53459W        W24988  44.761   9.777  12.943
53460W        W24989  35.534  43.761  11.096
53461W        W24990  21.138  23.004   1.391
53462W        W24991  19.505  11.885  11.495
53463W        W24992  18.177   7.822  13.492
53464W        W24993  40.729  31.905   1.894
53465W        W24994  40.017   4.843   2.196
53466W        W24995  27.581  16.591   2.643
53467W        W24996  23.597  42.155  10.676
53468W        W24997   7.891   8.389   4.074
53469W        W24998  18.345   4.771  14.352
53470W        W24999  36.113  44.313  13.839
53471W        W25000  16.052  25.044   4.541
53472W        W25001   3.742  19.185   4.423
53473W        W25002  36.016  22.789  12.185
53474W        W25003  32.454  20.181  13.923
53475W        W25004  40.006   6.161   3.125
53476W        W25005   8.722  38.608  13.960
53477W        W25006   8.339  30.985   2.788
53478W        W25007  38.271  24.692  11.659
53479W        W25008  26.021   1.121  14.914
53480W        W25009  16.807  12.599   0.834
53481W        W25010   5.285  23.618  13.939
53482W        W25011   2.687  30.440  11.661
53483W        W25012  42.083  34.705   2.155
53484W        W25013  41.547  36.570   3.192
53485W        W25014  36.422   1.457   1.355
53486W        W25015  38.836  35.503   0.973
53487W        W25016  32.884  39.977  11.544
53488W        W25017  12.568  23.309  14.754
53489W        W25018   2.854  39.873   2.236
53490W        W25019  36.866  31.915  10.666
53491W        W25020  40.556  15.465   4.391
53492W        W25021  15.984  18.814  13.921
53493W        W25022  25.237   7.728   3.668
53494W        W25023  10.917  21.582  11.889
53495W        W25024  15.149  32.992   0.214
53496W        W25025   7.508  16.206  12.638
53497W        W25026  25.112   6.693   3.711
53498W        W25027   2.315  22.189  12.377
53499W        W25028  17.632  43.346   0.480
53500W        W25029  40.351  19.659  11.100
53501W        W25030   8.710   2.920   4.380
53502W        W25031   8.805   2.673  12.941
53503W        W25032   5.990  14.220   3.267
53504W        W25033  11.627   6.862   0.242
53505W        W25034  23.659  28.101  11.263
53506W        W25035  27.170  17.477  12.011
53507W        W25036  18.806  38.861  13.954
53508W        W25037  20.441  18.120  12.649
53509W        W25038  16.597  13.378   4.333
53510W        W25039  22.428  43.310   4.593
53511W        W25040   2.987  32.204   4.191
53512W        W25041  17.176  24.283  14.960
53513W        W25042  33.617  11.375  14.737
53514W        W25043  32.984   3.156   4.198
53515W        W25044  33.554  24.395   5.229
53516W        W25045   7.904  23.398  14.561
53517W        W25046   3.432  42.889  14.591
53518W        W25047  43.714  18.407   0.056
53519W        W25048   9.593  37.349  13.705
53520W        W25049  44.010   0.249  14.839
53521W        W25050  40.400  34.969  12.014
53522W        W25051  43.399  18.636   1.375
53523W        W25052  28.167  31.205   4.154
53524W        W25053  39.478  16.682   4.368
53525W        W25054  28.052  44.131   0.834
53526W        W25055  21.484  25.958  13.847
53527W        W25056   1.298   5.688  14.042
53528W        W25057  31.438   0.529   2.260
53529W        W25058  43.462  36.782  13.409
53530W        W25059  33.602  25.681  12.625
53531W        W25060  31.498   4.898  12.127
53532W        W25061  41.333  26.586   2.431
53533W        W25062   9.353  17.245  12.048
53534W        W25063  36.282  19.200  12.512
53535W        W25064  42.882   6.826  11.123
53536W        W25065  34.846   5.216  14.751
53537W        W25066  24.739  28.352  11.540
53538W        W25067  37.063  39.593   3.742
53539W        W25068  21.074  21.331   3.088
53540W        W25069  14.799   7.362   0.521
53541W        W25070  44.253   5.684   1.968
53542W        W25071   2.417  34.944   5.452
53543W        W25072  21.648   0.481  12.531
53544W        W25073  16.023   4.647  10.410
53545W        W25074  15.370  29.865  12.634
53546W        W25075  16.442   3.817   3.623
53547W        W25076  28.988  11.944   1.563
53548W        W25077  22.762  15.701  14.943
53549W        W25078  15.644   0.563  13.940
53550W        W25079  36.830   9.210  14.272
53551W        W25080   7.495  44.315   3.691
53552W        W25081  13.782  29.048   1.392
53553W        W25082   7.337   6.794   0.843
53554W        W25083  24.683  33.143   2.241
53555W        W25084  35.052  11.841   2.157
53556W        W25085  35.865  13.411   2.253
53557W        W25086  19.119  20.555   3.309
53558W        W25087  30.889   5.469   0.032
53559W        W25088  28.445  22.687   1.631
53560W        W25089  24.512  38.854  13.835
53561W        W25090  15.582  38.808  13.416
53562W        W25091  13.106  44.492   0.870
53563W        W25092   7.562  11.665  12.085
53564W        W25093  24.230   3.315   4.111
53565W        W25094  19.113  40.249  13.657
53566W        W25095  39.822  16.412   1.383
53567W        W25096   2.265  42.554  14.706
53568W        W25097   1.539  10.125  14.369
53569W        W25098  34.381  21.148   2.681
53570W        W25099  15.308  13.843   0.598
53571W        W25100   4.895   7.465   2.633
53572W        W25101  11.852   5.808  10.284
53573W        W25102  42.027   4.762  10.809
53574W        W25103  35.114  39.889   3.667
53575W        W25104   7.601  14.770   0.512
53576W        W25105  26.136  39.561   3.731
53577W        W25106  10.239  27.132   4.212
53578W        W25107  19.731  41.291   0.797
53579W        W25108  23.809  39.783  12.465
53580W        W25109  19.845  41.008  11.582
53581W        W25110  29.562   2.995   0.809
53582W        W25111  19.529  30.457  10.292
53583W        W25112  17.666  11.264   3.724
53584W        W25113  44.890  16.006  12.383
53585W        W25114  22.694   7.452  13.979
53586W        W25115  38.059  44.201  10.680
53587W        W25116  13.994   7.599  11.439
53588W        W25117  17.579  41.317  14.400
53589W        W25118  12.083  39.253   4.588
53590W        W25119  27.271  44.746   2.651
53591W        W25120  29.208  36.905   0.745
53592W        W25121  35.051  16.251  11.217
53593W        W25122  38.324  30.549  14.082
53594W        W25123   1.113  43.237   3.781
53595W        W25124   6.762  43.882  14.752
53596W        W25125  25.011  44.511   2.049
53597W        W25126  29.656  19.427   1.153
53598W        W25127  36.450  24.243  12.784
53599W        W25128   7.736  36.438  10.404
53600W        W25129  22.524  14.124  14.784
53601W        W25130  14.647   7.129   2.786
53602W        W25131   2.431  28.062  11.553
53603W        W25132  14.341  11.585  12.921
53604W        W25133  34.371   4.299  14.708
53605W        W25134  14.351  14.261  11.534
53606W        W25135   2.427  26.655  14.031
53607W        W25136  44.682  41.366  12.082
53608W        W25137  34.403  41.340  10.885
53609W        W25138  18.526  26.167   4.656
53610W        W25139  10.190   5.768   3.949
53611W        W25140  38.991  31.514  10.784
53612W        W25141  16.813   2.371  11.201
53613W        W25142  30.274   2.150   4.044
53614W        W25143  44.482   2.084   4.879
53615W        W25144  39.013   5.787  14.271
53616W        W25145  30.018  20.422   1.440
53617W        W25146  44.803  30.654   1.829
53618W        W25147  19.223   1.990   2.247
53619W        W25148  29.930  34.383  12.585
53620W        W25149  19.009  22.460  12.969
53621W        W25150  12.787  23.727   2.286
53622W        W25151   7.370   4.955  12.835
53623W        W25152  40.496  13.968   0.175
53624W        W25153   9.160  26.112   1.404
53625W        W25154  28.980  16.683   0.286
53626W        W25155   1.389   1.476   3.755
53627W        W25156  36.096  28.242  13.514
53628W        W25157   7.400   8.803  14.032
53629W        W25158  10.590  26.214   0.175
53630W        W25159  17.900  42.740  11.893
53631W        W25160  30.311  44.185   1.304
53632W        W25161  21.070  26.367  11.695
53633W        W25162  15.199  17.631   2.106
53634W        W25163   8.863  44.248   1.569
53635W        W25164  25.600  38.651   0.649
53636W        W25165  33.051   7.927   2.741
53637W        W25166  10.357  44.221   2.101
53638W        W25167  15.193  32.624   3.151
53639W        W25168  41.761   7.887   3.376
53640W        W25169   2.437   3.464   1.785
53641W        W25170  13.000   1.232   4.543
53642W        W25171   6.331   6.886   4.964
53643W        W25172  37.036   8.649  13.978
53644W        W25173   2.180  20.156   3.212
53645W        W25174  19.136  23.451   1.910
53646W        W25175   5.839  25.235  13.822
53647W        W25176   9.700  37.122   4.380
53648W        W25177  28.010  27.876   3.073
53649W        W25178  13.668  19.772   1.857
53650W        W25179  28.672   8.912  13.443
53651W        W25180  24.021  31.393  12.449
53652W        W25181  31.528  19.501  13.523
53653W        W25182   6.823  24.765  13.466
53654W        W25183  33.001  16.848   2.871
53655W        W25184  32.555  19.788   1.141
53656W        W25185  11.272   7.758   3.203
53657W        W25186  10.342  14.693  11.960
53658W        W25187  31.928  26.973  12.163
53659W        W25188   8.323  44.696   2.154
53660W        W25189   4.474  10.692  14.107
53661W        W25190  24.994  35.953   1.856
53662W        W25191   8.180  14.610   2.174
53663W        W25192  40.394  31.824   0.750
53664W        W25193  14.505  25.667   4.178
53665W        W25194  17.719  42.465   2.912
53666W        W25195  32.417   5.892   1.361
53667W        W25196  23.232  30.153   1.264
53668W        W25197   7.904  42.019  12.690
53669W        W25198  15.777  42.543   0.891
53670W        W25199  25.486  20.042   0.857
53671W        W25200  27.854  10.408   3.229
53672W        W25201   8.666  16.185  14.330
53673W        W25202   8.878   4.349   4.307
53674W        W25203  43.468  43.430   0.899
53675W        W25204  11.527  32.177  14.872
53676W        W25205  39.729   5.229  14.343
53677W        W25206  24.502  30.607   1.234
53678W        W25207  13.373  29.353   1.289
53679W        W25208  34.936  20.700  10.733
53680W        W25209  14.677   2.240  13.398
53681W        W25210  19.693   7.250   3.757
53682W        W25211  26.336  21.939  13.022
53683W        W25212  16.641  38.497   2.452
53684W        W25213  26.794  18.690  14.885
53685W        W25214  28.700  43.102  13.668
53686W        W25215   0.818  30.166  10.666
53687W        W25216   5.746  12.860   0.600
53688W        W25217   2.266  18.726  12.485
53689W        W25218  17.679   2.701  12.383
53690W        W25219  24.121  39.362   2.940
53691W        W25220  34.579  37.443  12.048
53692W        W25221  16.242  41.882   0.276
53693W        W25222  23.286  41.315  13.894
53694W        W25223  26.691  12.645   0.510
53695W        W25224   9.419  26.457   2.688
53696W        W25225  11.825  11.232  10.551
53697W        W25226  16.348  18.360  13.045
53698W        W25227  35.330   2.796  10.921
53699W        W25228  14.052  18.761   0.047
53700W        W25229   7.865  23.615   1.905
53701W        W25230  29.707  30.028  10.764
53702W        W25231   8.746  28.562   0.401
53703W        W25232  42.049  32.489   1.109
53704W        W25233  27.211  32.697   0.901
53705W        W25234  34.153  19.614  11.144
53706W        W25235  28.406   7.502   0.775
53707W        W25236  28.510   0.562   2.282
53708W        W25237  13.017  34.486  11.126
53709W        W25238  34.999   7.812   2.861
53710W        W25239  37.932   8.603   2.270
53711W        W25240  33.586   7.899  13.655
53712W        W25241  28.141  40.483   1.265
53713W        W25242  19.578  23.608  13.514
53714W        W25243  19.514   1.861  13.597
53715W        W25244  27.691   1.040   2.115
53716W        W25245   4.996  35.393   4.667
53717W        W25246  15.717  22.311   1.844
53718W        W25247  17.381  41.812  14.421
53719W        W25248  35.602  16.668   4.152
53720W        W25249  30.211  32.906  11.259
53721W        W25250  21.275  25.427   2.719
53722W        W25251  13.515  19.899   0.751
53723W        W25252  27.900   8.514   1.814
53724W        W25253  35.434  44.737   1.434
53725W        W25254  42.010  15.640  13.433
53726W        W25255  22.694  25.349  11.016
53727W        W25256  16.575  44.843   3.103
53728W        W25257  14.821  14.876  14.359
53729W        W25258  11.240  42.565  13.941
53730W        W25259   9.411  22.584   1.230
53731W        W25260   3.363  40.414   3.252
53732W        W25261  36.343  12.314   2.734
53733W        W25262  22.017   4.403   1.354
53734W        W25263  29.162   6.175  14.874
53735W        W25264  25.045  29.032   1.140
53736W        W25265  26.667  12.896   4.611
53737W        W25266  31.088  38.578   0.157
53738W        W25267   5.278   4.545   3.783
53739W        W25268  19.237  27.942   4.618
53740W        W25269  34.408   6.202  12.978
53741W        W25270   4.809  36.537   0.415
53742W        W25271  13.388   2.320   0.434
53743W        W25272  23.542  13.095   0.658
53744W        W25273  33.930  26.406   4.629
53745W        W25274  34.462  10.374   3.813
53746W        W25275  43.739  43.917  14.711
53747W        W25276  20.616  13.278  11.458
53748W        W25277  33.940  29.703  13.380
53749W        W25278   5.283  11.352  11.161
53750W        W25279   3.872  15.678   2.728
53751W        W25280   5.828  37.016   4.258
53752W        W25281  13.336   1.274   2.738
53753W        W25282  33.965  18.940   2.897
53754W        W25283  40.861  20.214  12.028
53755W        W25284  38.979  25.343  13.458
53756W        W25285  13.924  41.918   5.079
53757W        W25286  34.371   0.658   1.521
53758W        W25287   1.888  29.998   4.854
53759W        W25288  29.826  43.790  13.450
53760W        W25289  26.432  26.709  13.941
53761W        W25290  30.090  33.477  12.463
53762W        W25291  11.612   6.003   1.762
53763W        W25292  17.146  10.181   4.198
53764W        W25293  38.793  25.213   2.860
53765W        W25294   4.652  17.717   3.206
53766W        W25295  26.801  25.194   1.331
53767W        W25296  18.777  17.994  13.450
53768W        W25297  32.630   1.018   0.407
53769W        W25298  30.713  27.698  10.474
53770W        W25299  18.009   8.843  10.425
53771W        W25300  38.885   6.843   3.212
53772W        W25301  44.394  13.138   2.164
53773W        W25302  24.599  33.392  11.180
53774W        W25303  17.599  11.153  12.445
53775W        W25304  44.389  16.388  10.785
53776W        W25305  40.005  41.436   1.296
53777W        W25306  25.278  27.078   3.340
53778W        W25307  22.764  41.862  11.726
53779W        W25308  14.608  32.070   2.319
53780W        W25309   5.186   4.332  11.456
53781W        W25310  11.131  25.155   4.287
53782W        W25311   4.350  42.530   1.893
53783W        W25312  12.719   1.256  14.421
53784W        W25313   0.923  44.345   3.334
53785W        W25314  20.099   9.841   2.346
53786W        W25315  21.018  11.095  11.148
53787W        W25316   5.934  23.965   2.213
53788W        W25317  33.640  35.934  14.051
53789W        W25318  39.700   9.254  13.936
53790W        W25319  34.576  29.157   0.937
53791W        W25320  34.947  34.857   4.641
53792W        W25321  14.708  36.570   2.286
53793W        W25322  24.206  35.144  11.174
53794W        W25323  31.091  13.723   2.611
53795W        W25324  14.338   4.996   4.586
53796W        W25325  11.289  41.919   0.427
53797W        W25326  22.088  11.371   1.428
53798W        W25327   2.072  28.617   3.106
53799W        W25328  19.265  15.914   4.631
53800W        W25329   4.804  18.599   1.663
53801W        W25330  19.679  33.092   1.839
53802W        W25331   6.058  22.594   4.586
53803W        W25332  14.148  22.309  14.255
53804W        W25333  42.867   5.965   2.172
53805W        W25334  38.681  40.301  10.180
53806W        W25335  25.409  20.050   4.114
53807W        W25336  28.385  13.754  12.405
53808W        W25337  18.058  16.071   4.123
53809W        W25338   7.766  21.063  11.683
53810W        W25339  33.607  18.711  11.361
53811W        W25340  43.512  16.570  14.668
53812W        W25341   4.717  17.509  11.117
53813W        W25342  36.158   5.197  10.852
53814W        W25343  38.770  37.142  12.581
53815W        W25344  13.682   8.746   0.325
53816W        W25345   3.913  34.038   0.403
53817W        W25346   0.441  27.213  11.246
53818W        W25347  33.509  40.776  10.691
53819W        W25348  20.632  28.411   1.863
53820W        W25349  27.690  21.602  14.813
53821W        W25350  23.511  12.257   1.259
53822W        W25351  16.784  17.435  11.070
53823W        W25352  38.312  30.156  12.972
53824W        W25353  16.439  19.027  14.436
53825W        W25354   1.004  35.397   1.860
53826W        W25355   0.430  38.273  14.676
53827W        W25356  36.883  31.947   0.489
53828W        W25357   4.833  34.005   2.283
53829W        W25358  33.437  42.211   3.383
53830W        W25359   8.231  38.607   2.938
53831W        W25360   5.893  18.085   1.002
53832W        W25361   7.465   7.090  11.240
53833W        W25362  32.862  11.164  13.364
53834W        W25363  29.146  39.816   4.597
53835W        W25364   4.684   3.254   2.603
53836W        W25365  33.453  17.711   4.546
53837W        W25366  10.410  40.558   5.015
53838W        W25367  33.922   4.558  10.031
53839W        W25368  25.651  16.036  14.241
53840W        W25369  34.665   8.195   4.093
53841W        W25370  28.061  24.226   4.437
53842W        W25371  30.260   9.357  13.760
53843W        W25372  31.075  39.956  11.206
53844W        W25373   9.161  24.946  13.427
53845W        W25374  14.371  41.945   4.605
53846W        W25375  24.610  11.486  13.737
53847W        W25376  38.458  14.585   2.997
53848W        W25377  20.410  26.994   4.736
53849W        W25378  20.747   6.810   1.012
53850W        W25379  29.558  14.824   1.230
53851W        W25380  42.403  31.705   2.347
53852W        W25381  35.961  44.940   2.718
53853W        W25382  10.680  41.043  11.184
53854W        W25383   7.261  26.438  12.919
53855W        W25384  40.297  23.114  10.630
53856W        W25385  30.991  10.476  14.907
53857W        W25386  17.606  24.729   0.492
53858W        W25387   7.868  19.153   0.242
53859W        W25388  27.938  23.844  11.103
53860W        W25389  44.272  37.162   2.692
53861W        W25390  35.746   9.926   4.539
53862W        W25391  17.823  20.255  11.403
53863W        W25392  40.918  35.589  12.977
53864W        W25393  40.464   5.682  14.825
53865W        W25394  28.909   0.364  13.837
53866W        W25395  11.925  33.104  10.914
53867W        W25396  22.126   1.306  13.417
53868W        W25397   7.192  20.671  13.147
53869W        W25398  24.442   4.897   3.141
53870W        W25399  33.800  26.729  10.214
53871W        W25400  32.364  41.925  14.015
53872W        W25401  17.226  34.613  11.059
53873W        W25402   6.572  44.887   4.507
53874W        W25403  32.552  22.674  13.073
53875W        W25404  27.950  23.628  13.438
53876W        W25405   4.935  29.638  10.465
53877W        W25406  36.406  40.604  11.169
53878W        W25407  22.005   6.593  11.012
53879W        W25408   6.943  33.609  14.958
53880W        W25409  15.806  43.964   0.686
53881W        W25410  29.238  35.691   3.179
53882W        W25411  17.656  44.038  10.706
53883W        W25412   8.709   6.216  12.023
53884W        W25413   7.616  28.546   0.031
53885W        W25414   4.936   3.207  11.026
53886W        W25415  17.123  16.217  12.919
53887W        W25416  20.392  39.455   3.425
53888W        W25417  36.890  44.838  11.444
53889W        W25418  43.762  19.117  13.035
53890W        W25419  21.278   4.283  11.999
53891W        W25420   2.265  43.059  13.330
53892W        W25421  25.458  25.142   4.327
53893W        W25422   3.188  27.021  14.096
53894W        W25423  40.449  30.653  13.567
53895W        W25424   4.379  15.086  11.129
53896W        W25425  20.292  34.393  11.554
53897W        W25426  43.408  33.495  12.798
53898W        W25427   1.845  13.268   0.716
53899W        W25428  32.937  26.734   3.718
53900W        W25429  36.506  25.477  13.194
53901W        W25430  13.279  34.364   3.866
53902W        W25431  36.971  20.791  12.939
53903W        W25432  10.330   3.326  12.478
53904W        W25433  13.779  20.668  11.723
53905W        W25434  12.269   3.908  11.891
53906W        W25435  29.858   0.902  12.250
53907W        W25436  11.879  10.872  14.392
53908W        W25437  22.070  10.296   0.510
53909W        W25438   9.988   6.174   0.304
53910W        W25439  18.243  37.188   3.221
53911W        W25440  22.249  23.421  10.773
53912W        W25441   6.373   3.903   4.361
53913W        W25442  12.109  16.370  11.004
53914W        W25443  30.472  21.150   4.074
53915W        W25444  30.055  40.334  11.410
53916W        W25445  21.638   7.940   2.186
53917W        W25446  30.172  30.150   2.633
53918W        W25447  29.957  35.071   1.293
53919W        W25448  39.818  39.972  14.754
53920W        W25449   1.259  34.755   4.547
53921W        W25450  40.497  12.621  13.570
53922W        W25451  26.336  23.568  11.995
53923W        W25452  32.450  13.378  11.385
53924W        W25453  38.853   4.834   1.810
53925W        W25454  10.891  13.417   3.738
53926W        W25455   9.315  13.551   2.953
53927W        W25456  18.151  20.933  13.027
53928W        W25457  22.593  14.348  11.911
53929W        W25458  29.042   3.794   0.530
53930W        W25459  28.595  33.326   3.843
53931W        W25460  38.601   1.972  14.383
53932W        W25461  30.966  43.390  13.113
53933W        W25462  16.021  23.011  13.422
53934W        W25463  16.104  17.902  10.705
53935W        W25464  20.721  36.481   4.320
53936W        W25465  44.916  30.157  14.079
53937W        W25466  33.880  14.297   2.961
53938W        W25467  24.463   8.082   3.202
53939W        W25468   9.721  35.785  12.195
53940W        W25469   7.879  34.874   4.571
53941W        W25470   5.403  38.074  10.505
53942W        W25471  12.342  37.659   4.572
53943W        W25472  15.232  35.976   2.673
53944W        W25473  37.124  28.324  14.313
53945W        W25474  27.246  27.035   0.367
53946W        W25475  38.505  25.949   4.660
53947W        W25476  18.551  32.125   2.389
53948W        W25477  13.637  37.892   4.172
53949W        W25478  27.454  16.911   0.487
53950W        W25479  21.601  22.676   0.794
53951W        W25480   3.060  33.155  11.527
53952W        W25481  39.460  33.871  14.135
53953W        W25482  34.402  40.403  12.047
53954W        W25483  23.298  28.905   2.640
53955W        W25484  28.863  25.084  13.018
53956W        W25485  10.787  30.444   4.496
53957W        W25486   4.563  14.310  10.533
53958W        W25487  26.591   2.572  14.045
53959W        W25488  17.126  26.965   1.252
53960W        W25489  15.140  38.442  12.602
53961W        W25490  34.351  40.384   3.797
53962W        W25491  16.216   0.346   4.627
53963W        W25492  14.792  32.181   3.635
53964W        W25493  28.145  10.748   1.908
53965W        W25494  43.438  31.541   4.619
53966W        W25495   5.324   0.124   4.116
53967W        W25496  13.296   4.320  12.916
53968W        W25497  12.855  41.929  14.977
53969W        W25498  13.847  27.529   4.359
53970W        W25499  30.056   5.658   3.301
53971W        W25500  43.652  13.836  11.505
53972W        W25501   6.796  42.308   4.282
53973W        W25502  17.908  30.193   4.145
53974W        W25503  12.389  39.448  13.918
53975W        W25504  31.112  43.736   1.170
53976W        W25505   2.106  29.282   3.839
53977W        W25506   1.416  17.600   1.144
53978W        W25507  11.972  34.635  12.659
53979W        W25508  29.258  33.474  10.204
53980W        W25509  15.571  13.064  11.995
53981W        W25510  40.872  10.491  14.104
53982W        W25511  26.580  10.787   3.344
53983W        W25512  10.312   7.726  13.774
53984W        W25513  10.495   8.963   9.779
53985W        W25514  21.762  24.891  13.491
53986W        W25515   0.571   8.648   4.190
53987W        W25516  32.162  14.110  13.674
53988W        W25517  12.179   4.409   4.884
53989W        W25518  43.800  37.114  12.903
53990W        W25519  41.372  19.478   0.273
53991W        W25520  32.883   2.794  14.242
53992W        W25521  33.038   5.471   1.703
53993W        W25522  20.798  14.729   2.192
53994W        W25523  15.465  24.545  12.484
53995W        W25524   3.854  19.165  14.878
53996W        W25525  43.753  38.937   2.638
53997W        W25526   4.645  41.677  13.245
53998W        W25527   6.866  21.292   2.946
53999W        W25528   1.316   9.963  11.008
54000W        W25529  10.864  31.937  10.242
54001W        W25530  39.281  39.424   0.562
54002W        W25531  37.816  21.750  10.427
54003W        W25532  43.279  19.151   1.730
54004W        W25533   0.295  30.503   4.004
54005W        W25534  26.112  43.263   0.198
54006W        W25535   7.569   4.582  10.620
54007W        W25536   0.427  32.608   3.637
54008W        W25537  37.256  25.939   4.411
54009W        W25538  18.752  34.912   1.425
54010W        W25539  18.804  23.282  10.099
54011W        W25540  20.250  23.999   1.209
54012W        W25541  23.681  10.719   2.759
54013W        W25542  24.315  41.915  10.329
54014W        W25543  43.780  16.777   1.986
54015W        W25544  15.106  14.577  11.650
54016W        W25545  25.115   6.422  14.673
54017W        W25546  28.845   2.427  13.909
54018W        W25547   9.660  23.994   2.604
54019W        W25548   7.673  28.724  11.589
54020W        W25549  28.682  32.802   0.187
54021W        W25550  18.652  35.335  14.518
54022W        W25551   2.867  34.949   2.256
54023W        W25552   9.784  23.504   2.440
54024W        W25553  32.123  34.142   1.352
54025W        W25554  10.614  16.140   1.353
54026W        W25555  41.428  23.647   2.004
54027W        W25556  27.960   3.169  11.174
54028W        W25557  33.329  34.027   0.809
54029W        W25558  29.692  24.631   1.329
54030W        W25559  16.744  34.450   3.337
54031W        W25560   3.651   0.093   2.694
54032W        W25561  15.263  13.641   4.059
54033W        W25562   7.923  31.527  14.249
54034W        W25563  15.847  37.303   2.562
54035W        W25564  20.370   4.978   0.356
54036W        W25565  28.393  38.101   2.488
54037W        W25566  28.119  43.395   1.738
54038W        W25567  32.972  12.765  13.962
54039W        W25568   3.270   2.931   0.776
54040W        W25569   0.241   5.712  13.992
54041W        W25570  25.420  19.171  11.927
54042W        W25571   8.742  31.656  11.578
54043W        W25572  27.089   0.521  13.578
54044W        W25573  29.924  28.573  12.576
54045W        W25574  20.321  24.189  12.467
54046W        W25575  42.596  43.463  14.727
54047W        W25576  19.182  27.918  10.442
54048W        W25577  33.538   7.319  14.368
54049W        W25578   6.313   5.015   4.592
54050W        W25579  32.521  28.151   0.062
54051W        W25580  31.473  44.679  14.474
54052W        W25581  29.293  22.787   2.184
54053W        W25582  34.413  37.173   0.210
54054W        W25583  22.448  26.642  10.681
54055W        W25584  14.557  23.290  14.852
54056W        W25585  43.324  26.732  10.828
54057W        W25586  15.530  15.706   4.922
54058W        W25587   3.302  28.279   0.200
54059W        W25588   7.751  14.368   0.936
54060W        W25589  44.823  41.085  10.757
54061W        W25590  26.541  33.833  12.872
54062W        W25591   4.907   2.961  13.837
54063W        W25592  35.009  21.562  13.074
54064W        W25593  27.409  34.798  13.790
54065W        W25594  27.316  38.179  14.862
54066W        W25595  36.980  14.761   3.831
54067W        W25596  10.564  39.853  12.558
54068W        W25597   7.929  31.714  11.589
54069W        W25598  40.998   3.329  13.880
54070W        W25599   1.150  30.970  13.201
54071W        W25600  20.737   4.477  13.951
54072W        W25601  32.529  26.968  13.310
54073W        W25602  23.403   0.759  14.381
54074W        W25603  44.477  13.059  10.661
54075W        W25604  31.875  36.460   1.375
54076W        W25605  28.139  35.553   0.307
54077W        W25606  40.182  10.581  12.564
54078W        W25607  33.030   8.832   1.737
54079W        W25608  21.668   5.704   1.796
54080W        W25609   3.975  26.665  12.507
54081W        W25610   1.965  44.559   2.429
54082W        W25611  13.071  12.589  13.059
54083W        W25612  41.445  30.935   4.085
54084W        W25613  32.450  30.402   2.196
54085W        W25614  42.725   8.928  12.937
54086W        W25615  30.137  28.574   1.219
54087W        W25616  19.993  20.023  10.634
54088W        W25617  24.586  39.495  14.429
54089W        W25618   1.191  12.775  11.184
54090W        W25619  10.120   4.340  10.381
54091W        W25620  17.101  10.844  13.517
54092W        W25621  32.232  10.925  14.526
54093W        W25622  17.749   3.245   4.682
54094W        W25623  21.748  37.760   1.952
54095W        W25624  10.896  41.464  14.215
54096W        W25625  38.961  20.581  14.641
54097W        W25626  19.554   2.242  14.510
54098W        W25627  35.113  19.505   1.776
54099W        W25628  17.426  28.608  14.839
54100W        W25629   6.836   5.091   9.952
54101W        W25630  33.786  35.402  12.086
54102W        W25631  21.522  27.660   2.839
54103W        W25632   7.595  41.958   0.928
54104W        W25633  12.381  33.869   3.164
54105W        W25634  31.428  28.003  12.897
54106W        W25635   4.858  34.645  11.120
54107W        W25636  41.019   4.831  13.448
54108W        W25637  14.765  38.908   0.936
54109W        W25638   2.461   7.144  11.652
54110W        W25639  13.684  33.496  10.593
54111W        W25640   5.813  23.090   2.673
54112W        W25641  38.906  31.688   1.378
54113W        W25642  40.861   7.582   3.164
54114W        W25643  44.002  29.500   0.042
54115W        W25644  27.713  34.572  14.942
54116W        W25645   1.569  40.313   4.660
54117W        W25646   0.794  38.321  14.024
54118W        W25647  13.708  31.595   2.191
54119W        W25648  35.377  31.378  11.266
54120W        W25649  36.516   3.765   1.514
54121W        W25650   4.782  25.669  13.418
54122W        W25651  37.569  17.820   0.800
54123W        W25652  21.303  29.100   4.809
54124W        W25653   3.757  43.562  11.855
54125W        W25654  40.509   4.432  12.455
54126W        W25655   6.400  38.759   2.713
54127W        W25656  13.814  42.691   1.905
54128W        W25657  25.006  42.175  14.340
54129W        W25658  25.555  14.962   0.809
54130W        W25659  18.143  11.757  14.749
54131W        W25660  38.078  27.600   1.232
54132W        W25661  37.518  42.590  10.529
54133W        W25662   3.532   4.200  13.839
54134W        W25663   0.041  19.507   3.181
54135W        W25664  27.029  11.313   4.399
54136W        W25665  13.870  27.699  11.374
54137W        W25666  23.184   9.832   1.613
54138W        W25667  26.408   7.663  13.697
54139W        W25668  36.840   3.912   3.661
54140W        W25669  10.774  15.467  10.157
54141W        W25670  21.429  43.386   0.264
54142W        W25671  37.364  33.801  14.753
54143W        W25672  21.340  25.357   1.480
54144W        W25673   1.264  10.784  13.081
54145W        W25674   4.657  27.916   1.784
54146W        W25675  25.367  24.329  10.953
54147W        W25676  30.980  34.618  14.465
54148W        W25677  36.984  32.175  11.882
54149W        W25678  39.799   6.377  13.089
54150W        W25679  43.056  12.144  13.075
54151W        W25680  30.611   3.768   4.541
54152W        W25681  38.091  12.710   0.312
54153W        W25682   5.857  20.089   2.602
54154W        W25683  32.838  36.497   0.289
54155W        W25684  27.294  12.842  11.904
54156W        W25685  22.004   8.365  13.838
54157W        W25686   2.915   1.753   4.791
54158W        W25687   3.927  33.520  10.820
54159W        W25688  34.107  27.518  11.381
54160W        W25689  27.453  42.264   2.357
54161W        W25690  13.081   5.928   4.093
54162W        W25691  18.746  14.596  11.576
54163W        W25692   5.988  35.017  11.608
54164W        W25693  32.081  20.606  14.308
54165W        W25694  26.363   4.659   0.402
54166W        W25695  33.430   3.877  10.399
54167W        W25696  32.506  26.642  12.082
54168W        W25697  44.592  34.512   3.771
54169W        W25698   4.753  12.201  12.037
54170W        W25699  31.821  11.399  11.656
54171W        W25700  11.301  37.061   0.734
54172W        W25701  40.778  17.901   4.632
54173W        W25702  27.639  40.333   4.740
54174W        W25703  22.464  18.708   2.870
54175W        W25704  25.265  12.662   2.669
54176W        W25705  40.263  21.259  14.301
54177W        W25706  33.399  11.618  14.340
54178W        W25707  35.429  27.192  11.676
54179W        W25708  44.857  13.132  12.152
54180W        W25709  17.033   1.880   1.997
54181W        W25710  16.286  25.988  11.183
54182W        W25711  44.877  16.997  14.271
54183W        W25712  26.466  36.989   4.601
54184W        W25713  43.225   2.288  12.578
54185W        W25714   3.083  24.163  12.101
54186W        W25715  34.604   1.774   0.821
54187W        W25716  37.483  22.848  14.811
54188W        W25717  17.437  11.343  11.981
54189W        W25718  38.469  14.036   0.699
54190W        W25719  37.031  22.752  13.987
54191W        W25720  24.297  23.730   2.773
54192W        W25721  40.405  10.409   2.299
54193W        W25722  36.393  37.520   2.744
54194W        W25723  34.522  37.548   2.270
54195W        W25724  43.530  25.255   3.392
54196W        W25725  36.660   2.462  13.939
54197W        W25726  43.453  42.472   1.476
54198W        W25727  18.591  44.481   3.739
54199W        W25728  41.076  10.997   4.486
54200W        W25729  42.124  28.981  11.130
54201W        W25730  14.862  22.877   3.708
54202W        W25731  14.514  18.860  14.844
54203W        W25732  43.059  22.943   3.938
54204W        W25733  43.443   5.621  13.610
54205W        W25734  30.119  10.510  10.933
54206W        W25735   0.297  12.127   1.178
54207W        W25736  25.282  31.814  10.718
54208W        W25737  36.116  19.157  10.679
54209W        W25738   4.925  19.797   4.557
54210W        W25739  31.160  13.168   0.098
54211W        W25740  13.214  42.264   2.494
54212W        W25741  27.104  29.569   1.395
54213W        W25742  15.606   1.255   0.369
54214W        W25743  23.786  43.085   1.406
54215W        W25744  41.852  25.062  11.569
54216W        W25745  32.471  28.675   3.386
54217W        W25746  12.036  39.754  12.395
54218W        W25747  26.049  35.395   4.330
54219W        W25748  21.085  22.116   0.325
54220W        W25749  11.853  27.619  11.969
54221W        W25750  38.461   1.406   1.653
54222W        W25751   9.640  40.396  13.604
54223W        W25752  37.525  13.565  10.654
54224W        W25753  22.059  27.897  13.043
54225W        W25754   4.454   4.843   1.222
54226W        W25755   1.282  20.303  11.692
54227W        W25756  21.869  19.719   1.794
54228W        W25757  35.861  10.136   1.448
54229W        W25758  13.834  20.752   0.845
54230W        W25759   4.788  13.843   0.838
54231W        W25760   8.289  30.108  10.669
54232W        W25761  27.954  18.727   2.297
54233W        W25762  34.465   0.650  14.672
54234W        W25763  25.109  31.839  11.622
54235W        W25764   3.365  26.164  12.500
54236W        W25765  18.910   8.953   0.379
54237W        W25766  20.144  23.702   4.532
54238W        W25767  10.089  34.873   4.204
54239W        W25768   1.628   1.237  14.289
54240W        W25769  23.090   3.966  11.321
54241W        W25770  22.496  38.299   0.683
54242W        W25771  40.565   0.347   0.009
54243W        W25772  19.320   2.479  14.915
54244W        W25773  33.251  41.066  12.815
54245W        W25774  11.003  24.955   3.815
54246W        W25775  11.357  16.709   3.220
54247W        W25776  18.147  30.706   3.406
54248W        W25777  41.735  42.506  11.577
54249W        W25778  44.427  43.902   4.319
54250W        W25779  41.148  23.151   4.183
54251W        W25780   2.391  21.232   1.158
54252W        W25781   0.702  19.981   0.020
54253W        W25782  22.393  29.790  14.348
54254W        W25783  43.357  13.788  13.101
54255W        W25784   5.299  11.804   4.359
54256W        W25785  14.004  16.878  14.275
54257W        W25786  16.074   7.546   1.796
54258W        W25787  16.992   0.512  14.418
54259W        W25788   7.185  27.560  14.945
54260W        W25789  15.365   2.831  13.778
54261W        W25790  27.544   9.866   2.172
54262W        W25791  38.470  30.649   4.661
54263W        W25792   7.162  22.261  14.367
54264W        W25793   7.237  42.760   1.396
54265W        W25794  26.951  34.392   4.252
54266W        W25795   5.588  27.705   1.935
54267W        W25796   3.539  43.935  10.978
54268W        W25797  33.904  33.527   2.446
54269W        W25798  25.998   0.728  13.980
54270W        W25799  40.611  42.039   1.239
54271W        W25800  24.533  25.626  11.325
54272W        W25801  33.669  13.216  13.718
54273W        W25802  17.118  37.195   2.307
54274W        W25803  31.979  32.027  12.946
54275W        W25804  42.204  19.420  11.585
54276W        W25805  38.096   6.573  13.344
54277W        W25806  19.882  22.646  14.917
54278W        W25807  38.015   5.346   1.360
54279W        W25808  23.105  20.371   2.423
54280W        W25809  18.031  22.990   0.331
54281W        W25810  12.274  28.361  13.843
54282W        W25811   5.232   4.209  14.317
54283W        W25812   1.818  32.936   0.361
54284W        W25813  11.699  27.686  14.506
54285W        W25814  21.911  42.968   9.900
54286W        W25815  31.215  37.074   2.573
54287W        W25816  34.175  26.095  12.068
54288W        W25817  37.614  18.278   4.577
54289W        W25818  39.984   2.732   2.768
54290W        W25819  30.017  37.353   3.540
54291W        W25820  24.189  20.761  13.377
54292W        W25821   3.820  30.895   4.064
54293W        W25822  40.584  12.134   3.240
54294W        W25823  11.341  21.347   0.251
54295W        W25824  44.859   0.392   1.209
54296W        W25825  30.993  12.345   4.173
54297W        W25826  38.916   6.231  13.967
54298W        W25827  16.006   3.638  12.029
54299W        W25828  37.379  25.535  13.141
54300W        W25829  43.431  17.564  12.938
54301W        W25830  23.015  24.034   4.237
54302W        W25831   0.127  37.613  11.497
54303W        W25832  10.889  43.780  14.402
54304W        W25833  39.531   4.927   1.319
54305W        W25834  41.586  12.292  11.475
54306W        W25835  34.540   7.301  13.418
54307W        W25836  31.881  17.027  14.342
54308W        W25837  42.417  17.739   2.705
54309W        W25838  15.089  15.143   3.443
54310W        W25839  28.703  28.859  12.839
54311W        W25840  37.976   7.159   4.391
54312W        W25841  15.144  22.084   3.169
54313W        W25842  17.636   3.807  11.069
54314W        W25843   0.699  34.032  12.928
54315W        W25844   5.844  17.179   3.437
54316W        W25845  28.301  38.995   0.741
54317W        W25846  16.220  25.787   0.640
54318W        W25847  12.289  26.045   2.071
54319W        W25848  24.097  42.316   1.425
54320W        W25849  39.051  27.933  14.535
54321W        W25850   7.571   7.511   3.850
54322W        W25851   4.445  31.448  13.803
54323W        W25852  22.510   8.025   2.464
54324W        W25853   7.242   2.991   0.470
54325W        W25854  27.574  40.334  13.995
54326W        W25855  28.046  13.235   4.170
54327W        W25856   0.499  17.260  13.333
54328W        W25857  33.185  44.325  13.977
54329W        W25858  36.810  25.749   3.563
54330W        W25859  14.716  30.546   4.439
54331W        W25860  30.384  38.894   2.669
54332W        W25861  42.937  33.387  12.090
54333W        W25862  26.559  19.962   2.244
54334W        W25863  18.656  22.353   3.293
54335W        W25864  35.923  12.669  12.468
54336W        W25865  10.639  20.604  10.553
54337W        W25866   2.508  37.429  10.645
54338W        W25867   5.782  24.726  13.734
54339W        W25868  11.157  13.924  12.009
54340W        W25869   4.955  12.150  10.716
54341W        W25870  19.476  34.918   3.689
54342W        W25871  14.110  21.475  14.983
54343W        W25872  26.484  12.607   1.009
54344W        W25873  12.598  35.190  13.919
54345W        W25874  18.785  34.926   0.724
54346W        W25875   1.728  26.752  10.923
54347W        W25876   6.258  38.948  11.318
54348W        W25877  21.158  23.549   0.852
54349W        W25878  28.040   3.495   3.123
54350W        W25879  12.101  32.388   2.600
54351W        W25880  24.458  36.468  12.227
54352W        W25881   0.590  27.921  13.578
54353W        W25882  20.039  23.400  13.774
54354W        W25883  13.189  14.062   0.411
54355W        W25884  18.063  27.524  11.628
54356W        W25885  11.537  17.355   4.020
54357W        W25886  29.657  43.845  12.523
54358W        W25887  32.602  43.491   2.948
54359W        W25888  43.317  35.468  12.018
54360W        W25889  27.705  20.667  12.430
54361W        W25890  10.662  33.218   2.122
54362W        W25891  41.463   8.885   2.291
54363W        W25892  23.214  19.945  14.815
54364W        W25893  42.453  40.004  14.352
54365W        W25894   2.693  14.605  14.944
54366W        W25895   7.776  35.869   2.567
54367W        W25896  13.037   9.831  14.427
54368W        W25897   5.236  35.093   0.925
54369W        W25898  13.265  17.325  13.961
54370W        W25899  41.047  16.994  12.888
54371W        W25900  25.314   2.794  14.575
54372W        W25901  36.650   6.778  14.929
54373W        W25902   1.397  28.681   3.510
54374W        W25903  37.399  27.733   1.716
54375W        W25904  23.880  15.314   4.338
54376W        W25905  36.054   2.304  11.504
54377W        W25906  20.124  12.251   2.896
54378W        W25907  13.675  24.970  13.164
54379W        W25908   4.312   6.959   3.162
54380W        W25909  12.105  40.359  13.488
54381W        W25910  20.202   4.412   4.973
54382W        W25911  38.331   0.988   1.399
54383W        W25912  36.596  20.831   0.221
54384W        W25913  37.652  23.981   4.232
54385W        W25914  21.532  35.893   4.351
54386W        W25915   4.366   5.688   2.339
54387W        W25916   6.654  36.205  13.147
54388W        W25917  10.254  25.079   2.498
54389W        W25918  26.721  15.708  13.936
54390W        W25919  32.020  23.531   4.634
54391W        W25920  16.145  32.176   0.715
54392W        W25921  41.903  19.186   0.915
54393W        W25922  43.489   7.663  10.706
54394W        W25923   5.188  34.549  11.511
54395W        W25924  34.791   6.171   1.382
54396W        W25925  34.777  17.578   2.759
54397W        W25926  41.741   0.798  12.707
54398W        W25927   8.229   9.700  14.326
54399W        W25928   0.230  16.561  11.559
54400W        W25929  30.709  15.500  14.806
54401W        W25930  40.509  42.013  14.437
54402W        W25931  16.017  27.459   2.253
54403W        W25932  29.550  29.995  14.337
54404W        W25933  42.956  10.823  10.685
54405W        W25934   9.770  13.224  11.127
54406W        W25935  22.981   4.678   3.337
54407W        W25936  23.444  23.247   4.420
54408W        W25937  23.422  13.753   3.246
54409W        W25938   6.644   2.033   1.305
54410W        W25939  31.658  37.404  13.706
54411W        W25940  39.952  31.889  13.359
54412W        W25941  38.409  20.710   4.264
54413W        W25942  22.183  29.686  11.075
54414W        W25943  33.543  10.212   0.439
54415W        W25944  25.860  31.644   1.630
54416W        W25945  22.502  29.494  12.500
54417W        W25946  15.088  22.337  13.839
54418W        W25947  11.208  33.527  12.844
54419W        W25948   8.843   8.617  11.144
54420W        W25949  32.190  14.302   1.766
54421W        W25950  23.996   2.347   4.145
54422W        W25951  19.033  25.720  11.164
54423W        W25952  31.035  27.215   2.194
54424W        W25953  30.897  29.546   2.956
54425W        W25954  29.130  27.175   4.730
54426W        W25955  14.823  33.156   2.022
54427W        W25956  16.616  11.337  12.594
54428W        W25957  15.794  23.064  10.979
54429W        W25958  12.865   6.782  14.090
54430W        W25959  18.921  14.209   2.230
54431W        W25960  44.021  39.467   2.884
54432W        W25961  27.699  34.603  11.179
54433W        W25962  31.506  33.353   3.294
54434W        W25963  12.582  37.970  14.005
54435W        W25964  24.412  28.333   3.230
54436W        W25965  23.960  21.085  11.999
54437W        W25966  26.537  42.329   4.093
54438W        W25967  10.809   6.603  13.845
54439W        W25968  43.008   2.159   1.479
54440W        W25969  15.490  40.600   3.181
54441W        W25970   7.180  28.048   4.980
54442W        W25971  37.916  30.722   4.137
54443W        W25972  24.734  29.463  14.821
54444W        W25973  35.590  18.578  12.555
54445W        W25974  10.585  31.832   0.983
54446W        W25975  38.021  15.755   0.917
54447W        W25976  38.994   0.665  13.038
54448W        W25977  42.163  32.158  11.033
54449W        W25978  13.342  38.016   1.385
54450W        W25979  24.669  24.990   3.628
54451W        W25980  15.863  37.931   4.044
54452W        W25981  38.404  20.623   0.448
54453W        W25982  38.527  17.517   3.561
54454W        W25983  43.620  42.259  12.444
54455W        W25984   2.978  29.594  14.027
54456W        W25985  34.490   9.434   3.194
54457W        W25986   6.782  30.039   1.969
54458W        W25987  26.936  25.672   1.523
54459W        W25988  21.620   4.740   3.732
54460W        W25989  22.155  16.186   0.742
54461W        W25990   8.300  36.512   3.170
54462W        W25991   4.923   7.230  14.837
54463W        W25992  28.993  10.227   4.695
54464W        W25993  39.542  15.424  14.485
54465W        W25994  29.394   8.810  12.606
54466W        W25995   8.041  21.928  11.184
54467W        W25996  28.154  20.931   1.817
54468W        W25997  44.391  38.548   1.584
54469W        W25998  18.469  42.522  11.097
54470W        W25999  10.175  38.901   0.024
54471W        W26000  22.580  37.528  14.051
54472W        W26001  12.237  14.194   1.258
54473W        W26002  23.516   9.372  14.937
54474W        W26003  33.962   4.811   1.401
54475W        W26004  17.442  20.107  13.017
54476W        W26005  15.563  43.062  10.175
54477W        W26006  35.136  36.114  10.043
54478W        W26007  14.752  33.418  12.504
54479W        W26008  40.413   6.682  14.673
54480W        W26009  17.726  38.764   0.160
54481W        W26010  30.549   0.778   0.658
54482W        W26011  41.782  36.193   2.327
54483W        W26012  36.232  19.749   4.628
54484W        W26013  33.598  42.644   5.001
54485W        W26014  34.845  30.437  13.933
54486W        W26015   1.827   4.934  13.854
54487W        W26016   8.194  23.957  11.193
54488W        W26017  15.068  30.375   1.767
54489W        W26018  29.920  38.868  11.142
54490W        W26019   2.687  15.747  12.494
54491W        W26020   9.408  43.684  13.937
54492W        W26021  35.564  18.575   4.358
54493W        W26022   3.202  43.444   4.664
54494W        W26023  38.945  43.624  14.297
54495W        W26024  30.558  25.513   3.573
54496W        W26025  35.072  29.277   4.185
54497W        W26026  28.165  34.833   0.798
54498W        W26027   4.725  14.837  12.050
54499W        W26028  22.686  14.822   2.226
54500W        W26029  37.095  29.876   0.406
54501W        W26030  27.127  27.365   4.565
54502W        W26031  11.285  20.588   4.755
54503W        W26032  32.289  41.264   4.578
54504W        W26033  13.566  32.629  11.996
54505W        W26034   8.312  13.106   0.687
54506W        W26035  26.810  33.414   0.305
54507W        W26036  32.979  18.582   1.190
54508W        W26037  29.060  36.271  14.168
54509W        W26038  19.558  25.191   1.949
54510W        W26039  41.061  27.016   2.532
54511W        W26040   6.686  30.292  10.640
54512W        W26041  10.237  37.621   4.308
54513W        W26042  22.975  17.847   0.878
54514W        W26043  16.314  39.919  10.657
54515W        W26044   3.007  14.717  13.765
54516W        W26045  29.530  34.500   2.836
54517W        W26046  41.494  18.068   1.310
54518W        W26047  36.882  40.378  11.145
54519W        W26048  40.586  37.965  10.591
54520W        W26049  13.707  26.554  13.441
54521W        W26050  20.238   0.241  12.117
54522W        W26051  11.685  29.263  13.323
54523W        W26052   4.889  30.138  13.502
54524W        W26053  39.951  43.024   0.072
54525W        W26054  19.329  41.514  13.007
54526W        W26055   2.235  40.875  12.394
54527W        W26056  34.960   4.399  14.449
54528W        W26057  29.226   9.384   3.728
54529W        W26058   4.896  28.844  11.093
54530W        W26059  44.399   0.653  14.796
54531W        W26060  17.674  35.216   2.176
54532W        W26061  22.881  35.763   0.462
54533W        W26062  41.079  40.412   4.626
54534W        W26063  41.705  21.411  13.813
54535W        W26064  36.916  12.471  12.489
54536W        W26065  26.711  24.735  11.189
54537W        W26066  36.488  34.023   3.670
54538W        W26067  27.837  21.561   9.833
54539W        W26068   1.185  25.515   2.258
54540W        W26069  44.582  35.013   0.912
54541W        W26070  40.550  15.839  12.538
54542W        W26071  37.004  30.463   4.412
54543W        W26072   6.239   9.337   1.181
54544W        W26073  35.653   7.691   1.738
54545W        W26074  37.925  29.521   0.911
54546W        W26075  43.879   3.565   1.811
54547W        W26076  24.820  26.411  11.659
54548W        W26077  11.149  13.859   3.234
54549W        W26078  43.893  28.447  11.377
54550W        W26079  14.060  11.250   1.562
54551W        W26080  11.105  31.390  13.400
54552W        W26081   2.925   6.674  10.685
54553W        W26082  43.633  16.894  14.273
54554W        W26083  32.581  36.803  10.761
54555W        W26084  18.099   5.245  14.433
54556W        W26085  24.745  27.675   2.703
54557W        W26086   1.047  34.410  13.823
54558W        W26087  27.908  32.002   3.775
54559W        W26088  12.196  22.126  11.662
54560W        W26089  16.815  25.584   3.908
54561W        W26090  38.561  42.023  12.447
54562W        W26091  29.136  18.127   2.329
54563W        W26092   2.535  20.910   9.909
54564W        W26093  31.365   2.439   0.866
54565W        W26094  22.183  17.214  11.048
54566W        W26095  42.967  23.648  14.694
54567W        W26096  30.410  16.878   2.289
54568W        W26097  38.403  43.490  12.949
54569W        W26098   7.744  15.248  11.218
54570W        W26099  30.707  16.560  12.963
54571W        W26100  33.102  35.037   4.383
54572W        W26101   5.827  24.550  11.954
54573W        W26102  31.716  41.830   0.899
54574W        W26103  43.303  25.179  11.594
54575W        W26104  40.002  30.104   1.711
54576W        W26105  26.488  34.954  13.484
54577W        W26106  18.555  16.069  11.039
54578W        W26107  16.565   0.457  12.085
54579W        W26108  37.360  39.796  13.854
54580W        W26109  27.012   0.871   0.176
54581W        W26110  21.363  32.157   2.296
54582W        W26111   2.211  35.225   1.286
54583W        W26112  13.573  10.909   3.210
54584W        W26113  34.550  24.704   1.028
54585W        W26114  23.796  18.567  14.435
54586W        W26115  17.231   1.955   1.523
54587W        W26116  42.484  17.693  13.795
54588W        W26117   5.386   2.170  11.957
54589W        W26118   9.491   4.750   3.164
54590W        W26119  40.943  21.283   3.172
54591W        W26120  24.969  43.914  12.983
54592W        W26121  31.939  25.936  11.280
54593W        W26122   8.372  20.685  10.619
54594W        W26123  28.301  18.691  12.864
54595W        W26124   3.152  17.662  12.347
54596W        W26125  11.922  10.129  11.553
54597W        W26126  15.237  28.002   4.760
54598W        W26127  16.719  15.229   4.474
54599W        W26128  33.669  35.031   3.721
54600W        W26129  43.399  11.906   1.923
54601W        W26130  28.917  27.740   1.993
54602W        W26131   7.030  30.969  13.320
54603W        W26132   3.455  31.672   2.655
54604W        W26133   8.159  31.174   3.248
54605W        W26134   2.309  28.242  14.802
54606W        W26135   7.325  20.796  12.656
54607W        W26136   6.878   7.426   1.340
54608W        W26137   1.512  36.203   5.382
54609W        W26138  38.932  10.294   3.690
54610W        W26139  26.846  18.711  11.191
54611W        W26140   9.626  42.892  11.492
54612W        W26141  30.008  20.254   2.748
54613W        W26142  17.339  30.010   1.398
54614W        W26143   1.821  21.283   2.751
54615W        W26144  43.821  43.210   4.526
54616W        W26145  32.557   7.657   0.731
54617W        W26146   6.860  38.529  11.634
54618W        W26147  11.681  26.608   2.169
54619W        W26148   5.468  41.838  12.949
54620W        W26149  43.946   1.306  10.699
54621W        W26150  36.077   5.026   3.311
54622W        W26151  31.985   7.165   4.571
54623W        W26152  44.859   8.373   3.842
54624W        W26153  22.557  20.570   0.898
54625W        W26154  15.294  23.670  14.086
54626W        W26155  28.627  13.779  10.302
54627W        W26156  24.239  43.399  11.180
54628W        W26157  39.064  27.100   0.029
54629W        W26158  27.608   8.459   0.388
54630W        W26159  29.315   8.710  10.231
54631W        W26160  13.782  40.401   0.920
54632W        W26161  22.213  40.490  13.970
54633W        W26162  23.193  34.455   1.714
54634W        W26163  22.272  11.255  14.863
54635W        W26164  12.748  21.381   4.330
54636W        W26165  44.917  44.957   3.952
54637W        W26166  11.350  23.041   4.581
54638W        W26167  24.289  16.308   4.027
54639W        W26168  12.099  38.961   3.901
54640W        W26169  21.680  11.249  10.636
54641W        W26170   0.943  36.075  14.683
54642W        W26171   0.769  35.766  13.809
54643W        W26172  11.913  44.322   3.652
54644W        W26173   9.059  26.508  14.001
54645W        W26174   3.293  43.973  13.055
54646W        W26175  26.520  12.639   5.019
54647W        W26176  32.817   7.555   2.383
54648W        W26177  24.339  41.229   4.941
54649W        W26178  35.921  32.834  13.081
54650W        W26179  32.798  19.937   2.776
54651W        W26180  35.078   9.288  10.956
54652W        W26181  31.742  10.321   3.438
54653W        W26182  31.356  38.753   4.637
54654W        W26183  14.076  12.349  11.530
54655W        W26184   5.350  41.949   1.194
54656W        W26185   8.696  25.511  11.566
54657W        W26186  15.899  30.708  14.769
54658W        W26187  31.758  42.151   1.646
54659W        W26188  20.301  34.082   1.530
54660W        W26189   8.220  30.026   1.415
54661W        W26190  25.412  42.789  13.536
54662W        W26191  36.417  29.606  12.770
54663W        W26192  40.360  44.919  11.604
54664W        W26193  24.544  43.550  13.990
54665W        W26194   0.428   9.121   0.468
54666W        W26195  23.890  21.930  13.985
54667W        W26196  14.594  13.750  11.771
54668W        W26197   6.044  15.211   3.699
54669W        W26198  34.438  43.995   4.676
54670W        W26199   6.197   3.215  11.764
54671W        W26200  38.189  23.940  10.415
54672W        W26201  14.184  41.485   3.253
54673W        W26202  33.704  16.531   1.728
54674W        W26203  11.966  16.519   2.161
54675W        W26204  18.638   5.885   0.715
54676W        W26205  16.717  17.949   0.814
54677W        W26206  44.413  37.069   1.374
54678W        W26207  13.113  15.244  13.837
54679W        W26208  32.600  39.795   2.951
54680W        W26209  25.010   0.725  13.587
54681W        W26210  33.238  12.669   3.408
54682W        W26211  34.844  12.673   3.645
54683W        W26212  36.146   9.193  12.535
54684W        W26213  35.486   1.179  11.486
54685W        W26214  37.559   0.418  10.389
54686W        W26215   3.833  12.841  12.932
54687W        W26216  21.440  24.439   1.554
54688W        W26217  27.665  24.378   0.916
54689W        W26218  23.744  18.821   3.984
54690W        W26219  28.178  24.245   2.173
54691W        W26220  11.321  10.310  10.380
54692W        W26221  13.540  34.016   2.768
54693W        W26222   0.362  18.346   1.338
54694W        W26223  43.572  39.445   1.294
54695W        W26224  27.197  18.681  12.590
54696W        W26225  34.021   0.680   4.145
54697W        W26226  33.035  25.637  12.469
54698W        W26227  26.086  25.396  14.751
54699W        W26228  19.971  34.444   4.496
54700W        W26229   7.876  23.259  11.870
54701W        W26230   2.929  12.958   4.543
54702W        W26231  36.615  10.813   1.370
54703W        W26232  42.675  28.921  11.048
54704W        W26233  26.960  31.365  10.982
54705W        W26234  40.806  16.795   4.606
54706W        W26235  16.468  27.542  11.680
54707W        W26236  35.469  38.306   4.646
54708W        W26237  20.629   7.279   0.756
54709W        W26238  25.697   0.804  10.612
54710W        W26239  43.817  27.530  11.877
54711W        W26240  31.024  37.545   2.739
54712W        W26241   1.491  26.890  13.058
54713W        W26242   7.413  28.808   2.136
54714W        W26243  36.903  19.687   2.450
54715W        W26244   0.891   3.908  14.304
54716W        W26245  40.178  34.829   4.492
54717W        W26246  13.401  13.028   3.179
54718W        W26247   2.514   6.816  13.017
54719W        W26248  39.297  27.611   0.752
54720W        W26249   1.533  19.213   0.357
54721W        W26250  36.869   1.341   0.490
54722W        W26251  28.478   8.689  12.368
54723W        W26252  39.127  37.520   4.526
54724W        W26253  40.125  21.105  11.379
54725W        W26254  15.438  31.749   1.490
54726W        W26255  37.020   7.724   3.655
54727W        W26256  39.930  35.971   0.308
54728W        W26257  41.244   3.243   4.207
54729W        W26258  26.025   2.823   4.678
54730W        W26259  19.927  25.839   4.525
54731W        W26260  31.057   7.382  11.045
54732W        W26261  16.066  32.193   4.821
54733W        W26262  36.910  23.500  11.501
54734W        W26263  19.114  12.039   1.239
54735W        W26264  35.440   7.289   0.901
54736W        W26265  42.299  34.090  12.961
54737W        W26266   3.962  28.663  10.722
54738W        W26267   9.822  35.631  14.852
54739W        W26268  27.266  16.144  10.693
54740W        W26269  25.920  11.672  10.330
54741W        W26270  20.837  38.094   1.436
54742W        W26271  25.751   5.961   3.110
54743W        W26272  18.873  27.104   0.376
54744W        W26273  23.173   6.648  10.776
54745W        W26274   0.876  25.739   0.477
54746W        W26275  42.527  29.622  13.601
54747W        W26276   6.698  27.051   4.962
54748W        W26277   1.842   4.572  10.549
54749W        W26278  11.255  26.149   1.951
54750W        W26279  29.789  31.321  14.000
54751W        W26280  34.068   4.006  14.382
54752W        W26281  22.415  13.351  14.115
54753W        W26282  16.880  30.146   1.607
54754W        W26283   0.221  15.543   2.747
54755W        W26284  38.842  29.008   4.166
54756W        W26285  36.803  24.967  13.914
54757W        W26286  14.569  19.273  11.984
54758W        W26287  36.071  34.374   4.429
54759W        W26288  40.478  43.907  11.680
54760W        W26289  27.734  17.833  12.479
54761W        W26290  19.724  33.844  14.462
54762W        W26291  16.608   3.334   1.366
54763W        W26292  42.344  21.770  10.619
54764W        W26293   9.656  34.799  11.928
54765W        W26294  30.493  39.052  11.976
54766W        W26295  42.728  33.118  14.271
54767W        W26296  32.601   7.889  10.734
54768W        W26297  36.041  13.744   3.220
54769W        W26298  17.652  39.546  11.040
54770W        W26299  25.256  44.289   1.202
54771W        W26300  20.448  15.187  13.467
54772W        W26301  22.151  39.231   1.156
54773W        W26302  39.504  29.658   0.766
54774W        W26303  22.587  28.055   3.548
54775W        W26304  44.310  14.726   2.166
54776W        W26305  15.860  10.753  14.516
54777W        W26306  37.310  13.825  12.430
54778W        W26307  40.319  44.906   4.375
54779W        W26308  25.636  35.075   4.369
54780W        W26309   6.212  42.914  14.112
54781W        W26310   0.138  14.694  13.091
54782W        W26311  19.715   1.362  11.149
54783W        W26312   4.781  42.021  10.789
54784W        W26313  10.194  10.657  13.583
54785W        W26314  18.214   7.820  12.519
54786W        W26315  37.980  35.594  13.769
54787W        W26316  42.271   0.370  11.969
54788W        W26317   1.355   4.654   3.879
54789W        W26318  41.119  12.232   3.228
54790W        W26319  27.303  42.916   4.010
54791W        W26320   6.915   2.842   1.716
54792W        W26321   0.603   0.918   1.222
54793W        W26322  44.001   8.443  11.180
54794W        W26323  44.232  32.977  10.597
54795W        W26324  36.913   4.358  11.539
54796W        W26325  41.316  39.568   4.303
54797W        W26326  37.884   1.261  10.800
54798W        W26327  39.455  21.694  13.804
54799W        W26328  11.177  33.164   2.087
54800W        W26329  41.468  42.942  12.429
54801W        W26330   6.861  34.116   3.698
54802W        W26331   8.586  37.820   2.647
54803W        W26332  44.917  22.516  14.069
54804W        W26333  44.226  35.357   1.035
54805W        W26334   0.793   4.184  13.080
54806W        W26335  16.740  28.528  11.593
54807W        W26336  21.735  22.676  14.649
54808W        W26337   1.057  19.180  12.184
54809W        W26338  11.302  20.137   4.072
54810W        W26339  22.134  11.556  13.194
54811W        W26340  21.176  29.095   1.402
54812W        W26341  29.245  35.338  14.279
54813W        W26342  43.341  25.680  11.833
54814W        W26343  32.439  24.201   0.488
54815W        W26344   3.313   2.590   5.100
54816W        W26345   0.749  43.138   5.182
54817W        W26346  41.824   5.824  13.852
54818W        W26347   7.728   0.254  11.452
54819W        W26348  37.474  44.178   2.745
54820W        W26349   8.811  34.877  11.791
54821W        W26350  10.454  24.500   0.010
54822W        W26351  17.297  33.915  13.296
54823W        W26352   4.429  20.740  11.562
54824W        W26353   3.232   7.087  13.473
54825W        W26354   1.570  43.419   3.626
54826W        W26355  10.824   5.769   2.309
54827W        W26356  11.836  42.770   3.292
54828W        W26357  40.655  11.827  14.941
54829W        W26358  44.651  23.539  13.949
54830W        W26359  15.885  34.422  14.727
54831W        W26360  21.359  40.356  14.977
54832W        W26361   6.383  31.739  12.496
54833W        W26362  42.869   6.966   2.476
54834W        W26363  23.233  20.559  11.946
54835W        W26364   1.834  32.110  14.239
54836W        W26365  24.478  12.059   2.833
54837W        W26366  15.991   6.298  11.058
54838W        W26367  35.332  18.284   3.622
54839W        W26368   5.611   2.355  10.721
54840W        W26369  40.215  24.759   1.964
54841W        W26370  25.594  19.991  14.792
54842W        W26371  19.042  30.292  12.877
54843W        W26372   9.557  26.404  14.017
54844W        W26373  35.667   1.139   1.749
54845W        W26374  26.593  18.093  14.816
54846W        W26375  34.936  34.327   2.546
54847W        W26376  36.142  31.942   1.789
54848W        W26377  26.719   3.810   1.931
54849W        W26378  26.096  22.053  14.487
54850W        W26379  36.656  12.124   4.553
54851W        W26380  28.524  12.563  12.991
54852W        W26381  16.320  25.645   3.809
54853W        W26382  25.165   3.938   0.656
54854W        W26383  29.864  23.637   2.400
54855W        W26384  30.182   7.782   1.447
54856W        W26385   9.443   6.689   2.219
54857W        W26386  17.095  13.560  13.553
54858W        W26387  27.674  25.029  12.386
54859W        W26388  10.902  14.737   1.244
54860W        W26389  20.401  19.979  12.349
54861W        W26390  12.182  36.466   1.611
54862W        W26391  23.347  13.223  13.742
54863W        W26392  43.805  16.480  11.385
54864W        W26393  17.912  36.629  11.873
54865W        W26394  16.258  41.959   1.344
54866W        W26395   9.271   6.234  13.307
54867W        W26396   3.939  17.516   0.834
54868W        W26397   9.841  22.813  12.050
54869W        W26398  25.730  27.768  11.119
54870W        W26399  42.169   8.785  11.229
54871W        W26400  20.597   1.017   0.857
54872W        W26401  41.739  19.800   2.485
54873W        W26402  25.109  27.185  12.067
54874W        W26403  16.581  33.534   3.740
54875W        W26404  24.128  23.070  11.504
54876W        W26405  17.468  37.644   3.789
54877W        W26406  43.772  28.568  13.265
54878W        W26407  34.764   0.340   1.683
54879W        W26408  27.513  42.339   4.380
54880W        W26409  22.906  31.011   3.036
54881W        W26410  38.361  18.056  12.592
54882W        W26411  28.026   5.215   5.233
54883W        W26412  30.023   3.767  13.345
54884W        W26413  11.610  10.751  10.411
54885W        W26414  32.012  27.838   3.861
54886W        W26415  32.866  16.727  11.126
54887W        W26416  33.911  17.362  13.091
54888W        W26417  13.887  23.992  13.056
54889W        W26418  41.268  18.502  14.479
54890W        W26419   4.554   4.061  14.024
54891W        W26420   8.876  17.791  11.038
54892W        W26421   1.803  31.172  14.781
54893W        W26422  36.360   3.944  12.539
54894W        W26423  12.237  25.560  13.728
54895W        W26424   8.575  11.673  13.862
54896W        W26425  43.459  30.480   0.029
54897W        W26426   2.846  43.850   0.235
54898W        W26427  43.248  27.971   0.201
54899W        W26428  34.880  17.743  14.544
54900W        W26429  21.867  26.914   3.166
54901W        W26430  37.543   9.911   3.676
54902W        W26431   9.414  38.925   0.510
54903W        W26432  34.576  21.634   4.789
54904W        W26433  18.265  41.498  12.955
54905W        W26434  20.610   8.572  11.029
54906W        W26435  11.282  10.161   1.398
54907W        W26436   5.256  10.190   3.565
54908W        W26437  22.553  41.309   4.229
54909W        W26438  14.607  36.585   1.461
54910W        W26439  36.591  36.562  13.463
54911W        W26440   2.868   5.244   0.812
54912W        W26441  37.650  25.635   4.203
54913W        W26442  21.987  42.606  10.681
54914W        W26443  25.476  17.941   2.173
54915W        W26444  31.244  16.200   1.802
54916W        W26445  29.627  25.417  14.817
54917W        W26446  24.748   8.597   0.801
54918W        W26447  30.021  14.744  12.569
54919W        W26448  38.853   9.898   4.946
54920W        W26449  40.401   1.787   2.887
54921W        W26450  16.511  34.889  14.638
54922W        W26451  17.694  26.474  12.379
54923W        W26452  19.163  42.221   2.686
54924W        W26453   7.239  11.341  12.327
54925W        W26454   2.889  26.414  13.981
54926W        W26455  29.985  18.683   2.211
54927W        W26456   6.398  11.424   2.235
54928W        W26457  24.551  20.213   1.191
54929W        W26458  16.145   5.765  13.587
54930W        W26459  33.149  27.439   0.810
54931W        W26460  34.422  26.482   2.153
54932W        W26461  16.785   3.200  11.841
54933W        W26462  40.182  10.508   4.660
54934W        W26463  20.565   2.372   2.005
54935W        W26464   6.127   5.871  11.058
54936W        W26465  36.777  23.042  14.456
54937W        W26466  36.138  32.519   1.255
54938W        W26467  24.208  15.128   0.906
54939W        W26468  27.110  12.841  10.621
54940W        W26469  14.989  31.000   3.102
54941W        W26470  17.142  24.522  14.257
54942W        W26471   5.561  32.660   0.256
54943W        W26472  27.418   6.311  12.586
54944W        W26473  11.348  19.821   3.673
54945W        W26474  21.489  21.630   4.162
54946W        W26475  17.978  38.107  11.218
54947W        W26476  30.960  41.266  12.806
54948W        W26477  43.923  32.557   2.655
54949W        W26478  20.036  21.979   0.301
54950W        W26479  18.769  42.737   2.364
54951W        W26480  24.129   7.941   4.347
54952W        W26481  41.875   3.148  14.673
54953W        W26482  43.207  26.599  13.728
54954W        W26483  29.899  10.111  11.170
54955W        W26484   2.286  24.191   0.797
54956W        W26485  24.029   6.730   2.662
54957W        W26486  43.548  34.108   0.760
54958W        W26487  16.371  24.092   2.357
54959W        W26488  13.669  11.583   0.497
54960W        W26489  37.210  11.980   2.738
54961W        W26490  27.931  32.095   1.292
54962W        W26491  18.957  39.116  10.699
54963W        W26492  34.918  17.199  11.642
54964W        W26493   5.430  36.327   0.680
54965W        W26494  20.389  31.766  13.433
54966W        W26495  30.218  13.261  13.984
54967W        W26496   8.795  37.568  12.055
54968W        W26497   1.822  36.167  11.182
54969W        W26498  16.295  43.780  13.867
54970W        W26499  34.347  23.486   0.082
54971W        W26500  23.591  35.422   2.879
54972W        W26501   9.899   2.329  10.720
54973W        W26502  20.329   3.988   2.929
54974W        W26503  22.556  36.487  10.835
54975W        W26504  11.571   5.511   1.952
54976W        W26505  10.625  19.532  14.500
54977W        W26506  30.634   0.210   2.788
54978W        W26507  10.954   0.516   3.381
54979W        W26508  20.793   1.180  13.986
54980W        W26509  34.603  10.032   4.175
54981W        W26510  28.567   8.902  14.397
54982W        W26511  16.611   2.710  14.728
54983W        W26512   6.425  22.988   4.595
54984W        W26513  38.035  12.875  14.321
54985W        W26514   3.109  39.828   4.409
54986W        W26515   2.811  39.699   3.608
54987W        W26516  34.420   1.580  11.662
54988W        W26517  41.114   7.127   3.190
54989W        W26518  33.830  30.712   1.916
54990W        W26519  43.759   5.354   0.356
54991W        W26520  29.718  22.678   3.856
54992W        W26521  29.640  44.941   2.909
54993W        W26522  36.417   1.104  13.520
54994W        W26523   5.998  17.897  14.790
54995W        W26524   7.768  16.626  13.020
54996W        W26525  22.092   9.137   0.874
54997W        W26526  34.877  22.019  14.048
54998W        W26527  43.347   5.358   4.680
54999W        W26528  31.915  11.331   0.462
55000W        W26529  21.353  43.789  13.421
55001W        W26530   8.671  16.535   0.308
55002W        W26531  38.378  20.526  13.380
55003W        W26532  27.955  17.572  10.746
55004W        W26533  36.263  33.881  12.007
55005W        W26534   6.811  36.994   0.487
55006W        W26535  32.419  43.287   3.956
55007W        W26536  17.715  14.227  11.549
55008W        W26537  32.253  35.662   0.471
55009W        W26538  13.885  21.133  11.945
55010W        W26539  24.586  23.955   3.299
55011W        W26540  10.373   2.064   3.830
55012W        W26541  25.406  39.437  13.808
55013W        W26542  44.786  41.906   3.148
55014W        W26543  43.325  31.583  13.488
55015W        W26544  27.592  30.724  10.099
55016W        W26545   6.501   8.250  12.169
55017W        W26546   1.462  17.799   2.589
55018W        W26547   7.138  30.518   1.249
55019W        W26548  43.262  37.932  12.150
55020W        W26549  10.792  21.492   1.410
55021W        W26550  29.522  35.677   5.327
55022W        W26551  14.686  32.602   0.693
55023W        W26552  42.077  14.364  12.901
55024W        W26553   8.928  20.138   0.010
55025W        W26554  21.116  33.834  14.127
55026W        W26555  28.909  23.923  12.506
55027W        W26556  32.527  30.936   3.404
55028W        W26557  26.779   6.059  11.085
55029W        W26558   2.008  18.823  12.057
55030W        W26559  30.723  22.519  11.676
55031W        W26560  13.250  35.931  14.348
55032W        W26561  34.537  34.395   0.125
55033W        W26562  30.017  16.239   3.602
55034W        W26563   9.058  38.001  11.917
55035W        W26564   3.903  22.436  14.379
55036W        W26565  26.695  38.419   4.860
55037W        W26566  26.212  36.467  13.817
55038W        W26567   2.767  38.754   2.356
55039W        W26568  29.363  27.850  10.143
55040W        W26569  25.161  39.205   0.006
55041W        W26570  25.073  37.074   2.916
55042W        W26571   8.763  19.240   2.542
55043W        W26572  28.631  20.800  12.190
55044W        W26573  24.997  31.450   2.720
55045W        W26574  43.317  12.213   4.323
55046W        W26575  33.374  32.995  13.375
55047W        W26576   9.480  10.414  14.017
55048W        W26577  35.163   6.868  11.950
55049W        W26578  24.520  42.127  10.775
55050W        W26579  26.082  31.572  12.542
55051W        W26580   2.403  31.291  10.604
55052W        W26581  23.554   5.731   4.601
55053W        W26582  36.792  23.974  14.452
55054W        W26583  13.126   7.409  13.006
55055W        W26584  19.692  16.365   1.266
55056W        W26585   6.234  40.962   0.588
55057W        W26586  38.555   6.323  10.716
55058W        W26587  30.703  29.817  12.670
55059W        W26588  16.304  20.162   2.242
55060W        W26589  23.620  11.622   0.081
55061W        W26590   4.791  36.398   3.224
55062W        W26591  33.261   5.607   2.335
55063W        W26592   0.062  16.213  11.183
55064W        W26593   9.159  13.602   0.767
55065W        W26594  28.938  10.852   2.272
55066W        W26595  30.005   9.959  11.655
55067W        W26596  16.231   2.854   2.060
55068W        W26597  38.731  11.755  14.408
55069W        W26598  34.412  29.930   1.286
55070W        W26599  32.160  28.907   4.706
55071W        W26600  21.964   4.129  14.441
55072W        W26601   0.190  40.928  11.344
55073W        W26602  33.310  22.456  11.380
55074W        W26603  24.100  43.335  10.655
55075W        W26604  19.100  34.653  12.975
55076W        W26605  22.758  32.056  10.363
55077W        W26606  15.796  16.169  12.550
55078W        W26607  44.689  27.408  14.845
55079W        W26608  42.908  21.410  12.011
55080W        W26609  28.050  15.250   2.247
55081W        W26610  22.210  41.547   0.995
55082W        W26611  44.034  33.090   2.387
55083W        W26612   6.758  36.548   1.230
55084W        W26613  42.778  39.596   0.846
55085W        W26614  34.069  16.585   3.386
55086W        W26615  16.717  30.212  13.079
55087W        W26616  35.907  10.397  14.064
55088W        W26617   9.224   7.110  14.297
55089W        W26618   1.053  14.180  11.623
55090W        W26619  35.962  43.473  11.042
55091W        W26620  42.570  44.958   4.643
55092W        W26621  26.203  41.508  14.097
55093W        W26622   6.912  14.199   0.007
55094W        W26623  21.061   8.836  11.105
55095W        W26624  25.358   3.729   2.239
55096W        W26625  26.447   1.431  14.332
55097W        W26626  26.160   6.889  11.010
55098W        W26627   3.505  26.001   2.364
55099W        W26628   3.303  12.730  14.858
55100W        W26629  15.762   7.674  14.268
55101W        W26630   2.472  30.523   3.727
55102W        W26631  44.307  22.732  11.692
55103W        W26632  39.084  35.014   3.702
55104W        W26633  42.453   6.442   2.928
55105W        W26634   1.948  23.705  10.747
55106W        W26635   3.205  38.536   1.714
55107W        W26636  28.628  33.115   1.180
55108W        W26637  33.326  15.689   3.617
55109W        W26638  43.714  31.665   2.763
55110W        W26639  16.575  23.044   4.165
55111W        W26640  37.962  37.814  14.417
55112W        W26641   3.367  42.022   0.828
55113W        W26642  27.095  20.846  10.594
55114W        W26643  33.649  26.617   4.100
55115W        W26644  13.171   1.732   1.027
55116W        W26645  18.014  20.938  14.053
55117W        W26646  42.245  36.072  10.500
55118W        W26647  18.566  14.544   2.760
55119W        W26648  19.822  44.454   4.894
55120W        W26649  21.241   2.944  14.409
55121W        W26650   4.865  44.610   4.774
55122W        W26651  41.696   9.992   1.768
55123W        W26652  12.665   2.596   0.931
55124W        W26653   1.737  40.587  13.933
55125W        W26654  38.018   3.301   2.980
55126W        W26655  31.118  41.551   1.308
55127W        W26656  43.490  17.238  11.431
55128W        W26657   3.417  12.866   1.675
55129W        W26658  33.406  33.095   4.599
55130W        W26659  29.604  19.495  10.732
55131W        W26660  11.459  24.724  13.036
55132W        W26661  37.879  15.563   3.798
55133W        W26662  17.809  41.693   4.160
55134W        W26663  24.209  21.714   3.247
55135W        W26664  41.904  21.811   1.797
55136W        W26665  14.359  41.723  11.195
55137W        W26666  27.236   5.975  11.987
55138W        W26667  10.801  33.352  12.536
55139W        W26668  29.438  36.190  11.588
55140W        W26669  39.478   1.994  12.872
55141W        W26670  28.145   4.362  13.244
55142W        W26671   3.493  41.498  14.001
55143W        W26672  10.261   5.817   0.537
55144W        W26673  32.297  25.833   4.051
55145W        W26674  35.596  40.004   0.795
55146W        W26675  23.690  34.628   0.288
55147W        W26676  23.052  39.553  14.403
55148W        W26677   7.415  35.379   1.462
55149W        W26678  31.089  32.968   2.395
55150W        W26679  18.187  37.929  13.010
55151W        W26680   3.694  25.603  14.068
55152W        W26681  16.662  36.878  11.597
55153W        W26682  39.517  11.145  11.484
55154W        W26683  31.361  15.160   3.093
55155W        W26684  40.883  33.061   1.320
55156W        W26685  39.108   5.714   2.869
55157W        W26686   3.261   4.922   0.761
55158W        W26687   9.886  32.576   3.681
55159W        W26688  10.642  20.197  13.566
55160W        W26689  28.050  41.512   2.703
55161W        W26690  29.732  29.504   1.611
55162W        W26691  15.566  29.475   1.444
55163W        W26692  38.134  24.600   1.308
55164W        W26693  26.612  28.661  14.968
55165W        W26694  17.745  21.626  11.985
55166W        W26695   6.595  41.003   0.981
55167W        W26696  42.409  17.875  13.329
55168W        W26697   9.929   4.176  13.436
55169W        W26698  36.103  16.215   4.924
55170W        W26699  36.495  20.395   4.305
55171W        W26700  40.376  23.718   2.354
55172W        W26701  22.143  17.807   1.889
55173W        W26702   5.994  39.472   4.668
55174W        W26703   5.128   3.917  11.163
55175W        W26704  35.304  28.794   4.217
55176W        W26705   5.329  21.986  11.733
55177W        W26706   7.734  13.176   4.475
55178W        W26707   9.290   5.926   3.586
55179W        W26708  11.658  14.519  11.510
55180W        W26709   2.917  30.417   0.196
55181W        W26710  12.857  15.360   0.420
55182W        W26711  12.225   8.548   2.830
55183W        W26712  40.347  14.924  14.000
55184W        W26713  15.299  13.837   2.674
55185W        W26714  42.891  33.544   1.988
55186W        W26715  23.452  27.280   0.913
55187W        W26716   6.918  21.160   0.095
55188W        W26717  18.611   2.941   0.485
55189W        W26718  19.793   9.270  14.973
55190W        W26719  25.985  15.491  12.901
55191W        W26720  15.308  35.849   3.166
55192W        W26721  25.235  16.797   1.898
55193W        W26722  16.589  17.661   3.114
55194W        W26723  39.325  32.443  10.835
55195W        W26724  18.897  30.727   4.093
55196W        W26725   3.904   4.309   2.696
55197W        W26726  42.738   5.402   1.338
55198W        W26727   4.309   3.345  11.022
55199W        W26728  35.529   6.371  11.239
55200W        W26729  36.824  35.325  12.741
55201W        W26730   8.534  30.624  14.468
55202W        W26731   4.717  20.138  14.366
55203W        W26732  37.371  44.399  13.305
55204W        W26733  25.526  39.813   3.091
55205W        W26734  20.230  11.815  11.946
55206W        W26735  42.824   1.453   4.751
55207W        W26736  42.545  30.219   0.388
55208W        W26737  16.027  12.813   0.256
55209W        W26738  34.581  35.152  11.784
55210W        W26739  38.059  18.054   3.331
55211W        W26740   1.678   6.723  14.852
55212W        W26741  31.355   0.440   1.731
55213W        W26742  27.996  37.134   3.163
55214W        W26743   0.241  42.223   4.030
55215W        W26744  19.395  23.608   2.345
55216W        W26745  22.983  20.118  12.028
55217W        W26746  23.370   5.707   3.589
55218W        W26747  14.686  16.892  12.251
55219W        W26748   4.757  12.974  13.736
55220W        W26749   0.969  20.694  13.438
55221W        W26750   1.215  36.418   0.410
55222W        W26751  21.165  44.801   3.667
55223W        W26752  30.689  39.882  13.923
55224W        W26753  43.620  29.447   0.389
55225W        W26754   4.636  24.896   2.890
55226W        W26755  16.080  10.304  11.014
55227W        W26756  40.056  11.033  14.332
55228W        W26757   8.601  18.691   4.147
55229W        W26758  36.194  17.491   0.927
55230W        W26759  29.410  34.685   5.024
55231W        W26760  34.346  26.965   1.941
55232W        W26761  28.065  17.810   4.371
55233W        W26762  37.445  44.360   0.182
55234W        W26763  24.957  40.524   1.882
55235W        W26764   7.904   9.622   3.681
55236W        W26765  16.742  15.978   1.033
55237W        W26766  25.632  44.324  12.600
55238W        W26767  29.033  32.208  12.904
55239W        W26768  18.098  35.984   2.715
55240W        W26769   1.842  38.873   3.762
55241W        W26770  27.352  15.366  10.048
55242W        W26771  17.474   6.138   0.830
55243W        W26772   7.341   2.924   4.666
55244W        W26773  33.165   9.704  13.323
55245W        W26774  44.680  31.141   3.645
55246W        W26775   5.235  14.567   0.724
55247W        W26776  31.451  37.939   4.965
55248W        W26777  44.471  10.276  13.852
55249W        W26778   9.706  35.052   3.906
55250W        W26779   9.592  39.144  10.287
55251W        W26780  16.859  13.811   0.409
55252W        W26781  22.809  12.727   0.209
55253W        W26782  40.905  15.514  12.824
55254W        W26783  37.120   4.483  12.559
55255W        W26784  22.545  23.861  13.372
55256W        W26785  37.282  31.186  13.989
55257W        W26786  28.673  32.695  14.365
55258W        W26787  16.699   2.665   3.187
55259W        W26788  39.385  22.502  10.621
55260W        W26789  27.980  17.217  11.155
55261W        W26790   8.633  37.967   0.189
55262W        W26791  20.133  42.554   4.490
55263W        W26792  12.748  34.351   3.754
55264W        W26793  33.656  34.100   2.208
55265W        W26794  16.543  30.685  14.865
55266W        W26795   7.385   7.533  13.414
55267W        W26796  18.529  15.645  14.594
55268W        W26797  20.121  21.794   1.565
55269W        W26798  33.409  42.568  11.029
55270W        W26799  41.011  22.702   4.496
55271W        W26800   8.626  24.800   0.394
55272W        W26801  29.602   9.577   4.210
55273W        W26802  16.625  16.651   2.191
55274W        W26803   0.850   3.273  10.509
55275W        W26804  21.397  10.278   0.953
55276W        W26805  40.151  36.929  12.806
55277W        W26806  22.556  32.823  11.599
55278W        W26807  30.795  21.563   1.902
55279W        W26808  11.449   5.924   3.239
55280W        W26809  41.229  25.267   1.390
55281W        W26810   4.638   8.708   0.063
55282W        W26811   0.731   3.654  12.983
55283W        W26812  39.637   2.527   3.696
55284W        W26813  35.394   1.014   4.209
55285W        W26814  31.584  34.061   1.216
55286W        W26815   5.262  26.633   4.545
55287W        W26816  29.677  18.518  10.805
55288W        W26817  25.718  21.623  10.710
55289W        W26818   8.899  24.543   0.010
55290W        W26819  42.665  27.856  13.906
55291W        W26820   8.979   1.429  10.282
55292W        W26821   1.020  15.856   9.942
55293W        W26822  28.449  15.763  14.592
55294W        W26823  33.949  28.461   4.429
55295W        W26824  25.956  37.486   4.105
55296W        W26825   2.468  12.676  11.996
55297W        W26826  22.687  19.309  13.270
55298W        W26827  40.354  13.589  12.812
55299W        W26828  44.188   3.155   2.106
55300W        W26829  18.089   2.293  13.308
55301W        W26830  36.052  44.433   2.848
55302W        W26831  19.238  25.024  14.029
55303W        W26832   4.260  22.456  13.981
55304W        W26833  43.898  40.865  12.129
55305W        W26834   2.148  18.656  14.803
55306W        W26835  27.374  43.753   4.266
55307W        W26836   0.007  44.539  11.123
55308W        W26837   0.951  24.917  14.029
55309W        W26838  37.888  39.450   1.254
55310W        W26839  31.518  32.067  13.365
55311W        W26840  39.271   7.389  14.450
55312W        W26841   6.693  18.129   3.441
55313W        W26842  22.190   8.342  11.406
55314W        W26843  15.533  22.689  12.053
55315W        W26844   7.441  24.739   2.203
55316W        W26845  36.418  36.368  11.329
55317W        W26846  32.764  14.805   0.969
55318W        W26847   9.080  11.638  10.293
55319W        W26848  38.522  16.827   4.158
55320W        W26849  21.148  39.632  13.857
55321W        W26850  26.461   7.905   2.398
55322W        W26851  38.843  27.224   1.472
55323W        W26852   7.900   9.855  12.496
55324W        W26853  25.629  24.491   3.679
55325W        W26854   1.763   3.953   3.202
55326W        W26855  13.464  18.990   4.039
55327W        W26856  42.069  10.023  10.729
55328W        W26857  12.776  28.420  13.077
55329W        W26858  44.343   2.336   4.432
55330W        W26859  17.792  34.236   2.714
55331W        W26860  27.761  34.548  11.678
55332W        W26861  35.296  33.486  10.931
55333W        W26862  40.307  43.465   4.106
55334W        W26863  13.751  25.675  13.975
55335W        W26864  19.079  29.224  13.725
55336W        W26865  27.616  32.580  13.101
55337W        W26866   8.450  21.451   0.476
55338W        W26867  19.263   6.280   1.278
55339W        W26868  23.453   0.749   1.095
55340W        W26869  28.588  22.044  12.799
55341W        W26870   6.409  15.853   4.580
55342W        W26871  19.430  16.573  11.077
55343W        W26872   2.497  31.140  13.054
55344W        W26873  20.666  24.648   3.501
55345W        W26874  33.912  31.175  11.058
55346W        W26875  27.293  25.218  10.549
55347W        W26876  37.347  36.176  10.858
55348W        W26877  27.228  22.491  14.840
55349W        W26878  28.042  23.690   3.753
55350W        W26879  21.261   9.865   1.765
55351W        W26880  15.664  21.198  11.976
55352W        W26881  27.726  39.417   2.754
55353W        W26882   3.469   8.248  13.777
55354W        W26883  20.608  12.769  10.609
55355W        W26884  38.783  31.023   0.814
55356W        W26885   0.760   9.700  13.073
55357W        W26886  13.009  38.226  13.854
55358W        W26887  24.006  35.059  12.976
55359W        W26888  24.437  15.203  12.313
55360W        W26889  15.101   4.727  10.442
55361W        W26890   8.824  21.060   0.309
55362W        W26891  25.271  22.184   2.340
55363W        W26892  38.553  30.938   1.962
55364W        W26893   9.863  14.857   2.407
55365W        W26894  13.736  37.317   0.464
55366W        W26895  20.685  11.596  12.011
55367W        W26896   0.869  37.374  13.868
55368W        W26897  17.823  41.977  10.758
55369W        W26898  14.874  30.416  13.819
55370W        W26899   5.379  25.957   2.284
55371W        W26900   9.838  43.731  10.895
55372W        W26901  30.601  10.210   2.647
55373W        W26902  35.157  27.343  13.034
55374W        W26903  39.821   2.049   3.673
55375W        W26904   2.749  15.521  11.604
55376W        W26905  22.062   4.142  13.543
55377W        W26906  40.579  22.692   0.269
55378W        W26907  27.607  32.386  14.959
55379W        W26908  26.130  23.821  14.942
55380W        W26909  31.125  35.484   3.684
55381W        W26910  40.002  31.635  10.721
55382W        W26911  21.725  18.040   0.436
55383W        W26912  33.072  39.780   2.229
55384W        W26913  22.793  41.302  13.070
55385W        W26914  13.141   3.349  13.387
55386W        W26915  34.017  25.179   2.235
55387W        W26916  19.305  37.758   2.720
55388W        W26917   2.708  17.468   4.101
55389W        W26918  29.349  23.478   3.722
55390W        W26919  34.869   4.754  10.068
55391W        W26920  24.521  21.606   0.904
55392W        W26921  28.301  27.967  12.520
55393W        W26922  10.350   4.120   1.780
55394W        W26923  14.590  20.325  10.711
55395W        W26924   9.135  13.812  11.650
55396W        W26925  43.353  11.557  14.535
55397W        W26926  34.598  37.609   1.406
55398W        W26927   1.855  26.692   1.585
55399W        W26928  28.215  25.241  11.578
55400W        W26929   2.147   5.196  13.540
55401W        W26930  30.860  35.993  13.924
55402W        W26931  16.710   6.521  13.389
55403W        W26932   0.290  43.738   4.101
55404W        W26933  33.717  39.058  11.961
55405W        W26934  29.475  14.698   2.131
55406W        W26935  44.904  35.895  14.390
55407W        W26936  39.423  31.720  14.333
55408W        W26937  17.022  26.408  14.573
55409W        W26938   9.896  11.959   2.725
55410W        W26939  22.311  40.859   1.349
55411W        W26940  32.987  14.709  10.590
55412W        W26941  21.053  25.374  13.374
55413W        W26942  18.653  32.966   4.578
55414W        W26943  34.839  23.855   3.231
55415W        W26944  36.763  44.813   1.329
55416W        W26945  41.610   7.444  11.198
55417W        W26946  18.814  13.927   0.002
55418W        W26947  38.318  43.352  11.046
55419W        W26948  16.749  18.804   3.696
55420W        W26949  37.946  17.325   0.247
55421W        W26950  16.739  10.267   3.362
55422W        W26951  16.135  15.843   0.418
55423W        W26952  24.825  28.007  13.337
55424W        W26953   9.098  32.660  11.518
55425W        W26954  24.643  14.336   4.630
55426W        W26955  41.398   5.884  12.542
55427W        W26956  42.394  22.214  13.357
55428W        W26957   4.281  19.105   3.778
55429W        W26958   3.898  40.061  11.070
55430W        W26959  39.965  26.513  11.510
55431W        W26960  38.404  39.341  13.929
55432W        W26961  44.120  44.452  10.129
55433W        W26962  22.138  32.731  11.016
55434W        W26963   2.009  18.778  13.425
55435W        W26964   5.656  14.597   3.233
55436W        W26965  39.334  29.176  12.631
55437W        W26966  36.176  37.581  14.373
55438W        W26967   2.207  33.554  14.461
55439W        W26968  23.081  22.967  10.513
55440W        W26969  37.826  38.102  13.946
55441W        W26970  43.173  11.651   4.636
55442W        W26971  31.373  18.994  11.081
55443W        W26972  40.751  37.382  11.999
55444W        W26973  10.454  14.317  11.555
55445W        W26974  27.230  35.256  14.379
55446W        W26975  33.135  23.764  11.904
55447W        W26976  35.813   2.808   2.849
55448W        W26977   9.056  31.141   5.094
55449W        W26978  14.640  19.189   2.174
55450W        W26979  38.387  30.904   4.214
55451W        W26980  22.186  40.175  13.554
55452W        W26981  33.963  37.497   2.920
55453W        W26982  40.791  29.448  12.172
55454W        W26983  33.881  25.449  13.580
55455W        W26984  25.935  15.663  14.509
55456W        W26985  33.598  31.022   4.888
55457W        W26986  35.503   4.815   1.287
55458W        W26987   8.856  43.321   3.641
55459W        W26988  25.287  12.953   3.614
55460W        W26989  15.105  26.995   2.370
55461W        W26990   3.627  34.819  11.038
55462W        W26991  33.597  32.004   1.483
55463W        W26992   0.795  41.471  12.737
55464W        W26993  27.698   9.313  12.459
55465W        W26994  44.352  29.850  10.790
55466W        W26995   8.431  37.608   5.097
55467W        W26996  23.085  19.043  13.775
55468W        W26997   9.389  25.541   4.650
55469W        W26998  31.345   7.730  11.762
55470W        W26999  10.325   0.661  14.345
55471W        W27000  12.747  33.346  14.861
55472W        W27001  13.138   5.651   4.561
55473W        W27002  39.462   8.494   3.620
55474W        W27003  15.094   7.308   1.198
55475W        W27004  31.914  40.906   0.336
55476W        W27005   5.878  35.541  10.938
55477W        W27006   2.208  38.517  13.861
55478W        W27007  31.995  44.271   0.278
55479W        W27008  32.599  23.761  12.631
55480W        W27009   6.165   2.395  11.355
55481W        W27010  23.514  14.675  14.808
55482W        W27011  37.847  24.451   4.212
55483W        W27012  32.892   0.928  11.058
55484W        W27013  22.564  40.034  11.246
55485W        W27014  38.877  17.020   2.909
55486W        W27015  16.783  27.037  14.849
55487W        W27016  26.628  24.747   4.381
55488W        W27017  25.608  36.147  12.772
55489W        W27018  27.039  17.037   0.233
55490W        W27019  36.397  24.948  10.684
55491W        W27020  44.863  24.615  10.719
55492W        W27021  36.869  44.542   0.488
55493W        W27022   8.091   5.473   2.526
55494W        W27023   6.326   3.007   0.474
55495W        W27024  25.494  30.595  13.603
55496W        W27025  28.181  32.871   0.923
55497W        W27026  37.452  26.896   4.182
55498W        W27027  31.411   9.346   2.761
55499W        W27028  19.282   0.764  13.403
55500W        W27029   3.492  15.060  11.023
55501W        W27030  34.083  23.951   3.682
55502W        W27031   9.747  19.236   1.538
55503W        W27032  37.222  39.807  12.394
55504W        W27033  33.541  15.063  14.109
55505W        W27034  41.822  36.861  12.916
55506W        W27035  34.294  34.042  13.952
55507W        W27036  10.333   9.900  10.515
55508W        W27037  39.360  33.605  13.224
55509W        W27038  27.970   9.620  11.425
55510W        W27039   3.452  17.141   1.686
55511W        W27040  28.290   4.237   2.682
55512W        W27041   0.339   2.419  11.767
55513W        W27042   8.236  43.809  11.615
55514W        W27043  29.423  32.628  14.820
55515W        W27044  14.291   8.129   4.393
55516W        W27045  33.285   1.016  13.541
55517W        W27046  17.336  40.225   2.220
55518W        W27047  37.585  16.089  11.246
55519W        W27048   1.370  16.033  14.400
55520W        W27049  29.110  17.972   2.815
55521W        W27050   4.345  18.558  11.499
55522W        W27051  24.614  32.343  13.053
55523W        W27052  10.090  41.349  13.559
55524W        W27053  37.473   6.801   4.997
55525W        W27054   4.243   5.888   0.312
55526W        W27055  11.330   0.711   2.190
55527W        W27056   7.911  17.157   0.275
55528W        W27057  43.182   9.282  12.382
55529W        W27058  12.768   7.248  11.920
55530W        W27059  25.885  41.981  12.945
55531W        W27060   0.789  36.381   2.020
55532W        W27061  35.035   0.954   3.776
55533W        W27062   0.761  26.624  11.951
55534W        W27063  28.463  32.029  13.578
55535W        W27064  43.071  11.270  12.793
55536W        W27065  33.353  23.235  10.584
55537W        W27066  27.041  21.712  12.071
55538W        W27067  43.460  25.682  12.350
55539W        W27068  21.754  23.223  11.925
55540W        W27069  29.543  34.103  11.700
55541W        W27070  25.073  25.555  12.912
55542W        W27071  31.100   4.399  10.449
55543W        W27072  23.900  37.916  14.289
55544W        W27073   8.917  39.800  11.582
55545W        W27074  35.507   2.318  10.727
55546W        W27075  24.808  10.360  11.532
55547W        W27076  15.004  43.575   0.261
55548W        W27077  40.262  43.349   2.280
55549W        W27078  29.345   6.377   0.321
55550W        W27079  13.519  39.531   0.731
55551W        W27080  33.390   5.298   4.523
55552W        W27081  25.092  11.847   2.441
55553W        W27082  22.329   8.307   2.854
55554W        W27083  32.554   1.500   2.450
55555W        W27084  33.719  18.459  12.350
55556W        W27085  29.972   2.801  11.112
55557W        W27086   2.997  35.617  11.074
55558W        W27087  23.421  43.625   2.838
55559W        W27088   5.957  38.460   1.858
55560W        W27089  34.023  35.311  12.537
55561W        W27090  42.941  25.018   2.489
55562W        W27091  12.437  37.120  14.759
55563W        W27092  15.115  23.756   0.441
55564W        W27093  24.600  34.583   2.780
55565W        W27094   4.361  24.550  11.247
55566W        W27095  18.203   9.145   4.274
55567W        W27096  34.085   2.380   1.737
55568W        W27097  16.244  27.022  13.461
55569W        W27098  18.672   4.358   3.716
55570W        W27099  11.809   7.255   2.626
55571W        W27100  12.090  35.387   4.339
55572W        W27101  36.049  29.248   4.116
55573W        W27102   0.778  44.412   0.303
55574W        W27103   6.153  31.115  11.612
55575W        W27104  38.180   6.128  14.460
55576W        W27105  43.349   3.359   1.861
55577W        W27106  43.497  43.918  14.254
55578W        W27107  31.817  14.193   3.406
55579W        W27108  20.236  10.190   0.253
55580W        W27109  43.408  25.601  10.680
55581W        W27110  21.368  16.344  14.263
55582W        W27111  27.157  24.402   3.018
55583W        W27112   0.976   9.222   0.801
55584W        W27113  21.647  28.640  11.494
55585W        W27114  42.893  16.163   2.205
55586W        W27115   6.830  29.105  10.868
55587W        W27116  29.576  31.879   1.005
55588W        W27117  28.385  13.275   0.994
55589W        W27118  32.157   0.765   0.395
55590W        W27119  12.706  25.996   2.871
55591W        W27120  42.941   2.223   5.031
55592W        W27121  30.595   9.271  11.838
55593W        W27122  37.430  11.265  14.725
55594W        W27123  34.947  35.932   3.115
55595W        W27124  15.883  43.253  14.484
55596W        W27125   6.054  20.147   4.123
55597W        W27126  32.601  30.123  13.419
55598W        W27127  26.555  22.719  14.124
55599W        W27128  26.219  38.365  14.948
55600W        W27129  10.889  35.383   4.443
55601W        W27130  40.054   1.867   3.262
55602W        W27131  21.247  30.225   1.976
55603W        W27132   6.758  11.639  13.569
55604W        W27133   3.322   3.135  11.887
55605W        W27134  17.860  38.481   2.984
55606W        W27135   8.422  41.847   2.748
55607W        W27136  40.579  27.386  14.803
55608W        W27137  29.465  41.280  11.150
55609W        W27138  36.976  44.469  14.967
55610W        W27139  29.709   6.793  14.499
55611W        W27140  39.392  16.979   0.909
55612W        W27141  35.267   4.080  11.139
55613W        W27142   8.822  17.864  14.805
55614W        W27143  42.726  22.105   0.315
55615W        W27144  11.318  16.886   4.110
55616W        W27145  28.394  36.893   0.396
55617W        W27146  16.185  30.024  12.596
55618W        W27147  21.526   1.803  13.392
55619W        W27148  36.856  19.098   0.712
55620W        W27149   6.375  16.554   4.953
55621W        W27150  19.045  32.177   2.583
55622W        W27151   8.247   0.013  10.638
55623W        W27152  24.075  34.999   1.259
55624W        W27153  44.302  18.002   0.032
55625W        W27154   1.558  29.878   1.864
55626W        W27155  26.286  27.839   3.611
55627W        W27156  33.886  31.558  12.043
55628W        W27157  27.666   9.242  11.590
55629W        W27158  18.174  32.652   2.716
55630W        W27159  28.417  36.959  13.803
55631W        W27160  21.662  37.125  10.692
55632W        W27161  22.626  12.761  12.936
55633W        W27162  31.625  33.464  12.936
55634W        W27163  11.655   1.051   1.250
55635W        W27164  15.265  19.958   2.336
55636W        W27165  29.598  26.475   1.417
55637W        W27166  21.216  43.215   2.004
55638W        W27167  35.547  35.444   2.173
55639W        W27168  43.411  18.831   2.651
55640W        W27169  41.835   8.236   4.535
55641W        W27170  25.653   1.362   3.755
55642W        W27171  31.399  40.250   0.857
55643W        W27172   4.912  27.183   1.995
55644W        W27173  15.574  26.569  11.757
55645W        W27174  30.166   0.362  14.534
55646W        W27175  43.981  34.078   2.611
55647W        W27176  32.833  35.410  11.276
55648W        W27177  20.716  26.757  13.625
55649W        W27178   0.298  19.254  11.132
55650W        W27179   5.632  13.171  11.537
55651W        W27180   3.273  27.123   0.128
55652W        W27181  43.411  27.060  12.476
55653W        W27182  12.366  25.468   2.283
55654W        W27183  27.144   9.244  11.588
55655W        W27184  31.471  33.624  10.687
55656W        W27185  23.488   9.328  12.128
55657W        W27186  44.870  17.042  12.459
55658W        W27187  18.849  33.041  13.623
55659W        W27188  15.232  12.248   4.622
55660W        W27189  23.546   4.115   1.845
55661W        W27190   5.241   8.362   3.228
55662W        W27191  11.595  32.412  11.962
55663W        W27192   2.294  42.458   3.856
55664W        W27193  12.195  32.378   4.304
55665W        W27194  24.351  35.439  13.018
55666W        W27195  10.741  11.798   0.856
55667W        W27196  11.816  21.097  11.318
55668W        W27197   5.834  21.197   3.425
55669W        W27198  35.472  14.230  12.330
55670W        W27199  20.737  17.694  11.470
55671W        W27200  34.052  30.585  14.551
55672W        W27201  35.541  38.868  12.052
55673W        W27202  31.709  17.092  10.942
55674W        W27203  36.490  42.522   3.066
55675W        W27204  37.458  20.266   2.359
55676W        W27205  36.382  16.306   3.715
55677W        W27206  24.556  15.854   0.792
55678W        W27207  36.471  21.679  12.020
55679W        W27208   5.808  14.619  14.837
55680W        W27209  35.490  12.350   2.904
55681W        W27210  19.945   5.280  13.619
55682W        W27211  31.599  19.594   2.171
55683W        W27212  28.129  21.795  12.821
55684W        W27213  23.174   0.374   3.146
55685W        W27214  24.615  38.546   1.739
55686W        W27215  43.886  32.353   1.764
55687W        W27216   8.291  15.157   1.180
55688W        W27217  14.262  15.154   1.332
55689W        W27218  34.476  37.971   4.564
55690W        W27219  17.589   7.550   2.717
55691W        W27220  25.904  33.245  11.965
55692W        W27221   9.428  29.576   4.004
55693W        W27222   6.121  23.516  14.595
55694W        W27223  32.633  44.319  13.113
55695W        W27224   6.956  28.684   4.262
55696W        W27225  10.732  36.878  10.746
55697W        W27226  13.406   7.651   4.248
55698W        W27227  42.900   0.290   1.944
55699W        W27228  37.016  33.107  13.950
55700W        W27229  23.827  35.381  14.767
55701W        W27230  33.026  36.076  13.401
55702W        W27231  18.719  43.513  14.875
55703W        W27232  38.764  13.685  12.593
55704W        W27233  13.084  28.748  13.319
55705W        W27234  24.309   4.194   3.699
55706W        W27235  18.250  36.033  13.516
55707W        W27236  19.809   0.368   0.385
55708W        W27237  35.977   8.743  13.944
55709W        W27238   6.657  10.712   2.923
55710W        W27239   5.069  29.041   4.216
55711W        W27240   9.866   4.658  11.970
55712W        W27241   3.955  37.049  12.156
55713W        W27242   4.275  13.301  11.670
55714W        W27243  14.928  11.331   9.891
55715W        W27244   3.147  20.160  12.938
55716W        W27245  29.741  32.058  11.589
55717W        W27246  39.602  13.359   2.504
55718W        W27247  32.039  16.152   2.233
55719W        W27248   1.960  11.812  10.475
55720W        W27249  15.195  34.899  10.731
55721W        W27250  26.777   2.892  12.148
55722W        W27251  15.995   1.680  12.834
55723W        W27252   2.958  13.264   1.731
55724W        W27253   5.257   1.663   1.424
55725W        W27254  41.776  22.794  13.989
55726W        W27255  18.429   9.116   9.943
55727W        W27256  37.968   7.019   4.906
55728W        W27257   0.342  21.319   3.281
55729W        W27258  38.295  24.940  10.575
55730W        W27259   4.807  19.108   0.027
55731W        W27260  10.249  40.069   4.947
55732W        W27261  28.160  44.152  12.103
55733W        W27262   9.767  29.922   3.410
55734W        W27263   9.134  19.056  14.397
55735W        W27264   8.418  28.443  14.757
55736W        W27265  15.499  21.233  14.247
55737W        W27266  43.709  37.903   2.353
55738W        W27267  41.927   9.298   4.048
55739W        W27268   2.695  24.119  13.515
55740W        W27269  22.933  37.999   3.832
55741W        W27270  19.745   1.322   2.909
55742W        W27271  39.074  17.938  12.033
55743W        W27272  16.817   6.417  12.540
55744W        W27273  11.312  42.095  13.454
55745W        W27274  28.445  26.002  10.624
55746W        W27275  40.386  37.474   4.060
55747W        W27276  22.660  44.179   3.565
55748W        W27277   4.068  24.199  13.989
55749W        W27278  19.663  39.522  13.967
55750W        W27279  29.094   4.362   3.660
55751W        W27280   7.183  12.487  11.983
55752W        W27281  10.919  22.560  12.482
55753W        W27282  41.915  21.158  10.116
55754W        W27283   5.659  20.528  12.339
55755W        W27284   3.959  19.083  12.956
55756W        W27285   0.937   5.776  13.372
55757W        W27286  29.766  12.806   3.213
55758W        W27287  33.867  26.846  10.719
55759W        W27288  32.550  38.779   0.365
55760W        W27289  30.175   9.562   1.254
55761W        W27290  17.200  30.154  12.447
55762W        W27291   8.730   4.180  10.544
55763W        W27292  23.380  40.387  10.333
55764W        W27293  19.881  41.883   3.593
55765W        W27294  38.944  31.395  11.273
55766W        W27295  22.494  16.543   0.560
55767W        W27296  26.935  22.771  12.170
55768W        W27297  30.633  39.532   4.221
55769W        W27298   6.304  24.715  11.038
55770W        W27299  42.415  36.308   0.987
55771W        W27300   8.808   8.215   3.202
55772W        W27301  15.354   5.823   0.979
55773W        W27302  35.032  40.580   5.405
55774W        W27303  31.686  17.175  12.032
55775W        W27304  41.559  29.165   3.687
55776W        W27305  44.694  29.161  11.034
55777W        W27306  21.104  43.713   2.865
55778W        W27307  21.088   0.922  12.964
55779W        W27308  43.911  25.999  14.855
55780W        W27309  28.176  11.650   1.310
55781W        W27310  20.215  32.876  13.184
55782W        W27311  12.942   3.742   2.781
55783W        W27312  22.541  34.200   1.928
55784W        W27313  10.163  24.256  12.787
55785W        W27314  17.921  33.915   3.315
55786W        W27315  28.784  35.561  10.352
55787W        W27316  40.621  10.352  10.781
55788W        W27317  14.195  44.424   1.019
55789W        W27318  34.581   9.796  12.010
55790W        W27319  23.596  26.457  13.455
55791W        W27320  26.068  27.223  13.385
55792W        W27321   2.801   6.307  13.370
55793W        W27322  44.871  24.565   0.301
55794W        W27323  30.651  41.271  13.463
55795W        W27324   5.327  34.378  11.061
55796W        W27325  31.488  19.100  12.425
55797W        W27326  31.552  20.353   1.634
55798W        W27327  10.955  18.231  14.777
55799W        W27328   2.883  43.580   2.654
55800W        W27329  13.556   4.125   0.799
55801W        W27330  32.165  28.234   2.519
55802W        W27331  23.284  15.305   1.899
55803W        W27332  24.072   0.950  10.635
55804W        W27333  18.605   2.439   0.040
55805W        W27334   7.813   4.901   3.746
55806W        W27335  34.135  40.849   4.542
55807W        W27336   4.767  33.655   3.790
55808W        W27337  28.175  17.352   4.145
55809W        W27338  17.349  24.698  11.819
55810W        W27339  33.920  26.093   1.375
55811W        W27340  39.500   6.170  14.848
55812W        W27341   6.559  34.024   1.949
55813W        W27342  28.550  24.042   0.896
55814W        W27343  26.532   6.848  12.735
55815W        W27344   4.678  27.016  11.432
55816W        W27345   6.667  12.142  13.533
55817W        W27346   9.684  32.086   1.723
55818W        W27347   2.399  18.407  11.230
55819W        W27348  33.784   6.018   1.334
55820W        W27349  37.335  44.551   4.752
55821W        W27350  29.435  26.021  13.003
55822W        W27351  16.695   7.430  14.863
55823W        W27352   9.651   0.938   0.554
55824W        W27353  41.453   2.294  11.733
55825W        W27354  42.488  32.402  14.897
55826W        W27355  21.215  32.894  11.224
55827W        W27356  30.139  29.312  11.121
55828W        W27357   8.613  36.112   2.906
55829W        W27358  30.073  36.613   1.971
55830W        W27359   2.783  12.622  14.891
55831W        W27360  31.260  29.018   3.313
55832W        W27361  39.724  14.328  10.554
55833W        W27362  20.771  31.413   1.512
55834W        W27363   8.942  44.896  13.046
55835W        W27364  40.366   6.753   2.182
55836W        W27365  24.587   2.264  13.910
55837W        W27366  30.784  34.700  12.425
55838W        W27367   7.436  23.210   1.230
55839W        W27368  33.711  41.463   5.030
55840W        W27369  10.414  27.742   1.207
55841W        W27370   9.623  34.504   4.829
55842W        W27371  39.391  12.285   4.120
55843W        W27372  32.048  44.486   4.864
55844W        W27373   4.244   5.100   4.255
55845W        W27374   3.257  16.387  12.931
55846W        W27375  21.181  24.888   4.200
55847W        W27376  22.111   0.621  11.974
55848W        W27377  12.170   9.600   2.794
55849W        W27378  19.729   6.842   0.092
55850W        W27379  17.038  28.703  13.483
55851W        W27380  23.459   4.464   3.205
55852W        W27381  15.216   9.263   3.050
55853W        W27382  28.155  21.717   4.762
55854W        W27383  28.616  34.782  11.653
55855W        W27384  11.410  42.413   2.992
55856W        W27385   0.552  42.191   1.778
55857W        W27386  10.801  16.386  12.004
55858W        W27387  18.655   8.781  12.607
55859W        W27388  44.537  19.164   2.255
55860W        W27389  21.750  11.630   3.588
55861W        W27390  12.330  31.578  12.562
55862W        W27391  31.976  12.801  10.382
55863W        W27392  38.510  40.152   2.774
55864W        W27393  40.474  15.532   3.032
55865W        W27394  44.810   6.030   2.130
55866W        W27395   7.593  13.344   2.297
55867W        W27396   0.424  35.962   1.507
55868W        W27397   8.823  31.056  14.558
55869W        W27398  11.235  13.337   4.106
55870W        W27399  13.128   7.427  11.125
55871W        W27400   5.903  24.144   4.173
55872W        W27401  22.501   5.692   2.448
55873W        W27402  43.730  26.780   0.083
55874W        W27403  33.693  18.561  14.339
55875W        W27404  28.945   7.010  14.435
55876W        W27405  39.989  44.984  12.006
55877W        W27406  21.670  35.372   4.921
55878W        W27407  35.914  15.061   1.397
55879W        W27408  12.606  33.827  14.879
55880W        W27409   4.926   9.038   2.255
55881W        W27410  43.726  15.428  11.462
55882W        W27411  38.122  22.779   3.266
55883W        W27412  24.981  37.419  11.435
55884W        W27413   4.337   1.534   0.551
55885W        W27414   2.991  30.965  12.937
55886W        W27415  41.002  24.752  12.836
55887W        W27416  13.665  22.111  14.069
55888W        W27417  22.868  37.296  12.760
55889W        W27418   5.156  31.228   0.496
55890W        W27419  31.402  13.767   9.991
55891W        W27420  27.111  38.981  12.982
55892W        W27421   2.940  11.693  10.650
55893W        W27422  12.432  27.441   1.757
55894W        W27423  36.562   1.634  14.641
55895W        W27424   2.415  11.803   2.815
55896W        W27425  24.582  39.629  12.190
55897W        W27426   4.583  24.614  10.255
55898W        W27427   7.427  16.556  14.760
55899W        W27428   2.439  27.026   4.178
55900W        W27429  33.150  15.682   3.129
55901W        W27430   9.657  43.839   4.647
55902W        W27431  23.444  18.599  12.199
55903W        W27432  13.222  30.185   3.227
55904W        W27433   7.250   7.209  10.790
55905W        W27434  42.778   6.215  12.538
55906W        W27435  30.632  22.463  13.116
55907W        W27436  11.880  29.415  12.017
55908W        W27437  26.578  23.008   2.877
55909W        W27438   9.648  18.019  12.637
55910W        W27439  10.421  40.704   3.679
55911W        W27440  27.070  13.625  12.412
55912W        W27441  39.862  34.667   2.723
55913W        W27442   5.699  27.950  12.376
55914W        W27443   1.146  32.052   4.029
55915W        W27444  30.608  40.466  12.954
55916W        W27445  41.527  18.039  10.779
55917W        W27446   8.386  36.817  13.679
55918W        W27447  10.247  31.548   1.407
55919W        W27448   9.413  24.658  13.064
55920W        W27449  14.140  44.299  14.998
55921W        W27450  16.145  33.507   1.410
55922W        W27451  10.185  24.110  10.892
55923W        W27452  10.227  44.470  11.118
55924W        W27453   6.353   3.539  12.119
55925W        W27454  29.172  33.115   2.805
55926W        W27455  41.751  32.992  12.560
55927W        W27456  15.590  23.488   0.497
55928W        W27457   6.148  18.883   1.363
55929W        W27458  24.633  24.037  13.331
55930W        W27459  36.885  21.767   3.162
55931W        W27460  22.468  42.361   9.628
55932W        W27461  19.322   7.892  11.604
55933W        W27462  31.612  12.604   3.610
55934W        W27463  38.771   6.715  13.885
55935W        W27464  38.528  31.620  11.097
55936W        W27465  38.512  35.471   3.155
55937W        W27466  23.205  11.744  10.748
55938W        W27467  14.511  42.957  14.728
55939W        W27468  30.421  34.806   0.355
55940W        W27469   0.895   4.877  12.131
55941W        W27470  12.872  29.964  11.883
55942W        W27471  18.232  11.023   3.142
55943W        W27472  23.571  18.048   0.130
55944W        W27473  18.571  23.504  10.814
55945W        W27474  36.528  40.703   4.560
55946W        W27475  36.066  32.083  13.441
55947W        W27476   9.613  28.702   0.970
55948W        W27477  23.714  26.895   3.266
55949W        W27478  19.764  40.373  10.774
55950W        W27479  21.708  40.993   2.695
55951W        W27480  13.194  30.367   2.277
55952W        W27481   4.932  28.697   1.113
55953W        W27482  38.837  34.484   1.746
55954W        W27483   2.475  22.654  14.555
55955W        W27484  40.703  15.986  12.061
55956W        W27485   8.759  17.530  11.528
55957W        W27486  28.907  33.794  14.358
55958W        W27487  11.631  27.535  10.618
55959W        W27488  41.521  33.954  14.802
55960W        W27489  29.481  31.533  14.375
55961W        W27490   5.617   2.871   3.272
55962W        W27491  12.077  18.642   4.253
55963W        W27492  20.039  32.317  14.812
55964W        W27493   9.348   1.964  13.972
55965W        W27494  38.306  13.705  12.875
55966W        W27495  38.847  20.531  11.032
55967W        W27496   6.085  14.950  11.596
55968W        W27497   4.782   1.410   3.180
55969W        W27498  24.042  30.895   3.187
55970W        W27499  36.304  31.429   1.863
55971W        W27500  22.213   7.630  13.835
55972W        W27501  25.663  39.169  14.847
55973W        W27502   7.621   6.728  10.620
55974W        W27503  38.089  16.584  12.395
55975W        W27504  21.712  27.514  13.755
55976W        W27505   3.502  15.908   2.970
55977W        W27506  22.613  40.697   3.079
55978W        W27507   0.214  12.106  13.426
55979W        W27508   3.388   9.867   3.765
55980W        W27509   7.965  35.426   2.787
55981W        W27510  24.164  13.148   4.548
55982W        W27511   4.433  34.009   0.534
55983W        W27512  37.951  13.674   0.919
55984W        W27513  31.395  44.253   1.357
55985W        W27514  40.279  10.601   2.887
55986W        W27515  36.262  28.753  12.516
55987W        W27516  27.740  37.873  12.913
55988W        W27517  17.164  23.280   3.073
55989W        W27518   1.657  30.543   3.513
55990W        W27519  18.673  44.283  11.411
55991W        W27520  18.953  15.502   1.916
55992W        W27521  33.976   7.455   0.075
55993W        W27522   1.176   3.858  12.294
55994W        W27523   9.908  41.454   3.322
55995W        W27524  33.016   8.637   4.597
55996W        W27525  28.595  40.096   3.367
55997W        W27526   7.716  13.495   1.286
55998W        W27527   6.103  16.650  11.021
55999W        W27528  36.425  11.306  12.151
56000W        W27529  17.443   9.160   0.925
56001W        W27530   6.455  36.929  12.468
56002W        W27531  28.666  42.471  10.708
56003W        W27532  17.178   8.109  13.887
56004W        W27533  11.673  26.289  12.320
56005W        W27534  20.691  20.028  11.927
56006W        W27535  10.220  21.173  13.963
56007W        W27536  38.548  19.861  10.594
56008W        W27537  39.867  22.188   1.433
56009W        W27538  20.579  36.576   1.948
56010W        W27539   0.455  25.481   3.710
56011W        W27540  16.300  30.882   4.590
56012W        W27541  25.592  30.212  11.962
56013W        W27542   9.930  12.153  12.052
56014W        W27543  11.156  14.843  11.593
56015W        W27544   9.677  28.616   2.203
56016W        W27545  43.970  22.786  12.091
56017W        W27546  42.385  27.476   4.127
56018W        W27547   8.986  26.749   1.371
56019W        W27548  39.837  41.819   3.758
56020W        W27549  42.751  43.255   2.255
56021W        W27550  15.688   1.567  14.928
56022W        W27551  16.712   8.696  12.321
56023W        W27552  12.341  14.643  12.468
56024W        W27553   2.981  44.281  12.646
56025W        W27554  30.034   6.442   2.836
56026W        W27555  26.662   8.394  12.928
56027W        W27556  17.157   4.828  13.132
56028W        W27557  13.850   4.816   4.566
56029W        W27558  44.587  17.661  14.275
56030W        W27559  26.001  11.785  12.417
56031W        W27560  43.230   3.454  10.730
56032W        W27561  30.128   9.403  11.632
56033W        W27562  31.480  33.999   2.228
56034W        W27563  22.219  43.412   3.331
56035W        W27564  11.156  15.540  12.903
56036W        W27565  36.964  44.883   3.674
56037W        W27566  44.500  43.737   1.893
56038W        W27567   6.375  18.128   4.949
56039W        W27568   8.987  12.153  12.074
56040W        W27569  14.228   1.892   3.798
56041W        W27570   1.459  23.431   2.651
56042W        W27571  24.277  29.854  10.820
56043W        W27572  30.603   3.958  11.598
56044W        W27573  31.043  40.450   1.176
56045W        W27574   6.183  34.466  12.521
56046W        W27575  34.990  15.073   0.336
56047W        W27576  36.159  20.555   0.539
56048W        W27577  18.365  36.868  13.561
56049W        W27578  35.925  12.086   4.543
56050W        W27579  28.488   9.436  14.455
56051W        W27580  33.785  19.764   0.475
56052W        W27581   4.475  23.620  11.891
56053W        W27582  13.334  31.035   0.247
56054W        W27583  19.526  36.509   2.898
56055W        W27584  41.407  21.054  11.885
56056W        W27585  27.357   7.463   4.178
56057W        W27586  42.137  36.140  14.857
56058W        W27587  25.937   4.316  10.636
56059W        W27588  39.564   5.832  13.466
56060W        W27589   1.970  21.526  12.401
56061W        W27590  33.818  42.059   4.211
56062W        W27591  17.641  44.825  13.911
56063W        W27592  11.233  12.051  11.460
56064W        W27593  25.060   8.840  14.914
56065W        W27594  27.381  16.933  14.538
56066W        W27595  26.154  21.750  14.909
56067W        W27596  34.133  13.995   1.759
56068W        W27597  13.146  26.636   0.791
56069W        W27598   4.903  35.838   0.263
56070W        W27599   5.522  30.639  11.149
56071W        W27600   5.442  16.979  11.176
56072W        W27601  18.063  16.074  13.013
56073W        W27602  28.967  23.436   2.817
56074W        W27603  43.748  20.713  14.031
56075W        W27604   3.282   8.080  12.085
56076W        W27605   3.747  23.282   4.205
56077W        W27606   1.500  19.781   2.848
56078W        W27607  13.665   3.246  13.345
56079W        W27608  14.363  35.884   3.271
56080W        W27609  32.316  11.290  12.476
56081W        W27610  25.220  36.622  14.928
56082W        W27611  26.430   0.825   0.966
56083W        W27612  44.927  33.815   3.265
56084W        W27613   4.462  19.008  12.865
56085W        W27614  27.411  37.277   3.426
56086W        W27615  38.541  24.602   3.578
56087W        W27616  28.209  14.273   0.866
56088W        W27617   7.863  21.521   1.818
56089W        W27618   2.991  24.208   1.372
56090W        W27619  31.819  28.561   2.674
56091W        W27620  14.137  28.687  14.680
56092W        W27621   0.598  23.429   2.199
56093W        W27622  34.580  33.032   3.802
56094W        W27623  28.845  39.548  14.573
56095W        W27624   5.240  35.263   3.773
56096W        W27625  22.928   5.933  11.581
56097W        W27626  36.648  44.832   4.107
56098W        W27627  40.831  15.183   4.762
56099W        W27628   9.106   6.973   1.766
56100W        W27629  38.891  11.160  12.406
56101W        W27630  32.753  34.620   3.753
56102W        W27631  28.099  29.619   0.437
56103W        W27632   9.703  42.303  10.350
56104W        W27633  42.351   2.366  10.898
56105W        W27634  27.568  20.962  12.024
56106W        W27635   2.113   2.099  10.176
56107W        W27636  21.800   3.909   4.886
56108W        W27637  22.576   2.291   2.980
56109W        W27638  16.280  34.764   4.043
56110W        W27639  22.733  39.387   0.776
56111W        W27640  19.498  41.861  11.757
56112W        W27641   9.195  39.896   1.484
56113W        W27642  13.734  41.876   1.230
56114W        W27643  38.880   6.833  13.011
56115W        W27644   7.309  14.610  12.889
56116W        W27645   9.732  38.452  14.355
56117W        W27646  22.671  25.195   1.932
56118W        W27647  38.273  21.729  10.676
56119W        W27648   8.435  13.803  12.872
56120W        W27649   7.248  28.883  14.864
56121W        W27650  43.548  13.578  11.982
56122W        W27651  11.556  33.022   2.412
56123W        W27652   1.990  18.776  11.214
56124W        W27653  17.124  10.458   2.521
56125W        W27654  16.482  12.832   0.483
56126W        W27655  26.559  21.447  14.735
56127W        W27656  37.549  44.980   4.471
56128W        W27657  32.583  43.065  13.351
56129W        W27658  21.192  36.960  10.784
56130W        W27659  16.107  31.726   1.498
56131W        W27660  43.091  13.713  14.280
56132W        W27661  42.906  24.292  13.959
56133W        W27662  38.060  22.190  10.650
56134W        W27663  36.644  25.579   1.916
56135W        W27664  26.411  36.133   1.217
56136W        W27665  34.538  39.315  13.930
56137W        W27666  44.473   0.953  10.235
56138W        W27667  16.699  17.705  14.194
56139W        W27668   8.213   6.060   1.360
56140W        W27669  31.331   9.671  12.134
56141W        W27670  13.255   8.656   3.708
56142W        W27671  31.256  32.189  12.531
56143W        W27672  11.382  16.220   3.431
56144W        W27673  13.142  30.672   4.408
56145W        W27674   9.736  25.966  14.952
56146W        W27675   0.480  12.713   3.616
56147W        W27676  23.782   7.603  14.338
56148W        W27677  33.981  20.865  10.764
56149W        W27678  16.300  26.529   2.698
56150W        W27679  41.701  16.662   3.256
56151W        W27680   2.064  38.080   0.652
56152W        W27681  23.524  15.701   4.265
56153W        W27682   8.047  34.737   3.226
56154W        W27683   5.918   2.911   2.234
56155W        W27684  33.442  22.432  11.899
56156W        W27685  33.039  14.759   2.797
56157W        W27686  36.858  42.336  14.407
56158W        W27687  15.887  36.041  14.949
56159W        W27688   8.462   7.712  14.463
56160W        W27689  30.121   0.520  12.500
56161W        W27690  41.369   9.880   2.704
56162W        W27691  30.818  44.523  11.803
56163W        W27692   2.066   8.779   4.590
56164W        W27693  37.170   1.742   0.312
56165W        W27694  39.775  29.502  12.629
56166W        W27695  22.046  11.690  10.698
56167W        W27696  21.049  30.360   2.898
56168W        W27697  27.736  28.310  10.981
56169W        W27698  37.068  40.907  14.992
56170W        W27699  11.587  31.682  10.579
56171W        W27700   3.839  21.603   3.395
56172W        W27701  16.539   8.721  14.081
56173W        W27702  18.584  30.576  12.979
56174W        W27703  14.564  41.561   1.897
56175W        W27704   4.407  34.539   1.787
56176W        W27705   8.118  30.146   2.458
56177W        W27706  11.588  38.443   2.225
56178W        W27707  27.047  19.142  14.709
56179W        W27708  42.902   0.467  10.748
56180W        W27709  43.138  14.721   4.511
56181W        W27710  29.706  27.984  12.462
56182W        W27711   7.788   7.455  12.572
56183W        W27712  14.389  28.812  13.775
56184W        W27713  36.824  12.839  14.771
56185W        W27714  10.279  43.769  14.812
56186W        W27715   6.776   5.671   0.787
56187W        W27716  41.852  34.355  14.831
56188W        W27717  36.362   7.269  10.516
56189W        W27718   8.588  18.600   1.210
56190W        W27719  41.277  13.843  11.113
56191W        W27720   5.520  35.333   4.570
56192W        W27721  23.952  43.861  12.861
56193W        W27722  19.894   9.289   3.379
56194W        W27723   5.893   1.798  11.548
56195W        W27724  33.818  34.155  13.842
56196W        W27725  40.831  35.016  11.702
56197W        W27726  17.289  16.086  13.398
56198W        W27727  12.338  44.366   5.756
56199W        W27728  37.752   8.565  11.762
56200W        W27729  12.243  16.069  12.436
56201W        W27730   3.690   5.729   0.421
56202W        W27731  30.184  40.638   2.259
56203W        W27732  29.807  24.759   4.459
56204W        W27733  30.946  26.737   3.359
56205W        W27734  37.518   4.787   4.862
56206W        W27735  30.114  23.991  11.421
56207W        W27736   1.069  15.189  13.491
56208W        W27737  26.408  27.738   2.262
56209W        W27738  36.711  22.662   4.332
56210W        W27739  25.278   4.968   1.191
56211W        W27740  18.363  28.073  14.114
56212W        W27741  38.294  18.338  13.022
56213W        W27742   7.666  40.030  12.417
56214W        W27743  14.587   8.518  11.147
56215W        W27744  38.968  41.407   3.099
56216W        W27745  39.756  38.325  14.416
56217W        W27746   8.782   2.408  10.805
56218W        W27747  20.736  10.308   0.267
56219W        W27748   2.191   7.544  11.366
56220W        W27749  26.897  16.500   4.546
56221W        W27750  33.545  17.034   4.164
56222W        W27751  33.872  32.213   3.092
56223W        W27752  18.252   0.887   3.909
56224W        W27753  30.147  29.677   1.860
56225W        W27754  23.811   3.945   1.423
56226W        W27755   2.627  27.024  11.058
56227W        W27756  20.031  25.586  12.497
56228W        W27757  15.662  18.116  11.936
56229W        W27758  42.676  21.548  13.934
56230W        W27759  16.218  32.416  11.813
56231W        W27760  39.497  13.845  13.255
56232W        W27761   1.336  30.657   4.507
56233W        W27762   6.293  31.167   4.166
56234W        W27763  21.161   0.498   1.352
56235W        W27764  17.072  41.105   4.220
56236W        W27765  21.320  32.398  12.127
56237W        W27766   7.355  36.947  14.797
56238W        W27767  38.800   9.185   3.778
56239W        W27768  26.809  26.269   4.577
56240W        W27769  10.421  23.728   3.053
56241W        W27770  10.833  41.818   1.214
56242W        W27771  29.877  21.132  12.903
56243W        W27772  23.106   1.023  10.535
56244W        W27773  19.548  36.545  13.553
56245W        W27774  13.100  11.701  14.346
56246W        W27775  40.881   8.872  10.701
56247W        W27776  35.347  33.487   4.555
56248W        W27777  11.355  14.772   3.886
56249W        W27778  21.129   0.376  11.619
56250W        W27779   3.473  42.844  13.053
56251W        W27780   3.146  44.203  13.547
56252W        W27781  35.357  21.878   1.917
56253W        W27782  35.110  31.043   1.862
56254W        W27783  27.200  37.482   4.961
56255W        W27784  34.048  30.394   0.994
56256W        W27785  29.520   9.153  10.598
56257W        W27786  28.596  13.843   1.812
56258W        W27787  12.995  31.167   3.241
56259W        W27788  36.452  21.744  10.971
56260W        W27789   9.462  38.506  10.784
56261W        W27790  33.449  26.651  13.069
56262W        W27791  28.031  14.288  14.265
56263W        W27792  39.324  28.002   4.074
56264W        W27793  19.661  30.602   0.498
56265W        W27794  20.239  21.920  13.492
56266W        W27795   4.654  32.439   1.976
56267W        W27796   2.859  30.486  13.044
56268W        W27797  22.911  28.686   1.864
56269W        W27798  41.802   1.458   4.131
56270W        W27799  39.535  44.077   0.716
56271W        W27800  25.701  41.291  14.959
56272W        W27801  41.794  39.397  14.326
56273W        W27802  44.725  35.007   0.411
56274W        W27803   5.908  29.513   3.893
56275W        W27804   6.463  29.157   2.661
56276W        W27805  10.792  22.835  13.067
56277W        W27806  27.530  23.308  12.866
56278W        W27807  30.930  21.471   4.598
56279W        W27808   2.214  40.850  11.883
56280W        W27809  22.202   5.335  14.040
56281W        W27810  35.999  37.570  10.822
56282W        W27811   3.243  15.790   1.992
56283W        W27812  19.075  23.615   3.655
56284W        W27813  41.825  22.898   3.346
56285W        W27814   0.735  29.633   0.935
56286W        W27815  25.687  22.790  11.563
56287W        W27816  11.188  35.932  14.067
56288W        W27817  38.760  20.162  12.875
56289W        W27818  41.017   2.459   0.532
56290W        W27819   8.922  42.647   2.772
56291W        W27820  19.022  31.655   4.727
56292W        W27821  30.003  42.556  13.815
56293W        W27822   6.462  34.370   4.583
56294W        W27823  37.757  40.321   0.729
56295W        W27824   8.173   7.956   4.003
56296W        W27825  25.810  17.004   2.398
56297W        W27826  26.693  36.317  12.930
56298W        W27827  20.075   4.892   3.289
56299W        W27828  25.376   4.765   3.983
56300W        W27829  36.935  34.868   3.154
56301W        W27830  16.284   0.305  10.713
56302W        W27831  19.544   7.783   2.743
56303W        W27832  27.166  24.561   4.030
56304W        W27833   4.939  40.571   0.473
56305W        W27834  38.344  20.015  13.986
56306W        W27835  16.629  33.090  14.475
56307W        W27836  20.071  17.047   1.575
56308W        W27837  36.564  28.673  12.974
56309W        W27838  44.986   4.143   2.471
56310W        W27839  40.069   6.065  12.193
56311W        W27840  44.692  32.569  11.685
56312W        W27841  44.994  21.280  13.782
56313W        W27842   5.759   4.460  14.401
56314W        W27843  33.814  29.588   4.508
56315W        W27844   2.569  37.404  14.500
56316W        W27845   7.124  38.027  14.462
56317W        W27846  36.580   7.622  13.870
56318W        W27847  36.061  26.550   2.275
56319W        W27848  20.603  37.480   4.385
56320W        W27849  14.587  15.036  10.565
56321W        W27850  15.289  30.679   2.188
56322W        W27851  18.836  10.343   3.631
56323W        W27852  17.702  22.681   1.216
56324W        W27853  40.089   3.308  12.131
56325W        W27854   3.949   4.728   1.196
56326W        W27855  44.257  36.537  13.639
56327W        W27856  20.117  23.899  12.863
56328W        W27857  35.416   7.222   3.326
56329W        W27858  36.485  11.844   0.493
56330W        W27859  19.085  14.357  11.134
56331W        W27860  23.604  28.311  13.902
56332W        W27861  16.813  17.071   3.153
56333W        W27862  38.474  26.449   1.873
56334W        W27863  30.558  11.387  10.844
56335W        W27864  16.440  14.938   1.865
56336W        W27865  12.419  13.613   0.667
56337W        W27866  23.096  27.799   1.800
56338W        W27867   5.804  21.647  10.819
56339W        W27868  10.763  27.593  10.943
56340W        W27869  21.028  19.999   5.031
56341W        W27870  29.906  21.664   0.985
56342W        W27871  18.480  33.631   0.266
56343W        W27872  17.143  10.398   3.037
56344W        W27873  39.473   8.043  11.617
56345W        W27874  37.376  37.604  12.425
56346W        W27875  38.093   0.223   0.541
56347W        W27876  28.122  14.187  11.135
56348W        W27877  38.889   7.760   0.806
56349W        W27878  18.327  40.862  13.525
56350W        W27879  33.480  30.410  10.273
56351W        W27880  13.159  29.474  14.972
56352W        W27881   5.851  14.784  11.077
56353W        W27882  35.014  42.502  11.203
56354W        W27883  43.466   4.707  13.154
56355W        W27884  26.099  13.289   0.785
56356W        W27885  30.564  37.975   3.385
56357W        W27886  24.990  17.482   1.420
56358W        W27887  10.327  41.239   2.397
56359W        W27888   7.959  22.134   4.559
56360W        W27889   6.464   6.002   3.704
56361W        W27890  18.536  39.886  11.986
56362W        W27891   6.914  36.043  12.172
56363W        W27892   6.401  18.158  13.378
56364W        W27893  26.554  10.394   4.167
56365W        W27894  24.661  21.730  14.340
56366W        W27895  10.993  37.859  14.631
56367W        W27896  34.566  11.511  12.827
56368W        W27897  15.816  31.893  13.865
56369W        W27898  42.911  31.959  13.910
56370W        W27899  38.559  12.359  13.575
56371W        W27900  30.118  32.345   1.949
56372W        W27901  39.903  39.846   1.980
56373W        W27902  33.267   7.756  14.542
56374W        W27903  25.015  15.927   0.487
56375W        W27904  34.517  37.939  14.521
56376W        W27905  24.528  21.805   3.659
56377W        W27906  27.927   3.303   1.216
56378W        W27907  10.487  32.534  14.568
56379W        W27908  12.105  29.466   4.099
56380W        W27909   4.647  40.406   0.945
56381W        W27910  26.070  32.939  13.969
56382W        W27911  12.410  12.528   2.111
56383W        W27912   2.326  14.623  10.900
56384W        W27913   3.039  14.258  13.060
56385W        W27914  36.826  16.660  13.412
56386W        W27915  33.846  20.693  11.619
56387W        W27916  31.404  19.820  13.905
56388W        W27917   6.438  21.351   0.366
56389W        W27918  44.057   5.272  13.089
56390W        W27919   7.786  18.785  12.081
56391W        W27920  30.462  16.378   5.445
56392W        W27921  17.899  30.930  10.354
56393W        W27922  38.637  18.779   4.102
56394W        W27923   5.432  29.120   0.270
56395W        W27924  42.922  15.378   1.943
56396W        W27925  13.546  39.318   2.545
56397W        W27926   0.444  41.396  10.683
56398W        W27927  27.204   5.443  11.980
56399W        W27928  35.905  13.279   1.754
56400W        W27929  43.989   3.442  11.920
56401W        W27930  40.052  15.406  10.604
56402W        W27931   1.480  39.493  13.445
56403W        W27932  19.038  16.369   4.800
56404W        W27933  29.649  20.263   3.710
56405W        W27934   8.260   1.702  10.011
56406W        W27935   6.660  20.611   4.089
56407W        W27936  33.880  21.186   0.944
56408W        W27937  36.980  43.479   2.310
56409W        W27938  18.191  42.094  11.111
56410W        W27939  12.444   2.774   2.696
56411W        W27940  34.030   6.268   0.917
56412W        W27941   3.535  38.898  10.074
56413W        W27942  24.625  22.213  10.956
56414W        W27943   8.384  44.961  12.546
56415W        W27944  39.347  21.982  11.104
56416W        W27945  42.016  35.471   0.332
56417W        W27946  33.456  40.023   2.494
56418W        W27947  20.959  12.634   4.207
56419W        W27948   0.177  31.825   2.310
56420W        W27949  42.034  27.064   3.472
56421W        W27950  24.953  20.584  13.894
56422W        W27951   4.321  37.328   0.460
56423W        W27952  11.772  31.498   0.916
56424W        W27953  30.116  42.430  11.356
56425W        W27954  11.155  30.688  14.708
56426W        W27955  34.694  31.792   4.860
56427W        W27956  22.048  43.992  11.565
56428W        W27957  10.880  11.765  14.666
56429W        W27958  13.286  25.225   1.902
56430W        W27959  23.714  37.224   3.596
56431W        W27960  35.913  42.979   3.663
56432W        W27961  11.186  32.066   1.400
56433W        W27962  44.985  41.979  14.294
56434W        W27963   3.917  16.724   4.675
56435W        W27964  21.056  21.685  11.459
56436W        W27965  24.298  23.249   1.316
56437W        W27966  35.113  10.699  13.750
56438W        W27967  30.396  22.951  13.856
56439W        W27968  16.164  33.873  10.486
56440W        W27969  28.061  24.593  11.144
56441W        W27970  42.995  41.881   4.698
56442W        W27971  33.533   0.710   2.219
56443W        W27972  30.372  37.109   4.310
56444W        W27973  31.184   6.857  12.194
56445W        W27974   8.206  13.372   1.699
56446W        W27975   0.376   0.292  14.317
56447W        W27976  16.107  12.963  12.044
56448W        W27977  19.559  35.369   3.399
56449W        W27978  10.885  35.403   2.235
56450W        W27979  13.883  21.551   3.141
56451W        W27980  35.185   1.855  12.054
56452W        W27981  34.676  35.013  14.726
56453W        W27982  19.786  24.188  11.579
56454W        W27983  41.941  21.061  11.140
56455W        W27984  39.975   7.838   4.094
56456W        W27985  44.816  18.868  14.763
56457W        W27986  20.915   6.720  12.461
56458W        W27987  21.128  38.935   2.793
56459W        W27988  28.618   3.499   0.420
56460W        W27989  36.443   9.384   0.546
56461W        W27990  38.966  43.193   3.299
56462W        W27991  30.455  42.826  13.843
56463W        W27992   3.235  25.862   0.207
56464W        W27993   4.944  11.074   2.330
56465W        W27994  43.167   7.738  14.272
56466W        W27995  39.623   1.319   3.518
56467W        W27996   7.691   8.108  14.900
56468W        W27997   1.495  29.365   1.977
56469W        W27998  38.305  29.137  11.595
56470W        W27999  34.874   6.438  14.355
56471W        W28000  17.192  24.772  12.825
56472W        W28001  20.876  21.206  10.553
56473W        W28002  14.616   6.831   2.347
56474W        W28003   0.460   0.538  13.563
56475W        W28004  43.022  44.062  11.655
56476W        W28005  41.042  44.296   3.362
56477W        W28006  11.353  15.298  14.513
56478W        W28007  17.620  15.349   1.329
56479W        W28008   0.418  16.324   3.175
56480W        W28009  24.469  14.716  11.633
56481W        W28010  21.609   2.706   4.576
56482W        W28011  33.124   6.178   4.194
56483W        W28012   4.663   1.927   3.208
56484W        W28013  42.926  16.071  11.457
56485W        W28014  33.456  39.500   1.183
56486W        W28015  22.726  29.989  12.485
56487W        W28016  29.186  33.893   2.114
56488W        W28017   0.319  18.089   0.620
56489W        W28018   9.790  16.048  12.037
56490W        W28019  16.175  23.963   1.338
56491W        W28020  34.398  11.274   1.446
56492W        W28021  20.586  14.812  13.971
56493W        W28022  23.232  44.214   0.848
56494W        W28023   0.325   1.209   2.346
56495W        W28024  34.778  13.738   3.701
56496W        W28025  41.335  15.263  12.551
56497W        W28026  23.161   0.271   0.888
56498W        W28027  12.133  19.627   5.029
56499W        W28028  44.272  10.815   2.367
56500W        W28029  13.485  20.107  13.565
56501W        W28030  34.882  31.384  13.954
56502W        W28031  25.880   1.587  13.948
56503W        W28032  31.934   9.635   4.850
56504W        W28033   5.738  23.214  14.360
56505W        W28034  40.847  29.693   1.329
56506W        W28035  24.984  29.536  14.377
56507W        W28036  17.773  40.387  13.961
56508W        W28037  14.635  26.082   4.726
56509W        W28038  33.346  22.197  14.024
56510W        W28039  38.565  44.800   3.669
56511W        W28040   2.361  21.731  14.597
56512W        W28041  10.591  31.899  10.733
56513W        W28042  31.568  10.782  10.439
56514W        W28043  29.444  21.118   5.131
56515W        W28044  33.925  37.567   3.423
56516W        W28045  19.623  36.026  14.848
56517W        W28046  34.335  38.425   1.708
56518W        W28047  33.210   6.265  11.595
56519W        W28048  11.397   5.151  10.823
56520W        W28049  13.818  25.198   0.488
56521W        W28050   9.298  39.470  11.431
56522W        W28051  35.017  25.489  13.981
56523W        W28052  43.451   6.691  12.781
56524W        W28053  28.640  15.101   1.231
56525W        W28054  35.593  12.691   3.250
56526W        W28055   8.173  40.439   3.800
56527W        W28056  13.900   5.990   3.223
56528W        W28057  25.032  30.518   0.594
56529W        W28058  19.557   2.157   1.833
56530W        W28059  39.600  29.599  11.293
56531W        W28060  18.558  30.320   3.304
56532W        W28061   2.794  17.826  14.373
56533W        W28062  10.521  37.994  14.482
56534W        W28063  17.230  23.267  11.400
56535W        W28064   4.344  27.726  10.408
56536W        W28065  19.333  44.223   0.719
56537W        W28066  21.547  43.814   1.187
56538W        W28067  42.576  39.891   2.721
56539W        W28068   9.395  24.998  12.307
56540W        W28069  44.422   1.862   0.429
56541W        W28070  35.148  11.678  10.280
56542W        W28071   0.033  38.966   0.682
56543W        W28072   3.905  23.983  13.441
56544W        W28073  40.398   1.057   0.495
56545W        W28074  14.860  25.626  12.055
56546W        W28075  29.964  23.045  12.944
56547W        W28076   2.965  36.982  14.349
56548W        W28077  34.844  32.718  10.866
56549W        W28078  36.625   0.317  10.448
56550W        W28079  18.784  20.965  10.788
56551W        W28080   1.594   1.175   1.736
56552W        W28081  17.791  22.463  13.612
56553W        W28082  14.343   9.144  12.413
56554W        W28083   4.209  24.102   3.665
56555W        W28084  34.286  39.449  13.048
56556W        W28085  10.666  30.936   3.865
56557W        W28086  31.592  38.194   0.521
56558W        W28087  23.116  16.286   0.356
56559W        W28088  20.835   3.013   5.234
56560W        W28089   3.213  18.609  13.166
56561W        W28090  25.810  15.660   3.472
56562W        W28091  44.232   4.849  14.458
56563W        W28092  38.375  22.033   1.146
56564W        W28093   2.394  22.679  11.542
56565W        W28094  40.004  30.213   2.567
56566W        W28095  34.539  26.559   1.164
56567W        W28096  20.729  17.586   3.190
56568W        W28097  18.809  35.220  13.763
56569W        W28098  29.543  31.793   4.033
56570W        W28099   6.717  12.762   0.908
56571W        W28100   9.168  42.258   4.755
56572W        W28101   2.953  18.615   0.428
56573W        W28102  24.628  15.012  14.192
56574W        W28103  44.952  33.683  11.647
56575W        W28104  25.660  38.014  13.054
56576W        W28105  20.255  16.804  12.314
56577W        W28106  29.475  35.128   3.705
56578W        W28107  41.026  41.887   3.681
56579W        W28108  17.187   7.592   4.037
56580W        W28109  41.273  38.353  11.564
56581W        W28110   7.412   4.815  11.958
56582W        W28111   8.623  24.387   4.944
56583W        W28112   0.673   8.798   5.102
56584W        W28113  25.982  12.155  14.411
56585W        W28114  14.689  42.800   4.423
56586W        W28115  14.284  31.869  11.965
56587W        W28116  20.643  28.825  11.553
56588W        W28117  18.330  21.882   3.371
56589W        W28118  22.468  40.555   0.966
56590W        W28119  35.760  12.806   1.982
56591W        W28120  34.025  42.217  12.869
56592W        W28121  15.673  18.731   3.588
56593W        W28122  14.107  39.075   3.713
56594W        W28123  18.263  12.317   3.241
56595W        W28124  34.196   7.236  12.753
56596W        W28125  29.097  43.486  13.304
56597W        W28126  38.301  22.631  11.414
56598W        W28127  28.026  40.025   2.725
56599W        W28128  38.444  10.106   3.734
56600W        W28129  12.434  29.737   4.546
56601W        W28130  13.762   3.754   4.553
56602W        W28131  24.638  32.099   3.635
56603W        W28132  37.974   3.451   4.027
56604W        W28133  43.904   0.289  13.544
56605W        W28134  19.599  24.803  10.765
56606W        W28135  19.085   9.212   1.834
56607W        W28136   3.710  11.162  12.927
56608W        W28137  40.028   0.829  14.044
56609W        W28138   0.551   7.271  12.002
56610W        W28139  29.493  21.808  12.239
56611W        W28140  39.578  19.646  12.959
56612W        W28141  33.155  33.247   0.731
56613W        W28142  23.710  25.483   3.128
56614W        W28143  25.123   1.331  12.796
56615W        W28144  10.823   9.435  12.502
56616W        W28145  29.547   1.158  11.087
56617W        W28146  43.068   2.730   4.940
56618W        W28147   1.284   4.304  14.668
56619W        W28148  44.443   7.210   2.661
56620W        W28149  19.050  42.905  14.250
56621W        W28150  21.182  20.484  12.810
56622W        W28151  30.953  31.635   2.630
56623W        W28152  42.010  17.533  14.943
56624W        W28153  40.474  28.228  11.505
56625W        W28154  41.051  27.675  12.920
56626W        W28155  17.159  29.700  11.652
56627W        W28156  25.563  28.147   0.257
56628W        W28157  32.463  17.781  10.391
56629W        W28158  35.115  15.660  11.799
56630W        W28159  14.519  21.937  14.388
56631W        W28160  20.478  27.926  11.677
56632W        W28161   3.823  32.530  12.202
56633W        W28162  29.150  12.129  13.829
56634W        W28163   5.122  37.786  12.933
56635W        W28164  31.403  43.807  14.861
56636W        W28165   3.527  38.837  12.630
56637W        W28166  33.747  38.260  11.173
56638W        W28167  42.593  35.428   0.382
56639W        W28168  13.247  43.309   0.323
56640W        W28169  24.267  10.563   4.033
56641W        W28170  23.023   7.347  11.084
56642W        W28171  33.086  42.759   0.701
56643W        W28172  42.243  24.994  14.040
56644W        W28173   9.269   5.811  14.643
56645W        W28174  28.409  27.631   3.326
56646W        W28175  41.427   8.400  11.108
56647W        W28176  22.572  14.597   1.299
56648W        W28177  25.831  26.047   1.956
56649W        W28178   0.024  11.074  11.618
56650W        W28179   7.684  43.054   0.538
56651W        W28180  24.071   8.897   4.448
56652W        W28181  29.123  29.150  14.951
56653W        W28182  42.963  13.899   1.411
56654W        W28183  37.952   3.400   3.496
56655W        W28184  30.778  16.751  12.386
56656W        W28185  34.153  44.683   0.385
56657W        W28186  14.339  31.958   3.765
56658W        W28187  10.139  39.573  12.333
56659W        W28188  41.967  14.397   1.420
56660W        W28189  40.096   5.347  14.695
56661W        W28190  22.915  40.540  12.084
56662W        W28191  37.323  39.711   4.304
56663W        W28192  22.238   7.900   0.798
56664W        W28193  44.485   8.466  12.052
56665W        W28194  12.289  34.596   3.851
56666W        W28195  31.889  14.789   3.620
56667W        W28196  16.121  34.968   2.231
56668W        W28197  37.269  40.832  13.322
56669W        W28198   0.548  21.984  11.529
56670W        W28199   9.438  36.059  11.171
56671W        W28200  33.120  39.501   0.738
56672W        W28201  11.347  34.917   2.712
56673W        W28202  17.342   0.926  14.441
56674W        W28203  20.132  22.070   4.211
56675W        W28204  38.095  16.000  14.862
56676W        W28205  29.162   5.420  13.342
56677W        W28206   3.384  33.607   1.966
56678W        W28207   9.448  42.974  14.890
56679W        W28208  10.807   6.643   2.363
56680W        W28209  26.283  12.606  14.351
56681W        W28210  17.199  41.212   2.414
56682W        W28211  22.683  39.408   2.455
56683W        W28212   1.741  32.653   1.763
56684W        W28213   8.687  42.341   2.046
56685W        W28214  11.099   7.328   1.276
56686W        W28215   5.559  32.583  14.356
56687W        W28216  42.833  22.698   1.175
56688W        W28217  18.032  29.116   1.829
56689W        W28218  25.702  31.158   0.781
56690W        W28219   8.233  41.732   1.917
56691W        W28220  33.370  14.634  12.476
56692W        W28221  22.931  36.883  14.775
56693W        W28222  19.096  32.611  11.242
56694W        W28223  11.286   1.327   3.577
56695W        W28224   4.710  34.373   3.246
56696W        W28225  12.849  25.979  13.494
56697W        W28226  11.389  42.634   4.460
56698W        W28227  18.489  13.155   0.448
56699W        W28228   2.785   1.972  10.612
56700W        W28229  42.558  11.278  13.067
56701W        W28230  11.009  24.583   0.340
56702W        W28231  38.408  31.141   5.005
56703W        W28232  17.587  18.060  12.908
56704W        W28233  13.749  21.242   2.717
56705W        W28234  32.843   9.030  11.369
56706W        W28235  34.588   7.309   4.227
56707W        W28236  42.065  18.100  12.165
56708W        W28237   2.484  37.385  12.888
56709W        W28238  41.816  12.859   2.229
56710W        W28239   8.374  16.335   0.742
56711W        W28240  35.309  12.083   2.516
56712W        W28241  38.754   5.194   3.975
56713W        W28242  40.899  15.817   3.309
56714W        W28243  13.058   9.129   2.566
56715W        W28244  17.814   8.247   2.357
56716W        W28245   6.035  43.613  11.634
56717W        W28246  22.067  12.688  13.811
56718W        W28247   0.478  36.007  14.954
56719W        W28248  40.329  35.641  11.177
56720W        W28249   9.238   4.700  13.363
56721W        W28250  43.532  19.864  13.795
56722W        W28251  12.233  23.173   1.161
56723W        W28252   0.895  12.140  11.789
56724W        W28253   3.273  28.752  12.521
56725W        W28254  39.770  29.715  14.953
56726W        W28255  42.976   0.887  13.996
56727W        W28256   9.809  18.084   0.829
56728W        W28257  29.398  34.758  12.916
56729W        W28258   5.989   3.830  13.694
56730W        W28259  25.602   4.200   0.804
56731W        W28260  26.638   4.999  12.893
56732W        W28261  30.517   3.586   0.918
56733W        W28262  36.546  16.667  12.982
56734W        W28263  20.264   5.366  12.648
56735W        W28264   3.492  30.635   2.794
56736W        W28265  43.570  37.082   0.181
56737W        W28266  31.940  40.290   1.579
56738W        W28267  25.476  26.106  11.149
56739W        W28268  42.025   6.221   2.760
56740W        W28269  20.376  23.506   4.109
56741W        W28270   2.369  37.864   2.396
56742W        W28271   0.879  39.178  12.658
56743W        W28272   1.734  44.872   0.955
56744W        W28273  28.602   6.450  11.440
56745W        W28274  29.492   4.345   0.893
56746W        W28275  39.849   5.682   3.205
56747W        W28276   9.673  44.769  13.477
56748W        W28277  43.753   8.494   3.113
56749W        W28278  32.630   6.148  13.961
56750W        W28279   9.133  23.106  14.430
56751W        W28280  44.450   1.316  13.017
56752W        W28281   9.920  18.297   3.686
56753W        W28282  15.347   5.351   1.288
56754W        W28283   2.043  12.816  12.226
56755W        W28284  17.794   9.428  14.031
56756W        W28285  21.834   7.233   2.726
56757W        W28286  17.067  32.377  10.695
56758W        W28287  24.701  38.603  11.576
56759W        W28288  17.629  23.837  12.836
56760W        W28289  12.902  39.572   1.794
56761W        W28290  11.820   9.791  13.520
56762W        W28291   2.185  13.764  11.131
56763W        W28292  24.548  18.111   3.716
56764W        W28293  37.788  36.893  11.957
56765W        W28294  40.340  14.298   0.721
56766W        W28295   1.057  30.456  13.965
56767W        W28296   6.034  26.913  13.357
56768W        W28297   0.488   6.446   5.074
56769W        W28298  24.190  19.584  14.871
56770W        W28299  24.523   4.021  14.308
56771W        W28300  13.066  24.279   1.019
56772W        W28301  32.521  35.608  12.699
56773W        W28302   3.881  37.487  10.453
56774W        W28303  30.886  14.746   3.731
56775W        W28304  30.504  23.426   3.662
56776W        W28305   0.511  17.276  14.702
56777W        W28306  37.974  12.737   2.294
56778W        W28307  37.990  40.840   1.656
56779W        W28308  19.342  14.780   0.368
56780W        W28309   8.757  20.262   2.490
56781W        W28310  14.867  25.074  10.276
56782W        W28311  11.057  22.749  14.470
56783W        W28312  16.783  44.637   0.328
56784W        W28313  44.551  43.348  14.855
56785W        W28314  27.981  41.625   3.741
56786W        W28315  30.818  16.820   5.102
56787W        W28316  29.849  20.206   1.894
56788W        W28317  31.471  28.220   1.727
56789W        W28318  13.799   3.404   3.727
56790W        W28319  24.214  37.136   3.392
56791W        W28320  43.462   6.229   4.053
56792W        W28321  29.942  27.247   3.235
56793W        W28322  42.960  17.574  13.947
56794W        W28323  19.094  36.772  10.448
56795W        W28324  27.929  14.786  12.388
56796W        W28325   8.745   6.865  10.807
56797W        W28326  40.436   7.028  11.560
56798W        W28327  22.607  38.071  12.906
56799W        W28328  42.334   8.164  12.901
56800W        W28329  22.538  31.479   4.606
56801W        W28330  23.766   8.722  14.504
56802W        W28331  11.633  13.298  11.172
56803W        W28332  42.023  30.695   2.734
56804W        W28333  17.850  23.068  14.390
56805W        W28334   6.273   6.258  10.738
56806W        W28335  12.893   6.362  14.424
56807W        W28336   9.649  26.181  14.482
56808W        W28337  42.949  13.899  13.390
56809W        W28338  22.655  28.550  11.890
56810W        W28339   2.171  11.163   0.911
56811W        W28340  17.546  36.057  14.401
56812W        W28341  23.292  38.825  12.005
56813W        W28342  32.472  38.706  14.308
56814W        W28343  37.811   1.987  14.862
56815W        W28344  36.016   9.065   0.506
56816W        W28345  25.053  44.608  10.866
56817W        W28346  25.149   8.664   2.662
56818W        W28347  22.030  35.696   2.188
56819W        W28348  11.001  18.422   3.678
56820W        W28349  42.906  38.094  11.588
56821W        W28350   5.261  11.952  14.330
56822W        W28351  17.055  18.139  11.291
56823W        W28352  37.427   5.190   1.139
56824W        W28353  41.004   8.299  13.494
56825W        W28354  23.522   5.359   0.406
56826W        W28355  29.455  19.368  14.969
56827W        W28356  22.062   5.363   1.408
56828W        W28357  24.038  20.213  12.098
56829W        W28358  41.104  33.679  13.026
56830W        W28359  11.155  34.541  12.872
56831W        W28360  12.656  32.148   3.248
56832W        W28361  11.343  21.722  10.595
56833W        W28362  39.263  15.639   1.991
56834W        W28363  19.935  32.340   2.976
56835W        W28364  22.682   5.202   2.615
56836W        W28365  15.288   3.815  10.914
56837W        W28366  38.488   1.790  13.909
56838W        W28367  20.000   6.080   2.258
56839W        W28368   4.909   0.479  12.879
56840W        W28369  16.487   2.459   3.598
56841W        W28370  29.411  24.029  12.532
56842W        W28371  10.388  34.576  13.540
56843W        W28372  34.078  23.622  11.192
56844W        W28373  20.531  39.432   0.814
56845W        W28374  13.498  24.403  13.893
56846W        W28375  13.911  28.005  14.693
56847W        W28376   6.499  23.966  13.708
56848W        W28377  24.562  16.227  11.624
56849W        W28378  10.275  39.126   2.656
56850W        W28379  20.809  37.399  14.382
56851W        W28380   2.965  22.168   0.364
56852W        W28381  32.870  15.101  11.392
56853W        W28382   6.333  31.723   1.908
56854W        W28383  38.726  20.166  12.335
56855W        W28384  23.142   8.837   2.257
56856W        W28385   5.512  17.097  12.492
56857W        W28386   5.625  14.218   4.525
56858W        W28387   3.967  30.030  11.310
56859W        W28388   8.138  28.920  11.610
56860W        W28389  12.403  40.078   1.984
56861W        W28390  28.653  16.280   0.342
56862W        W28391  34.614  41.929   4.661
56863W        W28392   0.345  12.833   2.744
56864W        W28393  19.423   3.579   3.342
56865W        W28394  14.873  39.075   4.361
56866W        W28395  13.184  44.257   2.773
56867W        W28396  16.810  36.861   3.139
56868W        W28397   5.832  13.359  12.488
56869W        W28398   9.852  37.903  11.531
56870W        W28399  18.889   1.940   0.690
56871W        W28400  11.825  33.546   3.645
56872W        W28401  20.675  32.059   0.207
56873W        W28402   1.175  14.056  14.727
56874W        W28403  11.301  41.146   1.872
56875W        W28404   0.262   4.381   0.488
56876W        W28405  23.158   7.181   3.891
56877W        W28406  21.740  12.348   0.380
56878W        W28407  29.564  18.989  10.645
56879W        W28408  41.014  36.983  11.788
56880W        W28409  28.023  30.386  14.886
56881W        W28410  29.495  29.248  12.943
56882W        W28411   0.343   6.449  13.238
56883W        W28412  23.004  30.630  14.467
56884W        W28413   1.526  36.965   4.552
56885W        W28414   1.258   0.171   4.075
56886W        W28415  14.983  39.990   1.056
56887W        W28416  28.240   2.933   1.457
56888W        W28417   0.960  39.404   1.461
56889W        W28418  29.673   6.145  13.461
56890W        W28419   5.582   4.676  11.634
56891W        W28420  16.137  26.500   2.194
56892W        W28421   1.881  18.576   3.051
56893W        W28422  40.485  16.333   0.482
56894W        W28423   2.589   4.554  12.410
56895W        W28424  42.780   1.978  12.073
56896W        W28425  13.785  25.585  12.578
56897W        W28426   8.604  43.938   0.293
56898W        W28427   2.115  27.147   1.374
56899W        W28428  30.294  21.498   1.936
56900W        W28429  33.185   6.806  11.145
56901W        W28430  41.281  29.495  13.947
56902W        W28431  38.441  41.760  13.722
56903W        W28432  12.350  43.475   4.208
56904W        W28433   0.550   2.433  14.959
56905W        W28434  29.048   3.495  12.014
56906W        W28435  16.715  21.071  10.724
56907W        W28436  39.890  19.606   1.253
56908W        W28437   5.455   7.315  13.454
56909W        W28438  10.185  19.762  14.268
56910W        W28439  41.866  25.444   0.687
56911W        W28440  30.470   3.473   3.777
56912W        W28441  34.044   1.998   3.811
56913W        W28442   2.808  31.143   1.545
56914W        W28443  11.227   7.292  12.861
56915W        W28444   1.122   3.998   1.836
56916W        W28445   1.880  23.218   1.445
56917W        W28446  16.599  36.475   1.050
56918W        W28447  12.081  14.854  12.048
56919W        W28448  14.242  36.559  12.065
56920W        W28449   7.148  19.375  10.983
56921W        W28450  33.631   9.386  14.779
56922W        W28451   4.460  36.755  13.434
56923W        W28452  41.207  41.386  14.166
56924W        W28453  18.735  42.757   0.411
56925W        W28454   2.396  22.249   1.463
56926W        W28455   3.893  25.771  12.119
56927W        W28456  14.410  37.433  11.395
56928W        W28457  31.844  39.279  11.151
56929W        W28458  29.134  37.382   1.513
56930W        W28459  17.760  33.433   3.223
56931W        W28460  32.420  20.218   4.416
56932W        W28461  36.330  32.618   2.964
56933W        W28462   1.782  23.474   1.881
56934W        W28463   3.588   8.997  13.821
56935W        W28464   5.163  13.154  14.006
56936W        W28465   9.672  29.028   3.348
56937W        W28466  10.083  23.677  14.439
56938W        W28467  36.414  42.758   4.870
56939W        W28468  43.804  28.584  14.217
56940W        W28469  39.032  39.498   4.613
56941W        W28470   5.973   7.655  12.385
56942W        W28471   4.841  12.871   2.640
56943W        W28472  14.317  13.748  13.124
56944W        W28473  21.382  42.981   2.427
56945W        W28474   9.871   8.583  11.071
56946W        W28475  32.882  20.012  14.400
56947W        W28476  13.569  43.164   1.884
56948W        W28477  36.501  41.459   9.837
56949W        W28478  31.324  17.676   3.569
56950W        W28479  13.124  17.374  10.959
56951W        W28480   0.526  17.440   4.186
56952W        W28481  32.469  44.834   1.871
56953W        W28482  34.538   1.100   2.919
56954W        W28483  30.609   9.157  14.536
56955W        W28484  37.884  10.416   1.729
56956W        W28485  17.588   4.239  11.932
56957W        W28486  27.533  35.891   1.875
56958W        W28487  20.574  32.254  13.443
56959W        W28488  25.785  33.090   4.071
56960W        W28489  18.557   4.920   3.122
56961W        W28490  21.018  14.385  12.462
56962W        W28491  34.112  14.537   0.296
56963W        W28492   5.358  20.501  13.468
56964W        W28493  24.662   4.703   4.526
56965W        W28494  15.440  30.544   0.921
56966W        W28495  37.497  14.699  14.347
56967W        W28496   5.248  16.179   2.811
56968W        W28497  30.887  36.701   0.969
56969W        W28498  27.844  14.052  10.705
56970W        W28499  21.956  13.189  10.682
56971W        W28500  41.232  43.546  12.026
56972W        W28501  40.793   1.042   0.131
56973W        W28502  29.088  26.300   1.950
56974W        W28503  40.766  10.716   4.048
56975W        W28504  23.142  30.733   2.137
56976W        W28505  29.541  36.056   3.556
56977W        W28506  42.844   5.089   2.733
56978W        W28507  32.129   0.513   9.900
56979W        W28508  31.174  10.821   2.698
56980W        W28509   1.769   6.103  11.021
56981W        W28510  34.113  12.894   1.070
56982W        W28511  24.278  30.042  12.598
56983W        W28512  16.226  31.387  14.324
56984W        W28513  26.335  11.633   4.879
56985W        W28514  10.142  14.303  14.587
56986W        W28515   6.860  26.337   2.708
56987W        W28516  30.525  11.390   4.822
56988W        W28517  39.928   3.880   3.531
56989W        W28518  29.916   7.700   1.009
56990W        W28519  31.140  33.400  13.809
56991W        W28520  24.462  41.135  11.422
56992W        W28521   0.556   4.132  11.397
56993W        W28522  33.891  43.770  11.413
56994W        W28523   0.561   1.449  14.453
56995W        W28524  14.529   3.557   0.746
56996W        W28525  22.057  14.298  11.166
56997W        W28526  18.085  33.827  10.637
56998W        W28527   7.425  25.155  12.500
56999W        W28528   2.482   8.760   3.829
57000W        W28529   6.181  41.096  10.555
57001W        W28530  32.192  34.132  12.980
57002W        W28531   3.465  16.149  11.540
57003W        W28532  18.610  22.561  13.289
57004W        W28533  18.014  16.433  12.008
57005W        W28534   8.183  13.756   1.342
57006W        W28535   5.411  30.080  12.700
57007W        W28536   8.827  40.138   1.847
57008W        W28537  43.510  31.107  11.248
57009W        W28538  24.665  22.826   0.101
57010W        W28539  22.545  20.312   1.810
57011W        W28540   3.960   9.286  14.095
57012W        W28541   7.538   3.381   1.295
57013W        W28542  35.247  27.860   4.148
57014W        W28543   2.476  25.106  14.404
57015W        W28544   0.996  21.512  13.986
57016W        W28545  38.532  14.615   0.763
57017W        W28546  23.456   5.426   2.165
57018W        W28547  14.963  26.946  12.196
57019W        W28548   2.906   7.615  13.037
57020W        W28549   5.813   7.365   0.077
57021W        W28550  41.748  15.816   0.226
57022W        W28551  31.928  35.689   1.889
57023W        W28552  12.755  34.833  14.803
57024W        W28553   0.529   9.301  14.057
57025W        W28554   2.781  35.135  11.122
57026W        W28555  21.421  10.792   0.820
57027W        W28556   5.326   0.460  13.784
57028W        W28557  40.212  23.585   4.053
57029W        W28558  40.514  37.930   2.653
57030W        W28559   6.381  19.339  12.217
57031W        W28560  28.654  42.325  14.768
57032W        W28561  37.948  18.546  12.090
57033W        W28562  20.802  10.357  12.623
57034W        W28563  16.450  26.130  12.874
57035W        W28564  20.147  30.806  11.446
57036W        W28565  37.820   2.919   4.735
57037W        W28566  41.294  33.193  12.415
57038W        W28567  37.426   9.886  13.989
57039W        W28568  22.327  42.636   2.170
57040W        W28569  43.372  13.915   2.576
57041W        W28570  37.046  30.360   3.226
57042W        W28571  28.912  18.008  12.872
57043W        W28572   9.330  28.620   0.168
57044W        W28573   7.663  33.389   2.659
57045W        W28574  23.102  25.982  13.118
57046W        W28575   2.034  22.168   0.506
57047W        W28576  17.751  13.615  13.691
57048W        W28577  33.987   9.576   3.800
57049W        W28578  42.560  11.679  12.487
57050W        W28579  25.569  32.063   1.672
57051W        W28580  43.501  34.422  11.249
57052W        W28581  24.546  28.936   0.988
57053W        W28582  35.243  39.059  14.743
57054W        W28583  40.578  40.034  11.284
57055W        W28584  33.885  37.157  12.823
57056W        W28585  14.401  34.841   3.243
57057W        W28586  12.191  21.034   0.421
57058W        W28587  18.984   0.628   0.328
57059W        W28588  16.245  23.046   1.660
57060W        W28589  33.571  44.307  14.826
57061W        W28590   9.526  16.304  12.418
57062W        W28591  13.784   3.658  14.539
57063W        W28592  39.102  30.471   4.630
57064W        W28593   8.273  37.294   1.506
57065W        W28594  17.120  12.163   0.860
57066W        W28595  23.494   1.323  11.684
57067W        W28596  23.495  27.658   0.512
57068W        W28597  36.033  17.050   0.739
57069W        W28598  41.955  22.973   2.307
57070W        W28599  16.176  19.051   3.328
57071W        W28600  13.115  15.354  10.512
57072W        W28601  38.854  31.116   4.258
57073W        W28602  22.279   6.648   0.335
57074W        W28603  40.204  17.194  13.931
57075W        W28604   3.851  36.597   3.634
57076W        W28605  39.525  32.149  12.085
57077W        W28606  40.274  15.358   2.577
57078W        W28607  20.682  16.116   0.303
57079W        W28608   6.790  35.627   2.744
57080W        W28609   5.726  31.406   3.176
57081W        W28610   4.970  40.561  13.074
57082W        W28611  14.553  21.660   2.640
57083W        W28612  26.827  15.358  10.041
57084W        W28613   1.816  16.227   3.667
57085W        W28614  27.035  17.538   0.313
57086W        W28615   2.136   1.874  14.275
57087W        W28616  32.996  21.867  14.231
57088W        W28617  20.369   5.302   0.790
57089W        W28618  11.917  30.622   3.788
57090W        W28619  30.605  13.801   2.401
57091W        W28620  38.798  43.066   0.299
57092W        W28621  13.159  26.167   1.564
57093W        W28622  33.123  37.869  14.557
57094W        W28623  43.139  24.601   2.708
57095W        W28624  17.836  20.277   1.379
57096W        W28625  17.061  24.517   1.754
57097W        W28626   2.174  20.566   0.522
57098W        W28627  24.096  39.076  12.471
57099W        W28628   3.192  42.819   2.158
57100W        W28629  29.324   4.391   2.743
57101W        W28630  13.704  25.702   2.541
57102W        W28631  33.340  34.508  10.628
57103W        W28632   4.686  42.303  12.506
57104W        W28633  33.561  23.158  10.095
57105W        W28634  29.188  16.137   4.745
57106W        W28635  42.830  40.086  13.069
57107W        W28636  18.332   4.095   3.401
57108W        W28637   5.004  42.079  12.974
57109W        W28638  19.502  23.530   1.018
57110W        W28639   9.701  29.600   0.761
57111W        W28640  41.471  38.636   4.734
57112W        W28641  43.840  44.352  12.887
57113W        W28642  44.302  40.875   2.771
57114W        W28643   9.266  32.975  11.895
57115W        W28644  30.205  35.877  12.840
57116W        W28645  14.039  19.417   1.813
57117W        W28646  32.631  15.049  13.921
57118W        W28647   6.061  15.648  10.263
57119W        W28648  32.043  43.236  13.928
57120W        W28649  40.292  12.481  11.192
57121W        W28650  16.527   4.802  10.601
57122W        W28651  19.804  23.204   0.732
57123W        W28652  37.385  14.513  10.956
57124W        W28653  40.053  15.791  12.694
57125W        W28654  42.456   0.966   2.930
57126W        W28655  43.109  28.808  14.772
57127W        W28656  16.927   3.825   1.595
57128W        W28657  18.619  17.518   3.178
57129W        W28658  43.106   3.945  13.858
57130W        W28659  34.320   9.646  11.086
57131W        W28660  19.782   2.306   0.017
57132W        W28661  26.470   1.978   2.394
57133W        W28662  16.701   5.004  11.070
57134W        W28663  42.896  12.209   0.780
57135W        W28664  10.035   4.050   3.971
57136W        W28665  20.714  19.830   3.647
57137W        W28666  28.468  13.571   2.237
57138W        W28667  42.176  20.035   3.135
57139W        W28668  25.593  23.331  14.448
57140W        W28669  34.981   5.864  13.458
57141W        W28670   8.692   1.267   4.054
57142W        W28671  29.100  43.271   2.408
57143W        W28672  11.465  40.379  12.000
57144W        W28673   6.319  17.984   0.225
57145W        W28674   2.288  15.192   0.912
57146W        W28675  30.598  15.868   3.701
57147W        W28676  31.384   6.064   3.881
57148W        W28677   2.055  37.378  14.449
57149W        W28678  24.490  40.778   0.707
57150W        W28679  42.938  26.677  11.434
57151W        W28680   4.954   7.324   1.750
57152W        W28681  31.228  29.134   2.269
57153W        W28682  41.017  27.599   3.871
57154W        W28683   2.881   1.219   2.247
57155W        W28684  24.577   2.913   1.705
57156W        W28685  17.116  19.136  14.321
57157W        W28686  40.437  10.674  14.449
57158W        W28687  35.103  35.769   4.589
57159W        W28688  18.068  36.481  12.760
57160W        W28689  42.757  19.557   1.630
57161W        W28690   4.882  41.472  11.024
57162W        W28691  32.399  15.374  13.541
57163W        W28692  39.721  40.731  14.366
57164W        W28693  32.693  15.520  10.756
57165W        W28694  41.647  20.177   1.182
57166W        W28695   7.170  39.058  12.874
57167W        W28696  43.966  15.550  12.336
57168W        W28697  10.806  39.085   1.754
57169W        W28698   2.213  44.422  11.501
57170W        W28699  18.984   3.241  14.928
57171W        W28700  18.095  30.753   4.563
57172W        W28701  36.120   1.405  14.810
57173W        W28702  40.826  17.319   4.670
57174W        W28703  25.881  25.226   1.527
57175W        W28704   6.630  26.559  11.063
57176W        W28705  35.890   6.713   0.471
57177W        W28706  26.545  15.181   3.110
57178W        W28707  21.570  20.726   4.004
57179W        W28708  29.097  43.921  11.919
57180W        W28709  43.571   2.101   2.708
57181W        W28710  23.738  30.573  12.920
57182W        W28711  14.091  11.806   4.239
57183W        W28712  10.732  34.089   4.141
57184W        W28713  20.676  13.131   2.232
57185W        W28714  10.674   0.298   4.164
57186W        W28715  11.711  13.860   2.747
57187W        W28716  30.745  19.800  12.373
57188W        W28717  14.319  19.649   2.202
57189W        W28718  27.393   4.643   1.299
57190W        W28719  31.862  13.335  13.163
57191W        W28720  17.097   1.800  11.694
57192W        W28721  33.501  27.416  13.350
57193W        W28722   7.931  34.286   2.927
57194W        W28723  10.135  41.386  10.705
57195W        W28724  36.944   7.628  13.051
57196W        W28725  31.805  13.355  10.272
57197W        W28726  10.729  40.009  11.168
57198W        W28727  20.708  15.842   1.287
57199W        W28728  11.595  30.026   3.678
57200W        W28729   9.413  41.637  14.792
57201W        W28730  37.013  12.103   0.826
57202W        W28731  29.720  40.984   4.707
57203W        W28732  20.085  42.789  10.649
57204W        W28733  20.700   8.930  12.260
57205W        W28734  39.525  42.481  14.895
57206W        W28735  21.038   5.867   3.356
57207W        W28736  39.585  20.071   1.263
57208W        W28737  37.057   1.941  12.016
57209W        W28738  17.864  13.887   0.232
57210W        W28739  39.849  18.813  11.665
57211W        W28740  18.046  19.563  13.100
57212W        W28741  31.204  27.056  13.465
57213W        W28742  37.935  37.126   0.204
57214W        W28743  12.821  14.693  13.333
57215W        W28744  18.278  32.974  14.836
57216W        W28745  40.264  13.517   0.235
57217W        W28746  21.125  24.588  14.884
57218W        W28747  14.316  19.585  11.134
57219W        W28748   2.852  34.468  11.844
57220W        W28749  30.372  33.000   1.320
57221W        W28750  25.216   8.172  10.766
57222W        W28751  12.378  17.475   1.236
57223W        W28752  10.382  30.906   0.730
57224W        W28753  39.041  35.380  11.685
57225W        W28754  24.243  44.916  10.557
57226W        W28755  16.390  18.948   9.771
57227W        W28756  42.536   6.540  13.752
57228W        W28757  26.082   7.230  11.992
57229W        W28758   6.701   5.421  11.805
57230W        W28759  16.900  35.977  13.959
57231W        W28760   9.641  34.379   0.296
57232W        W28761  40.819   8.387   4.487
57233W        W28762  29.405  27.959  12.018
57234W        W28763  22.190  11.177  12.463
57235W        W28764   2.043  21.558   1.800
57236W        W28765  30.052  25.988   2.599
57237W        W28766  26.587  24.662   1.339
57238W        W28767  18.774  44.214   4.143
57239W        W28768  41.233  21.726   2.302
57240W        W28769   3.308  31.887  10.518
57241W        W28770  11.207  20.201   2.702
57242W        W28771   3.030  28.708   0.279
57243W        W28772  31.467  35.641  11.640
57244W        W28773   9.206  26.974   2.621
57245W        W28774  34.609  14.701   0.470
57246W        W28775  17.060  27.369   3.568
57247W        W28776  10.796  32.785   2.437
57248W        W28777  10.952  44.958   0.051
57249W        W28778  26.202  29.491  10.859
57250W        W28779  29.566  30.995  10.913
57251W        W28780  29.196   9.819  14.828
57252W        W28781  30.084   5.308   4.451
57253W        W28782  18.402  31.225   2.874
57254W        W28783  44.172   5.693   4.944
57255W        W28784   0.245  41.406   4.677
57256W        W28785  44.478  29.603   4.992
57257W        W28786  13.347  33.404   1.206
57258W        W28787  31.417  32.132   2.682
57259W        W28788  32.900  14.469  12.567
57260W        W28789  30.223  39.888  10.709
57261W        W28790  13.272  34.414  11.977
57262W        W28791  23.906  17.131  12.932
57263W        W28792   0.962   8.549   1.760
57264W        W28793  36.446  12.356   4.139
57265W        W28794  19.041  15.555  13.867
57266W        W28795  40.287  13.705  10.851
57267W        W28796   3.396   5.236   4.005
57268W        W28797   4.192  42.800  10.530
57269W        W28798  28.283  12.979  13.232
57270W        W28799   5.505  35.600   0.999
57271W        W28800  24.121  34.527   1.001
57272W        W28801  24.594  16.542  12.974
57273W        W28802  10.235  13.054  12.993
57274W        W28803  37.019  15.232   0.480
57275W        W28804  16.505  21.705   3.534
57276W        W28805  21.130   8.381   1.198
57277W        W28806  24.024  24.520  12.242
57278W        W28807  31.484  20.073  11.495
57279W        W28808  26.938  17.041   2.637
57280W        W28809  44.607  42.503   0.866
57281W        W28810   3.288  15.798   9.834
57282W        W28811  13.801  34.437   0.831
57283W        W28812   0.999  42.743  11.688
57284W        W28813  12.885   4.817   1.924
57285W        W28814  26.116  34.833   3.637
57286W        W28815  33.287  12.964  11.195
57287W        W28816  22.510   7.365   3.804
57288W        W28817  40.881  36.306  11.152
57289W        W28818  24.721  12.150   1.833
57290W        W28819  32.601   1.068  12.439
57291W        W28820  24.136  44.742   0.779
57292W        W28821   2.689  20.591  14.703
57293W        W28822  28.065  24.698   0.572
57294W        W28823  28.882  39.901   2.136
57295W        W28824   2.628  18.797  14.650
57296W        W28825  44.629  36.019   1.447
57297W        W28826  16.013  35.986   4.256
57298W        W28827   1.277  28.688  14.541
57299W        W28828   1.005  16.023   0.754
57300W        W28829  20.778  29.986  13.370
57301W        W28830  21.145  31.168   0.554
57302W        W28831  36.987  33.388  12.427
57303W        W28832  10.124   7.267  10.539
57304W        W28833  27.570   1.377   0.709
57305W        W28834  19.159  30.345   1.142
57306W        W28835  20.378  13.053  14.022
57307W        W28836   6.710  39.958   2.646
57308W        W28837   8.675   0.771  13.066
57309W        W28838   6.169   4.648  12.341
57310W        W28839  44.240  42.138   0.874
57311W        W28840  32.351  30.737  14.839
57312W        W28841  34.990  39.117  11.004
57313W        W28842  41.953  23.401   3.172
57314W        W28843   4.725  42.835   3.776
57315W        W28844   6.463   7.146   1.244
57316W        W28845  27.790  28.208  13.426
57317W        W28846   9.102  37.011   2.279
57318W        W28847  28.359  42.809   2.836
57319W        W28848  30.525  44.618  12.220
57320W        W28849  23.696  14.228   3.217
57321W        W28850  13.300  22.983   2.199
57322W        W28851  29.111   8.228   0.894
57323W        W28852  13.142  19.910  10.383
57324W        W28853  38.827   3.377   3.998
57325W        W28854  38.002  13.631   4.629
57326W        W28855  21.038   7.222   0.202
57327W        W28856  28.730  12.326   2.802
57328W        W28857  32.134  17.269  11.737
57329W        W28858  39.533  44.518   2.823
57330W        W28859  22.179  32.082   5.136
57331W        W28860  14.073  39.381   0.688
57332W        W28861   3.461  11.388   3.283
57333W        W28862  35.517  30.020   0.262
57334W        W28863  36.565  42.487  11.410
57335W        W28864   1.182  12.190  13.156
57336W        W28865  14.163  42.302   0.909
57337W        W28866  35.740   4.697  12.603
57338W        W28867  35.813  17.198  11.127
57339W        W28868  12.936  11.492  12.104
57340W        W28869  36.333  32.003  12.508
57341W        W28870  17.691  22.118  13.980
57342W        W28871  24.984  39.466   1.784
57343W        W28872  31.590  27.669  11.485
57344W        W28873  33.636   6.626   0.937
57345W        W28874  39.154  22.910  10.946
57346W        W28875  20.224  22.806   1.911
57347W        W28876  20.623  12.575  14.018
57348W        W28877  19.017  41.704  13.867
57349W        W28878  30.390  16.953  14.782
57350W        W28879  35.338  24.002  14.700
57351W        W28880  35.453   0.664  12.147
57352W        W28881  33.599  42.836   4.155
57353W        W28882   4.175  42.010  11.066
57354W        W28883  23.646   5.590  13.468
57355W        W28884  39.972  32.274  11.324
57356W        W28885  35.095  21.092  11.756
57357W        W28886  29.464  33.000   1.805
57358W        W28887   5.051  40.865   2.609
57359W        W28888   2.887   5.389   3.601
57360W        W28889  29.369   8.704  10.728
57361W        W28890  11.514  26.690   4.338
57362W        W28891  32.093  35.925  10.151
57363W        W28892  35.990  19.300   4.636
57364W        W28893  40.765  37.068  10.504
57365W        W28894  17.288  38.457   0.176
57366W        W28895   7.788  24.693   0.844
57367W        W28896  17.349  26.195  11.603
57368W        W28897  16.157  18.560  14.380
57369W        W28898  16.629  39.456   4.654
57370W        W28899  28.102  42.594   4.979
57371W        W28900  40.349  11.151   4.727
57372W        W28901  23.047  37.572  12.370
57373W        W28902   3.805  23.655   2.335
57374W        W28903   6.200  25.550  12.457
57375W        W28904  43.306   2.302   1.875
57376W        W28905   3.520  17.002  12.977
57377W        W28906  12.243  22.812  13.382
57378W        W28907  37.040  29.693  14.897
57379W        W28908  22.574  18.589   4.893
57380W        W28909   8.227  42.423   4.643
57381W        W28910  38.056   3.542  12.409
57382W        W28911  33.512  18.115  10.102
57383W        W28912   0.783   8.232   0.500
57384W        W28913  20.688   7.243   4.629
57385W        W28914  14.253  11.642  14.301
57386W        W28915  10.729  17.366  12.081
57387W        W28916  38.097  42.898   4.235
57388W        W28917  31.914  34.088   4.978
57389W        W28918  33.843  27.154  11.141
57390W        W28919   9.870  23.605  13.544
57391W        W28920  25.716   9.987  13.270
57392W        W28921  38.732  38.250  14.250
57393W        W28922  42.927   4.775  11.330
57394W        W28923  17.658  43.761  12.508
57395W        W28924  10.686   3.236   3.098
57396W        W28925  37.336  37.579  10.674
57397W        W28926  39.180   5.771  10.289
57398W        W28927  10.247  17.737   0.841
57399W        W28928   9.477  26.332   3.203
57400W        W28929   7.726  18.824  11.589
57401W        W28930   0.797  21.158   3.687
57402W        W28931  30.612  41.090   4.289
57403W        W28932  27.052   6.194   0.903
57404W        W28933  26.020  40.039  12.990
57405W        W28934  42.880  39.046   1.832
57406W        W28935   5.360  31.212   1.865
57407W        W28936  25.865  23.810   3.581
57408W        W28937  40.088  42.829   3.859
57409W        W28938   8.200  30.156   1.948
57410W        W28939   2.000   1.739  13.425
57411W        W28940  20.460  32.004  12.203
57412W        W28941   8.185  15.125   2.115
57413W        W28942  20.626  13.851   3.073
57414W        W28943   0.559   6.189  14.106
57415W        W28944  25.914  41.147   2.738
57416W        W28945   4.905  28.815   4.675
57417W        W28946  24.648  14.704  14.974
57418W        W28947  39.790  29.591   3.711
57419W        W28948   1.531   8.988   2.943
57420W        W28949  24.907  40.861   3.612
57421W        W28950  25.384  37.488   1.409
57422W        W28951   0.604  18.084  14.095
57423W        W28952  31.500  41.663   4.362
57424W        W28953  21.172  38.104   4.580
57425W        W28954  37.634  21.187  12.028
57426W        W28955  27.490  17.770   0.357
57427W        W28956  44.849  19.690   3.630
57428W        W28957  15.180   3.123   1.216
57429W        W28958   6.259  24.446  11.562
57430W        W28959  37.253  16.545   2.906
57431W        W28960  22.982   9.325   1.036
57432W        W28961  41.871   5.301  11.668
57433W        W28962   0.895   2.412  13.452
57434W        W28963  20.770   6.872  14.868
57435W        W28964  32.946   8.458  14.080
57436W        W28965  38.348  31.608   0.517
57437W        W28966  17.722  38.258  11.632
57438W        W28967  14.301   0.580   4.332
57439W        W28968  16.576  19.277   3.606
57440W        W28969  18.057   1.193   1.604
57441W        W28970   2.992  42.359   2.266
57442W        W28971  36.070   3.168  10.531
57443W        W28972   5.119  37.292  12.876
57444W        W28973  24.712  36.132  13.493
57445W        W28974  40.906  33.865   1.861
57446W        W28975  22.658  19.260   3.208
57447W        W28976   7.089  18.624  13.296
57448W        W28977  29.336   9.725  12.553
57449W        W28978  24.124  41.180   0.791
57450W        W28979  13.739  42.454   4.222
57451W        W28980  13.528  10.663  14.576
57452W        W28981  38.799  15.659   3.717
57453W        W28982  29.088  21.053  14.966
57454W        W28983  37.470  31.676  12.558
57455W        W28984   4.694  33.627   0.822
57456W        W28985  33.189  10.677  14.512
57457W        W28986   9.671  38.475   0.350
57458W        W28987  14.793  33.911  11.014
57459W        W28988  39.471  26.576  13.788
57460W        W28989   6.440   4.968  11.065
57461W        W28990   1.376  33.847   4.042
57462W        W28991  17.683  30.677  12.896
57463W        W28992   7.917  22.796  13.737
57464W        W28993  37.090  10.128   0.320
57465W        W28994   5.039  26.163   4.626
57466W        W28995  44.999  44.736  11.946
57467W        W28996  27.770   4.537   9.922
57468W        W28997  34.378  19.169  12.159
57469W        W28998  25.570  11.646  14.233
57470W        W28999   3.318  25.764  13.442
57471W        W29000  14.400  32.551   0.050
57472W        W29001  27.715  26.743  11.107
57473W        W29002  44.475  33.096   0.168
57474W        W29003   9.282  16.775  10.422
57475W        W29004  26.412  18.554  13.059
57476W        W29005   2.785  32.627   3.856
57477W        W29006  23.672  39.005   1.875
57478W        W29007  10.100   7.403  14.321
57479W        W29008  18.830  31.594   4.107
57480W        W29009  18.500  22.246   1.975
57481W        W29010   4.467  24.249   4.101
57482W        W29011  28.907  27.831   2.526
57483W        W29012   5.050  24.046   3.290
57484W        W29013  23.771  37.580   0.537
57485W        W29014  41.431   3.541  14.112
57486W        W29015  31.601  44.935  12.130
57487W        W29016  43.936   2.122  12.009
57488W        W29017   9.705  12.275   2.316
57489W        W29018   7.100   9.946  13.583
57490W        W29019  14.354   7.657  13.896
57491W        W29020  23.731   6.884  14.908
57492W        W29021  20.830  11.554  11.102
57493W        W29022  37.310   6.197  11.624
57494W        W29023  34.789   7.313  11.612
57495W        W29024  16.170  15.574  12.543
57496W        W29025  31.074  12.787  13.491
57497W        W29026  38.051  27.459   4.079
57498W        W29027   7.991  42.770  14.101
57499W        W29028  24.972  29.890   4.135
57500W        W29029   2.736  41.976  12.482
57501W        W29030  40.919  34.656   4.468
57502W        W29031  18.993  37.605  14.501
57503W        W29032  10.561  38.377   3.205
57504W        W29033  25.068  33.185   1.221
57505W        W29034  27.850  35.982   0.291
57506W        W29035  13.236  22.528   2.501
57507W        W29036  37.568  41.055  12.974
57508W        W29037  24.549  29.639  13.280
57509W        W29038  43.947  44.044   3.325
57510W        W29039  39.971  34.685  11.285
57511W        W29040  36.480  32.293  13.670
57512W        W29041  26.731  12.182   0.742
57513W        W29042   0.702  16.515  13.899
57514W        W29043  40.271   6.842  12.789
57515W        W29044  12.039  29.098  14.974
57516W        W29045  44.487   6.875  11.828
57517W        W29046  16.428   4.498  13.505
57518W        W29047  26.760   3.237   0.285
57519W        W29048  39.378  13.087   0.529
57520W        W29049  12.249  18.980  10.397
57521W        W29050  22.456  13.209   0.042
57522W        W29051   1.136  25.907   4.426
57523W        W29052  28.564  26.666   4.166
57524W        W29053   7.661   7.252  12.095
57525W        W29054  13.814   0.399  13.285
57526W        W29055  26.964  41.302   0.248
57527W        W29056  10.687  21.933   4.600
57528W        W29057  22.123  27.903  10.623
57529W        W29058  21.618  33.138  12.855
57530W        W29059   7.084  15.176  11.629
57531W        W29060   8.408  41.616   0.919
57532W        W29061  16.557  41.466   0.338
57533W        W29062  27.169  36.454   3.162
57534W        W29063  31.700   1.137   1.240
57535W        W29064  15.319  19.404  13.647
57536W        W29065  38.844   5.272  11.105
57537W        W29066  22.216   6.906   0.981
57538W        W29067  31.123   4.615  10.930
57539W        W29068   3.862  32.833   2.382
57540W        W29069  11.776  24.695   0.938
57541W        W29070  10.978   8.727   3.757
57542W        W29071  43.446  32.479  12.922
57543W        W29072  26.095  25.137   5.039
57544W        W29073  14.207  31.652  10.703
57545W        W29074  42.024  25.017   5.116
57546W        W29075  22.712  23.340  10.535
57547W        W29076  33.936  38.238  13.525
57548W        W29077   2.357  14.212   0.835
57549W        W29078  24.003  38.671  11.029
57550W        W29079   4.686  30.656   4.104
57551W        W29080  26.389  14.222   1.730
57552W        W29081  17.775  42.912   2.632
57553W        W29082  12.685  10.677   4.097
57554W        W29083   7.576  18.769  13.360
57555W        W29084  28.654  19.678   3.027
57556W        W29085  30.213  22.582   0.442
57557W        W29086  25.155  35.484  12.636
57558W        W29087   2.403  28.004  10.034
57559W        W29088  33.356  25.467   2.082
57560W        W29089  44.980  20.992  12.449
57561W        W29090  39.118  16.120  11.147
57562W        W29091  19.231   0.498   1.212
57563W        W29092  41.479   3.745  11.068
57564W        W29093   1.862  39.110   2.567
57565W        W29094  35.053  15.497  12.677
57566W        W29095  43.735  20.563   2.426
57567W        W29096  28.463  19.256  11.454
57568W        W29097  12.371  22.117  12.162
57569W        W29098  43.823  36.419  13.382
57570W        W29099  10.467  43.546   4.102
57571W        W29100  41.608   7.737  14.372
57572W        W29101  19.836  10.197   4.594
57573W        W29102  31.954   3.385  14.309
57574W        W29103  24.665  13.794   0.022
57575W        W29104   7.863   6.288   3.114
57576W        W29105  39.246  40.591  13.448
57577W        W29106  44.422  44.567  13.506
57578W        W29107  22.407  17.066  13.884
57579W        W29108   9.392   2.219  11.482
57580W        W29109  23.138  34.167  14.906
57581W        W29110  40.558   9.660  12.947
57582W        W29111  18.507  29.624  12.851
57583W        W29112  37.824   3.060  12.396
57584W        W29113  36.703  19.481  12.645
57585W        W29114  22.777   2.168  11.184
57586W        W29115  16.680  20.306  12.376
57587W        W29116  37.451  16.063   1.178
57588W        W29117  33.985  23.287  11.599
57589W        W29118  29.940   4.913   3.626
57590W        W29119  21.257   8.803   0.931
57591W        W29120  28.336  24.158  11.093
57592W        W29121  22.537  33.668   3.732
57593W        W29122  21.201  22.624  11.055
57594W        W29123  10.586   7.445   1.211
57595W        W29124   5.831  13.108  12.964
57596W        W29125  11.736  23.441   1.823
57597W        W29126  35.119  11.982  12.478
57598W        W29127  10.964  14.224  14.808
57599W        W29128  19.243  20.083   5.590
57600W        W29129  27.037  33.008  11.916
57601W        W29130  18.307   5.818   4.097
57602W        W29131  37.811  34.932  13.983
57603W        W29132  30.627  10.393  11.033
57604W        W29133  11.858  26.467   4.666
57605W        W29134  19.994  30.547  12.901
57606W        W29135  15.292  14.315  13.911
57607W        W29136  26.117  17.369  12.514
57608W        W29137   6.005   5.912   1.292
57609W        W29138  33.543  32.238  12.110
57610W        W29139  10.605  20.247  10.928
57611W        W29140  44.272  43.560  13.907
57612W        W29141  41.131  14.607  13.277
57613W        W29142  13.231  41.672   5.232
57614W        W29143  40.503  39.453   0.007
57615W        W29144   0.008  39.795   1.712
57616W        W29145  40.187  11.950  11.143
57617W        W29146  43.738  44.810  14.794
57618W        W29147  16.261  10.423   1.670
57619W        W29148  41.489  24.907   0.445
57620W        W29149   7.382   2.367  13.152
57621W        W29150  36.421  19.782   2.250
57622W        W29151   1.898  36.395  10.244
57623W        W29152  31.255  28.979  12.530
57624W        W29153   9.979  42.551  12.401
57625W        W29154   8.973   1.991   2.331
57626W        W29155  11.908  39.895  13.343
57627W        W29156  11.277  17.583   3.590
57628W        W29157  12.514  27.675  14.886
57629W        W29158  27.375  32.469  14.489
57630W        W29159   0.427  25.929   4.440
57631W        W29160  18.759  36.883  13.212
57632W        W29161  38.087   6.198   9.960
57633W        W29162   7.785  18.988   4.054
57634W        W29163  23.942   5.046  11.746
57635W        W29164  37.525  16.485   1.935
57636W        W29165  41.893  26.927  12.912
57637W        W29166  43.867  16.920  11.670
57638W        W29167  22.964  10.516   4.131
57639W        W29168  30.974  11.643  13.016
57640W        W29169  32.864   1.120  14.921
57641W        W29170  29.518  20.786  12.053
57642W        W29171  14.178  18.942  13.767
57643W        W29172  22.711  43.179   3.306
57644W        W29173  20.435  32.750  13.623
57645W        W29174  30.078  40.588  13.775
57646W        W29175  21.308   5.215   9.914
57647W        W29176  33.199  33.591  11.397
57648W        W29177   2.206  37.828  11.726
57649W        W29178  21.050   0.669  14.508
57650W        W29179   9.206  36.560   3.289
57651W        W29180   4.425   3.773   4.412
57652W        W29181  26.758  12.939  11.592
57653W        W29182   0.184  11.752   3.693
57654W        W29183   3.750  23.632  14.974
57655W        W29184  19.570  17.437   3.856
57656W        W29185   4.368  36.817   1.974
57657W        W29186  39.209   1.704  13.329
57658W        W29187  32.713  33.136  12.564
57659W        W29188  20.949   5.970   2.383
57660W        W29189  17.507   8.592  12.621
57661W        W29190  17.408   1.176  13.081
57662W        W29191  24.684  30.003  10.508
57663W        W29192  43.985  34.383  14.497
57664W        W29193  28.162  17.112   3.256
57665W        W29194  24.454  38.314  13.801
57666W        W29195  24.007  39.595   1.192
57667W        W29196  15.680   5.244   2.278
57668W        W29197  24.756  43.471   0.303
57669W        W29198  24.265  43.302   4.676
57670W        W29199  26.908  39.882   4.139
57671W        W29200  24.776  21.496   2.733
57672W        W29201  31.928  34.555  12.049
57673W        W29202   3.834  30.760  13.839
57674W        W29203  44.855  22.724  10.857
57675W        W29204  14.135   1.033   4.088
57676W        W29205  44.433   1.767  13.951
57677W        W29206  30.525  42.409  11.056
57678W        W29207   5.869   3.211  13.877
57679W        W29208   1.468   9.608   3.284
57680W        W29209   4.740  26.709  12.956
57681W        W29210  37.156  13.872  11.529
57682W        W29211  39.254  36.628   1.701
57683W        W29212   6.304  21.213   3.643
57684W        W29213  27.430  17.061  12.143
57685W        W29214  39.792   9.755  10.791
57686W        W29215   7.353  19.578  11.412
57687W        W29216   0.849  31.276  13.539
57688W        W29217  29.825  32.964  14.653
57689W        W29218  38.540  15.164   2.945
57690W        W29219  33.554  30.496   4.143
57691W        W29220   2.122   5.773   0.494
57692W        W29221   6.919  34.901   4.094
57693W        W29222  37.617  29.359  13.055
57694W        W29223  40.388   1.038   3.326
57695W        W29224   7.076  36.011  11.669
57696W        W29225  27.056   9.416  14.237
57697W        W29226  36.298  37.795  14.839
57698W        W29227  20.310  28.228   3.597
57699W        W29228  15.962  21.585   1.253
57700W        W29229  14.742  11.361   4.525
57701W        W29230  37.069  19.806  13.978
57702W        W29231  14.631  22.040   4.543
57703W        W29232   9.175  32.916   1.303
57704W        W29233  38.298  17.555   4.439
57705W        W29234  31.000  26.047   2.807
57706W        W29235   0.555  24.210   1.714
57707W        W29236  38.444  23.594  11.240
57708W        W29237  42.943  28.446   0.944
57709W        W29238  33.613   2.443   0.188
57710W        W29239  42.825  31.631  13.246
57711W        W29240  19.292   7.098   0.003
57712W        W29241  24.643  35.210  11.453
57713W        W29242  29.204  43.622  12.325
57714W        W29243  18.051  23.511   0.349
57715W        W29244  12.274  24.982  10.604
57716W        W29245   2.862  40.005  11.948
57717W        W29246  33.955   3.390  12.387
57718W        W29247  42.487  37.548  12.863
57719W        W29248   4.365  24.805  14.288
57720W        W29249   3.547  28.587   2.342
57721W        W29250  41.089  41.066   2.396
57722W        W29251  24.188  28.801  14.288
57723W        W29252  39.412  12.528  11.519
57724W        W29253  20.257   2.138  12.473
57725W        W29254  13.158  37.118   3.653
57726W        W29255  39.600  44.008   3.330
57727W        W29256  39.826  27.767   3.638
57728W        W29257   6.367   0.834   3.639
57729W        W29258   9.136  17.166  11.577
57730W        W29259  44.964  38.311  12.030
57731W        W29260  36.553  44.441  10.281
57732W        W29261  23.715  38.824  13.445
57733W        W29262   4.353  14.451   3.320
57734W        W29263  18.656   1.145  10.354
57735W        W29264  37.331  39.968   1.721
57736W        W29265  40.674  13.650  10.519
57737W        W29266  43.492  19.583  11.007
57738W        W29267   5.319  32.673   0.742
57739W        W29268   5.733  41.952   3.895
57740W        W29269  16.117  26.977   1.311
57741W        W29270  20.409  21.063  10.703
57742W        W29271  23.925   2.744   1.084
57743W        W29272   9.838   1.418  14.794
57744W        W29273  21.908  25.732   3.698
57745W        W29274  41.474  39.994  11.832
57746W        W29275   6.568   5.255   2.826
57747W        W29276  32.467  39.391  12.948
57748W        W29277  11.103  40.766  11.123
57749W        W29278  41.230  43.299  10.661
57750W        W29279  20.733  36.615  11.930
57751W        W29280  29.531  43.056   2.221
57752W        W29281  41.546  13.015   2.639
57753W        W29282   0.873  44.473  12.120
57754W        W29283  43.829  17.693   3.937
57755W        W29284   8.724  32.767  10.790
57756W        W29285  31.774   3.327   4.462
57757W        W29286  32.525  39.838   4.369
57758W        W29287  34.815  23.414  10.758
57759W        W29288   0.747   2.464   3.622
57760W        W29289  44.296  19.704  10.287
57761W        W29290  17.730  29.365  12.464
57762W        W29291  43.260   3.705   1.117
57763W        W29292  36.432  37.955  13.231
57764W        W29293  17.014  35.865   4.286
57765W        W29294   3.098  36.470  14.244
57766W        W29295   8.821  35.933  13.611
57767W        W29296  21.908  41.875   0.611
57768W        W29297  32.177  10.881  12.861
57769W        W29298   2.315   0.893   2.323
57770W        W29299   4.489   9.817  14.262
57771W        W29300  33.611  10.162  11.175
57772W        W29301   5.312   6.411   0.915
57773W        W29302  25.663  25.722  13.891
57774W        W29303  14.545  36.122   4.304
57775W        W29304   0.463  21.159  14.472
57776W        W29305   3.191   5.173  14.012
57777W        W29306  11.170   3.284   2.866
57778W        W29307  43.009  13.233   0.707
57779W        W29308   6.630  12.058   3.952
57780W        W29309  15.198  17.858  13.986
57781W        W29310  36.121  15.314   3.779
57782W        W29311  35.619  32.102   2.813
57783W        W29312  17.824  16.660   4.087
57784W        W29313  23.798  30.257  14.552
57785W        W29314  21.268  10.636  11.167
57786W        W29315  12.864  36.952   3.245
57787W        W29316  34.140  18.360   0.326
57788W        W29317  32.427  43.140  12.007
57789W        W29318   7.761   2.244  10.939
57790W        W29319  27.628  22.395   3.676
57791W        W29320  32.482   7.311   0.337
57792W        W29321  42.035   9.288  14.725
57793W        W29322   5.870  17.401  14.749
57794W        W29323  24.102  21.522   3.806
57795W        W29324  17.386  10.643   0.816
57796W        W29325  26.113  24.002  11.203
57797W        W29326  12.828  22.759   2.264
57798W        W29327   5.759   5.896   0.325
57799W        W29328  24.297  44.989  12.182
57800W        W29329  34.418  42.152  13.634
57801W        W29330   2.466  41.841  12.076
57802W        W29331   0.762  42.403   2.220
57803W        W29332  34.959  26.696  12.199
57804W        W29333   3.905  34.092   3.475
57805W        W29334  44.770  14.806  11.383
57806W        W29335  14.219  11.169  14.005
57807W        W29336  33.700  15.579   4.579
57808W        W29337  29.256  25.565  10.663
57809W        W29338   3.015  40.517  11.723
57810W        W29339  30.960  44.366   4.100
57811W        W29340  33.087  30.469  11.966
57812W        W29341  17.347  14.804  12.961
57813W        W29342   1.848  14.344  12.872
57814W        W29343   2.728  21.238   4.756
57815W        W29344  26.430  35.022   0.949
57816W        W29345  20.111   1.940   3.204
57817W        W29346   7.413  40.860   3.256
57818W        W29347  19.040  22.867   0.352
57819W        W29348  30.016   5.752   4.217
57820W        W29349  34.858  41.182  11.111
57821W        W29350   3.324  21.416   0.195
57822W        W29351  16.685   3.643   4.568
57823W        W29352   3.043  30.610  10.816
57824W        W29353  14.498  15.748   4.224
57825W        W29354  13.269  21.472  14.582
57826W        W29355  36.702  21.302   3.242
57827W        W29356   4.485  26.418   0.327
57828W        W29357  43.496  44.666   4.570
57829W        W29358   2.070  12.455   2.258
57830W        W29359  22.726  36.944   0.484
57831W        W29360  11.134  40.463   3.143
57832W        W29361   6.378  31.097  12.964
57833W        W29362  43.451  42.384  11.465
57834W        W29363  27.986  32.674   0.175
57835W        W29364  22.236   5.316  13.031
57836W        W29365   7.950  37.833   1.039
57837W        W29366  22.146  18.731   3.687
57838W        W29367   0.343  17.031  13.746
57839W        W29368  37.068   2.994   1.865
57840W        W29369   1.307  29.717  11.532
57841W        W29370  10.724  24.962   2.709
57842W        W29371   2.898   1.970  13.418
57843W        W29372  26.474  32.571   0.397
57844W        W29373   8.865   3.826   0.055
57845W        W29374  20.611  38.498   1.194
57846W        W29375  28.178  41.056   2.001
57847W        W29376  37.344  19.536  12.023
57848W        W29377   5.657  14.638  12.300
57849W        W29378  14.360  17.047  10.684
57850W        W29379  18.436  22.031  14.398
57851W        W29380  38.187  35.043   2.436
57852W        W29381  27.450  16.304  11.158
57853W        W29382  42.820  30.653   3.375
57854W        W29383  32.889  27.185   2.156
57855W        W29384  34.910   7.838  13.311
57856W        W29385  22.760  12.952  12.455
57857W        W29386  32.129  28.267  12.400
57858W        W29387  33.568  32.269  10.771
57859W        W29388   1.752  38.470  13.018
57860W        W29389  25.105   9.728   0.068
57861W        W29390   9.286  11.230  10.604
57862W        W29391   1.965   5.913   2.233
57863W        W29392  31.699   3.175  11.283
57864W        W29393  42.435  30.953   4.955
57865W        W29394  31.574   7.373  10.989
57866W        W29395  39.662  22.045  11.495
57867W        W29396  37.103  26.614  12.465
57868W        W29397  39.870  20.552  14.372
57869W        W29398  42.334  39.916  12.385
57870W        W29399  33.339  19.470  13.753
57871W        W29400  38.831  43.672   3.212
57872W        W29401  18.088  13.314   3.901
57873W        W29402  11.733   5.366  14.536
57874W        W29403  12.324  34.542  10.630
57875W        W29404  42.337  25.020  12.552
57876W        W29405  30.242  22.636   3.820
57877W        W29406  23.381  22.319   0.008
57878W        W29407  41.117  31.596  11.475
57879W        W29408  33.670  37.429  11.188
57880W        W29409  31.554  19.831   1.696
57881W        W29410  36.939  39.603   4.649
57882W        W29411  26.253  39.058  13.342
57883W        W29412  43.349  11.273   0.931
57884W        W29413  43.720  31.053  14.250
57885W        W29414   8.814  31.787   0.222
57886W        W29415  32.462  13.861   1.874
57887W        W29416  12.836   4.028   0.390
57888W        W29417   2.246  30.395   1.423
57889W        W29418  19.530  19.313  13.779
57890W        W29419  21.307  18.227  14.529
57891W        W29420  25.077  29.209   4.574
57892W        W29421  42.567  28.738   1.164
57893W        W29422  30.056  30.986  11.128
57894W        W29423  11.222  30.833   2.030
57895W        W29424   7.355  14.641   1.800
57896W        W29425  33.026  42.974   1.709
57897W        W29426  13.588  31.566   1.659
57898W        W29427  19.725  26.434   2.831
57899W        W29428  24.611  38.035   0.038
57900W        W29429  27.954   2.490   3.481
57901W        W29430  17.690  26.084  13.501
57902W        W29431  13.316  10.684  10.834
57903W        W29432   5.182   3.775  13.418
57904W        W29433   0.102  15.649  14.753
57905W        W29434  19.021   2.086  11.138
57906W        W29435  43.897  20.083  10.868
57907W        W29436   0.793  21.509  10.355
57908W        W29437  12.580  31.957   1.844
57909W        W29438   1.707  21.991   3.861
57910W        W29439  31.082  15.663   1.632
57911W        W29440   3.758   5.067   0.818
57912W        W29441  36.317  20.552   1.735
57913W        W29442  18.090  23.301  11.680
57914W        W29443  21.552  27.036  10.705
57915W        W29444  39.342  14.365   0.576
57916W        W29445   1.515  35.737   4.607
57917W        W29446   3.460   4.732  12.575
57918W        W29447  28.010  26.642   0.481
57919W        W29448  24.078  44.689   4.189
57920W        W29449  16.933   4.930   4.908
57921W        W29450   1.228  22.132  10.648
57922W        W29451  38.447  38.424  12.775
57923W        W29452   0.901  28.861   4.863
57924W        W29453  26.063  29.209  14.507
57925W        W29454  13.075   4.157   4.561
57926W        W29455  27.917  16.513   3.525
57927W        W29456  18.738  22.499   2.770
57928W        W29457  37.387  41.608   0.431
57929W        W29458  32.193  35.083   4.033
57930W        W29459   4.747  40.494  14.452
57931W        W29460  16.227  23.170   2.165
57932W        W29461  32.043  29.002   2.767
57933W        W29462  13.393  12.702  14.329
57934W        W29463  15.993  11.671   4.336
57935W        W29464   1.097  43.229   1.438
57936W        W29465  34.530   7.594  14.985
57937W        W29466  10.345  12.232  11.472
57938W        W29467  35.581  37.934   2.845
57939W        W29468  30.622  27.630  13.833
57940W        W29469  43.245  33.706  12.370
57941W        W29470  20.493  38.967   1.439
57942W        W29471  12.270  36.699   4.670
57943W        W29472  36.765  29.933  12.397
57944W        W29473  21.219  26.926   0.376
57945W        W29474  28.393   6.393   4.304
57946W        W29475   6.239  10.287  12.935
57947W        W29476  11.734  19.497   1.816
57948W        W29477  40.140  40.281   3.813
57949W        W29478  25.019  42.763   2.867
57950W        W29479  35.787  36.959  12.964
57951W        W29480   4.549  42.344   1.439
57952W        W29481  30.939   1.766  14.079
57953W        W29482  21.706  28.131  11.472
57954W        W29483   1.465   3.838   2.802
57955W        W29484  34.662   8.489   3.226
57956W        W29485  22.138  44.941   2.069
57957W        W29486   5.996  20.792  11.330
57958W        W29487   3.318   8.298  14.264
57959W        W29488  39.915  19.161   2.600
57960W        W29489   0.988  21.692  10.785
57961W        W29490  24.074  23.918  10.985
57962W        W29491   8.144   9.415  12.893
57963W        W29492  41.541  40.506   2.319
57964W        W29493  34.100  35.329  11.673
57965W        W29494  16.161   5.921  11.378
57966W        W29495   8.791  10.228   5.512
57967W        W29496  41.012  26.711   1.670
57968W        W29497   1.481  20.804  11.960
57969W        W29498  27.449  42.039   0.324
57970W        W29499  15.430  22.561  11.263
57971W        W29500  42.571  22.750  11.909
57972W        W29501  16.759   1.289   4.280
57973W        W29502   8.635  29.522  13.896
57974W        W29503  22.978  37.280   2.259
57975W        W29504  35.493  14.802  12.001
57976W        W29505  40.693  20.010   0.904
57977W        W29506  26.959  13.063   4.233
57978W        W29507   8.150   0.779  13.157
57979W        W29508  38.940  12.626  11.747
57980W        W29509  14.514   2.399   4.885
57981W        W29510  39.485  12.598  12.835
57982W        W29511  25.408  23.199   4.648
57983W        W29512  42.596  30.029  13.897
57984W        W29513  14.233  36.919  14.784
57985W        W29514  10.331   5.338   2.729
57986W        W29515  28.082  42.767   0.362
57987W        W29516  32.314  15.097   0.350
57988W        W29517  16.045  44.766  11.625
57989W        W29518  26.249  13.617   1.381
57990W        W29519  12.359  41.491   3.111
57991W        W29520  40.531  14.750   1.489
57992W        W29521  16.204  37.313  13.981
57993W        W29522  25.410  19.273   4.529
57994W        W29523   7.849  21.488  11.986
57995W        W29524  37.939   9.776   4.006
57996W        W29525   8.071  34.081  14.153
57997W        W29526  19.189  12.102   3.179
57998W        W29527  33.811  32.732  13.485
57999W        W29528  33.301  41.582  10.197
58000W        W29529   2.371   1.996  12.512
58001W        W29530   2.723  16.310  14.239
58002W        W29531   4.000  41.598  10.255
58003W        W29532  15.588   1.070  14.011
58004W        W29533  20.208  11.341   2.973
58005W        W29534  21.491  42.386  13.437
58006W        W29535  26.391   3.839   3.844
58007W        W29536  43.301   7.831   1.825
58008W        W29537  22.688  24.671   1.328
58009W        W29538  14.594  33.680  10.587
58010W        W29539  33.589   9.293   4.745
58011W        W29540  24.513   2.375  10.768
58012W        W29541  17.318  40.058  11.546
58013W        W29542   0.440   8.926  10.698
58014W        W29543   4.174  10.849  10.415
58015W        W29544  12.149  31.892   0.278
58016W        W29545  40.591   3.350   0.925
58017W        W29546  31.584  17.776  10.359
58018W        W29547  42.446  30.390   4.196
58019W        W29548  25.869  43.010  10.761
58020W        W29549  43.975  39.962  13.303
58021W        W29550  19.628   2.975   0.686
58022W        W29551  23.591   6.452   3.247
58023W        W29552  12.458  16.635   4.725
58024W        W29553  27.588  15.055  11.644
58025W        W29554  31.191  41.364  11.072
58026W        W29555  31.439   5.657   1.349
58027W        W29556   3.062   7.324  14.319
58028W        W29557   9.212  35.090  11.999
58029W        W29558  11.572  11.147   4.448
58030W        W29559   7.101  41.619  14.363
58031W        W29560  38.978  10.699  13.602
58032W        W29561  39.319   0.277   4.701
58033W        W29562  13.676  43.589   1.131
58034W        W29563  13.714   7.664  11.893
58035W        W29564  29.058  25.168  14.051
58036W        W29565  25.728  27.410   1.015
58037W        W29566  25.453  13.086  12.025
58038W        W29567  41.561  18.573   1.416
58039W        W29568  12.326  34.336   3.405
58040W        W29569  32.601  39.550   0.796
58041W        W29570  13.768  15.831  12.944
58042W        W29571   2.808  26.073  12.356
58043W        W29572   5.729  36.080   4.677
58044W        W29573  10.423   6.694  12.750
58045W        W29574   0.529  21.314  12.584
58046W        W29575   9.111  44.822  13.817
58047W        W29576  34.939  34.356   1.918
58048W        W29577  41.648  15.261   3.757
58049W        W29578  25.696   2.344   2.352
58050W        W29579  21.279  11.283  12.399
58051W        W29580  22.538  15.572  11.224
58052W        W29581  36.247  40.816  13.403
58053W        W29582  34.165  32.903   4.066
58054W        W29583  25.087  12.523  11.389
58055W        W29584   0.019  16.665   0.041
58056W        W29585  25.189  43.683  11.658
58057W        W29586  17.310  21.530  12.753
58058W        W29587   2.683  16.744  12.612
58059W        W29588  18.206  44.502   4.602
58060W        W29589  40.607  44.276  13.854
58061W        W29590  21.247  24.601   2.401
58062W        W29591   0.775  44.215  10.732
58063W        W29592  24.492  23.238   2.687
58064W        W29593  11.168  29.494   0.345
58065W        W29594   9.740  42.683   0.220
58066W        W29595  28.374   5.453   3.497
58067W        W29596  23.561  28.106   0.263
58068W        W29597   5.023  34.638   3.606
58069W        W29598  18.568  41.885   2.872
58070W        W29599  44.456  43.226   3.177
58071W        W29600  19.551  39.398  13.440
58072W        W29601   1.031  20.143  14.000
58073W        W29602  19.469  12.555  13.364
58074W        W29603  19.677  20.482   4.350
58075W        W29604  22.799  31.735  14.507
58076W        W29605  17.748  30.403  13.321
58077W        W29606  22.509   8.347  13.772
58078W        W29607  21.245  20.609   1.879
58079W        W29608   3.718  34.514  13.783
58080W        W29609  23.204  44.384  14.519
58081W        W29610  15.140  18.212  11.161
58082W        W29611  37.405   3.599  13.452
58083W        W29612   9.402  26.640  14.491
58084W        W29613  15.675  34.622  11.478
58085W        W29614  20.065   5.108   1.264
58086W        W29615  36.168  15.810   4.550
58087W        W29616   3.238  13.200   1.308
58088W        W29617  30.905   8.045  14.352
58089W        W29618   2.443  11.191  13.344
58090W        W29619  27.073  26.568   2.669
58091W        W29620  33.049  21.493   0.642
58092W        W29621   8.607   3.859  14.272
58093W        W29622  15.095  20.033  11.064
58094W        W29623   8.760   2.411   4.564
58095W        W29624  24.765  10.597   4.244
58096W        W29625   7.643  40.569  11.571
58097W        W29626  14.922  32.504   0.212
58098W        W29627  21.044  20.755  11.482
58099W        W29628  24.227  27.134  13.470
58100W        W29629  33.311  13.338   4.530
58101W        W29630  39.825   9.487   1.141
58102W        W29631  33.296   0.241   3.305
58103W        W29632  23.504  40.301   1.654
58104W        W29633  19.430  43.262   4.918
58105W        W29634  12.149  21.035  12.397
58106W        W29635   8.849  19.854   0.968
58107W        W29636  25.542  10.177   2.615
58108W        W29637  29.517  19.386   3.070
58109W        W29638  18.729  42.550  10.658
58110W        W29639   6.350  21.306   2.660
58111W        W29640  26.634   0.261  13.523
58112W        W29641   3.268  21.700   1.434
58113W        W29642  17.726   7.603  13.405
58114W        W29643  15.331  26.116  13.873
58115W        W29644  23.169  25.982  10.683
58116W        W29645  27.201  32.670   0.062
58117W        W29646  15.682   3.658  14.953
58118W        W29647  44.277  35.830   4.648
58119W        W29648   5.460  23.149  12.030
58120W        W29649  27.415  30.418  10.617
58121W        W29650  37.946  23.748   1.812
58122W        W29651  31.202  11.837   0.478
58123W        W29652   9.668   4.920   4.957
58124W        W29653   4.837  15.157  10.428
58125W        W29654  20.305   9.247   0.149
58126W        W29655  20.767  16.224  10.626
58127W        W29656   7.536  25.959   0.530
58128W        W29657   3.847  33.201   3.331
58129W        W29658  19.067  44.761   2.796
58130W        W29659  31.172  15.151  13.904
58131W        W29660  28.748  20.123  11.953
58132W        W29661  28.435   9.919   2.279
58133W        W29662  42.089  32.518   3.222
58134W        W29663  43.507  10.060  10.723
58135W        W29664  40.635  41.604   4.873
58136W        W29665   7.852  20.607  12.539
58137W        W29666  28.782  41.822  14.924
58138W        W29667  36.617  14.235   0.806
58139W        W29668  20.076  13.961   1.919
58140W        W29669   8.975   0.967  13.941
58141W        W29670  30.529   5.291   4.716
58142W        W29671  37.924  27.045   4.873
58143W        W29672   6.644   5.727   4.600
58144W        W29673  16.039  27.838   0.755
58145W        W29674  25.758  30.485  11.466
58146W        W29675  43.871  34.767   2.015
58147W        W29676  10.187   7.771   1.027
58148W        W29677   0.118  34.648  12.038
58149W        W29678  28.271  39.090  12.474
58150W        W29679   0.226   6.831   0.233
58151W        W29680  26.081  38.328  12.438
58152W        W29681  24.101  21.611  11.898
58153W        W29682  13.572  34.414   3.162
58154W        W29683  35.690  34.077  14.946
58155W        W29684  41.900  25.974  10.689
58156W        W29685  15.829  27.113   9.891
58157W        W29686  25.448  21.316  14.374
58158W        W29687  29.541  43.579   2.333
58159W        W29688  21.038   2.770  11.178
58160W        W29689   0.207   6.376  14.559
58161W        W29690  12.739  37.633  14.393
58162W        W29691  43.500  24.557   0.763
58163W        W29692  20.713  34.093  14.369
58164W        W29693  38.072  32.763  13.401
58165W        W29694  27.552  18.837   3.321
58166W        W29695  23.961  43.021  10.237
58167W        W29696  12.760  15.824  11.423
58168W        W29697  21.851  34.548   4.045
58169W        W29698  20.637  16.606   0.494
58170W        W29699   2.577   9.959  12.490
58171W        W29700  31.402  10.569   0.701
58172W        W29701  31.927   8.321  13.472
58173W        W29702  24.110  20.988  12.467
58174W        W29703   3.300  32.177  14.504
58175W        W29704   8.337   0.626  10.276
58176W        W29705   5.067  29.919  13.088
58177W        W29706   5.838  44.696   1.742
58178W        W29707   7.056  25.448   2.764
58179W        W29708  34.939  40.307  12.427
58180W        W29709  43.130  34.626   4.178
58181W        W29710  13.121  28.519  13.770
58182W        W29711  21.290   8.490   1.826
58183W        W29712   5.908  41.828   1.813
58184W        W29713  25.712  38.786  10.741
58185W        W29714  35.481   1.476  14.450
58186W        W29715   4.447  26.114  10.767
58187W        W29716  10.580  44.218  14.463
58188W        W29717   6.322  14.123  12.399
58189W        W29718  42.264  10.703  11.564
58190W        W29719   5.291  33.747  11.886
58191W        W29720  21.755  37.556   0.190
58192W        W29721  33.582  41.970  13.021
58193W        W29722  42.126  32.947   2.585
58194W        W29723  42.185  11.453  10.382
58195W        W29724  40.599   3.471   3.361
58196W        W29725  44.023  23.060   0.995
58197W        W29726  25.032  28.930   0.639
58198W        W29727  10.847  13.611   0.420
58199W        W29728  22.998  22.291  13.602
58200W        W29729  33.193  13.587   1.834
58201W        W29730  26.466  31.486   2.867
58202W        W29731   5.887  28.397  14.564
58203W        W29732   7.235  31.951  14.895
58204W        W29733  28.410  40.327  14.390
58205W        W29734  19.524  14.631   3.679
58206W        W29735  32.862  44.382   2.539
58207W        W29736  32.501  31.087   4.416
58208W        W29737  40.028  34.919  14.956
58209W        W29738  30.970  36.370  10.669
58210W        W29739  14.295   6.174  11.606
58211W        W29740  37.800  37.813   4.239
58212W        W29741   7.812  13.726   4.549
58213W        W29742  20.930  32.488  11.161
58214W        W29743  12.139   6.229   2.293
58215W        W29744  22.187  40.412   3.239
58216W        W29745  25.964  17.787   2.209
58217W        W29746  40.063  12.626  10.715
58218W        W29747  15.252  43.535   1.196
58219W        W29748   2.916   9.629   3.704
58220W        W29749  20.494  15.565  14.827
58221W        W29750   9.941  36.151  11.356
58222W        W29751  15.998   1.939   2.203
58223W        W29752  35.758  15.157  13.384
58224W        W29753  32.346  19.521  11.513
58225W        W29754  44.398   7.664  14.366
58226W        W29755  43.954   7.866   3.860
58227W        W29756   5.638  18.567  13.597
58228W        W29757   7.297  15.862   4.646
58229W        W29758  28.142  26.224   3.328
58230W        W29759   0.299   0.078  12.174
58231W        W29760  41.087  22.147   1.200
58232W        W29761  26.107  35.975  14.601
58233W        W29762  34.844  36.345  14.803
58234W        W29763  28.445  37.307   2.850
58235W        W29764   0.730   5.319  12.390
58236W        W29765  33.122   8.286   1.885
58237W        W29766   8.207  39.997   3.079
58238W        W29767   0.475  39.817   1.961
58239W        W29768  20.758  38.568   0.700
58240W        W29769   1.964  43.309  14.943
58241W        W29770  37.881  10.335  12.663
58242W        W29771  21.034  26.756  11.372
58243W        W29772  18.983  12.421  12.109
58244W        W29773  10.411  33.126  13.454
58245W        W29774  36.057  33.398   0.290
58246W        W29775  29.328   5.984   2.313
58247W        W29776  39.115   5.364  12.643
58248W        W29777  43.167   9.200   0.203
58249W        W29778  22.446  31.428   2.895
58250W        W29779  39.294  35.631  12.033
58251W        W29780   8.039  16.756  12.132
58252W        W29781  36.354  38.855  10.726
58253W        W29782  41.922  26.970  12.124
58254W        W29783  25.977  42.997  11.669
58255W        W29784  26.180  21.225   3.755
58256W        W29785  22.675  43.025   2.272
58257W        W29786  33.286   1.224  10.245
58258W        W29787  29.470  20.106   0.474
58259W        W29788  10.519  39.094   3.761
58260W        W29789  40.801  40.737   4.328
58261W        W29790  20.604  44.069  10.807
58262W        W29791  41.465  26.067  10.946
58263W        W29792  39.568  29.236   3.185
58264W        W29793  31.542  43.401  13.995
58265W        W29794  25.358  41.398  13.969
58266W        W29795  14.196  20.541  11.436
58267W        W29796  43.062   9.135  14.005
58268W        W29797  30.502  43.964   4.700
58269W        W29798   2.362  32.042   2.874
58270W        W29799   4.870  27.196  14.578
58271W        W29800  14.623  29.697   2.400
58272W        W29801  44.741  22.535   3.283
58273W        W29802  12.913  11.319   4.526
58274W        W29803  16.188  11.640   2.165
58275W        W29804  12.825  33.348  12.115
58276W        W29805  42.971  18.033   3.701
58277W        W29806  22.729  19.371   1.455
58278W        W29807  43.089  38.402  11.187
58279W        W29808  39.966  37.151   2.721
58280W        W29809  36.306  16.774   3.342
58281W        W29810  11.770  19.033  10.709
58282W        W29811  23.492  30.482  11.556
58283W        W29812  20.438  32.606  11.128
58284W        W29813  15.846  39.046  13.798
58285W        W29814  38.580  42.928  14.832
58286W        W29815  35.172  44.959   2.446
58287W        W29816  25.728  19.755  13.384
58288W        W29817  22.739  20.173  13.438
58289W        W29818   7.265  43.615  11.471
58290W        W29819  15.698  29.124   1.836
58291W        W29820  26.166  21.634   0.940
58292W        W29821  14.615  10.166  13.863
58293W        W29822  25.707  40.551   4.626
58294W        W29823  34.291  38.016   4.063
58295W        W29824  30.974  35.847  10.723
58296W        W29825  30.178   6.925  13.110
58297W        W29826   7.762  44.384   1.887
58298W        W29827   8.715  26.554  11.398
58299W        W29828  24.133  22.534   3.720
58300W        W29829  32.324   3.610  10.966
58301W        W29830  40.276  24.124  12.931
58302W        W29831  36.386  30.229  12.069
58303W        W29832  43.312   0.841  10.945
58304W        W29833   1.021  36.894  11.172
58305W        W29834   5.773  40.972   1.428
58306W        W29835  41.446  10.543   3.304
58307W        W29836  19.052  28.897  14.422
58308W        W29837  16.734  15.092   0.117
58309W        W29838  21.672  19.295   3.141
58310W        W29839  12.276   4.450   3.608
58311W        W29840   0.156  25.795   4.018
58312W        W29841  10.058  26.399   2.255
58313W        W29842  42.835   3.419   0.977
58314W        W29843  33.042   4.708   1.342
58315W        W29844  30.130  12.102   0.959
58316W        W29845   8.325  17.482  13.088
58317W        W29846  21.673   1.830  11.655
58318W        W29847  18.474   9.495   1.614
58319W        W29848  31.755  27.678   2.866
58320W        W29849  42.424   5.678  11.069
58321W        W29850  21.057  42.056   5.228
58322W        W29851   2.921  24.547  12.896
58323W        W29852  22.151  30.225  11.125
58324W        W29853  23.136  10.240  12.923
58325W        W29854  21.722   3.673  11.953
58326W        W29855  23.758  37.283  14.535
58327W        W29856  16.046  43.729   2.301
58328W        W29857  22.415  20.711   3.770
58329W        W29858   0.528  40.565   0.858
58330W        W29859  27.447   1.736  11.089
58331W        W29860  10.070  32.536  12.191
58332W        W29861  40.345  15.083   4.649
58333W        W29862  20.443  27.559   0.447
58334W        W29863  29.976  41.603  13.963
58335W        W29864   2.227  37.927   3.869
58336W        W29865   8.195  32.571   2.635
58337W        W29866  17.068   0.339   0.814
58338W        W29867  40.740   5.506   4.514
58339W        W29868  13.705   8.685   2.813
58340W        W29869  24.246  39.600  14.833
58341W        W29870   4.371  39.995  10.691
58342W        W29871   7.901   2.772  12.090
58343W        W29872  11.268   9.454  10.761
58344W        W29873  24.471  43.746   3.861
58345W        W29874  26.538   6.320  12.682
58346W        W29875  23.118  12.092  12.910
58347W        W29876  23.054  27.896  13.558
58348W        W29877   3.094   0.290  10.259
58349W        W29878  36.537  37.317   1.410
58350W        W29879  14.689   4.464  13.831
58351W        W29880  20.646  44.711  13.015
58352W        W29881  11.266  10.672   4.627
58353W        W29882  16.532  38.505   3.310
58354W        W29883  13.194  26.411  10.652
58355W        W29884  17.369  29.558   1.968
58356W        W29885  21.644  41.780  11.666
58357W        W29886   6.478   7.274   3.649
58358W        W29887   5.999  34.782   5.261
58359W        W29888  13.869  14.770  13.784
58360W        W29889  36.519  20.307   0.240
58361W        W29890  37.604   5.718   2.671
58362W        W29891  21.202  36.819  13.085
58363W        W29892  10.840  33.763  13.987
58364W        W29893   9.880   7.273   0.961
58365W        W29894  35.403  22.853   5.098
58366W        W29895  12.865  12.403   4.539
58367W        W29896  34.888  26.447  11.196
58368W        W29897  27.542  41.120  14.431
58369W        W29898  38.350  22.090  12.862
58370W        W29899  13.866   2.193   0.362
58371W        W29900   6.275   4.945  13.098
58372W        W29901  25.447   9.845   0.447
58373W        W29902  22.165  36.045   0.399
58374W        W29903  35.089  26.893  10.511
58375W        W29904   7.288  23.488   1.699
58376W        W29905  42.841   8.296   4.844
58377W        W29906  11.421  11.383  12.072
58378W        W29907  36.232  23.977  11.888
58379W        W29908  44.293  27.608  11.532
58380W        W29909   2.034  18.143   3.778
58381W        W29910  44.247  39.861  13.931
58382W        W29911   9.645  16.030   4.238
58383W        W29912  32.795   2.073  11.132
58384W        W29913  10.220  20.186   2.661
58385W        W29914  42.354  35.444   3.249
58386W        W29915   6.535  26.961   1.763
58387W        W29916  10.056  16.331   2.230
58388W        W29917  19.182   1.434  13.541
58389W        W29918  20.675   5.720   0.704
58390W        W29919  38.859  44.362   3.741
58391W        W29920  20.933  38.788   2.332
58392W        W29921  33.205  33.492   1.746
58393W        W29922  32.797   9.823   1.795
58394W        W29923   8.987  25.012   1.784
58395W        W29924  36.573   2.732   0.499
58396W        W29925   0.400   2.333  12.707
58397W        W29926  12.820  22.718   3.208
58398W        W29927  39.917  30.439  13.570
58399W        W29928  16.458  12.059  11.934
58400W        W29929   0.438  11.072  10.733
58401W        W29930  20.684  14.711  11.664
58402W        W29931  17.701  33.914  14.017
58403W        W29932   5.348  44.748   2.763
58404W        W29933  32.886  19.121  11.170
58405W        W29934  43.509  18.164  10.584
58406W        W29935  21.000  15.766  10.705
58407W        W29936  13.579  13.277  13.186
58408W        W29937  16.648  19.057   3.138
58409W        W29938  37.987   8.272  14.596
58410W        W29939  43.448  12.264  11.168
58411W        W29940  42.506  33.872   1.762
58412W        W29941  13.280   1.272  12.221
58413W        W29942  38.950  36.354  14.766
58414W        W29943  10.635   4.404   4.605
58415W        W29944   3.350   8.033   2.832
58416W        W29945  35.008  39.267  13.295
58417W        W29946   5.375  34.575  11.976
58418W        W29947  20.935  10.687   0.926
58419W        W29948  43.461   6.176  13.511
58420W        W29949  40.616   0.453  12.463
58421W        W29950   5.733  22.597   4.166
58422W        W29951  22.774   9.025   4.755
58423W        W29952   4.143  13.495   4.089
58424W        W29953  12.197  38.873  10.940
58425W        W29954  13.118  16.107  13.998
58426W        W29955   2.647  12.501   4.497
58427W        W29956  39.935  32.449   4.689
58428W        W29957   2.556  14.559   0.462
58429W        W29958  19.311   3.341  10.500
58430W        W29959   3.307  21.861  11.578
58431W        W29960  39.723  38.051   2.053
58432W        W29961  10.877  31.759   2.385
58433W        W29962  35.217  32.994  11.079
58434W        W29963  25.533  42.702  11.596
58435W        W29964  27.538  25.012  14.457
58436W        W29965  17.533  23.663  13.761
58437W        W29966   4.905  31.425   1.734
58438W        W29967  25.210  41.997   1.017
58439W        W29968   3.579  21.030   0.485
58440W        W29969  30.140   5.371   0.564
58441W        W29970  19.845  21.193  12.491
58442W        W29971  33.047  18.592  13.860
58443W        W29972  15.119  29.753   1.206
58444W        W29973  31.190   9.284   4.609
58445W        W29974   7.233  11.023  10.847
58446W        W29975  12.120  31.880  11.596
58447W        W29976  42.602   5.188   2.299
58448W        W29977  35.395  41.479  13.378
58449W        W29978  42.041  22.029  12.082
58450W        W29979  32.331  14.317  11.116
58451W        W29980  12.799   2.690   4.575
58452W        W29981  16.336   1.909   1.347
58453W        W29982  40.950   2.327   3.367
58454W        W29983  11.848  29.881   3.241
58455W        W29984  44.311  12.856   0.729
58456W        W29985  37.368   5.818  12.096
58457W        W29986  25.219   5.256   4.141
58458W        W29987  28.519  41.022  14.064
58459W        W29988  42.893  25.847  14.021
58460W        W29989   5.943   8.876  13.965
58461W        W29990  21.248  30.090   0.410
58462W        W29991  16.916   3.418   4.966
58463W        W29992  23.222  22.881   3.427
58464W        W29993  26.084  29.713   3.683
58465W        W29994   3.362  40.938  11.577
58466W        W29995  41.002  32.414  10.279
58467W        W29996  30.568  21.022   3.103
58468W        W29997  10.903  25.538   1.303
58469W        W29998  38.082  37.499   4.537
58470W        W29999  26.263  29.328   0.450
58471W        W30000  27.936  33.136  11.600
58472W        W30001  37.492  17.283  11.961
58473W        W30002   4.184  33.659   0.846
58474W        W30003  27.502  21.580   1.234
58475W        W30004  35.528  39.576  12.600
58476W        W30005  44.268  17.942   4.116
58477W        W30006   6.082   0.541   5.132
58478W        W30007   3.934  33.047   4.992
58479W        W30008  29.958   1.803   0.809
58480W        W30009   7.587  44.909   4.179
58481W        W30010  28.974  38.649   0.874
58482W        W30011  12.873  15.049   3.247
58483W        W30012  25.464  37.328   3.861
58484W        W30013  34.296   5.284   3.410
58485W        W30014  10.427  42.927   4.146
58486W        W30015  23.771  19.325   1.437
58487W        W30016   4.551  24.184   2.404
58488W        W30017  17.731   1.780   1.404
58489W        W30018  11.719  27.893   1.695
58490W        W30019  18.260  38.401   4.499
58491W        W30020  34.394  23.228   4.836
58492W        W30021  44.380  27.907   1.893
58493W        W30022   7.248  42.110  14.484
58494W        W30023  20.189  21.767   0.764
58495W        W30024  25.492  33.968   2.723
58496W        W30025  31.542  33.537   5.058
58497W        W30026  32.165  35.974  11.946
58498W        W30027  22.767   7.419   4.280
58499W        W30028   7.328  30.406  12.706
58500W        W30029   7.855  18.050   4.077
58501W        W30030  28.781  33.530   3.401
58502W        W30031  32.059  23.721   2.758
58503W        W30032   3.827  22.773   4.173
58504W        W30033  12.386  44.429   3.819
58505W        W30034  14.185  15.548  11.776
58506W        W30035  28.249   2.390   2.532
58507W        W30036   4.906   5.015  13.095
58508W        W30037  33.628   8.080   4.217
58509W        W30038  11.782  37.245   0.683
58510W        W30039  23.775   0.364   1.262
58511W        W30040  22.134  37.304   3.389
58512W        W30041  23.559  35.211  11.859
58513W        W30042  25.077  27.084  11.189
58514W        W30043  24.576   2.705  11.206
58515W        W30044  39.925  32.997   1.424
58516W        W30045  38.339  21.431   3.794
58517W        W30046  27.094  22.366  12.948
58518W        W30047  23.147  27.540  10.658
58519W        W30048  13.167  33.681  14.898
58520W        W30049  30.311  39.915   1.007
58521W        W30050   7.874  23.917   1.418
58522W        W30051  18.297  31.092  10.669
58523W        W30052  16.436  22.573   0.655
58524W        W30053  39.190  35.972  10.370
58525W        W30054  12.098  16.667  12.062
58526W        W30055   6.935  17.726   1.358
58527W        W30056  11.827  28.163  13.342
58528W        W30057   2.521  27.482   2.723
58529W        W30058   9.823   7.035   4.209
58530W        W30059  17.564  32.301  14.673
58531W        W30060   9.257   4.965   1.151
58532W        W30061   9.727  23.183   2.856
58533W        W30062  15.331  31.867  12.561
58534W        W30063  16.736  44.096   1.851
58535W        W30064  27.388   3.763  14.556
58536W        W30065  11.829  24.790   0.074
58537W        W30066  18.757  20.515  14.369
58538W        W30067  41.307  39.008  14.816
58539W        W30068  21.496   0.902   0.730
58540W        W30069  26.694  44.721  14.421
58541W        W30070  32.941   5.215   0.373
58542W        W30071   4.296  13.943   3.205
58543W        W30072  24.038  22.196   2.719
58544W        W30073  40.359  44.852   2.931
58545W        W30074  34.966   6.288  12.098
58546W        W30075   1.943   9.409  11.188
58547W        W30076  27.160  31.708  14.973
58548W        W30077  21.727  43.229   3.365
58549W        W30078  11.919  43.422  14.750
58550W        W30079  40.833  35.143   3.167
58551W        W30080  37.579  36.158   5.019
58552W        W30081  27.807  21.980  13.537
58553W        W30082   3.400  28.379   1.475
58554W        W30083  31.642  43.309  11.681
58555W        W30084  36.566  15.272  13.052
58556W        W30085  18.072  44.819   1.393
58557W        W30086   5.335  31.727   3.090
58558W        W30087  29.419  18.126  14.410
58559W        W30088  27.048  18.093   0.398
58560W        W30089  43.883  29.890   0.373
58561W        W30090  14.869  44.715   0.334
58562W        W30091  20.220   3.944   4.438
58563W        W30092  41.384  19.716   1.193
58564W        W30093  28.481  14.090   1.353
58565W        W30094   6.664  28.414  10.968
58566W        W30095  11.991  41.815  10.820
58567W        W30096  32.688  16.064   3.656
58568W        W30097   8.419  44.807  13.045
58569W        W30098  17.293  43.882  13.494
58570W        W30099  27.945  19.082  14.919
58571W        W30100  19.690   7.186   4.700
58572W        W30101  42.617  43.099  14.386
58573W        W30102   1.184  40.114   4.312
58574W        W30103  35.382  13.349  11.018
58575W        W30104   7.712  11.284  12.535
58576W        W30105  14.787   1.450  14.984
58577W        W30106   0.921  31.125   9.952
58578W        W30107  13.842   5.946   0.804
58579W        W30108  42.299   1.190  14.059
58580W        W30109  37.964  41.426  14.471
58581W        W30110  44.242  16.523  11.984
58582W        W30111   6.111  44.662  14.886
58583W        W30112  37.059   8.240   0.582
58584W        W30113  33.989   8.848   4.128
58585W        W30114  35.668  26.928   2.245
58586W        W30115  24.314  25.709   2.661
58587W        W30116  38.758  14.814   1.204
58588W        W30117  11.775  28.935   3.387
58589W        W30118  33.606  18.793  11.866
58590W        W30119  20.954  44.411   3.991
58591W        W30120   8.602  39.066  13.047
58592W        W30121  24.261   9.886   2.555
58593W        W30122  13.741  20.212  14.011
58594W        W30123   8.263   3.152  13.387
58595W        W30124   4.422  30.126  13.718
58596W        W30125  41.448  20.644  14.450
58597W        W30126  41.254   7.287   1.879
58598W        W30127   6.348   2.530  13.559
58599W        W30128  22.150   7.620  10.978
58600W        W30129  36.474  16.769   4.336
58601W        W30130  31.062  15.586  12.925
58602W        W30131  26.242   6.107  13.119
58603W        W30132  25.057  31.145   4.449
58604W        W30133  22.596  37.621   2.193
58605W        W30134  41.454  15.208  11.244
58606W        W30135  13.188  17.085  11.841
58607W        W30136   9.173  23.333  12.786
58608W        W30137  10.626  22.110   0.497
58609W        W30138  11.772   0.573   0.310
58610W        W30139   3.509  21.012   3.660
58611W        W30140   7.306  31.642   0.389
58612W        W30141   4.563  15.353   5.064
58613W        W30142  26.257  27.642  10.682
58614W        W30143  40.778  39.743   5.050
58615W        W30144  11.244  21.186   1.185
58616W        W30145  42.053   7.100  12.047
58617W        W30146  42.806   8.808  10.336
58618W        W30147  16.846  44.675  10.976
58619W        W30148  27.210  13.453   4.441
58620W        W30149  38.260  20.097   0.732
58621W        W30150  24.146   7.449   4.451
58622W        W30151  32.997   9.657  13.841
58623W        W30152  21.972  19.740  14.297
58624W        W30153  23.330  44.415   1.316
58625W        W30154  22.176  13.549  11.858
58626W        W30155  25.621  14.009   1.022
58627W        W30156  24.161   8.398   4.598
58628W        W30157   6.423  34.075  13.815
58629W        W30158  39.920  35.059  14.120
58630W        W30159   4.820  32.924  11.432
58631W        W30160  11.837  15.070  11.467
58632W        W30161  21.636  33.914   2.120
58633W        W30162   9.304   3.993   0.937
58634W        W30163   4.682   0.349   5.159
58635W        W30164   7.633  33.164   3.828
58636W        W30165  28.043  13.395  14.819
58637W        W30166   6.429  20.520  12.604
58638W        W30167  12.668   7.326  11.419
58639W        W30168  13.421  29.570   1.772
58640W        W30169   0.936  16.210   2.577
58641W        W30170  39.559  11.734   0.508
58642W        W30171  35.811  28.495  13.991
58643W        W30172  40.864   5.700   3.208
58644W        W30173   8.410  23.630   3.638
58645W        W30174  24.177  31.559   4.354
58646W        W30175  24.524  15.146   3.795
58647W        W30176  44.313   9.811  14.777
58648W        W30177   9.517   2.261   3.625
58649W        W30178  15.371  39.976  13.921
58650W        W30179   5.675  41.289   4.810
58651W        W30180   1.263   9.913   2.705
58652W        W30181  29.154  27.658   3.728
58653W        W30182  42.070  25.439   1.739
58654W        W30183  15.426   8.782   2.237
58655W        W30184  18.199  12.821   3.685
58656W        W30185   9.141  38.553   1.210
58657W        W30186   7.224  32.914   4.746
58658W        W30187  33.134  41.262  13.905
58659W        W30188   8.231  43.658  10.614
58660W        W30189  10.210  24.540   4.385
58661W        W30190  35.770   6.853   3.406
58662W        W30191   3.648  34.142  12.289
58663W        W30192  34.913   3.146   3.860
58664W        W30193   1.456  19.040   4.640
58665W        W30194  25.489  12.757   1.683
58666W        W30195  18.221   5.542  13.635
58667W        W30196   4.697  42.499  12.981
58668W        W30197  13.276   2.376   1.539
58669W        W30198  38.798   1.948  13.528
58670W        W30199  24.520  28.443  12.084
58671W        W30200  31.355  16.196  11.238
58672W        W30201  25.190  10.906   3.182
58673W        W30202   5.972   7.957   4.174
58674W        W30203   5.867  16.574  14.231
58675W        W30204  43.251  22.460   4.099
58676W        W30205  44.465  33.559  11.814
58677W        W30206  42.249  31.517  12.277
58678W        W30207  36.417  20.210   0.839
58679W        W30208  29.225  42.454  12.938
58680W        W30209  36.070   9.930  14.242
58681W        W30210  44.620  41.027  12.857
58682W        W30211  41.777  30.372  13.703
58683W        W30212   6.093  40.609  12.215
58684W        W30213  35.094  11.848  10.759
58685W        W30214   9.921  41.877  10.621
58686W        W30215  11.704  29.150   1.354
58687W        W30216  14.137  28.965   4.591
58688W        W30217   6.611  13.877  14.424
58689W        W30218  13.337  34.099  13.307
58690W        W30219  16.389  20.828  14.124
58691W        W30220  41.245   5.240   0.446
58692W        W30221  44.375  35.977  14.452
58693W        W30222  22.144   8.915   1.491
58694W        W30223   8.229   2.298  11.821
58695W        W30224   5.834   0.229   3.003
58696W        W30225  13.847  13.183  11.693
58697W        W30226  22.698  31.902  11.921
58698W        W30227   5.493   7.668   4.222
58699W        W30228  31.470   4.024  10.550
58700W        W30229   1.735  31.239  13.864
58701W        W30230  39.384  16.989  10.646
58702W        W30231  29.624  21.805   3.191
58703W        W30232  35.123   2.980  12.401
58704W        W30233   2.557  29.660  11.945
58705W        W30234  44.126  43.914  13.069
58706W        W30235  12.314  30.800  11.021
58707W        W30236  23.785   1.511   4.623
58708W        W30237  23.632   7.564   2.593
58709W        W30238  36.086  27.501   4.538
58710W        W30239  11.723   2.645  12.604
58711W        W30240  28.894  39.011  13.733
58712W        W30241   4.144  12.815   1.373
58713W        W30242   7.883  17.270  14.790
58714W        W30243  33.584  24.542   3.185
58715W        W30244  41.070  10.903   2.604
58716W        W30245  42.329  43.269   0.681
58717W        W30246   2.445  10.779   0.652
58718W        W30247  26.382   5.729   4.153
58719W        W30248   2.340   8.344  13.579
58720W        W30249   8.836  28.316   4.029
58721W        W30250  34.964  42.988   0.321
58722W        W30251  37.815  11.410   0.455
58723W        W30252  19.092  39.930  14.596
58724W        W30253  22.652  40.640  10.783
58725W        W30254  12.339  24.125   4.071
58726W        W30255   4.860  32.516   0.507
58727W        W30256  14.173  41.264   1.694
58728W        W30257  28.569  36.871  14.884
58729W        W30258  44.700  24.680   1.732
58730W        W30259  21.838  41.068   5.463
58731W        W30260  26.559  13.084  14.329
58732W        W30261  10.976  40.741   1.980
58733W        W30262  17.526  26.984  11.070
58734W        W30263  16.960  20.221   3.580
58735W        W30264  34.121   7.941   0.836
58736W        W30265   5.794  23.900   0.946
58737W        W30266  21.430  11.843  10.021
58738W        W30267   3.021   6.154  12.829
58739W        W30268  42.412  32.431   1.803
58740W        W30269  24.590  20.295  11.813
58741W        W30270  28.520   0.910  11.912
58742W        W30271   0.665  30.064  11.154
58743W        W30272  17.388   4.238   1.372
58744W        W30273  35.512  23.603   3.668
58745W        W30274   6.163  36.213   2.996
58746W        W30275   8.882  30.620  13.014
58747W        W30276   1.867  39.551   1.269
58748W        W30277  19.495  24.684   3.231
58749W        W30278  33.690  40.560   0.363
58750W        W30279  34.111  40.257   2.316
58751W        W30280   7.196   4.483   3.579
58752W        W30281  35.836  11.215  12.999
58753W        W30282   2.411  14.673   2.314
58754W        W30283  27.120  11.713   4.075
58755W        W30284   4.290  14.706  13.772
58756W        W30285  29.255  44.437  10.901
58757W        W30286  12.526  25.347  11.052
58758W        W30287  10.570   9.345   1.241
58759W        W30288   1.276  37.389  13.384
58760W        W30289  11.818   3.906  13.482
58761W        W30290  17.127  40.291  11.001
58762W        W30291   1.662  24.030   2.698
58763W        W30292  30.376   3.134   3.371
58764W        W30293  29.483  32.752  12.350
58765W        W30294   8.125  15.279   3.614
58766W        W30295  38.100   9.387   2.744
58767W        W30296  37.365  36.287  11.364
58768W        W30297  29.141   5.563  12.454
58769W        W30298  20.640  25.462  12.610
58770W        W30299  14.034  35.675  12.128
58771W        W30300  20.104  34.742  11.905
58772W        W30301  34.977  24.021   0.065
58773W        W30302  42.902  32.566   2.423
58774W        W30303  25.433   0.478  14.498
58775W        W30304  40.438  32.622   3.831
58776W        W30305  14.270   6.680   1.695
58777W        W30306  23.174   4.884   1.783
58778W        W30307  35.349  34.449  13.332
58779W        W30308  32.898  17.678  13.084
58780W        W30309  20.985   6.822   2.270
58781W        W30310  25.564   1.171   2.808
58782W        W30311  21.638  13.771   0.023
58783W        W30312  23.765   0.415  11.569
58784W        W30313  34.408   0.965  12.776
58785W        W30314  33.913  19.610  14.997
58786W        W30315  33.378  31.423   2.574
58787W        W30316  19.131   7.926  12.581
58788W        W30317  31.473  23.936  12.074
58789W        W30318  44.520  39.467  10.364
58790W        W30319  36.519  18.690  12.019
58791W        W30320  26.232  32.930  14.897
58792W        W30321  17.765  17.105   1.848
58793W        W30322   1.428   9.435  13.837
58794W        W30323  24.768   5.778   2.402
58795W        W30324  18.813  27.379  10.629
58796W        W30325  26.540  33.980  13.368
58797W        W30326   6.057  17.216   2.962
58798W        W30327  12.724  26.694   0.451
58799W        W30328   8.848  43.415   0.952
58800W        W30329   2.347   3.358   0.067
58801W        W30330  18.084  44.903   4.937
58802W        W30331  18.103  26.740  12.592
58803W        W30332  22.633   2.836   0.884
58804W        W30333  22.816  44.069   2.340
58805W        W30334  11.291  18.042  10.481
58806W        W30335  15.029  18.331  12.622
58807W        W30336  31.989  31.948   1.169
58808W        W30337  43.758   0.143  14.393
58809W        W30338   7.909  22.980   4.869
58810W        W30339  44.267  44.629  11.588
58811W        W30340   5.835  31.933   0.928
58812W        W30341  29.630  23.980   1.660
58813W        W30342  42.802  29.739   3.718
58814W        W30343  16.658  22.807   0.200
58815W        W30344  43.141  27.634  10.740
58816W        W30345  33.996  28.400  12.511
58817W        W30346  18.427  32.890   1.134
58818W        W30347   0.687  12.762  11.067
58819W        W30348  34.941  42.976   2.739
58820W        W30349  20.563  27.586  10.885
58821W        W30350  13.093  26.607   3.785
58822W        W30351  25.064  14.348   4.939
58823W        W30352  12.781  24.084   1.416
58824W        W30353  34.239  20.095  12.364
58825W        W30354   3.237  27.632  11.026
58826W        W30355  26.603  44.415  10.540
58827W        W30356   2.904   4.975   3.273
58828W        W30357  14.846  24.876  10.749
58829W        W30358  16.954  31.707   4.684
58830W        W30359  24.696  30.919   1.607
58831W        W30360  11.170  30.891  13.270
58832W        W30361   8.805  17.030   0.403
58833W        W30362   5.405  27.539  13.417
58834W        W30363  43.004  18.190  12.240
58835W        W30364  38.388  34.847  14.237
58836W        W30365  29.626  13.416   2.354
58837W        W30366  26.571  35.835  12.388
58838W        W30367  31.064   0.987  10.618
58839W        W30368  30.022   2.704  11.832
58840W        W30369  14.601  21.807  11.223
58841W        W30370  23.919  27.418   0.319
58842W        W30371  22.390  25.183  13.875
58843W        W30372  23.581  22.849  12.478
58844W        W30373   2.005  29.130  12.870
58845W        W30374  36.883  18.597  13.885
58846W        W30375  14.624  34.855  12.398
58847W        W30376  23.708  11.799   3.825
58848W        W30377  20.246  43.556   4.553
58849W        W30378   1.397  36.068  14.956
58850W        W30379  43.273  14.377   2.783
58851W        W30380  33.701  21.273   1.423
58852W        W30381   3.402  27.477   4.108
58853W        W30382  20.817   0.070   0.877
58854W        W30383  10.988  42.228   3.248
58855W        W30384  40.506   4.181  12.007
58856W        W30385   7.942  18.107   3.567
58857W        W30386  24.670  26.524   3.613
58858W        W30387  17.753  18.081   1.858
58859W        W30388  11.677   4.187   0.332
58860W        W30389  13.208   7.780   1.602
58861W        W30390  38.104  35.724  11.073
58862W        W30391  17.177  31.129  13.496
58863W        W30392   7.403   7.720  10.838
58864W        W30393  38.287  43.278  14.513
58865W        W30394  17.120  35.973   2.985
58866W        W30395   5.833   6.713  14.066
58867W        W30396  34.607   2.281   4.095
58868W        W30397  33.631  17.812   3.662
58869W        W30398  25.534  44.979   0.374
58870W        W30399   7.852   6.331   3.656
58871W        W30400   2.788  13.303  11.490
58872W        W30401  32.039  25.001  11.855
58873W        W30402  30.563  40.051  14.408
58874W        W30403  38.214   8.812   4.158
58875W        W30404   2.815  32.635  12.394
58876W        W30405  28.070  29.052   1.352
58877W        W30406  11.208  26.195   4.392
58878W        W30407  34.338  32.448   2.975
58879W        W30408   9.402  43.921  14.852
58880W        W30409  31.778   2.967   3.191
58881W        W30410  27.078  34.959  12.110
58882W        W30411  40.480  44.067   1.234
58883W        W30412   2.643  23.736   2.017
58884W        W30413  13.655  39.842   2.698
58885W        W30414   2.814   7.109   4.207
58886W        W30415   0.309  25.101  13.741
58887W        W30416  34.853  12.620   1.635
58888W        W30417  24.534   9.135  12.121
58889W        W30418  17.821  32.437   2.357
58890W        W30419  35.133  27.471   1.007
58891W        W30420  27.384  36.640   3.673
58892W        W30421  26.215  39.974   2.444
58893W        W30422  31.819   5.210  11.472
58894W        W30423  15.369   2.149  10.674
58895W        W30424   9.042  30.608  14.384
58896W        W30425  18.140   5.777   0.755
58897W        W30426  11.774  11.802  10.753
58898W        W30427  20.872   2.394   1.473
58899W        W30428  34.272   4.824   0.431
58900W        W30429  13.942  26.653  12.994
58901W        W30430  39.439  40.882   4.629
58902W        W30431  22.919  36.988   3.797
58903W        W30432  20.256  31.971  12.958
58904W        W30433   5.361  44.893   4.589
58905W        W30434  20.284  21.176   4.171
58906W        W30435  24.586  20.817  10.730
58907W        W30436  13.176  26.297  12.474
58908W        W30437  12.972  12.077  12.960
58909W        W30438  22.558  26.478   4.174
58910W        W30439  35.976  42.310   4.188
58911W        W30440   7.629  10.676   2.759
58912W        W30441  42.312   8.285  12.392
58913W        W30442  12.073   9.900  13.076
58914W        W30443  15.477  39.443  13.880
58915W        W30444  15.805   0.165   1.808
58916W        W30445  18.543  26.971   2.310
58917W        W30446  29.945  11.412   0.218
58918W        W30447   9.948  35.167  11.055
58919W        W30448  43.763  34.306   5.423
58920W        W30449  18.958  40.012   3.146
58921W        W30450  27.852  44.537  11.963
58922W        W30451   9.568  27.497  14.947
58923W        W30452   0.464  24.049  12.882
58924W        W30453   4.656   0.763   2.434
58925W        W30454  41.753  30.812  13.426
58926W        W30455  23.756  25.707  12.991
58927W        W30456  24.226  31.935   2.721
58928W        W30457  21.414  40.983  10.376
58929W        W30458   2.791  17.634  13.878
58930W        W30459  31.339  31.682  12.433
58931W        W30460  14.442  30.573  14.944
58932W        W30461  35.511  37.139   1.652
58933W        W30462  10.604  32.215  11.576
58934W        W30463  29.174  11.762   0.039
58935W        W30464  41.870  21.594   4.825
58936W        W30465  12.663  41.494   3.702
58937W        W30466  21.711  20.189   0.864
58938W        W30467  17.215  43.304   4.712
58939W        W30468  40.019  16.298   3.359
58940W        W30469   9.731   3.692   2.190
58941W        W30470  36.338   7.819  12.111
58942W        W30471  12.864  16.755   2.294
58943W        W30472  24.163  25.132   4.557
58944W        W30473   0.046  38.582  11.542
58945W        W30474  40.438  38.646   1.794
58946W        W30475   1.991  37.451   3.840
58947W        W30476  18.881  36.794   4.814
58948W        W30477  41.085   0.266  11.820
58949W        W30478  27.060   6.474  14.452
58950W        W30479  31.431   3.613  11.523
58951W        W30480  20.514  22.579  14.220
58952W        W30481   9.359  43.387  12.381
58953W        W30482   6.486  35.917  10.779
58954W        W30483  38.133  40.459  14.274
58955W        W30484  42.216  26.265  13.009
58956W        W30485  15.788  13.805  12.718
58957W        W30486  29.449  40.770  11.145
58958W        W30487  26.980  39.810   1.340
58959W        W30488   5.653  36.201   2.832
58960W        W30489  30.377   7.305  14.183
58961W        W30490  10.342  34.895   4.656
58962W        W30491   1.951  43.853   4.357
58963W        W30492  28.014   9.224   1.446
58964W        W30493   1.834  16.828  11.086
58965W        W30494  20.501   4.001  12.664
58966W        W30495  39.938   5.250   4.847
58967W        W30496  44.807  25.595   1.245
58968W        W30497  25.253   3.410   4.101
58969W        W30498  19.623  20.518   3.254
58970W        W30499  37.195  15.132   2.534
58971W        W30500  27.216  36.838  11.097
58972W        W30501   7.881  35.315  13.997
58973W        W30502  31.491  21.417   1.401
58974W        W30503   4.793  15.557   2.797
58975W        W30504  27.165   9.664  13.085
58976W        W30505  37.047  34.884  10.975
58977W        W30506  18.696  39.764   0.338
58978W        W30507  28.389  42.048  14.423
58979W        W30508   7.779  14.883   2.372
58980W        W30509   4.174  36.098  14.751
58981W        W30510  42.003   2.892   4.945
58982W        W30511  33.156  40.462   2.369
58983W        W30512   2.637   3.252   2.250
58984W        W30513  11.920   3.349  14.092
58985W        W30514  29.238  21.543  12.585
58986W        W30515  14.076  40.701   0.263
58987W        W30516   8.552  15.339   4.578
58988W        W30517  17.066  21.208   3.719
58989W        W30518  17.985   9.768   1.657
58990W        W30519  40.391  41.256   2.661
58991W        W30520  37.976   6.728   4.086
58992W        W30521  29.144  25.323   1.621
58993W        W30522   9.774  30.612  13.065
58994W        W30523  13.141  35.685   2.746
58995W        W30524  17.665  19.745  13.840
58996W        W30525  42.411  31.173  12.966
58997W        W30526  35.562  20.344  12.588
58998W        W30527  26.164  15.088   3.888
58999W        W30528  34.624  43.787  11.232
59000W        W30529  17.553  24.539   1.502
59001W        W30530  24.028  11.840   5.008
59002W        W30531   1.835  31.747  13.824
59003W        W30532  32.161  24.286   0.038
59004W        W30533  15.107  10.817  11.587
59005W        W30534  42.317  15.309   3.113
59006W        W30535  33.206   6.329   0.929
59007W        W30536  34.956  22.133  12.351
59008W        W30537   1.810  40.767  12.647
59009W        W30538   0.360  10.166   2.166
59010W        W30539   5.422  40.492   4.345
59011W        W30540  27.681  30.734   4.830
59012W        W30541  22.586  39.943  12.041
59013W        W30542   9.773  29.188  11.032
59014W        W30543  32.565  18.134  13.159
59015W        W30544  21.448  39.159  12.053
59016W        W30545  22.232  21.256  14.698
59017W        W30546  36.488   9.874  13.946
59018W        W30547  29.366  29.977  14.950
59019W        W30548   5.412  40.381   0.032
59020W        W30549   0.265   0.869   4.655
59021W        W30550  17.153  39.120  13.956
59022W        W30551   4.825  43.274   2.559
59023W        W30552  23.841  44.944   3.788
59024W        W30553  35.880  29.684  14.603
59025W        W30554  34.013  23.057   4.533
59026W        W30555  42.929  33.516   1.488
59027W        W30556  39.396  16.203   4.606
59028W        W30557  38.190  41.861   0.369
59029W        W30558  32.838  34.039   0.231
59030W        W30559   9.178   7.276   1.269
59031W        W30560  44.848  43.522  11.006
59032W        W30561  34.933  20.997  12.237
59033W        W30562  35.802  18.703   3.090
59034W        W30563  44.457  29.093  11.497
59035W        W30564   4.076   4.382  14.914
59036W        W30565  13.897  20.238   0.853
59037W        W30566  31.794  42.820   9.916
59038W        W30567  38.154   6.911  14.983
59039W        W30568  39.888  23.048   3.693
59040W        W30569  39.295  25.383   1.768
59041W        W30570  22.751   1.962   0.427
59042W        W30571   5.450  11.349   2.394
59043W        W30572  41.975  26.468   1.680
59044W        W30573  35.290  15.907  13.917
59045W        W30574   2.481  29.951  14.781
59046W        W30575  31.186  25.559  13.951
59047W        W30576  24.579  35.614  13.486
59048W        W30577   1.873  16.869  14.766
59049W        W30578   4.249  24.932  13.526
59050W        W30579  25.643  36.495   3.261
59051W        W30580  19.839  36.498   0.418
59052W        W30581  41.116  11.589  12.054
59053W        W30582  11.102  30.943   4.525
59054W        W30583  40.073  34.923   3.595
59055W        W30584  21.244  17.852   0.407
59056W        W30585  22.222  38.364   3.139
59057W        W30586  29.028  21.068   1.324
59058W        W30587   7.723  11.485  11.239
59059W        W30588   4.217  39.431  12.467
59060W        W30589  28.714  31.562   3.742
59061W        W30590  15.794  22.075   2.314
59062W        W30591  16.059  33.174  14.733
59063W        W30592  18.839  16.908  12.695
59064W        W30593  12.585   3.757   0.010
59065W        W30594   8.935  39.394  14.547
59066W        W30595  17.724  37.624  11.242
59067W        W30596  40.466  13.789   0.641
59068W        W30597  13.619  38.326   2.487
59069W        W30598  39.934  11.310   2.336
59070W        W30599  32.263  24.988   3.602
59071W        W30600  36.158   7.780   3.426
59072W        W30601  17.811  20.723  11.178
59073W        W30602  22.923   5.973   2.636
59074W        W30603   5.214  24.207  10.743
59075W        W30604  37.702  40.537  12.125
59076W        W30605  17.970  31.908   1.380
59077W        W30606  25.676   4.348  11.987
59078W        W30607  33.904   8.854   1.169
59079W        W30608  10.941  15.321  10.651
59080W        W30609   2.396  40.076   0.447
59081W        W30610  23.459  43.043  12.047
59082W        W30611  33.082  40.273  14.034
59083W        W30612  42.043   8.242   3.663
59084W        W30613  39.410  16.839   2.747
59085W        W30614  26.067  25.010  12.166
59086W        W30615  43.920  38.233  14.309
59087W        W30616  42.750  22.570   4.100
59088W        W30617  30.700  22.431   3.695
59089W        W30618   5.833   0.027  12.428
59090W        W30619  28.106  15.377  14.492
59091W        W30620  24.896   3.237   1.379
59092W        W30621   6.736  27.910  10.815
59093W        W30622   9.024   7.671   3.913
59094W        W30623  43.454  13.888  14.622
59095W        W30624  44.465  44.439   5.041
59096W        W30625  43.878   6.613  12.030
59097W        W30626   7.679   8.737  10.831
59098W        W30627   4.296  40.671  12.045
59099W        W30628  27.187  27.529   2.751
59100W        W30629  34.543   6.826   2.740
59101W        W30630   3.281  35.335   2.223
59102W        W30631   7.738  34.443   1.741
59103W        W30632  13.626   5.794  12.054
59104W        W30633  40.950   4.421   4.558
59105W        W30634  44.288  40.903  12.456
59106W        W30635  18.206  29.177  12.564
59107W        W30636  32.568  11.944  14.577
59108W        W30637  38.740  41.399   1.613
59109W        W30638  25.089  23.762   0.900
59110W        W30639   2.502  11.362  14.828
59111W        W30640  31.031  25.543  12.469
59112W        W30641  14.349  38.647   1.464
59113W        W30642  41.109  15.117  12.064
59114W        W30643   4.729  35.617  12.902
59115W        W30644  39.030  42.777  11.117
59116W        W30645  20.519  34.704  13.809
59117W        W30646  25.769  11.765  12.877
59118W        W30647  22.837  16.065  10.717
59119W        W30648  35.069  11.895   0.874
59120W        W30649  28.637  35.632   0.442
59121W        W30650  39.519  30.032   2.606
59122W        W30651  37.253  35.887  13.571
59123W        W30652   9.806  21.859  11.710
59124W        W30653  24.694  22.308  10.459
59125W        W30654  37.909  42.579   1.187
59126W        W30655  42.031  27.978  12.100
59127W        W30656  29.070  11.447  10.675
59128W        W30657  20.538   2.640  11.193
59129W        W30658  13.852   1.693   0.429
59130W        W30659  11.012  23.171   3.282
59131W        W30660  36.590  43.291   0.039
59132W        W30661  32.894  37.889  11.603
59133W        W30662  32.428   2.779  10.881
59134W        W30663  11.004  19.534   3.271
59135W        W30664  16.049   7.478  12.797
59136W        W30665  31.967  23.666   1.367
59137W        W30666  10.016  28.953  13.772
59138W        W30667  35.392  44.731   3.741
59139W        W30668  21.961  40.080  10.286
59140W        W30669  36.321   1.601  13.947
59141W        W30670   8.403  11.063   0.080
59142W        W30671   3.449  34.414   2.690
59143W        W30672  23.498  12.365  13.102
59144W        W30673  23.411  28.879  14.471
59145W        W30674  27.255  29.733   0.912
59146W        W30675  35.382  13.407   4.129
59147W        W30676   8.366  31.362   1.382
59148W        W30677  36.308  42.199   0.948
59149W        W30678   3.046  25.617   4.929
59150W        W30679  12.674  36.439   3.070
59151W        W30680  27.333  10.265   1.928
59152W        W30681   9.317  24.498  13.981
59153W        W30682  39.377  31.154  14.343
59154W        W30683   8.273  21.624  11.650
59155W        W30684  36.835   0.993   2.733
59156W        W30685  38.943  18.328   3.332
59157W        W30686  42.290  29.659   3.751
59158W        W30687  33.962  37.316  14.975
59159W        W30688  25.431  35.618  12.129
59160W        W30689  25.597  11.261  13.892
59161W        W30690  36.037  26.216   3.382
59162W        W30691   1.679  20.652  12.915
59163W        W30692  34.167  26.545  12.841
59164W        W30693   4.383  11.807   4.167
59165W        W30694  23.012  29.423  12.449
59166W        W30695  22.552  25.118  13.073
59167W        W30696  10.581  12.464   3.628
59168W        W30697  38.963  22.171   2.667
59169W        W30698  40.557  11.951   1.658
59170W        W30699  33.282   3.792   0.412
59171W        W30700  31.652  28.059  12.410
59172W        W30701  26.410  38.727  12.495
59173W        W30702   4.016  12.073   0.052
59174W        W30703  37.537  30.035  14.610
59175W        W30704  23.454  30.914   1.738
59176W        W30705  10.537  19.687  11.639
59177W        W30706  40.350   5.743   3.111
59178W        W30707  41.275  28.498  14.913
59179W        W30708  40.523  35.944  13.084
59180W        W30709  38.546  19.059   3.680
59181W        W30710   1.701   5.578  10.932
59182W        W30711  15.181  13.395  11.018
59183W        W30712  18.118  43.780  10.692
59184W        W30713  29.588  12.280  10.506
59185W        W30714  21.543   2.064  12.911
59186W        W30715  16.041  11.280  10.652
59187W        W30716  12.441  21.701  11.881
59188W        W30717   0.918  25.372  14.966
59189W        W30718  28.048   2.192  14.483
59190W        W30719   7.342  10.209   4.339
59191W        W30720   0.467   2.659  12.300
59192W        W30721  18.984  24.488   0.826
59193W        W30722  24.906  38.816   0.209
59194W        W30723   8.275  24.997   2.345
59195W        W30724  19.790  37.114   3.246
59196W        W30725  31.965  38.313   1.012
59197W        W30726   5.253  40.569  14.561
59198W        W30727   9.298   9.350   4.065
59199W        W30728  11.019  32.342  14.838
59200W        W30729  14.567  39.425  10.398
59201W        W30730  36.928  11.595   0.911
59202W        W30731   6.453  12.724  14.915
59203W        W30732  32.438  34.620   4.166
59204W        W30733   6.372   3.194   2.296
59205W        W30734  12.201  28.632  12.417
59206W        W30735  28.105   6.732   0.389
59207W        W30736  16.585   5.912  12.342
59208W        W30737   5.090  13.997  14.364
59209W        W30738  29.661  28.218  11.635
59210W        W30739   8.404  28.187   3.103
59211W        W30740  21.962   2.281  14.236
59212W        W30741  39.460  20.295  12.133
59213W        W30742   6.435  11.062   4.425
59214W        W30743  21.697  38.818   4.269
59215W        W30744  12.841  10.208  11.602
59216W        W30745  35.328  37.506  14.914
59217W        W30746  38.075  37.365  12.033
59218W        W30747  24.758  39.463  11.486
59219W        W30748  35.005  17.337  14.220
59220W        W30749  21.394  25.728   1.846
59221W        W30750  41.321  12.666   2.945
59222W        W30751  25.667  10.411   3.976
59223W        W30752  19.909   2.110   0.805
59224W        W30753  44.274  38.360   4.875
59225W        W30754  37.100  36.123   1.279
59226W        W30755  43.026  43.407  11.022
59227W        W30756  28.001  31.157  12.007
59228W        W30757  10.226  27.878  11.961
59229W        W30758  32.653  32.629   2.876
59230W        W30759  37.875   3.190   0.575
59231W        W30760  37.069  14.335  12.624
59232W        W30761  23.624  32.276  10.961
59233W        W30762  25.190   2.386   3.119
59234W        W30763   7.441  43.422  14.579
59235W        W30764  18.042  42.918  13.105
59236W        W30765  32.552  14.193   2.699
59237W        W30766  10.938  23.912   1.851
59238W        W30767  32.064   9.338   3.397
59239W        W30768  34.164  35.801  14.679
59240W        W30769  22.546   7.395  11.277
59241W        W30770  29.867  37.939   1.269
59242W        W30771  17.553  31.356  14.896
59243W        W30772  44.922  42.114  10.781
59244W        W30773  26.508  23.858   4.453
59245W        W30774   2.959   1.885   3.352
59246W        W30775   2.424  11.631  10.631
59247W        W30776   7.213  21.624  10.716
59248W        W30777   1.104  37.817   4.134
59249W        W30778  28.151  28.223  10.716
59250W        W30779  28.774  19.270  13.351
59251W        W30780  17.040  26.602  11.542
59252W        W30781   8.181  14.193   0.273
59253W        W30782   8.707  43.853   1.205
59254W        W30783   7.129  37.342   4.853
59255W        W30784  39.757  35.389   1.498
59256W        W30785   6.585  10.671  11.284
59257W        W30786  29.588   5.345   4.244
59258W        W30787  38.385   8.957   0.713
59259W        W30788  18.562  43.899   1.354
59260W        W30789   3.353  35.476  11.870
59261W        W30790  41.938  20.828   0.866
59262W        W30791  23.044   3.283  10.697
59263W        W30792  28.959  28.962   1.937
59264W        W30793  20.641  28.965  13.460
59265W        W30794  14.106  37.816  11.226
59266W        W30795  28.721  38.361  14.840
59267W        W30796   3.461  35.966   3.258
59268W        W30797  35.962  25.736  12.051
59269W        W30798  43.462  11.213   2.707
59270W        W30799  42.560   8.645   0.459
59271W        W30800  11.720  18.942  12.036
59272W        W30801  26.717  34.180  12.553
59273W        W30802  35.057   5.745  12.072
59274W        W30803  43.703  25.539   4.401
59275W        W30804  35.002  36.478   0.267
59276W        W30805  33.128  42.516   3.669
59277W        W30806   9.629  10.177  11.961
59278W        W30807   4.522  17.581   0.251
59279W        W30808  39.429   6.160  11.402
59280W        W30809  24.016   4.528  12.472
59281W        W30810  23.634   4.442   4.664
59282W        W30811  27.576  10.377   3.680
59283W        W30812  32.361  38.943   4.321
59284W        W30813   1.037   2.894   3.547
59285W        W30814  12.034  11.146  12.829
59286W        W30815  32.939  26.481   0.427
59287W        W30816  11.733  14.709  10.685
59288W        W30817   7.803  38.773   4.328
59289W        W30818  26.141   6.799  13.871
59290W        W30819  21.199   6.835   2.863
59291W        W30820  28.349   5.224  13.036
59292W        W30821  15.143  23.871   2.699
59293W        W30822   8.416  33.940   4.628
59294W        W30823  44.094  41.993   1.923
59295W        W30824  44.533  26.830   5.188
59296W        W30825  17.597  43.075  13.295
59297W        W30826  28.523  25.180  13.435
59298W        W30827   7.767  36.026  14.484
59299W        W30828  41.003  11.832  10.782
59300W        W30829  41.362  38.798   2.604
59301W        W30830  17.153  22.733   1.399
59302W        W30831  30.446  29.804  12.019
59303W        W30832   1.722  44.343   1.585
59304W        W30833  32.884   8.855   0.825
59305W        W30834  38.443  17.291  12.129
59306W        W30835  44.427  41.482  11.637
59307W        W30836  44.200  16.182  11.606
59308W        W30837  33.048  44.477  12.823
59309W        W30838  25.044  22.417   0.762
59310W        W30839  29.381   1.575   1.665
59311W        W30840  42.959  32.626  10.605
59312W        W30841  16.467  40.064  14.405
59313W        W30842   4.420  32.443  11.062
59314W        W30843   2.478  40.113   3.592
59315W        W30844   6.929  37.910  11.877
59316W        W30845  23.137  10.393   4.614
59317W        W30846  14.176  23.728   0.491
59318W        W30847  34.372  20.660   0.029
59319W        W30848   4.947  12.957  11.065
59320W        W30849   5.543  40.647  11.147
59321W        W30850   1.878  26.000  14.576
59322W        W30851  25.728   2.322   1.390
59323W        W30852  23.994  24.589   3.395
59324W        W30853  34.061   3.022   3.575
59325W        W30854  39.222  10.302   5.041
59326W        W30855   5.594  17.133   2.757
59327W        W30856  17.749   3.902   1.244
59328W        W30857   8.911  38.831   2.832
59329W        W30858  35.293  11.726   5.411
59330W        W30859  22.721  13.429   1.890
59331W        W30860  26.385  41.898  12.943
59332W        W30861  34.433  34.518  14.614
59333W        W30862  20.210  41.879  13.308
59334W        W30863  11.848   2.205   1.841
59335W        W30864   6.434  33.498  14.829
59336W        W30865  35.444   6.036  13.081
59337W        W30866  43.474  16.737  11.044
59338W        W30867  15.642  25.967   1.376
59339W        W30868  40.647  22.693   1.662
59340W        W30869   2.471  37.242   0.255
59341W        W30870  13.814   0.216  10.494
59342W        W30871  17.822  31.414  12.004
59343W        W30872  17.764  14.236  12.050
59344W        W30873  28.381  24.388  13.801
59345W        W30874   4.636  32.921  14.826
59346W        W30875  15.901  37.555  14.354
59347W        W30876  42.301  25.592  13.431
59348W        W30877  27.912  38.849  13.913
59349W        W30878   5.940  34.254   4.595
59350W        W30879  27.263  25.271   1.629
59351W        W30880   9.766   5.274   4.568
59352W        W30881  34.547  31.754  10.804
59353W        W30882  35.045  13.162   4.520
59354W        W30883  21.077  11.868  11.435
59355W        W30884   3.375   5.537   3.592
59356W        W30885  15.762  27.520   4.171
59357W        W30886  43.017  41.765  14.375
59358W        W30887  11.766  34.826   3.623
59359W        W30888  37.104  25.619  14.934
59360W        W30889  32.094  21.433  10.655
59361W        W30890  12.211  39.087  11.844
59362W        W30891  12.028  40.765  13.809
59363W        W30892  29.200  27.779   4.681
59364W        W30893   6.176  10.804   1.316
59365W        W30894  42.425  30.914   1.964
59366W        W30895  43.717  33.357   4.452
59367W        W30896  25.553  37.191  12.908
59368W        W30897   0.338  18.140  12.353
59369W        W30898  43.249  21.951   4.256
59370W        W30899  24.313  36.657   4.773
59371W        W30900  34.166  22.268   4.705
59372W        W30901  36.921   3.482   1.695
59373W        W30902  31.519  21.193  11.526
59374W        W30903  35.970  19.191  12.942
59375W        W30904  34.439   3.249  12.779
59376W        W30905  36.977  39.444   1.793
59377W        W30906  27.605   5.604   1.167
59378W        W30907  44.343  33.507  13.934
59379W        W30908  41.808  38.915  11.245
59380W        W30909  23.262  14.821  14.348
59381W        W30910   3.855   8.480   2.223
59382W        W30911  10.853  30.790   1.486
59383W        W30912  37.366   7.775   2.133
59384W        W30913   9.649   5.335  12.884
59385W        W30914  38.591   4.273   4.881
59386W        W30915  43.887  32.896  14.945
59387W        W30916  14.017   0.740   1.805
59388W        W30917   7.079  19.133  14.077
59389W        W30918  22.090  16.036  13.359
59390W        W30919  34.466  28.452  11.966
59391W        W30920  12.678  36.436   3.586
59392W        W30921  43.936  40.360  14.438
59393W        W30922  21.106  37.837  14.428
59394W        W30923  17.469  10.343  11.093
59395W        W30924  43.129  20.077   0.429
59396W        W30925  25.691  20.547  14.421
59397W        W30926   9.737   7.634   1.692
59398W        W30927  20.228   9.918   3.676
59399W        W30928  22.429   7.518   0.480
59400W        W30929  30.181  44.454   1.772
59401W        W30930  26.480  34.418   3.537
59402W        W30931  24.499   6.354  11.102
59403W        W30932  39.035  30.023   3.508
59404W        W30933  13.154  18.093   0.533
59405W        W30934  43.850  38.036  12.978
59406W        W30935  38.759   2.918  12.569
59407W        W30936  30.551  29.498   0.310
59408W        W30937   1.812   2.742  13.467
59409W        W30938   3.518   9.153  13.319
59410W        W30939  25.433  18.296  13.873
59411W        W30940  18.772   2.348   3.196
59412W        W30941  37.110  13.411   4.231
59413W        W30942   2.377   6.643  11.392
59414W        W30943  12.347  35.647   4.729
59415W        W30944  31.655  26.258   1.833
59416W        W30945   9.459  15.156   3.191
59417W        W30946  17.936  20.606   2.940
59418W        W30947  42.591  33.678  12.883
59419W        W30948   6.240  44.872  12.985
59420W        W30949  20.103  18.673   3.302
59421W        W30950  17.939  13.780   3.692
59422W        W30951  14.524  16.884   2.349
59423W        W30952   6.281  34.507  13.527
59424W        W30953   3.799  31.095   0.605
59425W        W30954  30.841  32.997  12.956
59426W        W30955  11.470  15.317   0.927
59427W        W30956   5.820  29.523   4.424
59428W        W30957  42.377  17.883   0.189
59429W        W30958  20.106  26.531  12.183
59430W        W30959  41.473   7.273   2.839
59431W        W30960  19.255  36.508   5.049
59432W        W30961  30.729  15.934   5.361
59433W        W30962  35.089  10.801   3.810
59434W        W30963  16.729  14.523   2.000
59435W        W30964  37.324  32.475   0.349
59436W        W30965  20.069  44.700  11.254
59437W        W30966  34.029  41.659  12.837
59438W        W30967  27.955  32.891  13.851
59439W        W30968  34.470  29.148   4.478
59440W        W30969  17.638   6.332   5.123
59441W        W30970  31.903  30.455  14.883
59442W        W30971  26.987   4.412  10.576
59443W        W30972  40.509  26.626  12.413
59444W        W30973  13.092  44.416  14.485
59445W        W30974  12.516  26.146   3.310
59446W        W30975  17.601  32.409   3.872
59447W        W30976   8.048  43.042   0.922
59448W        W30977  15.305  28.943   4.739
59449W        W30978  36.918   8.194  12.233
59450W        W30979  25.238   3.786  12.745
59451W        W30980  23.139  12.202  10.985
59452W        W30981  38.590   0.358  12.850
59453W        W30982   8.913  36.029  11.168
59454W        W30983  43.319   0.848  14.993
59455W        W30984  12.816   2.244  14.027
59456W        W30985   0.961  35.621  14.357
59457W        W30986  30.557   1.516  13.812
59458W        W30987  35.898  39.468   0.264
59459W        W30988  35.319  29.691  10.687
59460W        W30989  16.543  10.689   3.153
59461W        W30990  29.573  42.777  13.505
59462W        W30991   8.922  18.726   1.655
59463W        W30992  42.507  40.629   2.306
59464W        W30993  31.452  13.176   2.381
59465W        W30994   2.038   2.880  13.919
59466W        W30995   6.584   5.754   2.805
59467W        W30996  14.091  30.683   4.096
59468W        W30997   3.931   0.326  11.927
59469W        W30998  16.105  17.887  12.083
59470W        W30999  30.625   0.769   3.233
59471W        W31000   4.230  14.785  13.283
59472W        W31001   2.297  41.288  14.264
59473W        W31002  36.155   2.033  14.536
59474W        W31003  23.285  42.838   4.526
59475W        W31004  18.347  28.056  10.224
59476W        W31005  21.597  14.244  13.425
59477W        W31006  37.226  12.095   3.735
59478W        W31007  35.813  38.768   1.991
59479W        W31008  34.486  15.314   4.537
59480W        W31009   7.322  21.708  13.506
59481W        W31010  25.411  17.517   0.746
59482W        W31011  13.599  40.483   1.948
59483W        W31012  10.330  28.475  11.159
59484W        W31013   6.609  29.820  12.306
59485W        W31014  44.212   7.297   1.065
59486W        W31015   2.251  26.414  12.084
59487W        W31016  25.647  17.096   1.928
59488W        W31017   8.368   8.689   4.581
59489W        W31018  23.153  37.128   1.799
59490W        W31019  30.101   9.567  12.996
59491W        W31020  29.132  26.655  11.331
59492W        W31021  36.612  36.129   0.506
59493W        W31022   6.858  16.628  10.581
59494W        W31023  27.141  24.670  13.103
59495W        W31024  30.861  18.320  13.460
59496W        W31025   2.966  10.153   2.338
59497W        W31026  41.066  19.145   5.037
59498W        W31027  23.750  19.696  14.308
59499W        W31028  32.165  10.608  13.382
59500W        W31029  41.203  36.145   3.345
59501W        W31030  17.211  17.242   1.177
59502W        W31031  37.796  26.015   1.921
59503W        W31032  18.244  14.063   1.317
59504W        W31033  12.352  11.122   3.565
59505W        W31034  27.735  43.116   0.145
59506W        W31035  34.649   3.324  11.493
59507W        W31036  32.028  17.519   5.075
59508W        W31037  39.541   4.206   3.333
59509W        W31038  23.440   1.884  12.909
59510W        W31039  18.197  10.205   5.225
59511W        W31040  13.161  25.135  13.090
59512W        W31041   0.441   1.289  12.136
59513W        W31042  41.629  11.162   4.076
59514W        W31043  10.072  18.245   0.394
59515W        W31044  27.508  15.775  13.361
59516W        W31045  13.526  43.729   1.650
59517W        W31046  32.231  17.774   3.762
59518W        W31047  24.980   7.962  13.014
59519W        W31048  32.356  39.292  14.910
59520W        W31049   7.553   4.267   0.741
59521W        W31050  17.737  35.116  10.779
59522W        W31051   7.913  15.340  13.506
59523W        W31052  20.850   1.839  14.457
59524W        W31053  43.369  23.180   2.247
59525W        W31054  36.338  35.426   2.483
59526W        W31055  32.265   6.275   4.013
59527W        W31056  27.517  12.817  11.038
59528W        W31057  24.925  39.193   3.313
59529W        W31058  21.775  25.110   1.382
59530W        W31059   4.929  27.075   0.534
59531W        W31060  20.826  10.402   4.621
59532W        W31061  41.667  21.792  12.975
59533W        W31062   9.667   1.505  13.558
59534W        W31063  38.899  30.948  14.455
59535W        W31064  40.774  15.831  14.778
59536W        W31065   0.749  18.600   4.709
59537W        W31066  44.953  21.733  10.407
59538W        W31067   3.379  20.347  13.371
59539W        W31068  38.329  41.107   2.770
59540W        W31069  37.083  35.832   4.007
59541W        W31070  39.789  29.177  11.844
59542W        W31071  15.014   0.764   1.903
59543W        W31072  14.820  40.070  11.595
59544W        W31073  10.665   3.836   2.241
59545W        W31074  13.124  13.124  13.015
59546W        W31075  40.470  24.785   2.424
59547W        W31076  11.069  32.886  14.004
59548W        W31077  17.198  43.080   0.396
59549W        W31078  15.341  36.488   4.943
59550W        W31079   5.707   2.506  13.245
59551W        W31080  19.522   1.892  14.120
59552W        W31081   6.932  20.509  12.486
59553W        W31082  21.475  41.898  13.769
59554W        W31083   4.943  34.060   0.619
59555W        W31084   0.204  42.807  14.402
59556W        W31085   1.412  35.810   0.962
59557W        W31086  10.717  38.828   2.748
59558W        W31087  15.246   6.418  12.668
59559W        W31088  27.551  21.057   0.496
59560W        W31089  24.441  13.827  13.028
59561W        W31090  23.031  29.348   0.889
59562W        W31091  26.599   9.431   3.724
59563W        W31092  15.583   9.796   2.766
59564W        W31093  39.776  37.847   0.550
59565W        W31094  39.782  10.026  14.306
59566W        W31095   0.511  25.034  14.244
59567W        W31096   7.901  38.449  13.367
59568W        W31097  17.091  30.448  11.196
59569W        W31098   0.851  28.114   3.165
59570W        W31099   4.569  13.677   4.361
59571W        W31100   2.463  34.394  12.418
59572W        W31101  13.743  35.008   4.031
59573W        W31102  36.681  43.055   2.144
59574W        W31103   9.830  31.903   3.217
59575W        W31104  19.611  10.674   1.604
59576W        W31105  33.273   1.755  12.783
59577W        W31106  41.593  37.872  14.403
59578W        W31107  10.196   0.220  11.540
59579W        W31108  24.829  44.729   3.661
59580W        W31109  10.098  15.014  11.138
59581W        W31110  27.569  19.634  12.944
59582W        W31111  26.453  16.749   3.647
59583W        W31112  34.366  21.207  13.659
59584W        W31113  42.964  40.101   3.952
59585W        W31114  18.152  37.231   4.276
59586W        W31115  36.999  35.619   3.540
59587W        W31116   0.566  24.223  10.291
59588W        W31117   2.703  12.340  13.875
59589W        W31118   1.751   9.831   2.799
59590W        W31119   3.482  41.718  14.933
59591W        W31120  15.482   4.327  11.125
59592W        W31121  29.013   1.875   2.952
59593W        W31122   3.256  41.178   0.508
59594W        W31123  44.838   3.033  12.571
59595W        W31124  28.460  12.633  14.086
59596W        W31125  20.282  25.253   1.304
59597W        W31126  34.872  29.448  13.813
59598W        W31127  29.236   6.646  14.654
59599W        W31128  44.231   2.986  11.990
59600W        W31129  34.023  29.920   0.787
59601W        W31130  18.298  16.517  12.909
59602W        W31131  26.665  28.018   2.864
59603W        W31132  25.490  25.985  12.000
59604W        W31133  18.261   3.763   0.231
59605W        W31134  40.071   5.122  13.442
59606W        W31135  12.671  23.824  14.809
59607W        W31136  32.450  34.082   4.889
59608W        W31137   5.759  36.148  12.565
59609W        W31138   4.962  18.541  11.084
59610W        W31139  11.191  38.940  12.973
59611W        W31140   7.136  26.472  14.811
59612W        W31141   0.365  35.953   3.720
59613W        W31142  38.928  30.101   4.018
59614W        W31143  37.173  32.610  13.410
59615W        W31144  31.277  18.872   3.158
59616W        W31145  22.496  41.910   1.256
59617W        W31146  29.879   7.472   3.819
59618W        W31147   2.823  12.430   3.178
59619W        W31148  37.471  30.624  12.666
59620W        W31149   0.104  13.823   1.288
59621W        W31150  23.615  41.591  10.686
59622W        W31151  10.609   7.673   1.916
59623W        W31152  14.176  21.684   0.843
59624W        W31153  18.785  37.911  12.090
59625W        W31154  24.455  39.072  10.216
59626W        W31155  29.052  43.113  12.419
59627W        W31156  18.348  40.865   0.269
59628W        W31157  12.394   2.346   0.547
59629W        W31158  21.144  41.024  11.652
59630W        W31159  41.978  32.571  11.930
59631W        W31160   2.764  11.203   0.501
59632W        W31161  28.921  44.927  12.899
59633W        W31162  21.662  22.826   0.144
59634W        W31163   9.862  21.549   4.358
59635W        W31164  30.400   4.670   3.312
59636W        W31165  12.699  38.840   0.384
59637W        W31166   7.507  18.183  11.072
59638W        W31167  18.659  36.596  10.722
59639W        W31168  44.067  14.789   2.636
59640W        W31169  39.900  41.882  12.123
59641W        W31170  30.179  39.869  11.574
59642W        W31171  26.457  37.433   4.312
59643W        W31172  29.201   3.524  13.403
59644W        W31173  12.294  43.927  10.585
59645W        W31174  32.055  22.698   1.248
59646W        W31175   5.846   7.195   1.747
59647W        W31176  30.706  32.707   4.078
59648W        W31177  28.014  23.948   1.766
59649W        W31178  24.616  26.120  14.991
59650W        W31179  21.099  20.719  10.537
59651W        W31180  29.120   3.821  10.922
59652W        W31181  40.791  39.510   1.344
59653W        W31182  39.608  13.785   4.636
59654W        W31183  12.674   3.291   2.706
59655W        W31184  15.385  37.492  10.623
59656W        W31185   2.783  34.222  14.757
59657W        W31186  24.462  32.462   2.749
59658W        W31187  24.026   5.768  10.731
59659W        W31188  26.478  20.497  13.989
59660W        W31189  11.204  35.023  14.746
59661W        W31190  28.519  39.723   0.615
59662W        W31191  43.192  33.006  11.483
59663W        W31192  37.295  34.275  13.020
59664W        W31193  41.340  24.206  11.202
59665W        W31194  19.833  29.667  12.356
59666W        W31195  19.185   4.656   1.797
59667W        W31196  38.125  15.795  14.390
59668W        W31197  37.922  21.348  10.739
59669W        W31198  18.540  38.112   4.119
59670W        W31199  42.335  10.287   4.251
59671W        W31200   4.686   9.242   1.853
59672W        W31201  43.977  15.160  11.093
59673W        W31202  42.504  27.162   2.182
59674W        W31203  34.641   3.463   2.711
59675W        W31204   1.878  31.712  12.977
59676W        W31205  28.571  42.779   1.180
59677W        W31206  26.173  33.672  12.078
59678W        W31207  16.715  34.202   0.310
59679W        W31208  25.913  10.856  14.779
59680W        W31209  36.172  27.230  13.424
59681W        W31210  39.838  34.134   0.370
59682W        W31211  27.600  28.184   1.771
59683W        W31212  44.417  24.727   0.515
59684W        W31213  19.336   6.511   1.724
59685W        W31214  30.637   6.151  12.491
59686W        W31215  20.661   2.764   2.312
59687W        W31216  12.252  20.899   3.131
59688W        W31217  20.786  19.006   2.197
59689W        W31218  28.906   2.304   0.894
59690W        W31219  13.431  14.623  10.547
59691W        W31220  23.646  11.875  13.021
59692W        W31221  10.864  24.248   4.021
59693W        W31222  31.680  29.745   4.883
59694W        W31223  16.065  20.373   3.548
59695W        W31224  13.134  37.754   1.791
59696W        W31225  44.596  26.560   2.193
59697W        W31226   0.370  22.226  13.554
59698W        W31227  37.848  27.955   4.820
59699W        W31228  29.499  26.636   0.939
59700W        W31229  30.107  20.779  10.784
59701W        W31230  22.609  13.753   4.557
59702W        W31231  29.390  44.927   0.809
59703W        W31232  17.461  44.262   3.294
59704W        W31233  30.192   4.593   1.874
59705W        W31234  17.156  30.064   0.872
59706W        W31235   7.575  16.692   1.931
59707W        W31236  33.631   3.900   2.441
59708W        W31237  19.617  42.471   4.328
59709W        W31238  20.138  36.088   0.537
59710W        W31239  43.437  10.069  14.786
59711W        W31240   2.923  25.957  13.717
59712W        W31241  26.597  36.686  14.775
59713W        W31242  23.816  34.815  14.797
59714W        W31243   2.899  14.070   2.172
59715W        W31244  20.569  27.248  14.528
59716W        W31245   9.409   1.473  11.980
59717W        W31246  15.793  25.550  13.344
59718W        W31247   1.842  23.924  14.672
59719W        W31248  41.467   7.050   4.895
59720W        W31249   8.789   3.819  13.324
59721W        W31250   6.222  42.755  12.130
59722W        W31251  33.106  40.998   2.277
59723W        W31252  21.605   0.724   1.193
59724W        W31253  19.089   8.687   3.589
59725W        W31254  32.595  12.154   4.459
59726W        W31255  12.474   2.715   3.569
59727W        W31256  30.509   2.042  12.848
59728W        W31257  15.841   7.143   4.179
59729W        W31258  28.998  20.193   0.239
59730W        W31259  43.315  40.009  14.654
59731W        W31260  10.660  31.266  13.646
59732W        W31261  24.932  24.134  14.341
59733W        W31262  40.587  30.751   4.953
59734W        W31263   5.769  39.108  11.414
59735W        W31264  15.533   7.684  11.522
59736W        W31265  35.995  37.806  11.506
59737W        W31266  31.638  43.630  10.851
59738W        W31267  16.383  28.518   4.480
59739W        W31268   9.211  12.871  14.110
59740W        W31269  41.895  30.393   3.138
59741W        W31270   2.270   3.845  14.867
59742W        W31271   9.657  41.247  13.813
59743W        W31272  36.358  33.999   3.173
59744W        W31273   2.195  30.374  11.528
59745W        W31274  39.471  15.602   4.137
59746W        W31275  19.672   4.618   2.015
59747W        W31276  34.622  24.664   0.498
59748W        W31277   3.466   7.186  14.600
59749W        W31278  36.798  13.604   2.589
59750W        W31279  42.910  11.949   1.235
59751W        W31280  40.432  39.970   3.173
59752W        W31281  17.649  38.095  14.248
59753W        W31282  39.573  27.921   0.441
59754W        W31283  11.600   6.667   3.853
59755W        W31284  42.720  23.204   3.017
59756W        W31285  28.558  33.851  12.538
59757W        W31286  38.841  29.082   2.324
59758W        W31287  40.355  10.437  11.208
59759W        W31288   6.637  27.777   3.811
59760W        W31289  33.647  40.067   4.661
59761W        W31290   1.338   4.090   1.188
59762W        W31291   4.807  33.139  13.366
59763W        W31292  40.846  21.579   3.724
59764W        W31293  11.557  43.502   4.547
59765W        W31294  11.351  10.314  14.814
59766W        W31295   1.796  14.337  13.907
59767W        W31296  40.103  13.857   3.188
59768W        W31297   1.994  37.142  12.891
59769W        W31298  26.508  13.093  11.148
59770W        W31299   9.641  27.896  11.149
59771W        W31300  22.713   4.293  11.145
59772W        W31301  43.679   8.896  13.028
59773W        W31302  20.665   1.187  11.122
59774W        W31303  41.512  44.861   3.873
59775W        W31304  29.916   2.448  14.375
59776W        W31305  12.720   6.830  10.703
59777W        W31306   7.369  36.300   0.539
59778W        W31307  38.621  36.190  13.849
59779W        W31308  37.742  36.613   0.141
59780W        W31309  32.909   1.048   0.842
59781W        W31310   5.268  25.150   4.549
59782W        W31311   9.751   7.251  10.936
59783W        W31312  43.906  41.851  13.558
59784W        W31313   5.641  18.239  14.635
59785W        W31314   5.839   9.699   2.626
59786W        W31315   4.763  36.043   1.882
59787W        W31316  28.643   2.417   2.850
59788W        W31317  43.665  10.944   0.117
59789W        W31318  21.671  19.611   3.559
59790W        W31319  26.499  30.358   3.194
59791W        W31320  15.961  19.111   9.520
59792W        W31321  14.664  19.723   1.282
59793W        W31322  43.827  43.347  10.586
59794W        W31323  33.056  18.128  10.358
59795W        W31324  19.095  36.771  10.953
59796W        W31325  21.574  24.193  13.000
59797W        W31326  25.750  37.977   4.157
59798W        W31327  26.839  23.223   0.298
59799W        W31328  21.242   0.710  10.513
59800W        W31329  29.591   1.376   5.091
59801W        W31330  40.555   0.594   3.097
59802W        W31331  26.021  27.990  14.606
59803W        W31332  14.658  21.993   3.320
59804W        W31333  21.430  25.715   5.100
59805W        W31334  40.941  39.137  12.460
59806W        W31335  10.736  40.803   0.249
59807W        W31336   9.301  15.808   0.416
59808W        W31337  39.250  32.317  11.672
59809W        W31338  23.275   0.983  11.056
59810W        W31339   7.301   7.283  12.504
59811W        W31340  23.756   4.618  12.026
59812W        W31341   7.957  16.482  12.573
59813W        W31342  15.100  42.106  12.059
59814W        W31343  36.330  40.356  10.726
59815W        W31344   3.929  38.849   1.139
59816W        W31345  43.775  31.528   4.213
59817W        W31346   5.547  25.079   3.305
59818W        W31347  41.164  43.823   4.667
59819W        W31348   9.837   7.880  14.332
59820W        W31349  28.909  13.341   0.267
59821W        W31350  30.896  11.601  11.560
59822W        W31351  13.562  32.029   1.963
59823W        W31352  19.234   4.134  13.914
59824W        W31353  41.831  42.146  14.665
59825W        W31354  21.542  15.800  11.609
59826W        W31355  36.926  10.738   3.355
59827W        W31356  42.460  20.787  13.388
59828W        W31357   1.626   2.192  11.478
59829W        W31358   7.588  12.418   1.422
59830W        W31359  17.697   8.242  14.615
59831W        W31360  13.839  43.855   4.610
59832W        W31361   6.966   2.301   4.122
59833W        W31362  32.458  27.685   0.318
59834W        W31363  17.083  29.109   3.301
59835W        W31364  32.043  24.181  14.394
59836W        W31365  40.373  41.079  11.505
59837W        W31366  15.586  12.205  10.664
59838W        W31367  42.987  39.008  11.763
59839W        W31368  32.169  38.470   2.636
59840W        W31369   3.843  20.234   3.430
59841W        W31370  32.418   2.882  11.910
59842W        W31371   8.026  44.513  12.057
59843W        W31372   9.356  33.174  11.423
59844W        W31373  34.011  24.897  10.661
59845W        W31374  26.501  15.305   2.251
59846W        W31375  12.858  41.171  14.517
59847W        W31376  17.885  42.979  11.452
59848W        W31377  28.644  18.342  11.642
59849W        W31378  24.751   3.423   0.805
59850W        W31379  36.140  15.164   0.809
59851W        W31380  24.813   2.825  14.355
59852W        W31381  24.633   0.335  13.579
59853W        W31382  14.792  34.320  13.276
59854W        W31383  27.645  39.016  11.568
59855W        W31384   5.280  35.347  11.191
59856W        W31385  14.525   5.474  10.827
59857W        W31386  41.829  28.960   3.249
59858W        W31387  29.101  27.147  13.376
59859W        W31388  34.324   9.352  12.119
59860W        W31389   0.045  23.270   2.702
59861W        W31390  12.361  25.110   4.342
59862W        W31391   4.155  14.136  10.868
59863W        W31392  20.155  12.252   3.408
59864W        W31393  34.969  13.695  12.251
59865W        W31394  23.087  33.573   1.661
59866W        W31395  35.578   2.674  12.505
59867W        W31396  16.911  43.892  12.055
59868W        W31397   7.668  15.044  14.779
59869W        W31398   9.815  15.569   5.088
59870W        W31399  21.588  26.649  13.802
59871W        W31400  42.741   6.784   0.344
59872W        W31401  19.716  20.048   0.338
59873W        W31402  28.505  31.575  11.534
59874W        W31403  41.368  38.035  11.974
59875W        W31404  41.848  37.234  11.414
59876W        W31405  25.879  36.666   2.814
59877W        W31406  10.319  26.149  11.981
59878W        W31407  16.575  31.109   4.176
59879W        W31408  12.345   1.866  12.905
59880W        W31409   0.452  36.361   1.175
59881W        W31410  17.495  15.027   2.274
59882W        W31411  35.520   1.660  12.430
59883W        W31412  35.930   8.907   5.057
59884W        W31413  33.018  25.039  14.300
59885W        W31414   1.169  11.172  14.691
59886W        W31415  27.259  15.155   2.709
59887W        W31416  14.365  12.557  11.900
59888W        W31417  26.550  21.574   3.755
59889W        W31418  28.042  38.030  10.194
59890W        W31419  21.938   8.236   1.063
59891W        W31420  39.888  25.758  14.900
59892W        W31421  29.253  43.343   1.462
59893W        W31422  32.426  41.401   5.031
59894W        W31423   3.863  24.210  12.912
59895W        W31424  11.793  14.342  13.096
59896W        W31425  24.179   0.359   2.814
59897W        W31426  40.370  27.410   0.818
59898W        W31427  39.380  10.396   2.760
59899W        W31428  34.465  22.025  12.533
59900W        W31429  33.526  19.222   2.837
59901W        W31430  41.691  34.504   0.797
59902W        W31431  20.986  17.574  12.628
59903W        W31432  33.514  17.471  14.493
59904W        W31433  38.136  44.000   2.214
59905W        W31434  34.551  37.455   0.632
59906W        W31435  38.351  20.275  14.861
59907W        W31436  31.199  22.042   1.355
59908W        W31437  32.067  44.775   3.689
59909W        W31438  40.091   7.336  12.149
59910W        W31439  18.248  34.969  11.649
59911W        W31440   2.008  13.514  12.666
59912W        W31441  40.473  20.500   1.735
59913W        W31442  39.553  24.505   3.804
59914W        W31443  15.289   9.106  12.832
59915W        W31444  44.760  13.540   4.350
59916W        W31445  18.670   7.099  14.342
59917W        W31446   5.381  28.554  14.407
59918W        W31447  36.976  25.998   3.104
59919W        W31448   4.066   4.283  11.375
59920W        W31449  22.975  26.588  10.757
59921W        W31450  33.663  12.285   1.856
59922W        W31451  29.162  15.434   0.711
59923W        W31452  20.010  40.325  13.144
59924W        W31453  38.972   2.341  14.483
59925W        W31454   2.472  10.615   3.165
59926W        W31455  27.132   1.495   0.926
59927W        W31456  22.447  15.119   4.808
59928W        W31457   6.824  35.127   3.644
59929W        W31458   4.203  41.300  14.451
59930W        W31459   1.417  32.642  12.894
59931W        W31460  16.145  43.969   4.326
59932W        W31461  22.167  27.923   0.401
59933W        W31462  31.893   3.408  13.390
59934W        W31463  16.371  29.422  13.359
59935W        W31464  23.212  40.562   0.348
59936W        W31465   7.939  13.790  12.673
59937W        W31466  35.452  21.250   4.905
59938W        W31467   7.633  28.012  12.976
59939W        W31468  35.172  19.550  12.001
59940W        W31469  35.022   8.104   2.388
59941W        W31470  32.979  22.201  11.047
59942W        W31471  24.383  39.256  11.871
59943W        W31472  34.359  18.060  10.579
59944W        W31473  39.567  43.595  13.136
59945W        W31474  32.415  39.412   4.662
59946W        W31475  40.019   3.197  13.625
59947W        W31476  34.024  16.745   2.703
59948W        W31477   9.588  21.334  14.563
59949W        W31478  10.615   1.037  12.517
59950W        W31479  41.101  42.473   0.873
59951W        W31480  41.902   3.733   3.180
59952W        W31481  28.658  32.195  14.542
59953W        W31482  40.642  28.655  10.216
59954W        W31483   9.926  42.801  11.040
59955W        W31484   3.972  35.909   4.151
59956W        W31485  10.251  28.179   2.869
59957W        W31486  12.245  17.526  14.829
59958W        W31487  27.194  17.774  14.897
59959W        W31488  34.328  18.347  12.318
59960W        W31489   9.644  16.310   3.771
59961W        W31490  17.068  30.941  13.967
59962W        W31491  22.120  13.917  14.261
59963W        W31492  24.991  19.493  11.618
59964W        W31493  39.672  25.708  12.132
59965W        W31494   5.400  25.391  11.582
59966W        W31495  20.691  37.123   1.709
59967W        W31496   1.513  18.190  12.925
59968W        W31497  36.949  20.568   4.500
59969W        W31498  23.091  40.895  13.003
59970W        W31499  24.283  34.953   0.371
59971W        W31500   2.876  31.967   1.899
59972W        W31501  14.245  39.094   1.712
59973W        W31502  35.536  37.458   3.104
59974W        W31503  20.644  16.315  11.522
59975W        W31504   2.283   1.396  12.563
59976W        W31505  11.144   0.930   2.672
59977W        W31506  11.707  10.225  12.019
59978W        W31507  36.421  16.078  14.522
59979W        W31508   6.832   1.869  13.493
59980W        W31509  43.787  29.337  13.735
59981W        W31510   3.359  37.223  11.156
59982W        W31511  30.441   4.402   2.301
59983W        W31512  12.608  19.304   2.187
59984W        W31513  44.973  13.406   3.338
59985W        W31514  32.135  32.022   3.008
59986W        W31515   7.769  35.552   0.309
59987W        W31516  22.945  40.331   3.690
59988W        W31517  12.407   5.712  11.205
59989W        W31518   6.178  11.709   2.644
59990W        W31519  44.409  10.402   0.773
59991W        W31520   1.980  20.115  14.781
59992W        W31521   0.312  43.245   3.149
59993W        W31522  35.366  27.944   3.355
59994W        W31523   5.725   3.180   1.724
59995W        W31524  44.382  42.022  13.400
59996W        W31525  30.300   4.997  12.961
59997W        W31526  16.427   9.795   2.454
59998W        W31527  25.851  16.773   1.384
59999W        W31528  22.172  43.976  10.686
60000W        W31529   5.697  37.412  10.661
60001W        W31530   7.799  26.538  10.806
60002W        W31531  39.009   2.623  12.980
60003W        W31532  36.566  13.849   1.766
60004W        W31533   3.782  11.779  11.185
60005W        W31534  39.936  26.931   3.399
60006W        W31535   3.288  14.487   4.216
60007W        W31536  25.158   5.531   0.588
60008W        W31537  34.446  12.374   3.785
60009W        W31538  33.985  11.665  13.115
60010W        W31539   4.765  42.295   0.938
60011W        W31540  29.482   1.979   0.712
60012W        W31541   5.145  38.903   1.894
60013W        W31542  21.998  30.486  12.618
60014W        W31543  18.138  37.036   2.742
60015W        W31544  24.061  40.980   4.084
60016W        W31545  31.062  33.116  11.970
60017W        W31546  11.723  21.885   1.277
60018W        W31547  14.776   3.932   1.339
60019W        W31548  12.815  25.315   2.077
60020W        W31549  17.456  14.660  12.098
60021W        W31550  29.909  32.628   1.016
60022W        W31551   2.859  11.155  10.616
60023W        W31552  34.441   4.315  11.627
60024W        W31553   9.604  39.428   2.139
60025W        W31554   9.169  22.427   0.373
60026W        W31555  21.084   4.720   4.363
60027W        W31556  23.243   3.672  14.545
60028W        W31557   6.162  24.687  14.509
60029W        W31558  43.598  38.350  13.801
60030W        W31559  24.359  36.516  11.689
60031W        W31560  35.056  34.314  14.256
60032W        W31561  12.101  25.388   2.730
60033W        W31562  27.713  25.818  14.933
60034W        W31563  31.023  28.867   0.315
60035W        W31564   1.373   0.349   1.606
60036W        W31565  16.301  19.441   4.540
60037W        W31566  13.365  18.169  14.792
60038W        W31567  18.283  24.236   2.225
60039W        W31568  14.385  23.943   0.058
60040W        W31569  24.854  15.056   2.895
60041W        W31570  12.754  13.680   2.181
60042W        W31571  38.460  40.116   0.334
60043W        W31572   1.030   0.661   3.219
60044W        W31573   6.188  12.789   3.241
60045W        W31574  32.191  42.383  14.223
60046W        W31575  24.606   6.119   1.958
60047W        W31576  10.193   5.339   4.247
60048W        W31577  40.491  15.827  13.452
60049W        W31578   0.472  19.776   2.972
60050W        W31579  34.138  11.119  12.032
60051W        W31580  34.945  35.017   0.228
60052W        W31581  30.011   4.506  13.776
60053W        W31582  26.996  41.687   1.231
60054W        W31583  35.392   3.360  12.653
60055W        W31584  32.563  37.557   4.654
60056W        W31585  16.776   4.781   3.744
60057W        W31586  14.356   5.268   4.112
60058W        W31587  40.704  34.079  14.415
60059W        W31588  23.513  37.618  13.329
60060W        W31589  35.263   0.450  10.972
60061W        W31590  32.335  39.442  11.142
60062W        W31591  16.319  25.385   0.934
60063W        W31592  17.653   5.933   4.148
60064W        W31593  30.930   9.251   1.692
60065W        W31594  34.347  11.238  11.580
60066W        W31595  33.817  37.657   3.951
60067W        W31596  12.878  37.939   0.938
60068W        W31597  35.358  42.364   5.007
60069W        W31598   9.299  28.293  11.924
60070W        W31599  19.676  21.214  14.823
60071W        W31600  32.867   9.221  11.956
60072W        W31601   6.585   2.238  10.968
60073W        W31602  23.987  22.623  10.905
60074W        W31603  44.740  25.012   1.289
60075W        W31604   7.746  19.297  12.195
60076W        W31605   8.789  39.870   2.304
60077W        W31606  28.087  28.398  11.360
60078W        W31607  21.524  22.389   0.363
60079W        W31608  14.669  26.292  11.525
60080W        W31609  35.330  22.697   2.684
60081W        W31610   8.839  18.330   0.834
60082W        W31611   8.180  43.890   3.696
60083W        W31612  44.754  14.399  12.881
60084W        W31613   6.945  20.290  11.064
60085W        W31614  15.610  13.127  10.632
60086W        W31615  32.019  12.737  13.477
60087W        W31616  10.450   3.776   3.180
60088W        W31617  35.465   0.225   2.805
60089W        W31618   1.264  41.440   2.338
60090W        W31619   9.103   9.022   5.003
60091W        W31620   7.819  41.096   0.267
60092W        W31621  16.634  14.892   2.364
60093W        W31622  15.825  18.563  11.730
60094W        W31623  31.484  21.505  13.348
60095W        W31624  25.693  13.256   3.295
60096W        W31625  34.705  11.664   1.196
60097W        W31626  35.667   9.772  13.915
60098W        W31627  19.131   3.693  14.710
60099W        W31628  26.966  31.428  13.850
60100W        W31629  38.821  29.147  11.558
60101W        W31630   4.294   4.973  12.459
60102W        W31631  14.917  25.827  11.577
60103W        W31632  29.527  38.568  14.166
60104W        W31633  42.476  29.259   1.346
60105W        W31634   9.205  28.919   2.132
60106W        W31635  10.390   1.976   1.398
60107W        W31636  20.149  13.131  11.619
60108W        W31637   0.849   9.604  14.842
60109W        W31638  38.006  33.748  13.520
60110W        W31639  34.627  10.445  14.404
60111W        W31640   9.615  38.937  14.171
60112W        W31641  21.941  12.513  14.344
60113W        W31642   3.834  43.769   0.733
60114W        W31643  10.218  24.147  14.249
60115W        W31644  38.422   6.310  14.040
60116W        W31645  22.685  21.135   4.021
60117W        W31646  40.704  27.129   3.455
60118W        W31647  21.213  36.619   4.569
60119W        W31648  34.717  42.916  12.438
60120W        W31649   9.104  30.630  12.364
60121W        W31650  17.261  30.885  13.056
60122W        W31651   4.016  18.107  12.066
60123W        W31652  18.730  35.684  12.414
60124W        W31653  39.093  36.059  14.146
60125W        W31654  38.951  29.886  13.298
60126W        W31655   1.431  42.000  11.154
60127W        W31656  11.256   0.077  12.000
60128W        W31657   4.900  43.953   2.229
60129W        W31658  44.438  28.424  12.983
60130W        W31659  21.124  23.087   3.704
60131W        W31660  27.971  17.580  11.562
60132W        W31661  39.494  43.078   0.859
60133W        W31662  31.564  42.963  13.370
60134W        W31663   3.739  44.961   3.180
60135W        W31664  35.465  37.107  11.734
60136W        W31665  44.726  43.501  14.219
60137W        W31666  17.237  21.560  14.268
60138W        W31667   9.077  42.091  13.423
60139W        W31668   3.129  32.740   1.797
60140W        W31669  27.008  38.535   2.170
60141W        W31670  32.625  21.207  12.042
60142W        W31671  34.895   4.920  14.326
60143W        W31672  23.636   9.278   1.352
60144W        W31673  19.332  42.695  13.879
60145W        W31674  20.940   7.812   3.247
60146W        W31675   2.567  31.544   1.809
60147W        W31676  33.930  40.657  12.019
60148W        W31677  43.964  40.049  14.870
60149W        W31678  42.727  36.433   3.608
60150W        W31679  11.869  25.185   4.177
60151W        W31680  23.310   1.164   3.112
60152W        W31681  23.775  44.351  12.983
60153W        W31682  32.171  13.735  10.221
60154W        W31683  12.750  21.153  10.091
60155W        W31684  39.424   1.717   3.833
60156W        W31685  28.845   1.013  12.307
60157W        W31686  20.480  44.236   3.811
60158W        W31687  22.614  11.069  10.728
60159W        W31688  36.182   6.248  14.269
60160W        W31689  17.041  38.432  12.213
60161W        W31690  22.163  12.383  13.393
60162W        W31691  27.772  12.453  12.492
60163W        W31692  19.034  29.410   1.186
60164W        W31693  32.858  15.251   3.241
60165W        W31694  10.930  14.216  12.383
60166W        W31695  10.172  25.626   2.767
60167W        W31696   0.859  38.960  11.873
60168W        W31697  11.378   3.372   1.485
60169W        W31698  29.866  35.888   3.959
60170W        W31699  42.323  16.399  11.709
60171W        W31700  33.464  29.455   4.144
60172W        W31701  15.665  29.934  11.311
60173W        W31702   7.792  13.100  11.894
60174W        W31703  17.458  11.238   0.004
60175W        W31704   0.148  10.632  10.695
60176W        W31705  27.471  21.214   9.974
60177W        W31706  44.467   1.659   2.281
60178W        W31707  21.223  16.646  12.549
60179W        W31708  26.757   5.647  14.351
60180W        W31709  38.642  17.583  11.770
60181W        W31710  17.073  16.570  11.909
60182W        W31711  28.010  37.492  10.825
60183W        W31712  27.120  15.013  11.990
60184W        W31713  31.910   6.641   4.655
60185W        W31714  10.518  34.890  11.728
60186W        W31715   3.655  12.525  12.514
60187W        W31716  21.625   2.897  12.539
60188W        W31717  22.567  41.920  12.966
60189W        W31718   9.632  19.266  12.365
60190W        W31719  24.788  25.636   0.719
60191W        W31720  43.510  33.483   9.654
60192W        W31721  12.655  42.961   1.696
60193W        W31722  25.618  20.763  12.574
60194W        W31723  40.970  27.483   0.149
60195W        W31724  24.618  13.190  12.368
60196W        W31725   4.852   9.398  11.889
60197W        W31726  10.812   6.420  11.455
60198W        W31727  11.245  26.292  12.031
60199W        W31728  44.657  44.810  14.513
60200W        W31729  42.719   0.972   3.725
60201W        W31730  41.337  15.570  11.606
60202W        W31731   1.352  16.726   1.070
60203W        W31732  21.654  38.567   5.242
60204W        W31733  28.659  22.713   0.225
60205W        W31734  30.703  22.883   1.267
60206W        W31735  29.202  17.619  10.587
60207W        W31736  26.264  31.065  12.783
60208W        W31737   4.930  41.769   2.816
60209W        W31738  17.133  12.184  11.448
60210W        W31739  43.948  13.897  14.458
60211W        W31740  11.304  29.354  14.509
60212W        W31741  36.888   6.747  12.105
60213W        W31742   7.071  10.607   2.636
60214W        W31743  19.019   3.233   1.297
60215W        W31744   8.729  28.509  12.608
60216W        W31745  10.186   2.179   0.962
60217W        W31746  11.177   1.205  11.605
60218W        W31747  16.978  33.564  13.561
60219W        W31748   3.057  21.764   0.946
60220W        W31749  40.938  38.427   0.724
60221W        W31750   2.813   3.195  14.934
60222W        W31751   9.756  32.915  12.056
60223W        W31752   6.161  33.385   4.159
60224W        W31753   4.778  17.163  10.717
60225W        W31754  41.093  36.497  11.585
60226W        W31755  20.051  26.541  14.767
60227W        W31756   8.988  34.793  13.041
60228W        W31757  26.735   7.524   0.855
60229W        W31758  13.863  21.072  10.363
60230W        W31759   2.721  39.519   4.565
60231W        W31760  17.316  39.840  13.472
60232W        W31761  15.372  27.579   3.312
60233W        W31762  19.081  27.486  12.994
60234W        W31763  39.391  40.295   1.482
60235W        W31764  42.886  15.687  10.661
60236W        W31765  22.670  17.166  13.055
60237W        W31766  36.887   9.380  11.130
60238W        W31767  31.686  38.572   3.350
60239W        W31768   3.480  34.076  13.042
60240W        W31769  16.539  25.714   2.386
60241W        W31770   5.762   4.233  11.473
60242W        W31771  15.006  22.626   4.351
60243W        W31772  30.543  41.952   0.503
60244W        W31773   3.675  34.492  10.565
60245W        W31774  38.301  27.616   3.634
60246W        W31775  42.374  24.894  14.982
60247W        W31776   2.047  14.025  11.543
60248W        W31777  34.260  32.350  11.693
60249W        W31778   1.208  10.117   5.065
60250W        W31779  23.238  21.281  12.271
60251W        W31780  26.232  13.516  14.463
60252W        W31781  34.086  40.858   2.690
60253W        W31782  11.153  12.828   0.346
60254W        W31783  11.520  30.706  13.950
60255W        W31784  40.026  19.398   0.739
60256W        W31785   1.848   7.309   2.253
60257W        W31786  44.112  32.208  11.575
60258W        W31787   6.857  24.130  11.260
60259W        W31788  11.676  29.199   1.873
60260W        W31789   3.838   5.446  14.468
60261W        W31790  33.644   4.728  10.491
60262W        W31791  20.519  19.824  12.850
60263W        W31792  16.847   0.191   4.879
60264W        W31793  28.022  23.898  14.535
60265W        W31794  31.025  44.860   2.859
60266W        W31795  36.019  15.390  10.788
60267W        W31796  44.459  26.630  12.952
60268W        W31797   6.356  27.526   2.420
60269W        W31798  20.174  29.494  14.708
60270W        W31799  26.760  18.057  13.985
60271W        W31800   6.096   1.367  12.004
60272W        W31801  43.768  27.875  13.891
60273W        W31802   6.644  19.396  13.975
60274W        W31803   4.654  40.593  10.761
60275W        W31804   3.542  36.354  14.484
60276W        W31805   6.964   4.756  14.674
60277W        W31806  26.997  13.817   3.727
60278W        W31807  25.701  10.891   0.237
60279W        W31808  37.846  27.038  14.471
60280W        W31809  18.320   6.714   3.724
60281W        W31810  42.542   0.935   2.414
60282W        W31811  14.757  33.657   3.640
60283W        W31812   7.092   6.471   0.499
60284W        W31813  10.261  42.918  13.342
60285W        W31814  31.442  12.347   1.778
60286W        W31815  41.319  18.213  14.033
60287W        W31816  41.562   2.925  10.532
60288W        W31817  26.339  19.644  11.418
60289W        W31818   8.267  36.904   1.874
60290W        W31819  32.699  13.285  12.518
60291W        W31820  27.726  36.343  13.826
60292W        W31821  32.116  40.269  12.915
60293W        W31822   0.269  27.415  14.857
60294W        W31823   6.044  36.366   2.505
60295W        W31824  38.991  15.501  13.493
60296W        W31825   2.848  22.440   1.326
60297W        W31826  30.597  17.127   4.499
60298W        W31827  30.085  39.883  14.487
60299W        W31828  21.476   4.248  14.369
60300W        W31829  21.020  38.950   3.300
60301W        W31830  13.213  24.885  10.689
60302W        W31831  21.364   4.323  12.507
60303W        W31832  31.107  13.527   3.642
60304W        W31833  36.893  25.100  11.529
60305W        W31834  17.573  43.012   3.620
60306W        W31835   8.709  29.226   4.392
60307W        W31836  40.972  42.834  10.651
60308W        W31837  18.258   3.281   4.616
60309W        W31838   9.788   2.213  13.073
60310W        W31839  25.911  15.164  10.772
60311W        W31840  19.285  18.297  13.317
60312W        W31841   9.737   0.745  12.155
60313W        W31842   9.641   0.730   3.626
60314W        W31843  39.381  26.675  11.524
60315W        W31844   1.781  18.068   0.469
60316W        W31845  32.936  29.677  14.454
60317W        W31846  17.251  17.297   2.194
60318W        W31847   3.223  18.668  12.573
60319W        W31848  37.902  32.660  10.632
60320W        W31849  35.661  40.925  10.784
60321W        W31850  36.617  31.973   3.599
60322W        W31851  16.292  24.428   1.135
60323W        W31852   2.930  36.569  14.758
60324W        W31853  23.522  37.367   0.953
60325W        W31854   7.351  35.443   4.825
60326W        W31855   6.797  29.696  12.777
60327W        W31856  19.090  16.865  10.843
60328W        W31857  11.854  27.368  11.524
60329W        W31858   2.417  37.804   4.955
60330W        W31859  29.438  41.715  11.786
60331W        W31860  16.607  40.181  11.158
60332W        W31861  35.112  27.234  10.914
60333W        W31862   5.684   8.812  14.883
60334W        W31863  41.873  29.268  14.807
60335W        W31864  21.624  24.234  10.733
60336W        W31865   2.475  26.646  12.516
60337W        W31866  31.320  42.737   4.523
60338W        W31867  36.110  42.697  13.376
60339W        W31868   2.090  10.233   3.904
60340W        W31869  24.610  12.113  13.478
60341W        W31870  20.631   5.939   1.422
60342W        W31871  35.897  29.410  12.060
60343W        W31872  28.802  13.753   5.357
60344W        W31873  29.489  32.859  13.332
60345W        W31874   3.956   0.059  14.453
60346W        W31875  25.635  31.219  12.063
60347W        W31876  28.216   6.844   4.493
60348W        W31877   8.680   8.314   2.389
60349W        W31878   7.663  24.874  12.851
60350W        W31879  42.573  44.745  11.923
60351W        W31880  44.793  10.875   2.229
60352W        W31881  33.308  37.872   3.321
60353W        W31882   6.777  43.397   0.827
60354W        W31883  37.918  20.556   4.135
60355W        W31884  27.476  26.025  13.336
60356W        W31885  16.957  30.251  10.367
60357W        W31886  37.501  37.066  10.792
60358W        W31887  36.548   9.501   2.732
60359W        W31888  25.739  13.629   1.337
60360W        W31889  26.695  40.416  12.342
60361W        W31890   7.851   5.605   1.650
60362W        W31891   6.233  12.737   2.413
60363W        W31892   9.896  22.938   4.187
60364W        W31893  20.085  15.889  12.383
60365W        W31894  35.794  13.283  10.723
60366W        W31895  19.316  19.298  12.478
60367W        W31896  15.878   6.478   2.655
60368W        W31897  42.411   7.654  13.045
60369W        W31898  27.474  13.021   4.221
60370W        W31899  14.578  13.211   2.463
60371W        W31900  31.447  34.012   0.715
60372W        W31901   4.350   3.678   4.939
60373W        W31902  18.761   6.929  10.711
60374W        W31903  34.956  23.501   0.215
60375W        W31904  23.756   8.741  13.044
60376W        W31905  20.113  22.062  12.426
60377W        W31906   4.134  40.913  13.350
60378W        W31907  17.142  11.683  14.992
60379W        W31908  12.907  43.982   0.783
60380W        W31909   9.770   9.299   3.851
60381W        W31910  23.311  39.868  12.445
60382W        W31911  32.797   9.494   0.034
60383W        W31912  44.790  18.701   2.358
60384W        W31913  32.216   8.164   0.911
60385W        W31914  36.336  32.515  14.498
60386W        W31915  38.797   6.285   1.667
60387W        W31916  34.938  27.532   1.499
60388W        W31917  23.655  24.664  10.925
60389W        W31918  33.384  35.694  12.285
60390W        W31919  39.416  38.915   0.655
60391W        W31920  23.657  20.797  13.522
60392W        W31921  42.727  41.418   1.644
60393W        W31922   4.669  39.467   3.550
60394W        W31923  10.121  24.218   1.320
60395W        W31924  31.440  26.142   4.345
60396W        W31925  39.336  34.465   3.570
60397W        W31926  26.576  43.538   3.389
60398W        W31927  33.002  14.510  14.769
60399W        W31928  32.315  43.515  13.403
60400W        W31929  14.797  36.528   4.030
60401W        W31930  43.187  19.226   3.278
60402W        W31931   9.981  29.319   1.348
60403W        W31932  32.981   4.025  10.613
60404W        W31933   4.168  31.436   1.190
60405W        W31934   4.600  30.425   0.331
60406W        W31935  42.081  11.438  10.890
60407W        W31936  19.194   1.381  11.861
60408W        W31937  17.253  43.442   3.683
60409W        W31938  23.532  23.195  14.479
60410W        W31939  16.249  26.596   0.298
60411W        W31940  16.256  26.925  14.893
60412W        W31941  34.250  19.803   4.592
60413W        W31942  32.890  39.338   2.458
60414W        W31943  24.235  40.745  14.550
60415W        W31944  36.898   4.011  12.532
60416W        W31945   2.272  18.140   0.296
60417W        W31946  20.969  44.243  12.310
60418W        W31947  44.216  24.282   2.223
60419W        W31948   9.386  10.171   2.324
60420W        W31949   8.432  27.054   3.962
60421W        W31950  23.500  28.186  12.088
60422W        W31951  38.485  23.875  14.918
60423W        W31952  42.380  22.489  11.125
60424W        W31953  18.510  33.545   2.834
60425W        W31954   8.384  10.412   2.977
60426W        W31955  23.631  24.252  11.684
60427W        W31956  31.566  37.925   4.263
60428W        W31957  43.072  31.563  12.803
60429W        W31958  12.240  22.120  10.738
60430W        W31959   1.840  38.099  11.494
60431W        W31960  18.138  17.539  12.876
60432W        W31961  15.532  28.956   1.365
60433W        W31962  39.853   6.359   0.340
60434W        W31963  28.498  22.047  11.098
60435W        W31964  17.649  12.230   0.711
60436W        W31965  10.355  27.397  12.180
60437W        W31966  17.243  40.875  12.091
60438W        W31967   1.445  27.668   4.345
60439W        W31968  26.022  23.232  12.712
60440W        W31969  25.274  39.982  13.781
60441W        W31970  15.424  17.701   1.126
60442W        W31971  39.006   1.643  13.895
60443W        W31972  18.608  36.092  15.000
60444W        W31973  38.662  37.824  10.059
60445W        W31974  23.109   4.005  11.904
60446W        W31975  23.588  22.773  11.561
60447W        W31976  34.668  27.354  13.241
60448W        W31977  16.032  10.713   1.209
60449W        W31978  22.790   6.671  12.968
60450W        W31979  11.311  36.093   3.899
60451W        W31980   9.359  26.293  12.294
60452W        W31981  44.836  28.499  13.303
60453W        W31982  19.791   5.789  11.091
60454W        W31983  34.014  13.731   2.273
60455W        W31984  29.642  27.917   1.386
60456W        W31985  13.682   8.227   5.048
60457W        W31986   6.946  23.760  11.626
60458W        W31987  28.494  35.252  11.801
60459W        W31988  33.155  20.125  14.831
60460W        W31989  42.280   5.321   3.720
60461W        W31990  21.230   3.875   2.787
60462W        W31991   5.391  12.985  14.434
60463W        W31992  43.078  41.081   1.829
60464W        W31993  25.999  22.100   0.347
60465W        W31994  30.069  22.399   4.345
60466W        W31995  23.243  13.275   1.018
60467W        W31996  21.169  28.112   4.668
60468W        W31997   5.799  39.051   0.408
60469W        W31998   2.225  31.404  13.907
60470W        W31999  35.430  40.394   2.771
60471W        W32000  26.101  21.838   2.496
60472W        W32001  29.254  32.528   5.540
60473W        W32002   6.952   4.117  11.101
60474W        W32003   9.957  11.719   1.490
60475W        W32004  27.589  16.767  14.993
60476W        W32005   4.804  27.264   2.496
60477W        W32006  27.783   6.672   2.656
60478W        W32007  28.072  41.295  14.025
60479W        W32008  19.708  34.307   2.771
60480W        W32009  29.162  15.362  12.349
60481W        W32010  41.477  15.220   4.245
60482W        W32011  37.947  14.354  12.383
60483W        W32012  10.358  23.846   1.780
60484W        W32013  20.545   6.159  10.778
60485W        W32014   6.732   3.398   1.043
60486W        W32015   0.295  32.013  12.052
60487W        W32016  23.557  35.880   4.066
60488W        W32017  25.896  38.813  12.441
60489W        W32018   2.833   0.703  14.281
60490W        W32019  39.814  44.992   4.521
60491W        W32020  18.122  31.262  13.392
60492W        W32021  13.776   0.484  14.970
60493W        W32022  14.095   8.279   0.851
60494W        W32023  14.201  24.774   1.905
60495W        W32024   6.852  23.050   2.337
60496W        W32025  15.150  14.275   3.329
60497W        W32026  42.666  14.118   1.906
60498W        W32027   7.109   1.195   2.472
60499W        W32028  22.841  27.619  12.396
60500W        W32029  13.806  11.341  14.292
60501W        W32030  44.386  34.204   2.908
60502W        W32031   7.950  44.856  12.819
60503W        W32032  25.694  22.047   1.356
60504W        W32033  13.091   8.060  12.419
60505W        W32034  23.436  30.052   3.712
60506W        W32035  25.561   3.708   2.729
60507W        W32036  31.055  40.364   4.114
60508W        W32037  31.435  19.492  11.044
60509W        W32038   0.645  43.464   4.351
60510W        W32039   3.450   6.869   1.918
60511W        W32040  11.405  29.505   5.032
60512W        W32041   5.258  38.265  12.999
60513W        W32042  23.219  10.873   4.440
60514W        W32043  18.862  21.253  11.745
60515W        W32044   5.763   8.179   4.570
60516W        W32045  43.339   4.802   4.797
60517W        W32046   1.290  42.793  13.314
60518W        W32047  41.972  34.590  14.384
60519W        W32048  36.916  23.629   3.979
60520W        W32049  39.423  17.765   2.910
60521W        W32050  19.072  41.345  11.212
60522W        W32051  17.603  38.453  10.454
60523W        W32052  44.166  23.975   0.702
60524W        W32053   9.439  10.076  11.038
60525W        W32054  40.274  38.366  10.729
60526W        W32055  41.595  20.544  11.886
60527W        W32056  11.209   3.227   0.565
60528W        W32057   9.605  13.825   3.756
60529W        W32058  31.011   1.271  14.013
60530W        W32059  39.533  40.896  14.868
60531W        W32060   7.257  40.974  14.725
60532W        W32061  29.452  23.863   2.909
60533W        W32062   2.289  38.372   1.707
60534W        W32063  40.787   6.444   3.667
60535W        W32064  10.847  36.122   1.676
60536W        W32065   2.741  35.136  12.617
60537W        W32066  42.932  11.833   4.227
60538W        W32067  21.119  39.163  11.656
60539W        W32068  35.468  23.493  13.509
60540W        W32069   4.820  25.873   2.914
60541W        W32070   3.470  33.267   4.855
60542W        W32071  28.996  15.236  10.929
60543W        W32072  27.042  42.741  13.604
60544W        W32073  14.246   6.770   0.694
60545W        W32074   1.902  11.182  11.644
60546W        W32075  12.145  23.659   2.370
60547W        W32076  30.033  36.147   0.470
60548W        W32077   3.887  11.700  11.705
60549W        W32078  15.139  39.047  11.934
60550W        W32079  33.464  15.536  12.976
60551W        W32080  23.953  41.493  12.063
60552W        W32081  40.873  12.687   2.191
60553W        W32082  25.536   0.905  14.993
60554W        W32083  22.155   2.017   1.236
60555W        W32084   2.593  13.356   1.369
60556W        W32085  41.516  37.091  13.937
60557W        W32086  41.919  17.743   4.624
60558W        W32087  12.252  22.430   3.263
60559W        W32088  27.504   4.251   2.238
60560W        W32089  10.467  18.863   3.710
60561W        W32090  42.515  43.419   2.696
60562W        W32091  44.264  36.010  12.921
60563W        W32092  22.053  40.967  11.440
60564W        W32093  44.136  33.894  11.562
60565W        W32094   5.853  28.704   0.954
60566W        W32095  17.521  39.861   3.108
60567W        W32096  23.689  36.356   0.772
60568W        W32097  39.437  35.096  10.443
60569W        W32098  22.974  28.310  14.511
60570W        W32099  34.237  40.375   2.807
60571W        W32100   5.078  13.530   4.239
60572W        W32101  19.688  19.575   1.069
60573W        W32102   3.453  29.843  14.921
60574W        W32103  35.192  23.661   4.188
60575W        W32104   0.491   5.948  10.717
60576W        W32105  19.467  13.156  11.220
60577W        W32106  32.567   3.713  11.403
60578W        W32107  18.884  39.526   5.029
60579W        W32108   0.907  43.767  12.490
60580W        W32109  28.506  30.577  13.444
60581W        W32110  30.319  24.649   4.507
60582W        W32111   3.056   9.350  11.935
60583W        W32112  42.007  11.880  10.632
60584W        W32113   0.280   3.852  14.848
60585W        W32114  11.245  31.240  12.904
60586W        W32115  13.185  44.480   3.258
60587W        W32116  25.108   2.365  11.661
60588W        W32117  34.615  33.156  12.024
60589W        W32118   6.600  44.003   4.702
60590W        W32119  42.246  37.789  12.039
60591W        W32120  12.049  37.943  11.078
60592W        W32121  39.478  40.137   1.000
60593W        W32122  20.756  12.835   0.420
60594W        W32123  21.584  14.173   1.270
60595W        W32124  29.809  37.847   0.241
60596W        W32125  42.945  20.460  14.821
60597W        W32126  13.779  41.328   0.948
60598W        W32127  14.296  26.021   3.430
60599W        W32128  28.468  21.737   2.477
60600W        W32129  40.382  20.221   4.603
60601W        W32130  31.707   0.765  13.129
60602W        W32131   7.885  23.401   1.435
60603W        W32132  30.999  27.173  12.607
60604W        W32133  41.036   0.425  11.306
60605W        W32134  13.586   7.314  11.302
60606W        W32135  23.085   4.916   0.873
60607W        W32136  33.694   7.308  12.573
60608W        W32137  40.835  41.469  13.809
60609W        W32138  34.078  32.033   1.771
60610W        W32139  12.858  20.037   4.724
60611W        W32140   2.970  30.721   3.637
60612W        W32141  11.161  14.370  14.007
60613W        W32142  11.092  18.171   0.307
60614W        W32143  38.018  24.729  12.928
60615W        W32144  42.356  21.274  10.649
60616W        W32145  10.946  19.123  14.930
60617W        W32146  23.041  37.468   3.118
60618W        W32147  43.908  34.814  13.885
60619W        W32148  17.233   6.713  10.517
60620W        W32149  13.625  30.127  13.548
60621W        W32150  39.880  16.367   4.615
60622W        W32151  18.456  44.030   4.521
60623W        W32152  30.159  28.232   3.303
60624W        W32153  23.281   5.636  12.045
60625W        W32154  22.062  23.338  11.524
60626W        W32155  13.505   1.762  13.561
60627W        W32156   5.165  26.739   0.860
60628W        W32157  21.827   6.972   1.292
60629W        W32158  34.588  10.552   4.299
60630W        W32159  12.780  40.420   2.901
60631W        W32160  20.486  29.993   3.658
60632W        W32161   8.764  24.424  10.713
60633W        W32162   4.774  14.290  14.989
60634W        W32163  10.174  18.008  12.769
60635W        W32164  15.630  13.887   4.883
60636W        W32165  43.964  30.448   3.616
60637W        W32166  26.960  35.172   2.485
60638W        W32167  34.935  38.642   4.170
60639W        W32168   0.804  34.008   2.607
60640W        W32169   2.639  14.402  14.433
60641W        W32170  41.532  43.586   3.271
60642W        W32171  14.442   3.594  13.483
60643W        W32172  12.565  18.131  13.600
60644W        W32173  18.881  36.644   3.183
60645W        W32174  16.096  17.643  13.512
60646W        W32175   8.900  43.458  10.681
60647W        W32176  43.170  10.034   0.239
60648W        W32177  43.670  14.620  11.120
60649W        W32178  34.541   7.782   2.639
60650W        W32179  22.719  25.604   2.291
60651W        W32180  41.985  17.807  10.807
60652W        W32181   9.010  27.601  10.173
60653W        W32182  10.575   1.804  12.844
60654W        W32183  31.216  26.179  13.323
60655W        W32184  18.787  42.409  13.026
60656W        W32185  18.217   1.237   3.086
60657W        W32186  26.739  24.495  11.664
60658W        W32187  32.563   6.916   1.278
60659W        W32188  34.862  38.812   0.700
60660W        W32189  35.461  35.471   3.636
60661W        W32190  44.252   1.535  13.522
60662W        W32191  26.535   2.519  14.571
60663W        W32192  14.538  21.958  13.468
60664W        W32193  37.808  23.060  11.148
60665W        W32194   5.131   2.072   3.351
60666W        W32195  38.810   3.563  10.904
60667W        W32196  44.272   8.328  10.748
60668W        W32197  17.813  27.347   9.764
60669W        W32198  13.271  32.061  14.372
60670W        W32199  15.908  42.971   3.575
60671W        W32200  44.508  30.122   4.352
60672W        W32201  18.045   4.979  10.705
60673W        W32202  16.659   3.346   3.649
60674W        W32203  16.783  11.132   1.669
60675W        W32204   4.820   6.120   3.608
60676W        W32205   5.733  32.863   2.041
60677W        W32206   6.323   6.423  11.641
60678W        W32207  14.589  37.282   1.965
60679W        W32208  44.076  12.720  10.623
60680W        W32209   3.413  39.593   1.839
60681W        W32210  32.914  30.847   4.629
60682W        W32211  21.496  24.830   1.885
60683W        W32212  11.900  44.969  14.410
60684W        W32213   4.715   1.179  11.183
60685W        W32214  33.455  27.828  13.653
60686W        W32215  30.569  24.051   0.506
60687W        W32216  35.115  40.113   0.403
60688W        W32217  31.897  31.933  11.107
60689W        W32218  41.563  36.020  10.995
60690W        W32219  32.174  36.350  12.631
60691W        W32220  19.682  14.298   1.267
60692W        W32221  24.163  23.152  13.603
60693W        W32222   2.335  34.575   2.802
60694W        W32223  14.378  35.893   2.392
60695W        W32224   1.056  17.665   0.321
60696W        W32225  28.480  19.997   4.233
60697W        W32226   3.140  41.898  13.890
60698W        W32227  29.538  44.557  14.974
60699W        W32228  27.200   2.838   3.718
60700W        W32229  22.038  35.774  11.997
60701W        W32230  44.729  19.575  12.992
60702W        W32231  19.427  20.025  11.509
60703W        W32232  42.713  16.115  13.785
60704W        W32233   1.941  26.158   2.241
60705W        W32234  12.187  12.657   2.679
60706W        W32235  24.685  25.020  11.489
60707W        W32236   0.018   9.421  12.031
60708W        W32237  30.751  37.782  13.965
60709W        W32238  31.869  13.222   4.639
60710W        W32239  25.726  40.248   1.434
60711W        W32240  38.190  35.377   0.310
60712W        W32241   6.265  30.262  13.350
60713W        W32242  13.387  19.970   4.927
60714W        W32243  23.129  40.389   5.575
60715W        W32244  26.669  30.569   3.652
60716W        W32245  32.856  38.702  11.122
60717W        W32246  14.737   9.429  14.532
60718W        W32247  32.880  44.262  11.121
60719W        W32248  43.811  12.196   3.790
60720W        W32249  35.037  38.150   0.361
60721W        W32250  36.451  34.846   3.324
60722W        W32251  34.011  16.233   3.748
60723W        W32252  24.960  37.343  11.977
60724W        W32253  26.110  19.252   2.105
60725W        W32254  35.982  26.159  11.245
60726W        W32255  38.146  15.493   0.028
60727W        W32256  36.997   5.348  10.710
60728W        W32257   3.243   9.734   1.161
60729W        W32258   0.144  33.956   0.543
60730W        W32259  30.432  34.093  11.585
60731W        W32260  11.361  26.582  12.889
60732W        W32261  38.768  29.466  10.661
60733W        W32262   2.971  28.021   2.808
60734W        W32263   5.370  28.373  10.778
60735W        W32264  14.718   6.813  13.866
60736W        W32265   6.969   0.783   2.752
60737W        W32266   4.273  27.607   1.676
60738W        W32267   6.758  14.033  11.672
60739W        W32268  23.122  36.030   3.000
60740W        W32269   9.168  33.899   3.158
60741W        W32270   1.748   8.147   4.244
60742W        W32271  39.418  10.504   3.766
60743W        W32272  36.880   0.677   1.209
60744W        W32273  41.090  18.961   4.533
60745W        W32274   6.381  22.128   1.363
60746W        W32275  11.362  11.662  14.496
60747W        W32276   5.217  31.045  14.972
60748W        W32277  31.154   5.971   2.261
60749W        W32278   0.429  14.392   4.970
60750W        W32279   0.527  26.447   4.525
60751W        W32280  27.766  19.777   3.272
60752W        W32281   4.814  10.205   3.863
60753W        W32282  16.563  32.180   1.253
60754W        W32283  24.479  38.925   5.052
60755W        W32284  34.332   1.208  12.003
60756W        W32285  33.532  28.566  12.251
60757W        W32286   7.921  13.655   3.601
60758W        W32287  34.079   7.666   3.112
60759W        W32288  20.591  14.809   4.165
60760W        W32289  31.829  30.863   0.726
60761W        W32290  17.644  43.112   1.634
60762W        W32291  35.762   1.956  12.875
60763W        W32292   4.361  26.485   2.392
60764W        W32293  22.182  20.248  11.703
60765W        W32294   0.834   7.633  11.087
60766W        W32295  21.752  10.863  13.584
60767W        W32296  21.011  12.247  12.567
60768W        W32297   3.654  19.481   0.849
60769W        W32298  42.948  24.922  11.017
60770W        W32299  39.068  33.403  11.509
60771W        W32300  19.665  13.729   2.878
60772W        W32301   9.315  40.616   0.906
60773W        W32302  18.184  41.102  12.548
60774W        W32303  23.110  18.589   1.377
60775W        W32304  32.048  39.999   3.577
60776W        W32305  17.246  38.944   0.399
60777W        W32306  10.043  12.963  12.460
60778W        W32307  23.257  22.080   2.296
60779W        W32308  10.668  36.189   5.335
60780W        W32309   3.023  28.254   4.570
60781W        W32310  28.865  40.608  13.247
60782W        W32311  41.284  14.739  11.466
60783W        W32312  28.568  37.489  10.701
60784W        W32313  42.329  37.413   0.442
60785W        W32314   2.747  12.930  13.411
60786W        W32315  32.425  24.446  12.803
60787W        W32316  38.410  29.353   0.005
60788W        W32317  28.906  23.424  10.718
60789W        W32318   4.256   6.782  10.747
60790W        W32319  31.603   8.708   3.769
60791W        W32320  31.572  43.272   0.664
60792W        W32321   7.721  43.447  10.599
60793W        W32322   8.296   0.429  13.623
60794W        W32323  36.380   3.108   2.322
60795W        W32324  14.151   4.765  14.046
60796W        W32325  40.973  12.730   3.310
60797W        W32326  33.925   6.760   2.303
60798W        W32327  10.045  14.337   2.685
60799W        W32328   6.251   7.832   1.050
60800W        W32329  22.685   0.427   0.706
60801W        W32330   0.988   0.489  13.535
60802W        W32331  16.924  35.756  12.925
60803W        W32332   4.672  36.055  11.614
60804W        W32333  11.925  12.153  13.862
60805W        W32334  19.263  34.860   1.347
60806W        W32335  35.005  36.783   3.842
60807W        W32336   9.363   5.372  11.603
60808W        W32337  36.843  31.145  12.155
60809W        W32338  43.205  27.120  11.551
60810W        W32339  30.845  37.064   2.980
60811W        W32340  30.987   5.408   1.483
60812W        W32341  43.980  20.650  13.555
60813W        W32342  37.069   9.388   1.563
60814W        W32343   7.907  18.560   3.791
60815W        W32344  22.184   1.543  12.486
60816W        W32345  38.759  27.675  13.879
60817W        W32346  15.083  12.295  11.557
60818W        W32347   3.732  18.998   0.739
60819W        W32348  37.932  36.690  14.328
60820W        W32349  44.808  21.786   0.684
60821W        W32350   0.846  42.995  13.464
60822W        W32351  33.978  38.392  11.599
60823W        W32352  19.871   7.851  14.173
60824W        W32353   5.546  18.344   1.300
60825W        W32354  35.340   6.228  14.842
60826W        W32355  16.360  12.243  12.850
60827W        W32356  18.516   9.549  13.304
60828W        W32357  15.034  16.709  11.542
60829W        W32358  31.821   4.117  12.266
60830W        W32359  42.517  43.373  11.026
60831W        W32360  12.668  20.267  12.438
60832W        W32361  24.238  15.063  13.535
60833W        W32362  17.653  22.601   4.639
60834W        W32363  39.163  34.884  11.730
60835W        W32364  30.492  12.162   4.131
60836W        W32365  19.306  43.733   2.405
60837W        W32366   0.904  36.690   2.412
60838W        W32367  39.649  22.562   1.747
60839W        W32368   8.852  33.846   2.718
60840W        W32369   5.834  20.622  13.311
60841W        W32370  13.682  18.872  14.067
60842W        W32371   7.853  38.934   4.860
60843W        W32372  11.673  37.277   5.230
60844W        W32373  38.650   0.142  11.489
60845W        W32374  12.973   1.785   3.575
60846W        W32375  21.779  16.408   0.990
60847W        W32376   8.712  31.834  12.060
60848W        W32377  21.703  27.969  13.512
60849W        W32378  37.030  24.490  13.955
60850W        W32379  11.705   8.043   3.178
60851W        W32380  22.628  41.826   4.331
60852W        W32381  28.611  33.395  13.931
60853W        W32382   5.139  33.026   4.802
60854W        W32383  30.065   4.946  12.186
60855W        W32384  11.119  13.134   1.877
60856W        W32385   6.676  17.046   4.294
60857W        W32386  18.735   5.813   3.798
60858W        W32387  24.768   8.317  10.543
60859W        W32388  26.573  43.673  13.504
60860W        W32389  21.990  11.209  11.987
60861W        W32390   3.364  18.180   1.954
60862W        W32391   8.941  33.016  11.177
60863W        W32392  16.100   1.229  14.770
60864W        W32393  36.960  31.950   1.387
60865W        W32394  32.363  36.563   0.485
60866W        W32395  10.228  35.841  10.035
60867W        W32396  29.006  28.839  14.498
60868W        W32397  14.626  24.262   3.313
60869W        W32398  24.035  19.083  13.462
60870W        W32399  32.532   0.886   3.606
60871W        W32400  34.415  36.773   1.725
60872W        W32401  20.257   0.331  12.883
60873W        W32402   6.550   4.349  10.831
60874W        W32403  11.667   9.288  11.160
60875W        W32404  36.100  16.113  13.660
60876W        W32405  17.274  12.813  11.241
60877W        W32406   7.548  39.784  13.965
60878W        W32407  12.402  22.499  14.379
60879W        W32408   0.025  33.101  11.632
60880W        W32409   9.687  30.941  13.985
60881W        W32410  32.597  16.033  12.823
60882W        W32411   5.337  32.556   4.675
60883W        W32412  26.008   6.273  13.993
60884W        W32413  34.073  33.407   4.232
60885W        W32414  21.153   6.531  12.043
60886W        W32415  26.599   0.507  11.363
60887W        W32416  39.225   7.308   4.152
60888W        W32417  41.412  29.459   4.121
60889W        W32418  16.577   9.521  13.384
60890W        W32419  22.921  30.555   1.301
60891W        W32420  42.170  41.885   4.430
60892W        W32421  36.389   5.220   4.650
60893W        W32422   1.870  33.449  12.822
60894W        W32423  38.278  15.249  12.367
60895W        W32424  40.874  17.905   1.228
60896W        W32425  20.831  32.913   0.136
60897W        W32426  38.007  29.796  14.486
60898W        W32427   2.005  12.627  13.169
60899W        W32428   2.302   2.216  10.694
60900W        W32429   2.893  28.698  14.432
60901W        W32430  13.238  30.270   0.241
60902W        W32431  23.419  42.505  12.083
60903W        W32432  29.048   5.621  11.126
60904W        W32433  41.779  25.533  12.103
60905W        W32434  16.656  41.275   1.783
60906W        W32435   1.157  23.732  12.565
60907W        W32436  40.500  28.201   2.702
60908W        W32437  39.117  11.764   3.433
60909W        W32438  29.059  34.621  13.540
60910W        W32439  41.528  43.858   2.382
60911W        W32440  18.036  17.655  11.596
60912W        W32441  38.346  43.742  10.694
60913W        W32442   9.937  42.589   2.699
60914W        W32443   8.829  17.078   3.999
60915W        W32444   6.059   9.653   2.150
60916W        W32445  19.964  18.603   2.374
60917W        W32446  40.336  12.182  14.717
60918W        W32447  41.515   6.417   0.783
60919W        W32448  16.996   2.339   2.877
60920W        W32449  14.723   2.078   4.506
60921W        W32450   4.510   2.860   0.255
60922W        W32451   0.708   1.927   1.896
60923W        W32452  13.691  34.154  12.092
60924W        W32453   2.865  21.403   1.268
60925W        W32454   9.278   5.360   1.781
60926W        W32455  22.194  33.277   0.062
60927W        W32456   1.810  39.047  11.841
60928W        W32457  21.776  32.612   0.013
60929W        W32458  34.618   6.679  14.765
60930W        W32459  24.700  20.431  14.785
60931W        W32460  20.845  14.281   2.863
60932W        W32461  22.351  34.718   3.778
60933W        W32462  14.900  24.505   0.729
60934W        W32463   2.259   4.600   5.035
60935W        W32464  37.095  21.544  10.978
60936W        W32465   0.761  14.031  12.883
60937W        W32466  41.389   7.415   0.945
60938W        W32467  10.241  35.932   3.853
60939W        W32468   8.097  18.161   3.093
60940W        W32469  21.876  44.824  11.346
60941W        W32470   8.233  29.441   2.718
60942W        W32471  30.029   9.299   4.154
60943W        W32472  29.468  20.985   0.358
60944W        W32473   3.863  28.580  13.401
60945W        W32474  43.879   3.024  13.957
60946W        W32475  16.284   2.854   4.375
60947W        W32476   4.500  24.094   1.217
60948W        W32477  31.356  44.426   3.155
60949W        W32478   5.661   4.823  10.749
60950W        W32479  43.755  13.522  10.644
60951W        W32480  24.884  29.110  11.627
60952W        W32481  39.480  26.021   4.311
60953W        W32482   2.659  37.909  10.455
60954W        W32483  18.161  29.124  11.284
60955W        W32484  21.981  23.725   3.699
60956W        W32485  38.957   8.360   4.126
60957W        W32486  17.840  28.211  13.994
60958W        W32487  21.120  10.698   1.415
60959W        W32488  33.595  41.055  14.017
60960W        W32489  27.664  31.865   0.005
60961W        W32490   6.600  35.718  11.955
60962W        W32491  24.067  40.498   0.917
60963W        W32492   0.572  20.331   4.274
60964W        W32493  37.428  41.211   2.871
60965W        W32494   4.064  10.251  12.401
60966W        W32495  38.064  42.095   1.212
60967W        W32496  38.761  36.122  12.555
60968W        W32497   5.345  17.852  13.819
60969W        W32498  36.405  14.702   0.665
60970W        W32499  28.670   2.214  13.465
60971W        W32500  41.848  13.004   3.631
60972W        W32501  19.208  30.104   1.882
60973W        W32502  38.685  44.880   0.005
60974W        W32503  36.351   5.307  13.091
60975W        W32504   9.821   2.420   4.470
60976W        W32505  12.319  28.948   4.106
60977W        W32506  34.909  14.414  14.940
60978W        W32507   9.892  32.872  12.562
60979W        W32508   4.666  38.880   4.181
60980W        W32509  38.452  13.075   4.318
60981W        W32510  43.850  15.153  12.665
60982W        W32511  11.374  35.626   4.517
60983W        W32512  35.955  10.311  14.583
60984W        W32513  15.841  31.424  10.914
60985W        W32514  41.530   5.062   0.866
60986W        W32515  28.001  44.331  10.301
60987W        W32516  30.447   4.104   3.564
60988W        W32517  30.717  44.513   3.596
60989W        W32518   9.798  18.114  13.537
60990W        W32519  20.628  25.568   3.311
60991W        W32520  30.221   2.160  10.606
60992W        W32521  30.515   1.586  11.402
60993W        W32522  17.085  32.379   4.009
60994W        W32523  26.073   5.411   0.915
60995W        W32524  33.611   7.724   0.873
60996W        W32525  37.796  23.062  14.237
60997W        W32526   4.423  21.249  13.494
60998W        W32527   7.673  41.257  13.113
60999W        W32528  24.085   6.068   0.280
61000W        W32529  40.023  34.792  12.608
61001W        W32530   5.546  25.075   4.120
61002W        W32531  15.844  29.153   3.493
61003W        W32532  43.139  30.152  13.821
61004W        W32533   7.824  34.891  14.907
61005W        W32534  17.776  28.985   0.862
61006W        W32535  15.305  35.801  13.545
61007W        W32536   2.112  11.145   1.839
61008W        W32537  30.115   7.164   4.189
61009W        W32538   9.896   8.297   0.539
61010W        W32539  12.332  31.915   2.506
61011W        W32540  28.378  35.912  12.983
61012W        W32541   1.355   1.451  12.952
61013W        W32542  13.247  14.074  11.947
61014W        W32543  23.726  22.146  13.054
61015W        W32544  14.914   6.264  14.981
61016W        W32545   2.662   1.270   3.647
61017W        W32546  17.533  26.117   0.819
61018W        W32547  42.543  13.133   1.913
61019W        W32548   2.335  34.463  14.178
61020W        W32549  28.979   7.625  12.182
61021W        W32550  21.119  17.885  11.185
61022W        W32551   7.257  43.194  10.629
61023W        W32552  24.581  23.263   1.833
61024W        W32553  32.366   9.313  11.891
61025W        W32554   4.783   4.200   2.708
61026W        W32555  24.117  10.605   1.350
61027W        W32556  25.083   7.618   2.736
61028W        W32557  24.955  34.492  12.962
61029W        W32558  35.525  10.684  12.392
61030W        W32559  29.207   2.784  13.052
61031W        W32560  21.919   8.874   0.431
61032W        W32561  16.748  27.426  12.112
61033W        W32562   2.384   9.242  11.927
61034W        W32563  12.143  42.742   0.871
61035W        W32564   7.718   9.119   4.538
61036W        W32565   6.680  19.098   1.820
61037W        W32566  21.697  24.059   0.380
61038W        W32567  32.184   6.798  12.033
61039W        W32568  17.529  30.825  14.176
61040W        W32569  16.573   7.902   1.933
61041W        W32570  38.379  41.766  14.230
61042W        W32571  28.037   4.273   2.179
61043W        W32572   0.847  39.580  14.608
61044W        W32573  12.750  13.180  14.343
61045W        W32574   1.282  18.653  12.791
61046W        W32575   8.258  42.769   3.166
61047W        W32576  31.065  15.696   3.539
61048W        W32577  22.566  22.657   2.192
61049W        W32578  36.092  18.390  11.926
61050W        W32579  28.158  25.780   0.394
61051W        W32580  17.353  31.031   1.940
61052W        W32581   2.151  25.928   1.675
61053W        W32582  29.475  13.632   1.922
61054W        W32583   4.386  17.634   2.357
61055W        W32584  44.552  19.066  13.484
61056W        W32585  14.483  37.465  11.933
61057W        W32586  25.731   3.724  14.920
61058W        W32587  33.308  24.714   2.219
61059W        W32588   8.734   8.957  13.534
61060W        W32589  42.875  24.623  11.435
61061W        W32590  26.319  12.911  13.462
61062W        W32591  41.215   6.384   1.964
61063W        W32592  38.504   9.942  10.388
61064W        W32593   7.796  44.824   1.624
61065W        W32594  22.524  14.852   0.862
61066W        W32595  21.728  31.094  14.310
61067W        W32596   1.137  11.403   3.634
61068W        W32597  35.551  27.151  11.182
61069W        W32598  11.758  36.161   3.219
61070W        W32599  30.871   6.020  13.424
61071W        W32600  25.689  39.684  14.807
61072W        W32601  19.965  10.228  11.217
61073W        W32602  41.123  12.400  10.657
61074W        W32603  37.318  43.865  12.571
61075W        W32604  13.800  25.900   1.306
61076W        W32605  42.463  34.371  12.372
61077W        W32606  33.748  43.416  10.762
61078W        W32607  23.662  23.191   1.749
61079W        W32608   3.217  35.936   3.755
61080W        W32609  40.364  17.104  14.949
61081W        W32610  11.384  12.501   1.035
61082W        W32611  18.413  22.854   4.112
61083W        W32612   9.765  38.137   1.652
61084W        W32613  42.751  30.141  14.377
61085W        W32614  24.887  22.019  13.942
61086W        W32615  36.573   5.322   1.806
61087W        W32616   8.697  26.455  10.873
61088W        W32617  13.768  12.119  12.400
61089W        W32618  12.047  36.600  13.071
61090W        W32619  32.924   6.902   3.559
61091W        W32620  22.528   7.584   4.728
61092W        W32621  14.991  21.826   4.826
61093W        W32622  10.616  38.343   2.670
61094W        W32623  37.892  23.219   3.131
61095W        W32624  19.085  43.367   0.747
61096W        W32625   3.324  32.137  13.307
61097W        W32626  37.404   6.115   1.449
61098W        W32627  20.106  39.280   1.248
61099W        W32628  42.196  22.274  11.583
61100W        W32629  28.805  27.251  12.071
61101W        W32630  26.634  38.971  10.783
61102W        W32631  38.985  40.727  14.817
61103W        W32632  42.053  33.358  11.014
61104W        W32633  15.726   0.023  14.283
61105W        W32634  33.859  27.133  13.106
61106W        W32635  42.363  41.398   4.324
61107W        W32636   2.753  12.907   2.836
61108W        W32637   5.794   6.904  13.105
61109W        W32638  21.589  35.514  10.714
61110W        W32639   0.946   2.375   1.642
61111W        W32640   5.144  19.467   5.478
61112W        W32641  37.205  19.567  12.588
61113W        W32642   0.296  44.771  13.381
61114W        W32643  25.591  42.455   3.359
61115W        W32644  16.284  15.282  14.928
61116W        W32645   6.350  35.455  14.043
61117W        W32646  17.239   4.215   2.351
61118W        W32647  14.733   7.417  14.551
61119W        W32648  41.359  10.631  13.153
61120W        W32649  39.862  23.489   0.930
61121W        W32650  22.496  24.245  12.045
61122W        W32651   7.201  14.192   4.510
61123W        W32652  33.536  43.360   0.966
61124W        W32653  17.196  22.309  11.746
61125W        W32654  26.412  42.743   5.080
61126W        W32655  30.682  28.396  13.887
61127W        W32656   0.849  30.597  12.389
61128W        W32657   5.772  13.312   0.322
61129W        W32658  43.372  10.985   2.242
61130W        W32659  44.850  43.373   1.688
61131W        W32660  18.719  23.209   4.818
61132W        W32661  23.994  18.162  11.422
61133W        W32662   0.008   9.905  14.429
61134W        W32663  33.021  16.314   2.351
61135W        W32664  34.013  24.373   3.408
61136W        W32665  44.914  16.611   1.047
61137W        W32666  40.615  22.167  12.446
61138W        W32667  40.980  38.685  11.193
61139W        W32668  21.576  34.503  11.232
61140W        W32669  15.689  11.571   2.834
61141W        W32670  27.565  18.606  14.372
61142W        W32671   0.370  44.363  12.042
61143W        W32672  27.417  18.215  12.548
61144W        W32673  15.336  19.207  12.611
61145W        W32674  37.105   2.351   4.814
61146W        W32675  10.298  31.210  14.381
61147W        W32676   4.177  10.116   2.703
61148W        W32677  11.166   5.831   4.587
61149W        W32678  11.391  22.483  13.628
61150W        W32679  35.873  25.063  11.469
61151W        W32680  20.483  41.444   0.506
61152W        W32681  35.988  11.348  11.892
61153W        W32682  29.076   8.985  14.270
61154W        W32683  15.161  13.158   3.811
61155W        W32684  21.393  23.358   2.207
61156W        W32685  44.765  16.395  14.020
61157W        W32686  29.869   3.752  14.608
61158W        W32687   4.057  43.879   0.291
61159W        W32688  27.739  40.980   0.700
61160W        W32689  27.528  39.818  11.165
61161W        W32690  29.128  19.545   4.376
61162W        W32691  41.083  33.417   0.980
61163W        W32692  21.744  18.466   1.321
61164W        W32693   1.211  30.594  10.567
61165W        W32694  24.539  38.831   3.249
61166W        W32695  10.638  13.893   3.800
61167W        W32696  36.571  27.692  14.455
61168W        W32697  39.454   2.703   2.338
61169W        W32698  43.032   0.934  14.536
61170W        W32699  16.070  23.955   2.749
61171W        W32700  11.107  16.317  14.133
61172W        W32701  26.385  37.420  11.643
61173W        W32702  10.433  20.735  14.175
61174W        W32703  28.797  26.494  10.655
61175W        W32704  37.326  43.467  14.060
61176W        W32705  34.561   9.645  11.534
61177W        W32706  25.152  20.667   0.228
61178W        W32707  24.008  26.452  12.901
61179W        W32708   4.756   0.023  14.927
61180W        W32709  30.204  41.855   0.030
61181W        W32710  17.792  12.644   3.374
61182W        W32711  10.652  34.780  14.576
61183W        W32712  33.300  44.509   0.227
61184W        W32713   1.888  33.305   3.734
61185W        W32714  42.746  22.477   2.250
61186W        W32715  23.170  11.226  12.510
61187W        W32716  12.752  39.898  14.619
61188W        W32717  22.397  24.339   1.628
61189W        W32718   7.915  31.472  12.938
61190W        W32719  43.429   6.672   2.244
61191W        W32720  19.287   2.507   2.277
61192W        W32721  28.977   4.044  14.263
61193W        W32722  43.368   2.312   4.090
61194W        W32723  28.929   8.711  13.840
61195W        W32724   5.996  10.666   1.795
61196W        W32725  44.263  34.010  14.262
61197W        W32726  42.734  17.820  12.948
61198W        W32727  28.422   1.945  10.898
61199W        W32728  24.185  28.558  10.885
61200W        W32729  32.713  33.136  10.667
61201W        W32730  41.010  42.910   4.620
61202W        W32731  15.421   3.613   5.195
61203W        W32732  30.093  22.629   1.856
61204W        W32733  26.501   0.526  13.950
61205W        W32734  36.955  13.117  13.300
61206W        W32735  40.987  15.038   1.703
61207W        W32736  44.777   4.961  13.577
61208W        W32737  15.087  25.133  12.060
61209W        W32738  11.279  31.749   3.183
61210W        W32739  38.659   1.068   2.603
61211W        W32740  12.798  17.749   2.316
61212W        W32741  19.183  42.325   4.018
61213W        W32742  23.567  14.907  12.672
61214W        W32743  40.930  29.713  14.332
61215W        W32744  44.752  30.550   4.564
61216W        W32745  10.343  22.439  14.332
61217W        W32746  29.747  10.929  11.745
61218W        W32747  35.017  42.256   4.583
61219W        W32748  42.981  30.509   4.398
61220W        W32749   9.603   8.004  14.779
61221W        W32750   3.377   2.820  12.862
61222W        W32751   4.777   2.417  12.859
61223W        W32752  10.870  22.744   1.845
61224W        W32753   4.313  33.585   1.635
61225W        W32754   6.452  34.591   2.470
61226W        W32755  11.002  19.113  11.178
61227W        W32756   3.392  11.308  14.302
61228W        W32757  10.289  32.104  12.015
61229W        W32758   9.111  34.411   2.156
61230W        W32759  11.204  16.329   0.544
61231W        W32760  11.829  29.678   2.260
61232W        W32761  14.727  19.292  10.659
61233W        W32762  40.336  27.654  11.074
61234W        W32763   9.608  43.496   3.216
61235W        W32764  19.270  30.665  14.029
61236W        W32765  11.171  38.328  11.540
61237W        W32766  30.209   3.389  11.141
61238W        W32767  18.219  25.669   3.131
61239W        W32768  23.615  21.777  14.837
61240W        W32769  15.996  25.892   4.736
61241W        W32770  32.834  31.975  14.530
61242W        W32771  36.149   8.148  10.606
61243W        W32772   9.677  30.878   4.248
61244W        W32773  19.995  15.854   1.934
61245W        W32774   0.748   8.728  13.069
61246W        W32775   6.600  32.625   0.049
61247W        W32776  42.659   1.772   2.396
61248W        W32777  19.505  43.842   3.707
61249W        W32778  14.411  43.432   2.660
61250W        W32779  11.292  12.412  11.924
61251W        W32780   9.873  23.407   3.366
61252W        W32781   1.954  25.160   4.196
61253W        W32782  15.174  12.092  12.885
61254W        W32783  26.024   4.050   4.134
61255W        W32784  31.771  23.052  12.109
61256W        W32785   2.317  18.272   2.840
61257W        W32786  40.127  39.505  11.458
61258W        W32787  35.040  36.491  13.490
61259W        W32788  40.961  15.636   2.804
61260W        W32789   1.355  43.362  13.356
61261W        W32790  16.997  27.058  13.990
61262W        W32791  12.669  19.452  12.828
61263W        W32792  29.278  16.873  13.053
61264W        W32793  15.212  43.807  10.538
61265W        W32794   5.764  28.104   0.845
61266W        W32795  44.497  30.964  10.653
61267W        W32796  21.694  33.763   1.579
61268W        W32797  10.335  14.591   2.332
61269W        W32798  21.972  10.777  14.788
61270W        W32799  40.591  37.474  13.914
61271W        W32800  35.629  36.443   4.612
61272W        W32801  19.136  21.892   4.598
61273W        W32802  23.983  31.652  13.311
61274W        W32803  38.611  12.763  12.867
61275W        W32804  43.920  33.982  13.475
61276W        W32805  29.132  27.940   0.475
61277W        W32806  26.291  25.307   3.156
61278W        W32807  14.882  37.492  14.537
61279W        W32808  15.406   5.198  12.919
61280W        W32809  36.878  42.978  12.050
61281W        W32810  20.055  26.041   2.725
61282W        W32811  39.911  10.329  12.940
61283W        W32812  22.692  18.071  14.057
61284W        W32813  33.414  38.657   2.751
61285W        W32814  20.179   0.011   2.205
61286W        W32815  12.416  31.458   0.319
61287W        W32816   1.729  38.809   2.961
61288W        W32817   4.457  14.724  11.504
61289W        W32818  14.685  43.255   4.723
61290W        W32819  14.353  32.706   3.060
61291W        W32820  33.437  11.048   3.157
61292W        W32821  21.419  25.051  13.920
61293W        W32822  16.068  44.127   3.226
61294W        W32823   2.612  28.264  11.983
61295W        W32824  23.430   4.931   4.695
61296W        W32825  16.144  27.620   0.271
61297W        W32826  16.409  40.870   3.347
61298W        W32827  22.130   8.406   0.607
61299W        W32828  23.796   5.669   0.832
61300W        W32829   8.718  19.595   5.548
61301W        W32830  16.822  11.898   0.355
61302W        W32831  25.056  41.449  12.168
61303W        W32832  21.561  36.058  10.676
61304W        W32833   9.676  24.863  13.453
61305W        W32834  31.317  36.173   4.617
61306W        W32835   2.854   7.764   1.687
61307W        W32836  12.663  14.072   3.145
61308W        W32837   7.610  16.597   3.334
61309W        W32838  19.229   9.347   0.481
61310W        W32839  35.404  13.664   2.298
61311W        W32840  39.368  37.626  10.676
61312W        W32841  29.708  31.353  14.799
61313W        W32842  15.077  40.534   0.342
61314W        W32843  14.545  39.369   2.301
61315W        W32844  23.439   0.023  11.577
61316W        W32845   7.363   5.320   4.541
61317W        W32846   8.134  21.100   1.753
61318W        W32847  40.457  43.569   1.295
61319W        W32848   2.903  23.707   0.368
61320W        W32849   4.241   0.696  12.258
61321W        W32850  36.865   6.384   2.856
61322W        W32851  40.387  19.271   2.402
61323W        W32852  14.596  12.671  12.605
61324W        W32853  36.586  25.671  14.819
61325W        W32854  30.506  36.130  11.577
61326W        W32855  23.228   4.342   2.760
61327W        W32856  22.779  13.139  11.163
61328W        W32857  25.518  25.261  13.002
61329W        W32858  29.134  40.278  11.938
61330W        W32859   3.113   0.500   0.248
61331W        W32860   2.743  17.226  11.435
61332W        W32861  10.818  11.405   2.842
61333W        W32862  22.096  35.860   0.957
61334W        W32863   2.327  31.616   3.207
61335W        W32864  39.489  27.737  13.335
61336W        W32865  18.583  27.490   2.747
61337W        W32866  13.629  30.548   3.112
61338W        W32867  23.999  21.089  14.278
61339W        W32868  10.200  42.219   3.847
61340W        W32869  19.472  26.090   0.806
61341W        W32870  15.319  28.128   3.220
61342W        W32871   4.269  44.947  13.851
61343W        W32872  12.873  31.141  14.456
61344W        W32873   0.525  30.068   1.614
61345W        W32874  35.008  16.087  13.527
61346W        W32875  24.311   8.698  13.915
61347W        W32876  36.735  12.428   1.294
61348W        W32877  26.273  43.289  13.201
61349W        W32878  11.187  41.014  13.145
61350W        W32879  37.890  11.802   4.039
61351W        W32880  32.378  29.803  13.804
61352W        W32881  20.166  42.207  13.722
61353W        W32882  41.280   9.623   0.068
61354W        W32883  11.227  38.731   2.869
61355W        W32884  25.599  28.177   3.148
61356W        W32885  34.551  11.763   2.079
61357W        W32886  44.211  34.456   4.163
61358W        W32887  33.398  43.838  13.962
61359W        W32888  29.606   5.826  14.945
61360W        W32889   7.082  15.116   1.671
61361W        W32890  41.310  11.154   0.438
61362W        W32891   8.188   4.619  11.372
61363W        W32892   5.276   4.319   3.305
61364W        W32893  17.993  13.581  13.034
61365W        W32894  25.124  29.551  11.763
61366W        W32895  15.386  10.438   1.691
61367W        W32896  13.843   5.769  13.878
61368W        W32897  10.900  29.215   2.273
61369W        W32898  37.118   8.609   3.492
61370W        W32899  23.275   1.855  11.149
61371W        W32900  36.945   0.436  11.070
61372W        W32901  40.833  44.790   1.534
61373W        W32902  42.955  25.990   2.291
61374W        W32903   4.326   5.772   3.312
61375W        W32904  37.303  15.256  13.510
61376W        W32905  16.575  21.182   1.906
61377W        W32906   9.794  12.994  14.671
61378W        W32907  24.116   1.273   0.273
61379W        W32908   7.093  41.479   4.377
61380W        W32909  13.447  16.296   4.042
61381W        W32910  36.943  37.797   3.249
61382W        W32911  37.811  28.412   2.299
61383W        W32912   0.945  16.677  10.395
61384W        W32913  16.674   1.930   2.865
61385W        W32914  40.690  23.624   3.678
61386W        W32915  13.025  43.113  12.459
61387W        W32916  18.228   1.834   3.777
61388W        W32917  22.647   5.098   0.215
61389W        W32918  28.638  15.772   2.754
61390W        W32919  29.455  23.319  12.031
61391W        W32920  44.304  31.002  12.914
61392W        W32921  38.873  20.111   1.788
61393W        W32922   9.954  21.721   0.400
61394W        W32923  29.914  24.565  12.052
61395W        W32924  29.559   6.371  11.976
61396W        W32925   8.330  36.408   1.586
61397W        W32926  15.708  40.258  14.492
61398W        W32927   5.479  42.887   4.553
61399W        W32928  17.606  23.601   2.118
61400W        W32929   2.997   9.361  14.525
61401W        W32930  18.726  20.264  13.005
61402W        W32931  28.588   4.729   1.836
61403W        W32932   0.323  20.116   2.561
61404W        W32933  24.637  37.524   4.454
61405W        W32934  38.382  38.318  11.825
61406W        W32935  39.054   0.360   4.251
61407W        W32936  25.953  38.399  12.919
61408W        W32937   2.109  23.067   0.289
61409W        W32938  15.597   6.419   0.108
61410W        W32939  29.283   3.369  12.466
61411W        W32940  43.630  37.270  13.397
61412W        W32941  41.463  14.835  12.928
61413W        W32942  40.606  20.280   1.313
61414W        W32943  10.951  36.956   3.858
61415W        W32944  37.557  41.664  11.424
61416W        W32945  17.097  19.344  10.656
61417W        W32946  11.188  18.760  11.527
61418W        W32947  21.048  24.116   1.719
61419W        W32948   9.690  24.469   2.085
61420W        W32949   4.170   7.465   3.137
61421W        W32950  26.619  28.034  13.411
61422W        W32951  44.986  33.532   1.481
61423W        W32952  38.654   3.073  11.128
61424W        W32953  20.164  35.931  10.334
61425W        W32954  43.865  31.851  12.028
61426W        W32955   8.205  14.049   2.823
61427W        W32956  44.935   7.447  11.406
61428W        W32957  35.999  19.568   0.401
61429W        W32958  30.566  31.439   4.333
61430W        W32959  13.534  40.375   0.463
61431W        W32960  33.213  21.506  12.953
61432W        W32961  37.332   2.846  11.478
61433W        W32962  14.667  19.479  14.353
61434W        W32963  26.259  11.351  12.303
61435W        W32964  42.489  12.716   4.852
61436W        W32965  28.731  12.592   2.237
61437W        W32966  29.414  41.911  13.757
61438W        W32967   5.858   0.884  12.836
61439W        W32968   1.775   9.654   1.735
61440W        W32969  23.262  44.408  12.644
61441W        W32970  34.579   7.407   0.906
61442W        W32971  11.400  23.470   1.078
61443W        W32972  32.253  25.919   2.631
61444W        W32973  38.893  30.192   1.780
61445W        W32974  44.383  20.503   3.640
61446W        W32975  38.760  17.206  13.834
61447W        W32976  40.125  32.163  12.934
61448W        W32977  31.987  24.688  14.492
61449W        W32978   1.694  22.417   0.850
61450W        W32979  18.253  30.375   2.477
61451W        W32980  30.565   2.314   2.320
61452W        W32981  38.960  41.796   1.288
61453W        W32982  32.839  34.893   1.216
61454W        W32983   1.060  25.892   3.752
61455W        W32984   7.383  43.171   2.822
61456W        W32985  26.201  20.726  12.017
61457W        W32986  41.433  10.188   1.344
61458W        W32987   3.496  10.097  14.858
61459W        W32988  27.749  22.723   4.271
61460W        W32989   7.219  29.338   0.636
61461W        W32990  28.190   2.078  12.648
61462W        W32991   3.428   1.398   1.878
61463W        W32992  39.531  23.623  12.905
61464W        W32993  29.857  29.094   1.916
61465W        W32994  10.667  16.582  14.289
61466W        W32995  24.460  42.440   4.430
61467W        W32996  44.255  36.405   3.188
61468W        W32997  13.202  21.483  10.781
61469W        W32998  17.640  29.025   4.153
61470W        W32999  13.423  13.294   4.556
61471W        W33000  36.860  40.943   4.217
61472W        W33001   1.786  36.018   1.909
61473W        W33002  22.100  22.520   1.887
61474W        W33003  44.211   9.808  11.171
61475W        W33004  20.078  27.929  10.445
61476W        W33005  35.744  43.475  10.576
61477W        W33006   2.756   9.417  13.525
61478W        W33007   1.728  10.249   3.548
61479W        W33008  19.241   4.127  14.988
61480W        W33009  14.680  25.027   5.074
61481W        W33010  34.409  33.974  14.822
61482W        W33011  33.590  28.131  11.984
61483W        W33012  19.461  38.072   4.198
61484W        W33013  29.621  28.462  13.401
61485W        W33014  19.358  36.857   4.587
61486W        W33015  43.515  34.046  12.654
61487W        W33016   3.716  10.861   2.865
61488W        W33017  37.287  26.138  11.159
61489W        W33018  16.690   2.156  13.550
61490W        W33019  13.064  13.811   2.937
61491W        W33020  41.606  18.679  14.989
61492W        W33021   1.288  43.892  13.272
61493W        W33022  37.070  11.753  13.890
61494W        W33023  33.950  16.143  12.657
61495W        W33024  31.522  28.857  12.939
61496W        W33025  11.790  19.079  13.802
61497W        W33026  15.551  27.164   1.128
61498W        W33027  32.000  15.401   2.790
61499W        W33028  12.268   1.950   2.559
61500W        W33029   0.812  28.031  12.454
61501W        W33030  21.964  23.627   0.270
61502W        W33031   3.920  39.393   4.286
61503W        W33032  13.890   1.474   4.596
61504W        W33033  18.939  28.229  13.303
61505W        W33034  29.262  13.397  10.917
61506W        W33035  34.785   6.581   3.284
61507W        W33036  30.453  13.045   4.123
61508W        W33037  43.887  41.082   2.994
61509W        W33038  14.188   1.295  12.862
61510W        W33039  40.547  23.453   1.483
61511W        W33040  35.918  32.409   0.352
61512W        W33041  13.212  14.911  11.547
61513W        W33042  39.030  38.325  12.117
61514W        W33043   2.729   9.046   0.945
61515W        W33044  44.190  26.513  11.071
61516W        W33045  30.570   1.757   4.215
61517W        W33046  32.565  13.775   2.377
61518W        W33047  20.640  33.882  14.897
61519W        W33048  43.963  20.114  10.360
61520W        W33049  36.812  16.606   3.646
61521W        W33050   4.156   5.666  11.097
61522W        W33051  15.677   0.263  13.321
61523W        W33052  39.422   0.735   1.817
61524W        W33053  30.032  37.450  11.548
61525W        W33054  19.063   4.235   0.465
61526W        W33055  19.928  20.093  11.494
61527W        W33056  44.799  15.164   3.786
61528W        W33057   6.022  34.662  14.489
61529W        W33058  41.782  36.471  10.825
61530W        W33059  30.902  18.820  13.375
61531W        W33060  20.054  44.343  13.394
61532W        W33061  28.973   2.883   0.217
61533W        W33062  23.956  13.956   4.366
61534W        W33063  28.429  14.496  14.947
61535W        W33064   9.674  27.100  13.154
61536W        W33065  18.457  25.764  13.922
61537W        W33066  28.922  17.082  12.346
61538W        W33067  17.219  11.666  11.554
61539W        W33068  13.801   5.907  11.160
61540W        W33069  33.079  11.576   3.776
61541W        W33070  36.580  12.170  12.709
61542W        W33071   8.725  13.698  10.317
61543W        W33072  22.017  30.593   3.159
61544W        W33073  22.441   0.347  13.033
61545W        W33074  17.682  23.185   3.899
61546W        W33075  34.903  13.416  10.854
61547W        W33076  14.645  10.319  10.579
61548W        W33077  38.800  33.153   2.403
61549W        W33078  44.199  25.124   1.276
61550W        W33079  16.842  14.573  13.503
61551W        W33080  10.147  17.164   2.248
61552W        W33081  17.283  38.837   1.970
61553W        W33082  27.905  36.056  12.325
61554W        W33083  18.055   1.348   1.092
61555W        W33084   6.264  11.166  13.968
61556W        W33085  19.627  22.413   3.669
61557W        W33086  41.286  27.988  14.957
61558W        W33087  39.299   7.597   4.619
61559W        W33088  27.467   5.287   3.383
61560W        W33089  30.462  42.907   0.939
61561W        W33090  41.779  16.483   1.860
61562W        W33091  14.837   5.852  11.028
61563W        W33092  37.941  20.751   3.228
61564W        W33093   3.861  15.813  14.973
61565W        W33094  17.556   9.891  13.985
61566W        W33095  18.587   2.441  12.670
61567W        W33096   2.431  28.835  10.667
61568W        W33097  28.270  26.641   3.078
61569W        W33098  24.211   4.949  13.903
61570W        W33099  13.760  25.364   3.971
61571W        W33100  11.274  36.950   1.251
61572W        W33101  19.034  13.563  11.637
61573W        W33102  29.679  42.686  13.011
61574W        W33103   8.688  28.773  13.449
61575W        W33104  37.558  21.619   4.207
61576W        W33105   0.597  24.144   4.818
61577W        W33106  39.400  15.224  13.096
61578W        W33107  17.116   0.295   4.139
61579W        W33108  24.506  31.549   0.407
61580W        W33109  43.885  22.984   2.213
61581W        W33110  30.488  35.628   3.250
61582W        W33111  26.972   1.372   3.224
61583W        W33112   5.225  41.354   2.769
61584W        W33113   2.314  39.752  10.634
61585W        W33114  14.075   0.403   3.344
61586W        W33115  36.924  44.834   1.809
61587W        W33116  13.229  42.707  11.182
61588W        W33117  37.449  41.013  12.177
61589W        W33118  39.511   4.387  12.540
61590W        W33119  11.333  22.067   0.914
61591W        W33120  32.725  43.497  13.039
61592W        W33121  12.146  39.034  14.816
61593W        W33122  36.902  10.273  12.904
61594W        W33123  17.028  22.662   5.254
61595W        W33124  27.408  11.306   2.639
61596W        W33125  15.621   1.231  12.919
61597W        W33126   1.438  26.634  12.587
61598W        W33127  13.349  17.575   1.331
61599W        W33128  16.061   6.933  12.819
61600W        W33129  28.842  22.571   0.722
61601W        W33130  31.763  20.539  13.548
61602W        W33131  12.063  28.084   3.836
61603W        W33132  37.956  44.961   4.802
61604W        W33133  40.432  12.191  10.767
61605W        W33134   6.464   3.768   1.987
61606W        W33135  21.259   3.413  12.051
61607W        W33136  35.193  43.848  12.061
61608W        W33137   1.994  11.196   2.976
61609W        W33138  32.170  29.085   4.223
61610W        W33139  11.030   5.273  11.422
61611W        W33140  31.956  39.359   2.345
61612W        W33141  23.642  40.940  13.876
61613W        W33142  29.857  39.791   3.741
61614W        W33143  40.287  26.410  14.952
61615W        W33144  28.313   7.898  11.503
61616W        W33145   6.313  36.370   4.627
61617W        W33146  27.428   7.899   0.465
61618W        W33147  28.883  18.216   0.345
61619W        W33148  44.813  44.728  10.694
61620W        W33149  26.212  16.845   2.666
61621W        W33150  31.371  32.835   3.245
61622W        W33151  28.304  18.196   1.210
61623W        W33152  26.408  21.929  13.870
61624W        W33153   3.767  12.177   3.534
61625W        W33154   9.470  23.146  14.016
61626W        W33155   6.603  33.930  11.945
61627W        W33156   5.184  33.631  14.201
61628W        W33157  10.627  40.588   2.337
61629W        W33158  21.376  37.203  11.543
61630W        W33159   2.259  43.821   3.435
61631W        W33160   3.235  39.370  13.405
61632W        W33161  30.103  13.168   2.189
61633W        W33162  42.014  29.538   3.328
61634W        W33163  32.893  11.563  14.444
61635W        W33164  29.023  35.714   4.216
61636W        W33165  18.576  30.961  13.351
61637W        W33166  15.557  27.698  14.534
61638W        W33167  18.226  22.593   2.799
61639W        W33168  37.639   5.687   1.152
61640W        W33169   4.815   0.625   4.698
61641W        W33170  33.149  13.122   5.001
61642W        W33171  38.793   9.337   3.287
61643W        W33172   8.813   8.660   3.724
61644W        W33173  23.877   1.781  13.829
61645W        W33174  35.621  23.119   3.770
61646W        W33175  22.517   7.870  10.115
61647W        W33176  28.795  11.706  14.685
61648W        W33177  18.516  22.321  12.417
61649W        W33178  33.191  31.871   4.569
61650W        W33179  29.974  31.895   3.741
61651W        W33180  18.544  39.001  14.526
61652W        W33181  10.768  18.494  11.409
61653W        W33182  29.646  42.184  13.029
61654W        W33183  38.801  33.015   1.256
61655W        W33184  15.372  15.534  13.241
61656W        W33185   1.283  15.981  12.015
61657W        W33186  30.074   2.332  12.173
61658W        W33187   4.803  15.524  13.800
61659W        W33188  22.958  38.968   2.245
61660W        W33189  41.283  39.281  14.365
61661W        W33190  26.477   4.334  11.490
61662W        W33191  38.086  36.773   2.504
61663W        W33192  36.469  36.632   2.873
61664W        W33193   5.640  29.774   2.619
61665W        W33194   2.688  36.112  14.763
61666W        W33195  12.301  36.129  13.024
61667W        W33196  42.489   1.845  14.840
61668W        W33197  41.327  43.994   1.657
61669W        W33198  24.246  35.622  13.895
61670W        W33199  24.771  39.004   1.935
61671W        W33200  42.470  42.090  14.418
61672W        W33201  24.113  39.348  10.496
61673W        W33202  31.439  15.318  13.463
61674W        W33203  25.946  27.692   3.222
61675W        W33204  36.076   6.924   2.800
61676W        W33205   1.168  35.458   4.019
61677W        W33206  14.692   3.268   0.343
61678W        W33207   0.278  13.273  12.439
61679W        W33208  44.844   9.833   4.583
61680W        W33209  11.774  17.293  11.144
61681W        W33210  18.725  13.241  10.757
61682W        W33211  10.842  16.699   4.139
61683W        W33212  43.059  12.413  11.814
61684W        W33213  37.831   7.899   2.760
61685W        W33214  14.302   0.556  14.922
61686W        W33215  17.264  16.250  14.763
61687W        W33216  44.405  39.852  11.200
61688W        W33217  19.274   9.390  12.498
61689W        W33218  33.057   0.953   4.348
61690W        W33219   5.762  10.133   1.184
61691W        W33220  32.652  38.997   2.157
61692W        W33221  27.384  17.523   3.760
61693W        W33222  41.245  41.930   2.340
61694W        W33223   1.833  33.623   4.132
61695W        W33224  32.127  44.705   1.221
61696W        W33225  37.971  28.185  13.334
61697W        W33226  43.959   9.345  12.074
61698W        W33227  22.206   9.360   0.358
61699W        W33228  34.317  36.349  14.809
61700W        W33229   8.554  13.310   2.408
61701W        W33230  26.512  21.304   1.166
61702W        W33231  40.646  21.771   2.880
61703W        W33232   4.350  36.326   0.281
61704W        W33233  41.504  32.362   0.357
61705W        W33234  38.396   6.325  11.208
61706W        W33235  10.823  41.016   3.890
61707W        W33236  21.399   2.867  14.889
61708W        W33237  33.160  16.147   4.854
61709W        W33238  12.825  23.602   1.646
61710W        W33239  42.558   8.447  11.985
61711W        W33240  25.223  40.290  11.581
61712W        W33241  14.109  37.151  12.176
61713W        W33242   4.756   0.610  10.300
61714W        W33243  26.420  42.783   4.567
61715W        W33244   6.037  18.133  14.311
61716W        W33245   9.472  13.247  14.355
61717W        W33246  15.527   1.747   1.855
61718W        W33247  44.250  30.040   4.796
61719W        W33248  40.994  35.352   2.336
61720W        W33249   5.348  36.257  13.327
61721W        W33250  41.914  22.786  11.109
61722W        W33251  36.109   2.990  14.877
61723W        W33252  24.086  26.668   1.912
61724W        W33253  16.664  15.031   0.640
61725W        W33254  12.631  36.867   2.797
61726W        W33255  26.263  40.815  11.047
61727W        W33256  25.373  20.568  12.118
61728W        W33257  18.626  18.171   0.480
61729W        W33258  19.420  20.300  12.380
61730W        W33259  19.714  38.397  10.762
61731W        W33260  23.080  28.653  10.548
61732W        W33261  17.796   6.214   1.769
61733W        W33262  13.245  13.763  12.350
61734W        W33263  41.458  35.270   3.259
61735W        W33264   8.460  20.045   2.105
61736W        W33265  15.835  43.560   2.752
61737W        W33266  40.208  38.766  12.097
61738W        W33267  20.321  28.711   4.570
61739W        W33268   9.285  18.614  13.056
61740W        W33269  17.106   4.010   4.577
61741W        W33270  38.427   9.787   4.188
61742W        W33271  27.400  39.435  10.834
61743W        W33272  44.921  29.159  14.375
61744W        W33273   9.528  29.560  12.958
61745W        W33274   6.792  12.872   4.550
61746W        W33275  13.072  25.215   5.055
61747W        W33276   0.514   3.673   3.717
61748W        W33277  16.321  35.029   0.751
61749W        W33278   9.000  41.231   5.102
61750W        W33279  36.446  26.192   2.177
61751W        W33280   3.238   3.375   1.312
61752W        W33281  19.350  40.958  11.434
61753W        W33282  32.570  35.113  12.564
61754W        W33283  33.363  20.175   1.059
61755W        W33284  44.094  23.363   1.413
61756W        W33285  41.893  13.902   1.446
61757W        W33286  16.117   0.162   2.211
61758W        W33287  19.547  40.313  13.390
61759W        W33288   3.233   6.306  11.610
61760W        W33289  32.336  27.008   5.552
61761W        W33290  17.632  34.446  14.255
61762W        W33291  17.361   6.223  10.855
61763W        W33292  16.874  30.654  13.354
61764W        W33293  16.588  38.000   0.490
61765W        W33294  25.007  39.673   3.146
61766W        W33295   3.745   8.141  13.011
61767W        W33296  24.690  35.367   2.329
61768W        W33297  19.728  38.119   2.897
61769W        W33298  40.885   3.766  12.925
61770W        W33299   6.009   1.646   0.457
61771W        W33300  29.986  37.877  11.832
61772W        W33301  42.904  14.703  13.756
61773W        W33302  14.564  40.603   0.496
61774W        W33303  38.128  25.669   3.307
61775W        W33304   2.566  21.097   0.292
61776W        W33305   5.003  19.525  12.440
61777W        W33306  28.463  11.459  14.388
61778W        W33307  15.368  35.972  12.414
61779W        W33308  10.868  36.351  10.736
61780W        W33309  16.775   7.284   4.088
61781W        W33310  38.933  30.596   2.156
61782W        W33311   9.735  34.940  10.630
61783W        W33312  32.041  27.740   2.406
61784W        W33313  32.472   0.524  14.125
61785W        W33314  21.981  20.462  12.603
61786W        W33315  25.701  26.684   2.481
61787W        W33316  13.773  43.337   0.293
61788W        W33317  24.922  21.247  13.393
61789W        W33318  18.215  29.353  13.476
61790W        W33319  13.328  27.938   3.739
61791W        W33320  17.244  44.480   1.193
61792W        W33321  16.517  11.301   1.249
61793W        W33322   3.218  32.722  12.754
61794W        W33323  17.530  12.998   0.388
61795W        W33324  11.981  17.820  10.492
61796W        W33325  16.977  12.322   2.929
61797W        W33326  30.462   7.857  10.718
61798W        W33327   5.836  40.547   2.975
61799W        W33328   6.844  31.007   2.874
61800W        W33329  16.410  19.247  10.202
61801W        W33330   2.447   2.339   0.004
61802W        W33331  36.046  28.404  12.097
61803W        W33332   5.160   8.502  13.927
61804W        W33333  23.545  27.771  13.930
61805W        W33334  23.817  18.824  11.200
61806W        W33335  19.080  14.989   1.861
61807W        W33336   2.844   8.039  10.764
61808W        W33337  25.465  29.888   2.186
61809W        W33338  28.355  36.775  12.480
61810W        W33339  13.343   2.005   5.135
61811W        W33340  31.225  41.874  11.079
61812W        W33341  34.584  18.708   3.763
61813W        W33342  14.067  24.929   1.406
61814W        W33343   3.900   8.413  12.127
61815W        W33344  12.801   8.759  12.469
61816W        W33345  39.350  44.796  13.363
61817W        W33346  32.701  28.005   4.609
61818W        W33347  16.203  10.989  12.623
61819W        W33348  22.698  11.225   4.523
61820W        W33349  39.783  19.596   0.281
61821W        W33350   6.455   4.257  12.523
61822W        W33351  17.751  35.101   0.374
61823W        W33352  23.888  13.986   4.943
61824W        W33353  37.490  10.362   4.972
61825W        W33354  14.002   6.792   4.395
61826W        W33355  22.519  42.705  11.382
61827W        W33356  44.399  24.573   5.069
61828W        W33357  30.829  25.501  11.976
61829W        W33358  34.370  17.550  12.885
61830W        W33359  12.067   2.177   4.976
61831W        W33360  17.175   4.210   1.837
61832W        W33361   0.299  41.890   0.917
61833W        W33362  39.089  11.067   1.310
61834W        W33363  36.014  27.014  11.425
61835W        W33364  29.277  34.471  11.084
61836W        W33365  41.796   8.889   2.700
61837W        W33366  26.660  22.027   3.571
61838W        W33367   8.208   6.365  14.782
61839W        W33368  32.523  20.609  12.178
61840W        W33369   5.828  26.285  13.920
61841W        W33370  31.560  26.650   0.070
61842W        W33371  13.934  36.227  14.856
61843W        W33372  31.624  35.957  12.938
61844W        W33373  41.379   2.391  12.229
61845W        W33374  13.011  25.060   2.459
61846W        W33375  36.437  17.246   4.152
61847W        W33376  35.646   9.210  12.639
61848W        W33377  24.049  18.206   4.592
61849W        W33378  35.594  43.142   4.043
61850W        W33379  29.602   6.487  11.466
61851W        W33380   5.188  35.533   4.200
61852W        W33381  20.675   1.003   4.105
61853W        W33382  38.363  27.037   4.028
61854W        W33383   2.778  19.870  13.775
61855W        W33384  42.130   7.697  14.356
61856W        W33385  16.845   1.713  13.344
61857W        W33386   0.506  37.158   4.392
61858W        W33387  33.493  32.640   2.427
61859W        W33388  34.944  18.374   0.896
61860W        W33389  24.964  40.408   2.804
61861W        W33390  26.403  28.329   0.335
61862W        W33391   2.395  19.187  13.437
61863W        W33392  18.764  14.131   0.502
61864W        W33393  35.105  21.604   4.623
61865W        W33394  18.214  38.949  14.968
61866W        W33395  28.672  41.279  14.518
61867W        W33396  29.024   0.945  14.761
61868W        W33397  37.581  18.252  10.482
61869W        W33398  42.156   6.380   4.979
61870W        W33399   3.439   9.254  14.250
61871W        W33400   7.199   8.354   4.978
61872W        W33401   9.890   5.312  14.379
61873W        W33402  11.805  30.622   4.672
61874W        W33403  24.191  40.514  13.405
61875W        W33404   3.360  12.938  12.766
61876W        W33405   7.995  12.578   2.717
61877W        W33406  20.106  21.644   3.942
61878W        W33407  31.509  24.003   2.252
61879W        W33408  43.430  28.766   1.911
61880W        W33409  44.280  19.669  12.126
61881W        W33410   7.718  13.252  10.951
61882W        W33411  37.099   2.375  11.527
61883W        W33412  28.521  40.876  13.547
61884W        W33413  14.602  40.897  11.235
61885W        W33414  16.202  36.382  13.951
61886W        W33415   8.501  31.421  13.363
61887W        W33416  39.808  11.328  13.981
61888W        W33417  14.252  21.308   0.472
61889W        W33418  21.430  42.531   1.560
61890W        W33419  27.159   4.235   3.599
61891W        W33420   9.038   6.908   3.886
61892W        W33421  35.014  14.179  14.060
61893W        W33422  23.273  11.938  13.917
61894W        W33423  29.813  15.858  11.902
61895W        W33424  11.848  42.461   4.629
61896W        W33425  18.584  14.442  12.215
61897W        W33426  14.143  39.922  14.545
61898W        W33427  11.191  10.214  12.054
61899W        W33428  10.319  11.026   3.692
61900W        W33429  37.500  41.504   3.714
61901W        W33430  42.050  17.956  13.685
61902W        W33431   3.015   2.310  11.928
61903W        W33432   6.789  34.910  10.601
61904W        W33433  42.895  27.545  11.595
61905W        W33434  36.192  17.863   2.779
61906W        W33435  38.105   2.363   0.021
61907W        W33436  20.318  25.128   4.123
61908W        W33437  34.078  31.487  12.530
61909W        W33438   0.897   2.409  11.041
61910W        W33439  31.338  11.084   3.112
61911W        W33440  19.457  28.239  13.174
61912W        W33441  11.663  22.090  11.066
61913W        W33442  14.609  36.255   1.882
61914W        W33443   7.713  30.230  11.571
61915W        W33444   0.497  12.668  12.796
61916W        W33445  31.231  17.668  14.448
61917W        W33446  25.461  39.546   0.261
61918W        W33447  29.527  12.651  11.701
61919W        W33448  14.050  22.814  12.189
61920W        W33449  40.792  42.920   5.073
61921W        W33450  29.198  38.293  11.975
61922W        W33451  15.135  26.572  12.587
61923W        W33452  41.949   7.209   4.677
61924W        W33453  35.040  26.140  13.887
61925W        W33454  18.779   6.020   4.291
61926W        W33455  13.212  21.583   2.258
61927W        W33456  29.851  39.420  14.404
61928W        W33457  37.532  32.163  12.377
61929W        W33458  42.374   5.364   2.750
61930W        W33459  15.846  24.929   3.328
61931W        W33460  11.948  14.139  11.689
61932W        W33461  17.309  37.995  13.423
61933W        W33462  42.545   1.361  11.125
61934W        W33463   5.716  11.290  12.355
61935W        W33464  24.237  17.697  12.138
61936W        W33465  18.617  31.159  12.877
61937W        W33466  12.475  31.432   2.629
61938W        W33467  44.816  22.970  12.561
61939W        W33468   2.320  11.660  10.105
61940W        W33469  21.128  43.232  13.932
61941W        W33470  14.864  27.702  14.520
61942W        W33471  34.662   3.803   1.481
61943W        W33472  12.099  27.116   3.304
61944W        W33473  13.981  22.270   0.585
61945W        W33474  23.848   2.622  10.753
61946W        W33475  27.944   7.755   2.390
61947W        W33476  40.135  40.297  14.396
61948W        W33477  11.370  11.047  10.788
61949W        W33478   8.596  35.641  14.762
61950W        W33479  15.236   8.145   4.358
61951W        W33480  23.249  28.305   1.887
61952W        W33481  26.991   0.683   2.596
61953W        W33482  24.047  10.253  13.390
61954W        W33483  30.188  16.203  12.407
61955W        W33484  10.540   5.723   4.325
61956W        W33485  15.720  11.730  11.367
61957W        W33486  23.043  38.368  11.952
61958W        W33487   3.925  19.628   1.646
61959W        W33488  17.246  33.419   0.365
61960W        W33489  22.861  38.690   1.433
61961W        W33490   7.243   4.746   1.926
61962W        W33491  12.735  16.365   1.298
61963W        W33492  10.173   4.665   2.622
61964W        W33493  33.504  12.878   1.422
61965W        W33494  25.926  21.165  12.507
61966W        W33495  17.267  26.405  11.134
61967W        W33496  24.745  34.484  10.754
61968W        W33497  34.844   5.166   1.228
61969W        W33498  33.907  28.509  13.788
61970W        W33499   5.259  15.267  13.862
61971W        W33500   0.477  15.897  11.092
61972W        W33501   0.088  37.029   2.763
61973W        W33502  43.366   9.351  12.948
61974W        W33503  18.173   2.845  11.104
61975W        W33504  13.182  26.868   3.166
61976W        W33505  37.579  14.326   2.394
61977W        W33506  17.692   6.601  14.903
61978W        W33507  10.205  17.605   3.414
61979W        W33508   2.982  24.012   2.312
61980W        W33509  41.069  30.666   1.350
61981W        W33510  12.225  12.102   1.113
61982W        W33511   8.383  12.451   1.808
61983W        W33512  28.405   0.364  14.089
61984W        W33513  33.042   7.195  11.441
61985W        W33514  29.978  34.148   2.397
61986W        W33515  33.600   5.398   4.061
61987W        W33516  18.880  14.841  12.011
61988W        W33517  38.359  16.775  11.995
61989W        W33518  19.274  36.014  14.449
61990W        W33519  42.861  27.230   4.492
61991W        W33520  37.391  11.159  14.227
61992W        W33521   4.882   5.223   2.664
61993W        W33522  32.173  43.181   1.340
61994W        W33523  17.993  29.516  14.843
61995W        W33524  26.966   4.241   3.122
61996W        W33525  21.705  16.527  11.147
61997W        W33526  11.913  11.681   1.446
61998W        W33527   3.861   2.486  11.363
61999W        W33528  10.793   0.895  14.265
62000W        W33529  17.719  39.899   2.108
62001W        W33530  17.370   2.868  13.201
62002W        W33531   9.768  34.495  11.530
62003W        W33532  33.656  33.055  10.133
62004W        W33533  44.232  30.906   3.567
62005W        W33534   5.901  38.944  10.942
62006W        W33535   8.100  25.001  13.095
62007W        W33536  21.096  34.326   1.481
62008W        W33537   8.784  21.141  14.784
62009W        W33538  43.408   6.821  11.241
62010W        W33539  17.038  22.704  10.392
62011W        W33540   7.096   3.444   2.769
62012W        W33541   8.816   6.930   2.699
62013W        W33542   2.244  39.878  12.625
62014W        W33543   3.214  24.855  11.109
62015W        W33544  11.319   2.434  14.420
62016W        W33545  39.997  28.925   3.304
62017W        W33546   1.262  26.435  13.379
62018W        W33547  19.983  18.571  14.355
62019W        W33548  21.710  23.221   3.567
62020W        W33549  21.739   9.502   1.054
62021W        W33550  32.001   1.464  12.861
62022W        W33551  32.992  31.148   4.194
62023W        W33552  23.648  26.394  12.063
62024W        W33553  40.729   1.463   0.439
62025W        W33554   9.223  40.314   0.483
62026W        W33555  27.894   8.307   2.995
62027W        W33556  20.557   1.049   3.128
62028W        W33557  15.607  33.462  14.875
62029W        W33558  34.507  19.480   3.177
62030W        W33559  32.423  34.960  14.384
62031W        W33560  19.814  13.137  13.008
62032W        W33561  16.895  23.291  13.137
62033W        W33562  21.673  40.356  11.620
62034W        W33563  38.970  19.735   4.135
62035W        W33564  22.672   2.709   3.281
62036W        W33565  23.653  35.616  14.310
62037W        W33566  18.336  27.601  13.367
62038W        W33567  11.163  23.927  10.582
62039W        W33568  32.629  24.034  13.561
62040W        W33569  29.895  25.663   1.670
62041W        W33570   8.651  29.758   0.746
62042W        W33571   8.930  20.203   1.983
62043W        W33572   6.429   8.302   1.197
62044W        W33573   5.908  44.326  11.598
62045W        W33574  30.366  27.463  13.242
62046W        W33575   2.140  17.742   0.014
62047W        W33576  32.862  13.563  13.448
62048W        W33577  20.188  17.664   2.449
62049W        W33578  38.747   9.189  10.787
62050W        W33579  15.362   2.767  13.270
62051W        W33580  21.781  29.683   2.232
62052W        W33581  41.279  13.486  11.490
62053W        W33582  32.085  19.448   4.562
62054W        W33583   3.682  26.416   1.991
62055W        W33584  25.132  33.850   4.724
62056W        W33585  11.601  22.119  14.409
62057W        W33586  18.253  41.327   3.246
62058W        W33587  39.754   3.485  11.186
62059W        W33588  32.932  18.323   4.130
62060W        W33589  31.068   6.511   1.431
62061W        W33590   8.707  23.380  14.320
62062W        W33591  34.832   2.401   2.648
62063W        W33592  22.498  27.102   3.719
62064W        W33593  25.286  38.243  10.732
62065W        W33594   0.271  30.364  10.684
62066W        W33595  21.133  38.846  14.327
62067W        W33596  35.935  19.560  11.575
62068W        W33597  13.063   4.360   1.749
62069W        W33598  43.056   6.110  14.454
62070W        W33599   3.423  16.365   3.207
62071W        W33600  18.730  24.728   2.857
62072W        W33601  25.711  20.655  13.470
62073W        W33602  38.150   1.840   0.833
62074W        W33603  29.913  36.066  10.739
62075W        W33604  27.077  17.224  13.807
62076W        W33605  36.166  20.271  11.494
62077W        W33606  25.119  21.999   0.455
62078W        W33607  22.195  30.319   4.368
62079W        W33608   3.878   6.197   3.817
62080W        W33609  23.771  26.056   1.667
62081W        W33610  27.106  41.415   2.718
62082W        W33611   5.699  12.443  13.496
62083W        W33612  16.952  11.719   4.690
62084W        W33613  17.572  21.167   2.807
62085W        W33614  27.877  24.080   0.004
62086W        W33615  25.188  30.036   1.189
62087W        W33616  15.093  13.255  12.034
62088W        W33617  10.957  14.373  11.489
62089W        W33618  28.164  10.659  12.487
62090W        W33619  17.804  12.164  14.762
62091W        W33620  36.861   0.772  13.445
62092W        W33621  18.806  30.806  13.821
62093W        W33622  33.406  39.916  11.624
62094W        W33623   7.451   2.936  11.878
62095W        W33624  30.795  25.826   3.254
62096W        W33625  34.376  24.248   1.731
62097W        W33626  16.226  31.702  11.107
62098W        W33627   6.280   8.573   5.006
62099W        W33628  10.138  42.699  11.495
62100W        W33629  25.849  10.693   2.616
62101W        W33630  20.347  14.691  13.524
62102W        W33631   9.187   8.090   4.812
62103W        W33632  23.102   3.250   1.383
62104W        W33633  24.614   7.171  14.762
62105W        W33634  26.435  38.888   0.797
62106W        W33635   7.590  32.800  14.861
62107W        W33636   3.994  10.293  13.416
62108W        W33637   8.466  10.203   0.994
62109W        W33638  16.741  13.278  13.820
62110W        W33639  12.755  39.440  13.505
62111W        W33640  38.459  33.187   3.592
62112W        W33641  29.646  31.845  14.907
62113W        W33642  14.266  33.099  14.767
62114W        W33643  18.589  19.745  13.912
62115W        W33644  10.564  30.419  12.032
62116W        W33645  27.178  42.487  14.038
62117W        W33646  36.100   9.200  10.908
62118W        W33647  24.826  22.523   1.433
62119W        W33648  18.302  13.497   4.903
62120W        W33649  41.070  25.255  12.934
62121W        W33650  15.404  12.356  12.502
62122W        W33651   6.753   9.148  10.629
62123W        W33652  40.857  13.788  13.356
62124W        W33653  41.282  42.481   3.559
62125W        W33654  31.998  40.737  11.580
62126W        W33655  31.126  40.061   3.687
62127W        W33656  37.003  29.286   4.328
62128W        W33657   2.404  17.533  10.722
62129W        W33658   3.072  20.980  10.623
62130W        W33659   1.421  28.238  11.494
62131W        W33660  16.844  32.912  10.762
62132W        W33661  10.958  26.499   2.752
62133W        W33662  39.767  38.020   1.026
62134W        W33663  18.134  20.263   4.169
62135W        W33664  32.133  41.561  11.281
62136W        W33665   6.239  41.901  13.431
62137W        W33666  42.731   6.662   3.337
62138W        W33667  16.315   4.226   2.085
62139W        W33668  14.987  42.702  14.838
62140W        W33669  39.923  10.155  12.434
62141W        W33670  16.986  34.671   1.805
62142W        W33671  31.547  37.704   0.306
62143W        W33672  36.973  32.229   0.930
62144W        W33673  15.056   2.297   3.728
62145W        W33674  37.337   7.171  14.310
62146W        W33675   2.640  35.454   3.920
62147W        W33676  31.008   9.765   1.872
62148W        W33677  34.182  37.604  11.110
62149W        W33678  15.685  42.286  12.093
62150W        W33679  24.018   6.502  12.637
62151W        W33680  15.605  23.306   1.255
62152W        W33681  43.290  43.892   2.682
62153W        W33682  40.811   3.976  14.476
62154W        W33683  35.508  23.513  14.346
62155W        W33684  33.212  10.739   2.677
62156W        W33685  37.429   8.215   2.890
62157W        W33686  25.269   5.504   1.076
62158W        W33687   4.005   3.750  10.319
62159W        W33688  29.851   1.913  14.359
62160W        W33689   2.897  10.196  11.613
62161W        W33690  31.194   4.474   2.684
62162W        W33691   1.184  13.128   4.217
62163W        W33692  27.229   7.362   3.336
62164W        W33693  27.227  19.730   4.145
62165W        W33694   7.913  20.663  10.350
62166W        W33695  17.464  20.151   3.624
62167W        W33696  39.384  23.536  14.820
62168W        W33697  31.337  32.722   9.977
62169W        W33698   0.293  38.995   0.226
62170W        W33699  24.282  24.911   5.002
62171W        W33700  24.046   8.201   1.208
62172W        W33701  23.145  33.451  12.922
62173W        W33702  11.401  39.846  13.470
62174W        W33703  38.364  36.525  11.461
62175W        W33704  37.481   3.468  10.691
62176W        W33705  33.419  10.354  13.900
62177W        W33706  20.533   1.924   4.223
62178W        W33707   6.899  18.286   3.004
62179W        W33708  42.976   9.628   4.638
62180W        W33709  12.763  33.450   3.688
62181W        W33710   6.088  38.513  14.534
62182W        W33711   4.703  42.774   0.665
62183W        W33712  20.194  37.764  11.963
62184W        W33713  32.356  30.437   2.717
62185W        W33714  40.918  40.019   2.381
62186W        W33715  24.646  23.197  10.623
62187W        W33716  17.160  35.334  13.093
62188W        W33717   0.635  27.522  11.729
62189W        W33718  22.244   9.244  12.315
62190W        W33719  36.773  38.910  10.452
62191W        W33720   1.152  30.766  14.369
62192W        W33721  26.055  40.009   3.981
62193W        W33722  18.158  32.567   4.188
62194W        W33723   0.278  12.245   1.714
62195W        W33724  32.347  26.297   3.815
62196W        W33725   9.711  10.690   1.457
62197W        W33726  33.837  29.888  10.575
62198W        W33727   6.039  40.357   4.849
62199W        W33728   5.836  32.359  11.156
62200W        W33729  12.144  13.337   3.199
62201W        W33730   0.149  18.828   1.260
62202W        W33731  42.911  32.429   1.939
62203W        W33732  20.107   7.165   0.857
62204W        W33733   5.475  16.026  10.826
62205W        W33734  44.553  39.499  10.879
62206W        W33735  21.558  10.634  12.657
62207W        W33736   6.423  42.334   3.681
62208W        W33737  30.568  12.633   4.401
62209W        W33738  43.735  38.088   0.042
62210W        W33739  28.562   3.352  12.087
62211W        W33740  34.155  25.272  11.581
62212W        W33741  19.878   6.576   0.495
62213W        W33742  36.280  43.564   1.444
62214W        W33743  22.620  11.408   3.197
62215W        W33744   7.843   5.425   3.780
62216W        W33745  16.298  10.734  11.836
62217W        W33746   3.257  25.357  11.175
62218W        W33747  20.399  23.648   2.309
62219W        W33748  24.134  23.175  12.552
62220W        W33749  41.796  13.185  11.529
62221W        W33750  39.507  43.576   2.733
62222W        W33751  41.082  39.613  12.600
62223W        W33752  41.979   7.277   2.765
62224W        W33753  13.595  29.757   0.963
62225W        W33754  20.676  42.185  14.410
62226W        W33755  31.559  31.200  13.969
62227W        W33756  38.481  44.807   4.647
62228W        W33757  29.123   3.277  12.950
62229W        W33758   3.689   1.892   4.101
62230W        W33759   7.174  19.782   1.373
62231W        W33760   0.689   4.177  10.917
62232W        W33761   1.124   7.379   4.527
62233W        W33762  17.248  36.120  14.845
62234W        W33763  19.641  39.397   0.536
62235W        W33764  23.298  34.681  14.869
62236W        W33765   6.821   9.141   4.015
62237W        W33766   2.921  21.643  12.634
62238W        W33767   7.774  11.287  11.698
62239W        W33768  43.246  20.065  12.160
62240W        W33769  33.844  33.270  14.963
62241W        W33770   1.141   5.065   3.601
62242W        W33771  22.149  33.333   3.644
62243W        W33772  39.915  18.260   3.677
62244W        W33773   4.331   0.362  12.650
62245W        W33774  14.332   0.041   1.432
62246W        W33775  39.859  16.869   1.154
62247W        W33776  31.675  11.519  14.858
62248W        W33777   8.432  20.669  12.562
62249W        W33778  17.915  36.808   4.463
62250W        W33779   9.624   5.407   0.769
62251W        W33780  12.091  22.565   4.737
62252W        W33781   0.650  34.555  14.899
62253W        W33782  37.621   1.034   5.325
62254W        W33783   0.743  37.931  14.377
62255W        W33784   5.691   7.106  11.585
62256W        W33785   4.948  18.887  13.020
62257W        W33786  19.602  17.415   2.889
62258W        W33787  43.572  26.988  11.197
62259W        W33788  25.620  39.747  12.904
62260W        W33789  40.319  17.369   1.728
62261W        W33790  41.894   7.809   2.881
62262W        W33791  42.571   1.760   3.813
62263W        W33792   3.326   9.072   2.809
62264W        W33793  22.840  10.737   1.695
62265W        W33794  20.929  41.935  13.988
62266W        W33795   0.658  29.658  13.855
62267W        W33796   2.772  25.134  14.878
62268W        W33797   0.838  13.759   2.981
62269W        W33798   5.728  40.969   0.464
62270W        W33799  27.200  23.132  11.261
62271W        W33800   8.441  29.639   4.194
62272W        W33801   2.026  17.084   1.457
62273W        W33802  17.312   4.489  14.033
62274W        W33803  29.375  14.162   2.823
62275W        W33804  36.896  17.960   3.321
62276W        W33805  11.288   1.731  11.573
62277W        W33806   7.386  25.052  13.951
62278W        W33807  22.923   5.017  13.775
62279W        W33808  28.043  39.456   4.641
62280W        W33809  35.319  30.888   2.332
62281W        W33810  25.525   8.573  12.170
62282W        W33811  28.583  23.507   2.180
62283W        W33812   7.241  15.841   1.332
62284W        W33813   3.893  27.089  13.348
62285W        W33814  40.431   7.488   0.975
62286W        W33815  21.771  37.597  14.660
62287W        W33816  15.252  13.750  13.531
62288W        W33817  14.904   3.920  11.622
62289W        W33818   2.221  20.955   3.521
62290W        W33819  30.686  18.536   0.877
62291W        W33820  21.531  37.338   3.822
62292W        W33821  13.353  17.173  12.871
62293W        W33822   4.181   4.797   1.692
62294W        W33823  34.694  23.031   2.093
62295W        W33824  20.778  13.669   1.758
62296W        W33825  25.694  12.196  12.576
62297W        W33826   4.262  44.406   2.762
62298W        W33827   3.206   4.717   1.877
62299W        W33828  32.067  37.458   0.945
62300W        W33829  25.092  25.160   0.921
62301W        W33830   6.353  44.057  11.587
62302W        W33831  23.664  11.378   4.165
62303W        W33832   9.180  33.629  11.556
62304W        W33833  23.643  35.548   2.390
62305W        W33834  15.748  42.044   0.101
62306W        W33835  13.759  29.648  13.910
62307W        W33836  21.010  35.555   1.652
62308W        W33837  30.384   3.160   4.162
62309W        W33838  38.132  10.760  12.823
62310W        W33839  43.518  19.309   0.522
62311W        W33840  28.413  28.150  14.430
62312W        W33841   4.666  12.345   0.544
62313W        W33842  15.274  41.523  13.007
62314W        W33843  13.382   5.013  13.059
62315W        W33844  13.683   6.493  12.589
62316W        W33845  18.095  13.900   2.079
62317W        W33846  21.868   4.400  13.146
62318W        W33847  41.269   1.724  11.186
62319W        W33848  37.964  25.202  11.501
62320W        W33849   0.747  26.701  14.325
62321W        W33850  41.715  33.453  11.427
62322W        W33851  30.225  23.084   4.653
62323W        W33852  28.642  26.539   1.861
62324W        W33853   3.279  29.519   4.571
62325W        W33854  11.123  36.356  12.919
62326W        W33855  39.526  33.490  12.211
62327W        W33856  10.517  19.798  13.863
62328W        W33857  40.249  42.469   1.277
62329W        W33858  12.326  22.996   2.172
62330W        W33859  26.968   0.013   1.695
62331W        W33860  14.777  10.170   1.640
62332W        W33861  22.058  20.013   3.630
62333W        W33862  36.064   2.448   1.449
62334W        W33863  43.075   6.000  12.128
62335W        W33864  12.834  10.776  11.034
62336W        W33865  30.480  32.442  10.719
62337W        W33866   8.276  41.921   4.444
62338W        W33867  23.669  17.753  11.891
62339W        W33868  29.123  32.988   0.419
62340W        W33869  38.493  19.167  14.494
62341W        W33870  38.936  35.045  12.151
62342W        W33871  30.116   4.129   2.570
62343W        W33872  44.210  36.633  12.088
62344W        W33873  43.901   7.806   1.423
62345W        W33874   3.741  15.485   3.218
62346W        W33875  18.224  26.315   1.437
62347W        W33876  32.949  43.970  12.882
62348W        W33877  35.874  18.161   0.027
62349W        W33878   6.735  38.920   0.648
62350W        W33879  37.030  14.415   2.301
62351W        W33880  39.323  10.328  13.438
62352W        W33881   5.725  31.003  12.431
62353W        W33882  28.874   6.733  13.179
62354W        W33883  42.500   0.115  10.692
62355W        W33884  31.964  41.314   2.849
62356W        W33885  32.205  33.833  11.278
62357W        W33886  35.614  35.568  14.460
62358W        W33887  41.276  31.045  10.710
62359W        W33888   1.989   1.536   3.195
62360W        W33889  42.924  17.585   3.962
62361W        W33890  13.694  38.072  14.840
62362W        W33891  35.562  11.640  13.839
62363W        W33892  25.265   6.016   0.881
62364W        W33893  44.711  40.007  11.631
62365W        W33894  44.620   9.353  13.889
62366W        W33895  33.382  10.164   1.373
62367W        W33896  18.726  37.129  12.758
62368W        W33897  43.654  15.267   1.331
62369W        W33898   9.709  27.252   0.430
62370W        W33899  34.881  43.463   3.006
62371W        W33900  17.594   0.310   0.787
62372W        W33901  37.380  24.004  10.803
62373W        W33902  32.543  43.697   0.812
62374W        W33903  24.138  30.976  12.183
62375W        W33904  31.451  37.316  12.768
62376W        W33905   7.907   3.259   4.106
62377W        W33906  34.679  33.368  12.507
62378W        W33907  32.538  44.312  14.882
62379W        W33908  26.271  27.019   3.261
62380W        W33909  14.184  14.628  11.235
62381W        W33910   5.352  32.009   2.628
62382W        W33911  25.335  15.574  11.644
62383W        W33912  23.016  15.730  11.058
62384W        W33913  35.916   9.136   1.393
62385W        W33914  10.650  27.382   0.949
62386W        W33915  13.706  35.045  14.497
62387W        W33916  10.595  42.498  11.391
62388W        W33917  27.104  17.552   2.766
62389W        W33918  37.849  42.416   4.320
62390W        W33919   1.266  40.890  13.895
62391W        W33920  22.072  36.796   3.270
62392W        W33921  25.445  37.462   3.354
62393W        W33922  40.615  20.972  11.191
62394W        W33923  20.620  26.678   2.902
62395W        W33924  38.053  37.349  10.115
62396W        W33925  12.423  27.108  10.713
62397W        W33926  17.303  44.528   3.707
62398W        W33927  15.014   6.217  10.300
62399W        W33928  13.822  44.955  11.265
62400W        W33929  33.774   2.957   1.389
62401W        W33930   1.260   0.588  12.911
62402W        W33931  17.804  20.614   3.459
62403W        W33932   8.607  13.690  14.415
62404W        W33933  12.856   0.795   3.863
62405W        W33934  30.825  43.366  11.157
62406W        W33935  18.134   8.863  13.466
62407W        W33936  14.223   8.120  14.827
62408W        W33937  25.650  32.820   3.635
62409W        W33938   7.208  23.242   2.654
62410W        W33939   2.045  36.114   3.274
62411W        W33940  26.143  29.476   3.196
62412W        W33941  28.199  42.595  14.336
62413W        W33942  17.282  17.605  11.191
62414W        W33943   3.226  23.004  13.359
62415W        W33944   3.250   8.091  13.340
62416W        W33945  42.939  28.250  12.126
62417W        W33946  29.332   3.452   0.881
62418W        W33947   6.065  39.717   1.909
62419W        W33948   8.792   0.188  12.094
62420W        W33949  24.079  22.515  14.499
62421W        W33950  25.427  31.079  14.839
62422W        W33951  18.072  19.225   4.573
62423W        W33952  11.820  30.146  14.467
62424W        W33953  32.051  32.485  13.813
62425W        W33954  44.987  10.387   0.033
62426W        W33955  14.177  22.169   1.066
62427W        W33956  10.364   2.523   1.383
62428W        W33957  36.488   8.615  13.958
62429W        W33958  27.117   3.246  12.008
62430W        W33959  26.432   8.738   2.803
62431W        W33960   1.395  31.150  11.368
62432W        W33961  23.738  19.973  13.873
62433W        W33962  30.927  28.680   3.531
62434W        W33963  25.653  11.770  13.748
62435W        W33964  40.292  11.672   1.254
62436W        W33965   7.438  41.510   3.997
62437W        W33966  27.219   2.699  11.956
62438W        W33967  18.550  31.563  12.548
62439W        W33968  29.347  15.570  10.536
62440W        W33969  18.241  24.397   4.155
62441W        W33970   5.413  18.775  12.812
62442W        W33971   8.616  16.562   1.865
62443W        W33972  22.274   8.389  12.763
62444W        W33973   0.379  23.461   0.795
62445W        W33974   0.482  38.016  11.468
62446W        W33975  34.125  25.499   4.476
62447W        W33976  14.899  36.064  10.351
62448W        W33977  22.755  20.071   0.746
62449W        W33978  21.595  37.425   1.214
62450W        W33979  17.183  33.438  11.797
62451W        W33980  32.470   7.659   1.642
62452W        W33981  17.640  36.945   1.796
62453W        W33982  25.300  16.115  12.912
62454W        W33983  15.130   6.955   2.617
62455W        W33984  44.210   3.976  11.960
62456W        W33985  22.123   8.182  12.312
62457W        W33986  42.214  44.586  11.567
62458W        W33987  25.522  11.409   1.923
62459W        W33988  24.580  12.891  13.957
62460W        W33989  32.397  36.029   3.738
62461W        W33990   0.401  12.598  11.470
62462W        W33991   7.391  16.162   3.139
62463W        W33992   1.574  31.939   1.236
62464W        W33993   4.378  21.161  14.442
62465W        W33994  35.062  23.079   2.931
62466W        W33995  24.454   2.440   1.872
62467W        W33996  12.791  28.225  11.199
62468W        W33997  16.664   4.677  12.988
62469W        W33998  35.975  15.704  12.611
62470W        W33999  28.136  28.850   5.054
62471W        W34000  23.648  33.398  10.789
62472W        W34001  22.816  15.757   3.672
62473W        W34002  35.466  40.637   3.224
62474W        W34003  10.267   1.437  13.032
62475W        W34004  11.754  26.695   3.366
62476W        W34005  30.558  25.208  11.542
62477W        W34006  37.972   1.396   1.496
62478W        W34007  30.075   1.897   4.590
62479W        W34008  38.553  20.660   3.341
62480W        W34009  22.294  12.348   1.023
62481W        W34010  33.358   2.136  13.896
62482W        W34011  35.382  26.737  11.930
62483W        W34012  25.138  40.344   4.214
62484W        W34013  35.994  24.721   1.786
62485W        W34014  27.635  15.041   0.441
62486W        W34015  43.343  29.677  11.526
62487W        W34016  43.903  12.867   4.417
62488W        W34017  31.007   5.388  11.952
62489W        W34018   2.799   5.442   1.289
62490W        W34019   6.130  26.040   2.254
62491W        W34020  11.349   9.735   1.725
62492W        W34021   2.109  44.610   1.369
62493W        W34022  16.548  28.607   2.700
62494W        W34023  38.968   9.799  13.252
62495W        W34024  35.592  12.072   3.311
62496W        W34025  10.396   5.383  10.472
62497W        W34026  26.043  22.541  10.977
62498W        W34027  28.281  18.589  14.854
62499W        W34028   3.285  13.110  10.773
62500W        W34029  40.435  19.823   2.901
62501W        W34030   5.195   9.806   0.411
62502W        W34031   2.916  15.820  14.197
62503W        W34032  14.613  15.055  13.938
62504W        W34033   6.166  28.231  13.385
62505W        W34034  29.484  37.490   3.546
62506W        W34035   1.717  39.791  12.693
62507W        W34036  25.278  11.872  12.019
62508W        W34037   6.220  16.173  10.181
62509W        W34038  25.501  31.485  11.619
62510W        W34039  24.481  41.250  12.912
62511W        W34040  25.432  34.032  11.428
62512W        W34041   7.740  11.888   5.046
62513W        W34042  23.173  10.057   3.441
62514W        W34043   6.639  32.713  12.563
62515W        W34044  30.955   8.684  12.890
62516W        W34045  37.594   2.439  11.704
62517W        W34046  33.966  21.790   3.689
62518W        W34047  13.201  31.911   2.407
62519W        W34048  41.178  38.016   2.138
62520W        W34049  41.781  30.163  14.555
62521W        W34050  36.338  44.243  13.372
62522W        W34051  10.214  18.800   2.417
62523W        W34052  43.513   2.308   1.393
62524W        W34053  39.813  32.126  10.831
62525W        W34054  19.177  20.327  14.634
62526W        W34055   1.483  17.196   4.847
62527W        W34056  40.412  43.087   1.171
62528W        W34057  24.673  28.100   0.266
62529W        W34058  33.845  30.373  14.975
62530W        W34059   9.426   7.335   0.283
62531W        W34060  33.574  30.579   0.876
62532W        W34061  43.512  14.356  11.541
62533W        W34062   0.922  11.912   4.180
62534W        W34063  37.597  31.517  14.570
62535W        W34064  29.370  33.994  11.244
62536W        W34065   3.412  23.204  14.523
62537W        W34066  20.931  44.459   1.607
62538W        W34067  44.611  31.380  11.726
62539W        W34068  14.197  15.840   0.642
62540W        W34069  21.772  35.633  14.238
62541W        W34070  14.736  41.876   4.241
62542W        W34071  29.432  19.322  13.841
62543W        W34072  38.465   0.467  11.098
62544W        W34073  31.208  40.457  12.105
62545W        W34074  18.531  28.966   1.776
62546W        W34075  42.009   8.659  11.902
62547W        W34076  17.334  22.723   3.716
62548W        W34077  22.653  38.901   0.990
62549W        W34078  36.242  10.398  13.365
62550W        W34079  23.074  33.332   0.295
62551W        W34080   8.490   4.896   3.290
62552W        W34081   2.008  16.167   2.181
62553W        W34082   7.484  27.534   0.822
62554W        W34083  41.052  20.085   2.186
62555W        W34084  34.533  37.617  13.310
62556W        W34085   7.024  12.335  10.660
62557W        W34086  32.548  42.420   2.393
62558W        W34087   7.780   9.256  10.701
62559W        W34088   2.404  22.770   2.264
62560W        W34089  33.512  31.298   0.177
62561W        W34090  39.452  24.089  12.683
62562W        W34091  10.937  28.537   3.133
62563W        W34092   9.185  31.719  14.022
62564W        W34093  38.768   1.505  10.799
62565W        W34094  30.391   5.189  11.287
62566W        W34095  40.484  21.961  11.173
62567W        W34096  14.720   6.867   0.436
62568W        W34097   2.250  25.640  14.999
62569W        W34098  36.694   1.904   0.374
62570W        W34099  33.519  39.744  10.574
62571W        W34100  22.665  11.111   2.764
62572W        W34101  13.617  39.339  10.742
62573W        W34102  35.973  29.169   3.125
62574W        W34103  25.279  35.237   3.598
62575W        W34104   2.149  37.058   1.979
62576W        W34105  35.666   2.394   3.132
62577W        W34106  27.475  25.372   3.939
62578W        W34107  40.823  18.527   4.475
62579W        W34108  28.346  22.486   0.575
62580W        W34109  38.908   8.174   3.637
62581W        W34110  12.224   2.235  14.796
62582W        W34111   7.211  20.231   4.859
62583W        W34112   2.319  39.517  12.983
62584W        W34113  25.803  33.599   3.960
62585W        W34114  13.402  19.104   4.604
62586W        W34115  35.116  43.296   4.498
62587W        W34116   9.923  34.527  13.344
62588W        W34117  12.634  40.985   3.742
62589W        W34118   8.235   8.184   3.524
62590W        W34119  16.893  12.169  12.887
62591W        W34120  44.019  15.251  14.596
62592W        W34121  14.758   1.055  14.235
62593W        W34122   4.754  25.023  14.979
62594W        W34123  17.063  13.587   3.609
62595W        W34124  43.446  21.483   4.028
62596W        W34125  19.800  38.480  13.583
62597W        W34126  14.562   3.402  11.584
62598W        W34127   1.088  37.156  10.399
62599W        W34128  16.278  20.142  12.106
62600W        W34129  34.268  16.337   2.956
62601W        W34130  18.905  23.454   2.362
62602W        W34131  33.824  30.377  11.605
62603W        W34132  21.597  12.215   4.515
62604W        W34133  13.440  18.444  12.074
62605W        W34134   9.257   6.637  12.004
62606W        W34135   9.491  24.255   0.800
62607W        W34136   9.489  32.331   2.165
62608W        W34137  16.551   1.884   1.822
62609W        W34138  39.812  42.968   3.452
62610W        W34139  18.183   7.692   4.208
62611W        W34140  14.415  38.741   2.812
62612W        W34141   8.310  40.320   0.352
62613W        W34142  40.745  15.126   0.047
62614W        W34143  43.052  22.795   0.719
62615W        W34144  27.479  40.071   0.880
62616W        W34145  17.757  14.844   2.940
62617W        W34146  22.732  30.403   3.713
62618W        W34147  28.211  13.264   2.852
62619W        W34148  31.508   1.045  12.286
62620W        W34149   6.286  18.161  12.877
62621W        W34150  32.974  20.952  11.722
62622W        W34151   8.444  43.422  11.945
62623W        W34152  42.144  28.212  11.560
62624W        W34153  11.183   4.355   4.601
62625W        W34154  35.456   6.345   2.986
62626W        W34155  15.163  17.298  12.900
62627W        W34156   7.271   1.074  11.610
62628W        W34157  36.466  44.842  12.211
62629W        W34158  36.885  42.479   0.296
62630W        W34159  24.872  25.971  11.096
62631W        W34160  29.166  21.171   4.679
62632W        W34161  16.341   2.206  13.942
62633W        W34162   4.193  23.103  14.050
62634W        W34163  12.920   7.228   0.722
62635W        W34164  43.289  15.499  13.096
62636W        W34165  38.083  10.315  13.116
62637W        W34166  32.249  34.717   3.642
62638W        W34167   4.819  37.332  11.212
62639W        W34168  29.582  38.626  11.961
62640W        W34169  31.143  10.376  14.057
62641W        W34170  28.932  26.663   3.800
62642W        W34171  35.129  42.901  11.526
62643W        W34172  28.681  24.974  12.534
62644W        W34173  44.318   6.921   2.234
62645W        W34174  37.342  34.792  13.038
62646W        W34175  24.059   3.827   3.465
62647W        W34176  15.435  11.703   4.893
62648W        W34177  19.603  33.031  13.857
62649W        W34178   6.924  19.623   5.458
62650W        W34179  10.363   9.420   0.767
62651W        W34180   8.305  29.227  10.755
62652W        W34181  25.887  44.257  11.010
62653W        W34182  16.062  39.508  10.953
62654W        W34183  18.802  20.552  13.464
62655W        W34184  16.658  38.912  11.990
62656W        W34185  44.776  42.675  13.855
62657W        W34186  37.467  24.425   2.765
62658W        W34187  25.868   1.789   3.536
62659W        W34188  16.779   6.936  12.070
62660W        W34189   2.231  25.657  12.420
62661W        W34190  36.136  41.924   1.363
62662W        W34191   0.482   2.774  10.995
62663W        W34192  26.213  42.840  11.149
62664W        W34193  19.260  44.711   2.297
62665W        W34194  16.561   8.175  12.427
62666W        W34195   7.657   6.867  12.421
62667W        W34196  28.966   5.313  13.798
62668W        W34197  24.916  39.280  11.924
62669W        W34198   4.253  10.353   3.575
62670W        W34199  18.393  16.203   2.791
62671W        W34200  11.435  25.053  11.181
62672W        W34201   7.760   4.062   3.229
62673W        W34202  13.326  35.189  11.463
62674W        W34203  27.454  26.945   2.554
62675W        W34204   5.904  20.780   4.710
62676W        W34205  26.687  29.354  10.000
62677W        W34206  23.495  44.987  13.949
62678W        W34207  28.694   7.269  11.940
62679W        W34208   2.012  35.001   4.506
62680W        W34209   9.327  40.275   1.893
62681W        W34210  26.086  35.608  12.847
62682W        W34211  22.782   4.829  11.929
62683W        W34212   6.134  26.763  11.228
62684W        W34213  37.352  28.994  11.488
62685W        W34214  28.544  40.575   0.407
62686W        W34215  19.100  42.745  12.506
62687W        W34216  18.768  30.457  12.487
62688W        W34217  10.251  40.845  13.573
62689W        W34218  42.377  26.708   1.919
62690W        W34219  15.662  37.439  14.812
62691W        W34220   2.074   3.210   2.622
62692W        W34221   2.826   2.649   0.913
62693W        W34222  21.231  27.621  14.052
62694W        W34223  13.932  36.373   0.867
62695W        W34224   5.127  16.545   3.596
62696W        W34225   4.482   0.371  13.141
62697W        W34226  26.626  12.196  11.009
62698W        W34227  20.759  42.824  11.432
62699W        W34228   7.354  40.364   0.845
62700W        W34229   2.706  12.333   0.548
62701W        W34230   4.717  30.986  10.562
62702W        W34231  29.494   0.250   4.283
62703W        W34232   6.724  42.991  13.954
62704W        W34233  25.373  15.628   3.840
62705W        W34234   3.196  23.995  13.546
62706W        W34235  44.935   2.755  13.840
62707W        W34236  34.755  34.636   2.912
62708W        W34237  35.477  39.505   3.952
62709W        W34238  38.831  29.851  11.028
62710W        W34239  37.867   2.797  13.293
62711W        W34240  12.965  15.245   1.881
62712W        W34241   4.767  14.000  13.948
62713W        W34242  28.442  14.379   2.699
62714W        W34243  31.218  36.829   0.285
62715W        W34244  43.056  12.254   2.836
62716W        W34245  16.261  43.815   0.943
62717W        W34246  10.754  12.921   3.738
62718W        W34247  40.726  18.692   3.991
62719W        W34248   8.279  43.526   0.749
62720W        W34249  39.712  34.908  14.570
62721W        W34250  19.695   2.024  13.113
62722W        W34251  41.863   4.904  14.331
62723W        W34252  20.695  20.390   4.606
62724W        W34253  14.863  38.553   1.377
62725W        W34254  42.917   2.641   2.405
62726W        W34255  42.896  27.044   3.161
62727W        W34256   8.469  12.342  10.770
62728W        W34257  28.796  13.600  10.768
62729W        W34258   2.915   1.417   3.151
62730W        W34259   5.242  25.047  13.052
62731W        W34260  19.044   6.392   2.614
62732W        W34261  15.762  22.445   1.347
62733W        W34262  31.969  36.086   3.277
62734W        W34263  17.606   7.478   4.669
62735W        W34264   9.973  28.370   1.739
62736W        W34265  18.256  39.548   3.352
62737W        W34266  19.253   7.716   0.782
62738W        W34267  34.886  42.712   3.175
62739W        W34268  32.362  10.121   1.045
62740W        W34269  15.129  22.716  13.480
62741W        W34270  28.400  33.558  14.397
62742W        W34271  38.987  28.655  14.826
62743W        W34272  10.575  20.960  13.524
62744W        W34273  31.605  34.183   3.733
62745W        W34274  43.351  41.949   1.346
62746W        W34275  29.952  13.119   4.923
62747W        W34276  12.908  17.351  12.669
62748W        W34277   3.766  22.462   2.987
62749W        W34278  15.189  15.634  14.744
62750W        W34279   8.169  17.765   5.428
62751W        W34280  16.597  44.102   3.031
62752W        W34281   2.002   1.248   0.770
62753W        W34282   2.746  40.337  10.742
62754W        W34283  39.279  31.356   3.984
62755W        W34284  35.842  27.423   2.376
62756W        W34285  41.821  15.179  12.346
62757W        W34286   8.824  28.737  11.206
62758W        W34287  15.187  34.984  12.532
62759W        W34288  31.072   1.720  14.925
62760W        W34289  10.647  36.843   4.249
62761W        W34290  10.807  18.698  11.892
62762W        W34291  13.111  13.031   0.173
62763W        W34292  16.836  16.631  12.819
62764W        W34293  30.338  25.595  14.310
62765W        W34294  32.618  18.151   0.516
62766W        W34295  27.259  38.011   4.243
62767W        W34296  16.111  40.013  11.116
62768W        W34297  30.837   6.974   1.004
62769W        W34298  29.288   4.999   1.642
62770W        W34299  17.131  43.392  10.705
62771W        W34300  13.143   1.273   0.783
62772W        W34301  10.679  13.658   3.347
62773W        W34302  34.406   1.290  14.136
62774W        W34303  39.791  42.923   9.992
62775W        W34304  11.667  11.391  11.046
62776W        W34305  30.318  26.866  12.611
62777W        W34306  15.200  28.200   0.403
62778W        W34307  15.780  35.404  11.920
62779W        W34308   3.377  32.719  11.943
62780W        W34309   4.978  17.480   3.946
62781W        W34310  18.116  32.857  11.005
62782W        W34311  21.732  34.835   3.217
62783W        W34312  23.035  24.610  14.266
62784W        W34313   5.010   2.943  11.516
62785W        W34314  30.891  16.797  14.815
62786W        W34315  37.296  33.362  10.970
62787W        W34316  24.713  31.831   3.162
62788W        W34317  24.066  21.036  13.783
62789W        W34318  36.476  11.805   3.727
62790W        W34319  43.760  16.560  12.964
62791W        W34320  39.487   9.003   3.713
62792W        W34321  25.865  37.081   0.369
62793W        W34322   1.476  40.918   0.322
62794W        W34323  21.607  44.532   3.683
62795W        W34324  24.997  35.610   3.361
62796W        W34325  34.615  34.477  14.079
62797W        W34326  24.635  44.452   3.271
62798W        W34327  13.273  39.860   2.337
62799W        W34328  41.380  14.643   2.939
62800W        W34329  11.698  30.786   5.229
62801W        W34330   6.333  19.272  14.815
62802W        W34331   7.391   9.642   1.722
62803W        W34332  25.389  41.944  13.080
62804W        W34333  24.541  12.149  10.714
62805W        W34334  17.802  39.765   1.628
62806W        W34335  11.785  25.935  13.266
62807W        W34336  17.536  15.530   2.384
62808W        W34337  38.079  41.590   4.980
62809W        W34338  24.257   6.341  13.431
62810W        W34339  13.548  17.652  14.256
62811W        W34340  33.940  28.367   3.876
62812W        W34341  13.298  10.222   4.548
62813W        W34342   2.237  14.305   1.364
62814W        W34343  37.390  17.500  13.470
62815W        W34344  30.200  37.564   0.023
62816W        W34345  14.849  27.025  12.685
62817W        W34346  30.386   0.478   1.997
62818W        W34347   0.766   1.837   0.996
62819W        W34348  29.698   8.954   2.068
62820W        W34349  14.760  29.947  11.994
62821W        W34350  29.062  43.094  11.530
62822W        W34351  18.214   1.283   3.590
62823W        W34352  26.723  37.915   3.106
62824W        W34353  20.682   4.686   1.611
62825W        W34354  33.188  32.175   2.324
62826W        W34355   2.391  27.742  14.962
62827W        W34356  11.827  10.345  10.681
62828W        W34357  34.404  12.338  13.852
62829W        W34358  13.352   3.941   1.619
62830W        W34359   1.250  36.386  12.037
62831W        W34360  43.040  22.520  13.696
62832W        W34361  27.465  41.940   1.239
62833W        W34362  35.378  21.480   3.245
62834W        W34363  39.178  31.031  10.743
62835W        W34364  21.011  35.836   4.290
62836W        W34365  21.101   1.595  10.747
62837W        W34366   8.937  34.097   4.185
62838W        W34367  42.734  44.201  13.012
62839W        W34368  18.174  24.308   3.138
62840W        W34369   2.330  25.567   0.496
62841W        W34370  11.226  24.500  12.491
62842W        W34371  29.279   6.744  12.275
62843W        W34372  34.219  35.831   1.693
62844W        W34373   5.997  31.148   1.351
62845W        W34374  39.778  34.955   2.173
62846W        W34375   9.653  25.471  14.027
62847W        W34376  19.557  13.686   2.372
62848W        W34377  27.943  40.037  12.211
62849W        W34378   7.448  26.056  14.740
62850W        W34379  39.442  15.692  13.337
62851W        W34380  34.116  33.321  12.538
62852W        W34381  16.055   1.007   1.882
62853W        W34382  42.392  40.716   1.397
62854W        W34383  26.307   0.811   4.995
62855W        W34384  38.746  31.535  12.283
62856W        W34385  17.991  27.218  12.027
62857W        W34386  14.116   2.887  10.730
62858W        W34387   5.246  42.522   0.905
62859W        W34388  35.624  27.553  14.673
62860W        W34389  32.652  39.273  11.975
62861W        W34390  10.294  11.569  13.166
62862W        W34391   4.076   5.364   0.484
62863W        W34392  13.716   2.054  13.201
62864W        W34393  27.624  26.998  11.532
62865W        W34394  44.973  39.048  14.809
62866W        W34395  34.069  35.574   2.856
62867W        W34396  10.895  35.940   4.197
62868W        W34397   2.338  32.419  12.586
62869W        W34398  23.619  21.232   4.889
62870W        W34399  22.244   2.056  12.421
62871W        W34400  16.353  44.149   2.263
62872W        W34401   8.455  40.045   3.584
62873W        W34402  26.572  44.967  13.952
62874W        W34403  23.974  20.230   4.683
62875W        W34404   2.387  35.775  12.932
62876W        W34405   9.329  12.123  10.417
62877W        W34406  24.681   2.435   3.271
62878W        W34407  23.903  19.044  10.712
62879W        W34408  30.837   2.165  12.457
62880W        W34409  34.580  43.806  10.721
62881W        W34410   7.811  29.111  10.100
62882W        W34411   1.928  32.820   2.318
62883W        W34412  40.963  24.213   1.322
62884W        W34413  43.754   9.852   4.350
62885W        W34414  29.677  36.494  12.047
62886W        W34415  40.817  33.338   1.871
62887W        W34416  16.725  29.075   0.789
62888W        W34417  13.851  22.026   0.137
62889W        W34418  25.562  35.899  10.354
62890W        W34419  11.080  30.037   3.664
62891W        W34420  18.282  37.999   2.852
62892W        W34421  21.547  44.969  10.966
62893W        W34422  34.584  25.069   3.898
62894W        W34423  25.772  20.317  12.404
62895W        W34424  31.603  15.235   3.554
62896W        W34425   9.912  23.686   2.925
62897W        W34426  15.761   5.387   4.435
62898W        W34427  37.821  22.119  11.118
62899W        W34428  31.169  18.125   1.441
62900W        W34429  10.443  39.880   1.011
62901W        W34430   5.946  11.634   3.299
62902W        W34431  37.130   2.175   2.221
62903W        W34432  14.567  15.875  11.967
62904W        W34433  20.302  29.633   3.156
62905W        W34434  22.207  42.937   3.123
62906W        W34435  37.289  30.819   3.715
62907W        W34436  19.490  31.504  12.583
62908W        W34437   5.127  10.954  12.436
62909W        W34438  33.422   9.870  14.806
62910W        W34439  20.908  25.552  11.961
62911W        W34440  44.403  30.338  13.553
62912W        W34441  30.039  40.364   1.836
62913W        W34442  42.457  44.288  14.341
62914W        W34443  22.491  27.940  14.411
62915W        W34444  25.290  31.681   3.069
62916W        W34445  30.294  13.778   0.393
62917W        W34446  18.871  28.103  13.929
62918W        W34447  31.515  32.324  12.086
62919W        W34448   9.119  36.127  13.982
62920W        W34449   5.452   9.219   1.054
62921W        W34450  42.242  17.757   3.194
62922W        W34451   9.321  28.226  13.891
62923W        W34452  35.372  13.736  11.944
62924W        W34453   5.852   1.144  13.462
62925W        W34454   5.542  32.227  13.957
62926W        W34455  26.230  15.146   2.687
62927W        W34456  18.945  23.186   3.378
62928W        W34457  35.914  19.300  13.469
62929W        W34458  33.029  40.472  12.186
62930W        W34459   2.972  30.898  11.612
62931W        W34460   7.063  11.544  14.523
62932W        W34461   0.711  12.385  13.315
62933W        W34462  16.063   6.229  10.132
62934W        W34463  37.855  12.088   1.824
62935W        W34464  44.462  16.735   0.739
62936W        W34465  25.435  35.705  13.016
62937W        W34466  27.579   1.542   2.036
62938W        W34467   7.442  39.403   1.734
62939W        W34468  37.426   3.783  13.924
62940W        W34469  27.249  24.487  11.682
62941W        W34470  22.759  38.456   2.786
62942W        W34471  15.624  41.469   5.220
62943W        W34472  18.994   1.321  14.543
62944W        W34473  18.918  37.305  14.091
62945W        W34474  28.217  28.548  13.349
62946W        W34475  30.228  36.597   0.253
62947W        W34476  16.354   4.411   4.194
62948W        W34477  10.238  30.288   1.856
62949W        W34478  12.125  32.129  14.789
62950W        W34479  10.780  33.044  11.918
62951W        W34480  14.172   6.982   2.593
62952W        W34481  24.084  40.494  13.945
62953W        W34482   8.087  13.671  14.465
62954W        W34483  40.561   8.505  10.881
62955W        W34484  14.605  31.984  13.535
62956W        W34485  39.588  36.430   2.276
62957W        W34486  39.065  11.818   2.719
62958W        W34487  26.711  23.238  11.065
62959W        W34488   6.943   2.010  10.658
62960W        W34489   1.034  32.284  11.313
62961W        W34490  41.449  11.908  13.795
62962W        W34491  35.980   9.618   2.775
62963W        W34492  16.272   2.119  12.599
62964W        W34493  44.466  29.041  14.035
62965W        W34494  25.421  40.800   0.839
62966W        W34495  12.714  31.903   3.712
62967W        W34496  34.823  19.174  14.913
62968W        W34497  10.614  35.675   1.205
62969W        W34498  34.815  14.200  13.091
62970W        W34499   6.461  16.519  13.453
62971W        W34500  22.106  11.702  11.647
62972W        W34501  10.326  35.781  12.028
62973W        W34502  29.878  13.839  13.559
62974W        W34503  31.872  33.373  10.441
62975W        W34504  39.813  39.612   3.338
62976W        W34505  13.453  14.660  13.288
62977W        W34506  20.135  34.028  14.797
62978W        W34507  29.871  23.744   0.289
62979W        W34508  36.208  18.552  14.959
62980W        W34509  10.706  39.930   3.305
62981W        W34510  28.190  19.633   1.424
62982W        W34511  11.103   9.348  13.849
62983W        W34512  34.085   7.945  11.484
62984W        W34513  12.202  14.367  14.237
62985W        W34514   6.048  14.533   2.009
62986W        W34515  21.556  29.576   4.751
62987W        W34516  29.518  31.387   1.223
62988W        W34517  33.922   0.467  11.403
62989W        W34518  41.489  34.893   4.228
62990W        W34519   2.888   9.214   4.143
62991W        W34520  12.851   0.625   3.386
62992W        W34521  10.843  15.102  12.817
62993W        W34522  40.859  27.985   5.140
62994W        W34523  20.316  12.709   1.747
62995W        W34524  26.948  10.756   0.892
62996W        W34525  32.916  37.998   4.098
62997W        W34526  30.306  28.490  14.405
62998W        W34527  42.826  30.825  13.115
62999W        W34528  13.566  18.204   1.265
63000W        W34529  36.577   2.323  11.491
63001W        W34530  43.550  16.579  13.842
63002W        W34531  23.112   9.510  11.202
63003W        W34532  11.509  13.645  14.298
63004W        W34533  37.476  39.900   1.204
63005W        W34534  24.132  34.831   2.753
63006W        W34535  42.666  42.545   3.183
63007W        W34536  13.341  34.937   3.240
63008W        W34537  12.822  14.545   0.940
63009W        W34538   0.346  22.730   0.425
63010W        W34539  33.387  40.556  13.101
63011W        W34540  23.512  41.013   0.250
63012W        W34541  30.163  37.893  14.601
63013W        W34542  42.096  25.873  14.840
63014W        W34543  42.255  13.172  14.410
63015W        W34544  27.523  26.996  12.428
63016W        W34545  27.735   1.736   1.067
63017W        W34546  34.606  43.452  12.493
63018W        W34547  17.720   2.742   1.412
63019W        W34548  34.991  34.814  14.314
63020W        W34549  28.667  37.439  12.972
63021W        W34550  44.408   0.436  10.928
63022W        W34551  35.905  44.780  11.579
63023W        W34552  10.283  34.403  14.049
63024W        W34553  12.193   4.994  13.508
63025W        W34554   9.622  12.145   1.405
63026W        W34555  15.195  21.837   0.981
63027W        W34556   6.490   1.482   0.414
63028W        W34557  34.376  27.115   0.346
63029W        W34558  25.493  34.603  11.987
63030W        W34559  28.420  31.091   3.688
63031W        W34560  22.632  38.045   2.467
63032W        W34561  35.105  20.178   0.384
63033W        W34562  26.298  16.597  13.549
63034W        W34563  25.689  20.564   2.245
63035W        W34564   4.880   4.954   2.163
63036W        W34565  32.172  34.102  12.066
63037W        W34566  17.070  31.555   3.537
63038W        W34567  36.938   3.552  14.947
63039W        W34568  37.308  14.725   0.354
63040W        W34569   8.870  41.114   0.698
63041W        W34570  42.943  10.203   2.324
63042W        W34571  39.522  28.387   1.797
63043W        W34572  14.624  44.770   4.113
63044W        W34573   6.732   9.470   1.277
63045W        W34574  29.954  35.417  11.473
63046W        W34575  26.033   4.818   2.845
63047W        W34576  36.789  17.035  13.746
63048W        W34577   3.782  22.465  13.500
63049W        W34578  19.146  12.449   2.765
63050W        W34579  33.558  30.112   3.796
63051W        W34580  31.401  10.047   3.118
63052W        W34581   2.922  12.023   2.844
63053W        W34582   8.205  18.706  11.764
63054W        W34583  24.354   5.146   1.091
63055W        W34584  14.349  22.627  13.893
63056W        W34585  22.111  38.237   4.990
63057W        W34586  21.604  19.922   0.423
63058W        W34587  10.933  30.443  11.587
63059W        W34588  29.204  24.759   1.414
63060W        W34589  19.026  14.529  13.821
63061W        W34590   9.532  13.124  13.768
63062W        W34591  29.534  14.155   4.103
63063W        W34592  35.022  34.189   0.558
63064W        W34593  20.853  18.193   0.478
63065W        W34594  15.504  38.815  11.657
63066W        W34595  36.897  17.348   1.307
63067W        W34596  28.966   0.712  13.328
63068W        W34597  21.756  33.546   0.032
63069W        W34598   7.414  35.910   4.570
63070W        W34599  38.423  31.506  13.169
63071W        W34600  40.800  44.544   2.013
63072W        W34601  11.425  10.267  11.588
63073W        W34602  35.993  10.665   3.889
63074W        W34603   9.948  37.590   3.108
63075W        W34604  38.970  31.996  14.401
63076W        W34605  23.147  14.251   1.966
63077W        W34606  40.094  41.856   0.538
63078W        W34607  42.231  36.326   3.447
63079W        W34608   6.170  28.144  12.515
63080W        W34609   6.184  38.014   1.664
63081W        W34610  20.014   8.239   2.084
63082W        W34611   5.198  23.857   0.396
63083W        W34612   8.418  24.731  11.946
63084W        W34613  28.681  16.862  10.578
63085W        W34614  36.468  30.453  12.527
63086W        W34615   5.239  41.959  10.530
63087W        W34616   1.977  36.133   1.411
63088W        W34617  23.223  29.071   3.603
63089W        W34618   3.542  24.326   3.136
63090W        W34619   7.218  42.199  11.604
63091W        W34620   2.902  11.207   2.428
63092W        W34621  20.067  36.140   2.841
63093W        W34622  22.274  12.176  10.770
63094W        W34623  40.036  42.347   0.811
63095W        W34624   5.181  38.319  12.031
63096W        W34625   4.758  29.094  12.029
63097W        W34626  33.857  29.348  10.632
63098W        W34627  21.430  12.608  13.457
63099W        W34628  14.912  39.492  11.871
63100W        W34629  40.956  14.407   2.714
63101W        W34630  11.063  39.803   0.426
63102W        W34631  21.656  34.016  13.352
63103W        W34632  36.831  38.607   4.526
63104W        W34633   5.247   7.633  12.001
63105W        W34634  15.359  16.424   1.645
63106W        W34635   0.701  40.730  12.605
63107W        W34636  37.056  23.506  14.401
63108W        W34637  29.643   5.495   0.369
63109W        W34638   4.724   2.042   0.720
63110W        W34639  30.611  17.797  12.140
63111W        W34640  23.637  12.089  11.124
63112W        W34641  34.040  33.800   1.130
63113W        W34642   9.822  40.961  12.881
63114W        W34643  27.619  33.514  14.935
63115W        W34644  38.798  34.635   3.019
63116W        W34645  25.517  15.295  14.185
63117W        W34646   8.916   8.471  14.418
63118W        W34647  30.077  32.619   1.499
63119W        W34648  35.784  26.653   3.210
63120W        W34649  23.110  26.237  13.579
63121W        W34650  11.924  29.630   4.581
63122W        W34651  40.418  33.149   1.605
63123W        W34652  15.191  36.129  11.199
63124W        W34653  18.570  17.526  10.676
63125W        W34654  36.416  19.167  13.457
63126W        W34655   3.757  42.318  12.371
63127W        W34656   3.775  27.009   0.647
63128W        W34657   6.233  40.546   2.163
63129W        W34658  44.729   9.852  11.164
63130W        W34659  22.512  14.084   4.979
63131W        W34660   4.878  23.597  12.501
63132W        W34661  24.981  40.228  14.466
63133W        W34662  15.777  32.648   3.722
63134W        W34663   3.334  31.159  14.511
63135W        W34664  13.745  27.968  13.407
63136W        W34665  17.591  15.078   1.788
63137W        W34666  21.598  13.604   4.265
63138W        W34667  41.731   2.712   0.753
63139W        W34668  43.725  34.697  13.054
63140W        W34669   2.243  12.068  13.847
63141W        W34670   0.705  10.890   1.714
63142W        W34671  18.787   1.492   0.415
63143W        W34672  39.383  38.590   0.228
63144W        W34673  34.013  39.365  12.299
63145W        W34674  33.097  28.403  14.168
63146W        W34675  20.973   3.766  12.640
63147W        W34676  35.583  10.260   3.386
63148W        W34677  36.129  23.722  11.190
63149W        W34678  36.463   2.479   1.001
63150W        W34679  25.052   9.335   2.184
63151W        W34680  23.933  14.886   2.814
63152W        W34681   4.828  37.348  13.884
63153W        W34682   0.734  26.664  11.110
63154W        W34683  44.941  17.893   0.290
63155W        W34684  28.708  34.430   0.067
63156W        W34685   5.246  12.282  12.901
63157W        W34686  18.760  10.594  11.680
63158W        W34687  17.774  38.018  12.078
63159W        W34688  17.106  37.972   0.369
63160W        W34689  38.113  29.208   1.761
63161W        W34690  44.860  36.658  11.536
63162W        W34691  37.504  14.550  11.466
63163W        W34692   9.300  28.038  12.977
63164W        W34693  29.910  41.675  12.005
63165W        W34694  40.145  21.128   2.647
63166W        W34695  37.120  38.605   3.656
63167W        W34696  41.722  19.734   3.619
63168W        W34697   5.269  18.141  14.307
63169W        W34698  42.014   0.976  14.490
63170W        W34699   2.270   2.807  14.377
63171W        W34700  16.544   4.183  13.075
63172W        W34701   2.381  29.136  11.953
63173W        W34702  28.467   9.096   4.663
63174W        W34703  35.334   5.313   1.242
63175W        W34704  27.675  43.209   0.962
63176W        W34705  39.786  13.335  14.015
63177W        W34706  40.306  23.101  12.144
63178W        W34707   3.423  37.209  12.088
63179W        W34708  38.909  19.222   4.039
63180W        W34709   6.402   4.996  10.231
63181W        W34710  37.507  40.971   1.889
63182W        W34711  31.606  12.247  11.546
63183W        W34712   0.934  32.014   4.888
63184W        W34713   9.823   9.834  10.617
63185W        W34714   1.977  18.106   1.531
63186W        W34715   5.238  26.048   1.128
63187W        W34716  14.125   6.551   2.298
63188W        W34717  24.161   0.017  12.672
63189W        W34718  26.144  20.706  12.532
63190W        W34719   1.168   4.625  12.967
63191W        W34720  21.445  38.662   2.429
63192W        W34721   8.284  12.504   0.709
63193W        W34722  28.804  37.837   2.326
63194W        W34723   7.693   2.401   3.605
63195W        W34724  38.826  39.033   5.129
63196W        W34725  18.712  15.128   0.285
63197W        W34726  38.930  38.184  13.445
63198W        W34727   0.576  18.728  11.191
63199W        W34728  39.757  30.492  11.744
63200W        W34729  23.768  18.261  11.921
63201W        W34730  39.286  40.228  10.736
63202W        W34731  32.708  17.364   1.746
63203W        W34732  40.571  20.823   4.052
63204W        W34733  22.048  12.782   4.154
63205W        W34734  40.513  21.012   1.770
63206W        W34735  21.089  31.694   3.316
63207W        W34736  14.640  41.910  11.690
63208W        W34737   1.830   0.753  13.471
63209W        W34738   9.344   3.562  14.346
63210W        W34739  13.378  42.407   0.409
63211W        W34740  21.590   4.711  12.800
63212W        W34741  42.723  27.444   1.075
63213W        W34742  40.311  15.591  14.749
63214W        W34743  13.317  35.392  14.320
63215W        W34744  16.997  35.075   2.820
63216W        W34745  27.549  26.748  11.975
63217W        W34746   9.190  36.485  12.465
63218W        W34747  12.403  28.022   0.933
63219W        W34748   4.384  36.047  12.933
63220W        W34749  13.237  29.153  10.563
63221W        W34750  10.069  37.305   4.714
63222W        W34751  27.697  18.649  12.512
63223W        W34752  37.512  44.536  14.679
63224W        W34753  39.260  11.839   2.228
63225W        W34754   4.197  25.477   1.341
63226W        W34755  23.197   1.773   1.913
63227W        W34756  19.683  44.160  10.611
63228W        W34757   4.703  20.678  12.319
63229W        W34758  39.324  44.899   3.122
63230W        W34759  36.752   4.538   5.034
63231W        W34760  11.223  13.687  12.498
63232W        W34761  23.337  43.318   4.695
63233W        W34762  31.300  39.457  12.094
63234W        W34763  17.617  12.352  12.079
63235W        W34764  35.837  41.984  10.600
63236W        W34765  21.702  30.065  12.565
63237W        W34766  26.248  37.792   1.669
63238W        W34767  25.494  42.754  14.854
63239W        W34768  14.348  29.143  12.610
63240W        W34769  28.220  42.826   4.528
63241W        W34770  12.855   8.036  12.900
63242W        W34771  44.210  18.564   3.616
63243W        W34772   1.883  30.973   3.302
63244W        W34773  29.387   0.723  10.860
63245W        W34774  16.038  19.530   0.254
63246W        W34775  44.031   6.921  11.645
63247W        W34776   8.991  10.798  10.616
63248W        W34777  31.187   8.643  11.521
63249W        W34778  32.364   4.688  11.830
63250W        W34779   8.466   1.798  14.434
63251W        W34780  26.422  21.089  10.591
63252W        W34781   5.189   3.241  13.213
63253W        W34782   1.859  31.370  11.745
63254W        W34783  39.114  30.086  11.810
63255W        W34784  14.738  40.980  10.749
63256W        W34785  18.833   0.081   0.383
63257W        W34786   9.245  34.859   4.664
63258W        W34787   9.154   1.889  10.608
63259W        W34788  34.375   3.737  14.067
63260W        W34789   8.410  26.752  13.374
63261W        W34790  37.760  29.088  11.147
63262W        W34791  11.146  40.452   1.326
63263W        W34792  28.746  25.779  13.470
63264W        W34793  39.585  27.448  12.048
63265W        W34794  23.001   4.237  10.734
63266W        W34795  29.018   8.888   0.220
63267W        W34796  18.028  11.335   2.230
63268W        W34797  10.795  19.217  13.549
63269W        W34798  13.103  26.536  14.261
63270W        W34799  33.509   4.669   1.638
63271W        W34800   0.968  27.654   4.096
63272W        W34801  14.076  30.764   1.702
63273W        W34802  39.824  10.088  13.414
63274W        W34803  33.420  36.658   2.178
63275W        W34804  16.410   5.956  11.824
63276W        W34805  19.079  27.739   4.174
63277W        W34806  30.382  16.207  11.553
63278W        W34807  11.724  12.409   2.883
63279W        W34808  33.829   6.695   3.385
63280W        W34809  18.281   5.446  11.541
63281W        W34810  10.567  25.156  13.130
63282W        W34811  11.064  22.998  14.921
63283W        W34812  22.286  11.225  11.569
63284W        W34813  32.037  40.986   2.354
63285W        W34814  33.991  24.073  14.172
63286W        W34815   0.856   6.920   1.147
63287W        W34816  25.241  12.262   1.761
63288W        W34817  17.302  39.575   1.414
63289W        W34818  19.560  11.477   4.204
63290W        W34819  15.426  39.008  12.982
63291W        W34820   1.429  39.851  11.122
63292W        W34821  43.303  23.460  14.103
63293W        W34822  19.064   2.888   1.986
63294W        W34823  44.738  37.350  12.268
63295W        W34824  43.654   0.459   4.129
63296W        W34825  39.028  18.368   4.283
63297W        W34826   2.767  44.414   1.889
63298W        W34827   1.815  22.204   0.042
63299W        W34828  13.834  37.900   2.288
63300W        W34829  36.934  38.151   1.061
63301W        W34830  43.568  17.850  12.508
63302W        W34831  26.712  36.914   0.725
63303W        W34832  34.723   4.984   0.217
63304W        W34833  43.477  21.115  11.062
63305W        W34834  22.773  14.319  10.579
63306W        W34835  41.216  26.983  13.537
63307W        W34836  41.730  35.859   5.009
63308W        W34837  26.937  21.566   0.059
63309W        W34838  30.499  15.254  12.778
63310W        W34839  21.250   8.460  14.415
63311W        W34840  10.631  24.762   3.168
63312W        W34841  23.128  19.846  12.688
63313W        W34842  22.297  15.251   2.810
63314W        W34843  35.435  32.025  11.985
63315W        W34844  35.259   3.255   5.113
63316W        W34845  25.068   8.189  13.456
63317W        W34846   2.994  39.280  11.568
63318W        W34847  42.058  17.739  11.556
63319W        W34848  12.696  43.519   2.877
63320W        W34849   6.802   6.632  14.584
63321W        W34850  44.373  33.716  13.462
63322W        W34851  17.122  32.001   5.085
63323W        W34852  11.843  28.716   2.037
63324W        W34853  34.292  34.375  11.216
63325W        W34854  30.423   3.812   2.251
63326W        W34855  24.691  24.031   4.707
63327W        W34856  28.663  28.504  11.510
63328W        W34857  30.894  34.381  11.687
63329W        W34858   1.261  23.316   0.724
63330W        W34859  13.215  36.823  10.670
63331W        W34860  11.062  39.269  11.418
63332W        W34861   4.160   7.118   4.993
63333W        W34862  39.727  28.312  11.079
63334W        W34863   1.683   1.390  10.734
63335W        W34864   9.270   5.649  12.001
63336W        W34865  40.295  24.107   0.463
63337W        W34866  26.988  34.507  13.842
63338W        W34867  12.863  29.302   2.630
63339W        W34868  17.551  16.891   2.263
63340W        W34869   3.393  11.836   0.796
63341W        W34870  36.388  11.711   3.215
63342W        W34871  41.442  41.439  13.574
63343W        W34872  35.325  32.537   2.825
63344W        W34873  16.063   4.415  13.905
63345W        W34874   6.481  27.965   1.559
63346W        W34875  42.733  40.852  13.507
63347W        W34876  10.588  43.389   0.352
63348W        W34877  28.441  20.237  10.484
63349W        W34878  25.163  39.460   4.087
63350W        W34879   5.159  12.239   0.399
63351W        W34880  42.219  41.496   3.044
63352W        W34881  30.479  24.474  14.876
63353W        W34882   2.310   7.217   2.453
63354W        W34883  44.072   4.278  11.550
63355W        W34884  31.189   6.397   3.223
63356W        W34885   0.184  11.606  11.572
63357W        W34886   7.799  26.305   3.301
63358W        W34887   2.691  31.661  13.916
63359W        W34888  21.075  22.623   3.339
63360W        W34889   0.405  37.267   0.835
63361W        W34890   9.085  33.564   3.529
63362W        W34891  30.414  13.341   2.601
63363W        W34892  23.748   7.438   3.095
63364W        W34893  13.660  14.650   1.974
63365W        W34894  41.456  37.813   0.337
63366W        W34895  44.244  21.061   4.531
63367W        W34896  43.984   3.112  14.469
63368W        W34897  27.186   9.765   1.810
63369W        W34898   9.172  32.396   1.331
63370W        W34899  20.703  31.080   0.264
63371W        W34900   6.468  29.236  13.587
63372W        W34901  31.961   0.346  13.329
63373W        W34902  24.574  16.360   3.185
63374W        W34903  21.190   3.684   4.275
63375W        W34904   3.349  44.503  12.987
63376W        W34905  36.890  32.575  10.629
63377W        W34906  38.912  16.530  12.026
63378W        W34907  13.650  39.340  12.389
63379W        W34908  20.266   3.300   1.242
63380W        W34909  43.043  20.421  11.852
63381W        W34910  21.717  39.351  11.116
63382W        W34911  33.085  35.503   2.885
63383W        W34912  37.124  30.132   1.768
63384W        W34913   7.758  17.183   4.566
63385W        W34914  22.626  14.117   9.855
63386W        W34915   6.011   8.534  11.573
63387W        W34916  29.269  16.260   3.172
63388W        W34917  29.328  30.001  13.474
63389W        W34918  13.697  11.999  13.539
63390W        W34919  14.294  30.993  11.515
63391W        W34920  44.744  17.092   4.999
63392W        W34921  27.623  39.151  13.582
63393W        W34922  18.122   8.683  11.488
63394W        W34923  27.055  28.322  10.536
63395W        W34924  11.659   7.743   0.877
63396W        W34925   6.651   6.925   3.330
63397W        W34926  28.656  16.593  14.891
63398W        W34927   4.638   0.343   1.712
63399W        W34928  41.067   2.995   2.723
63400W        W34929  33.071  33.217   3.318
63401W        W34930  35.056   3.486   4.216
63402W        W34931   9.932   0.757  13.518
63403W        W34932  15.592  23.446  10.670
63404W        W34933   5.821   1.296   1.871
63405W        W34934   6.854  33.711   4.639
63406W        W34935  19.988  42.430  11.052
63407W        W34936  16.682  11.224   3.639
63408W        W34937   9.153  21.029  14.408
63409W        W34938   4.244  43.353  11.974
63410W        W34939  31.880  29.478   1.401
63411W        W34940  39.861  17.154   0.359
63412W        W34941  23.575   0.329   0.168
63413W        W34942  40.740  12.598  14.028
63414W        W34943  25.675  15.738   2.951
63415W        W34944  38.389  22.845  14.811
63416W        W34945  12.183  17.652   0.759
63417W        W34946  26.332   8.431   2.380
63418W        W34947  16.091   3.963   2.678
63419W        W34948   0.256  34.114   3.512
63420W        W34949  18.633  27.623   4.767
63421W        W34950  43.578   2.958   3.215
63422W        W34951   2.562  23.066  11.841
63423W        W34952  37.904  30.418  12.415
63424W        W34953  34.523  14.371   1.817
63425W        W34954   2.902  43.768  14.729
63426W        W34955   9.605  37.973   0.492
63427W        W34956  19.749  30.177  12.489
63428W        W34957  10.397   4.630   1.765
63429W        W34958  17.216  35.520  10.242
63430W        W34959  35.588  13.838  12.936
63431W        W34960  27.928   5.914   2.224
63432W        W34961   8.700  27.736   3.214
63433W        W34962  11.575  40.133   1.744
63434W        W34963   5.823  44.901   2.607
63435W        W34964  41.809  12.163  12.405
63436W        W34965  18.303  15.598   1.225
63437W        W34966  17.538  20.430  12.622
63438W        W34967   6.727  25.948   0.343
63439W        W34968   3.934  40.302   1.422
63440W        W34969  23.637  41.237  10.310
63441W        W34970   6.327  41.507   1.851
63442W        W34971  12.910   5.611  11.373
63443W        W34972  13.202  39.076   0.496
63444W        W34973  37.906  17.695   1.673
63445W        W34974  33.375   3.659   1.734
63446W        W34975  42.924  40.972   3.721
63447W        W34976  43.897  21.516  13.051
63448W        W34977  44.293  20.939   0.889
63449W        W34978   1.364   3.314   4.656
63450W        W34979   1.835  37.425  11.669
63451W        W34980  18.655  14.131  11.272
63452W        W34981  15.550  33.844  12.778
63453W        W34982  18.573   1.400   0.883
63454W        W34983  43.756   7.025   2.441
63455W        W34984   2.525  34.070  13.352
63456W        W34985  42.895  24.935  11.854
63457W        W34986  11.288  24.547  14.535
63458W        W34987  23.719  15.469  10.705
63459W        W34988   3.632  11.717  10.647
63460W        W34989  25.776  25.404   3.146
63461W        W34990  23.453   7.092  10.860
63462W        W34991   1.200   1.726   3.303
63463W        W34992  36.952   1.367  11.598
63464W        W34993  11.869  25.428  13.278
63465W        W34994   7.758  20.174   1.794
63466W        W34995  43.093  33.958   2.704
63467W        W34996   9.425  14.770  12.977
63468W        W34997  12.935  10.137   0.837
63469W        W34998  43.925  29.884  11.139
63470W        W34999  11.568   7.134  14.022
63471W        W35000   2.267   0.397  13.238
63472W        W35001  13.072  19.587  11.658
63473W        W35002  40.439  42.236  12.834
63474W        W35003  43.942  10.236  12.931
63475W        W35004   6.615  18.553  10.361
63476W        W35005  29.912  28.631   1.676
63477W        W35006  26.654  29.383   3.247
63478W        W35007  11.839  19.565  12.901
63479W        W35008  22.053  27.907   1.315
63480W        W35009  27.015  19.444  11.560
63481W        W35010   4.989   1.771   0.347
63482W        W35011  15.643  11.574  12.320
63483W        W35012  26.757  35.416  14.280
63484W        W35013  35.514  25.379   2.745
63485W        W35014  30.962  32.943  12.457
63486W        W35015  33.603   1.962  14.905
63487W        W35016   8.830  28.277   4.577
63488W        W35017  32.405  39.568   2.527
63489W        W35018  41.004   3.374  12.062
63490W        W35019   9.113  18.039  12.668
63491W        W35020  21.773  29.926  13.473
63492W        W35021  35.004   5.523   4.695
63493W        W35022  12.612  42.812  14.315
63494W        W35023  19.055  41.139  14.741
63495W        W35024  26.379  44.285  11.884
63496W        W35025  11.899  14.451  13.597
63497W        W35026  11.262  35.881   2.548
63498W        W35027   3.014   1.135   0.951
63499W        W35028  35.521  13.696   3.233
63500W        W35029  26.726  38.416  10.747
63501W        W35030   9.028  21.519   3.611
63502W        W35031   1.342  14.728  13.375
63503W        W35032   1.532  18.072   3.835
63504W        W35033  31.441   0.676   1.220
63505W        W35034  34.497  37.844  10.750
63506W        W35035  41.573   1.817  11.594
63507W        W35036  21.575  36.968   0.434
63508W        W35037   6.363  20.051   0.347
63509W        W35038  20.222  24.799   3.727
63510W        W35039  11.149  26.031   2.869
63511W        W35040  18.740   9.883  14.198
63512W        W35041  38.908  24.750  13.461
63513W        W35042  24.560  15.834   3.221
63514W        W35043  33.647  39.540   0.200
63515W        W35044  19.310  22.691   4.059
63516W        W35045  10.329  42.011   2.734
63517W        W35046  15.751  21.220   1.575
63518W        W35047  34.598  32.003   2.783
63519W        W35048  38.044  24.433  11.134
63520W        W35049  26.174   9.929  10.650
63521W        W35050  34.213  43.913   0.934
63522W        W35051  43.390  32.190  13.865
63523W        W35052  15.694  38.551   1.756
63524W        W35053  39.961  34.391  13.412
63525W        W35054   4.804  32.415  11.390
63526W        W35055  33.624   2.086   4.240
63527W        W35056  43.349  19.986   4.587
63528W        W35057  34.527  18.260   0.646
63529W        W35058  30.008  44.769   0.061
63530W        W35059  19.026  25.178   2.805
63531W        W35060  11.849  30.749  10.795
63532W        W35061  10.738   4.160  12.539
63533W        W35062  27.433  23.114   3.330
63534W        W35063  29.261  18.539   4.739
63535W        W35064  24.614  22.760   1.844
63536W        W35065  23.478  17.126   4.544
63537W        W35066  26.552  34.032  11.205
63538W        W35067   9.223  40.830   0.437
63539W        W35068  17.550  38.244   3.323
63540W        W35069   0.725  38.673   4.104
63541W        W35070   7.192   6.962   4.637
63542W        W35071  30.747  22.546   0.444
63543W        W35072   6.753   9.880   0.929
63544W        W35073   7.878  24.070  14.468
63545W        W35074   7.709  11.347  13.872
63546W        W35075  34.882  30.119   1.262
63547W        W35076   9.464  26.959   1.642
63548W        W35077  34.921  21.545   0.383
63549W        W35078  25.940   4.861  12.065
63550W        W35079  12.838  24.102  12.922
63551W        W35080  19.642  39.354   4.328
63552W        W35081  10.829  34.339  11.647
63553W        W35082  25.772   8.473   4.200
63554W        W35083  31.631  29.854  12.892
63555W        W35084  40.877   9.973   1.859
63556W        W35085  31.946  19.050  13.202
63557W        W35086  44.749  15.476   2.932
63558W        W35087  19.277  24.272  11.539
63559W        W35088   4.903  25.347   2.863
63560W        W35089  23.616  30.001   2.253
63561W        W35090  13.233  11.456   1.848
63562W        W35091  13.823  27.540  11.881
63563W        W35092  29.581  21.746   1.463
63564W        W35093  43.980  37.975   3.339
63565W        W35094   4.828   3.888   1.466
63566W        W35095   4.565  43.833   0.363
63567W        W35096  44.673  44.479  10.010
63568W        W35097  35.880  38.985   4.753
63569W        W35098   5.843  10.650   3.352
63570W        W35099   5.024  30.339   2.779
63571W        W35100  31.380  18.583   3.782
63572W        W35101   6.346  41.273  11.370
63573W        W35102   9.746   4.199   4.419
63574W        W35103  10.086  15.690   0.942
63575W        W35104  12.805  24.362   3.120
63576W        W35105  28.531   3.994   0.436
63577W        W35106  14.761   2.909  11.549
63578W        W35107  12.802  42.933  12.008
63579W        W35108  14.673  26.456  12.402
63580W        W35109  43.032  39.258  14.541
63581W        W35110  34.009  37.538   2.396
63582W        W35111   7.934   8.532  12.627
63583W        W35112  24.268  40.329   4.633
63584W        W35113  31.178  39.306   0.908
63585W        W35114  25.148  14.389   4.433
63586W        W35115  30.575  16.315  12.018
63587W        W35116  20.412  33.894  11.384
63588W        W35117  40.388  35.542  14.413
63589W        W35118  12.056  16.382  11.524
63590W        W35119  33.934  33.768  14.842
63591W        W35120  36.326  28.447  13.971
63592W        W35121   8.599  30.423   3.576
63593W        W35122  25.653  24.335   1.827
63594W        W35123  11.800  18.557  13.875
63595W        W35124   6.391  41.800  11.296
63596W        W35125  38.310  41.225   1.393
63597W        W35126  14.380   8.618   1.133
63598W        W35127  42.515  10.264   1.665
63599W        W35128  38.997  33.195  13.922
63600W        W35129  24.270  19.774  14.390
63601W        W35130  11.777  20.025   3.177
63602W        W35131  33.182  44.253  11.518
63603W        W35132  25.216   0.095  14.244
63604W        W35133  12.867  15.560   3.301
63605W        W35134  17.651  21.231  14.283
63606W        W35135  37.055  28.339   4.090
63607W        W35136   0.126  30.206   1.229
63608W        W35137  36.332  33.353  12.040
63609W        W35138  12.370   9.787   4.645
63610W        W35139  31.651  16.938  11.451
63611W        W35140  12.344  15.298  12.097
63612W        W35141   0.010  11.736   0.681
63613W        W35142  32.410  35.386   0.916
63614W        W35143  32.642  32.461   0.744
63615W        W35144  25.661  14.380  11.911
63616W        W35145   6.662  44.759  13.261
63617W        W35146  35.338  30.581   1.873
63618W        W35147   2.917  26.827  12.845
63619W        W35148  42.449  30.378   2.727
63620W        W35149   4.978  37.840  12.097
63621W        W35150  27.684   1.270  11.593
63622W        W35151  40.365  12.148  12.927
63623W        W35152  21.677  17.310   2.154
63624W        W35153  11.786  41.842   1.344
63625W        W35154  25.826  39.689  11.630
63626W        W35155  24.497  19.750   1.878
63627W        W35156  43.243   1.337  13.923
63628W        W35157  12.419  25.600  11.485
63629W        W35158  16.449  22.854  14.227
63630W        W35159  26.530  13.601  11.008
63631W        W35160  38.032  43.435   0.964
63632W        W35161   5.555   0.505  14.739
63633W        W35162  22.409  34.512  12.971
63634W        W35163  28.506  20.547   3.029
63635W        W35164  43.718  30.063  11.607
63636W        W35165   7.338  10.570   0.740
63637W        W35166  26.501  25.022   2.180
63638W        W35167  36.531  20.827   3.362
63639W        W35168  35.700  30.474   2.217
63640W        W35169   9.743   6.774  12.158
63641W        W35170  32.600   0.215   0.852
63642W        W35171   6.709  14.701  10.772
63643W        W35172  11.254   1.454   3.082
63644W        W35173  29.127  24.076   0.191
63645W        W35174  12.938  38.565   1.920
63646W        W35175  34.613  17.912   1.601
63647W        W35176  24.334   4.981   9.770
63648W        W35177  27.684   8.972   0.500
63649W        W35178  43.299  12.772   0.768
63650W        W35179  30.121  42.913  12.963
63651W        W35180   9.797  43.068   1.142
63652W        W35181  22.223  42.863  14.860
63653W        W35182  30.709  26.790  10.773
63654W        W35183  22.189  21.169   3.907
63655W        W35184  27.802  19.668   2.392
63656W        W35185  35.350  35.359  13.444
63657W        W35186   5.420   6.502  13.430
63658W        W35187   3.072  34.289  14.182
63659W        W35188  30.660  30.862  14.144
63660W        W35189  22.007  29.128   2.137
63661W        W35190   9.196  44.703   0.274
63662W        W35191  21.659  32.589  13.983
63663W        W35192  11.627   2.489   4.105
63664W        W35193  41.885  11.201  12.294
63665W        W35194  14.594  33.451  13.015
63666W        W35195  43.699  32.988   3.392
63667W        W35196   8.952  13.075  12.451
63668W        W35197  18.750  38.483   1.816
63669W        W35198  42.548  33.270   4.704
63670W        W35199   2.178  39.578  14.765
63671W        W35200  13.615  15.135  13.470
63672W        W35201  31.509  29.802   4.390
63673W        W35202  33.562   2.659   1.019
63674W        W35203   1.060   8.349  12.123
63675W        W35204  16.974   7.638  10.810
63676W        W35205  25.442  37.124  13.401
63677W        W35206  21.619  18.783   3.129
63678W        W35207  11.801  20.110  14.600
63679W        W35208  31.198  40.900  12.446
63680W        W35209   7.174  44.354   2.721
63681W        W35210  23.704  12.160  13.528
63682W        W35211  21.631  10.731  14.385
63683W        W35212  40.731  39.343  13.946
63684W        W35213  36.566  43.394  12.229
63685W        W35214  41.038  20.975   2.767
63686W        W35215  44.187   6.438   3.357
63687W        W35216  16.943   3.117   3.222
63688W        W35217  27.423  41.481   0.972
63689W        W35218  33.654   8.671   5.291
63690W        W35219  39.502  13.305  11.103
63691W        W35220   4.451   2.856   2.336
63692W        W35221  10.905  44.854  14.389
63693W        W35222  15.723  10.865   3.691
63694W        W35223  17.117   0.414   1.753
63695W        W35224  17.130   7.869   1.162
63696W        W35225  24.480  43.089  10.393
63697W        W35226  32.684  12.830   4.954
63698W        W35227  19.630  33.925  11.867
63699W        W35228  19.846  15.799   4.114
63700W        W35229  34.655  34.450   4.233
63701W        W35230  27.035   0.039   0.134
63702W        W35231  25.146  22.899   1.700
63703W        W35232  40.837  26.707  12.838
63704W        W35233   5.910  41.214   3.822
63705W        W35234  31.466   6.835  13.896
63706W        W35235  25.139   7.243  10.666
63707W        W35236  12.887  15.749  13.689
63708W        W35237   6.650  21.780   1.630
63709W        W35238  25.020   3.253   3.654
63710W        W35239  28.049  12.457  10.367
63711W        W35240  21.700  21.763  14.414
63712W        W35241  21.224  23.070  13.643
63713W        W35242   5.232  26.182   2.792
63714W        W35243  31.997  21.607   3.142
63715W        W35244  16.029  41.610   1.867
63716W        W35245  43.861  28.557  14.736
63717W        W35246  35.144  39.652  12.948
63718W        W35247  24.497  10.797  11.461
63719W        W35248  21.080  18.160  14.036
63720W        W35249  43.724  29.661   4.491
63721W        W35250  18.670   5.786  11.648
63722W        W35251   5.816  32.164  14.584
63723W        W35252   7.328  41.594  12.900
63724W        W35253  16.049  22.460  14.396
63725W        W35254   7.191   7.083  12.031
63726W        W35255  20.643   3.412  10.615
63727W        W35256   9.856  40.218  14.015
63728W        W35257   1.709   7.757   0.793
63729W        W35258  29.209  35.945   2.748
63730W        W35259  30.917  29.445   1.182
63731W        W35260  32.434  34.382   0.955
63732W        W35261   8.350  38.075   1.238
63733W        W35262  28.972  34.398   2.197
63734W        W35263  14.562  14.728   1.810
63735W        W35264  34.700  12.242   3.353
63736W        W35265  43.513  11.074  14.637
63737W        W35266   8.680   0.994  10.809
63738W        W35267  16.549  13.454  14.267
63739W        W35268   6.060  29.010  11.865
63740W        W35269   6.271  25.604   1.640
63741W        W35270  37.521  22.213  11.608
63742W        W35271  21.634  42.296  11.657
63743W        W35272   2.390  24.066   1.712
63744W        W35273  15.091  39.693  13.574
63745W        W35274  25.184  27.705  11.977
63746W        W35275  21.191  36.117   4.678
63747W        W35276   7.092  30.148  13.113
63748W        W35277  28.470  19.391   0.764
63749W        W35278  17.137   8.539  11.957
63750W        W35279  41.395   9.643  14.523
63751W        W35280  21.210   8.803  12.058
63752W        W35281  30.353  29.037  13.201
63753W        W35282  10.859   2.350  13.911
63754W        W35283   7.745  11.714  13.489
63755W        W35284  44.180  32.439   1.343
63756W        W35285  43.360   7.306   4.633
63757W        W35286  28.881   3.171  11.657
63758W        W35287  27.624  28.570   4.908
63759W        W35288  26.227   4.408  14.566
63760W        W35289  25.989  28.223   3.779
63761W        W35290   5.466  26.114  14.778
63762W        W35291  17.502  29.957  13.246
63763W        W35292  38.569  15.297   4.996
63764W        W35293   1.685  17.201   3.786
63765W        W35294  44.921  12.279  11.091
63766W        W35295  21.408  14.594   4.008
63767W        W35296  21.071   9.709  10.253
63768W        W35297  42.521  20.083   4.129
63769W        W35298  10.031  38.370  12.913
63770W        W35299  15.663   0.443  14.981
63771W        W35300   8.883  21.544   0.172
63772W        W35301  11.654  33.899   0.320
63773W        W35302  39.017  10.606  10.353
63774W        W35303  20.995   7.189  10.459
63775W        W35304  24.026  32.613   3.195
63776W        W35305  18.481  41.893   1.415
63777W        W35306  27.912  15.860   4.312
63778W        W35307  13.651  38.404  10.757
63779W        W35308  41.121  36.161  12.077
63780W        W35309  20.039  38.018  12.368
63781W        W35310  38.195  13.569   0.469
63782W        W35311  44.976  30.020   4.547
63783W        W35312  43.274  27.046  13.009
63784W        W35313  21.888  23.809  11.543
63785W        W35314   4.082  32.187  10.723
63786W        W35315  37.112   2.981   4.072
63787W        W35316   2.152  34.113   3.701
63788W        W35317  22.135   3.506   4.976
63789W        W35318   6.627  42.864  14.466
63790W        W35319   0.822   0.015  12.106
63791W        W35320  42.333  26.080  12.544
63792W        W35321   0.489  37.887   0.011
63793W        W35322  32.200   1.318   0.361
63794W        W35323  33.064  23.983  14.930
63795W        W35324  14.803  16.855   3.677
63796W        W35325  19.880  34.966   3.180
63797W        W35326  24.097  21.992   4.150
63798W        W35327   5.494  20.228  12.770
63799W        W35328   6.389  25.276  13.869
63800W        W35329   3.991  41.960  12.944
63801W        W35330  28.594  35.496   3.348
63802W        W35331  26.447  37.922  14.604
63803W        W35332  10.217  20.618   0.908
63804W        W35333  35.596  43.556  13.544
63805W        W35334  21.132  42.493   0.292
63806W        W35335  27.940  40.029   3.979
63807W        W35336  44.834   6.808   1.459
63808W        W35337  13.756  15.075   0.886
63809W        W35338   6.212   5.525  14.609
63810W        W35339   8.881  35.928  14.391
63811W        W35340   5.188  44.707  11.196
63812W        W35341   5.967  25.961   4.602
63813W        W35342  13.261   1.245  11.680
63814W        W35343  30.041  16.650  10.571
63815W        W35344  27.685  27.370   2.795
63816W        W35345  16.846  22.608   4.285
63817W        W35346   2.533  29.891  12.404
63818W        W35347  43.858  17.973  13.846
63819W        W35348   4.195  31.355  12.410
63820W        W35349   2.649  38.849  14.424
63821W        W35350  22.321   1.510  14.471
63822W        W35351  15.892  15.364  11.147
63823W        W35352  33.032  10.271   0.449
63824W        W35353   7.261  13.779   1.309
63825W        W35354  36.290  18.763  14.153
63826W        W35355  38.584  26.581  13.441
63827W        W35356  15.117  14.286  14.761
63828W        W35357  39.625  41.429  13.306
63829W        W35358   6.383   8.160   0.657
63830W        W35359   2.144  39.045   4.180
63831W        W35360  37.410  32.427  10.565
63832W        W35361  34.935  28.582  11.500
63833W        W35362  10.389   6.208   0.873
63834W        W35363  30.021  24.149   3.625
63835W        W35364   3.634  34.514   0.321
63836W        W35365  12.375   4.827  11.700
63837W        W35366  20.557   6.357   0.051
63838W        W35367   0.927  35.604   0.419
63839W        W35368  38.577  17.838  14.797
63840W        W35369  25.198   7.323  14.538
63841W        W35370  41.930  10.797   1.697
63842W        W35371  13.162  41.072   1.377
63843W        W35372  22.616  11.763   4.482
63844W        W35373   6.872   7.646  12.526
63845W        W35374  32.629  17.194   4.368
63846W        W35375  11.871  36.924   4.354
63847W        W35376  38.368   2.433  11.937
63848W        W35377  28.239  38.080  14.918
63849W        W35378  29.269  33.252  13.087
63850W        W35379  30.517  40.911   3.287
63851W        W35380   9.173  39.141  13.404
63852W        W35381  12.679  32.174   4.170
63853W        W35382  35.763  28.016  10.578
63854W        W35383  12.403  38.323  10.997
63855W        W35384  35.463   7.893   2.615
63856W        W35385  33.703  41.342  14.438
63857W        W35386  19.320  42.340   1.149
63858W        W35387  28.554  34.579   2.926
63859W        W35388  35.310  31.123  12.263
63860W        W35389  42.913  31.009  13.937
63861W        W35390  38.395  18.554   3.669
63862W        W35391  28.094  23.657   2.189
63863W        W35392   5.918  10.433   0.766
63864W        W35393   4.966  34.661   1.130
63865W        W35394  37.065   6.088   0.346
63866W        W35395  27.435  34.349   4.054
63867W        W35396   8.632  11.725  10.963
63868W        W35397  14.770  20.947   3.212
63869W        W35398  44.097  39.425   1.379
63870W        W35399  38.952  14.196  13.289
63871W        W35400   3.905  15.085  13.862
63872W        W35401  12.628  21.658   1.825
63873W        W35402  35.369  35.542  10.727
63874W        W35403  28.446  25.096  14.906
63875W        W35404  21.588  18.572  12.116
63876W        W35405   6.722  24.451   0.914
63877W        W35406  31.458  26.713  12.091
63878W        W35407  38.547  23.480  10.748
63879W        W35408  22.957   8.214   1.330
63880W        W35409  22.328   6.799  14.801
63881W        W35410  33.053  40.212   1.858
63882W        W35411  43.206  17.573  11.181
63883W        W35412  14.118  18.996   0.869
63884W        W35413  43.426   8.745  14.042
63885W        W35414  21.425  33.102   2.326
63886W        W35415  19.971   9.372  11.013
63887W        W35416  24.560   8.211  11.974
63888W        W35417   4.217  15.210   3.713
63889W        W35418  33.002  38.349   2.093
63890W        W35419  35.943  28.668   3.261
63891W        W35420  28.182  44.413   2.360
63892W        W35421  42.468   9.333   1.106
63893W        W35422  34.280  17.020   1.285
63894W        W35423  22.108  26.015  11.225
63895W        W35424  29.144   9.272   0.525
63896W        W35425   4.380  33.155  14.054
63897W        W35426  24.878   1.738  10.984
63898W        W35427  18.781  19.618   0.534
63899W        W35428  39.795  38.438   2.414
63900W        W35429  15.835  35.362  12.787
63901W        W35430   4.702  31.215   0.775
63902W        W35431  24.142  36.553   3.772
63903W        W35432  18.613  30.542  10.381
63904W        W35433  20.147  22.319   1.658
63905W        W35434  36.008  36.560   3.069
63906W        W35435  25.090  35.940  11.905
63907W        W35436  33.168   6.857   0.816
63908W        W35437  37.605  42.884   4.252
63909W        W35438  14.979   8.469  11.473
63910W        W35439  44.275  36.934   3.170
63911W        W35440   1.390   2.811   4.819
63912W        W35441  36.817  19.544   3.479
63913W        W35442  38.239  36.518   0.306
63914W        W35443  42.550  15.112  13.747
63915W        W35444   1.231   1.953  13.031
63916W        W35445   7.085   0.818   4.640
63917W        W35446  12.242  26.900   1.229
63918W        W35447  42.943  17.356  12.928
63919W        W35448  22.989  39.912   2.327
63920W        W35449  22.955  35.920   2.359
63921W        W35450  18.168  16.670   2.761
63922W        W35451   1.427  16.807   3.602
63923W        W35452   9.924  15.359   3.087
63924W        W35453  28.223   1.829   0.323
63925W        W35454  29.268  42.264   0.790
63926W        W35455  44.767  22.221   1.005
63927W        W35456  38.037  38.895   0.487
63928W        W35457  14.677  21.085   0.688
63929W        W35458  44.389  36.075  13.920
63930W        W35459  33.218  16.325   2.834
63931W        W35460  24.478  23.759   1.810
63932W        W35461   8.490  33.193  12.109
63933W        W35462  32.812  13.350  11.752
63934W        W35463  28.705   8.411   2.357
63935W        W35464  17.161  38.564  13.928
63936W        W35465  22.528   5.429  12.443
63937W        W35466   1.243  38.402   4.611
63938W        W35467  11.196  41.064  10.570
63939W        W35468  27.681  42.896  11.458
63940W        W35469  30.422  15.619   1.831
63941W        W35470  31.904  16.677  10.643
63942W        W35471  38.851  34.595   3.550
63943W        W35472  17.462  29.514  14.933
63944W        W35473  34.036  36.304  12.426
63945W        W35474  25.539  17.247  11.299
63946W        W35475  41.520  11.732   1.899
63947W        W35476  27.348  36.131  12.882
63948W        W35477  26.222  14.815  13.436
63949W        W35478   6.696   1.362   3.635
63950W        W35479  34.155  24.764  11.558
63951W        W35480  16.600  17.002   4.015
63952W        W35481  24.334  32.715  10.671
63953W        W35482  25.061  26.862  11.659
63954W        W35483  29.964   5.335   2.377
63955W        W35484   9.148  43.013   2.422
63956W        W35485  30.868  38.527   2.301
63957W        W35486  42.832  10.540   4.107
63958W        W35487   2.922  43.773   0.762
63959W        W35488  17.730  12.156  12.549
63960W        W35489  39.706  23.639   4.080
63961W        W35490   1.369  31.574  14.023
63962W        W35491  20.266  23.444  14.504
63963W        W35492   1.199  13.772   0.464
63964W        W35493  21.538  25.711  12.510
63965W        W35494  21.524  32.334   3.847
63966W        W35495  33.614  31.763  10.781
63967W        W35496   9.013   9.098  11.108
63968W        W35497   0.320   9.977  13.320
63969W        W35498  22.213   9.086  10.502
63970W        W35499  21.033  18.569   2.376
63971W        W35500  12.128  12.341   4.125
63972W        W35501  33.527  15.823  11.385
63973W        W35502  24.279  34.900   3.688
63974W        W35503  14.521  44.301  10.137
63975W        W35504   2.513  17.300  14.808
63976W        W35505  30.003  14.798   0.892
63977W        W35506  32.267  13.165   3.873
63978W        W35507   4.228  43.394   0.463
63979W        W35508  23.061  17.335   1.738
63980W        W35509  12.322  19.382  14.062
63981W        W35510  17.315  18.191  14.703
63982W        W35511  43.313  27.510   0.442
63983W        W35512  15.686  35.361   0.163
63984W        W35513  28.951  22.612  14.804
63985W        W35514  35.900  24.486   0.820
63986W        W35515   9.729   9.555  12.615
63987W        W35516  38.328  23.088  11.152
63988W        W35517  24.201  15.697   2.114
63989W        W35518  23.688  10.617   3.602
63990W        W35519  23.745   5.884  11.153
63991W        W35520  30.926  20.725   3.346
63992W        W35521   0.299  13.152   2.344
63993W        W35522  38.623   6.466  11.655
63994W        W35523  36.530  22.009   3.687
63995W        W35524  26.356  11.701   2.271
63996W        W35525  41.445  30.324  14.935
63997W        W35526  37.791  38.890  12.463
63998W        W35527  34.301  23.742   3.244
63999W        W35528  26.163  41.770  13.409
64000W        W35529   2.267   2.988   4.916
64001W        W35530   2.302  23.781  14.856
64002W        W35531  11.357  11.555   3.693
64003W        W35532  28.141  26.309   5.012
64004W        W35533   1.072  36.448  10.485
64005W        W35534  23.487   9.264   3.227
64006W        W35535  27.101   3.222   4.578
64007W        W35536  15.200  36.977  10.575
64008W        W35537  36.891   4.912   1.859
64009W        W35538   8.773  20.708   1.152
64010W        W35539   1.386  25.288  11.119
64011W        W35540  13.081  30.651   0.548
64012W        W35541  32.599  38.507   2.902
64013W        W35542  44.428  29.606   1.536
64014W        W35543   9.572  40.503  11.519
64015W        W35544  44.253  11.287  11.811
64016W        W35545  30.260   1.121   3.139
64017W        W35546  32.918  24.640  12.977
64018W        W35547   9.113  29.132   4.052
64019W        W35548  20.140  10.300  10.728
64020W        W35549  31.187  29.296  12.097
64021W        W35550  29.086  35.544   4.702
64022W        W35551  22.582  43.219  11.443
64023W        W35552  10.873  36.621   3.449
64024W        W35553   2.936  34.442   1.239
64025W        W35554  17.353  19.277  11.504
64026W        W35555   9.849  18.185  10.219
64027W        W35556  19.569   9.890   4.070
64028W        W35557  34.308   4.590  13.465
64029W        W35558  16.736   8.297  14.273
64030W        W35559   8.785  35.646   1.356
64031W        W35560   3.729  43.453  14.342
64032W        W35561  22.885  28.417   3.837
64033W        W35562  44.888  15.490  12.469
64034W        W35563  23.710  40.881  11.211
64035W        W35564  28.845  16.038  14.001
64036W        W35565   0.197  23.751   3.384
64037W        W35566   4.621   7.706  13.513
64038W        W35567  35.894   2.779   3.752
64039W        W35568  35.357  42.277   2.348
64040W        W35569  22.116  38.734   1.868
64041W        W35570  40.965   3.207   2.239
64042W        W35571  26.843  37.334   3.149
64043W        W35572  42.524  35.732   1.719
64044W        W35573  27.950   2.399  11.726
64045W        W35574  30.980  25.029  12.455
64046W        W35575   6.410  20.955   0.814
64047W        W35576  33.731   1.393   4.921
64048W        W35577  35.808  15.017   4.222
64049W        W35578  11.322   8.355   0.839
64050W        W35579  30.408  30.973  13.300
64051W        W35580  39.559  34.035   3.720
64052W        W35581  36.078  43.760  13.484
64053W        W35582  12.514   7.288   4.063
64054W        W35583  39.514  40.957  13.930
64055W        W35584  10.709  40.082   4.738
64056W        W35585  11.544   2.840  13.033
64057W        W35586  24.644  11.908   1.221
64058W        W35587  22.987  17.602  13.051
64059W        W35588   4.319  10.693  12.399
64060W        W35589  16.052   3.510  12.996
64061W        W35590  26.202  30.069  13.987
64062W        W35591  11.635   6.215  11.574
64063W        W35592  23.274  40.824   2.432
64064W        W35593  21.459   6.296   2.735
64065W        W35594  43.943  17.303  13.515
64066W        W35595  37.314  22.052  14.375
64067W        W35596  20.743  13.599   4.169
64068W        W35597  19.452  42.927  12.843
64069W        W35598   9.143  12.100   4.560
64070W        W35599   4.372   3.702  14.450
64071W        W35600  18.705  37.538   3.209
64072W        W35601  36.201   6.302  12.600
64073W        W35602  34.064  36.605   1.279
64074W        W35603  34.155  20.639  11.216
64075W        W35604  42.596  29.633  10.701
64076W        W35605  15.655  11.915  12.701
64077W        W35606  24.292  40.677   0.064
64078W        W35607   7.811  28.461   0.518
64079W        W35608  29.473  28.045  14.236
64080W        W35609  32.748  14.348   0.680
64081W        W35610   1.732  17.842  14.717
64082W        W35611  36.294  13.188   2.488
64083W        W35612  28.913  21.633   0.772
64084W        W35613   6.967  22.158   0.504
64085W        W35614  38.692  40.485  12.037
64086W        W35615  13.750  32.885   0.775
64087W        W35616  11.186  34.594  11.934
64088W        W35617   7.369   3.703  13.324
64089W        W35618  10.293  39.869   3.924
64090W        W35619  25.585  19.530  10.614
64091W        W35620  34.025  24.689  10.172
64092W        W35621  32.280  37.273  11.589
64093W        W35622  24.977  36.025   1.301
64094W        W35623  25.224   0.071   3.608
64095W        W35624   0.797  20.062  12.256
64096W        W35625  34.718  16.477  10.888
64097W        W35626  39.545  36.504   3.811
64098W        W35627  31.213  34.544  13.533
64099W        W35628  44.366  40.928  13.317
64100W        W35629  20.446  17.276   4.099
64101W        W35630  37.916  17.889   1.172
64102W        W35631   4.305  43.745  14.023
64103W        W35632  24.671  18.767  14.775
64104W        W35633  28.713   2.915   3.633
64105W        W35634  20.724   9.183   4.932
64106W        W35635  30.666   9.409  14.068
64107W        W35636  29.428  10.346  11.184
64108W        W35637  21.532   6.904  12.076
64109W        W35638  24.894  24.433  12.441
64110W        W35639  21.459   8.788   4.666
64111W        W35640  25.758  22.553  10.164
64112W        W35641   5.306  37.266  14.781
64113W        W35642  24.723  29.538  12.109
64114W        W35643   8.269  29.689  12.055
64115W        W35644  17.357   6.203   1.371
64116W        W35645  44.995  37.749   2.356
64117W        W35646  41.835  29.666   4.351
64118W        W35647  40.109  27.969  14.078
64119W        W35648  40.477  41.414  11.881
64120W        W35649   1.930  26.224   4.091
64121W        W35650  23.612  43.734   0.198
64122W        W35651  20.207  34.109   4.154
64123W        W35652  26.988  13.246   1.260
64124W        W35653  33.149  37.873   1.370
64125W        W35654  41.255  23.677  11.171
64126W        W35655  25.672  40.533   3.277
64127W        W35656  23.989  40.570   2.877
64128W        W35657  35.945   5.267   0.445
64129W        W35658  25.094  11.553  11.652
64130W        W35659   9.464  32.471  14.420
64131W        W35660  32.561  41.576  10.327
64132W        W35661  35.941  44.550   1.205
64133W        W35662  32.961  25.475   1.703
64134W        W35663   7.378  33.948  11.257
64135W        W35664   8.739  44.962   2.336
64136W        W35665  30.657  31.461   3.826
64137W        W35666  18.092   3.416   5.091
64138W        W35667  43.328  38.467   4.304
64139W        W35668  21.302   4.738  12.198
64140W        W35669   3.490  32.999   0.710
64141W        W35670   3.682   4.744   1.676
64142W        W35671  21.062  33.190  11.710
64143W        W35672  12.799   9.433   2.205
64144W        W35673  26.641   6.744  12.231
64145W        W35674   7.436   4.249  11.016
64146W        W35675   8.179  14.752   1.482
64147W        W35676  21.649  20.425   0.368
64148W        W35677  26.469  16.286  14.507
64149W        W35678   1.493  28.606   2.212
64150W        W35679  18.227  38.483   1.715
64151W        W35680   1.790  17.575   4.631
64152W        W35681  16.546  44.220  11.154
64153W        W35682  29.284  26.548  14.443
64154W        W35683  33.096  29.828   3.107
64155W        W35684  40.940   1.884   1.212
64156W        W35685  39.985  31.007  11.931
64157W        W35686   7.733  12.075   2.794
64158W        W35687  30.214   8.460   3.937
64159W        W35688   6.137  27.743  12.143
64160W        W35689  12.567   5.762  10.707
64161W        W35690  23.955  30.147   3.767
64162W        W35691   1.667  24.567   3.263
64163W        W35692  23.216  30.588  12.856
64164W        W35693  11.794  44.041  12.535
64165W        W35694  38.933  27.225   0.516
64166W        W35695  33.512   6.268   3.369
64167W        W35696  42.176   3.865   2.119
64168W        W35697  39.368  19.489   2.200
64169W        W35698   0.981  33.957  14.103
64170W        W35699  32.176   2.907  13.041
64171W        W35700  23.296   0.994   4.383
64172W        W35701   8.891  13.739  14.831
64173W        W35702   4.262  24.797   1.077
64174W        W35703  29.153  31.017   1.216
64175W        W35704   0.233  17.223  12.854
64176W        W35705  24.139   2.556   3.232
64177W        W35706  37.462   5.225   2.616
64178W        W35707  44.879  43.101   2.891
64179W        W35708   2.171  20.585  14.910
64180W        W35709  42.973   7.757  11.561
64181W        W35710  26.994  20.587  11.029
64182W        W35711  36.349   1.239  14.347
64183W        W35712  33.057  18.815   3.124
64184W        W35713  15.464   2.427   2.853
64185W        W35714  20.209  22.938  14.595
64186W        W35715  34.197  15.425  10.998
64187W        W35716  17.578  18.339   3.722
64188W        W35717  16.968  10.768   3.430
64189W        W35718  23.992  27.458  14.796
64190W        W35719  24.087  33.906  11.535
64191W        W35720  10.470  13.386  10.526
64192W        W35721  10.771  24.878   1.775
64193W        W35722  38.788  40.902  13.470
64194W        W35723  21.363   2.590  10.824
64195W        W35724  12.882  21.233   2.506
64196W        W35725  28.365  10.278   1.760
64197W        W35726  17.038  32.026  13.042
64198W        W35727  30.906  44.516  13.863
64199W        W35728  21.766  39.785   3.986
64200W        W35729   0.315  19.279   2.798
64201W        W35730  27.997   4.694   3.701
64202W        W35731   3.427  23.989  14.794
64203W        W35732  35.830  29.539   3.734
64204W        W35733  16.069  35.912  14.227
64205W        W35734   6.664  26.384  14.992
64206W        W35735  39.864   3.738  12.399
64207W        W35736  13.942  13.229   4.548
64208W        W35737   8.784  32.034  14.164
64209W        W35738  11.172  31.158  11.064
64210W        W35739  18.677  25.111   5.219
64211W        W35740  13.593  11.460   1.437
64212W        W35741   4.659  13.896  11.994
64213W        W35742   4.050  20.675   0.352
64214W        W35743  28.724  14.112  10.686
64215W        W35744  19.319   2.513   4.117
64216W        W35745  26.134   0.972  12.552
64217W        W35746  14.135  16.767  11.081
64218W        W35747  40.969  10.233   0.538
64219W        W35748  41.534  16.850  11.630
64220W        W35749  37.019  15.210   4.638
64221W        W35750   6.819  34.540  13.862
64222W        W35751  15.740  32.139  10.373
64223W        W35752  37.947  13.519   1.868
64224W        W35753  44.387  13.749   4.623
64225W        W35754  29.990  42.713   3.374
64226W        W35755  31.903  35.879  11.502
64227W        W35756  38.298  41.232   1.915
64228W        W35757  12.138  35.885  10.557
64229W        W35758  17.469  37.515  10.214
64230W        W35759  27.524  30.049  11.580
64231W        W35760   5.437  15.386  12.101
64232W        W35761  41.563  37.094   1.802
64233W        W35762  18.149  22.570   4.573
64234W        W35763  44.743  12.240  14.335
64235W        W35764  29.541  30.635  11.738
64236W        W35765  26.271  18.137   1.981
64237W        W35766  18.510   7.701  11.180
64238W        W35767  42.078  31.016   0.231
64239W        W35768  25.025  15.645   2.393
64240W        W35769  41.877  20.075  12.000
64241W        W35770  13.638   6.424   4.469
64242W        W35771  27.843  21.107   0.080
64243W        W35772   3.452  25.137   4.227
64244W        W35773  26.063  31.091  11.819
64245W        W35774  35.346  14.185  10.649
64246W        W35775   1.415  10.820  14.992
64247W        W35776  23.157  34.871  11.920
64248W        W35777  26.970  40.158   3.731
64249W        W35778  26.982  42.170   1.411
64250W        W35779  29.180  19.326   1.369
64251W        W35780   6.191  42.033  14.417
64252W        W35781  19.956  21.823  13.917
64253W        W35782  39.902   8.770  13.961
64254W        W35783  37.645  13.606   0.504
64255W        W35784  27.919  28.404   0.679
64256W        W35785  13.853  37.850  10.780
64257W        W35786   2.281   8.247   2.208
64258W        W35787  12.312  21.950  12.657
64259W        W35788   2.967  42.006   2.763
64260W        W35789  29.685  25.450   4.594
64261W        W35790  18.751  44.533  12.977
64262W        W35791   6.655  20.971   1.932
64263W        W35792  38.963  16.217  11.631
64264W        W35793  39.014   4.148  12.411
64265W        W35794   3.092  31.542   1.713
64266W        W35795  34.537   8.709  11.035
64267W        W35796   6.712   3.128  10.920
64268W        W35797  40.826  19.519   2.795
64269W        W35798  26.815   4.413   0.191
64270W        W35799  42.626  39.699  11.097
64271W        W35800  35.852  23.710  12.104
64272W        W35801   3.043  21.624  13.405
64273W        W35802  38.813  20.206   3.407
64274W        W35803  43.682  40.556   0.754
64275W        W35804  18.023   2.815   2.860
64276W        W35805  35.207   6.011  14.331
64277W        W35806   6.140  44.300   2.693
64278W        W35807  40.452  24.802  13.553
64279W        W35808  21.868  10.512   0.954
64280W        W35809   0.700  43.288  12.579
64281W        W35810   0.948  15.997   2.108
64282W        W35811  14.868  10.373  11.595
64283W        W35812  20.972  37.830  12.120
64284W        W35813  26.095  27.139  10.674
64285W        W35814  22.293  40.922   3.416
64286W        W35815  23.601  24.738  11.924
64287W        W35816  27.778  31.077   1.359
64288W        W35817  40.963  42.866  11.577
64289W        W35818  26.331  31.042   4.654
64290W        W35819  21.122   8.005   1.875
64291W        W35820  27.043  15.115  13.909
64292W        W35821  34.526  20.008   4.185
64293W        W35822   7.920  23.799   2.843
64294W        W35823  21.037  33.367  13.933
64295W        W35824  25.223  16.304  10.977
64296W        W35825  24.379  32.878   1.872
64297W        W35826  28.550  41.532  14.033
64298W        W35827  15.050  28.507   4.911
64299W        W35828  28.077  25.277   1.030
64300W        W35829  43.191  13.612  11.553
64301W        W35830  34.423   0.334  12.289
64302W        W35831  36.107  25.437   2.768
64303W        W35832  38.081   6.287   0.666
64304W        W35833  26.883   5.942  11.598
64305W        W35834  44.845  40.889   2.355
64306W        W35835  42.826  43.463   4.670
64307W        W35836  16.075  24.032  11.989
64308W        W35837  11.378  34.171  11.687
64309W        W35838  38.578  20.953   3.834
64310W        W35839  25.536  36.949   2.111
64311W        W35840  39.686  44.303  12.592
64312W        W35841  36.344  37.015   4.089
64313W        W35842  36.643  30.714   4.096
64314W        W35843  14.270   9.097   1.367
64315W        W35844  29.186  36.222   3.201
64316W        W35845  24.272  22.462   4.237
64317W        W35846  39.033  27.682   0.276
64318W        W35847  13.113  20.246  12.196
64319W        W35848   4.977  42.408  13.838
64320W        W35849  41.757  12.238  13.273
64321W        W35850  23.302  20.868  14.883
64322W        W35851  37.069  32.170   3.791
64323W        W35852  28.744   1.629  14.382
64324W        W35853  32.375  13.259   4.803
64325W        W35854  21.236  33.238  14.914
64326W        W35855  39.621  24.905  14.739
64327W        W35856   1.126  36.510  13.008
64328W        W35857  33.457  16.734   2.628
64329W        W35858   0.975  34.899   1.622
64330W        W35859   6.345   5.635  13.848
64331W        W35860   1.869  19.742  13.840
64332W        W35861   4.933   9.084   1.390
64333W        W35862  36.880  15.558   4.279
64334W        W35863  40.473  34.417   4.602
64335W        W35864  30.204  38.471  13.397
64336W        W35865  11.206   8.131  14.439
64337W        W35866   9.021  32.044   0.993
64338W        W35867  39.776   1.810   2.842
64339W        W35868  20.617  13.323  13.609
64340W        W35869  36.592  11.677   1.480
64341W        W35870   6.019  22.586   0.475
64342W        W35871  10.311  13.420  14.967
64343W        W35872  11.353  27.971   1.276
64344W        W35873  29.931  21.140   1.868
64345W        W35874  39.804  43.423  11.326
64346W        W35875   9.784   5.757   2.311
64347W        W35876  32.713  43.297  14.281
64348W        W35877   9.724   9.359   4.366
64349W        W35878  36.470  10.599   3.147
64350W        W35879  18.883   8.699  14.321
64351W        W35880  37.288  15.423  12.439
64352W        W35881  10.653  29.308   2.725
64353W        W35882  33.862  17.308  10.232
64354W        W35883  10.899  12.598   4.112
64355W        W35884  13.644  43.903  13.537
64356W        W35885   2.812  14.263  13.931
64357W        W35886  14.568   4.950  13.714
64358W        W35887  14.801  23.477   2.818
64359W        W35888  25.112   9.325  14.748
64360W        W35889  40.046  18.742   2.329
64361W        W35890  10.240  34.907  13.068
64362W        W35891  41.862  35.977   0.381
64363W        W35892  38.980   0.021  10.523
64364W        W35893   4.020  24.149   2.380
64365W        W35894  35.937  20.197   4.344
64366W        W35895  42.342  17.207  13.917
64367W        W35896  44.260  23.252  11.665
64368W        W35897   9.856   4.974   0.995
64369W        W35898  30.154   3.058  11.510
64370W        W35899   9.611  14.228  11.993
64371W        W35900  27.080   1.398  10.924
64372W        W35901  13.225  38.095  13.403
64373W        W35902  37.729  41.974   2.398
64374W        W35903  35.927  19.674  14.891
64375W        W35904  12.197   4.642   0.501
64376W        W35905  35.977  36.013   3.875
64377W        W35906  32.626  38.643  13.778
64378W        W35907  18.541  34.536   3.101
64379W        W35908   1.963  43.031  10.740
64380W        W35909  31.375  18.185   4.634
64381W        W35910   6.241  30.623   3.327
64382W        W35911  33.440  40.335  14.525
64383W        W35912  22.505  11.230   1.006
64384W        W35913  24.216  15.820   1.261
64385W        W35914   7.993   2.405   4.056
64386W        W35915  43.482  21.650   0.449
64387W        W35916  34.975   0.269   4.537
64388W        W35917  42.784  20.036  11.043
64389W        W35918  18.130  39.983  11.222
64390W        W35919  44.393  42.259   3.237
64391W        W35920  31.634  37.415  12.286
64392W        W35921   5.293  29.455  14.416
64393W        W35922  40.781  25.587   4.452
64394W        W35923  23.117  21.206   3.659
64395W        W35924  21.546   6.895  13.453
64396W        W35925  16.952   2.236   0.525
64397W        W35926   3.000  42.400  13.547
64398W        W35927   8.836  23.596   0.888
64399W        W35928  30.102   1.761  13.910
64400W        W35929  40.954  28.914   0.450
64401W        W35930  19.548  41.540  13.893
64402W        W35931   5.184   8.918   4.329
64403W        W35932  18.144   8.353  10.664
64404W        W35933   8.350  23.160   1.420
64405W        W35934  25.760  11.642  11.989
64406W        W35935  31.366  18.810   2.640
64407W        W35936   1.867   1.323   3.663
64408W        W35937   1.504  24.715   1.165
64409W        W35938   6.232   7.261  12.095
64410W        W35939  32.665  25.910   1.685
64411W        W35940  32.846  38.088   3.124
64412W        W35941  30.174  33.913  12.173
64413W        W35942  20.800  39.223   3.706
64414W        W35943   8.046  12.438   2.212
64415W        W35944  21.638  25.573   3.251
64416W        W35945  31.319  21.658   2.768
64417W        W35946  12.919  24.008  11.145
64418W        W35947   8.171   6.917   1.860
64419W        W35948   3.797  27.240   2.888
64420W        W35949  37.332  23.295   1.407
64421W        W35950  13.395  10.244  13.341
64422W        W35951  38.861  12.741   2.440
64423W        W35952  40.888  44.828  12.975
64424W        W35953  20.766   3.356   1.116
64425W        W35954  29.190  15.588  13.984
64426W        W35955  35.464  14.816   1.175
64427W        W35956  13.725   2.002  14.041
64428W        W35957   7.217  39.845  12.625
64429W        W35958  20.144  38.773   3.991
64430W        W35959  10.896   4.413  11.427
64431W        W35960  39.363  36.532  12.906
64432W        W35961   8.344  35.606   4.675
64433W        W35962  25.084  12.052  11.559
64434W        W35963  14.617   3.758   3.713
64435W        W35964  18.538  21.623   2.974
64436W        W35965  32.171  38.951  11.898
64437W        W35966  30.900  35.400   0.429
64438W        W35967  13.919  37.269   2.279
64439W        W35968  26.721   0.258   2.340
64440W        W35969   2.413  40.723  10.616
64441W        W35970  36.287  29.574   2.292
64442W        W35971  15.486  21.494   2.956
64443W        W35972  31.331   1.622  11.142
64444W        W35973  13.848   5.551   2.288
64445W        W35974  23.545  11.207   2.778
64446W        W35975  30.643  32.172   1.891
64447W        W35976   8.933  14.153  13.557
64448W        W35977  34.972  13.366   2.385
64449W        W35978   7.924   9.295   0.895
64450W        W35979  14.685  27.770   2.477
64451W        W35980  16.882  19.435  10.200
64452W        W35981  36.477  32.850  11.217
64453W        W35982  21.469  23.644  12.989
64454W        W35983  22.709  29.993   3.136
64455W        W35984  12.057  24.873   2.808
64456W        W35985   0.361  13.330   4.625
64457W        W35986  35.834  33.371  11.988
64458W        W35987  12.790  16.689   4.333
64459W        W35988   2.850  12.063  12.060
64460W        W35989  11.822  23.048   0.313
64461W        W35990   4.487  35.905   4.098
64462W        W35991  27.970  26.016   3.759
64463W        W35992  24.875  16.592   1.135
64464W        W35993  31.115   8.477   0.993
64465W        W35994  24.951  11.707  11.196
64466W        W35995  28.643   6.264   1.466
64467W        W35996  32.935  39.598   1.209
64468W        W35997   0.052  36.010   1.144
64469W        W35998  19.432  34.417   0.463
64470W        W35999  16.677  28.142   4.676
64471W        W36000   4.230  36.825   4.943
64472W        W36001  18.058  28.760   0.471
64473W        W36002  17.510  42.542   4.402
64474W        W36003  39.574  16.594  12.391
64475W        W36004  17.084   6.491  12.098
64476W        W36005  37.376  11.080  10.620
64477W        W36006  13.138   4.543  11.085
64478W        W36007   2.017  16.719   1.880
64479W        W36008   1.494   5.226   3.202
64480W        W36009  23.836  17.254   4.169
64481W        W36010  29.182   8.608   1.700
64482W        W36011  42.460  33.587   2.250
64483W        W36012  33.248  26.953   4.074
64484W        W36013  44.048  41.819   4.507
64485W        W36014  24.461  40.336   1.907
64486W        W36015  21.691  27.183  11.584
64487W        W36016  33.446  23.562   4.619
64488W        W36017  38.441  23.329  14.944
64489W        W36018  19.407  41.826  13.455
64490W        W36019   4.296  44.972   1.545
64491W        W36020  32.368  32.981   1.680
64492W        W36021  27.988   1.766  14.848
64493W        W36022  31.625  16.959   0.831
64494W        W36023  32.624  11.179  14.757
64495W        W36024  27.876  24.518   1.825
64496W        W36025  24.912  26.135   0.865
64497W        W36026  40.630  38.470   2.683
64498W        W36027  28.000   8.706   2.686
64499W        W36028  11.439   5.697  13.197
64500W        W36029  25.504  44.238   2.031
64501W        W36030  23.311  37.040  10.728
64502W        W36031   0.530  25.724  13.154
64503W        W36032  15.237  23.039  11.116
64504W        W36033  14.069   0.754  12.458
64505W        W36034  22.055  28.372   3.950
64506W        W36035   6.673  42.397   0.830
64507W        W36036  35.024   8.401   1.952
64508W        W36037  37.384   8.192   1.814
64509W        W36038  13.776  35.495  11.698
64510W        W36039  27.509   9.210  10.697
64511W        W36040   6.088  24.289   0.751
64512W        W36041  40.903   5.515  14.596
64513W        W36042  39.041   2.961   2.102
64514W        W36043   7.245  16.454  11.890
64515W        W36044   9.872  44.013  11.384
64516W        W36045  17.331  17.041  11.971
64517W        W36046  24.404  24.468  12.580
64518W        W36047  28.666  36.462  12.143
64519W        W36048  22.495  16.551  12.102
64520W        W36049  19.160  38.431   4.431
64521W        W36050   4.754  31.480   0.281
64522W        W36051  18.881  20.778  13.927
64523W        W36052  23.171  27.586   3.660
64524W        W36053  41.514  44.117   3.176
64525W        W36054  15.299  25.093   0.281
64526W        W36055   3.555  22.887   1.674
64527W        W36056   2.324   5.655   4.131
64528W        W36057  20.331  40.903  14.319
64529W        W36058   2.098  33.504  14.976
64530W        W36059  31.894  34.992   4.953
64531W        W36060  13.583  39.842  12.225
64532W        W36061  23.932  14.592  13.949
64533W        W36062   8.621  19.629  12.514
64534W        W36063  25.236  10.062  11.565
64535W        W36064   6.457  18.194   3.964
64536W        W36065   5.741  32.461   4.315
64537W        W36066  13.327  23.691  13.467
64538W        W36067  18.521  43.169   3.290
64539W        W36068   0.966  41.160   3.581
64540W        W36069  12.563   6.052   3.971
64541W        W36070  12.212  34.579   1.919
64542W        W36071  34.882  32.159   1.430
64543W        W36072  31.199   5.853  11.389
64544W        W36073  43.822   7.666   0.003
64545W        W36074  14.919  43.314  13.424
64546W        W36075  11.207   3.957  12.494
64547W        W36076  30.475  22.966  12.976
64548W        W36077  31.550  10.301  10.638
64549W        W36078  23.077  16.352   0.880
64550W        W36079  16.199  18.863  10.442
64551W        W36080  16.032  12.714   1.322
64552W        W36081   5.705   8.801   2.648
64553W        W36082  39.446   6.216   2.378
64554W        W36083  34.484  40.615   2.399
64555W        W36084  44.740  16.470   4.180
64556W        W36085  41.477  34.010   4.649
64557W        W36086  12.849  24.479   4.545
64558W        W36087  31.827  26.401  13.858
64559W        W36088  19.601  30.930  12.047
64560W        W36089   1.702  38.640  12.168
64561W        W36090  24.270   8.720  12.924
64562W        W36091  11.246  23.449  14.731
64563W        W36092  17.278  17.228   0.677
64564W        W36093  33.611  23.310   0.315
64565W        W36094   0.979  10.598   2.605
64566W        W36095  16.179  15.214   2.256
64567W        W36096  40.508  30.897  11.883
64568W        W36097  10.651   1.256  14.615
64569W        W36098  29.067   2.957  10.859
64570W        W36099  27.451  43.960   2.436
64571W        W36100  28.056  18.764   0.295
64572W        W36101   5.016  44.481  14.109
64573W        W36102   0.448   9.359   0.016
64574W        W36103  17.331   9.973   5.043
64575W        W36104  38.418   7.925   1.743
64576W        W36105  13.601   7.987   4.588
64577W        W36106  14.824  43.909  14.528
64578W        W36107   1.245  13.144   2.240
64579W        W36108  39.398  43.420   4.603
64580W        W36109   8.315  24.206  12.644
64581W        W36110  26.193   6.658   4.738
64582W        W36111  42.652   2.737  13.467
64583W        W36112  27.408  44.687   4.304
64584W        W36113  27.990  43.607   0.842
64585W        W36114   4.244  16.009   3.696
64586W        W36115  22.469  23.480   0.355
64587W        W36116  14.705  27.568   1.998
64588W        W36117   1.125  35.576   3.235
64589W        W36118   9.752  29.387  13.813
64590W        W36119  40.163  19.867   0.879
64591W        W36120  37.275  35.104   3.470
64592W        W36121  39.949  40.964   0.811
64593W        W36122  19.724  33.622  14.941
64594W        W36123  27.505  25.229  11.029
64595W        W36124  10.079  40.490  10.649
64596W        W36125  40.859  17.998  11.679
64597W        W36126  21.853  35.797  11.072
64598W        W36127  35.776  43.248   2.717
64599W        W36128  26.115  24.700   3.816
64600W        W36129   5.763   9.769   1.728
64601W        W36130  20.970  16.560   1.970
64602W        W36131  16.703  16.207  11.710
64603W        W36132  23.520  21.180   2.703
64604W        W36133  23.459  13.180   3.869
64605W        W36134  14.892  34.831   1.776
64606W        W36135  37.392  33.635   0.727
64607W        W36136  31.029  13.708   3.131
64608W        W36137  29.423  20.819  11.150
64609W        W36138  33.042  32.160   4.143
64610W        W36139  39.604  15.346   2.280
64611W        W36140  40.996   0.233  13.264
64612W        W36141   3.397  34.868   2.451
64613W        W36142  14.756   2.804   2.513
64614W        W36143   5.681   8.833   4.224
64615W        W36144  21.360   5.285   1.796
64616W        W36145  15.590  11.294  13.484
64617W        W36146  31.051  32.323  10.558
64618W        W36147  24.602  35.236  12.599
64619W        W36148   6.782  23.564  13.870
64620W        W36149   7.092  10.309   0.356
64621W        W36150  16.249  38.527  14.776
64622W        W36151  21.742  14.542  13.002
64623W        W36152  32.911  23.513  10.618
64624W        W36153  20.537  39.409  12.829
64625W        W36154  34.485  39.617  14.352
64626W        W36155  22.658  12.571  11.615
64627W        W36156  21.776  41.965   2.808
64628W        W36157  32.905  41.123  11.406
64629W        W36158  28.965   7.716   1.423
64630W        W36159  11.246  16.790  11.901
64631W        W36160  35.921  42.965  11.122
64632W        W36161  29.620  39.500  10.855
64633W        W36162  27.032  41.723  13.697
64634W        W36163   8.717   7.972  12.251
64635W        W36164  34.894  17.840   4.914
64636W        W36165   1.698   9.078   0.105
64637W        W36166   1.311  36.807   0.931
64638W        W36167  15.353  27.038  12.548
64639W        W36168   9.310  23.372  11.352
64640W        W36169  31.287  19.541   4.119
64641W        W36170  37.709  33.442  13.194
64642W        W36171  41.181  38.248   0.280
64643W        W36172  16.293  32.595   1.471
64644W        W36173  24.700  29.089  14.453
64645W        W36174  33.383  14.752  14.490
64646W        W36175  32.404   5.746   4.614
64647W        W36176  44.897  15.081  14.489
64648W        W36177   5.377  40.477   2.723
64649W        W36178  40.569  42.454  13.959
64650W        W36179  25.939   4.302  11.522
64651W        W36180  10.180  25.048  14.309
64652W        W36181  39.292   9.925  14.466
64653W        W36182   9.180  33.904  11.991
64654W        W36183  14.840  32.513  12.378
64655W        W36184   5.044   1.757  13.596
64656W        W36185   4.693  16.714   4.339
64657W        W36186  36.797  39.620   2.297
64658W        W36187  20.765  40.867  11.958
64659W        W36188  20.196   8.398   3.328
64660W        W36189  36.611  40.586  12.548
64661W        W36190  38.907  42.860   2.689
64662W        W36191  12.725  12.858  13.333
64663W        W36192  35.704  43.058  14.730
64664W        W36193   2.543  35.109   4.515
64665W        W36194   3.301  41.551  12.549
64666W        W36195  19.908  19.570   3.699
64667W        W36196  42.394  30.885  11.470
64668W        W36197   8.178  42.353  13.004
64669W        W36198  18.558  28.615   0.673
64670W        W36199  42.751  19.104  13.134
64671W        W36200  14.234  26.572  11.629
64672W        W36201  36.498  14.081   0.292
64673W        W36202  36.980  17.263   2.910
64674W        W36203  30.892   8.876   1.290
64675W        W36204  32.999  32.961   0.332
64676W        W36205  27.070   3.839  12.472
64677W        W36206  28.159   9.730  10.560
64678W        W36207  33.059  25.452   2.719
64679W        W36208   3.419   0.065  12.604
64680W        W36209  37.824  35.039   4.875
64681W        W36210  31.100  12.643  13.982
64682W        W36211  21.946  34.018  10.694
64683W        W36212   4.268  15.370  12.600
64684W        W36213  20.517  44.421   4.329
64685W        W36214  25.879  34.288  11.614
64686W        W36215  14.870  31.379  11.845
64687W        W36216  38.958  38.006   3.095
64688W        W36217  38.543  40.910  11.681
64689W        W36218  21.971  39.446  13.248
64690W        W36219  20.098  23.624   0.791
64691W        W36220  27.105  15.237  10.480
64692W        W36221   8.780  12.226  12.655
64693W        W36222  20.529  24.542  10.443
64694W        W36223   2.256   9.309   4.295
64695W        W36224  38.668  23.637   1.343
64696W        W36225  19.088  27.533   3.721
64697W        W36226   4.804  15.010  13.920
64698W        W36227  26.595  32.123   9.949
64699W        W36228  15.565  25.902  12.519
64700W        W36229  22.955  40.383  12.933
64701W        W36230  15.106  13.488   2.333
64702W        W36231  36.819   3.849   2.796
64703W        W36232  36.008  40.998   4.599
64704W        W36233  38.745  35.289   4.582
64705W        W36234   5.207  43.866   4.631
64706W        W36235  10.115  17.028   1.369
64707W        W36236  12.566   2.325   4.930
64708W        W36237   2.448  44.848   2.714
64709W        W36238  20.663  36.768  14.864
64710W        W36239  44.866  43.068  12.952
64711W        W36240   5.132  22.306  12.583
64712W        W36241   8.601   2.187   1.820
64713W        W36242  10.875  38.478  11.109
64714W        W36243  41.978   5.418   4.122
64715W        W36244   9.132  43.729  14.392
64716W        W36245  17.038  14.601  11.097
64717W        W36246  11.307  21.002  11.304
64718W        W36247  30.237   9.413   3.571
64719W        W36248  37.442  13.487   2.008
64720W        W36249  12.852  27.172  11.626
64721W        W36250  12.009  12.895  14.425
64722W        W36251  41.020  14.128   4.198
64723W        W36252  10.736   4.367   1.484
64724W        W36253  34.993   0.328   0.250
64725W        W36254  14.611  15.296  12.609
64726W        W36255  25.380  39.003   1.103
64727W        W36256   4.503  11.643   3.681
64728W        W36257  25.602  35.611   4.512
64729W        W36258  32.851  10.180   1.359
64730W        W36259   7.449   9.559   2.237
64731W        W36260  36.721   9.147  11.890
64732W        W36261  19.107  44.250  12.214
64733W        W36262  40.362  22.381   4.965
64734W        W36263  41.417  33.049  11.598
64735W        W36264  31.186   1.143   1.151
64736W        W36265  24.871  30.537   2.818
64737W        W36266  38.486  23.169  12.679
64738W        W36267   1.712  34.147   1.823
64739W        W36268  43.483   0.409   3.186
64740W        W36269  10.575  37.101  14.272
64741W        W36270  29.938  26.350   2.262
64742W        W36271  37.036  13.722  13.733
64743W        W36272  12.139   2.560   0.931
64744W        W36273  35.978  10.752   4.975
64745W        W36274  15.132  25.360  11.446
64746W        W36275  15.804  22.789  14.875
64747W        W36276  39.578  34.880   3.734
64748W        W36277  31.910  30.362   0.857
64749W        W36278  37.018   0.567   4.147
64750W        W36279  42.326  20.331  12.097
64751W        W36280   3.794  24.592   1.276
64752W        W36281  12.691  17.065  14.003
64753W        W36282  11.761  18.225  12.573
64754W        W36283  42.112  20.586  11.065
64755W        W36284  12.701  32.467  12.315
64756W        W36285  33.101  18.467   5.040
64757W        W36286   1.375  36.881   2.265
64758W        W36287  13.871  15.967  14.597
64759W        W36288   1.413  26.260   3.612
64760W        W36289  22.267  31.978  12.738
64761W        W36290  14.756  12.547  13.963
64762W        W36291  43.299  18.112  14.807
64763W        W36292   8.877  43.224   1.974
64764W        W36293  11.054  11.374  13.044
64765W        W36294  39.194  31.822  11.597
64766W        W36295  29.661  15.318   1.369
64767W        W36296  38.887  22.629  11.742
64768W        W36297  16.428   8.897  14.549
64769W        W36298  11.818   7.398  12.215
64770W        W36299   5.476  32.873  12.053
64771W        W36300  40.309  30.407  11.124
64772W        W36301  24.269  11.924   0.838
64773W        W36302   8.713  10.180  12.026
64774W        W36303  16.273   8.388  14.502
64775W        W36304   0.628   1.387  10.829
64776W        W36305  42.244  15.125   2.629
64777W        W36306   3.318   7.393   1.201
64778W        W36307  42.393  23.086   1.306
64779W        W36308   1.327  33.391   2.403
64780W        W36309  12.961  28.127  10.686
64781W        W36310  10.929   5.039  12.554
64782W        W36311   8.618  34.886   1.856
64783W        W36312  31.513  37.278   2.162
64784W        W36313   0.844   9.076  14.807
64785W        W36314  38.370  38.560  14.406
64786W        W36315  34.860  14.677  14.275
64787W        W36316  17.649  40.579   0.382
64788W        W36317  12.783   2.947   2.301
64789W        W36318  27.259  12.222  11.582
64790W        W36319  14.300  40.969  13.907
64791W        W36320   9.951  36.499  13.968
64792W        W36321   6.336  42.194  14.888
64793W        W36322  41.485  28.003  14.376
64794W        W36323  16.399  16.646   0.799
64795W        W36324  41.112  42.209   1.350
64796W        W36325  40.775  25.600  13.588
64797W        W36326   2.434  41.941  12.987
64798W        W36327  13.896   7.757   0.317
64799W        W36328  32.883  26.437  11.688
64800W        W36329  31.595  20.801   0.595
64801W        W36330  10.839  22.970   2.380
64802W        W36331   8.864   6.937   4.941
64803W        W36332  38.846  26.666  12.882
64804W        W36333  29.928  36.386   2.805
64805W        W36334   5.949  16.206  10.757
64806W        W36335  16.770  35.185  14.301
64807W        W36336   8.412  34.446  13.949
64808W        W36337  33.173  32.699   0.772
64809W        W36338  21.721  16.747  11.604
64810W        W36339  42.284  33.923  10.720
64811W        W36340  29.096  36.428   0.499
64812W        W36341  23.141  38.852   3.540
64813W        W36342  18.509  24.622   1.011
64814W        W36343  15.871  20.580  13.913
64815W        W36344  25.553  19.992  10.868
64816W        W36345  36.745  38.062   0.608
64817W        W36346  23.125  29.883   4.109
64818W        W36347  31.873   9.989   4.327
64819W        W36348  30.230  42.386  14.272
64820W        W36349  18.559   0.814   0.049
64821W        W36350  11.946  29.697  13.230
64822W        W36351  32.348  39.998   0.699
64823W        W36352  35.803   8.819  11.259
64824W        W36353  25.697  44.991   1.807
64825W        W36354  39.756  38.938  12.992
64826W        W36355  26.752  25.746  13.903
64827W        W36356  38.541  40.966  14.851
64828W        W36357   6.627  37.056  13.643
64829W        W36358   1.217  37.655   2.901
64830W        W36359  15.234  14.686   3.639
64831W        W36360  27.479  36.121   2.915
64832W        W36361  15.909  23.874  10.815
64833W        W36362  24.238  10.358  14.773
64834W        W36363  19.298  24.602   2.138
64835W        W36364  10.249  19.723   2.942
64836W        W36365  14.052  11.418   0.134
64837W        W36366  27.862  40.525  13.535
64838W        W36367  32.485   3.873   1.468
64839W        W36368  41.470  38.624  13.950
64840W        W36369   8.701  33.667  10.141
64841W        W36370  35.588  40.452   0.501
64842W        W36371  20.565  14.725   2.688
64843W        W36372  16.989  28.203   1.213
64844W        W36373  37.482   8.600   2.582
64845W        W36374   1.972  34.507  11.748
64846W        W36375  23.705  28.699  12.630
64847W        W36376   5.369  40.981  10.562
64848W        W36377  31.045   5.862  10.484
64849W        W36378  33.016  41.075   3.226
64850W        W36379  15.614  15.124   2.567
64851W        W36380  27.108  14.328  14.468
64852W        W36381   2.389  36.816   0.611
64853W        W36382  17.516  34.016   3.621
64854W        W36383  40.377  39.057   3.507
64855W        W36384  43.182   6.210   1.376
64856W        W36385  33.477   0.073   4.611
64857W        W36386  25.204  21.474  11.562
64858W        W36387  35.528   9.455   1.243
64859W        W36388  16.283  24.044   3.274
64860W        W36389  30.563  44.246  14.518
64861W        W36390  20.782  18.982  13.106
64862W        W36391  18.632  24.484  12.141
64863W        W36392  16.004  15.838   2.806
64864W        W36393  23.332  24.423  10.610
64865W        W36394  28.199  16.643  11.997
64866W        W36395  40.067  23.258  13.912
64867W        W36396  16.715  19.016  13.973
64868W        W36397   5.243  23.737   4.612
64869W        W36398   1.206  14.698   0.689
64870W        W36399  37.150  35.303  12.343
64871W        W36400   4.709  35.883   2.388
64872W        W36401  44.414  33.890   3.328
64873W        W36402   6.314  38.073  14.683
64874W        W36403   5.867   1.863  14.638
64875W        W36404  20.102  20.533  10.623
64876W        W36405  12.296   0.194   4.143
64877W        W36406  29.582  40.741   4.251
64878W        W36407  22.167   7.200   2.326
64879W        W36408  36.113  13.748   4.474
64880W        W36409  30.752  20.593  13.822
64881W        W36410  40.881  23.739   4.675
64882W        W36411  25.551   0.680   2.664
64883W        W36412   2.490  43.383   3.891
64884W        W36413  27.396  40.607  14.440
64885W        W36414  17.168   1.455  14.501
64886W        W36415  22.946   0.727   1.219
64887W        W36416  27.416  36.481  13.442
64888W        W36417   7.648  13.868   2.217
64889W        W36418  32.110  23.674  14.307
64890W        W36419  28.456  28.041  11.527
64891W        W36420  12.099  41.459   0.013
64892W        W36421  36.355  35.492  11.934
64893W        W36422   9.887  32.628   0.873
64894W        W36423  21.024  19.958  14.185
64895W        W36424  39.498   2.598  13.753
64896W        W36425   9.763   6.457  13.937
64897W        W36426  28.167  36.382   4.182
64898W        W36427   5.130  35.643  13.901
64899W        W36428  36.089  24.613   2.291
64900W        W36429  34.378  15.924   0.644
64901W        W36430  28.966  39.327  11.886
64902W        W36431  21.217   1.832  12.572
64903W        W36432   4.002  20.855  11.017
64904W        W36433  39.046  34.784   1.375
64905W        W36434  13.201  24.151  11.575
64906W        W36435  18.547   6.850  13.902
64907W        W36436  33.394  34.564  11.658
64908W        W36437   7.289  21.826  12.596
64909W        W36438  28.360  23.167  13.896
64910W        W36439  18.979   6.576  11.931
64911W        W36440  25.605  23.004   2.450
64912W        W36441  43.391  40.128  13.005
64913W        W36442  19.147  18.263   3.229
64914W        W36443  30.612  18.790   1.710
64915W        W36444   1.940   8.874  11.742
64916W        W36445  28.917  20.715   3.363
64917W        W36446  37.531  11.324  11.492
64918W        W36447  24.724  16.792  11.689
64919W        W36448  44.990  36.968  13.457
64920W        W36449  27.449  34.176  11.059
64921W        W36450  35.211  43.850   2.871
64922W        W36451  23.118  42.478   1.766
64923W        W36452  12.267  38.922   0.637
64924W        W36453   9.426  12.696  11.599
64925W        W36454   8.430  31.329  12.846
64926W        W36455   7.221  17.066  14.631
64927W        W36456  27.270  13.240  12.985
64928W        W36457   1.489   4.536  11.547
64929W        W36458  37.443  17.489   1.800
64930W        W36459   4.167  31.713   3.234
64931W        W36460  11.222  22.223   1.393
64932W        W36461  43.208   5.363   4.184
64933W        W36462  39.901  25.561   2.348
64934W        W36463  37.317   6.443   1.908
64935W        W36464  26.210  44.930   1.831
64936W        W36465  37.837  37.430  10.609
64937W        W36466   7.816  22.621   0.834
64938W        W36467  34.022  33.910  10.574
64939W        W36468   0.071  24.337   0.812
64940W        W36469  33.416  18.907   1.337
64941W        W36470  42.680  23.497   4.971
64942W        W36471  22.214   0.885   1.819
64943W        W36472  15.864  43.041   0.487
64944W        W36473  26.951  16.292  11.080
64945W        W36474  13.323  17.006  13.576
64946W        W36475  43.027   0.461  14.753
64947W        W36476   2.853  11.451   2.908
64948W        W36477  25.953   1.978   0.628
64949W        W36478  42.027  20.203   2.656
64950W        W36479   0.934  27.154  14.514
64951W        W36480  10.532   0.415   1.994
64952W        W36481   4.331   4.185  11.807
64953W        W36482   9.354  35.300   0.734
64954W        W36483  31.321  44.922   1.681
64955W        W36484  40.772   5.412   0.598
64956W        W36485  24.918  19.370  12.497
64957W        W36486  21.535  23.720  11.921
64958W        W36487  22.455   6.563  11.234
64959W        W36488   8.365  13.401   3.618
64960W        W36489  30.633   9.205  10.479
64961W        W36490  32.430   4.446   2.360
64962W        W36491  33.849  20.627   0.008
64963W        W36492   7.394  10.819  11.677
64964W        W36493  18.642  29.359   2.623
64965W        W36494  35.868   5.582  10.648
64966W        W36495   0.446   4.892  12.505
64967W        W36496  12.853  26.646  12.061
64968W        W36497  14.634  14.622   4.777
64969W        W36498  10.873  10.342   0.073
64970W        W36499  40.862  13.720  12.834
64971W        W36500  27.479  38.836  14.931
64972W        W36501  31.490  44.957   3.070
64973W        W36502  17.067  42.803  14.976
64974W        W36503  35.606  15.293   2.740
64975W        W36504  23.988  30.011   1.761
64976W        W36505  28.200  26.027  14.927
64977W        W36506   1.134  30.198   4.190
64978W        W36507  23.391   0.226  13.020
64979W        W36508   3.412  24.712  12.554
64980W        W36509  10.895  36.801  13.058
64981W        W36510  37.390  14.274  12.201
64982W        W36511  29.044  34.031  13.416
64983W        W36512   3.890  44.391  10.269
64984W        W36513   5.317  36.796  13.284
64985W        W36514  34.035  30.422   3.276
64986W        W36515  32.840  26.763   2.463
64987W        W36516  14.211  43.751  14.781
64988W        W36517  32.573  31.934  12.083
64989W        W36518   7.871   2.754   1.884
64990W        W36519   9.166  18.578  11.948
64991W        W36520   7.139  17.643   0.834
64992W        W36521  30.534  15.813  10.629
64993W        W36522  24.757  43.372  11.283
64994W        W36523  31.640  24.477  10.676
64995W        W36524  30.431  33.445   2.777
64996W        W36525  40.442   9.193   4.654
64997W        W36526  31.165  30.036  12.611
64998W        W36527  42.413   2.417   3.214
64999W        W36528  40.132  12.278  13.908
65000W        W36529  14.790  33.499  11.480
65001W        W36530  27.989  13.610   3.798
65002W        W36531  29.933  26.723  12.923
65003W        W36532   5.691   9.667   0.343
65004W        W36533  25.931  39.798   4.453
65005W        W36534  12.755   6.726  13.597
65006W        W36535   6.369  30.696  10.755
65007W        W36536  33.522  19.407   1.425
65008W        W36537   2.534  13.103   3.862
65009W        W36538  32.495   9.314  14.357
65010W        W36539  43.841  26.495  14.685
65011W        W36540  28.634  35.792   4.556
65012W        W36541  17.655   2.150  12.483
65013W        W36542  27.659  39.588   0.842
65014W        W36543  27.054  42.229  13.600
65015W        W36544  29.458  30.923  14.932
65016W        W36545  33.055  34.622   2.873
65017W        W36546  20.818  43.825   1.981
65018W        W36547  26.596  10.329  11.501
65019W        W36548  34.996  40.220   1.828
65020W        W36549  39.444  24.005   0.262
65021W        W36550  21.784   4.146   2.600
65022W        W36551  43.993  16.409  13.547
65023W        W36552  10.481   2.136   2.189
65024W        W36553   4.572  26.633   1.943
65025W        W36554  44.980  37.125   4.507
65026W        W36555  27.009  43.019  14.026
65027W        W36556  39.850  26.003  13.440
65028W        W36557  38.386   7.402   1.473
65029W        W36558   5.652  26.966  11.927
65030W        W36559  27.824   4.282  12.042
65031W        W36560   6.426  23.261   2.114
65032W        W36561  23.402  22.597  12.925
65033W        W36562  26.964   7.569  11.072
65034W        W36563  38.310  41.814  12.033
65035W        W36564  44.175  31.112   1.521
65036W        W36565  15.203   4.461   2.823
65037W        W36566  25.158  27.950   5.280
65038W        W36567  12.181  35.696  11.559
65039W        W36568  11.622  35.794   0.270
65040W        W36569  20.048  37.068   1.350
65041W        W36570  28.433  38.596  12.584
65042W        W36571   6.200  21.997  11.542
65043W        W36572  34.376  32.454   1.924
65044W        W36573  23.242  17.173   2.211
65045W        W36574  12.734  13.272   1.845
65046W        W36575  21.166  39.942   3.213
65047W        W36576   3.616  33.680   5.142
65048W        W36577  44.197  13.685   3.414
65049W        W36578  32.625  16.015   5.058
65050W        W36579   9.325  43.301  11.396
65051W        W36580  41.194  11.006  11.218
65052W        W36581   2.131  18.766   2.230
65053W        W36582   5.161  26.257  14.286
65054W        W36583  10.788  20.168   4.059
65055W        W36584   2.101  18.485  10.791
65056W        W36585  40.248  42.990  14.647
65057W        W36586  17.697   1.158  12.609
65058W        W36587  17.131  18.722  13.996
65059W        W36588  31.652  24.739   4.086
65060W        W36589   8.576  36.907   3.381
65061W        W36590  37.610  37.865   3.759
65062W        W36591  22.803  29.028   2.708
65063W        W36592   4.934  11.584  12.494
65064W        W36593  27.121  36.554  13.869
65065W        W36594   8.779  34.631  14.724
65066W        W36595  33.488  18.576  10.361
65067W        W36596  14.148  40.369  14.853
65068W        W36597  17.326  40.828   3.289
65069W        W36598  37.349  26.625   4.617
65070W        W36599  41.728  38.536   3.678
65071W        W36600  11.047  38.517   3.304
65072W        W36601  22.486  12.232   2.659
65073W        W36602  41.297  12.275   3.736
65074W        W36603  41.080  22.706   0.332
65075W        W36604  12.809  24.618   2.631
65076W        W36605  15.864  18.490  12.232
65077W        W36606  26.057  34.624   1.911
65078W        W36607   2.486  35.104   3.591
65079W        W36608  24.209  15.431  14.914
65080W        W36609  22.601  32.558  14.702
65081W        W36610  28.956   7.611   4.894
65082W        W36611  35.354  10.279   1.559
65083W        W36612  38.414  32.892   4.559
65084W        W36613  29.038  24.623  13.925
65085W        W36614   6.480   4.155  13.906
65086W        W36615  19.170  33.808   4.214
65087W        W36616  19.977  20.623   1.497
65088W        W36617  28.573   1.408   2.627
65089W        W36618   8.127  10.805   3.170
65090W        W36619  39.031   9.932   2.130
65091W        W36620  24.540  29.935   0.020
65092W        W36621  41.571  15.122  13.938
65093W        W36622  24.185  42.902  11.747
65094W        W36623   4.707  34.638  13.259
65095W        W36624  16.270  41.193  13.039
65096W        W36625  10.609  15.822   1.792
65097W        W36626   4.119  36.007   0.648
65098W        W36627   5.716  23.957   0.380
65099W        W36628   2.777  24.559  13.813
65100W        W36629  21.150  40.105  10.984
65101W        W36630   8.309  13.841  11.012
65102W        W36631  41.108  12.308  14.227
65103W        W36632  40.556  25.641   1.240
65104W        W36633   8.842  37.855   1.299
65105W        W36634  19.565  18.213   1.210
65106W        W36635  31.854  44.928   0.824
65107W        W36636  11.280  13.342   0.311
65108W        W36637  27.642  30.452   1.250
65109W        W36638   7.707  40.347   4.493
65110W        W36639  31.119  18.476  13.037
65111W        W36640  35.165  36.458  11.999
65112W        W36641  27.877  41.470   0.711
65113W        W36642  12.906  39.963  11.471
65114W        W36643  33.070  23.930   2.805
65115W        W36644  14.011  11.308  10.727
65116W        W36645   3.295   1.525   3.840
65117W        W36646  33.343  24.316   4.077
65118W        W36647  17.274  19.011   1.422
65119W        W36648  12.659   1.951   0.338
65120W        W36649  40.279  40.192  14.891
65121W        W36650  21.529   7.149   1.653
65122W        W36651  24.005  26.955  13.920
65123W        W36652  27.140   3.848   0.837
65124W        W36653  26.665   9.205   4.200
65125W        W36654   2.376   3.189   3.045
65126W        W36655  17.974   8.669  14.469
65127W        W36656   1.608  40.911  13.478
65128W        W36657  12.089  44.723   4.112
65129W        W36658  17.669  13.740  11.385
65130W        W36659  15.038  14.597  12.171
65131W        W36660  29.439  24.787  11.002
65132W        W36661  36.098   0.646  14.407
65133W        W36662   1.714  43.510  14.513
65134W        W36663  30.696   0.559   2.415
65135W        W36664  21.593  11.826  11.504
65136W        W36665  41.431   7.861  12.832
65137W        W36666  17.221   2.667   3.217
65138W        W36667  18.962  32.208   2.089
65139W        W36668  17.152  28.259   2.115
65140W        W36669  18.046   7.812  14.603
65141W        W36670  29.899  24.149  12.396
65142W        W36671  42.021  26.014  12.096
65143W        W36672  24.774  28.622   2.826
65144W        W36673  40.997  16.095  12.477
65145W        W36674  34.665  32.089  13.499
65146W        W36675  19.537   9.571   3.131
65147W        W36676  16.772  18.150   3.231
65148W        W36677  13.588   0.163   0.326
65149W        W36678  10.348  37.404  11.693
65150W        W36679  14.378  13.289  13.361
65151W        W36680  37.568  40.290   2.130
65152W        W36681  12.430  11.383  13.043
65153W        W36682  16.693  25.219   1.660
65154W        W36683  24.611  24.153   0.330
65155W        W36684   3.680  17.318  14.474
65156W        W36685  44.526  41.414  13.489
65157W        W36686  31.024  16.083   1.339
65158W        W36687  36.637  32.390  11.045
65159W        W36688  38.917  21.080  11.862
65160W        W36689   2.261  41.227  13.341
65161W        W36690  12.046  38.466   3.166
65162W        W36691  39.079   4.024   2.276
65163W        W36692   9.153  29.198  14.300
65164W        W36693  41.430  42.944   4.355
65165W        W36694  30.198   9.877  14.902
65166W        W36695  26.613   4.017   0.981
65167W        W36696   0.284  22.445   0.887
65168W        W36697  10.049   0.704   0.822
65169W        W36698  15.204  34.004   0.806
65170W        W36699  40.918  13.599  13.946
65171W        W36700  34.677  29.094  14.202
65172W        W36701  28.550  21.554  11.248
65173W        W36702   2.436  26.107   2.355
65174W        W36703   4.959   2.951  14.354
65175W        W36704  30.841  41.580  14.275
65176W        W36705  21.387  31.584   0.353
65177W        W36706  44.189  41.398  13.918
65178W        W36707   2.777   1.220  12.624
65179W        W36708  17.320  29.666  12.447
65180W        W36709   6.954  12.700  14.767
65181W        W36710   5.817  30.825  12.939
65182W        W36711   7.315  43.949  13.116
65183W        W36712   2.726  33.610  13.904
65184W        W36713  38.959   9.817  13.799
65185W        W36714   8.096  14.779  14.653
65186W        W36715  42.268  22.805  11.499
65187W        W36716  26.058   0.756   1.344
65188W        W36717  11.396  26.882  10.109
65189W        W36718  34.589  25.136  10.926
65190W        W36719  20.468  42.380   1.859
65191W        W36720  27.612   8.366  13.736
65192W        W36721  30.085   8.831   2.863
65193W        W36722  10.190  29.642  13.781
65194W        W36723   0.796   7.586   1.907
65195W        W36724   6.624   9.157   1.815
65196W        W36725  25.379  40.848   1.832
65197W        W36726  13.725   1.020   3.739
65198W        W36727  35.616   5.179  12.444
65199W        W36728   5.133   0.778  12.041
65200W        W36729  12.856  22.660  10.626
65201W        W36730  40.325  29.365  12.939
65202W        W36731  20.698  37.138   3.157
65203W        W36732  42.309   7.902   3.264
65204W        W36733  27.894  41.454   4.224
65205W        W36734  35.484  43.735   3.840
65206W        W36735  30.109   6.096  14.802
65207W        W36736  16.255   8.105  14.958
65208W        W36737   7.858  37.855  11.383
65209W        W36738  39.072  23.122  11.640
65210W        W36739  27.996  35.492  13.948
65211W        W36740  21.954  21.638   4.940
65212W        W36741  25.826   2.686   3.634
65213W        W36742   8.581  34.752   1.218
65214W        W36743  36.350  39.439  11.594
65215W        W36744  12.886  25.616  14.401
65216W        W36745  43.334  10.614  13.829
65217W        W36746  36.328   5.466   0.101
65218W        W36747  14.578   2.296   3.945
65219W        W36748  18.605  40.281   1.835
65220W        W36749   0.534  37.601  11.169
65221W        W36750  25.612   5.475   4.441
65222W        W36751  31.929   9.123  11.701
65223W        W36752  12.756   2.737  14.239
65224W        W36753  19.536   6.943   3.383
65225W        W36754  14.716   4.458  11.442
65226W        W36755   4.438  28.708   0.921
65227W        W36756  18.720  10.861   4.379
65228W        W36757  42.119   0.510  11.465
65229W        W36758  34.005  15.024   4.516
65230W        W36759  15.839   9.060  13.201
65231W        W36760  17.903  15.133   3.841
65232W        W36761  35.621  10.573   1.191
65233W        W36762  24.832   3.037   4.897
65234W        W36763  23.707  43.771   2.113
65235W        W36764  27.399  16.520   3.640
65236W        W36765   7.685  40.759   1.170
65237W        W36766  10.160   8.185  14.029
65238W        W36767   2.455  13.532   0.423
65239W        W36768  38.525  40.065  11.173
65240W        W36769  39.969  37.442  13.078
65241W        W36770  34.890  35.154  12.558
65242W        W36771  39.727  10.193   3.073
65243W        W36772  15.854  33.465   0.413
65244W        W36773  12.644  35.890   3.833
65245W        W36774  16.846  31.428  12.338
65246W        W36775  10.717  37.922  13.797
65247W        W36776   9.752   4.199  10.732
65248W        W36777  39.133  12.728   4.873
65249W        W36778  15.293  38.023   2.219
65250W        W36779  19.823  18.062  14.457
65251W        W36780  33.474  28.842   1.283
65252W        W36781   4.663  17.068  11.652
65253W        W36782  24.927   0.310   4.149
65254W        W36783   0.886  15.866   4.784
65255W        W36784   0.226  20.509  11.600
65256W        W36785  21.878  43.011   2.290
65257W        W36786  12.377   4.727   1.268
65258W        W36787  23.082  20.441   4.764
65259W        W36788   1.736  26.489  12.052
65260W        W36789  36.286  36.800  12.048
65261W        W36790  21.273  26.630   2.372
65262W        W36791  42.809  16.676   2.986
65263W        W36792  19.595  16.861   0.496
65264W        W36793   7.218   1.003   4.147
65265W        W36794   9.639  39.851   4.563
65266W        W36795  10.312  21.573   4.674
65267W        W36796  31.530  21.952   3.222
65268W        W36797  18.089  18.341   1.232
65269W        W36798  11.736  17.676   5.077
65270W        W36799   5.788  28.614  11.041
65271W        W36800  14.147  23.558  13.919
65272W        W36801  20.049  12.189  14.563
65273W        W36802  15.663  21.984   1.168
65274W        W36803  21.631   3.249   2.699
65275W        W36804   3.367   3.291  13.125
65276W        W36805  23.352  24.441   4.132
65277W        W36806  40.438  20.792   1.305
65278W        W36807  23.910  13.182   1.435
65279W        W36808   6.454  42.151  13.039
65280W        W36809   3.680  26.536  14.803
65281W        W36810  10.403  29.964  14.205
65282W        W36811   6.113  43.234  11.989
65283W        W36812   6.873   8.106  14.303
65284W        W36813  37.818  16.537  11.212
65285W        W36814  43.993  35.601  11.518
65286W        W36815  43.434   8.374   0.493
65287W        W36816  19.620  32.660  14.778
65288W        W36817   8.239  17.209   0.956
65289W        W36818   9.359  32.864   0.799
65290W        W36819  12.121  29.181   0.879
65291W        W36820  14.506  10.430   4.886
65292W        W36821  38.948  17.523   2.811
65293W        W36822  32.136  23.208  11.019
65294W        W36823  24.578  35.108   2.778
65295W        W36824  21.299  37.425   0.402
65296W        W36825  35.911  21.162  13.858
65297W        W36826   0.191  30.944  12.071
65298W        W36827  38.436  21.707   1.754
65299W        W36828   7.442  39.794  11.631
65300W        W36829  41.929  32.979  13.054
65301W        W36830  17.998   4.218   2.890
65302W        W36831  40.988  41.545   4.062
65303W        W36832  22.608  43.084  13.766
65304W        W36833  31.903   0.795   3.787
65305W        W36834  12.347   8.778   1.474
65306W        W36835  43.776  16.698   2.994
65307W        W36836  19.036  21.688  14.812
65308W        W36837  35.532  27.265   4.134
65309W        W36838  27.209  29.337   3.135
65310W        W36839  15.140  28.823  10.793
65311W        W36840   3.352  31.247  11.586
65312W        W36841  17.449  34.948  14.974
65313W        W36842  17.044  27.586   4.426
65314W        W36843  41.497  34.905  13.941
65315W        W36844  42.356   3.436   4.005
65316W        W36845  43.266  30.158  13.018
65317W        W36846  10.817   9.357  11.606
65318W        W36847  13.784  38.811   2.430
65319W        W36848  42.727  36.043   1.323
65320W        W36849  16.763  35.477  13.864
65321W        W36850  27.332   2.273  12.804
65322W        W36851  40.225  28.593   2.504
65323W        W36852  40.920  36.534   1.013
65324W        W36853  17.763   4.817   3.821
65325W        W36854  20.006  34.799   1.779
65326W        W36855  24.415  42.644  12.113
65327W        W36856  44.110   3.425   2.549
65328W        W36857  22.196  36.648   2.649
65329W        W36858  19.570  16.537   3.447
65330W        W36859   9.301  11.741  14.472
65331W        W36860   3.929  14.566  14.934
65332W        W36861  21.015  29.621  13.828
65333W        W36862  44.901  15.638  11.962
65334W        W36863  30.196   4.268  13.341
65335W        W36864   1.947  22.056  11.580
65336W        W36865  18.797  32.998  14.770
65337W        W36866  23.224   2.562   2.182
65338W        W36867  38.121   1.089   3.703
65339W        W36868   9.188   1.097   4.074
65340W        W36869  24.154  37.489  11.718
65341W        W36870  32.931  39.517  14.194
65342W        W36871   1.997   4.719  11.006
65343W        W36872  24.253   5.534  14.515
65344W        W36873  12.173  15.579  12.539
65345W        W36874  27.581  34.733   2.667
65346W        W36875  34.988  13.441  14.961
65347W        W36876  32.892  23.735   1.332
65348W        W36877  27.552  20.189  12.550
65349W        W36878  38.994   2.021  11.678
65350W        W36879  18.808  31.224   9.929
65351W        W36880  42.767  35.412   0.891
65352W        W36881   7.431   2.720  12.350
65353W        W36882  11.593  28.110   3.069
65354W        W36883   2.346  21.540   0.466
65355W        W36884  37.065  32.172   4.687
65356W        W36885   3.311  20.178  11.186
65357W        W36886  38.299  23.102  14.354
65358W        W36887  40.782  41.736   3.240
65359W        W36888  10.385   4.944  13.245
65360W        W36889  43.866  14.425   1.345
65361W        W36890  35.208   4.939   2.795
65362W        W36891  16.131  39.325   3.307
65363W        W36892  44.659   0.900  14.386
65364W        W36893  44.732  32.871  12.093
65365W        W36894  14.730  14.794  12.844
65366W        W36895  16.610  23.683  12.857
65367W        W36896   4.808  39.493   0.338
65368W        W36897  39.047  19.105   2.282
65369W        W36898  33.411   6.851   2.211
65370W        W36899   5.520   7.252   1.346
65371W        W36900  42.969   1.782   0.082
65372W        W36901   9.620  34.691   4.339
65373W        W36902  41.919  27.759  11.650
65374W        W36903   3.301  12.594  10.452
65375W        W36904  24.483  30.531   4.495
65376W        W36905   3.417  33.055   1.220
65377W        W36906  16.183  14.224  10.567
65378W        W36907  43.798  15.517  13.224
65379W        W36908  24.639  16.252   2.127
65380W        W36909   5.226  29.966   2.376
65381W        W36910  34.688   4.710  14.782
65382W        W36911  44.544  10.471  13.358
65383W        W36912   5.651  17.544   1.847
65384W        W36913  17.213  31.902  10.466
65385W        W36914  43.853  38.573   3.676
65386W        W36915  43.608  27.987   3.703
65387W        W36916  40.062  42.745  12.161
65388W        W36917  39.141   3.606  13.942
65389W        W36918   3.182  19.318  11.123
65390W        W36919  36.483  42.328  13.479
65391W        W36920  38.034  17.376  12.843
65392W        W36921  43.788  16.199   1.227
65393W        W36922  10.833  12.070   1.287
65394W        W36923   9.126  21.282   0.907
65395W        W36924   0.462  41.107   0.425
65396W        W36925   5.488  23.054   0.693
65397W        W36926  41.950  26.614   3.739
65398W        W36927  11.091  35.062  13.042
65399W        W36928  16.369  34.707   3.004
65400W        W36929   0.915   2.804   1.288
65401W        W36930  15.084  15.035   1.176
65402W        W36931  17.238  32.507   3.116
65403W        W36932   8.661  23.389   2.334
65404W        W36933  13.099  17.415   1.749
65405W        W36934  23.036  29.291   4.125
65406W        W36935   4.948  44.219  14.559
65407W        W36936  14.900  31.638  13.815
65408W        W36937  18.908  31.917  10.674
65409W        W36938  24.781   5.784  12.306
65410W        W36939  41.766  24.139  12.022
65411W        W36940  39.977  27.461  11.396
65412W        W36941   5.798  33.848   2.138
65413W        W36942  17.039  15.027   1.944
65414W        W36943  12.966   1.735  14.805
65415W        W36944  32.266  28.279   3.834
65416W        W36945  21.122  13.712   3.488
65417W        W36946  36.901  15.910   2.338
65418W        W36947  29.559  25.942   2.720
65419W        W36948   5.187   3.085   4.196
65420W        W36949  29.377  10.128  11.663
65421W        W36950  27.458  20.187   3.186
65422W        W36951  28.842  13.513   0.765
65423W        W36952  36.252  22.484   2.799
65424W        W36953  36.007  21.493   2.601
65425W        W36954   2.712   8.536  10.770
65426W        W36955  11.295   2.550  11.979
65427W        W36956  40.386  28.372  12.757
65428W        W36957  23.247  11.803  12.139
65429W        W36958   7.059  21.666   1.326
65430W        W36959   4.658  28.464  13.282
65431W        W36960   6.740  15.990   1.116
65432W        W36961  26.588  39.034  12.116
65433W        W36962   9.659  35.333  11.887
65434W        W36963   5.900   5.628   0.897
65435W        W36964  41.741  21.930  10.857
65436W        W36965  35.784  16.307  10.657
65437W        W36966  41.043  12.935   4.401
65438W        W36967  36.991  39.375  14.501
65439W        W36968  32.716   4.441  10.710
65440W        W36969   2.401  42.844   2.659
65441W        W36970   5.239   3.601   1.297
65442W        W36971  29.300  35.548  10.293
65443W        W36972  19.537  14.789   2.729
65444W        W36973  15.949  18.983   5.635
65445W        W36974  27.582   8.004   2.657
65446W        W36975   2.262  41.312   4.550
65447W        W36976  33.779  10.196   0.920
65448W        W36977  41.761  20.146  13.476
65449W        W36978  22.536   3.255   2.147
65450W        W36979  29.601  36.795   1.880
65451W        W36980   7.435   0.194  10.734
65452W        W36981  26.169  25.506   3.879
65453W        W36982  32.131   8.809  11.149
65454W        W36983  32.686   7.154   0.823
65455W        W36984  18.316  27.135  14.209
65456W        W36985   7.383  36.340   1.932
65457W        W36986  15.300  38.839   4.191
65458W        W36987  16.179  44.119  14.845
65459W        W36988  36.978  41.109  13.899
65460W        W36989  18.262   4.287   0.229
65461W        W36990  37.993  25.651  13.473
65462W        W36991   6.371  18.015  12.006
65463W        W36992  14.135   5.056   3.299
65464W        W36993  35.630   1.445   3.678
65465W        W36994  34.374  16.684   4.245
65466W        W36995  28.581  17.282   1.023
65467W        W36996  25.408  16.866   4.496
65468W        W36997  23.232  36.572   0.902
65469W        W36998  13.359  23.522  11.631
65470W        W36999   4.864  21.446  14.388
65471W        W37000  16.620  13.649  11.555
65472W        W37001  11.837  37.984   2.401
65473W        W37002  15.373  34.025   4.325
65474W        W37003   4.454  28.266  11.177
65475W        W37004  27.911  36.843   0.530
65476W        W37005  18.766  44.354  13.883
65477W        W37006  30.018  44.921  10.785
65478W        W37007  33.087   4.852   0.027
65479W        W37008  40.090  36.153  13.295
65480W        W37009  37.068   9.641  13.514
65481W        W37010  31.283   3.902   3.365
65482W        W37011  15.054  20.525  10.850
65483W        W37012  11.443  27.755  14.963
65484W        W37013  33.702  24.622   4.283
65485W        W37014   9.818   8.393  14.476
65486W        W37015   3.123  43.627   5.140
65487W        W37016  35.760  18.147  12.837
65488W        W37017  38.331  27.925  14.982
65489W        W37018  42.582  32.111  13.383
65490W        W37019  29.585  22.647   4.359
65491W        W37020  41.759  15.185  14.836
65492W        W37021  25.284  16.305   0.102
65493W        W37022  25.285  37.092  12.471
65494W        W37023  25.961   7.075   2.710
65495W        W37024  29.197  17.038   2.097
65496W        W37025  23.556  17.142  12.568
65497W        W37026  39.021  31.649   2.445
65498W        W37027  19.771   1.877   4.591
65499W        W37028  41.362  43.481   0.330
65500W        W37029  43.287  18.996   0.894
65501W        W37030   4.725  14.935  14.432
65502W        W37031  31.456  44.667  11.724
65503W        W37032  32.148  15.786   5.100
65504W        W37033  12.937  31.332  12.979
65505W        W37034  25.200  29.685  12.233
65506W        W37035  26.748  19.015  13.042
65507W        W37036  12.064  15.752  12.041
65508W        W37037  25.960  24.753   0.367
65509W        W37038   2.423   0.332   0.740
65510W        W37039  44.367  38.496   0.171
65511W        W37040  19.168  40.184  11.614
65512W        W37041  19.545  39.315  12.541
65513W        W37042  18.772   7.334  13.883
65514W        W37043  16.052  37.854   3.469
65515W        W37044   9.894   5.804  11.209
65516W        W37045  44.396   5.292  13.484
65517W        W37046  20.703  29.074  14.861
65518W        W37047   5.795  34.728  13.550
65519W        W37048  37.845  26.753  12.852
65520W        W37049  27.542  18.194   0.664
65521W        W37050  38.906  21.586  14.005
65522W        W37051  43.482  20.263   3.219
65523W        W37052  21.672  11.404   4.364
65524W        W37053  21.788   8.295   2.999
65525W        W37054  34.594  19.763   1.829
65526W        W37055  40.327  24.923   4.175
65527W        W37056   0.690  19.685  14.595
65528W        W37057  30.704  32.170  11.106
65529W        W37058   9.582  35.919   1.256
65530W        W37059  13.876   9.990   3.164
65531W        W37060  27.323  24.729   0.739
65532W        W37061   5.198   5.216  14.578
65533W        W37062  35.790  22.709   2.448
65534W        W37063  10.405  16.198   0.867
65535W        W37064  42.726  13.632   0.927
65536W        W37065  38.407  37.567  13.777
65537W        W37066  39.378  28.179  12.684
65538W        W37067   6.338  34.239  11.248
65539W        W37068  43.421  40.497  14.390
65540W        W37069  23.279  36.599  12.482
65541W        W37070  14.642   2.399   3.434
65542W        W37071  27.112  39.138   4.545
65543W        W37072   6.280   8.255   4.578
65544W        W37073  43.876  38.742   0.216
65545W        W37074   3.843   0.986   3.156
65546W        W37075   5.765   4.728   1.765
65547W        W37076  21.112  12.765  10.891
65548W        W37077  22.003  27.171  14.924
65549W        W37078  15.817   1.000  11.809
65550W        W37079   4.181  42.977   3.349
65551W        W37080  38.520   0.956  11.939
65552W        W37081   9.277  20.821   4.688
65553W        W37082  27.379  14.633  12.356
65554W        W37083  35.806   3.713  13.911
65555W        W37084  16.694  20.419  14.274
65556W        W37085  43.966  21.525   3.315
65557W        W37086   2.269   7.349   3.310
65558W        W37087  28.474  11.857  11.105
65559W        W37088   4.724   5.458  14.520
65560W        W37089   6.833  17.042   2.274
65561W        W37090  42.676   7.458  11.225
65562W        W37091  32.344  26.483  13.924
65563W        W37092   1.450  41.037   0.838
65564W        W37093  30.945  12.236  14.736
65565W        W37094  21.173  22.734   2.796
65566W        W37095  16.299  43.288  12.393
65567W        W37096   4.584  16.706   0.941
65568W        W37097   0.845   3.470  12.478
65569W        W37098  43.345  17.597  14.939
65570W        W37099  34.328   2.833  13.088
65571W        W37100  22.563  19.210  12.262
65572W        W37101  20.571  18.134   1.323
65573W        W37102  23.767  41.998   0.591
65574W        W37103  15.075  39.948  12.023
65575W        W37104  39.684  31.953  11.646
65576W        W37105  36.692  33.444   2.960
65577W        W37106  39.544   2.159   4.084
65578W        W37107  25.528  13.945  10.644
65579W        W37108  40.505   2.977  10.708
65580W        W37109   8.242  41.834   1.394
65581W        W37110  31.039   6.696   0.263
65582W        W37111  16.305   9.165  12.961
65583W        W37112  40.647  35.097   4.531
65584W        W37113  24.427  24.623   0.487
65585W        W37114   8.829   8.901   0.389
65586W        W37115  24.923  13.130  11.976
65587W        W37116  13.287  27.682   4.552
65588W        W37117  38.432  32.046   0.978
65589W        W37118  24.154  12.304   0.059
65590W        W37119  22.995  23.307   1.222
65591W        W37120  12.724  42.562   2.890
65592W        W37121  21.287  18.774   4.361
65593W        W37122  37.148  34.906  14.986
65594W        W37123   1.879  20.119  12.434
65595W        W37124   9.398  15.785  13.810
65596W        W37125  16.706  21.943  11.232
65597W        W37126  14.722  14.152   4.540
65598W        W37127  25.622  22.327  14.384
65599W        W37128   1.616   8.837   2.447
65600W        W37129  22.445  43.859  14.570
65601W        W37130   6.816  32.896   0.515
65602W        W37131  34.969   1.478  14.341
65603W        W37132   3.089  37.042  10.727
65604W        W37133  30.145  27.025   2.322
65605W        W37134   5.879  16.331   4.979
65606W        W37135   0.485   4.499   1.243
65607W        W37136  39.149  41.753  13.209
65608W        W37137  18.026  20.362   4.659
65609W        W37138  10.648   1.417   1.888
65610W        W37139  20.604   2.974   3.604
65611W        W37140  25.159  31.118   1.418
65612W        W37141  17.197  21.867  11.430
65613W        W37142   5.746  42.511  12.371
65614W        W37143  34.729   5.640   1.403
65615W        W37144  15.852  19.055  11.546
65616W        W37145   3.927  22.462   3.768
65617W        W37146   2.295  41.032   2.667
65618W        W37147  42.126   6.368   2.025
65619W        W37148  36.664  10.414   0.272
65620W        W37149  34.345  34.508  10.716
65621W        W37150  41.313  30.544  13.515
65622W        W37151   0.923  22.556   1.254
65623W        W37152   5.560  14.060  10.778
65624W        W37153  40.905  23.614  10.818
65625W        W37154  28.336  42.081  10.761
65626W        W37155  23.369  40.624   3.697
65627W        W37156   3.959  24.110   1.203
65628W        W37157   2.857   7.596  13.925
65629W        W37158  36.464   4.780  12.119
65630W        W37159  38.430   8.633  12.857
65631W        W37160  40.351   3.031   3.268
65632W        W37161  33.419  33.478  13.591
65633W        W37162  17.712  21.745  13.003
65634W        W37163  29.176   8.061   3.229
65635W        W37164  33.066  38.336  13.809
65636W        W37165  33.934  15.628   2.788
65637W        W37166  17.058  23.239  11.871
65638W        W37167  10.126  16.625   4.909
65639W        W37168   9.711   2.841   2.064
65640W        W37169   7.196  25.764   1.456
65641W        W37170  29.544  37.126  13.882
65642W        W37171  10.722  43.902   2.738
65643W        W37172   1.991  34.945  14.918
65644W        W37173  33.277  12.312  13.947
65645W        W37174  40.987  34.852   1.473
65646W        W37175   2.025  18.074  13.810
65647W        W37176  30.640  11.643   1.797
65648W        W37177  11.388  11.136  14.442
65649W        W37178   5.346   9.921   4.913
65650W        W37179  13.886  34.383  10.859
65651W        W37180  24.337  28.522   0.332
65652W        W37181  20.113  31.354  10.791
65653W        W37182   0.440  15.809   4.052
65654W        W37183  39.525   2.193   2.182
65655W        W37184  35.937  23.098  13.120
65656W        W37185  35.437  27.448   0.542
65657W        W37186  33.550  11.801   1.199
65658W        W37187   9.939  35.418  10.590
65659W        W37188  36.380  27.160  13.924
65660W        W37189  33.029  28.201   2.268
65661W        W37190  12.750  30.634   1.388
65662W        W37191  18.245  39.471  12.892
65663W        W37192   3.787  42.861   4.090
65664W        W37193  35.889  31.616  14.972
65665W        W37194   6.821  30.348  11.514
65666W        W37195  28.652  12.150   3.701
65667W        W37196  16.481   0.392  11.184
65668W        W37197  32.452  25.044   1.378
65669W        W37198  17.834  27.484   3.171
65670W        W37199  26.407   5.141   0.646
65671W        W37200  17.084  28.367   5.014
65672W        W37201  16.497   3.277  13.143
65673W        W37202   0.857  34.435   2.888
65674W        W37203  14.583  25.464   0.100
65675W        W37204   7.830   3.471   0.681
65676W        W37205  13.074   3.363   3.986
65677W        W37206   0.738  39.193  13.670
65678W        W37207  16.879  17.164   0.352
65679W        W37208  31.675  39.595   4.139
65680W        W37209  11.315  35.816   3.060
65681W        W37210  40.996  22.316  11.269
65682W        W37211  10.968  26.185   0.893
65683W        W37212  14.353  12.347   3.461
65684W        W37213  32.082  10.846  12.368
65685W        W37214  27.711  35.401  14.404
65686W        W37215   6.162  18.020   2.587
65687W        W37216  37.978  41.001  13.942
65688W        W37217  41.448  24.942  14.515
65689W        W37218   5.174  13.943  11.620
65690W        W37219  37.536  24.500  14.048
65691W        W37220  15.635  12.942   3.717
65692W        W37221  37.405  17.292   2.261
65693W        W37222  19.719   6.098   3.611
65694W        W37223  20.980  42.430  13.522
65695W        W37224  33.147  22.245  14.539
65696W        W37225  41.019  20.109  11.541
65697W        W37226  12.060  15.987   1.839
65698W        W37227  20.779  32.944   2.938
65699W        W37228   1.738   2.248   2.705
65700W        W37229  10.568  41.889  14.320
65701W        W37230  21.793  16.128   2.623
65702W        W37231  21.416   5.191   0.907
65703W        W37232  33.320  29.368   2.937
65704W        W37233   2.283   1.765   2.726
65705W        W37234  29.119   4.379   2.270
65706W        W37235  26.122  23.974   4.891
65707W        W37236  15.798  43.680   4.032
65708W        W37237   4.050  42.418   3.450
65709W        W37238  32.594  37.811  12.154
65710W        W37239  33.447  27.981  13.084
65711W        W37240  18.185  14.266  11.364
65712W        W37241   7.714   2.368  12.673
65713W        W37242  11.635  38.975  14.897
65714W        W37243  37.859  43.821   2.785
65715W        W37244  21.154  42.750  12.117
65716W        W37245  36.416  17.687  11.617
65717W        W37246   0.031  34.942  14.457
65718W        W37247  30.785  43.292  14.447
65719W        W37248  33.689   5.935  11.033
65720W        W37249  27.714   5.389  13.529
65721W        W37250   0.491  17.188   3.333
65722W        W37251  27.931  27.978  14.392
65723W        W37252   6.920   4.972  12.003
65724W        W37253  13.783   7.628   3.903
65725W        W37254   6.455  10.374   1.204
65726W        W37255  30.026  40.925   0.443
65727W        W37256  40.852  10.404  11.373
65728W        W37257  37.389  21.820   1.330
65729W        W37258  38.988  35.604  11.237
65730W        W37259   1.406  23.205  11.203
65731W        W37260  29.071  10.441  12.019
65732W        W37261  20.492   5.168  13.434
65733W        W37262  31.372  40.429  12.619
65734W        W37263   4.796  13.370   1.686
65735W        W37264   1.921   9.406  11.709
65736W        W37265  35.521  23.258   4.296
65737W        W37266   0.509   1.788  10.515
65738W        W37267  39.519  15.917  14.280
65739W        W37268  27.762   9.041   1.857
65740W        W37269  43.740  10.644   1.998
65741W        W37270  26.740   8.309   0.990
65742W        W37271  28.085  21.294   3.343
65743W        W37272   3.415   1.218   2.368
65744W        W37273  20.651  12.556  11.093
65745W        W37274   4.151  36.760   4.023
65746W        W37275  18.507  34.904  14.224
65747W        W37276  32.678  28.286  11.565
65748W        W37277  12.335   5.698   1.435
65749W        W37278  27.135  44.499   4.701
65750W        W37279  18.175  23.016  13.968
65751W        W37280  43.006   6.631  14.462
65752W        W37281  35.971  19.398  14.402
65753W        W37282  28.883   4.950  13.419
65754W        W37283  38.402   6.274   2.662
65755W        W37284  26.195  18.869  12.508
65756W        W37285   6.296  33.154  12.448
65757W        W37286  41.446  17.688   4.256
65758W        W37287   3.038  41.686  12.133
65759W        W37288  42.002  17.235  10.759
65760W        W37289  14.163  42.489   2.261
65761W        W37290  42.154   1.730   2.923
65762W        W37291  44.809  41.859   0.714
65763W        W37292  37.854   5.730  13.611
65764W        W37293   0.427  13.115  11.480
65765W        W37294  16.849  41.654  11.698
65766W        W37295   9.096  16.618   0.930
65767W        W37296   0.809  33.928   0.020
65768W        W37297   8.213   1.978  14.837
65769W        W37298  32.532  34.537   1.442
65770W        W37299  30.476  34.188   3.160
65771W        W37300   0.775  32.089  10.592
65772W        W37301  35.688  15.768   0.270
65773W        W37302  16.085  31.367   2.568
65774W        W37303   6.659   1.256   2.761
65775W        W37304  37.820  22.568   0.956
65776W        W37305   0.481  37.568   0.423
65777W        W37306  37.038  38.051  11.518
65778W        W37307  32.824   1.510  12.834
65779W        W37308  42.003   7.157  14.044
65780W        W37309  43.251   5.407   2.788
65781W        W37310  22.957   1.178  12.975
65782W        W37311  19.488  35.050  11.080
65783W        W37312  25.968   9.654  12.972
65784W        W37313  44.481  27.028  12.140
65785W        W37314  16.452  12.467   5.425
65786W        W37315  29.677  30.986  14.409
65787W        W37316  23.622   1.641  12.069
65788W        W37317  29.574   4.253  13.866
65789W        W37318  41.858  19.329  13.593
65790W        W37319  22.355  10.677   1.881
65791W        W37320  40.549   2.709   1.630
65792W        W37321  15.167  33.595  11.129
65793W        W37322  42.279  44.128  10.549
65794W        W37323   7.158   7.511   4.816
65795W        W37324  22.268   6.217  14.209
65796W        W37325  38.364   9.405  13.277
65797W        W37326  22.342  36.513  14.275
65798W        W37327  12.692  39.068  10.941
65799W        W37328   2.085  22.685   0.641
65800W        W37329  34.303   2.468   2.864
65801W        W37330  40.642  27.983  12.984
65802W        W37331   6.847  13.119  11.187
65803W        W37332   8.758  39.119  14.065
65804W        W37333  35.949  20.253  13.080
65805W        W37334  18.554  21.204  13.255
65806W        W37335   1.486  27.143   0.966
65807W        W37336  30.560  18.271   1.766
65808W        W37337  35.359  41.524   0.458
65809W        W37338  17.748  40.860  12.824
65810W        W37339  18.092  27.575   3.615
65811W        W37340  41.067  38.199   1.204
65812W        W37341  13.716  13.408   4.117
65813W        W37342  38.415   3.350   4.297
65814W        W37343  19.798  15.856   0.331
65815W        W37344  43.330  28.425   3.704
65816W        W37345  44.533   4.967  12.034
65817W        W37346  12.614   8.577   1.900
65818W        W37347  12.161  16.841   2.784
65819W        W37348  15.360  14.548   4.164
65820W        W37349  12.534  32.712   1.375
65821W        W37350  33.380  39.990  13.131
65822W        W37351   4.786  35.142  10.990
65823W        W37352   0.928  40.776   1.279
65824W        W37353  38.843  10.685   2.651
65825W        W37354  25.463  23.460  12.502
65826W        W37355   1.221  19.701   2.391
65827W        W37356  41.201  35.870   4.209
65828W        W37357  21.035  40.008  14.776
65829W        W37358   3.417  44.075  12.465
65830W        W37359  34.554  19.168   4.565
65831W        W37360   3.428  38.366  12.467
65832W        W37361   1.793  15.795   1.879
65833W        W37362  22.080  32.336   2.711
65834W        W37363   7.610  15.398  12.256
65835W        W37364  37.307   6.828   0.699
65836W        W37365  39.417  13.118  12.904
65837W        W37366  26.514  38.328   0.767
65838W        W37367  25.274   5.952  12.896
65839W        W37368  29.487  44.498   3.156
65840W        W37369  11.617  10.294  13.368
65841W        W37370   4.098  31.461  10.958
65842W        W37371  25.633  24.758  11.113
65843W        W37372  11.859  29.085   2.891
65844W        W37373  18.835  44.329   1.492
65845W        W37374  36.550  31.542  12.343
65846W        W37375  21.274  10.667   3.239
65847W        W37376  34.609  36.282   1.713
65848W        W37377  27.410  24.926   3.705
65849W        W37378  25.671  41.587  13.459
65850W        W37379  17.963  10.062   2.806
65851W        W37380   6.622  13.166  11.658
65852W        W37381  24.609  26.572  11.140
65853W        W37382  30.364  36.909   2.904
65854W        W37383  41.479   3.386   0.983
65855W        W37384  37.939  44.559  13.975
65856W        W37385  15.277  41.867   2.545
65857W        W37386  35.407  18.626   0.887
65858W        W37387  19.340  27.049  12.985
65859W        W37388  36.984  28.153   0.158
65860W        W37389   7.453  38.214   3.299
65861W        W37390  15.423  35.501  11.560
65862W        W37391   6.655  21.274  12.704
65863W        W37392  13.734  30.051   3.292
65864W        W37393  24.165  43.825  14.723
65865W        W37394   2.953  22.666  14.098
65866W        W37395  20.049  27.593   1.296
65867W        W37396  12.243  20.031   0.349
65868W        W37397  22.620  36.849   4.210
65869W        W37398   6.458   5.789  12.990
65870W        W37399  28.151  10.338   0.310
65871W        W37400  23.008  18.011   2.761
65872W        W37401  29.482  31.938   2.711
65873W        W37402  31.507   7.842   2.373
65874W        W37403  33.625  44.299   4.158
65875W        W37404  39.007  23.977   2.114
65876W        W37405   2.984  44.849  13.133
65877W        W37406   6.858  19.997  14.836
65878W        W37407   9.907  41.826  13.024
65879W        W37408  38.742  10.249   3.158
65880W        W37409   0.213  16.223   0.350
65881W        W37410  38.120  13.103  11.159
65882W        W37411  35.620  11.664   1.008
65883W        W37412   7.460  31.038  12.003
65884W        W37413  36.146  16.762   1.263
65885W        W37414  12.711  40.340   1.404
65886W        W37415  15.185  21.332   3.706
65887W        W37416  29.246   3.767  13.901
65888W        W37417  37.964   3.369   4.542
65889W        W37418  42.842  35.531  14.916
65890W        W37419  21.573  26.144   0.392
65891W        W37420  26.898  23.674  11.740
65892W        W37421   2.918  32.903   5.320
65893W        W37422  43.935   6.560   2.288
65894W        W37423  35.765  12.074  13.093
65895W        W37424   8.774   9.194  14.910
65896W        W37425   6.257  15.272   3.246
65897W        W37426  27.658   1.401   3.788
65898W        W37427  31.815  42.210  14.564
65899W        W37428  10.646  28.099   3.196
65900W        W37429  18.254  28.110  11.534
65901W        W37430  19.398  25.103   0.920
65902W        W37431   0.056  34.765  12.916
65903W        W37432  35.853  32.384  14.379
65904W        W37433  14.814   5.308   1.311
65905W        W37434  44.467  25.565  13.905
65906W        W37435  44.546   1.939  10.486
65907W        W37436   7.043  32.725  14.766
65908W        W37437  30.456   9.164   1.479
65909W        W37438  11.666  44.362   3.205
65910W        W37439  42.500  37.914  12.484
65911W        W37440  11.143  10.857   3.315
65912W        W37441  16.133  20.924   1.779
65913W        W37442   5.674  11.729  12.876
65914W        W37443  43.873  18.960  13.912
65915W        W37444   8.384  17.532   3.313
65916W        W37445  42.972  38.723   0.464
65917W        W37446   5.090  28.670  11.846
65918W        W37447  29.943   7.969   2.630
65919W        W37448  16.330  28.877  11.510
65920W        W37449  35.085  33.072   4.332
65921W        W37450   7.057  27.008   1.826
65922W        W37451   7.805  23.568  10.537
65923W        W37452  16.550  17.289   2.755
65924W        W37453   4.942  40.357  11.724
65925W        W37454  40.452  38.542  11.725
65926W        W37455  26.817  24.528  10.734
65927W        W37456   7.389  21.322  14.458
65928W        W37457  16.054  33.953  12.578
65929W        W37458  28.224  22.415  12.013
65930W        W37459  28.337   6.879   0.902
65931W        W37460   6.743  33.834  14.522
65932W        W37461  25.533  39.079  12.162
65933W        W37462  40.122  10.300  10.725
65934W        W37463  10.841  34.017  12.034
65935W        W37464  32.377  22.740  10.694
65936W        W37465  16.551  29.705   3.824
65937W        W37466   1.365  12.246  11.222
65938W        W37467  36.534  36.483   3.395
65939W        W37468   1.750  11.206   0.561
65940W        W37469  18.955  27.607   0.255
65941W        W37470   9.653  22.988   0.967
65942W        W37471   7.248  40.594  13.041
65943W        W37472   2.752  36.865  13.485
65944W        W37473  42.841  20.965   2.721
65945W        W37474  17.843   2.716   2.382
65946W        W37475  13.069   5.397  12.096
65947W        W37476  33.304  13.063   2.632
65948W        W37477   8.208  17.306  10.679
65949W        W37478  44.567  28.543   0.301
65950W        W37479   2.712  35.581   4.404
65951W        W37480  10.119  16.314  14.087
65952W        W37481  26.000   0.749  13.029
65953W        W37482  24.206   7.450  11.916
65954W        W37483   0.863   9.127   3.011
65955W        W37484   9.709  38.400   2.653
65956W        W37485   5.126  31.990  12.882
65957W        W37486  12.782   0.396   4.164
65958W        W37487  19.538  36.573  13.031
65959W        W37488  33.814   8.901  14.795
65960W        W37489   8.746   3.648  10.457
65961W        W37490  37.412  10.303  11.683
65962W        W37491   1.427  36.315   0.867
65963W        W37492   0.199   6.920   2.217
65964W        W37493  39.325  39.797   4.245
65965W        W37494  17.197   8.709   0.844
65966W        W37495  36.280  33.567   3.877
65967W        W37496   2.378  16.129   0.765
65968W        W37497  11.244  35.285   1.311
65969W        W37498  20.912  40.424  12.707
65970W        W37499  24.669  34.059   4.566
65971W        W37500   4.809  37.524   0.478
65972W        W37501  35.521  40.178   2.307
65973W        W37502  35.329  12.894   2.821
65974W        W37503   0.673  17.969   4.225
65975W        W37504  29.006   6.832   1.393
65976W        W37505  38.161  26.560   0.391
65977W        W37506   4.509  23.259   2.339
65978W        W37507  28.769  29.525   0.857
65979W        W37508   3.901  13.539   5.062
65980W        W37509   7.267  17.895   4.018
65981W        W37510  18.549  27.202   4.511
65982W        W37511  13.573   3.570   0.767
65983W        W37512   9.804  11.156   3.717
65984W        W37513   1.369  39.322   1.784
65985W        W37514  37.402  42.845  12.825
65986W        W37515   9.753  34.640   3.597
65987W        W37516  12.700   9.696  11.809
65988W        W37517   6.135  31.341   2.818
65989W        W37518  18.937   9.798  10.505
65990W        W37519   7.238  40.105   4.407
65991W        W37520  24.600  30.912  10.945
65992W        W37521   9.741  18.166  14.457
65993W        W37522  28.628  33.851  13.692
65994W        W37523  14.049  39.395   2.446
65995W        W37524  28.882  32.506   4.199
65996W        W37525  37.674   4.824  10.495
65997W        W37526  33.447   5.258   2.670
65998W        W37527   4.431  14.871  10.562
65999W        W37528  42.971  26.911   3.652
66000W        W37529  12.122  13.855   3.131
66001W        W37530   4.130   0.358  13.538
66002W        W37531  11.470  39.347  11.119
66003W        W37532  38.613  33.180  11.638
66004W        W37533  19.492  10.103  12.037
66005W        W37534  38.422  37.996  14.561
66006W        W37535  10.386  25.741  12.902
66007W        W37536  33.444  25.939   3.536
66008W        W37537  17.825   7.338   3.338
66009W        W37538  34.412  14.098   2.257
66010W        W37539   8.424  36.145  14.936
66011W        W37540  18.137  31.636   2.696
66012W        W37541  16.025  20.504  11.875
66013W        W37542  35.058  11.610  13.714
66014W        W37543   6.706  25.656   1.369
66015W        W37544  25.071  42.849  11.436
66016W        W37545  17.284  34.026  14.279
66017W        W37546  34.824  11.445  12.371
66018W        W37547  21.233  12.728  10.400
66019W        W37548  40.342   6.556   4.586
66020W        W37549  39.193  22.950  10.435
66021W        W37550  12.510   1.322   4.645
66022W        W37551  30.756  26.968  14.384
66023W        W37552   4.118  26.652  13.511
66024W        W37553  10.021  15.760   4.658
66025W        W37554  34.312  30.225  14.812
66026W        W37555  42.106   2.223   2.763
66027W        W37556  44.997  11.157  13.073
66028W        W37557  20.194  44.333   0.831
66029W        W37558  15.309  11.048  10.286
66030W        W37559  35.383  21.407  13.511
66031W        W37560  32.512  33.936   2.648
66032W        W37561   3.983  38.451  12.377
66033W        W37562  23.916  34.893  10.389
66034W        W37563  15.278  16.816   1.297
66035W        W37564   6.903   7.680   0.854
66036W        W37565  25.049   5.509  11.511
66037W        W37566  36.144  39.995   2.344
66038W        W37567  35.531   4.198   3.237
66039W        W37568  37.237  42.910   3.723
66040W        W37569   5.229  42.657  14.988
66041W        W37570  39.045   5.168   0.498
66042W        W37571  24.252  42.798   1.404
66043W        W37572  21.651   0.030   3.809
66044W        W37573  29.817   4.327   1.622
66045W        W37574  11.876  12.632   2.247
66046W        W37575   7.101  25.037   0.471
66047W        W37576  33.013  29.934  10.664
66048W        W37577  13.057   0.981  13.513
66049W        W37578  43.836   7.290   1.415
66050W        W37579  24.370   3.884   1.422
66051W        W37580  19.738  25.177   1.453
66052W        W37581  36.942  28.983   4.747
66053W        W37582   3.425   8.620  13.421
66054W        W37583   8.583  25.703  11.101
66055W        W37584  43.931  34.829   2.528
66056W        W37585  39.048  13.924   0.552
66057W        W37586  23.450   3.260  11.001
66058W        W37587  12.652  16.635   3.832
66059W        W37588  19.990   0.898   0.361
66060W        W37589  35.333  15.753  14.871
66061W        W37590  19.081  35.571   1.910
66062W        W37591  17.534  28.099  12.139
66063W        W37592   7.813  24.706   2.667
66064W        W37593  17.530  13.809   4.632
66065W        W37594  41.506   7.245  14.949
66066W        W37595   3.742  35.444   0.677
66067W        W37596   8.281   5.903   1.865
66068W        W37597  39.531  33.535  11.697
66069W        W37598   8.709  13.142  11.971
66070W        W37599  18.416   3.293  11.140
66071W        W37600  34.435  25.196   1.189
66072W        W37601  32.122   0.210  11.011
66073W        W37602  14.303   8.700   3.689
66074W        W37603  44.376  23.106   9.949
66075W        W37604   6.613  29.644   2.762
66076W        W37605  36.956  38.049  13.279
66077W        W37606  24.994  44.988   4.548
66078W        W37607   5.375  32.440   3.609
66079W        W37608  32.628  25.587   1.266
66080W        W37609   9.903  38.726  12.569
66081W        W37610  39.415  44.349  11.076
66082W        W37611   6.253  40.130   0.296
66083W        W37612   2.957  31.370  14.230
66084W        W37613  27.511  27.682   3.172
66085W        W37614  19.788  18.767  12.573
66086W        W37615   0.519  10.901   0.842
66087W        W37616   9.711   4.749  11.112
66088W        W37617  39.847  13.667  12.717
66089W        W37618   4.418   4.481   0.333
66090W        W37619  10.336  29.539  11.953
66091W        W37620  29.368   8.268  10.969
66092W        W37621  44.338  25.968   3.769
66093W        W37622  30.744   8.248   0.054
66094W        W37623   6.329  31.097  14.084
66095W        W37624  39.856   3.425  14.944
66096W        W37625  11.839   8.147  10.886
66097W        W37626  16.980  14.062  13.507
66098W        W37627  17.569  24.180  10.983
66099W        W37628  30.952  17.726  14.883
66100W        W37629   5.231  29.555   4.249
66101W        W37630   4.716  41.269   0.793
66102W        W37631   8.889  12.854  11.554
66103W        W37632  24.246  17.148  11.023
66104W        W37633  23.457   6.337  11.128
66105W        W37634  28.963   5.208  10.759
66106W        W37635  35.645   5.212   3.543
66107W        W37636  10.615   5.306   3.958
66108W        W37637   9.687  41.913   4.601
66109W        W37638  38.698  20.167   4.261
66110W        W37639  32.058  15.707   4.063
66111W        W37640  36.445  20.213  14.394
66112W        W37641   6.177  30.743  12.554
66113W        W37642  40.771  39.504   4.374
66114W        W37643   4.127  28.118   1.707
66115W        W37644   9.644  36.716  14.428
66116W        W37645  18.729   1.919  10.745
66117W        W37646  31.495   2.739  11.732
66118W        W37647   4.766  10.184   1.950
66119W        W37648  18.342  11.556   0.754
66120W        W37649   0.249  35.087   0.434
66121W        W37650  20.241   9.822  10.878
66122W        W37651  30.190  32.165  12.877
66123W        W37652  33.991  35.869   0.960
66124W        W37653  10.740  10.773   4.584
66125W        W37654  32.139   8.658  13.825
66126W        W37655  10.618  21.537  12.287
66127W        W37656   2.306   4.300  13.484
66128W        W37657  17.042  28.214  13.367
66129W        W37658  12.845  40.776   2.272
66130W        W37659  18.951   9.053   3.059
66131W        W37660  23.136  30.919  11.457
66132W        W37661   0.331  31.437   1.290
66133W        W37662  42.740   3.954  13.051
66134W        W37663   2.906  24.766   3.695
66135W        W37664  36.905  25.758   0.421
66136W        W37665  10.860   5.550  12.435
66137W        W37666  39.851  43.548  11.833
66138W        W37667  35.030  40.837  12.452
66139W        W37668  34.053   9.198  11.021
66140W        W37669  32.597   1.906  11.579
66141W        W37670  35.285  38.487  11.190
66142W        W37671  18.585  14.533  14.101
66143W        W37672  44.767   8.140  10.899
66144W        W37673  14.362  22.880  11.571
66145W        W37674   4.268  10.615  12.901
66146W        W37675  39.389   3.123   0.832
66147W        W37676  31.144  10.147  14.534
66148W        W37677  42.797  17.689  12.094
66149W        W37678  32.012  22.797  12.543
66150W        W37679  35.619  44.244   1.488
66151W        W37680  44.365  35.849   3.141
66152W        W37681  36.904   9.959   9.996
66153W        W37682  37.364   9.389   3.235
66154W        W37683   3.453  36.559   4.535
66155W        W37684  26.619   0.761  10.502
66156W        W37685   5.198  18.337  13.831
66157W        W37686   2.933  32.427  11.944
66158W        W37687  22.940  34.419  11.928
66159W        W37688  20.120   0.749   0.829
66160W        W37689  19.649  31.011  13.872
66161W        W37690  42.765   8.658   1.690
66162W        W37691  25.132   4.349  12.007
66163W        W37692  18.729  19.505   3.413
66164W        W37693   3.311  25.695   1.355
66165W        W37694   5.489  13.794   1.338
66166W        W37695  28.647  10.792   4.487
66167W        W37696   7.865  12.679  12.216
66168W        W37697  30.362   0.978  13.378
66169W        W37698  27.581  30.550   0.689
66170W        W37699  11.264  23.990  13.393
66171W        W37700   0.092  43.023  11.638
66172W        W37701   2.240  35.928   2.292
66173W        W37702  32.902  38.813   3.624
66174W        W37703  16.616  15.970   0.526
66175W        W37704  35.680  41.537  11.266
66176W        W37705  31.667  41.269   1.967
66177W        W37706  25.340   3.967  14.655
66178W        W37707  17.810   4.279   0.885
66179W        W37708   1.800  10.180   0.700
66180W        W37709   4.177  31.094  14.051
66181W        W37710  14.733  15.619   4.642
66182W        W37711  35.428   9.184   1.671
66183W        W37712  36.321  13.595   2.807
66184W        W37713   3.856  30.638   0.808
66185W        W37714  11.806  31.937   1.223
66186W        W37715  19.824   4.558  13.147
66187W        W37716  32.434  10.954  11.548
66188W        W37717   6.452  20.267   2.308
66189W        W37718   6.552  44.398  12.894
66190W        W37719  18.712  22.054  13.416
66191W        W37720  38.586  26.669   3.684
66192W        W37721  11.054  27.028   0.266
66193W        W37722   0.447   4.520   2.180
66194W        W37723  41.728  40.600  11.430
66195W        W37724  28.988  20.539  11.119
66196W        W37725  36.448  13.347   0.867
66197W        W37726  20.083  31.623   4.681
66198W        W37727  24.947   0.839   1.350
66199W        W37728  13.634  41.967  13.400
66200W        W37729  41.641   3.642  10.017
66201W        W37730  10.765   1.614   1.382
66202W        W37731  28.027  27.040   4.573
66203W        W37732  31.907  10.580   2.292
66204W        W37733  42.755   0.946   0.840
66205W        W37734  27.080  22.292   1.782
66206W        W37735  15.569  14.246  12.540
66207W        W37736  33.619  10.937   4.179
66208W        W37737  22.049  34.754  11.980
66209W        W37738  25.953  19.196   2.590
66210W        W37739  24.462  37.850   2.915
66211W        W37740  22.603   5.113  11.493
66212W        W37741  20.367  11.820   2.729
66213W        W37742  24.588   5.786   1.527
66214W        W37743  42.950  20.991  14.898
66215W        W37744  21.649  25.612   0.507
66216W        W37745  34.201  36.021   2.177
66217W        W37746   1.460  10.407  13.930
66218W        W37747  25.417   5.188   0.264
66219W        W37748  43.570  32.847   4.400
66220W        W37749  23.576  40.709   1.975
66221W        W37750  31.122  38.681  11.598
66222W        W37751  43.800  13.143   2.456
66223W        W37752   9.354  11.945   3.812
66224W        W37753  11.258  19.224   4.254
66225W        W37754  22.735  40.840   2.207
66226W        W37755  37.733  13.146   3.746
66227W        W37756  41.021  30.730  14.196
66228W        W37757  10.695  28.517  12.979
66229W        W37758  24.679  10.780  12.856
66230W        W37759  13.637   1.262   3.200
66231W        W37760  41.765  28.704   3.850
66232W        W37761   5.517  28.236   0.388
66233W        W37762  12.561   6.789  12.084
66234W        W37763  26.463  27.631   3.175
66235W        W37764  40.042   1.574   3.709
66236W        W37765  43.320   1.352  14.425
66237W        W37766  11.150  44.185   2.270
66238W        W37767  44.775  38.281   4.889
66239W        W37768  22.208  21.937   1.011
66240W        W37769  39.747  13.050  10.743
66241W        W37770  15.341  32.900  10.677
66242W        W37771   3.815  25.799   1.222
66243W        W37772  32.055  31.061   3.280
66244W        W37773   7.473  26.908  11.503
66245W        W37774   5.571  26.279   4.811
66246W        W37775  32.160  14.899   2.741
66247W        W37776  21.497  38.067  13.785
66248W        W37777  15.488  22.204   0.734
66249W        W37778   2.768   0.497  13.356
66250W        W37779  30.657  44.816   0.346
66251W        W37780   3.362  22.210   1.338
66252W        W37781   7.187  44.887   2.410
66253W        W37782  31.074   3.112   4.933
66254W        W37783  31.099  12.756   2.241
66255W        W37784   6.192  20.955   1.725
66256W        W37785  25.215  20.764  13.463
66257W        W37786  32.395  36.295   1.420
66258W        W37787  29.571   5.814   1.887
66259W        W37788  29.485  42.929   1.210
66260W        W37789  28.920  39.997  14.814
66261W        W37790  15.119  36.406   1.755
66262W        W37791  38.501  40.389   3.228
66263W        W37792  31.586  11.248   4.193
66264W        W37793  26.177  31.370   0.743
66265W        W37794  22.257  13.804  11.075
66266W        W37795   1.953  16.761   3.659
66267W        W37796   7.841  20.769   0.680
66268W        W37797  27.660   8.377  14.287
66269W        W37798  21.497  31.444   4.087
66270W        W37799   2.682  22.712   1.822
66271W        W37800   7.139   6.224  12.079
66272W        W37801  39.383   0.377  10.762
66273W        W37802   8.350  39.820   0.343
66274W        W37803  15.182  24.682  14.747
66275W        W37804  14.175  24.942  10.938
66276W        W37805  25.243   0.315   1.324
66277W        W37806   8.790  23.018  10.662
66278W        W37807  23.002   1.504  10.332
66279W        W37808  21.323   9.742   0.842
66280W        W37809  37.901  19.482  11.578
66281W        W37810  10.723   3.017  12.612
66282W        W37811   6.357  18.351  11.624
66283W        W37812  44.757  41.917   4.029
66284W        W37813  30.503  12.719  14.786
66285W        W37814  27.697  31.992  12.818
66286W        W37815  17.422  12.599  10.566
66287W        W37816  38.242   6.728   4.547
66288W        W37817  29.685  18.077  12.579
66289W        W37818  44.693  33.357   3.207
66290W        W37819   3.007  42.986  12.439
66291W        W37820  21.995  16.320  11.605
66292W        W37821  26.754  15.051   2.625
66293W        W37822  39.944  13.777   3.710
66294W        W37823  11.445  22.610  11.009
66295W        W37824  20.607   0.323   2.278
66296W        W37825  27.606  44.352   3.962
66297W        W37826  17.922  25.562   2.103
66298W        W37827  34.126  11.119   2.808
66299W        W37828  28.573   1.059   2.190
66300W        W37829   5.655  40.263  10.804
66301W        W37830  19.805  41.989   4.527
66302W        W37831  31.506  35.140  11.845
66303W        W37832  32.124   0.069   4.130
66304W        W37833  22.100   1.459  11.617
66305W        W37834   5.648  24.981  11.067
66306W        W37835  16.043  39.521  10.444
66307W        W37836  16.716   6.200  11.457
66308W        W37837  18.032  24.265  13.540
66309W        W37838  26.133  21.243  12.046
66310W        W37839  22.720  10.075  11.055
66311W        W37840   0.938  20.078  12.764
66312W        W37841  22.501  18.098   0.781
66313W        W37842  39.558  16.008   0.713
66314W        W37843   0.663   3.221   2.945
66315W        W37844  22.543  34.584   0.894
66316W        W37845  25.459  11.664   5.029
66317W        W37846   7.668  41.076  10.260
66318W        W37847  13.778  17.992  11.525
66319W        W37848  37.725   6.917  11.222
66320W        W37849  26.886  23.088  13.438
66321W        W37850  10.076  37.894   1.974
66322W        W37851  12.148  23.717  13.160
66323W        W37852  31.195  15.111   2.252
66324W        W37853   3.249  44.651  14.965
66325W        W37854  27.500  37.812  11.070
66326W        W37855   9.616  16.817   2.858
66327W        W37856  36.861  34.378  12.737
66328W        W37857  12.985  25.917   4.154
66329W        W37858   1.444  21.737  12.311
66330W        W37859  24.228  16.835  11.669
66331W        W37860  23.617  41.094  12.971
66332W        W37861  22.024   7.895   1.440
66333W        W37862  13.225  39.026   1.506
66334W        W37863  21.965   4.231  10.719
66335W        W37864  41.272  15.171   2.869
66336W        W37865  29.565   5.802   3.204
66337W        W37866  41.878  30.652   0.720
66338W        W37867  13.389  35.494   3.170
66339W        W37868  22.744  30.447  14.912
66340W        W37869   2.861  17.635   2.506
66341W        W37870  27.114  32.209  13.621
66342W        W37871  10.193  20.870   0.381
66343W        W37872   2.312  15.167   0.355
66344W        W37873  32.129  22.314  12.454
66345W        W37874  41.922  22.338   4.194
66346W        W37875  32.206  17.078  10.747
66347W        W37876  37.551  25.413   2.457
66348W        W37877   7.038   9.399  11.038
66349W        W37878   9.625  28.412   0.525
66350W        W37879  14.194   3.867  13.099
66351W        W37880   3.205  30.133  10.944
66352W        W37881  30.378  40.363  13.407
66353W        W37882  21.097   6.233   4.534
66354W        W37883  14.299  25.140   0.990
66355W        W37884  24.703  17.500  12.060
66356W        W37885   4.139  36.593  13.861
66357W        W37886  44.564  10.637   3.787
66358W        W37887  23.025  33.094   3.081
66359W        W37888  13.947  38.119  12.903
66360W        W37889  12.672  18.215   1.681
66361W        W37890  19.390  21.054   4.099
66362W        W37891  37.025   9.164  13.786
66363W        W37892  35.354  13.883   1.336
66364W        W37893  29.759   1.256   1.874
66365W        W37894  12.348  11.595   3.731
66366W        W37895   0.208  34.037  13.914
66367W        W37896  10.868  14.757  14.891
66368W        W37897  42.879  22.223   3.730
66369W        W37898  29.095  35.994   0.879
66370W        W37899  24.550  32.875  13.886
66371W        W37900   7.635  20.616  11.896
66372W        W37901  39.396  10.926  13.401
66373W        W37902  30.772   5.135   3.371
66374W        W37903   4.316   6.998   3.685
66375W        W37904  16.352   5.391  12.775
66376W        W37905  23.918  27.540   4.169
66377W        W37906  26.643  26.719  12.944
66378W        W37907  15.890  32.624  11.510
66379W        W37908   3.822   7.724   1.407
66380W        W37909   9.215  33.074  13.288
66381W        W37910  10.464  25.571  13.468
66382W        W37911   9.547  18.949  11.947
66383W        W37912  13.135   1.874  10.391
66384W        W37913  16.963  28.537   4.531
66385W        W37914  12.361   3.728   2.866
66386W        W37915  29.674  28.407  12.138
66387W        W37916  18.850  15.464   4.064
66388W        W37917  27.645  10.379  14.007
66389W        W37918  33.292  18.487  13.348
66390W        W37919  10.529  43.514  10.079
66391W        W37920  38.724   6.379   3.050
66392W        W37921  30.922  28.594  12.650
66393W        W37922  20.709   2.986  11.548
66394W        W37923  26.193  39.786  13.818
66395W        W37924  40.527  10.328   4.283
66396W        W37925  20.759  41.335  11.488
66397W        W37926  28.783  28.234   2.174
66398W        W37927  16.772  18.285  13.414
66399W        W37928  39.770   9.145  12.148
66400W        W37929  25.713  10.711  11.251
66401W        W37930  28.425  21.655   3.787
66402W        W37931  12.939  42.760  10.309
66403W        W37932  16.264  21.287  11.576
66404W        W37933   7.135  15.524  12.410
66405W        W37934  38.863  14.773   1.719
66406W        W37935  19.703  38.421  12.316
66407W        W37936   2.827   2.811  11.162
66408W        W37937   3.053  14.678   0.438
66409W        W37938  33.529  32.268   0.331
66410W        W37939  31.803   4.199  11.700
66411W        W37940  29.536  28.467   2.643
66412W        W37941   6.891  32.985  13.077
66413W        W37942   1.399  12.348   0.430
66414W        W37943  10.793  22.733   3.912
66415W        W37944   4.233   8.418   3.423
66416W        W37945  26.049  35.739   2.374
66417W        W37946   7.095  10.709  11.240
66418W        W37947  23.231  25.469  14.031
66419W        W37948  37.053  21.114   3.601
66420W        W37949  33.985   2.958   0.902
66421W        W37950  12.304  39.175  11.341
66422W        W37951  15.418  19.459  10.249
66423W        W37952  11.741  17.335   1.952
66424W        W37953  13.549  21.752   2.697
66425W        W37954  22.683   5.923  11.125
66426W        W37955   7.421   1.638   0.242
66427W        W37956  24.477  40.420  11.166
66428W        W37957  24.165  14.938  10.738
66429W        W37958  18.246  23.515   1.431
66430W        W37959   5.968  21.484  14.687
66431W        W37960  36.610   1.307   1.881
66432W        W37961   4.138   9.292   4.745
66433W        W37962  10.330  16.701   3.398
66434W        W37963  38.798  42.499  12.519
66435W        W37964  13.755  18.525   2.193
66436W        W37965  10.259   4.933   4.563
66437W        W37966  35.425  31.387   1.190
66438W        W37967  26.915   2.938  13.914
66439W        W37968  38.061  42.418  11.148
66440W        W37969  35.562  28.152  11.447
66441W        W37970  24.509   9.410   1.369
66442W        W37971  26.229  15.057  11.934
66443W        W37972  34.603   3.855   4.693
66444W        W37973  14.674  37.814   1.846
66445W        W37974  40.040  18.667  11.215
66446W        W37975   8.299  12.893   1.578
66447W        W37976  21.197  42.055  11.526
66448W        W37977  21.559  13.851   0.530
66449W        W37978   8.448  10.134  13.427
66450W        W37979  28.037  30.650   0.432
66451W        W37980  25.619  41.560   0.438
66452W        W37981  10.234   3.483   2.366
66453W        W37982  28.082   7.630  10.812
66454W        W37983  22.725  41.540  10.742
66455W        W37984   0.239  10.686  12.864
66456W        W37985   9.387  44.458   2.986
66457W        W37986   7.328  18.535  11.913
66458W        W37987   4.448  31.692   0.677
66459W        W37988  31.168  27.518   1.193
66460W        W37989  13.790  12.601   1.675
66461W        W37990  12.729   5.053  14.321
66462W        W37991  36.076   1.962   4.846
66463W        W37992   4.410  28.868  12.381
66464W        W37993  14.898   6.349   4.415
66465W        W37994  11.863  29.053   3.873
66466W        W37995  19.868  35.770   3.613
66467W        W37996  10.227  27.829  14.451
66468W        W37997  30.456  36.896  11.255
66469W        W37998   0.736  43.524   1.211
66470W        W37999  26.014  35.009  10.477
66471W        W38000  19.554  23.661   0.539
66472W        W38001  23.576  21.284   3.876
66473W        W38002  33.959   8.851   3.202
66474W        W38003  15.824  24.529  11.119
66475W        W38004  13.094  26.791   1.299
66476W        W38005   7.774  27.710   3.362
66477W        W38006  28.024  41.816  12.214
66478W        W38007  38.845  12.213  10.438
66479W        W38008   4.766  43.764   0.847
66480W        W38009  16.833  23.758   1.327
66481W        W38010  20.137  30.430   3.659
66482W        W38011  39.818  24.013   1.671
66483W        W38012  31.601  19.196  10.654
66484W        W38013  20.170   7.486   3.651
66485W        W38014  11.423   8.553   3.633
66486W        W38015  31.997  16.767  12.091
66487W        W38016  18.024   9.223   1.718
66488W        W38017   1.057  26.624  12.929
66489W        W38018   4.351  11.008  11.620
66490W        W38019  43.866  37.110  14.781
66491W        W38020  18.436   9.777   0.265
66492W        W38021  11.734  38.005   1.891
66493W        W38022   8.363   9.589   1.686
66494W        W38023  36.930  12.619  13.439
66495W        W38024   3.226  38.427   0.412
66496W        W38025  27.657  14.528   0.409
66497W        W38026   8.182  36.484  12.213
66498W        W38027  16.720   5.792   3.288
66499W        W38028  42.856  20.221   4.633
66500W        W38029   3.683  18.645  12.795
66501W        W38030  29.085  20.309  11.572
66502W        W38031   0.833  37.390   2.650
66503W        W38032   6.720  34.790  13.401
66504W        W38033  37.912  16.312   3.660
66505W        W38034  17.249  28.095   2.835
66506W        W38035  33.140  18.696   4.551
66507W        W38036  26.029  11.295   2.324
66508W        W38037  33.169  24.882   3.271
66509W        W38038  38.959  37.558  11.596
66510W        W38039  13.283  24.213   3.227
66511W        W38040  36.581  21.933   0.595
66512W        W38041  13.111  20.187  10.828
66513W        W38042  24.790  36.403  13.931
66514W        W38043   5.753  43.331  14.511
66515W        W38044  30.713  30.561   1.254
66516W        W38045   1.541  44.463  12.648
66517W        W38046  29.053  44.530  12.608
66518W        W38047   7.303  18.130   2.191
66519W        W38048  41.756  37.818  11.202
66520W        W38049  28.560  33.066  11.873
66521W        W38050   1.705  18.581  12.440
66522W        W38051  39.570  14.664  14.520
66523W        W38052  32.955  12.189   1.195
66524W        W38053  22.935  35.141  12.882
66525W        W38054  24.699  27.582   3.726
66526W        W38055  30.207  10.841   3.755
66527W        W38056  38.582   7.314  12.586
66528W        W38057  14.603  22.438  11.642
66529W        W38058  27.643  29.682  14.422
66530W        W38059  31.931  26.724   2.304
66531W        W38060  33.575   1.531   0.214
66532W        W38061  37.557  34.640   0.847
66533W        W38062  42.962  18.596   2.788
66534W        W38063   4.653  36.379   3.976
66535W        W38064  12.340  29.075  11.115
66536W        W38065  18.275  30.989   0.952
66537W        W38066   8.180  30.950   0.171
66538W        W38067  13.312  18.515  13.382
66539W        W38068   5.293  43.571   1.655
66540W        W38069  13.873  30.939   2.840
66541W        W38070  22.236   5.401  14.558
66542W        W38071  16.695  41.995   3.151
66543W        W38072  12.027   2.433   2.306
66544W        W38073   3.512  39.288  11.515
66545W        W38074  37.513  21.556  14.390
66546W        W38075  13.074  30.534   3.920
66547W        W38076   5.316  11.206   1.926
66548W        W38077  11.703  28.174  14.757
66549W        W38078  23.094  14.300  12.493
66550W        W38079   2.420  28.292  10.738
66551W        W38080  33.147  20.727  11.000
66552W        W38081  18.795   7.402   1.672
66553W        W38082   9.665  21.832  14.203
66554W        W38083  11.097  28.037  12.211
66555W        W38084  20.549   0.699   2.701
66556W        W38085  31.610  14.297   2.963
66557W        W38086  21.905  32.266  10.968
66558W        W38087  27.550  24.721  13.826
66559W        W38088  28.219  22.236  13.713
66560W        W38089  23.506   4.689  13.325
66561W        W38090  40.032  31.431   2.795
66562W        W38091   0.400  15.352   0.316
66563W        W38092  11.916   3.717   2.580
66564W        W38093  13.221   0.984   4.955
66565W        W38094  40.759  24.975   2.834
66566W        W38095  31.559  25.422   2.247
66567W        W38096  44.695  27.647  10.975
66568W        W38097  31.579   9.828   1.273
66569W        W38098  28.643  13.935  13.195
66570W        W38099  14.968  27.837  13.155
66571W        W38100  39.376  27.724  12.440
66572W        W38101   6.144   3.885   1.502
66573W        W38102  11.228  11.265  12.583
66574W        W38103  27.104  13.248  14.345
66575W        W38104   5.243   1.802   0.837
66576W        W38105  34.260  15.436   0.768
66577W        W38106  27.629  27.930   2.736
66578W        W38107  23.492  39.116   2.349
66579W        W38108  35.371  29.078  11.368
66580W        W38109   2.485  29.620  11.090
66581W        W38110  35.079   4.521  11.458
66582W        W38111   5.099  24.407  11.722
66583W        W38112   5.676  22.709  11.615
66584W        W38113  37.987   4.802   3.131
66585W        W38114  30.635   8.705   1.692
66586W        W38115  11.144   7.292  10.788
66587W        W38116   5.895  11.699  10.648
66588W        W38117  25.211  19.770  13.363
66589W        W38118   7.742  35.402  11.098
66590W        W38119  25.138  13.435   3.689
66591W        W38120   8.791   7.898   5.096
66592W        W38121  13.673  23.584   0.590
66593W        W38122  37.364  37.467  11.532
66594W        W38123  31.052   0.792  13.904
66595W        W38124  16.782  39.549  11.542
66596W        W38125  43.927  16.710   1.416
66597W        W38126  36.715  24.232   2.298
66598W        W38127  20.115  25.256   2.760
66599W        W38128  29.937  21.244   0.291
66600W        W38129  38.019  12.823   4.090
66601W        W38130  32.103  28.564   5.088
66602W        W38131  30.054  12.082  12.854
66603W        W38132  17.120  42.974  10.315
66604W        W38133   7.945  34.056  11.208
66605W        W38134  24.168  29.169   2.202
66606W        W38135  17.642  10.393   4.974
66607W        W38136  38.359  22.611  10.520
66608W        W38137  42.765  31.994   4.760
66609W        W38138  18.237  36.346   1.287
66610W        W38139  15.269  21.095   3.224
66611W        W38140  22.496  30.668  14.501
66612W        W38141   5.797  22.334  11.969
66613W        W38142  24.793  31.847  10.891
66614W        W38143  38.754   4.803   3.199
66615W        W38144  26.514  10.445   2.392
66616W        W38145  27.919  38.681  12.588
66617W        W38146  40.942  32.805  10.653
66618W        W38147  42.439  28.766   3.599
66619W        W38148  33.355  33.557  10.518
66620W        W38149   4.612  15.844  11.987
66621W        W38150  43.186  22.252  13.036
66622W        W38151  42.384  43.912   3.877
66623W        W38152  13.740  36.242   2.284
66624W        W38153  30.489  23.688  10.764
66625W        W38154  33.406  11.666  13.434
66626W        W38155  20.557  26.944   0.804
66627W        W38156  29.848  35.347   0.051
66628W        W38157  23.251   5.352  14.014
66629W        W38158   4.406   0.355   4.478
66630W        W38159  24.051  11.773   4.202
66631W        W38160  28.529  42.977  14.157
66632W        W38161  42.342   4.940  14.552
66633W        W38162  14.803  25.084   0.380
66634W        W38163   8.091  36.146   2.861
66635W        W38164   6.849  43.944  11.233
66636W        W38165   2.414  20.852  12.903
66637W        W38166  18.824  18.839   1.858
66638W        W38167  31.242  10.686  14.466
66639W        W38168  13.704   4.735   1.236
66640W        W38169   0.475  42.696   4.015
66641W        W38170  44.178  32.853  12.977
66642W        W38171  41.143  19.963   0.197
66643W        W38172  36.965  27.531   3.939
66644W        W38173  41.943  27.122   2.383
66645W        W38174  14.250  17.906  14.801
66646W        W38175  11.760   2.819   4.587
66647W        W38176   6.784  38.798  10.691
66648W        W38177   7.347   8.867   1.544
66649W        W38178  23.127  27.033   4.976
66650W        W38179   4.920  39.575  14.302
66651W        W38180  34.397  13.234  13.167
66652W        W38181  40.039   8.901   2.237
66653W        W38182  32.010   2.274  12.382
66654W        W38183   2.913  14.222   0.194
66655W        W38184  11.139  25.189   1.933
66656W        W38185  33.858  15.630  12.681
66657W        W38186  30.408   9.854  13.961
66658W        W38187  20.731  16.340  13.671
66659W        W38188  23.263  44.346   2.282
66660W        W38189  29.861  26.503  11.940
66661W        W38190  27.583  34.682  12.949
66662W        W38191  19.521  40.616  12.977
66663W        W38192  23.453  40.569  12.072
66664W        W38193   5.281  35.843   4.594
66665W        W38194  23.085  39.046  11.201
66666W        W38195   0.163  43.247  12.526
66667W        W38196  30.328  42.745  12.121
66668W        W38197  18.527  29.635   2.172
66669W        W38198  43.091  42.499  11.962
66670W        W38199   6.411  25.948  14.920
66671W        W38200  31.869  18.787   3.655
66672W        W38201   1.748  10.429   1.152
66673W        W38202  14.050   1.417  14.817
66674W        W38203  26.422  39.533  10.468
66675W        W38204   3.640  10.142   1.276
66676W        W38205   7.571   0.463   1.212
66677W        W38206  14.078  34.901   0.970
66678W        W38207  38.841  19.610   2.189
66679W        W38208  41.109  15.891   2.319
66680W        W38209  44.981  27.195  11.000
66681W        W38210  38.078  38.587  13.969
66682W        W38211  38.853   7.676  14.387
66683W        W38212  11.350  23.745   3.242
66684W        W38213  44.367  43.484   0.342
66685W        W38214  10.720   2.977   1.708
66686W        W38215  15.958   4.442  10.901
66687W        W38216  26.378  12.827   2.820
66688W        W38217  25.687  43.392   1.299
66689W        W38218  43.206  29.048   4.120
66690W        W38219  26.633  16.781  14.524
66691W        W38220  34.965   0.246  13.537
66692W        W38221  10.834  36.703   1.102
66693W        W38222  28.181   3.714   4.965
66694W        W38223   7.902  41.071  13.523
66695W        W38224   2.233  41.513   0.707
66696W        W38225  33.022   3.515  10.549
66697W        W38226  16.678  30.632  13.841
66698W        W38227  40.097  41.585  13.101
66699W        W38228  38.699  13.537   0.516
66700W        W38229  33.215  19.636  14.238
66701W        W38230  37.498  11.000   0.508
66702W        W38231  42.793  36.858  12.907
66703W        W38232  23.038  44.561   3.748
66704W        W38233  26.862  31.703  12.920
66705W        W38234   5.213  19.535  13.272
66706W        W38235  35.898   9.353  13.094
66707W        W38236  20.760  38.498   3.280
66708W        W38237  21.001  40.018  12.356
66709W        W38238  42.981   5.409   0.850
66710W        W38239  14.329  30.928   1.286
66711W        W38240  25.038   8.398  12.103
66712W        W38241  13.790  14.632  14.953
66713W        W38242  31.105  16.667   0.301
66714W        W38243  25.167  23.857  11.140
66715W        W38244   9.374  23.778   4.540
66716W        W38245  44.961   5.186   2.478
66717W        W38246  18.307  15.166   4.865
66718W        W38247  18.281  23.204  12.548
66719W        W38248  36.355  33.974   4.188
66720W        W38249  25.211  44.616  11.412
66721W        W38250  30.987  14.323   0.574
66722W        W38251  35.532  40.746   4.585
66723W        W38252  31.345  35.984  14.046
66724W        W38253  19.697  23.064  10.582
66725W        W38254  41.528   6.319  12.291
66726W        W38255  29.866  24.145   1.208
66727W        W38256  26.244  39.707  13.325
66728W        W38257  28.181  23.253   4.558
66729W        W38258  17.129  11.073   3.843
66730W        W38259  26.453  24.218   1.652
66731W        W38260  20.565  44.851   2.740
66732W        W38261  22.211  22.073   3.234
66733W        W38262  14.865  29.223   0.867
66734W        W38263  36.304  38.792  14.978
66735W        W38264   1.470  26.181  11.423
66736W        W38265  39.296  21.636  11.505
66737W        W38266   6.234  12.705  10.788
66738W        W38267  24.483   8.068  11.373
66739W        W38268  18.669   9.260  10.483
66740W        W38269  17.618  33.081   0.194
66741W        W38270  11.393  32.046   0.903
66742W        W38271  31.982  16.655   3.644
66743W        W38272   2.365   4.035  14.389
66744W        W38273  42.367  35.927  14.449
66745W        W38274  29.502  24.551  14.501
66746W        W38275  11.376   9.360   4.127
66747W        W38276   3.738  28.691   3.681
66748W        W38277  10.594  11.698  10.194
66749W        W38278  12.308  43.584   3.314
66750W        W38279   8.667   2.901   0.021
66751W        W38280  29.289  21.808   1.949
66752W        W38281   9.653  26.679  13.557
66753W        W38282  26.981   6.481  13.932
66754W        W38283  35.389  16.221   4.280
66755W        W38284  27.227  12.320   1.618
66756W        W38285  37.862  40.846   0.290
66757W        W38286  19.229  37.840   1.270
66758W        W38287  14.057  25.489  10.747
66759W        W38288  13.891  20.861   3.762
66760W        W38289  44.183   4.445  11.076
66761W        W38290  20.033   3.272   1.723
66762W        W38291  10.810   3.786  12.148
66763W        W38292  20.192   8.929   0.535
66764W        W38293  31.007  19.027  12.875
66765W        W38294   4.608   4.956  11.582
66766W        W38295  28.358  19.838  14.561
66767W        W38296  19.336   2.212  11.537
66768W        W38297   7.349  12.730  10.722
66769W        W38298   6.703   3.301  11.404
66770W        W38299   7.351  17.509  12.986
66771W        W38300  22.495   0.972   0.475
66772W        W38301  33.787  35.289  11.268
66773W        W38302  10.852   6.295   1.801
66774W        W38303   4.733  10.662  13.182
66775W        W38304  39.882   5.622  11.985
66776W        W38305  40.569  34.422   2.291
66777W        W38306   7.478  35.848  12.983
66778W        W38307  31.525  19.631  12.042
66779W        W38308   3.793  41.474   4.453
66780W        W38309  36.762   3.549  11.205
66781W        W38310   1.420  25.102   1.489
66782W        W38311  25.169  13.871   4.535
66783W        W38312  13.781   6.320   3.645
66784W        W38313  16.506   2.578  14.246
66785W        W38314   9.672  40.279   0.771
66786W        W38315  37.544  26.969  13.255
66787W        W38316  10.338  20.718   5.144
66788W        W38317   4.389  30.935  13.620
66789W        W38318  40.262  27.141  14.428
66790W        W38319  12.071  28.668  13.411
66791W        W38320  13.705   0.751   3.274
66792W        W38321  31.693  42.254  12.890
66793W        W38322  18.219   2.663   1.259
66794W        W38323  39.524   8.807  13.619
66795W        W38324  29.122   9.243  12.484
66796W        W38325  15.551  24.474   3.292
66797W        W38326  29.640   2.999  11.671
66798W        W38327  28.541   6.411  12.268
66799W        W38328  25.005   8.723   4.734
66800W        W38329   2.325  11.650  13.556
66801W        W38330  36.549  30.292  13.346
66802W        W38331  35.317  36.517  10.356
66803W        W38332  26.171  31.169   2.089
66804W        W38333  40.443   1.966   1.732
66805W        W38334   7.806  43.897  10.846
66806W        W38335  20.736  41.868  11.411
66807W        W38336  41.417  29.135   0.389
66808W        W38337   0.462  10.483  11.062
66809W        W38338   8.096  42.052   0.890
66810W        W38339   7.114   3.241  14.518
66811W        W38340  24.719  34.804  13.875
66812W        W38341  18.335  30.107   2.904
66813W        W38342  30.314  25.171  13.992
66814W        W38343  30.390  24.702   2.609
66815W        W38344  31.378  11.838  13.344
66816W        W38345  37.480  19.909   1.395
66817W        W38346  32.480  29.533  14.721
66818W        W38347  13.679  32.777  11.106
66819W        W38348  28.659  31.360   3.279
66820W        W38349  28.007  33.676  13.515
66821W        W38350   7.778  28.622  12.517
66822W        W38351  20.999  40.389   0.902
66823W        W38352  24.506  40.240  13.717
66824W        W38353  18.291  41.660  14.003
66825W        W38354  13.656  12.260  13.069
66826W        W38355  41.681  16.796   2.287
66827W        W38356  34.832  37.394   5.151
66828W        W38357   9.162  25.105  12.901
66829W        W38358  23.177   1.935   4.816
66830W        W38359  34.085  26.555   1.523
66831W        W38360  10.030  20.735   4.149
66832W        W38361  39.900  37.370   1.434
66833W        W38362  43.456  13.127  11.741
66834W        W38363  24.078  29.437   4.052
66835W        W38364   3.717  29.333   0.321
66836W        W38365  14.172  15.051   0.504
66837W        W38366   9.236  44.385   1.972
66838W        W38367  33.010  32.466   3.733
66839W        W38368   0.363   5.875  14.481
66840W        W38369  36.057  11.738  13.943
66841W        W38370   2.046  36.496  14.428
66842W        W38371  30.475  17.627  13.946
66843W        W38372  30.077   2.412   4.504
66844W        W38373  17.513  23.117  12.111
66845W        W38374   1.000  38.353  11.231
66846W        W38375  18.864  40.781  14.407
66847W        W38376  13.762  11.081  14.801
66848W        W38377  43.887  37.368  10.634
66849W        W38378  25.288  12.813   4.490
66850W        W38379   1.798   6.261  14.422
66851W        W38380  39.951  26.478   2.480
66852W        W38381  31.203  14.844  11.736
66853W        W38382  27.625  35.634   2.904
66854W        W38383   8.681  26.529   3.747
66855W        W38384  25.620   5.217   2.422
66856W        W38385  21.675  17.213  14.392
66857W        W38386  14.555  19.115  11.101
66858W        W38387  39.069  30.403   2.709
66859W        W38388  17.559  17.091  13.313
66860W        W38389  25.072   4.238  13.557
66861W        W38390  38.780   2.909   0.316
66862W        W38391  40.025  24.537  14.828
66863W        W38392  29.973  34.991  11.773
66864W        W38393  31.790  43.651   2.846
66865W        W38394  16.639  11.633  14.925
66866W        W38395  23.681  39.661  10.687
66867W        W38396   1.429  33.539  13.034
66868W        W38397  35.471  32.042  14.342
66869W        W38398  30.480  13.011  12.125
66870W        W38399  41.714  35.817  14.904
66871W        W38400  31.925  17.600  11.127
66872W        W38401  21.736  27.657   0.309
66873W        W38402  26.990  25.125   0.757
66874W        W38403  39.968  16.752   3.626
66875W        W38404  29.174   6.744   4.333
66876W        W38405  31.436  16.301  12.257
66877W        W38406   4.708  10.616   0.281
66878W        W38407  33.266  43.676   2.363
66879W        W38408   8.752  18.034   4.602
66880W        W38409  10.225  39.379  13.804
66881W        W38410  22.207  37.370  14.400
66882W        W38411  10.380   9.596   2.712
66883W        W38412  21.589  14.755  14.863
66884W        W38413  23.859  19.737   4.559
66885W        W38414   0.384  31.887   0.957
66886W        W38415  10.132  22.899  11.640
66887W        W38416  27.915  41.201   0.263
66888W        W38417   6.854  30.065  11.939
66889W        W38418  34.012  42.860   0.201
66890W        W38419  35.639  24.184  13.815
66891W        W38420  36.337  28.423  11.635
66892W        W38421   6.141   6.952  10.775
66893W        W38422  14.544  40.538  11.694
66894W        W38423  26.548  16.267   3.077
66895W        W38424  21.647  38.021   0.964
66896W        W38425  18.244  16.958   4.582
66897W        W38426   6.479  19.887   5.228
66898W        W38427  18.233  14.587  14.463
66899W        W38428  43.930  43.729   4.320
66900W        W38429   2.207  33.762   1.399
66901W        W38430  19.086  41.433   4.477
66902W        W38431  29.935  42.881   1.496
66903W        W38432  23.927  12.201  14.040
66904W        W38433  13.554  38.298   0.315
66905W        W38434   6.822  31.902   1.598
66906W        W38435  28.541  32.075  10.313
66907W        W38436   2.508  15.223  14.858
66908W        W38437  25.418  43.818   4.150
66909W        W38438  31.739  12.233  14.435
66910W        W38439  22.937   5.919  13.797
66911W        W38440  39.866  15.268  14.892
66912W        W38441   7.819  15.739   4.581
66913W        W38442   2.312  24.552  11.835
66914W        W38443  16.105  13.863  13.391
66915W        W38444   6.576  29.039  10.127
66916W        W38445  41.031  39.493  14.853
66917W        W38446  12.210   4.403   2.079
66918W        W38447  14.217   1.478  11.383
66919W        W38448  32.408  25.681  11.243
66920W        W38449   3.925  39.484   1.809
66921W        W38450  10.608  27.576  10.442
66922W        W38451  10.659  22.574  14.729
66923W        W38452  16.136  42.120   1.849
66924W        W38453   6.695  44.862  12.749
66925W        W38454  12.181  42.895  10.686
66926W        W38455  17.949   4.317   4.317
66927W        W38456  18.515   6.681   1.864
66928W        W38457   8.817   6.885   1.347
66929W        W38458   3.277  17.745   4.593
66930W        W38459  37.529   3.465   0.909
66931W        W38460  17.213   8.936  13.679
66932W        W38461   3.112   1.040   3.841
66933W        W38462  23.765  11.642   2.935
66934W        W38463  43.476  35.863   1.603
66935W        W38464   4.748  29.871   3.664
66936W        W38465  31.614  24.093   0.222
66937W        W38466  19.048   7.357   2.146
66938W        W38467  35.483   4.532   0.705
66939W        W38468  13.513   1.129   4.574
66940W        W38469  43.798  13.843  12.413
66941W        W38470  10.966  34.033  13.555
66942W        W38471   7.731  23.763  11.022
66943W        W38472  16.466   6.868   1.302
66944W        W38473   1.713  43.516  11.538
66945W        W38474  30.268  23.515  11.276
66946W        W38475  20.845  39.110  12.460
66947W        W38476  42.043   6.658  13.853
66948W        W38477  10.942  17.063   1.639
66949W        W38478  27.943   6.850   1.277
66950W        W38479  34.519  42.693   0.299
66951W        W38480  18.280  25.205   2.282
66952W        W38481  41.748   0.811  11.276
66953W        W38482  28.114   6.199   1.631
66954W        W38483   7.775  19.567  14.505
66955W        W38484   2.944  36.994   0.328
66956W        W38485  37.704  41.031   3.313
66957W        W38486  32.966  22.727   4.184
66958W        W38487  35.397  24.674  13.864
66959W        W38488  35.355  39.969   4.149
66960W        W38489  28.511  39.978   2.881
66961W        W38490  39.179  20.714  10.687
66962W        W38491  43.186  21.788   1.294
66963W        W38492  26.156  31.702   0.344
66964W        W38493  24.412   4.139   0.220
66965W        W38494  21.326  34.559  12.582
66966W        W38495  10.321  14.753   2.818
66967W        W38496  16.713  39.626  14.272
66968W        W38497   2.592  43.243   4.385
66969W        W38498  38.225  39.009   1.420
66970W        W38499  26.995  22.242  11.237
66971W        W38500   1.386  27.040  11.320
66972W        W38501  37.087  22.948   2.728
66973W        W38502  15.761  34.871   1.862
66974W        W38503   8.925   4.365   1.271
66975W        W38504  15.161  20.260   2.736
66976W        W38505  41.695  19.529  11.697
66977W        W38506  30.896  21.280  11.095
66978W        W38507  37.559  44.933   1.418
66979W        W38508   2.795  20.230  11.140
66980W        W38509  28.525  44.497  13.614
66981W        W38510  32.963  21.259  12.581
66982W        W38511  29.671   5.279  13.414
66983W        W38512  25.564  31.566  13.360
66984W        W38513   7.176   2.366   3.664
66985W        W38514  25.678  29.312   1.349
66986W        W38515  26.458   2.884  11.709
66987W        W38516   3.366  22.605  11.918
66988W        W38517  15.247  38.688  14.500
66989W        W38518  14.160  34.052  12.636
66990W        W38519  33.653   2.276   2.062
66991W        W38520  14.793  35.089   3.506
66992W        W38521   5.319  14.710   0.222
66993W        W38522  20.668   2.260   2.500
66994W        W38523  20.504  16.128   4.856
66995W        W38524  38.190  28.052   1.446
66996W        W38525  37.763  35.106   3.348
66997W        W38526  26.955  44.258  14.382
66998W        W38527  27.529   0.609  13.883
66999W        W38528  14.714  35.935  11.274
67000W        W38529   9.360  36.363   0.839
67001W        W38530  30.456  31.917   2.682
67002W        W38531  18.071  28.256   0.579
67003W        W38532  30.416  22.968  12.081
67004W        W38533   2.286  24.423  13.767
67005W        W38534   6.066  20.075   0.801
67006W        W38535  43.393  17.413   4.624
67007W        W38536  23.159  22.513   3.777
67008W        W38537   6.237   8.995  11.659
67009W        W38538  31.314  41.446  12.442
67010W        W38539   6.251  33.444   9.808
67011W        W38540   7.764  25.651  14.300
67012W        W38541  20.136  38.310   1.239
67013W        W38542  14.369  19.398   4.922
67014W        W38543   4.540  26.077  12.633
67015W        W38544  19.162  32.070  13.187
67016W        W38545  42.175  13.804  11.881
67017W        W38546   4.929  24.559   2.636
67018W        W38547  34.641   6.357  10.577
67019W        W38548  42.040  16.784   0.321
67020W        W38549  21.047  35.432  12.155
67021W        W38550  23.745  10.395  12.633
67022W        W38551  20.158   9.270  12.271
67023W        W38552  13.013   0.789   0.702
67024W        W38553  25.112  14.203   2.421
67025W        W38554   3.445  25.496   4.608
67026W        W38555  12.840   4.885  12.962
67027W        W38556  32.240  24.533   4.788
67028W        W38557   6.776  39.866  13.824
67029W        W38558  44.452  22.539  12.633
67030W        W38559   8.845  22.469  12.438
67031W        W38560   0.180  35.620  14.772
67032W        W38561  25.138  41.380   0.381
67033W        W38562   4.833  32.572   1.509
67034W        W38563  18.541   1.793   4.210
67035W        W38564  22.582  10.659   1.222
67036W        W38565  25.684  20.438   3.917
67037W        W38566   4.263  41.239   2.369
67038W        W38567  36.854  28.548  13.944
67039W        W38568  15.676  37.988  11.321
67040W        W38569  17.968  10.223   1.966
67041W        W38570  41.469  12.078   4.178
67042W        W38571  17.758  23.576   1.618
67043W        W38572  18.653  13.197   4.607
67044W        W38573  30.954   6.621   3.665
67045W        W38574  41.309  33.438  13.417
67046W        W38575   1.876  12.429  14.765
67047W        W38576   6.898   3.603  11.037
67048W        W38577  39.663  17.323  14.065
67049W        W38578  30.096  16.550  13.611
67050W        W38579  34.847   0.490  13.975
67051W        W38580   9.039  43.159   4.076
67052W        W38581  27.394  40.868   1.676
67053W        W38582  10.292  21.596   2.134
67054W        W38583  25.996  37.245   4.568
67055W        W38584  37.952  40.832   4.464
67056W        W38585  43.445   6.772   4.043
67057W        W38586   9.934  25.680  12.068
67058W        W38587  17.015  10.277  10.827
67059W        W38588   9.002   6.407  12.388
67060W        W38589  19.638  16.644   4.010
67061W        W38590  27.934  33.961  14.830
67062W        W38591  18.638   1.550  13.387
67063W        W38592  41.408  34.944   0.718
67064W        W38593  27.597  38.076   3.282
67065W        W38594   6.862  24.483   3.984
67066W        W38595  41.843  17.107   3.034
67067W        W38596   5.194  30.584   4.071
67068W        W38597  27.401   6.343   0.015
67069W        W38598  38.293  31.130   3.757
67070W        W38599  27.938  19.656   0.914
67071W        W38600  32.056  42.156   1.206
67072W        W38601  18.843  41.604  14.764
67073W        W38602  39.237  18.006   4.596
67074W        W38603  23.969  16.112   0.913
67075W        W38604  44.922  14.095   1.687
67076W        W38605  25.494   6.413  11.395
67077W        W38606  32.308  31.701  10.906
67078W        W38607  41.725  16.240   1.213
67079W        W38608  20.724  11.182   3.593
67080W        W38609   2.924   6.672  12.721
67081W        W38610   9.466  19.811   2.377
67082W        W38611  27.225  21.016   0.903
67083W        W38612  43.529  33.402   3.755
67084W        W38613  11.088   2.751  10.641
67085W        W38614  17.528  27.422   4.435
67086W        W38615  23.299  16.305  14.879
67087W        W38616  15.968  19.548  10.266
67088W        W38617   6.677  32.454  10.776
67089W        W38618  41.947  33.835  11.125
67090W        W38619  30.012  19.026   1.246
67091W        W38620   4.270  14.145  14.942
67092W        W38621  31.599   7.344   2.184
67093W        W38622  33.768  32.372   5.081
67094W        W38623  39.873   3.375   1.956
67095W        W38624  10.306   1.969   2.929
67096W        W38625   0.995  41.688   3.692
67097W        W38626  44.296  42.476   1.287
67098W        W38627  39.404   7.462   3.669
67099W        W38628   6.165   1.323   3.662
67100W        W38629   7.803  22.483   4.906
67101W        W38630  14.111   8.715  11.900
67102W        W38631  39.761  32.185   3.421
67103W        W38632  12.847  38.978   4.476
67104W        W38633  24.209  17.318   0.374
67105W        W38634  12.156  34.892   0.550
67106W        W38635   4.112  16.518   1.021
67107W        W38636   7.409  39.454  14.565
67108W        W38637  36.825  35.943   1.723
67109W        W38638   7.848   3.962  11.236
67110W        W38639   6.471  12.664  12.495
67111W        W38640  17.710  21.798   3.982
67112W        W38641  44.043  32.090  12.467
67113W        W38642  39.865  22.672   1.226
67114W        W38643  28.537  20.795   1.259
67115W        W38644  42.707  21.248   4.566
67116W        W38645   8.703  16.915  12.368
67117W        W38646   8.269  14.301  14.791
67118W        W38647  16.049  22.612  12.026
67119W        W38648   1.803   7.030  10.862
67120W        W38649  37.951  38.533  13.120
67121W        W38650  16.174  10.777  10.105
67122W        W38651  43.787  33.948  12.231
67123W        W38652   1.260  30.405   2.758
67124W        W38653  34.209  21.117  11.594
67125W        W38654  14.144  17.969  13.449
67126W        W38655   3.997  38.542  14.983
67127W        W38656   6.976  41.076  11.070
67128W        W38657  21.201  39.511  11.115
67129W        W38658  34.049   2.218  14.942
67130W        W38659  11.321   8.330  10.954
67131W        W38660  40.721  27.008  13.669
67132W        W38661  11.188  22.232  11.288
67133W        W38662  34.942   7.321  10.665
67134W        W38663  18.958  19.109  10.693
67135W        W38664  23.171  19.830   2.480
67136W        W38665   2.890  31.643  10.703
67137W        W38666  15.296  25.493  12.400
67138W        W38667   1.564   9.816  11.968
67139W        W38668  33.064  11.995  10.966
67140W        W38669   6.189  42.827  11.172
67141W        W38670   7.391   5.791  12.203
67142W        W38671  27.135  25.862  12.970
67143W        W38672  30.395  12.805   1.823
67144W        W38673  34.871  32.691  14.479
67145W        W38674  19.890  41.171   1.827
67146W        W38675  18.857   5.430  13.963
67147W        W38676  28.135  40.467  11.993
67148W        W38677   8.108  42.653   2.352
67149W        W38678  14.721  14.247  11.960
67150W        W38679   5.782   9.250  12.298
67151W        W38680  33.563  22.995  12.019
67152W        W38681  24.495  39.528   1.932
67153W        W38682  24.131  35.326   4.896
67154W        W38683  22.453  36.895   4.735
67155W        W38684   5.716   1.535   0.850
67156W        W38685  43.820   2.384   3.683
67157W        W38686  28.076  20.579   1.393
67158W        W38687  33.831  10.325  12.867
67159W        W38688  25.635   3.291   0.262
67160W        W38689  29.085  33.155  13.982
67161W        W38690  31.432  36.422   2.126
67162W        W38691   8.395  42.614  12.589
67163W        W38692  24.021  15.821   0.218
67164W        W38693  22.029  39.630   0.221
67165W        W38694  15.405  30.088   3.358
67166W        W38695   9.762   0.480  11.690
67167W        W38696  27.988  32.625   1.367
67168W        W38697  28.652   6.421   3.310
67169W        W38698   1.272  42.921   0.667
67170W        W38699   3.004  28.569   2.251
67171W        W38700  30.343  43.630  12.041
67172W        W38701  35.684  23.176   4.822
67173W        W38702   0.251  15.670  13.452
67174W        W38703  24.118  37.299   0.272
67175W        W38704   7.883   4.084  11.723
67176W        W38705  13.695  35.161   3.538
67177W        W38706   1.762   9.163   2.062
67178W        W38707  37.492  11.017   4.214
67179W        W38708  30.507  44.261  10.234
67180W        W38709  35.254  25.054  12.089
67181W        W38710  18.151   5.868   1.934
67182W        W38711  14.621  18.481   4.639
67183W        W38712  22.304  29.013  12.545
67184W        W38713  35.499  14.608  13.432
67185W        W38714  25.212  24.950   4.753
67186W        W38715  15.211  20.560   3.175
67187W        W38716  12.332  33.014   4.641
67188W        W38717  14.681  22.286   5.028
67189W        W38718  26.746  22.637   0.084
67190W        W38719  40.448  13.624   3.480
67191W        W38720   0.291  24.190   0.349
67192W        W38721  37.130  10.111  13.318
67193W        W38722   6.425  33.564   1.252
67194W        W38723  20.769  30.434   2.444
67195W        W38724  10.743  43.277   5.599
67196W        W38725  40.608  29.934   3.830
67197W        W38726   0.617  27.580  12.256
67198W        W38727  35.444   9.199  14.362
67199W        W38728   5.349  16.154  11.297
67200W        W38729   5.138  34.093   4.257
67201W        W38730  19.960  44.777  12.037
67202W        W38731  38.661   4.895  14.839
67203W        W38732  17.588  15.138  13.468
67204W        W38733  11.466   4.294  13.449
67205W        W38734  13.456   1.712   3.738
67206W        W38735   2.780  21.221  12.982
67207W        W38736  40.281  22.240  13.137
67208W        W38737  38.485  31.236  14.527
67209W        W38738  28.036  20.805   3.126
67210W        W38739  38.544  28.130  14.043
67211W        W38740  39.682  40.005   3.711
67212W        W38741   7.901   1.524   4.161
67213W        W38742  14.685  33.384  10.994
67214W        W38743  43.201   6.463   3.660
67215W        W38744   4.278  40.663  11.257
67216W        W38745  25.985  36.023   1.500
67217W        W38746  43.740  28.718   0.691
67218W        W38747  33.737  37.465  10.679
67219W        W38748  42.865   0.244   2.868
67220W        W38749  34.863   8.534   5.065
67221W        W38750  34.137   0.376   0.800
67222W        W38751  21.264  33.652  12.103
67223W        W38752   7.123  15.644  10.991
67224W        W38753   4.863  38.531  12.853
67225W        W38754  41.275  30.554  10.979
67226W        W38755  29.940  20.979   3.167
67227W        W38756   0.941  38.987  10.591
67228W        W38757  28.682  12.902  13.593
67229W        W38758  12.826  12.054  13.952
67230W        W38759   1.536  21.786   0.046
67231W        W38760  24.602  25.670  12.656
67232W        W38761   9.169  25.325  11.983
67233W        W38762  41.790  32.005   1.209
67234W        W38763  11.461  21.554   0.916
67235W        W38764  37.001  39.613   2.822
67236W        W38765  19.999  33.358  12.456
67237W        W38766  34.802  33.657  10.680
67238W        W38767  41.814  14.310   2.267
67239W        W38768  16.862  28.096  11.352
67240W        W38769  22.273  22.046   0.481
67241W        W38770  20.839   7.299   2.386
67242W        W38771  12.847  11.624   0.730
67243W        W38772  44.014  19.184   2.256
67244W        W38773  17.235  28.649  11.610
67245W        W38774  38.024  41.371   3.110
67246W        W38775   8.214  33.187   1.448
67247W        W38776   7.452  42.491   3.669
67248W        W38777  15.634  20.239   1.219
67249W        W38778  43.494  28.060  14.270
67250W        W38779  40.314  32.637   4.340
67251W        W38780  24.035  20.931  10.731
67252W        W38781  24.106   9.084  13.633
67253W        W38782  13.851  43.456  13.345
67254W        W38783  22.848   4.675   0.472
67255W        W38784  15.899  11.952   9.510
67256W        W38785  20.602   9.780  14.299
67257W        W38786  35.359  26.278   1.154
67258W        W38787  26.133  27.453   0.033
67259W        W38788   4.194  17.873   1.165
67260W        W38789  36.884   3.487  13.511
67261W        W38790  41.987  41.353   2.320
67262W        W38791   1.970   6.243   4.494
67263W        W38792  37.567  43.733  13.602
67264W        W38793  29.603  31.867  11.122
67265W        W38794  28.106  41.919   4.875
67266W        W38795  18.213  18.228  13.695
67267W        W38796   2.626  12.416  11.125
67268W        W38797  25.995  41.555  10.693
67269W        W38798  21.589  28.541   2.692
67270W        W38799  16.730  32.061  13.491
67271W        W38800  12.960  31.478  11.838
67272W        W38801   3.508   5.064  13.529
67273W        W38802  33.433  17.702  13.063
67274W        W38803   7.066   0.561   1.351
67275W        W38804  24.202  40.869  11.084
67276W        W38805  33.481  41.894   2.935
67277W        W38806   9.330  19.424  11.969
67278W        W38807  31.152   9.194  10.630
67279W        W38808   0.503  14.677  13.983
67280W        W38809  21.946  15.091   4.630
67281W        W38810   6.068  20.145   3.097
67282W        W38811  34.226   5.742   3.131
67283W        W38812  37.572  43.333  14.941
67284W        W38813   4.568  42.648   4.682
67285W        W38814  27.610  28.978   0.423
67286W        W38815  16.182  35.622  11.161
67287W        W38816  30.873  27.195  13.103
67288W        W38817  29.127  40.524   3.360
67289W        W38818  31.753   6.171   4.824
67290W        W38819  41.806   8.158  11.911
67291W        W38820  23.049  20.021  10.786
67292W        W38821  13.944   4.317  14.878
67293W        W38822  36.773  10.453  13.466
67294W        W38823   0.019  13.214   0.023
67295W        W38824  33.379  34.433  11.154
67296W        W38825  28.134  39.213  11.558
67297W        W38826  22.101   1.827   3.888
67298W        W38827  13.761   2.328   1.388
67299W        W38828  25.985  37.527   1.320
67300W        W38829   4.133  10.899  10.947
67301W        W38830   7.257  15.966   1.833
67302W        W38831   7.139  36.351   4.220
67303W        W38832  40.865  43.497  12.840
67304W        W38833  31.533  27.130  13.884
67305W        W38834  23.968  24.002  13.995
67306W        W38835  26.109  22.891  13.887
67307W        W38836   8.832  43.428   4.853
67308W        W38837  21.587   8.303  10.643
67309W        W38838  43.513  21.154   2.679
67310W        W38839  41.122  25.097   4.502
67311W        W38840  27.048  42.227  12.602
67312W        W38841  15.855  10.379  10.208
67313W        W38842   8.776   1.418   4.581
67314W        W38843  39.326  22.253   0.792
67315W        W38844  44.592  30.435  11.502
67316W        W38845  23.712  12.477   0.273
67317W        W38846  21.524  29.105   0.262
67318W        W38847  11.171  15.699   3.257
67319W        W38848  39.341  31.089  13.136
67320W        W38849  10.643  36.211   1.204
67321W        W38850  10.314   7.724   3.914
67322W        W38851  11.208  25.895  14.833
67323W        W38852  20.335  40.129  11.215
67324W        W38853  27.503   0.893  12.840
67325W        W38854  30.651  33.180  11.179
67326W        W38855  37.328  22.665   0.802
67327W        W38856   9.677  30.134  11.956
67328W        W38857   2.385  14.707  12.261
67329W        W38858  40.942  34.861   2.744
67330W        W38859  19.809  38.119  12.808
67331W        W38860   7.924  23.526  11.426
67332W        W38861  10.225  32.713  11.205
67333W        W38862  21.434  10.883   1.789
67334W        W38863  30.314  21.990  11.220
67335W        W38864  27.162  27.242   2.211
67336W        W38865   2.324  37.004  13.244
67337W        W38866  33.081  29.135   4.366
67338W        W38867  36.077   1.820   3.126
67339W        W38868   7.457  40.873   0.712
67340W        W38869  31.703   7.454  10.479
67341W        W38870  30.507  14.726   1.436
67342W        W38871  37.972  37.359   2.796
67343W        W38872  17.628  15.024  14.890
67344W        W38873  31.652  18.153   1.267
67345W        W38874  20.686   3.837   4.165
67346W        W38875  37.750  26.525  14.553
67347W        W38876  19.268  22.264  11.066
67348W        W38877  14.708  21.727   0.812
67349W        W38878  39.483  29.942   1.673
67350W        W38879   4.151   0.689   2.331
67351W        W38880  35.464   3.674  11.395
67352W        W38881  40.831  19.979   4.539
67353W        W38882  32.774  27.157   4.191
67354W        W38883  38.884   7.393  10.335
67355W        W38884  22.591  23.810   4.525
67356W        W38885  36.440  25.739  11.785
67357W        W38886   3.367  21.367  10.443
67358W        W38887  33.123  22.713  13.896
67359W        W38888  12.386  41.972   4.524
67360W        W38889  21.034  25.280  12.881
67361W        W38890  11.814  43.718  14.312
67362W        W38891  15.947  23.123   3.277
67363W        W38892   9.775  10.966  12.359
67364W        W38893  40.813  28.717   4.648
67365W        W38894  19.328  14.893  14.471
67366W        W38895  32.720  19.530  14.367
67367W        W38896   4.373  15.784  13.975
67368W        W38897  16.742  36.346   3.205
67369W        W38898  36.387  38.304  14.772
67370W        W38899   8.562  11.680  13.299
67371W        W38900  11.533  37.867  14.529
67372W        W38901  31.508  29.560   1.740
67373W        W38902   1.280  44.293   0.412
67374W        W38903  19.277  12.025  14.065
67375W        W38904  28.086  24.660   4.140
67376W        W38905   2.179  37.897  13.525
67377W        W38906   9.967  31.111   1.467
67378W        W38907  28.635  18.286   0.819
67379W        W38908  29.101  30.478  12.931
67380W        W38909  23.573   4.844  12.439
67381W        W38910  20.945  36.844   1.303
67382W        W38911  19.132  22.997   2.169
67383W        W38912  16.138  35.630   3.910
67384W        W38913  31.128  43.397  11.707
67385W        W38914  19.463  37.803   2.198
67386W        W38915  31.925  37.999   2.632
67387W        W38916  39.315  20.595  12.979
67388W        W38917  12.354  26.286  11.066
67389W        W38918   3.280  28.449   3.643
67390W        W38919  10.195  40.722   0.035
67391W        W38920  32.344   5.384  10.682
67392W        W38921  31.659  15.258  14.851
67393W        W38922  27.228  31.648  11.929
67394W        W38923  38.913   1.019   5.312
67395W        W38924   7.635  25.220   2.168
67396W        W38925  38.470   1.573   0.231
67397W        W38926  39.908  10.369  11.416
67398W        W38927  19.118   1.043   4.125
67399W        W38928  35.272  22.310   4.102
67400W        W38929   1.391   2.236   4.248
67401W        W38930   7.795  34.995   3.580
67402W        W38931  11.122  19.497  12.480
67403W        W38932  27.025  22.065  11.691
67404W        W38933  28.655  12.633  14.962
67405W        W38934  39.857   5.414   0.153
67406W        W38935   1.894  35.512   3.844
67407W        W38936  10.602  38.970  10.258
67408W        W38937  13.406  10.196  14.344
67409W        W38938  13.239  14.508   1.305
67410W        W38939  12.798  23.597  14.352
67411W        W38940  40.802  13.195   2.223
67412W        W38941  23.469  28.975   0.930
67413W        W38942   0.333  38.075   0.484
67414W        W38943  37.376  14.045  10.743
67415W        W38944  35.635  29.669   4.901
67416W        W38945  20.173   8.731  14.897
67417W        W38946   8.912  29.708  12.457
67418W        W38947  12.700  34.411   1.700
67419W        W38948  43.417  37.794   1.916
67420W        W38949   4.097  17.034  10.297
67421W        W38950  31.375  31.231  14.879
67422W        W38951   2.864  22.140  13.391
67423W        W38952  36.143  42.223  12.569
67424W        W38953  36.484  18.171  13.536
67425W        W38954   3.414  20.055  12.498
67426W        W38955  42.612  41.595  11.962
67427W        W38956  24.698  10.945  14.438
67428W        W38957  30.966  36.954   4.242
67429W        W38958  17.276  35.621   0.007
67430W        W38959  20.159  28.908   4.111
67431W        W38960  32.053   1.300   4.640
67432W        W38961  32.548  21.007   0.663
67433W        W38962  29.997  37.227   2.673
67434W        W38963   1.914  33.450  13.333
67435W        W38964  18.072  13.849   4.591
67436W        W38965  17.953  30.429   3.019
67437W        W38966  36.934   7.215  11.878
67438W        W38967  27.541  17.699   4.218
67439W        W38968  19.592  28.059   1.456
67440W        W38969  26.145  15.274  14.950
67441W        W38970  41.928  15.988   0.717
67442W        W38971  20.153   4.750   1.731
67443W        W38972  11.808  12.669  13.037
67444W        W38973   9.612   8.174  11.248
67445W        W38974  20.220  13.507  11.211
67446W        W38975  29.066  43.475  12.796
67447W        W38976  25.238  15.282  14.831
67448W        W38977  37.641  15.566   2.788
67449W        W38978  27.752   9.616  12.038
67450W        W38979  30.304   8.867   0.741
67451W        W38980  14.053   0.210   4.677
67452W        W38981  11.887  32.634  10.672
67453W        W38982  16.589  32.498  10.955
67454W        W38983  32.726   9.652  12.540
67455W        W38984  31.661   5.955  12.991
67456W        W38985   0.406   8.610   0.497
67457W        W38986  23.515  28.082  14.357
67458W        W38987  44.695  27.513   1.224
67459W        W38988  10.155   1.305   2.208
67460W        W38989  24.950  39.267   1.316
67461W        W38990  32.770  13.140  14.893
67462W        W38991  10.732  11.670  11.939
67463W        W38992  43.283  44.997  13.485
67464W        W38993   1.557  30.929  12.837
67465W        W38994  25.263  12.644  13.458
67466W        W38995   6.230  15.180   0.677
67467W        W38996  39.230  38.323  14.406
67468W        W38997  28.991  41.230  13.914
67469W        W38998  37.351  27.179   3.743
67470W        W38999   3.408  12.918  11.795
67471W        W39000  25.878  11.621  10.861
67472W        W39001  17.242  22.431  12.443
67473W        W39002  21.933   7.962  13.466
67474W        W39003   6.283  19.655   3.288
67475W        W39004  25.931  10.177  10.262
67476W        W39005  33.500   3.229   0.196
67477W        W39006  38.488  35.572  14.955
67478W        W39007  19.088  10.802   0.372
67479W        W39008  27.256  31.439   3.411
67480W        W39009   7.311  28.886   3.938
67481W        W39010  16.678  22.631   5.768
67482W        W39011  15.711  20.823  14.466
67483W        W39012  32.140  29.186   2.284
67484W        W39013   7.234  30.166   4.168
67485W        W39014  11.428  30.718  11.110
67486W        W39015  28.317  17.951  11.566
67487W        W39016  28.146  33.377   0.881
67488W        W39017   7.111   0.731   0.400
67489W        W39018   7.483  28.506   4.882
67490W        W39019  37.493  25.164  12.806
67491W        W39020  44.407  29.550  11.708
67492W        W39021  40.241  41.295  12.669
67493W        W39022   0.246  16.518   4.551
67494W        W39023  13.943  44.094  14.491
67495W        W39024  21.598  41.309   5.052
67496W        W39025  43.241  41.696   3.354
67497W        W39026   7.993   0.988   3.025
67498W        W39027  23.121  33.365   1.187
67499W        W39028  29.516  27.199  11.543
67500W        W39029  30.262  44.761  12.642
67501W        W39030  29.634  43.401   4.665
67502W        W39031  14.626   1.635  11.685
67503W        W39032   9.396  24.401   2.888
67504W        W39033  44.814  43.546   2.297
67505W        W39034   2.954   3.134   3.607
67506W        W39035  12.436  27.937   2.362
67507W        W39036  42.410  25.157   2.648
67508W        W39037   1.362  39.643   0.815
67509W        W39038  42.256   2.322  14.822
67510W        W39039  39.862  17.153   2.745
67511W        W39040  30.587  38.839   1.643
67512W        W39041  26.108   3.487  13.866
67513W        W39042   0.525  40.279  12.400
67514W        W39043   9.960  23.946  13.164
67515W        W39044  14.570  12.695   4.525
67516W        W39045  26.685  26.985  12.516
67517W        W39046   7.279  25.469  12.134
67518W        W39047  32.887  40.825  11.833
67519W        W39048  12.598  36.373   4.093
67520W        W39049  34.990  21.052  13.109
67521W        W39050   4.435  33.510   0.373
67522W        W39051  22.384  41.182  13.438
67523W        W39052  25.027  15.432   0.322
67524W        W39053  15.417  28.227   5.209
67525W        W39054  16.805  42.071  11.393
67526W        W39055  26.568  25.895   3.707
67527W        W39056  40.573  25.331  14.933
67528W        W39057   5.451  26.585  10.203
67529W        W39058  40.217  40.422   1.990
67530W        W39059  37.026   8.714   2.404
67531W        W39060   9.335  29.684  12.111
67532W        W39061  27.401  42.291  11.801
67533W        W39062   8.688  18.290  12.846
67534W        W39063  30.025  21.459   4.114
67535W        W39064  25.698  38.465  13.359
67536W        W39065  27.993  26.038  11.406
67537W        W39066  39.805  38.758   4.089
67538W        W39067  13.821   7.682  12.791
67539W        W39068   7.689  22.256  12.862
67540W        W39069  22.079  20.973  12.492
67541W        W39070  33.589  16.283  12.316
67542W        W39071  17.991   3.742   3.606
67543W        W39072  26.915  19.299  10.800
67544W        W39073   4.885  22.037  10.504
67545W        W39074  16.069   0.878  13.970
67546W        W39075  20.550   0.490  14.735
67547W        W39076  40.524  12.146  14.236
67548W        W39077  26.571   1.351   4.523
67549W        W39078  32.038  17.801  14.043
67550W        W39079  23.712  35.628  11.580
67551W        W39080   4.354   8.226  14.502
67552W        W39081  14.375   4.872  12.957
67553W        W39082  33.442   7.447   5.092
67554W        W39083  23.769  41.589   3.650
67555W        W39084   5.427  42.165   3.259
67556W        W39085  22.025  20.773  14.844
67557W        W39086  16.664  23.214  14.868
67558W        W39087   1.413  20.640  11.097
67559W        W39088  16.948  22.993   2.255
67560W        W39089  39.922  10.341  11.918
67561W        W39090  24.936  27.158   1.974
67562W        W39091  21.047   0.450  13.651
67563W        W39092  15.298  21.975   1.543
67564W        W39093   0.171   1.666  13.531
67565W        W39094  30.596  16.716   0.256
67566W        W39095  28.136   4.505   3.232
67567W        W39096  31.923  11.655  13.397
67568W        W39097  28.197   4.974  14.904
67569W        W39098   3.671  20.705  14.220
67570W        W39099  40.234  27.342   2.386
67571W        W39100  12.267  37.441  14.341
67572W        W39101  37.666   5.691   3.174
67573W        W39102  30.663  29.426  13.030
67574W        W39103  28.203   8.218  12.549
67575W        W39104   5.459  16.764   0.010
67576W        W39105  27.379  25.992   0.357
67577W        W39106   1.013  33.628  13.372
67578W        W39107   3.257  17.500  13.655
67579W        W39108  17.996  14.600  11.032
67580W        W39109  36.720   0.251   4.440
67581W        W39110  34.106   4.485  14.216
67582W        W39111  42.212  34.121  14.376
67583W        W39112   5.665  38.786   4.133
67584W        W39113   4.687  10.042  13.834
67585W        W39114  12.225  14.076   0.748
67586W        W39115  33.177  27.977   2.824
67587W        W39116  38.409  25.055  12.870
67588W        W39117  24.247  18.677  12.604
67589W        W39118   9.752  25.594   5.034
67590W        W39119  32.288  34.447  14.347
67591W        W39120  25.319  20.543   4.297
67592W        W39121   8.441  42.017  13.873
67593W        W39122  36.923  14.309   4.112
67594W        W39123  32.971  41.998  11.885
67595W        W39124  23.534  33.342  14.941
67596W        W39125  36.874   5.907  11.565
67597W        W39126   7.636   3.816   2.782
67598W        W39127  19.095   1.470   0.867
67599W        W39128   8.724  32.038  10.323
67600W        W39129  44.649  43.112  12.495
67601W        W39130   3.806  26.216  13.498
67602W        W39131  22.071   6.458   4.719
67603W        W39132  40.974  23.240  11.681
67604W        W39133   1.674   0.819   0.892
67605W        W39134  26.217  10.664   3.000
67606W        W39135  28.036  10.182  12.256
67607W        W39136   7.962  42.072   2.710
67608W        W39137  31.093  44.675   1.246
67609W        W39138  40.878  30.194   1.147
67610W        W39139  29.658  43.907   1.976
67611W        W39140  35.814  17.494   2.670
67612W        W39141  14.751  43.001  13.838
67613W        W39142  32.457   5.741  14.988
67614W        W39143  25.058  42.918   4.345
67615W        W39144  29.701  25.251   3.269
67616W        W39145  32.283   6.135   1.791
67617W        W39146   9.176  12.890  11.991
67618W        W39147  33.635   6.770  14.470
67619W        W39148  22.058   8.121   4.298
67620W        W39149   4.764  35.893   4.563
67621W        W39150  40.616  31.575  12.420
67622W        W39151  30.170  31.419   3.733
67623W        W39152   4.821   6.808  11.403
67624W        W39153   5.787   4.192   4.557
67625W        W39154   2.703  13.754   1.730
67626W        W39155  27.437  28.068  14.360
67627W        W39156   2.915  26.057  14.769
67628W        W39157  16.803  39.111  12.876
67629W        W39158   5.955   0.954   1.507
67630W        W39159  26.890   3.785   3.760
67631W        W39160  30.533  20.783  12.979
67632W        W39161  27.956  30.906   0.894
67633W        W39162  23.715  41.117   2.259
67634W        W39163  33.694   5.781   3.250
67635W        W39164  41.349  40.957   5.138
67636W        W39165   7.110  16.602   3.446
67637W        W39166  32.080  14.534  14.988
67638W        W39167  31.477  37.565  11.364
67639W        W39168   8.759  40.583   0.464
67640W        W39169  10.733  21.185  13.968
67641W        W39170  25.653  32.236  11.942
67642W        W39171   6.772  21.741   5.157
67643W        W39172   5.871  33.742   4.410
67644W        W39173   8.423  41.772  11.590
67645W        W39174  34.174   6.845  12.109
67646W        W39175  41.259  41.357  12.333
67647W        W39176  34.027  11.018  11.183
67648W        W39177  27.240  26.740   2.102
67649W        W39178  15.182   7.894   5.508
67650W        W39179  26.855  33.549  13.174
67651W        W39180  27.540  24.921  11.874
67652W        W39181   4.186  39.590  11.995
67653W        W39182  17.538  23.692   0.731
67654W        W39183   3.317  33.921   4.164
67655W        W39184  38.962  15.270   3.305
67656W        W39185   7.251  13.996  11.125
67657W        W39186  29.153  18.188   0.792
67658W        W39187  10.521  11.336   0.944
67659W        W39188  29.995  17.618   2.317
67660W        W39189  43.823  17.694  12.001
67661W        W39190  33.301  13.703   0.422
67662W        W39191  31.616  37.769  12.976
67663W        W39192  43.459  14.777   1.294
67664W        W39193  39.012  21.666   2.751
67665W        W39194   8.727  32.694   1.436
67666W        W39195  26.507  10.004  12.914
67667W        W39196   8.200  12.160  14.396
67668W        W39197  10.871  13.343  11.596
67669W        W39198   9.982  25.910   3.650
67670W        W39199  16.225  40.203  14.866
67671W        W39200  10.583  40.306   0.334
67672W        W39201  36.812  34.111  10.673
67673W        W39202  42.359  20.466   1.687
67674W        W39203  36.960  34.452  11.794
67675W        W39204  26.222  22.491   3.173
67676W        W39205   1.788   9.927   1.286
67677W        W39206  23.874   4.420   1.572
67678W        W39207   5.748  24.413   2.890
67679W        W39208  11.135  19.096   2.274
67680W        W39209  38.075  21.330   2.614
67681W        W39210  39.306  26.601   1.846
67682W        W39211   7.960  21.524   2.376
67683W        W39212   5.438  18.153   3.186
67684W        W39213  42.050  34.755  10.763
67685W        W39214  19.600  17.846   4.134
67686W        W39215  28.231   7.340   2.473
67687W        W39216  30.348  41.532  14.453
67688W        W39217  30.556  10.611   0.994
67689W        W39218  41.960  16.537  14.861
67690W        W39219  40.829  19.376  12.525
67691W        W39220   8.115  32.331  13.406
67692W        W39221   0.830  39.031   1.839
67693W        W39222  44.947  44.989  14.139
67694W        W39223  39.449   7.065   1.753
67695W        W39224  16.052   8.310   2.807
67696W        W39225  29.978  19.239   3.820
67697W        W39226   7.583  16.214   1.190
67698W        W39227   3.177   6.356   3.364
67699W        W39228   4.700  34.716  14.814
67700W        W39229  15.375  32.370   4.771
67701W        W39230   0.337  44.496  10.744
67702W        W39231  43.014  42.921   3.139
67703W        W39232  25.915  44.413  14.343
67704W        W39233   1.740  37.613  14.820
67705W        W39234   9.765  26.867  14.045
67706W        W39235   6.464   5.317  14.226
67707W        W39236   7.664  19.579   0.029
67708W        W39237  10.435  35.612  12.498
67709W        W39238   7.872  16.230   0.741
67710W        W39239  16.907  38.356   4.860
67711W        W39240  28.597  21.031   0.238
67712W        W39241   7.306  36.386   4.747
67713W        W39242  24.193  22.959   0.896
67714W        W39243  35.860   7.190  14.944
67715W        W39244  33.047  18.158  12.405
67716W        W39245   9.386   1.208  14.843
67717W        W39246  38.443  40.084  14.490
67718W        W39247   3.306  17.609   2.775
67719W        W39248  14.266  27.985  11.222
67720W        W39249   6.750  12.537   1.391
67721W        W39250  24.734  40.803  12.922
67722W        W39251   5.360  38.945   4.552
67723W        W39252  10.282   0.290  13.405
67724W        W39253  10.250   2.523  11.050
67725W        W39254   1.185  13.132   1.387
67726W        W39255  40.085  14.801   0.687
67727W        W39256  29.200  18.652   1.723
67728W        W39257  14.270  23.046  10.681
67729W        W39258  10.652  21.153   0.411
67730W        W39259   9.408   7.602  14.481
67731W        W39260  25.682   5.815  14.478
67732W        W39261  13.929   8.448  11.506
67733W        W39262   5.336  24.603  12.111
67734W        W39263  38.454  42.249  13.471
67735W        W39264  10.400  29.373  12.857
67736W        W39265  11.701  26.659  10.485
67737W        W39266  44.385   8.890  13.847
67738W        W39267   0.495  27.252  14.222
67739W        W39268   8.363  25.491   1.822
67740W        W39269   9.062   1.950   0.427
67741W        W39270  23.575  44.030   4.038
67742W        W39271  35.819  13.579  11.173
67743W        W39272  19.996  37.420  14.833
67744W        W39273  37.597  32.981  13.439
67745W        W39274  41.051  44.024  10.758
67746W        W39275  13.633   0.567  12.803
67747W        W39276  18.741   4.411  13.803
67748W        W39277  31.174  40.988   4.621
67749W        W39278  37.582  38.839   5.224
67750W        W39279  11.734   6.671  10.651
67751W        W39280  25.093   6.979  14.974
67752W        W39281  23.064  31.520   3.088
67753W        W39282  41.422  27.418   4.117
67754W        W39283  18.769  44.225   3.331
67755W        W39284  35.751  35.896  13.419
67756W        W39285  18.994  38.938   1.942
67757W        W39286  24.762  41.517  12.572
67758W        W39287  28.871  33.066  11.223
67759W        W39288  41.065   5.823  13.471
67760W        W39289  39.025  40.714   0.737
67761W        W39290   5.931  44.711   0.355
67762W        W39291   8.689  44.017  11.416
67763W        W39292   0.391  15.134   0.779
67764W        W39293  44.998  15.659   3.799
67765W        W39294  36.054  21.550   4.566
67766W        W39295  27.709   0.460   0.816
67767W        W39296   8.134  41.585  14.369
67768W        W39297  24.937  40.935  10.573
67769W        W39298  14.790   4.884   0.670
67770W        W39299  43.738  21.774  12.098
67771W        W39300  32.237  21.753  12.888
67772W        W39301  14.971   7.678  11.168
67773W        W39302  41.819  17.079   3.552
67774W        W39303   7.348   6.270   4.555
67775W        W39304  21.050  14.585  13.001
67776W        W39305  43.340  32.537  11.382
67777W        W39306  36.306   7.650   9.813
67778W        W39307  12.577  32.720  11.463
67779W        W39308  11.215  34.999   2.197
67780W        W39309  23.401   3.862   2.279
67781W        W39310   2.781  42.239   4.543
67782W        W39311  29.912  27.782   3.304
67783W        W39312   5.921  28.148  13.845
67784W        W39313  17.658  38.984   1.158
67785W        W39314  14.322  25.997   1.447
67786W        W39315   1.422  25.112   0.817
67787W        W39316  32.583   8.859  14.058
67788W        W39317  15.471  42.232   0.522
67789W        W39318  26.466  19.749   3.768
67790W        W39319  21.686   8.444  11.489
67791W        W39320  34.584   5.397   2.416
67792W        W39321  35.073  26.186   1.592
67793W        W39322  39.222  43.855  14.841
67794W        W39323   4.563   5.481   0.269
67795W        W39324  26.532  39.288  14.865
67796W        W39325  29.351  44.484  14.082
67797W        W39326  23.363  16.791   0.893
67798W        W39327  24.525  10.236  13.085
67799W        W39328  35.663   8.803   3.245
67800W        W39329  39.953  21.588   4.704
67801W        W39330  40.067  35.610  12.459
67802W        W39331  34.691  15.846   4.792
67803W        W39332  25.379  30.484   2.828
67804W        W39333  24.603   9.488  12.488
67805W        W39334   6.259  22.221   4.087
67806W        W39335  28.450  24.678  13.358
67807W        W39336   4.830  42.323  14.969
67808W        W39337  14.212  41.924   3.569
67809W        W39338  34.406  28.416   1.155
67810W        W39339  34.545   0.476  13.360
67811W        W39340  40.087  15.406   2.085
67812W        W39341  33.874   3.668  11.974
67813W        W39342  18.570  11.331   2.265
67814W        W39343  15.795  16.193   1.285
67815W        W39344  40.141  29.475  13.581
67816W        W39345  32.606  14.349   3.414
67817W        W39346  26.205  43.258   1.248
67818W        W39347  12.091   3.835  14.869
67819W        W39348  34.399  38.955   4.522
67820W        W39349  15.599  25.948  13.037
67821W        W39350  20.760  24.761  14.577
67822W        W39351  36.919  19.682   2.996
67823W        W39352  34.089   1.348  12.526
67824W        W39353  13.305   7.594   0.650
67825W        W39354   8.011  11.757  14.023
67826W        W39355  17.265  16.767  14.546
67827W        W39356  35.662   6.917  12.900
67828W        W39357   0.998  26.239  14.427
67829W        W39358  27.137  15.571   4.799
67830W        W39359  10.739   6.939   1.270
67831W        W39360   3.294  20.555   3.831
67832W        W39361  44.015  25.244  14.382
67833W        W39362  18.981   9.234   4.675
67834W        W39363  25.378   3.627   4.542
67835W        W39364  28.852  24.085   1.308
67836W        W39365  14.498  38.482   1.010
67837W        W39366  20.513  43.582   0.515
67838W        W39367   3.203   0.822  11.926
67839W        W39368  32.248  16.906  14.752
67840W        W39369  17.201  40.904   0.881
67841W        W39370  34.667  16.239   0.918
67842W        W39371  31.668  43.133   2.805
67843W        W39372  22.199  38.711   3.531
67844W        W39373   0.478  11.420  11.115
67845W        W39374  40.423  43.350   1.772
67846W        W39375  27.174  14.144  12.489
67847W        W39376  19.197  30.177  13.860
67848W        W39377  37.725  24.661  14.967
67849W        W39378  43.047   5.935   3.611
67850W        W39379  39.116  16.240   0.836
67851W        W39380  14.089  22.209  12.769
67852W        W39381  26.181   2.319  12.483
67853W        W39382  15.591  44.277  11.159
67854W        W39383  23.623  38.940   0.002
67855W        W39384  16.243  34.170   0.033
67856W        W39385  31.005  42.293  11.231
67857W        W39386  16.611   8.324   4.274
67858W        W39387  42.327   1.968   4.222
67859W        W39388  39.846  14.677  11.196
67860W        W39389  21.451  12.943  13.070
67861W        W39390  12.583  11.745   3.279
67862W        W39391  25.220  22.003   3.852
67863W        W39392  39.364  40.965   1.616
67864W        W39393  25.216  43.388   4.622
67865W        W39394  37.560  16.530   2.461
67866W        W39395  10.381  27.214   1.964
67867W        W39396  31.005   1.476  14.479
67868W        W39397  41.288  17.968  14.505
67869W        W39398  15.211   5.892  13.370
67870W        W39399  11.210  12.951   0.867
67871W        W39400  40.953   7.640  12.915
67872W        W39401   2.420  16.366   1.924
67873W        W39402   0.869  20.288   0.427
67874W        W39403   7.671  31.198  12.472
67875W        W39404  28.166  33.951  12.860
67876W        W39405  38.086  30.959  12.061
67877W        W39406  22.290  19.253  13.605
67878W        W39407   8.293   2.506   0.662
67879W        W39408  24.143  25.453   4.137
67880W        W39409  39.534  32.409   1.306
67881W        W39410  23.051   3.882   1.886
67882W        W39411   0.647   3.833   3.206
67883W        W39412   6.447  21.531  14.451
67884W        W39413  43.165  42.833  10.693
67885W        W39414  15.332  43.877  11.760
67886W        W39415  32.483  16.852  11.971
67887W        W39416  42.360  20.953   2.956
67888W        W39417  31.250   0.444  11.459
67889W        W39418  29.972  10.886  14.838
67890W        W39419  15.732  13.608  13.704
67891W        W39420  38.464  32.565  13.133
67892W        W39421  25.669  43.236  12.061
67893W        W39422  28.992  31.037  12.142
67894W        W39423   0.262  18.424  14.265
67895W        W39424  30.880  31.048   3.620
67896W        W39425   7.864   0.418   2.339
67897W        W39426  41.487  42.878   4.895
67898W        W39427  19.665   5.132  10.393
67899W        W39428  41.322   6.207  10.412
67900W        W39429  39.206   6.214   2.956
67901W        W39430   2.061   8.730   2.183
67902W        W39431   4.515  10.659   1.984
67903W        W39432   0.465   6.109   3.649
67904W        W39433   5.902  32.090   1.418
67905W        W39434   9.122  40.452  13.599
67906W        W39435  14.064  25.547   0.798
67907W        W39436  15.608  11.411  14.829
67908W        W39437   3.804  24.983  14.813
67909W        W39438   6.313  27.021   0.401
67910W        W39439  27.758  33.057   3.740
67911W        W39440  16.558  38.923  14.785
67912W        W39441   3.442   5.149  11.696
67913W        W39442  31.014  11.648   4.775
67914W        W39443  43.521  44.693   1.420
67915W        W39444   3.975   1.449  11.846
67916W        W39445  35.596  41.582  12.047
67917W        W39446   0.367  24.145  12.039
67918W        W39447  20.088  33.338   3.176
67919W        W39448  13.256   5.254  10.480
67920W        W39449  27.644  40.343  12.535
67921W        W39450   7.905  27.564  13.029
67922W        W39451  33.047  44.544   3.983
67923W        W39452  17.712  22.273   2.018
67924W        W39453  35.414  28.573  11.238
67925W        W39454  43.439  21.225  12.071
67926W        W39455  21.737   8.441   2.096
67927W        W39456  18.520   5.708   2.298
67928W        W39457  20.480  37.481  13.041
67929W        W39458   9.287  34.119   1.325
67930W        W39459  41.624  39.804   1.465
67931W        W39460  26.827   8.813  11.593
67932W        W39461  17.382  33.310  11.340
67933W        W39462  18.588   5.230  13.454
67934W        W39463  15.286  16.611  11.995
67935W        W39464   8.833  12.683   3.299
67936W        W39465  21.138  33.877   3.781
67937W        W39466   5.569  12.957  13.399
67938W        W39467  28.421  31.200  14.999
67939W        W39468  18.706  24.210   4.054
67940W        W39469   6.779  27.656  14.611
67941W        W39470  29.662  35.549   3.426
67942W        W39471  18.636  24.666  12.629
67943W        W39472   4.650  33.484   3.296
67944W        W39473  17.053  20.609   1.282
67945W        W39474   4.722  25.642   1.169
67946W        W39475  28.564   8.654   4.933
67947W        W39476  31.663  22.239  10.730
67948W        W39477  10.658  17.581   0.475
67949W        W39478  24.647  16.668  14.909
67950W        W39479  44.409  26.994   1.959
67951W        W39480  34.010  26.256  11.586
67952W        W39481  43.277  23.819  12.552
67953W        W39482  32.004  10.111  13.277
67954W        W39483  43.918  28.214   1.877
67955W        W39484   8.281  24.630  10.489
67956W        W39485  24.539  33.973  14.412
67957W        W39486  13.252  27.484  13.015
67958W        W39487  29.129  10.855  14.244
67959W        W39488  30.496  33.052   0.766
67960W        W39489  24.959   1.336   1.550
67961W        W39490  39.062   2.323   4.114
67962W        W39491  10.768  30.504   1.915
67963W        W39492   0.189  16.816   4.137
67964W        W39493  41.186  21.757   4.054
67965W        W39494  40.578  11.453   0.781
67966W        W39495   8.119  40.598  13.510
67967W        W39496  26.072  22.194  12.160
67968W        W39497  17.875  22.794   4.179
67969W        W39498  20.446  40.262   2.834
67970W        W39499  23.775  24.559   2.931
67971W        W39500  43.272  39.394   4.652
67972W        W39501   7.466  18.317   3.666
67973W        W39502  23.587  18.801   1.314
67974W        W39503  13.573  41.886  10.687
67975W        W39504  21.535  43.343  10.653
67976W        W39505   7.768  35.544  11.592
67977W        W39506  17.774  39.227  11.428
67978W        W39507  33.508  10.862  13.853
67979W        W39508  11.337  36.135   4.407
67980W        W39509  38.525  33.397   4.525
67981W        W39510  30.916  44.681  14.900
67982W        W39511  12.773   9.662   4.186
67983W        W39512  17.494  22.071  12.687
67984W        W39513  37.210  29.571  13.374
67985W        W39514  13.685  36.912  12.412
67986W        W39515  37.300   0.157  11.330
67987W        W39516  34.989  22.775  13.010
67988W        W39517  25.027   7.411  11.533
67989W        W39518  19.468  11.013  12.157
67990W        W39519  26.722   4.516   0.787
67991W        W39520  33.597  36.458   1.717
67992W        W39521  12.512  43.096  11.610
67993W        W39522  14.606  14.155   5.029
67994W        W39523  14.059   3.307   4.255
67995W        W39524  34.788  11.685  14.207
67996W        W39525  39.357  19.569   1.286
67997W        W39526   6.684  23.526   0.857
67998W        W39527  16.881   1.345  14.929
67999W        W39528  33.391  31.402   4.591
68000W        W39529   8.712  11.884   2.203
68001W        W39530  24.480  21.800   1.794
68002W        W39531  41.860  10.330   0.482
68003W        W39532  41.094  29.482  13.046
68004W        W39533  28.776  15.317   4.568
68005W        W39534  16.814  22.783   2.883
68006W        W39535  33.543   2.433  14.677
68007W        W39536  35.811  23.198   3.255
68008W        W39537  27.186  15.126   5.681
68009W        W39538   9.860  18.799  12.438
68010W        W39539   2.585  43.939   3.836
68011W        W39540  18.325  31.702   3.177
68012W        W39541  27.379  37.314  11.086
68013W        W39542  19.240  27.217   4.117
68014W        W39543   7.690  17.216  10.738
68015W        W39544   3.367  35.033   3.363
68016W        W39545  16.809  43.434   3.386
68017W        W39546  23.530  15.252  14.468
68018W        W39547  31.048  17.559  12.035
68019W        W39548  22.482   3.530  11.456
68020W        W39549  17.579  39.595  12.385
68021W        W39550   5.124  18.721   2.043
68022W        W39551   2.823  40.937  11.498
68023W        W39552  33.321  23.497  14.898
68024W        W39553  32.618  28.872   4.479
68025W        W39554  13.641  42.855   0.406
68026W        W39555  37.742  38.144   1.115
68027W        W39556   7.212   2.437   1.840
68028W        W39557  26.335  35.025  12.266
68029W        W39558   1.586  14.930   1.631
68030W        W39559  36.435   3.356   1.854
68031W        W39560  39.194  17.244   4.131
68032W        W39561  20.634  20.655   1.224
68033W        W39562   3.260  37.329   1.469
68034W        W39563  15.206  39.158   0.783
68035W        W39564  31.732  32.127  14.912
68036W        W39565   5.976   3.874   0.953
68037W        W39566   0.751  11.129   3.373
68038W        W39567  12.716  13.287   0.397
68039W        W39568   1.422   1.866  10.629
68040W        W39569   5.827  33.099   0.292
68041W        W39570  29.863  42.030   1.999
68042W        W39571  23.163  10.836  11.770
68043W        W39572  29.139  18.523  10.789
68044W        W39573  38.633  30.550  13.128
68045W        W39574  16.846  25.632  14.783
68046W        W39575  38.539  42.005  11.608
68047W        W39576  30.489  32.856   2.299
68048W        W39577   0.285  19.084  14.950
68049W        W39578  10.202   8.794  13.688
68050W        W39579  15.141  16.243   2.380
68051W        W39580  33.833  42.529  10.429
68052W        W39581  28.139  21.007  13.429
68053W        W39582  41.711  27.087  13.368
68054W        W39583   0.308   8.049  13.479
68055W        W39584  21.039  16.075   1.664
68056W        W39585  20.225  34.188   2.863
68057W        W39586  38.353  36.361   2.678
68058W        W39587  10.177   8.130   2.797
68059W        W39588  25.550   1.417  14.778
68060W        W39589  18.919  42.462   0.843
68061W        W39590  33.925  12.083   1.454
68062W        W39591  15.279  44.274  13.758
68063W        W39592  26.960  40.925   2.804
68064W        W39593  41.956  42.416  13.238
68065W        W39594   0.818   7.127  11.154
68066W        W39595  38.430  44.543  13.248
68067W        W39596  37.878  22.540   2.861
68068W        W39597  30.020  41.350  14.835
68069W        W39598  40.292  37.187   3.128
68070W        W39599  18.103  17.185   2.789
68071W        W39600  39.308  24.592   0.990
68072W        W39601   4.068  18.852   3.375
68073W        W39602   5.808  19.285   2.167
68074W        W39603  34.552  28.866   1.369
68075W        W39604  30.429  18.376   2.273
68076W        W39605  28.021   0.010  11.973
68077W        W39606  42.706  28.724   1.708
68078W        W39607  26.629  44.197  13.509
68079W        W39608  33.974  34.273   1.823
68080W        W39609  10.124  42.108  12.651
68081W        W39610   3.286  19.636  11.626
68082W        W39611  23.573  40.829   4.158
68083W        W39612  29.236  38.904   4.667
68084W        W39613  22.167  19.048  14.901
68085W        W39614   5.993  39.863  10.696
68086W        W39615   3.784  11.305  10.949
68087W        W39616  14.736  40.489   0.983
68088W        W39617  29.589  33.872  10.291
68089W        W39618  14.829  19.579  11.093
68090W        W39619  37.412   4.642   3.837
68091W        W39620   3.016  18.020   3.107
68092W        W39621  29.582  42.963   4.005
68093W        W39622  14.118  21.187  13.979
68094W        W39623  24.981  14.020  14.379
68095W        W39624   3.782  39.451   3.242
68096W        W39625  18.136   0.378   4.722
68097W        W39626   2.891  15.090   1.399
68098W        W39627   3.648  13.747  12.015
68099W        W39628   4.232  33.289   1.221
68100W        W39629  26.793  18.201  11.327
68101W        W39630  25.291  21.123   0.635
68102W        W39631  26.648  44.097  11.253
68103W        W39632   1.800   6.781  14.356
68104W        W39633  10.713  17.954  14.388
68105W        W39634  13.818   8.692   5.274
68106W        W39635  19.720  10.588   2.600
68107W        W39636  42.043  36.943  13.400
68108W        W39637  27.952  43.953   2.266
68109W        W39638  10.656  29.933  12.189
68110W        W39639  34.595  21.308   1.674
68111W        W39640  34.375   6.245   0.068
68112W        W39641  23.526  19.221   1.000
68113W        W39642  36.928  19.602  11.690
68114W        W39643   9.942   3.776   1.728
68115W        W39644  36.246  29.519   1.417
68116W        W39645  44.229   8.924  11.180
68117W        W39646  30.563   5.855  14.905
68118W        W39647   7.252  12.249  12.449
68119W        W39648  20.027  37.803  11.105
68120W        W39649  20.604  39.879  12.633
68121W        W39650  13.324  10.669   0.428
68122W        W39651  26.608  27.212  13.843
68123W        W39652  12.703  30.868  13.044
68124W        W39653  41.902   4.633   2.663
68125W        W39654  18.943  19.226   3.039
68126W        W39655  41.091  20.645  11.898
68127W        W39656  39.784  19.046   1.669
68128W        W39657   9.920   7.525   4.241
68129W        W39658   4.369   7.511   3.618
68130W        W39659  20.678   3.099  11.022
68131W        W39660  15.262  37.783  14.802
68132W        W39661   4.291  22.262  13.496
68133W        W39662   6.179  20.678   4.288
68134W        W39663   8.399  12.962   2.771
68135W        W39664  30.041  37.522  10.486
68136W        W39665  14.317  39.837  12.938
68137W        W39666   4.555  29.132   4.100
68138W        W39667  40.450   4.202   0.035
68139W        W39668  20.165  17.273  13.106
68140W        W39669   7.297   0.352   4.713
68141W        W39670   6.916  13.737   4.551
68142W        W39671   4.482  16.756   2.471
68143W        W39672  34.517  39.633  11.294
68144W        W39673  20.927  21.492  10.994
68145W        W39674  24.457  32.153   2.300
68146W        W39675   9.702  11.686   0.448
68147W        W39676  36.333  29.660  14.363
68148W        W39677  35.036   0.523   1.248
68149W        W39678  33.934  22.532  12.014
68150W        W39679   7.249  25.497   1.884
68151W        W39680  19.357   8.796  12.412
68152W        W39681  17.789   0.521  11.519
68153W        W39682  40.400  43.373   3.074
68154W        W39683  29.334  36.120   4.032
68155W        W39684  41.942  16.990   0.793
68156W        W39685   8.152  23.464   4.069
68157W        W39686   3.349  16.299   2.684
68158W        W39687  13.987  29.341   4.967
68159W        W39688  32.917  33.404  14.259
68160W        W39689  13.884  24.452   3.658
68161W        W39690   6.970   0.500   2.256
68162W        W39691  31.849  34.986   1.450
68163W        W39692  16.308   2.014  13.114
68164W        W39693   3.578   7.005   2.911
68165W        W39694   7.407  17.742  13.880
68166W        W39695   9.085  41.333   4.275
68167W        W39696   1.004  15.911  12.733
68168W        W39697  30.008  41.091  13.828
68169W        W39698  14.368  28.219  14.802
68170W        W39699  28.874  13.668   3.623
68171W        W39700  21.671  40.039  12.910
68172W        W39701  37.010  39.168   2.205
68173W        W39702  36.041  25.210  13.012
68174W        W39703  24.663  28.092  14.231
68175W        W39704   0.498   1.735  13.941
68176W        W39705  27.139   2.681  14.453
68177W        W39706   1.756   0.757   3.549
68178W        W39707  13.890   7.457  13.514
68179W        W39708  14.036  22.616   3.702
68180W        W39709  36.494  35.906   0.039
68181W        W39710   9.208  24.618   1.059
68182W        W39711  21.180  44.389  10.505
68183W        W39712   7.418  14.334  14.747
68184W        W39713   2.018  40.819  14.341
68185W        W39714   5.819  28.129  11.382
68186W        W39715   3.784  37.868   3.242
68187W        W39716  13.842  34.578   4.532
68188W        W39717  31.216   8.503   1.542
68189W        W39718  33.454  25.293   1.530
68190W        W39719  27.285   1.714   0.367
68191W        W39720  21.768   0.543   2.954
68192W        W39721   5.192   2.314   0.741
68193W        W39722  38.084  41.083  13.080
68194W        W39723  35.959  40.929   2.336
68195W        W39724   9.363  26.670  13.113
68196W        W39725  18.830  40.494   2.252
68197W        W39726  17.186   8.906  10.996
68198W        W39727  28.140  18.253   2.098
68199W        W39728  26.882  31.071  10.514
68200W        W39729   1.632  40.542   2.657
68201W        W39730  20.237  35.135  10.552
68202W        W39731   6.883  10.349  13.358
68203W        W39732  13.721  18.994   3.521
68204W        W39733  26.752  41.884   1.783
68205W        W39734  41.890   2.271   0.205
68206W        W39735  42.253   1.420   1.672
68207W        W39736  18.136  11.328   1.306
68208W        W39737  14.747  23.908   5.002
68209W        W39738  17.563  16.199   4.099
68210W        W39739   5.291  33.984  11.425
68211W        W39740  35.167  44.358  11.516
68212W        W39741  25.048   0.576   0.916
68213W        W39742  35.138  16.238  14.868
68214W        W39743  33.530  37.530  14.742
68215W        W39744  39.830  38.815   0.364
68216W        W39745  13.631  34.659   3.604
68217W        W39746  43.700   2.858  14.979
68218W        W39747  35.508  34.387   1.003
68219W        W39748  18.121  11.845  12.892
68220W        W39749   8.334  21.482  11.167
68221W        W39750  15.181   4.350  14.000
68222W        W39751  19.807   4.275  10.645
68223W        W39752  35.182  37.820  13.177
68224W        W39753   8.650   7.312   3.071
68225W        W39754  36.379  44.950   1.730
68226W        W39755  24.611  35.643  10.508
68227W        W39756   5.897  33.618  13.470
68228W        W39757  42.918  39.988   1.191
68229W        W39758  38.468  38.577  10.344
68230W        W39759  32.753   1.715   4.732
68231W        W39760  40.970  18.640   3.538
68232W        W39761  16.742  17.433   0.831
68233W        W39762  21.733  40.596   2.355
68234W        W39763  26.978   1.899   2.260
68235W        W39764   1.877   8.887  12.612
68236W        W39765   5.366  21.091   4.744
68237W        W39766  27.121  22.677  14.363
68238W        W39767   9.827  37.051  11.067
68239W        W39768   0.428  16.700   0.462
68240W        W39769  44.934  19.169   3.704
68241W        W39770  30.178  24.194  12.855
68242W        W39771   5.184  36.490   2.859
68243W        W39772  39.119  31.402   1.002
68244W        W39773   3.827  11.499   1.095
68245W        W39774  26.731  16.016   1.795
68246W        W39775  31.110  43.707  10.865
68247W        W39776  18.078   7.300   0.521
68248W        W39777  35.868  18.768   1.444
68249W        W39778  34.864  39.735   1.855
68250W        W39779  28.226  26.238   0.696
68251W        W39780  14.063  31.833   1.260
68252W        W39781  37.020   9.887  11.013
68253W        W39782  42.558  21.522  12.945
68254W        W39783  34.075  27.434  12.566
68255W        W39784   9.274  35.060   4.193
68256W        W39785  28.215  27.471   4.771
68257W        W39786  12.636  35.380   3.633
68258W        W39787   5.771  19.163  12.838
68259W        W39788  25.477   0.523  13.431
68260W        W39789  29.137   3.417   3.735
68261W        W39790  14.009  40.194   0.347
68262W        W39791   9.326  36.520  13.469
68263W        W39792  25.969  17.045  11.132
68264W        W39793  23.093  11.208   2.484
68265W        W39794  38.566   3.361  11.543
68266W        W39795  28.478  15.558   3.188
68267W        W39796  38.518  13.651   4.462
68268W        W39797   1.163  13.685  11.477
68269W        W39798  35.434  44.978   3.281
68270W        W39799  29.153  13.978   0.895
68271W        W39800  19.543  30.243   3.684
68272W        W39801   6.829   2.397  13.357
68273W        W39802  43.584   6.992   0.869
68274W        W39803  32.335  29.970  11.693
68275W        W39804  15.581  33.034   0.457
68276W        W39805  19.830  35.559   4.353
68277W        W39806  25.224  10.698   1.403
68278W        W39807  18.830  18.715  12.552
68279W        W39808  22.286  43.684   0.260
68280W        W39809  13.327  30.456   9.729
68281W        W39810   2.371   4.370   3.613
68282W        W39811  23.782   1.916   2.900
68283W        W39812   8.368  29.042  13.869
68284W        W39813  36.561  11.947   1.924
68285W        W39814  38.553  27.133  11.578
68286W        W39815   8.888   4.211  11.026
68287W        W39816   9.679   3.379   3.371
68288W        W39817  19.015  18.483   0.324
68289W        W39818   7.427  22.673   1.331
68290W        W39819   9.339  30.852   3.214
68291W        W39820  13.880  22.933  11.716
68292W        W39821   8.751  35.326  12.122
68293W        W39822  18.380  16.804  13.320
68294W        W39823  21.921  39.369   3.095
68295W        W39824  28.115  15.350  12.459
68296W        W39825  10.749  34.251  12.794
68297W        W39826   5.901  14.554   1.511
68298W        W39827  13.079   5.281  14.747
68299W        W39828  22.069  33.858  13.089
68300W        W39829  44.330  14.105  12.855
68301W        W39830   9.791  38.731   0.812
68302W        W39831  13.527  32.399  13.468
68303W        W39832  27.886  39.846  14.827
68304W        W39833   1.909  36.662  11.255
68305W        W39834  32.114  31.117  12.011
68306W        W39835  18.799  13.091  12.943
68307W        W39836  23.146  18.795   2.177
68308W        W39837  38.210  42.536  13.976
68309W        W39838  15.835   3.644  11.547
68310W        W39839  25.508  16.737  12.145
68311W        W39840   0.433  16.761   0.970
68312W        W39841  15.770  15.582   2.348
68313W        W39842  22.910   2.770   1.320
68314W        W39843   9.805  37.505   2.158
68315W        W39844  25.048  29.488  11.260
68316W        W39845  33.346  13.642  13.664
68317W        W39846  42.942  43.990  12.522
68318W        W39847  30.587  27.957   0.203
68319W        W39848  40.028  44.445   2.931
68320W        W39849  33.524  12.891   3.823
68321W        W39850  39.333  26.451   1.145
68322W        W39851   9.799  35.867   0.341
68323W        W39852  36.516  43.544   0.970
68324W        W39853  37.473   4.441  10.759
68325W        W39854  22.179   0.683   3.286
68326W        W39855  31.616   5.712   4.180
68327W        W39856   8.939  15.808  11.108
68328W        W39857  43.170  12.272  10.735
68329W        W39858  21.521  20.270  12.490
68330W        W39859  10.236  44.535   0.280
68331W        W39860  25.051  16.588  13.767
68332W        W39861  18.328  10.870   2.423
68333W        W39862  10.287  38.043  12.500
68334W        W39863  37.670  24.063  12.075
68335W        W39864   1.894  20.925   2.360
68336W        W39865  32.001  24.730   1.371
68337W        W39866   4.426  13.823  11.179
68338W        W39867  27.979   3.038  13.333
68339W        W39868  25.388   5.684  14.068
68340W        W39869  32.861  20.077   4.685
68341W        W39870  30.536  35.172  12.470
68342W        W39871   5.431  34.484   3.898
68343W        W39872  40.929  24.723  13.796
68344W        W39873  22.735  25.554  13.931
68345W        W39874  17.089  42.963  12.943
68346W        W39875   0.257   0.484   0.271
68347W        W39876  38.703   7.193   4.154
68348W        W39877  12.574  32.443   2.780
68349W        W39878  13.540   0.318   1.343
68350W        W39879  12.570  43.834   1.151
68351W        W39880  12.725  27.212   0.403
68352W        W39881  19.544  34.372  13.070
68353W        W39882  35.847  17.737   3.141
68354W        W39883   6.731  35.093   2.676
68355W        W39884  41.496   6.809  14.683
68356W        W39885  23.414  15.779  13.222
68357W        W39886  22.477  19.686   3.507
68358W        W39887  22.477   6.747  13.395
68359W        W39888  27.695  12.047   0.741
68360W        W39889  35.435  34.908   0.930
68361W        W39890  25.144   1.192   4.113
68362W        W39891   9.543   9.159  11.152
68363W        W39892  41.115  43.833  14.960
68364W        W39893  32.019  31.922  13.445
68365W        W39894  18.473   9.937  10.209
68366W        W39895  33.568  18.568   0.844
68367W        W39896  34.132  36.463  11.944
68368W        W39897  32.559  20.597   0.981
68369W        W39898  35.129  39.712  10.145
68370W        W39899  10.265  17.592   4.309
68371W        W39900  14.364  13.042  14.345
68372W        W39901  37.944  37.571   3.293
68373W        W39902  10.845   1.672   5.721
68374W        W39903  16.423  41.904   4.156
68375W        W39904  15.552   5.044  13.521
68376W        W39905  21.460  42.417   5.211
68377W        W39906  24.765  13.941  11.094
68378W        W39907  35.922  37.339  14.856
68379W        W39908  15.601  18.943  13.507
68380W        W39909  16.518  12.961  10.895
68381W        W39910  34.946  25.711  11.900
68382W        W39911  30.755  21.324   0.829
68383W        W39912  30.582  29.949   1.762
68384W        W39913   8.740   7.224  14.127
68385W        W39914   7.646  38.981  11.638
68386W        W39915  13.096  37.415   3.249
68387W        W39916  28.674  12.286   0.940
68388W        W39917   6.343  35.495  10.136
68389W        W39918  26.650  16.584   2.651
68390W        W39919  37.962   6.078  13.225
68391W        W39920  29.786  18.913   2.623
68392W        W39921  44.896  42.547  12.986
68393W        W39922  36.138  30.114  11.636
68394W        W39923  31.548  39.002  13.483
68395W        W39924  31.940   9.373  14.578
68396W        W39925  43.111  35.379  14.479
68397W        W39926  20.639  30.582   0.934
68398W        W39927  13.846  28.537  10.674
68399W        W39928  13.393  18.542   0.666
68400W        W39929  39.250  20.229   3.109
68401W        W39930  24.786  31.170   0.613
68402W        W39931  41.982  28.161  14.323
68403W        W39932  23.853  40.164   4.896
68404W        W39933  19.924  14.512  11.271
68405W        W39934  40.013   5.356   1.444
68406W        W39935  14.448  44.684   2.338
68407W        W39936   3.222  38.258  11.990
68408W        W39937  11.727  35.853   3.654
68409W        W39938  39.429   6.707   0.550
68410W        W39939  35.518   0.474   3.376
68411W        W39940  35.376  30.590  12.893
68412W        W39941  16.681  35.373   4.610
68413W        W39942  13.273  25.600   3.726
68414W        W39943  24.035  33.325   1.935
68415W        W39944  19.286  24.046  13.039
68416W        W39945  26.630  11.666  13.412
68417W        W39946  10.754  15.603  12.070
68418W        W39947  22.636  18.796   3.886
68419W        W39948  17.360  12.920  12.903
68420W        W39949   8.494   1.449  10.513
68421W        W39950  39.785  24.466   1.911
68422W        W39951   6.245   7.542  13.896
68423W        W39952  14.186  39.400   4.881
68424W        W39953   4.726  43.328   4.554
68425W        W39954   6.495  12.337  10.572
68426W        W39955   3.520  17.571   0.481
68427W        W39956  19.405   0.964  11.050
68428W        W39957  33.443   3.279   5.112
68429W        W39958  35.083  17.144  12.133
68430W        W39959  15.551  19.073  14.004
68431W        W39960  23.520   5.766  14.453
68432W        W39961  11.792  17.741   3.628
68433W        W39962  14.864  17.405   0.330
68434W        W39963  23.105  14.017  13.540
68435W        W39964  35.906  17.607  11.560
68436W        W39965  26.147   5.174  12.909
68437W        W39966  44.011  32.316  14.070
68438W        W39967   9.447  23.636   3.616
68439W        W39968   8.769  41.031   0.207
68440W        W39969  17.334  33.028  13.297
68441W        W39970  27.341  29.663  12.553
68442W        W39971   6.563  11.493   1.396
68443W        W39972   0.228  18.136   2.352
68444W        W39973   9.646  29.072  13.382
68445W        W39974  33.035  44.210   3.584
68446W        W39975  32.505   0.541  13.617
68447W        W39976  12.109  40.281   0.434
68448W        W39977  31.366   3.918  13.008
68449W        W39978  35.099  12.508   4.063
68450W        W39979  42.697  17.999   3.250
68451W        W39980   1.510  36.288  10.707
68452W        W39981  13.188  38.809  12.935
68453W        W39982   3.762  40.861   3.236
68454W        W39983  21.562  23.156   1.727
68455W        W39984  19.686  41.239   2.347
68456W        W39985  19.787  20.003   2.436
68457W        W39986  26.900  32.599  10.681
68458W        W39987  17.667   9.178  13.558
68459W        W39988  12.338  23.332  13.464
68460W        W39989  21.730   7.234  10.968
68461W        W39990  20.958  15.612  12.012
68462W        W39991  26.863   2.011   1.746
68463W        W39992  12.108  38.137   1.299
68464W        W39993   2.721  16.850   0.746
68465W        W39994   7.913   8.175  14.441
68466W        W39995  21.719  40.562   0.281
68467W        W39996  42.829  44.789   3.345
68468W        W39997   6.476  29.016   0.460
68469W        W39998  10.628  16.749   1.888
68470W        W39999  11.265   1.803   0.725
68471W        W40000  18.214   8.131  12.138
68472W        W40001  13.812   5.475   3.262
68473W        W40002   8.354  43.211   0.008
68474W        W40003  33.349  14.875   2.373
68475W        W40004  19.110  10.161   4.066
68476W        W40005  43.483  41.118  11.913
68477W        W40006  35.153  32.544   0.725
68478W        W40007  16.751  17.540  11.961
68479W        W40008  14.529  35.117   3.954
68480W        W40009  11.294  41.245   4.129
68481W        W40010   3.856   8.328   0.385
68482W        W40011  11.611  25.970   4.653
68483W        W40012  23.621  35.885   3.102
68484W        W40013  18.035  41.782   3.421
68485W        W40014   4.173   1.471   3.739
68486W        W40015   2.288  10.320  11.891
68487W        W40016  37.656   7.593  14.265
68488W        W40017  20.017  28.673   2.346
68489W        W40018   3.522   6.731   4.241
68490W        W40019  43.269  31.358   2.825
68491W        W40020   7.705  18.439   2.231
68492W        W40021  30.981   0.364  12.776
68493W        W40022  30.536  36.644   1.753
68494W        W40023  14.180  19.617  14.449
68495W        W40024  10.318   8.180  13.513
68496W        W40025  33.257  32.470  13.349
68497W        W40026  20.803  43.857   1.464
68498W        W40027  33.570  28.964  14.970
68499W        W40028   1.516   5.343  11.356
68500W        W40029  12.341  40.288  14.433
68501W        W40030  31.836  23.153  13.504
68502W        W40031  23.011  30.828  13.275
68503W        W40032  27.476  27.635   2.348
68504W        W40033   0.786  21.136  13.239
68505W        W40034  17.773  33.826   0.971
68506W        W40035  33.060   9.922  12.864
68507W        W40036  17.133  42.894   4.405
68508W        W40037   6.396  26.686   0.817
68509W        W40038  40.518   5.302   3.301
68510W        W40039   5.698  10.249  13.874
68511W        W40040  27.753  19.509  14.718
68512W        W40041  18.299   7.197   4.219
68513W        W40042  18.282   6.297   1.586
68514W        W40043  37.014  28.994   3.885
68515W        W40044  26.883  10.066   3.385
68516W        W40045  36.506  40.177   4.582
68517W        W40046   7.982  12.283   3.612
68518W        W40047   6.757  10.211   2.440
68519W        W40048  20.810  17.846   4.056
68520W        W40049   4.131  17.121   2.404
68521W        W40050  37.362  27.789   5.266
68522W        W40051   7.752  39.039   0.844
68523W        W40052   1.543  43.457   1.399
68524W        W40053  17.256  41.320   3.376
68525W        W40054  42.403  18.241  12.990
68526W        W40055  12.777  29.327  11.243
68527W        W40056  30.213  21.592  13.996
68528W        W40057  38.065  31.828  11.173
68529W        W40058   4.932  42.534   2.413
68530W        W40059   7.416   9.813   3.644
68531W        W40060  22.240  19.818   2.680
68532W        W40061  35.921  23.672   0.316
68533W        W40062  34.808  29.667  12.461
68534W        W40063  17.819   9.878   0.979
68535W        W40064  21.608  13.819   2.807
68536W        W40065  29.003  10.745  14.724
68537W        W40066  25.195   3.532   1.042
68538W        W40067  37.037  15.802   0.547
68539W        W40068  20.988  43.419   1.226
68540W        W40069  42.814  31.990  11.931
68541W        W40070  41.503   6.024  11.262
68542W        W40071  28.124  18.372  11.792
68543W        W40072   8.228  28.388  12.484
68544W        W40073  33.614  14.296  14.439
68545W        W40074  25.114   4.743  11.669
68546W        W40075  24.673   3.914  13.370
68547W        W40076   5.500  13.802  11.240
68548W        W40077   0.407  13.862   2.684
68549W        W40078  14.783   5.429  13.787
68550W        W40079   2.999  28.748   4.778
68551W        W40080  15.344   3.906   0.230
68552W        W40081  15.418  43.500  13.335
68553W        W40082   8.328   0.289   4.577
68554W        W40083  17.584  36.519   2.715
68555W        W40084  19.230  40.261   3.884
68556W        W40085  27.673  24.868  10.481
68557W        W40086   5.089  22.279   2.666
68558W        W40087  43.972  36.033   3.405
68559W        W40088   7.192  26.211   0.253
68560W        W40089  31.603  39.770   0.993
68561W        W40090  17.252   6.660   5.045
68562W        W40091  33.336  13.393   4.023
68563W        W40092   6.619   6.294  12.118
68564W        W40093   0.952  40.014   2.673
68565W        W40094   9.043  11.645  14.933
68566W        W40095  29.751  29.194  10.364
68567W        W40096  37.412  44.583  12.434
68568W        W40097  23.634   2.626   3.575
68569W        W40098   2.346   8.402   3.127
68570W        W40099  15.024  42.310   2.684
68571W        W40100   4.790  40.517  12.191
68572W        W40101   1.468   8.258  14.252
68573W        W40102  14.617   2.371  14.989
68574W        W40103  14.717  16.219  14.888
68575W        W40104   1.919  26.039  12.212
68576W        W40105  43.651  39.379  11.108
68577W        W40106   2.732  24.131   3.550
68578W        W40107   1.594  16.001   1.455
68579W        W40108  14.248  21.382   2.225
68580W        W40109   6.128  28.000  14.319
68581W        W40110  41.362   8.604   2.698
68582W        W40111   5.787   8.932  11.895
68583W        W40112  21.729   7.010   3.234
68584W        W40113  22.974  17.364   4.477
68585W        W40114   5.530  33.168   0.831
68586W        W40115  18.535  28.494   2.798
68587W        W40116   8.170  24.003  13.117
68588W        W40117  38.327  43.737   3.128
68589W        W40118  17.317   7.915  11.196
68590W        W40119  15.414  21.528  11.453
68591W        W40120  15.025  42.984  11.062
68592W        W40121  44.917   9.669  13.433
68593W        W40122  42.552  10.895  12.002
68594W        W40123  33.613  39.524  14.005
68595W        W40124  38.223  27.531   2.111
68596W        W40125  23.415  27.097  10.616
68597W        W40126  30.269  13.771  11.581
68598W        W40127  13.169  39.282  13.134
68599W        W40128  32.526  30.685   4.046
68600W        W40129  44.175  19.600  13.049
68601W        W40130   1.910   5.858  10.563
68602W        W40131  21.515   4.267  13.511
68603W        W40132  23.988  41.472  12.927
68604W        W40133   7.736  24.147   1.945
68605W        W40134  10.771  36.400   0.697
68606W        W40135   9.252  33.423   0.065
68607W        W40136  25.745  26.096  11.576
68608W        W40137  28.347  25.542   4.425
68609W        W40138  24.089   4.316  10.764
68610W        W40139  39.540   2.523  12.792
68611W        W40140  19.337  21.651  13.487
68612W        W40141  35.728  21.234   2.236
68613W        W40142  25.056  20.895   3.196
68614W        W40143  42.989  42.271  14.465
68615W        W40144  11.555  38.985   1.176
68616W        W40145  24.227  31.225  13.521
68617W        W40146  30.141  30.043  11.666
68618W        W40147  41.306  32.690  12.469
68619W        W40148  11.575  24.174  14.264
68620W        W40149   6.181  11.330  14.702
68621W        W40150  34.963  42.033  11.462
68622W        W40151  11.817  36.308  10.579
68623W        W40152   0.934  38.019  12.042
68624W        W40153  31.054   9.098  14.227
68625W        W40154  15.723  11.821  13.198
68626W        W40155  27.214   4.248  14.833
68627W        W40156   1.363  41.540  14.077
68628W        W40157  34.066  43.339   4.615
68629W        W40158   8.666  12.385   0.321
68630W        W40159  35.588  27.645  14.158
68631W        W40160  38.427  36.824   2.914
68632W        W40161  17.313  30.226   2.432
68633W        W40162  43.725   7.811   0.507
68634W        W40163   2.495  19.263  11.811
68635W        W40164  28.260  33.051  14.368
68636W        W40165  20.238  10.665   2.743
68637W        W40166  20.554  21.968   0.378
68638W        W40167  33.047  42.468  12.163
68639W        W40168  18.639  32.500   4.848
68640W        W40169  16.473  29.010   2.129
68641W        W40170  26.085   8.628   1.388
68642W        W40171  39.473  27.459   2.800
68643W        W40172  41.982  37.308  11.909
68644W        W40173   4.479  18.027  11.829
68645W        W40174   4.490  34.548   4.298
68646W        W40175  32.918  16.829  12.643
68647W        W40176   0.278  44.471  12.936
68648W        W40177  10.629  43.025   0.692
68649W        W40178   4.845   3.708   4.738
68650W        W40179  25.273  10.378   1.801
68651W        W40180  17.041  17.787   3.908
68652W        W40181  33.101  43.674   4.465
68653W        W40182  24.247  39.569  12.592
68654W        W40183  30.512  26.962  11.255
68655W        W40184  28.983   9.086   4.098
68656W        W40185  12.803   8.208  11.996
68657W        W40186  32.842  23.445   3.125
68658W        W40187  34.295  27.046  10.921
68659W        W40188  27.575  30.527  12.431
68660W        W40189   4.482   2.426   1.929
68661W        W40190  39.134  42.120  10.147
68662W        W40191   6.321  37.973   3.372
68663W        W40192  32.669   2.153  13.440
68664W        W40193  43.331  16.562   2.111
68665W        W40194  40.994  15.146  13.959
68666W        W40195  17.827  39.562   4.247
68667W        W40196  43.853  38.801   4.235
68668W        W40197  27.329   6.474   0.546
68669W        W40198  44.264  10.256   5.228
68670W        W40199  18.844  32.875   3.684
68671W        W40200   5.735  26.782   4.674
68672W        W40201  36.403  21.285  10.752
68673W        W40202  27.517  15.171   2.257
68674W        W40203  38.819  25.744  11.561
68675W        W40204  29.544   6.151   1.513
68676W        W40205   1.229  35.534  13.911
68677W        W40206  28.850  19.871   2.252
68678W        W40207  16.852  23.209  14.383
68679W        W40208  37.151   5.971   2.718
68680W        W40209   2.059   4.378   3.191
68681W        W40210  16.693  19.063   2.630
68682W        W40211  22.809  40.891  13.450
68683W        W40212  12.219  18.478   1.358
68684W        W40213  21.212  37.772   0.800
68685W        W40214  32.842  15.543   3.668
68686W        W40215  26.697  30.393   1.408
68687W        W40216  14.065  22.020  11.078
68688W        W40217   6.884   0.019  14.210
68689W        W40218  10.301  39.438   0.226
68690W        W40219  40.567  26.713   1.291
68691W        W40220  14.714  18.522  12.982
68692W        W40221   4.348  12.906   2.372
68693W        W40222  29.240  12.621  12.487
68694W        W40223  14.104  36.843  13.439
68695W        W40224   5.679   1.777   1.671
68696W        W40225  15.446  22.041  11.560
68697W        W40226  20.099   5.364  13.142
68698W        W40227  34.855   9.763  12.449
68699W        W40228  10.311  12.120   1.898
68700W        W40229  24.489  36.953  13.207
68701W        W40230  26.771  44.476  13.955
68702W        W40231  39.507  36.550   4.328
68703W        W40232  13.037  22.949  14.904
68704W        W40233   3.139  10.365   3.713
68705W        W40234  18.118  40.352   0.319
68706W        W40235  40.606   9.009   1.342
68707W        W40236   1.447  32.944   3.601
68708W        W40237   4.715  38.994   5.215
68709W        W40238  23.706  30.475  13.858
68710W        W40239  14.057  24.430   1.172
68711W        W40240   8.172  15.179   2.633
68712W        W40241  16.454   8.937   0.465
68713W        W40242  24.760  25.794  13.943
68714W        W40243   8.967  20.894   4.233
68715W        W40244   7.756  13.708  13.144
68716W        W40245   8.812  18.214  13.333
68717W        W40246  40.935  22.690  10.954
68718W        W40247   4.154  10.826  14.495
68719W        W40248   5.811  43.237  14.010
68720W        W40249   6.678  34.586  12.459
68721W        W40250  33.097  29.183  11.590
68722W        W40251  34.336  23.742  12.085
68723W        W40252   0.432  34.407   0.680
68724W        W40253  44.769  36.329   0.421
68725W        W40254  44.092   8.734   0.427
68726W        W40255  44.256  34.440   3.354
68727W        W40256  30.754  34.084   1.732
68728W        W40257  13.421  27.037  14.571
68729W        W40258  16.399  27.567   0.994
68730W        W40259  41.917  39.114   0.730
68731W        W40260  40.922  21.531  14.791
68732W        W40261  43.543   0.460  14.750
68733W        W40262  31.081  32.477   1.234
68734W        W40263  23.733  36.105  12.174
68735W        W40264  41.039  24.871   3.688
68736W        W40265  12.256  29.958   4.126
68737W        W40266  36.064  10.048  13.722
68738W        W40267  37.413  32.324   1.715
68739W        W40268  15.721  27.770  13.583
68740W        W40269  33.510  24.131  14.005
68741W        W40270  29.980   4.405   0.670
68742W        W40271  10.394  32.397   4.619
68743W        W40272  10.100  44.355  14.311
68744W        W40273  18.536   7.352   9.777
68745W        W40274  18.684   6.371  11.534
68746W        W40275  44.197   2.283  10.680
68747W        W40276  18.714  32.932  11.531
68748W        W40277  39.286  42.163   0.736
68749W        W40278  40.654  22.184  11.602
68750W        W40279  19.998  32.040  11.980
68751W        W40280  38.092  31.195   3.289
68752W        W40281  12.647  12.769  13.829
68753W        W40282   0.071  36.406  10.687
68754W        W40283   0.795   3.985  12.607
68755W        W40284   7.834   8.211   0.812
68756W        W40285  30.285  26.806  12.102
68757W        W40286  22.499  28.623   4.132
68758W        W40287   9.208   7.695  14.954
68759W        W40288  16.242  25.181  11.513
68760W        W40289  18.174   9.185  11.346
68761W        W40290  33.825   2.022   0.386
68762W        W40291   9.164  43.727  11.653
68763W        W40292   5.618   6.901  10.714
68764W        W40293  37.868  19.670   1.920
68765W        W40294  27.109  36.166   4.302
68766W        W40295   6.967  20.167   2.352
68767W        W40296  44.312  27.248   3.433
68768W        W40297  25.053  27.611   1.166
68769W        W40298  40.132  26.724   1.630
68770W        W40299  26.996  36.521   0.925
68771W        W40300  25.676   4.744  11.641
68772W        W40301  25.471  22.279   3.103
68773W        W40302  43.766  28.504   2.749
68774W        W40303  38.410  10.469   1.751
68775W        W40304  42.013  33.700   1.031
68776W        W40305  44.251  16.180   4.493
68777W        W40306  39.827   4.829   3.620
68778W        W40307  11.698  29.989  12.861
68779W        W40308  27.460  24.217   2.633
68780W        W40309  15.759   5.420   0.301
68781W        W40310  13.175  21.600   4.569
68782W        W40311  20.737   0.630  14.084
68783W        W40312  34.391   3.541  10.668
68784W        W40313  13.599  29.158  13.210
68785W        W40314  43.026  36.374  14.653
68786W        W40315   7.353  39.346  13.533
68787W        W40316  12.709  19.177  14.363
68788W        W40317  33.395  25.786  14.783
68789W        W40318  36.568  12.386   2.262
68790W        W40319   3.890  43.032  11.799
68791W        W40320  24.017  38.841   3.847
68792W        W40321  14.504   8.156  13.899
68793W        W40322  28.964  10.189  13.360
68794W        W40323  32.995  13.578   3.678
68795W        W40324   1.447  14.232   3.583
68796W        W40325   7.001   2.957  11.628
68797W        W40326  20.590   4.771  11.096
68798W        W40327   9.707   8.286   2.402
68799W        W40328  28.108   1.016  11.073
68800W        W40329  18.299  39.920   1.569
68801W        W40330  40.980  27.687  14.677
68802W        W40331  19.653   7.967   1.029
68803W        W40332   4.480   0.885  13.283
68804W        W40333  16.622  28.947   3.535
68805W        W40334  31.394  44.879  14.931
68806W        W40335  40.568  29.902  13.779
68807W        W40336  34.975  24.199  11.744
68808W        W40337   0.732  20.573  13.932
68809W        W40338  40.828   9.209   3.153
68810W        W40339  40.231  12.217  13.408
68811W        W40340  15.345  15.341  11.085
68812W        W40341  20.608   6.713  14.384
68813W        W40342  38.876  13.305   1.248
68814W        W40343  18.595   1.204   2.451
68815W        W40344  14.612  24.196  13.518
68816W        W40345  25.714  44.825   3.636
68817W        W40346  41.312  30.071   2.775
68818W        W40347   6.843  25.041  14.899
68819W        W40348  27.146   6.944  13.782
68820W        W40349  20.211  23.690   2.822
68821W        W40350  40.075  24.445  14.308
68822W        W40351  13.654  39.439   3.046
68823W        W40352  36.054  28.942  13.920
68824W        W40353  23.943  40.303   1.914
68825W        W40354   7.972  25.840  13.029
68826W        W40355  21.366  22.065   0.754
68827W        W40356  24.725  40.495   3.269
68828W        W40357  19.640  26.521   3.934
68829W        W40358  39.571  24.106  10.771
68830W        W40359  16.265  31.185   1.267
68831W        W40360   4.851  20.600  13.736
68832W        W40361  32.019   6.108   2.674
68833W        W40362  39.924  40.546  12.967
68834W        W40363  21.697  37.618  11.994
68835W        W40364  22.883  42.102   5.212
68836W        W40365  25.120  40.021   0.823
68837W        W40366   5.861  14.185  12.175
68838W        W40367  30.219  42.745   0.090
68839W        W40368  23.909   3.129  10.861
68840W        W40369   3.723  42.585  14.229
68841W        W40370  31.162  38.003   4.567
68842W        W40371  11.205   9.135   0.394
68843W        W40372   9.433  35.176  11.038
68844W        W40373   4.470  28.235  14.005
68845W        W40374  41.988   0.206   2.919
68846W        W40375  14.677  44.032  13.903
68847W        W40376  36.260   8.698   1.269
68848W        W40377  36.840  32.041   2.267
68849W        W40378  40.914  35.463  10.777
68850W        W40379  12.770   0.763  12.033
68851W        W40380  33.414  38.974   4.559
68852W        W40381  15.476  39.943   4.258
68853W        W40382  43.531  25.060   0.608
68854W        W40383  20.674   9.463  11.522
68855W        W40384  41.430   4.475   2.906
68856W        W40385  29.303  18.956   2.799
68857W        W40386  23.266  32.895   4.503
68858W        W40387   2.052  33.962   0.924
68859W        W40388  13.689   0.822   4.215
68860W        W40389  37.081  30.899   3.257
68861W        W40390   6.324   2.759   3.602
68862W        W40391  43.776   7.350  11.635
68863W        W40392  35.681  20.143  14.875
68864W        W40393  19.481  25.338  14.785
68865W        W40394   1.748  44.299  13.993
68866W        W40395  17.188  38.313  12.905
68867W        W40396  16.846   6.429   0.049
68868W        W40397  27.223  31.193  13.468
68869W        W40398  33.161  23.639   1.759
68870W        W40399   6.608  25.043   4.759
68871W        W40400  36.119  33.098  13.479
68872W        W40401  21.012  34.524  12.078
68873W        W40402   4.054  38.887  12.895
68874W        W40403  23.767  11.223  14.728
68875W        W40404  42.272  26.225  10.429
68876W        W40405  38.444   5.553   3.566
68877W        W40406  17.797   0.021  13.364
68878W        W40407  23.776  40.492  12.474
68879W        W40408  30.557  30.263   0.828
68880W        W40409  42.110   5.768   0.973
68881W        W40410  24.303  44.249  12.936
68882W        W40411  34.832  22.880   3.379
68883W        W40412  41.479  14.669   1.029
68884W        W40413  34.321  28.504  12.921
68885W        W40414  32.642  43.377  11.607
68886W        W40415  17.119  29.721   2.428
68887W        W40416   0.293  36.590   1.953
68888W        W40417  24.536  33.995  12.531
68889W        W40418  16.856  33.304  14.054
68890W        W40419  21.917  12.938  11.130
68891W        W40420  42.405  14.025  14.789
68892W        W40421  19.210   2.570  11.160
68893W        W40422  14.149  14.209   3.719
68894W        W40423  31.515  39.059   4.241
68895W        W40424  11.349  27.208  11.533
68896W        W40425  28.557  13.544  14.875
68897W        W40426  10.761  40.864  12.361
68898W        W40427  22.977  24.910   0.632
68899W        W40428  43.090  20.629   0.332
68900W        W40429  43.785   2.562   1.775
68901W        W40430   0.636   5.301   2.174
68902W        W40431  34.673  30.707  13.455
68903W        W40432  17.694  43.436  14.725
68904W        W40433  43.762  33.468  12.422
68905W        W40434  31.430  27.068  12.914
68906W        W40435   6.294  13.664   0.653
68907W        W40436  20.225  10.139   2.810
68908W        W40437  39.588  28.761  11.279
68909W        W40438  15.193  12.022   2.703
68910W        W40439  21.706  28.189   0.443
68911W        W40440  36.921   9.227   0.368
68912W        W40441   0.464  14.354  11.140
68913W        W40442  35.238   8.785  10.311
68914W        W40443   7.806   6.136   1.672
68915W        W40444  26.210  12.732   1.448
68916W        W40445  37.992  25.017   1.033
68917W        W40446  22.919  12.721   4.098
68918W        W40447   2.425  26.648   2.786
68919W        W40448  22.189  17.172   0.269
68920W        W40449  39.582  15.182  12.051
68921W        W40450  36.813  16.106   2.813
68922W        W40451  40.519  41.722  12.829
68923W        W40452  27.272   4.152  12.863
68924W        W40453   1.990  43.891   1.714
68925W        W40454   7.913  21.709   0.288
68926W        W40455  39.135  24.972  14.342
68927W        W40456  26.252  12.713   2.345
68928W        W40457  38.991  33.964  12.862
68929W        W40458  23.274  31.972  14.529
68930W        W40459  24.407   0.463   4.130
68931W        W40460  44.696  13.528  10.662
68932W        W40461  44.242  10.268   3.584
68933W        W40462  17.241  11.780  13.057
68934W        W40463  38.877  38.595  12.536
68935W        W40464  26.031  36.887   3.258
68936W        W40465  16.068   1.428   0.251
68937W        W40466  36.050  30.006   4.520
68938W        W40467  38.450  13.791  11.998
68939W        W40468  18.495  26.145   1.991
68940W        W40469  38.040   6.223  13.708
68941W        W40470  40.129  22.730   1.685
68942W        W40471  24.566  10.399   1.496
68943W        W40472  15.194   4.877   5.153
68944W        W40473  26.483  41.045   3.566
68945W        W40474  21.291  40.014   2.711
68946W        W40475  33.123  40.102   4.673
68947W        W40476   9.144  27.711   3.478
68948W        W40477   5.688  38.398  12.136
68949W        W40478  37.064  16.378   2.436
68950W        W40479  20.545  42.429   4.053
68951W        W40480   0.467  27.420  13.692
68952W        W40481   9.118  11.670  10.803
68953W        W40482  39.816  26.994  11.188
68954W        W40483  16.690   4.960  11.965
68955W        W40484  21.376  23.929   1.295
68956W        W40485  43.258   1.265  12.535
68957W        W40486  14.914  43.042   3.814
68958W        W40487   7.044  33.158   0.961
68959W        W40488  37.476  38.642   4.264
68960W        W40489  24.415  41.833   3.622
68961W        W40490  38.395  32.639  12.610
68962W        W40491  36.594  37.373   3.206
68963W        W40492  37.602  22.959   2.717
68964W        W40493  44.213  41.315   4.647
68965W        W40494  34.460  41.989  10.836
68966W        W40495  42.325  22.545   2.569
68967W        W40496  33.411  19.116  11.099
68968W        W40497  40.382   7.773  13.871
68969W        W40498  15.225  42.820  13.974
68970W        W40499  13.276   2.121  11.368
68971W        W40500  16.493   0.670   0.331
68972W        W40501   6.384  16.682  12.961
68973W        W40502  34.268  10.709   0.301
68974W        W40503  34.006  30.229   1.509
68975W        W40504  14.496  15.009  11.068
68976W        W40505  39.374  20.774  13.858
68977W        W40506   2.027   7.724  14.744
68978W        W40507  24.031  16.636  13.040
68979W        W40508   4.892  10.513  13.897
68980W        W40509  38.987  38.978   4.646
68981W        W40510  24.739  41.368  11.054
68982W        W40511  16.967  36.920   4.530
68983W        W40512  30.716  12.739   3.376
68984W        W40513  20.817  24.895  13.210
68985W        W40514  34.128  22.935  14.048
68986W        W40515  33.292  18.963   4.980
68987W        W40516   0.798  16.733   1.777
68988W        W40517  26.107  18.781   2.297
68989W        W40518  14.582  17.518  10.651
68990W        W40519  30.893   0.146   0.734
68991W        W40520   9.965  18.274   2.617
68992W        W40521   7.729  36.939  11.092
68993W        W40522  17.315  39.550  11.468
68994W        W40523   9.389  29.055  13.853
68995W        W40524  12.591   1.745  12.021
68996W        W40525   2.936  28.952   2.685
68997W        W40526  44.479   0.459  11.421
68998W        W40527   7.901   0.433  10.562
68999W        W40528  16.731  42.390   0.003
69000W        W40529  22.532   3.282  12.432
69001W        W40530  24.568  42.854   4.124
69002W        W40531  27.480  16.343   3.160
69003W        W40532  38.008  13.411  10.740
69004W        W40533  16.035  33.365  13.420
69005W        W40534  18.031  41.608  11.172
69006W        W40535  13.123  15.082  13.369
69007W        W40536  35.472  37.905  13.608
69008W        W40537  24.943  27.994  10.814
69009W        W40538  27.197  30.616   3.622
69010W        W40539  16.207  39.302   0.972
69011W        W40540  30.070   7.963   3.889
69012W        W40541  18.240  41.542  11.625
69013W        W40542  43.180  10.352   2.832
69014W        W40543   3.432  19.073  13.025
69015W        W40544  39.420  42.339  13.131
69016W        W40545  28.519  12.630   3.519
69017W        W40546  39.266   9.407  10.961
69018W        W40547  21.179   5.829   1.943
69019W        W40548  15.631  39.934   3.751
69020W        W40549  44.285  29.340  13.621
69021W        W40550  35.857   4.739  14.286
69022W        W40551   3.482  20.607   3.344
69023W        W40552  28.650  24.939   2.476
69024W        W40553  27.121  17.374   1.674
69025W        W40554   7.358  24.284  14.744
69026W        W40555  11.338  44.306  12.513
69027W        W40556   6.438   9.323   2.275
69028W        W40557  44.430   7.156  13.438
69029W        W40558  11.960  23.102   3.755
69030W        W40559  14.543  22.851   5.011
69031W        W40560  33.466  19.365   3.688
69032W        W40561  33.991   2.293   3.338
69033W        W40562   4.281  36.371   4.358
69034W        W40563  29.367   5.215   3.772
69035W        W40564  43.444  39.137  14.852
69036W        W40565  44.615  42.278  11.163
69037W        W40566  12.007  27.785  14.926
69038W        W40567  15.032   8.633  12.811
69039W        W40568  40.043   9.337   2.603
69040W        W40569  28.735   6.749   4.654
69041W        W40570   0.368  42.334  10.722
69042W        W40571  31.554   9.051  14.610
69043W        W40572   8.786   6.907  13.242
69044W        W40573  40.975  34.806   0.964
69045W        W40574   0.212   1.479  11.719
69046W        W40575  16.646  17.150   1.307
69047W        W40576  29.181  28.455  12.024
69048W        W40577  41.891  44.205   3.771
69049W        W40578   9.777  24.697   3.109
69050W        W40579   9.134  38.087  13.362
69051W        W40580  25.073  29.615   2.467
69052W        W40581  16.113   0.271  11.514
69053W        W40582  33.008  23.738  11.107
69054W        W40583  42.661  13.592  13.080
69055W        W40584  21.125  11.431   2.795
69056W        W40585  23.707  16.633  14.868
69057W        W40586  12.063  12.708   0.466
69058W        W40587  12.258  12.917  13.016
69059W        W40588  41.351  19.740  12.648
69060W        W40589  40.304   4.644   3.748
69061W        W40590  24.052  10.661  11.157
69062W        W40591  28.945  44.446   3.099
69063W        W40592  11.636  13.700   3.229
69064W        W40593  25.472   7.282   3.583
69065W        W40594  25.428  17.168   1.474
69066W        W40595  19.026  33.993   1.275
69067W        W40596  37.468  41.109  11.411
69068W        W40597  19.529   0.734  12.506
69069W        W40598  36.658   9.835   4.164
69070W        W40599  37.129  16.297  14.825
69071W        W40600  20.615   6.508  13.633
69072W        W40601   7.147   9.781   1.244
69073W        W40602  23.763  15.853   2.341
69074W        W40603  22.653  25.761   3.257
69075W        W40604   5.542  13.619  11.789
69076W        W40605   3.058  11.841  11.481
69077W        W40606  25.556  10.727   5.075
69078W        W40607  28.932  15.781  12.136
69079W        W40608  10.591   7.293  14.452
69080W        W40609  41.540  15.236   0.290
69081W        W40610   2.492  44.848  11.545
69082W        W40611  15.017  28.151  12.746
69083W        W40612  20.703  44.626  13.924
69084W        W40613   0.993  13.790   1.473
69085W        W40614  19.777  34.840   1.279
69086W        W40615  14.181  30.409  12.627
69087W        W40616  31.108  10.530  12.599
69088W        W40617  33.378  27.644  12.029
69089W        W40618  28.608  36.421  13.318
69090W        W40619  35.010  14.547   1.228
69091W        W40620   8.827  17.301  12.012
69092W        W40621  24.123   1.300  13.849
69093W        W40622   4.838  16.229   4.530
69094W        W40623  15.023  28.563   3.851
69095W        W40624  26.158  41.488  11.593
69096W        W40625  27.978  11.029  12.810
69097W        W40626  19.773   8.223   2.538
69098W        W40627  20.272  11.285  12.615
69099W        W40628   7.003  12.726  12.442
69100W        W40629   5.467   0.024  14.562
69101W        W40630  17.524  15.808  12.584
69102W        W40631  11.478  33.956  13.499
69103W        W40632  15.644  42.035   1.778
69104W        W40633  28.915  41.991  14.445
69105W        W40634  13.385  34.717   4.253
69106W        W40635  42.604  38.339   3.992
69107W        W40636  23.276  37.081  11.579
69108W        W40637  14.384   1.783  14.989
69109W        W40638  15.624   5.347   1.754
69110W        W40639  37.483  42.069   4.451
69111W        W40640   3.948  18.027  11.561
69112W        W40641  26.459  37.407  14.416
69113W        W40642  17.857  19.239  11.477
69114W        W40643  19.311  38.541   0.829
69115W        W40644  18.014  18.325   4.023
69116W        W40645  39.016  26.794   3.967
69117W        W40646  44.578  13.557  14.009
69118W        W40647  39.833  19.557  13.406
69119W        W40648  15.072  25.369   3.669
69120W        W40649  33.060  44.938  11.961
69121W        W40650  12.274  16.833  10.768
69122W        W40651  35.633   2.578   4.157
69123W        W40652  43.056   3.700  11.150
69124W        W40653  33.179  39.511  11.358
69125W        W40654  11.899  15.762  13.923
69126W        W40655  35.015   8.868  11.234
69127W        W40656  33.333  43.941   1.329
69128W        W40657  39.669  32.776   2.245
69129W        W40658  28.729  21.172   0.884
69130W        W40659   4.226  20.153  11.582
69131W        W40660  43.357  28.993   0.429
69132W        W40661  40.026  11.214  11.598
69133W        W40662  13.168  42.892   4.835
69134W        W40663  21.012  10.049  12.999
69135W        W40664  38.876  33.495   1.477
69136W        W40665  12.203   0.993  14.461
69137W        W40666  10.045  34.364   2.283
69138W        W40667  25.625  24.038  13.436
69139W        W40668  31.683  42.597   4.198
69140W        W40669   8.290   9.375  14.960
69141W        W40670  35.683  43.894  12.178
69142W        W40671  35.967  18.234  12.388
69143W        W40672  18.619   1.486   2.894
69144W        W40673  41.821  34.904  12.596
69145W        W40674  43.770  44.352  14.990
69146W        W40675  32.832  27.516  14.002
69147W        W40676  12.115  22.730   0.874
69148W        W40677  40.530  19.274  13.388
69149W        W40678  28.022   5.878   0.268
69150W        W40679  37.555  21.735  14.875
69151W        W40680  16.763  21.153  14.296
69152W        W40681  19.372   5.376  12.403
69153W        W40682  35.269  21.073   2.375
69154W        W40683  39.825   6.102  10.527
69155W        W40684  39.687  13.344  14.567
69156W        W40685  44.034   4.993  12.061
69157W        W40686  33.497  22.481   2.187
69158W        W40687  41.550  14.742  13.539
69159W        W40688   6.101   6.154  13.010
69160W        W40689  15.599  37.698   3.646
69161W        W40690  32.540  42.832  11.041
69162W        W40691  30.215   2.922   4.595
69163W        W40692   9.922   2.766  12.020
69164W        W40693  32.836  19.787  13.909
69165W        W40694  27.573   6.161   0.886
69166W        W40695   6.139  12.172   0.252
69167W        W40696  27.331  26.745   5.066
69168W        W40697  41.545  43.301   0.827
69169W        W40698   1.410  15.596   2.751
69170W        W40699  15.633  13.382   4.605
69171W        W40700  10.760  16.770  10.732
69172W        W40701  40.326  29.644   4.600
69173W        W40702  20.715  38.849  11.635
69174W        W40703  13.575   7.291  10.783
69175W        W40704  20.579  17.362   2.749
69176W        W40705  33.595  33.925  12.334
69177W        W40706  44.003  41.579  14.759
69178W        W40707  41.430  17.299  11.954
69179W        W40708  12.678  35.990   3.322
69180W        W40709  13.275  32.882   4.953
69181W        W40710  13.592   7.781   3.002
69182W        W40711  43.849  26.526   3.624
69183W        W40712  22.496   0.656   1.457
69184W        W40713  23.258  16.276  13.083
69185W        W40714  11.146  38.801  12.345
69186W        W40715  15.652  28.183  10.703
69187W        W40716  33.662  43.638  14.428
69188W        W40717  14.978  39.972   4.409
69189W        W40718   8.057  27.859  12.625
69190W        W40719  44.882  19.914  13.390
69191W        W40720  23.711  28.465  10.658
69192W        W40721  18.695   2.743   0.974
69193W        W40722  37.327  43.679   2.716
69194W        W40723  16.318   7.201  10.376
69195W        W40724   0.773  31.247   0.072
69196W        W40725  19.252  33.873  10.700
69197W        W40726  26.679  43.892  12.048
69198W        W40727  24.116  14.620   2.357
69199W        W40728  29.044  27.369   2.328
69200W        W40729  35.489  14.655   2.600
69201W        W40730  31.007  28.210   3.720
69202W        W40731  19.345  43.437   3.405
69203W        W40732   8.434  33.545  10.735
69204W        W40733  16.531  34.505  11.667
69205W        W40734   8.893  20.392   4.281
69206W        W40735  19.041  25.644  11.674
69207W        W40736  20.635  12.360   2.861
69208W        W40737  15.565  39.769  10.275
69209W        W40738  35.312  28.530  10.581
69210W        W40739  23.906   8.167  12.577
69211W        W40740  17.456   3.838   3.655
69212W        W40741  42.221  38.564   3.481
69213W        W40742  11.801  14.568   4.062
69214W        W40743  12.327  43.039   2.255
69215W        W40744  36.705  27.434   0.846
69216W        W40745  10.728  35.396  12.861
69217W        W40746  31.142   4.109   1.289
69218W        W40747  16.315  26.998   2.374
69219W        W40748  44.625  38.046   3.672
69220W        W40749  36.392  35.764   1.478
69221W        W40750  32.622   0.978  11.487
69222W        W40751  20.054  19.970   1.301
69223W        W40752  35.065   8.888  11.737
69224W        W40753  43.260  40.928  14.743
69225W        W40754  18.252   9.652   5.082
69226W        W40755  16.509  28.524   3.216
69227W        W40756  30.535   3.722  13.412
69228W        W40757   5.956   2.919  12.840
69229W        W40758  25.108  35.501   4.402
69230W        W40759  16.217  41.048   1.933
69231W        W40760  37.866  17.809   4.601
69232W        W40761  37.600  15.539   1.915
69233W        W40762  36.586  28.861   1.816
69234W        W40763  20.240  34.594   2.422
69235W        W40764  21.099   5.732   0.399
69236W        W40765   6.495  36.701   3.803
69237W        W40766  18.029  32.242   1.797
69238W        W40767   2.960  11.294   1.407
69239W        W40768  14.425  20.378  12.893
69240W        W40769  29.492   2.170   3.817
69241W        W40770   9.116  33.166  12.396
69242W        W40771  38.336  21.661   2.287
69243W        W40772  25.705  26.084  10.478
69244W        W40773   8.001   4.868  10.614
69245W        W40774   9.352   3.747  14.866
69246W        W40775  14.220  28.443   4.561
69247W        W40776  15.722  18.259   3.296
69248W        W40777  11.156  24.518  13.441
69249W        W40778  35.525   8.176   1.905
69250W        W40779  20.721  15.956   2.396
69251W        W40780  37.301  19.850  13.516
69252W        W40781  30.339  14.139  12.944
69253W        W40782  21.760   7.273  12.987
69254W        W40783  16.206  16.778  14.018
69255W        W40784  14.824  14.585  10.738
69256W        W40785   2.074  10.268  10.531
69257W        W40786  20.150  26.020   4.060
69258W        W40787  27.500  31.646   2.169
69259W        W40788  20.753  23.242  13.716
69260W        W40789  41.518  18.100   0.415
69261W        W40790  20.755  26.040  11.904
69262W        W40791  10.690  36.575  14.300
69263W        W40792  32.543   2.792   4.667
69264W        W40793   2.295   8.250  12.544
69265W        W40794  24.801   6.435   4.055
69266W        W40795  39.899  35.346  10.468
69267W        W40796  13.441  33.674   9.891
69268W        W40797  26.285  43.980   3.227
69269W        W40798   1.593  17.256  12.379
69270W        W40799  15.677  20.722   3.338
69271W        W40800   9.793  14.292   3.699
69272W        W40801  19.761  40.980   3.150
69273W        W40802  34.554  17.758   3.695
69274W        W40803  14.445  32.470   4.518
69275W        W40804   6.041  21.009   0.476
69276W        W40805  44.495  31.533   0.786
69277W        W40806  19.010  33.426  10.536
69278W        W40807   2.712  38.558   2.837
69279W        W40808  25.052   4.478   4.807
69280W        W40809  38.445   1.642   2.394
69281W        W40810   4.510  16.198  12.527
69282W        W40811  28.225  16.685   0.796
69283W        W40812  14.188  19.491   4.046
69284W        W40813  30.106  44.093  14.309
69285W        W40814  17.875  35.882  11.477
69286W        W40815  29.603  27.715  11.567
69287W        W40816  11.216   8.998  12.535
69288W        W40817  32.076  33.544  14.254
69289W        W40818  36.257  32.662   3.906
69290W        W40819  40.343  11.634  11.512
69291W        W40820  23.101  36.535  10.654
69292W        W40821  41.029  28.119   0.893
69293W        W40822  37.600  31.571  13.060
69294W        W40823   1.510  41.446   2.817
69295W        W40824  10.137   2.916  14.326
69296W        W40825   7.114  42.620  14.454
69297W        W40826  18.209  37.590  12.542
69298W        W40827  43.255  36.428   3.479
69299W        W40828  41.342  13.054  10.623
69300W        W40829  17.082  12.210   4.763
69301W        W40830  25.026  39.040  13.716
69302W        W40831   2.136  20.252  10.511
69303W        W40832  18.606   2.941   1.456
69304W        W40833   6.927  44.327   1.382
69305W        W40834  37.606  23.142  13.771
69306W        W40835   2.813  39.538  13.687
69307W        W40836  22.514   8.356   1.941
69308W        W40837  25.133  23.508   4.314
69309W        W40838   5.892  34.085   0.317
69310W        W40839  39.404   8.074  12.907
69311W        W40840  20.068  36.421   1.870
69312W        W40841  39.890  33.380   0.880
69313W        W40842  41.338  16.474   1.494
69314W        W40843   9.439  12.269  11.327
69315W        W40844  22.045  12.008  14.413
69316W        W40845  44.433  31.429   2.373
69317W        W40846  35.299  12.634  14.872
69318W        W40847  43.270  16.239  12.076
69319W        W40848  35.108  36.800  14.827
69320W        W40849  10.741  37.606  14.218
69321W        W40850  40.954   0.256  13.764
69322W        W40851  31.101  20.986  10.034
69323W        W40852  20.876  31.649   0.466
69324W        W40853  32.157  25.566  13.960
69325W        W40854  29.559  14.815  11.969
69326W        W40855  19.600  10.096   3.255
69327W        W40856  20.701  37.552   3.881
69328W        W40857   0.440  37.779   3.265
69329W        W40858  10.639   5.374  14.919
69330W        W40859  32.113  29.694   2.349
69331W        W40860  17.599  27.965  11.228
69332W        W40861  16.093  15.101   3.833
69333W        W40862  34.414   5.735   3.648
69334W        W40863   5.749   0.540  12.471
69335W        W40864  33.379  15.252  11.280
69336W        W40865  40.051  18.213   1.310
69337W        W40866  14.354  39.338  11.262
69338W        W40867  26.258  27.889  11.132
69339W        W40868  40.016   8.763  11.192
69340W        W40869  29.902  26.216  13.045
69341W        W40870   8.194  33.370  11.189
69342W        W40871  33.650  38.786   4.982
69343W        W40872  22.777   5.027  14.299
69344W        W40873  27.177  39.625   3.749
69345W        W40874  13.189  29.327   2.209
69346W        W40875  29.052  32.027  10.008
69347W        W40876  33.841  11.385  13.501
69348W        W40877  39.381  37.933  13.585
69349W        W40878   1.867  38.739  13.525
69350W        W40879  22.265   0.958  10.838
69351W        W40880  21.991   2.048  14.950
69352W        W40881  22.543  23.860  10.639
69353W        W40882  17.107   6.632   1.894
69354W        W40883  19.233  20.491   2.361
69355W        W40884  21.635  42.239   3.265
69356W        W40885  30.306  44.538  11.722
69357W        W40886  35.869  44.468   3.736
69358W        W40887  20.022  26.709   4.469
69359W        W40888   6.791  13.691  14.884
69360W        W40889  21.683  22.577  10.911
69361W        W40890  41.330  23.107   4.666
69362W        W40891   7.743   6.884   0.494
69363W        W40892   0.279   8.159   3.616
69364W        W40893   6.731  39.866   0.203
69365W        W40894   7.934  25.605   1.182
69366W        W40895   7.745  17.671   1.742
69367W        W40896   4.773   7.127   0.752
69368W        W40897  16.544  38.052   1.504
69369W        W40898  11.370   3.280  13.226
69370W        W40899  26.107   9.160   3.643
69371W        W40900  43.182  21.537   2.554
69372W        W40901  22.850  25.034  11.377
69373W        W40902  13.962  13.231   1.218
69374W        W40903  32.916  12.152  11.830
69375W        W40904  35.311  44.280  12.431
69376W        W40905  10.911  32.912   4.338
69377W        W40906  24.020  31.526   1.362
69378W        W40907  31.125  33.427   2.163
69379W        W40908  41.106  10.202   0.021
69380W        W40909   2.753  22.207  13.912
69381W        W40910  26.186  22.202   3.644
69382W        W40911  43.086  17.617   4.978
69383W        W40912  44.939   7.791   1.379
69384W        W40913  29.899  38.786   2.840
69385W        W40914  42.781  21.227  13.363
69386W        W40915  11.743  44.570   0.594
69387W        W40916  23.782  32.451  12.198
69388W        W40917  36.853   4.601  11.096
69389W        W40918  20.569  30.426   1.958
69390W        W40919  13.647  11.781  11.568
69391W        W40920   9.340  30.137  14.136
69392W        W40921   8.011  34.570  11.480
69393W        W40922  39.953   0.889  13.537
69394W        W40923  37.368  40.041  14.313
69395W        W40924  24.545  20.774   3.203
69396W        W40925  27.296  20.912   2.888
69397W        W40926  24.406  24.256   4.307
69398W        W40927   1.813   4.234   2.746
69399W        W40928  10.850  10.056   3.972
69400W        W40929  16.144  26.449  14.011
69401W        W40930   8.072  17.585  14.432
69402W        W40931   6.129  20.749   1.235
69403W        W40932   0.310  39.627  14.416
69404W        W40933  26.960  41.436   4.225
69405W        W40934  28.238  16.770  11.147
69406W        W40935  32.562   9.146  12.407
69407W        W40936  32.079   4.374   4.396
69408W        W40937  15.268  32.881   4.593
69409W        W40938  24.251   1.823   2.732
69410W        W40939  17.514  35.523   1.768
69411W        W40940  14.674  18.757   0.936
69412W        W40941  31.197  17.097   0.564
69413W        W40942  30.650  42.440   2.176
69414W        W40943  18.523  15.645  14.021
69415W        W40944  19.216   5.150  10.675
69416W        W40945  36.541  26.672  13.944
69417W        W40946  36.479  41.739  11.793
69418W        W40947  37.087   4.808  13.859
69419W        W40948   1.898  30.965  11.439
69420W        W40949  42.141  20.354  11.620
69421W        W40950  36.532  15.659   0.743
69422W        W40951  43.488  28.940  10.294
69423W        W40952  12.109   9.875   3.238
69424W        W40953  12.625  29.798   2.734
69425W        W40954   2.227  44.379   0.775
69426W        W40955  13.977  30.434   4.527
69427W        W40956   3.367  42.632  12.590
69428W        W40957  12.325  19.680   2.423
69429W        W40958  10.339  40.050  12.118
69430W        W40959  29.452  11.282  12.557
69431W        W40960  18.009  28.922  14.444
69432W        W40961   7.410  11.094  13.067
69433W        W40962  17.199  42.745   3.402
69434W        W40963   6.651  27.079   4.410
69435W        W40964  30.554  20.440   1.023
69436W        W40965  11.570   6.166   4.634
69437W        W40966  44.248  17.392  10.577
69438W        W40967   0.850  14.020  11.196
69439W        W40968  44.289  10.602  11.620
69440W        W40969   7.633  32.702  12.591
69441W        W40970   5.692  26.631   0.745
69442W        W40971  33.013  26.929  11.898
69443W        W40972  32.646  42.274   1.898
69444W        W40973  43.756  18.524  12.340
69445W        W40974  15.708  10.237   2.374
69446W        W40975  29.638  28.928   1.298
69447W        W40976   4.922  36.883  13.646
69448W        W40977   2.630  32.396  11.123
69449W        W40978  42.816   9.715   0.998
69450W        W40979  40.789  16.017  12.964
69451W        W40980  35.020  42.261  14.605
69452W        W40981  18.460  37.491  14.758
69453W        W40982   9.617  44.485  13.041
69454W        W40983  24.518  38.393  12.266
69455W        W40984  11.860  28.001  10.721
69456W        W40985  13.781  22.990  12.609
69457W        W40986  32.732  33.783  11.350
69458W        W40987  37.402  23.126  12.053
69459W        W40988  19.521  34.081   3.218
69460W        W40989   1.070  37.528  14.322
69461W        W40990  29.881  15.912   4.929
69462W        W40991  20.859  23.320   4.104
69463W        W40992  15.615  27.095  11.583
69464W        W40993  11.344  38.198   3.578
69465W        W40994  26.595  20.165  10.948
69466W        W40995   8.454   6.818  12.851
69467W        W40996  43.069   8.797   0.512
69468W        W40997  39.158  24.279   4.081
69469W        W40998   4.553  28.835  11.479
69470W        W40999  33.682  22.785   0.245
69471W        W41000  44.126  32.282   3.662
69472W        W41001  22.953  33.083   2.281
69473W        W41002  23.266  31.158  10.418
69474W        W41003  36.719   9.434   3.654
69475W        W41004  25.629  29.076   5.337
69476W        W41005  17.623  14.674   1.471
69477W        W41006  33.974   3.248  10.558
69478W        W41007  14.734   0.817   2.346
69479W        W41008  44.820  29.514   4.588
69480W        W41009   1.535  27.064  14.071
69481W        W41010   7.086  11.783   2.947
69482W        W41011  24.721  19.275  10.833
69483W        W41012   9.305  40.404   1.394
69484W        W41013  21.440  20.133  12.005
69485W        W41014  38.674  13.719   1.493
69486W        W41015  35.614  11.857  12.627
69487W        W41016  43.771  17.189  13.034
69488W        W41017  24.724  40.536  13.368
69489W        W41018   0.787  44.320  13.042
69490W        W41019  23.227   8.945  12.352
69491W        W41020  43.023  44.708   1.337
69492W        W41021  14.813  12.591   0.207
69493W        W41022  42.107  39.704  11.098
69494W        W41023  15.327  16.888  11.120
69495W        W41024  36.438  37.529   4.063
69496W        W41025  14.681  33.437  14.737
69497W        W41026   0.041  24.992   5.029
69498W        W41027  16.800  37.083   3.654
69499W        W41028  28.678  43.666  14.740
69500W        W41029  38.915  31.626   3.339
69501W        W41030  26.471  20.953  14.826
69502W        W41031   3.171  44.307  10.973
69503W        W41032  10.896  39.883  13.557
69504W        W41033   2.461  31.436  14.376
69505W        W41034  34.024  38.030   3.627
69506W        W41035   0.228  27.309  12.452
69507W        W41036  38.004  31.253   0.341
69508W        W41037  35.031  38.841   2.128
69509W        W41038  19.268  37.398   0.412
69510W        W41039  25.033   8.429   3.119
69511W        W41040   8.844  44.886   3.229
69512W        W41041  44.459  44.837  12.087
69513W        W41042   7.122  10.070   1.637
69514W        W41043  15.591  24.993   4.788
69515W        W41044  33.894   8.618  12.559
69516W        W41045  28.439   1.216  14.440
69517W        W41046  28.172  12.352  11.602
69518W        W41047  38.778  21.676  10.615
69519W        W41048  16.528  22.175  12.558
69520W        W41049  44.423   7.709   0.310
69521W        W41050  20.591   8.154   2.057
69522W        W41051  31.350   7.372   3.735
69523W        W41052  13.854   5.039   2.221
69524W        W41053  26.243  18.029  13.981
69525W        W41054  26.097  38.879  12.901
69526W        W41055  41.460  14.345  11.183
69527W        W41056  33.378   6.433  13.473
69528W        W41057   4.798   3.699   2.873
69529W        W41058  10.215  10.248   0.281
69530W        W41059  30.148  10.271   4.518
69531W        W41060  14.599   1.969  10.715
69532W        W41061  18.136  24.748  10.895
69533W        W41062  18.445  15.714  11.661
69534W        W41063  31.218   2.740   4.593
69535W        W41064  34.489  16.215  13.628
69536W        W41065  28.430   2.435   0.716
69537W        W41066  25.510  16.081  13.376
69538W        W41067  40.535  31.607  10.675
69539W        W41068  30.399  30.890   3.602
69540W        W41069  28.625   6.940   1.969
69541W        W41070  39.576  36.596  13.894
69542W        W41071   6.664  22.220   0.916
69543W        W41072  40.801  42.535   2.705
69544W        W41073  39.314  23.688  12.399
69545W        W41074  12.309  14.700  13.855
69546W        W41075  44.200  23.788  12.348
69547W        W41076   5.321  24.569  11.178
69548W        W41077  22.277  23.523  14.311
69549W        W41078  36.847   0.016   0.287
69550W        W41079  27.647  34.427   3.100
69551W        W41080  17.186  36.744  10.850
69552W        W41081  41.927   6.339  13.086
69553W        W41082  15.776  29.690  13.945
69554W        W41083  23.221  29.550  12.949
69555W        W41084  32.412  34.998   1.750
69556W        W41085  14.805  44.716  11.880
69557W        W41086   6.654  15.106   4.294
69558W        W41087   0.634   5.269  13.851
69559W        W41088   2.603  42.082   3.713
69560W        W41089  20.818  35.992   1.869
69561W        W41090  11.698  36.838   0.984
69562W        W41091  10.154  33.448   2.290
69563W        W41092  20.580  31.021   1.199
69564W        W41093  40.881  21.549   4.440
69565W        W41094  34.138   1.003  14.508
69566W        W41095   0.033  28.196  14.445
69567W        W41096  39.666  35.809   4.527
69568W        W41097  15.806  10.400   3.455
69569W        W41098  20.763  33.874  12.102
69570W        W41099  29.183  21.370  10.769
69571W        W41100  44.775  10.864  14.258
69572W        W41101  38.988   6.643  14.356
69573W        W41102  36.217  23.005   1.907
69574W        W41103  21.344   8.717   2.299
69575W        W41104   0.449  43.832  14.596
69576W        W41105  32.428   7.779   2.140
69577W        W41106  14.318  41.915   2.230
69578W        W41107  42.489  43.840   3.372
69579W        W41108  10.970  33.508  12.058
69580W        W41109  12.131  26.802  13.342
69581W        W41110  11.701  20.837  12.253
69582W        W41111   9.333  20.763   3.375
69583W        W41112  25.104  39.131  13.235
69584W        W41113  37.966  19.115   0.688
69585W        W41114   2.095  13.915  13.892
69586W        W41115  22.080  24.852   2.986
69587W        W41116  25.988  17.140   3.088
69588W        W41117   9.916  23.705   3.819
69589W        W41118   2.745   0.273   3.534
69590W        W41119   8.822   7.263   3.563
69591W        W41120  18.145   9.036  12.465
69592W        W41121  44.534  18.152   0.482
69593W        W41122  42.297   4.437  10.478
69594W        W41123   6.682  33.993   1.440
69595W        W41124  20.200  34.554   1.355
69596W        W41125  30.889   6.456   0.948
69597W        W41126  33.494  42.741   3.308
69598W        W41127   7.862  24.830  14.023
69599W        W41128  19.117  36.169  14.968
69600W        W41129  15.229   8.885   1.749
69601W        W41130  43.821  35.319  11.936
69602W        W41131   6.515  41.585  13.801
69603W        W41132  26.055   4.800   3.857
69604W        W41133  19.320  24.799  11.499
69605W        W41134  11.809  20.257  13.031
69606W        W41135  25.694  14.877  12.074
69607W        W41136  38.990  38.538   3.165
69608W        W41137  39.164  24.617  14.735
69609W        W41138  21.143   9.729  13.378
69610W        W41139  23.271  17.202  14.374
69611W        W41140  11.266  43.487   1.673
69612W        W41141  14.598  40.686   3.186
69613W        W41142  40.414  43.193  13.021
69614W        W41143  27.695   3.246   2.251
69615W        W41144  30.110  25.865   2.102
69616W        W41145  41.950  36.890   3.105
69617W        W41146  28.450  31.986  12.273
69618W        W41147  24.711   7.250   1.278
69619W        W41148  33.124  44.379   1.099
69620W        W41149  33.378  16.208   1.955
69621W        W41150  34.415  21.768   1.826
69622W        W41151   2.431  40.374  12.464
69623W        W41152  14.513  16.639  11.465
69624W        W41153  25.042  40.962  14.836
69625W        W41154  29.237  38.836  10.419
69626W        W41155  20.270  37.418   2.545
69627W        W41156   4.514  10.229  12.631
69628W        W41157  15.742  40.580   1.633
69629W        W41158  16.907   3.225  12.831
69630W        W41159  28.132  12.612  14.972
69631W        W41160  43.776  39.495   4.661
69632W        W41161  44.333  18.267  11.213
69633W        W41162  12.087  10.411   3.267
69634W        W41163  19.152  34.881  12.064
69635W        W41164   1.734   9.585  14.990
69636W        W41165  24.500  25.698  14.363
69637W        W41166  26.142  27.312   2.368
69638W        W41167  25.657   9.134   0.945
69639W        W41168  14.220  14.904   2.744
69640W        W41169  15.329  18.523  10.558
69641W        W41170   2.372  20.760  14.326
69642W        W41171  19.853  29.038   3.658
69643W        W41172  30.600  30.382   3.399
69644W        W41173   6.495   1.546  11.733
69645W        W41174  32.520  43.025  13.874
69646W        W41175  39.120   0.183  11.748
69647W        W41176   0.840  40.724  12.085
69648W        W41177  35.944   1.294  12.467
69649W        W41178   8.184  10.274  12.569
69650W        W41179  38.723  14.210  10.761
69651W        W41180  42.849  20.623   3.133
69652W        W41181  21.238  11.390   1.933
69653W        W41182  14.115   3.934   3.720
69654W        W41183  23.501   7.916  12.459
69655W        W41184   9.450  20.660  14.165
69656W        W41185   5.797  16.315  13.136
69657W        W41186  20.255  15.089   4.433
69658W        W41187  18.541  14.356   0.064
69659W        W41188  42.082  18.770  11.140
69660W        W41189   6.891  40.384   4.813
69661W        W41190  25.984  32.727   0.452
69662W        W41191  16.109  29.871  13.369
69663W        W41192  41.321  16.129   3.198
69664W        W41193  21.814   8.777  10.675
69665W        W41194   3.709  20.669   4.215
69666W        W41195  26.887  41.078  12.138
69667W        W41196  37.402  19.598  13.071
69668W        W41197  40.456  19.758  12.452
69669W        W41198   4.382  16.113   0.793
69670W        W41199   9.372  31.134   2.774
69671W        W41200  22.004  27.653   0.829
69672W        W41201   7.892   7.239   4.158
69673W        W41202  31.126  18.820   0.982
69674W        W41203  30.384  24.714  10.631
69675W        W41204  18.839  12.899   0.724
69676W        W41205  23.263  38.390   3.688
69677W        W41206  39.725   7.195   3.382
69678W        W41207  14.532  30.644  10.731
69679W        W41208  17.917  38.588   3.560
69680W        W41209   9.595  18.047  12.099
69681W        W41210   9.185  25.475  12.488
69682W        W41211  30.120   1.315  11.646
69683W        W41212   1.986  26.871  14.236
69684W        W41213  22.170   9.774   4.823
69685W        W41214  34.921  44.907   1.429
69686W        W41215   9.140  25.777  11.654
69687W        W41216  35.834   6.649  12.488
69688W        W41217  32.315  37.915  14.309
69689W        W41218  15.337  34.331   4.743
69690W        W41219  42.751  19.364   3.573
69691W        W41220   6.863  42.552  11.931
69692W        W41221  10.562  27.863  11.483
69693W        W41222  35.348  25.122   3.213
69694W        W41223  41.318  31.912  13.138
69695W        W41224   1.281   8.956   0.451
69696W        W41225  23.554  38.885  13.965
69697W        W41226  35.919  29.007  10.719
69698W        W41227   9.953  10.819   4.978
69699W        W41228  28.149  37.892   4.353
69700W        W41229  25.102  18.432  12.463
69701W        W41230  27.453  30.436  12.972
69702W        W41231   0.426  35.514   0.219
69703W        W41232  34.416   9.654  14.647
69704W        W41233   6.929  30.597   4.144
69705W        W41234  27.907  10.804  13.906
69706W        W41235  41.313  38.400  14.402
69707W        W41236  37.505  25.929  12.201
69708W        W41237  42.458  33.894  11.992
69709W        W41238  23.155  22.592  12.353
69710W        W41239   6.419  23.958   1.015
69711W        W41240  17.126  21.413  11.772
69712W        W41241  17.653  42.274  12.697
69713W        W41242  30.791  34.300  10.786
69714W        W41243  30.544  25.740   1.165
69715W        W41244   7.197  28.592  13.943
69716W        W41245   4.836  36.957  13.127
69717W        W41246   3.448   4.582  12.073
69718W        W41247  42.352  19.095   3.387
69719W        W41248  38.331  36.887  13.530
69720W        W41249   6.808  14.084  13.460
69721W        W41250  37.167   3.273   1.298
69722W        W41251  32.959   2.222   4.090
69723W        W41252  22.024   5.836   4.643
69724W        W41253  24.495   8.030   2.293
69725W        W41254  26.755  42.659  14.296
69726W        W41255  25.734  38.547   1.347
69727W        W41256  31.100  17.755   0.725
69728W        W41257   1.104  38.809  12.957
69729W        W41258  29.164  14.835  13.123
69730W        W41259   6.874   1.873   0.377
69731W        W41260  34.099   7.753  14.378
69732W        W41261   7.748  33.312  14.836
69733W        W41262   3.328  37.302  14.108
69734W        W41263  30.120  44.130   0.177
69735W        W41264  36.362   9.957   2.755
69736W        W41265  15.764   3.226  10.320
69737W        W41266   4.409  44.448   4.565
69738W        W41267   7.374  25.024   1.745
69739W        W41268  38.177   5.331  13.512
69740W        W41269  10.178   6.852   0.811
69741W        W41270  20.520  18.584   0.385
69742W        W41271  37.541  38.925   3.850
69743W        W41272  25.052  26.244  13.445
69744W        W41273  19.032  26.040   2.802
69745W        W41274  41.070  27.196  12.708
69746W        W41275  11.381  27.646   3.206
69747W        W41276  11.262  42.890  14.316
69748W        W41277  22.544  37.984   2.956
69749W        W41278  21.712  27.156   0.439
69750W        W41279  23.464  38.332   4.211
69751W        W41280  21.640  18.703  10.693
69752W        W41281  33.932   8.634  13.296
69753W        W41282  37.428  15.759  12.080
69754W        W41283  36.283  24.402   4.209
69755W        W41284  18.101  32.403   3.704
69756W        W41285  14.427  38.494  11.838
69757W        W41286  26.037  35.555  10.482
69758W        W41287  24.587  22.156   0.729
69759W        W41288  35.968  11.069   1.305
69760W        W41289  17.601  11.920   3.678
69761W        W41290  32.989  44.429  11.961
69762W        W41291   4.890  37.853   1.305
69763W        W41292  41.303  33.692  12.399
69764W        W41293  23.816   4.947   0.310
69765W        W41294  32.959  40.241  13.030
69766W        W41295  31.379  31.694   4.909
69767W        W41296  31.575  39.207  12.515
69768W        W41297  34.528  15.768   4.272
69769W        W41298  26.156  24.162  14.450
69770W        W41299  35.034  15.443  10.728
69771W        W41300   3.823  37.506  11.929
69772W        W41301  23.007   4.862  13.288
69773W        W41302  28.933   6.533   1.794
69774W        W41303   7.391  23.269   2.167
69775W        W41304  12.130  24.629  14.052
69776W        W41305  27.942   5.019  13.253
69777W        W41306  19.185  15.124  12.589
69778W        W41307  42.434  19.839   0.248
69779W        W41308   5.561  11.055  13.190
69780W        W41309  24.706  30.596   3.628
69781W        W41310  37.819  22.063  11.991
69782W        W41311  21.629   1.944   3.745
69783W        W41312  39.038  17.481   4.630
69784W        W41313  24.238   9.104  12.567
69785W        W41314  30.411  38.610  12.271
69786W        W41315  14.688  25.671   3.488
69787W        W41316  28.922  37.865  13.672
69788W        W41317   2.330  33.402  11.184
69789W        W41318  24.031  39.406   1.699
69790W        W41319  12.586  22.817   4.038
69791W        W41320  22.733  12.248   4.315
69792W        W41321   6.095  24.071   2.725
69793W        W41322   3.998  12.141  11.506
69794W        W41323  27.572   2.240   4.155
69795W        W41324   0.581  34.148   2.179
69796W        W41325  31.374  23.501   4.110
69797W        W41326   2.278  29.140  11.117
69798W        W41327  43.884   6.281  14.418
69799W        W41328  24.536  34.890  14.451
69800W        W41329   6.665   1.719  12.624
69801W        W41330   4.346  20.101   1.363
69802W        W41331   3.259  13.376  14.062
69803W        W41332  14.601  28.483   4.191
69804W        W41333  24.077  42.902   3.894
69805W        W41334  43.933  29.188  14.629
69806W        W41335  39.495  10.735   0.728
69807W        W41336  39.744  20.872  13.134
69808W        W41337  24.441  14.247  10.848
69809W        W41338   1.453  31.121   2.192
69810W        W41339  21.423  28.141   1.366
69811W        W41340  14.788  36.545  12.085
69812W        W41341  15.205  45.000  13.405
69813W        W41342  11.213   8.471   4.570
69814W        W41343  44.931  31.502   0.475
69815W        W41344  16.018   7.143  11.989
69816W        W41345   8.041  18.359   1.012
69817W        W41346   9.200   3.407   3.167
69818W        W41347   9.676  35.458  11.396
69819W        W41348   0.690  15.901   3.303
69820W        W41349  34.349   1.424  14.715
69821W        W41350  26.855  14.221  12.902
69822W        W41351  27.619  32.177   2.935
69823W        W41352   5.923   1.453   1.340
69824W        W41353  15.842  42.306   2.246
69825W        W41354  37.913  38.764   2.359
69826W        W41355  14.840  31.611   2.285
69827W        W41356   0.814  18.336  13.476
69828W        W41357  29.837   8.139   1.590
69829W        W41358  42.133  11.600   2.812
69830W        W41359  26.096  39.940   1.219
69831W        W41360  19.861  23.530   4.139
69832W        W41361   0.225   4.991   2.084
69833W        W41362  30.067  18.552  13.065
69834W        W41363   9.401   6.427  11.571
69835W        W41364  23.492   8.311  12.862
69836W        W41365  23.152  23.364   3.256
69837W        W41366  28.231  35.286  13.488
69838W        W41367  44.129  27.973   3.849
69839W        W41368  11.385  20.053  14.934
69840W        W41369  12.823  28.404   4.303
69841W        W41370  25.208  35.436  11.694
69842W        W41371  10.871  42.880  13.750
69843W        W41372  20.278  34.344  13.426
69844W        W41373  44.767  12.649  13.970
69845W        W41374   5.803  20.287   4.567
69846W        W41375  17.189   6.153   4.209
69847W        W41376  39.544   8.774  12.433
69848W        W41377   0.983   8.275  13.018
69849W        W41378   7.248  16.182   4.217
69850W        W41379   4.898   4.360   2.212
69851W        W41380  34.448  28.720  11.531
69852W        W41381   5.397  43.820   2.705
69853W        W41382  19.625  27.397   0.810
69854W        W41383  30.435  23.036  14.752
69855W        W41384  18.796  28.882  12.662
69856W        W41385  28.530   5.014   0.320
69857W        W41386  42.665  22.412  14.019
69858W        W41387  21.810  38.040   3.185
69859W        W41388  13.386  32.441  11.546
69860W        W41389   9.580   0.143  11.257
69861W        W41390  25.501   1.775  12.156
69862W        W41391  40.250  12.782  13.980
69863W        W41392  34.681   5.395   4.314
69864W        W41393  39.512  38.715  14.686
69865W        W41394  31.899   2.923  13.548
69866W        W41395  44.752  44.493   4.171
69867W        W41396  35.859  16.792   3.678
69868W        W41397  42.853   2.831   0.785
69869W        W41398  36.179  24.786  13.363
69870W        W41399   6.333  12.892   1.361
69871W        W41400  24.512   9.982  13.536
69872W        W41401  40.752   3.847   0.905
69873W        W41402  14.900  23.107   0.754
69874W        W41403   7.736  16.250   3.668
69875W        W41404  34.199  27.040  10.388
69876W        W41405   6.255   6.665   0.359
69877W        W41406   4.685  22.598  13.420
69878W        W41407  43.332   7.154   3.694
69879W        W41408  31.268   5.166  14.843
69880W        W41409  28.384  15.198  11.531
69881W        W41410  42.216  36.153   2.584
69882W        W41411   0.452   6.964  12.415
69883W        W41412   2.683   9.322   4.603
69884W        W41413  16.961  23.429  12.478
69885W        W41414  18.207  30.159  10.368
69886W        W41415  42.221   5.372   1.302
69887W        W41416  36.560  39.540  12.063
69888W        W41417  21.830  33.101  10.654
69889W        W41418  17.082   2.425   3.664
69890W        W41419  21.714  20.750  14.444
69891W        W41420  14.553  22.603   2.677
69892W        W41421   4.388  29.558   1.849
69893W        W41422   6.424  24.860   3.371
69894W        W41423  44.043  27.943  12.099
69895W        W41424   0.646  27.739  14.063
69896W        W41425  34.358  11.977  14.257
69897W        W41426  35.061  11.727  11.527
69898W        W41427  15.869   7.601   1.327
69899W        W41428  32.986   5.815  11.717
69900W        W41429   4.857  40.079  10.859
69901W        W41430  25.708   4.481   3.652
69902W        W41431   9.855  26.722   0.420
69903W        W41432  34.898   2.523   3.682
69904W        W41433  34.362  33.597  12.188
69905W        W41434   1.229  42.337  10.801
69906W        W41435  36.767  22.965   1.734
69907W        W41436  19.897  22.629  11.707
69908W        W41437  16.241  42.551  13.098
69909W        W41438  16.248  28.054  10.512
69910W        W41439  21.131  31.701   2.399
69911W        W41440   6.468  24.637   0.036
69912W        W41441  19.724  37.563  12.036
69913W        W41442  12.668  39.820  12.429
69914W        W41443   3.938  31.558   0.761
69915W        W41444  33.174  32.891   2.910
69916W        W41445   1.356  22.696  13.841
69917W        W41446  33.227  32.257  11.646
69918W        W41447   9.256  39.804   0.415
69919W        W41448  14.608   3.025  14.427
69920W        W41449   1.220  39.878  12.885
69921W        W41450  36.026   6.353  12.129
69922W        W41451   8.214  35.969   1.852
69923W        W41452  11.709  42.988   3.746
69924W        W41453  35.969  17.025   4.122
69925W        W41454   4.730  30.949   0.304
69926W        W41455  41.791  42.892  14.122
69927W        W41456  24.753  28.511   0.774
69928W        W41457  34.064  18.843  11.617
69929W        W41458  43.536  42.420  10.920
69930W        W41459  42.087  28.075   2.056
69931W        W41460  13.723   4.520   2.288
69932W        W41461  19.221  24.587  11.054
69933W        W41462  33.476  32.968  12.825
69934W        W41463  42.428  27.927   0.625
69935W        W41464  12.247  34.858   3.404
69936W        W41465  37.440  37.462  12.932
69937W        W41466  29.631  33.589  14.046
69938W        W41467  38.401  30.617   0.895
69939W        W41468  42.840   0.504   2.390
69940W        W41469  32.012  31.576   3.331
69941W        W41470  23.730  18.246   1.458
69942W        W41471  33.558  44.997  13.569
69943W        W41472  42.745  35.959  10.458
69944W        W41473  14.884  21.737  13.814
69945W        W41474  16.149  16.252  13.904
69946W        W41475  13.850  30.204   4.062
69947W        W41476  21.056  43.350   4.098
69948W        W41477   8.183   6.706   3.783
69949W        W41478   6.901  35.463  13.926
69950W        W41479   4.216  25.749  11.151
69951W        W41480  18.838  21.749   1.514
69952W        W41481  20.443  20.094  11.468
69953W        W41482  34.144   9.318  11.536
69954W        W41483  26.202  15.314  13.319
69955W        W41484  36.986   4.364   4.593
69956W        W41485   8.888  24.673  13.078
69957W        W41486  42.241  23.803  11.259
69958W        W41487  26.402   7.117   4.075
69959W        W41488   8.152  39.444   3.907
69960W        W41489  38.435  29.226  10.360
69961W        W41490  14.126  30.156  12.076
69962W        W41491  10.144  34.774  14.398
69963W        W41492   6.356   3.301  13.700
69964W        W41493  29.991   9.878   3.385
69965W        W41494  15.650  21.124   3.719
69966W        W41495   7.888  38.065  13.734
69967W        W41496  43.845  44.305  10.595
69968W        W41497  42.499  35.629  10.806
69969W        W41498  29.680   9.111  11.727
69970W        W41499   4.321   0.957  10.933
69971W        W41500  12.838  21.035   0.848
69972W        W41501  17.563  20.679   1.233
69973W        W41502  43.349  32.823   1.127
69974W        W41503  31.129  40.230   3.189
69975W        W41504   6.690   4.715   3.634
69976W        W41505  30.030  39.847   2.792
69977W        W41506   9.699  41.088  14.328
69978W        W41507  29.788  25.053  10.218
69979W        W41508   9.890  16.120   3.357
69980W        W41509  31.211  42.296  10.754
69981W        W41510   9.252  41.469  13.996
69982W        W41511   2.497  40.652   2.405
69983W        W41512  36.906  40.605  13.001
69984W        W41513  35.895  35.433  14.901
69985W        W41514  32.697  31.520   3.643
69986W        W41515  20.367  31.458  11.604
69987W        W41516   8.771   3.462   1.305
69988W        W41517  39.456  16.092  11.637
69989W        W41518   9.829  25.961  14.040
69990W        W41519   4.637   0.221  13.604
69991W        W41520  40.549  15.697   1.529
69992W        W41521   7.803  15.426   2.294
69993W        W41522   0.855  13.540  14.195
69994W        W41523   1.467  26.590  13.835
69995W        W41524  11.713  25.707   0.433
69996W        W41525  40.023   6.514  11.939
69997W        W41526   7.950  14.138  13.963
69998W        W41527   1.066  16.926   5.059
69999W        W41528   6.487  38.369   4.113
70000W        W41529  31.680   0.545  12.127
70001W        W41530   6.767  41.538  11.054
70002W        W41531  35.327   6.812   1.048
70003W        W41532  23.185  20.562   4.262
70004W        W41533   2.718  38.528  11.985
70005W        W41534  12.657   7.775  13.619
70006W        W41535   4.397  38.540   1.762
70007W        W41536   0.820  16.144  11.846
70008W        W41537  35.633  15.230  14.294
70009W        W41538  41.303  39.429   1.346
70010W        W41539  15.717  30.207  13.921
70011W        W41540   3.243  30.374   1.046
70012W        W41541   3.725  18.337   4.976
70013W        W41542  16.816  20.616   0.801
70014W        W41543   0.737  35.577  14.827
70015W        W41544   4.229   1.999  11.165
70016W        W41545   6.243   3.380   0.849
70017W        W41546  21.090  14.114   1.085
70018W        W41547   6.260  14.624  12.981
70019W        W41548  36.606  20.797   2.343
70020W        W41549  30.818  41.438  12.277
70021W        W41550  15.706  34.571  13.738
70022W        W41551  40.268  22.104  13.645
70023W        W41552  15.880  17.430   1.094
70024W        W41553  38.342  27.888   3.208
70025W        W41554   2.494   4.865   1.440
70026W        W41555  30.907   4.682  13.991
70027W        W41556  10.046  13.660  11.173
70028W        W41557  18.604  44.010   1.887
70029W        W41558  10.916  40.553   3.654
70030W        W41559   2.181  43.930  13.085
70031W        W41560  25.136  21.690  14.565
70032W        W41561  23.982  28.998  10.790
70033W        W41562  32.648  35.512   2.576
70034W        W41563   6.489  14.952   3.800
70035W        W41564  10.810  14.611   0.374
70036W        W41565  28.862  25.667  14.375
70037W        W41566  24.484   7.021  10.502
70038W        W41567  40.437  42.859  10.716
70039W        W41568  16.590  12.573   2.648
70040W        W41569  41.150   9.426   4.957
70041W        W41570  16.854  32.603   0.354
70042W        W41571   2.859  34.294   3.136
70043W        W41572  34.927   7.675  13.829
70044W        W41573   4.018  24.653   2.274
70045W        W41574  30.983  14.847   3.238
70046W        W41575  32.649  10.435   3.624
70047W        W41576   8.789   9.606  12.921
70048W        W41577  16.519  15.823   1.881
70049W        W41578   9.248  19.819  11.061
70050W        W41579   6.898  39.803  10.543
70051W        W41580   2.360  43.210  12.005
70052W        W41581   7.616  34.884  13.896
70053W        W41582  22.919  28.079  11.240
70054W        W41583  13.185  16.417  14.872
70055W        W41584  39.321  12.862  10.530
70056W        W41585   4.370   4.989   0.214
70057W        W41586  20.416  24.683  12.289
70058W        W41587  32.102   6.671  14.553
70059W        W41588  29.995  25.085   2.546
70060W        W41589   4.887  15.880   0.701
70061W        W41590  35.626  24.132  12.871
70062W        W41591  22.218  19.325   0.719
70063W        W41592  38.711  43.701   2.732
70064W        W41593  26.914  30.502  11.158
70065W        W41594   0.016  25.064  14.487
70066W        W41595   1.973  34.888  13.062
70067W        W41596  23.283  31.467  11.911
70068W        W41597   5.234  24.268  14.536
70069W        W41598  23.920  14.119  14.894
70070W        W41599  12.577  32.067   0.058
70071W        W41600  39.360  24.196  11.225
70072W        W41601   5.668  22.999   1.523
70073W        W41602   0.210  23.724   2.860
70074W        W41603   6.806  41.934   3.086
70075W        W41604  34.517   2.014  10.796
70076W        W41605  39.667   6.402   2.808
70077W        W41606  15.179  18.814  12.317
70078W        W41607   9.242  44.940  11.947
70079W        W41608  26.858  25.253  13.757
70080W        W41609  38.943  34.670  13.974
70081W        W41610  33.292   3.395   4.576
70082W        W41611  26.984   9.318   2.240
70083W        W41612  30.501  35.191  13.337
70084W        W41613  29.428  43.944  10.579
70085W        W41614  40.055   1.162   4.688
70086W        W41615  23.445  12.768   1.075
70087W        W41616   6.012  19.800   4.503
70088W        W41617  31.247  14.587  12.968
70089W        W41618  24.496  25.284  14.724
70090W        W41619  18.026  33.223  12.111
70091W        W41620  32.035   3.496   3.249
70092W        W41621  31.671  27.210   0.771
70093W        W41622  41.969  36.974   4.091
70094W        W41623  24.488   3.161   4.523
70095W        W41624  35.582  29.999  13.709
70096W        W41625  10.976  20.711  12.451
70097W        W41626  22.454  17.008  10.639
70098W        W41627  40.032  17.748   1.957
70099W        W41628  15.100  15.186  14.985
70100W        W41629   9.844  41.725   1.758
70101W        W41630  18.186  42.316  11.958
70102W        W41631   7.452  44.846  11.161
70103W        W41632   1.241  17.019  12.111
70104W        W41633  33.497  21.862   0.732
70105W        W41634  33.031  38.327   2.651
70106W        W41635  43.889  23.420   3.708
70107W        W41636  18.139  37.892   1.418
70108W        W41637  29.118  12.331   0.698
70109W        W41638   9.328  31.582   3.856
70110W        W41639  34.866   4.766   3.730
70111W        W41640  27.096  25.532   4.272
70112W        W41641  22.519  25.649  14.397
70113W        W41642  26.990  35.065  13.387
70114W        W41643  21.856  11.780   4.667
70115W        W41644  44.793  42.530   1.445
70116W        W41645  29.674  37.014   1.420
70117W        W41646  20.163  31.130   0.441
70118W        W41647  17.189  39.352  13.240
70119W        W41648  33.388  27.140  12.900
70120W        W41649   9.827   6.662  14.561
70121W        W41650  16.091  10.153  13.945
70122W        W41651   0.679  34.609   1.972
70123W        W41652  34.048   7.254  13.596
70124W        W41653   3.111   1.745  12.093
70125W        W41654  18.860  34.610  12.477
70126W        W41655   9.804  17.738   1.198
70127W        W41656  20.632   8.255   1.157
70128W        W41657  41.774  18.479  11.435
70129W        W41658  14.222   7.174  13.789
70130W        W41659  31.973  21.855   0.696
70131W        W41660  41.811  43.526  12.364
70132W        W41661  34.691  15.630   1.327
70133W        W41662  18.702   9.943   1.458
70134W        W41663  43.000  18.619  14.474
70135W        W41664  33.926  42.097  14.678
70136W        W41665  30.339  23.533   0.471
70137W        W41666  30.407  38.871  13.961
70138W        W41667  14.492  28.619   2.372
70139W        W41668  43.658   4.370   4.838
70140W        W41669  20.767  21.032   3.391
70141W        W41670  19.825  43.049  13.806
70142W        W41671   0.839   7.883  11.835
70143W        W41672  23.937  31.481   2.721
70144W        W41673  25.971  14.151  10.834
70145W        W41674  30.581  21.218   4.921
70146W        W41675  13.127  10.722  10.346
70147W        W41676   3.184   6.781  14.711
70148W        W41677  43.499   4.650  14.946
70149W        W41678  23.717   5.412   3.207
70150W        W41679  26.080  40.767   0.296
70151W        W41680  42.235  15.309   1.334
70152W        W41681  14.211   5.965   0.421
70153W        W41682  35.529  44.941   1.916
70154W        W41683   2.975  14.868   4.063
70155W        W41684  21.794  39.977   0.962
70156W        W41685   3.389  42.544   0.671
70157W        W41686   2.296  42.900   4.122
70158W        W41687  41.313  37.536  11.122
70159W        W41688  35.230  23.531   0.885
70160W        W41689  33.648   9.283  11.354
70161W        W41690  44.026  15.117  12.026
70162W        W41691  41.476  25.448   3.306
70163W        W41692  24.537  37.967   4.785
70164W        W41693  24.057  36.400  10.673
70165W        W41694  12.088  15.054  13.538
70166W        W41695  29.088  14.703  14.578
70167W        W41696  26.625  11.332   9.945
70168W        W41697  16.683  30.018   0.648
70169W        W41698  17.472   4.620   1.708
70170W        W41699  43.891  10.670  10.682
70171W        W41700  23.233  36.570   3.658
70172W        W41701  24.295  26.810   5.226
70173W        W41702  37.517   1.811  13.947
70174W        W41703  34.896  25.509   4.070
70175W        W41704   1.677  21.893   0.963
70176W        W41705  32.058   2.494  14.808
70177W        W41706  14.550  40.333   3.553
70178W        W41707   4.952  40.715   4.140
70179W        W41708   9.694  41.560   0.227
70180W        W41709  20.708  33.451   0.811
70181W        W41710   0.758   1.445  12.528
70182W        W41711  35.497  39.004  13.323
70183W        W41712  26.570  42.863  10.738
70184W        W41713  19.075  22.616   3.127
70185W        W41714   2.272  31.975  13.965
70186W        W41715  39.941  32.821  11.402
70187W        W41716  10.878  31.964   2.869
70188W        W41717  27.355  38.532   4.180
70189W        W41718  14.321  11.735   3.765
70190W        W41719  36.691  37.437  14.567
70191W        W41720  12.860  31.620  12.503
70192W        W41721  10.568  29.180   3.994
70193W        W41722   0.810  29.393   3.194
70194W        W41723  28.877   4.340  12.957
70195W        W41724  21.193  32.388   2.730
70196W        W41725  34.807   0.616   4.903
70197W        W41726  24.344  37.709   2.046
70198W        W41727  11.795   4.310   3.358
70199W        W41728   4.704   7.716   1.526
70200W        W41729  22.929  10.767   2.213
70201W        W41730  19.773  43.897   4.177
70202W        W41731  43.386  32.329   2.160
70203W        W41732   4.937  39.014   1.413
70204W        W41733  18.294  19.652  10.618
70205W        W41734  40.822  37.256   0.260
70206W        W41735   3.977  18.335   1.263
70207W        W41736  36.339  24.248  13.317
70208W        W41737  29.207  44.756   1.254
70209W        W41738   1.687  42.705   0.433
70210W        W41739  10.762   8.102  14.758
70211W        W41740   3.978  35.789  10.892
70212W        W41741  22.299  11.200   0.485
70213W        W41742  31.110  24.004   1.921
70214W        W41743  41.545  29.086   2.782
70215W        W41744   0.476  27.178   3.229
70216W        W41745  21.010  35.520  13.549
70217W        W41746  34.552  42.327   3.810
70218W        W41747  19.716  30.700  14.289
70219W        W41748  34.420  20.554  10.795
70220W        W41749  15.347  29.480   0.833
70221W        W41750  10.625  29.597   4.292
70222W        W41751  39.259  25.419   0.407
70223W        W41752  11.231  34.951   0.258
70224W        W41753  25.075  22.510  10.761
70225W        W41754  32.916  33.531  12.325
70226W        W41755  23.304  37.458   2.652
70227W        W41756   6.202   6.364  14.942
70228W        W41757  44.468   5.307  14.546
70229W        W41758  28.640  20.756  13.538
70230W        W41759  13.736  29.002  10.411
70231W        W41760   8.813  37.729   0.755
70232W        W41761  32.412  24.592   3.894
70233W        W41762   2.429  26.575   4.945
70234W        W41763  23.478   9.673   0.404
70235W        W41764  19.529  15.767  10.720
70236W        W41765  24.504   9.876   2.091
70237W        W41766  32.364  43.479   4.429
70238W        W41767   2.772  34.639  14.416
70239W        W41768  25.817  32.442  12.385
70240W        W41769  17.193  43.029  11.601
70241W        W41770  37.863  36.050  10.743
70242W        W41771  37.879  42.439  14.451
70243W        W41772   0.318   4.601  11.519
70244W        W41773  42.578   6.972   2.912
70245W        W41774  25.097  17.801   1.819
70246W        W41775  39.449  12.722   2.202
70247W        W41776  31.685  19.148   4.452
70248W        W41777  26.876  36.503   2.693
70249W        W41778  27.034  43.763   2.674
70250W        W41779  31.596  35.962   0.009
70251W        W41780  40.377  20.507   0.395
70252W        W41781  22.102   7.723  14.358
70253W        W41782   1.902  41.532  14.856
70254W        W41783  28.001   4.343  10.435
70255W        W41784  27.758   8.197  12.287
70256W        W41785  39.498  33.055  13.044
70257W        W41786  34.132  30.037  14.339
70258W        W41787  16.629  33.872  10.747
70259W        W41788   4.157  33.706   4.313
70260W        W41789  37.722  39.389   0.664
70261W        W41790   0.717   7.297   1.458
70262W        W41791  14.633  40.986   0.900
70263W        W41792  11.218   1.948   5.503
70264W        W41793  29.953  27.204  14.959
70265W        W41794  34.504  30.115   4.875
70266W        W41795  13.604  25.114  12.651
70267W        W41796  12.917  21.512  11.815
70268W        W41797   5.938  17.149  11.142
70269W        W41798   7.129  24.223   3.640
70270W        W41799  32.721  15.196   1.303
70271W        W41800  20.060  41.073   2.718
70272W        W41801  39.457  44.742  11.859
70273W        W41802  28.655   9.200   3.730
70274W        W41803   3.657  33.690   3.252
70275W        W41804  37.633  41.664   4.177
70276W        W41805  16.730  12.591   4.924
70277W        W41806   5.405  23.789  12.617
70278W        W41807  13.402  39.419   4.412
70279W        W41808   9.054  29.517  11.692
70280W        W41809   5.373  22.487   3.761
70281W        W41810   5.947  15.899  14.932
70282W        W41811  16.842  31.922  14.921
70283W        W41812   6.467  29.895   0.275
70284W        W41813  36.619   5.707  12.878
70285W        W41814  25.931  42.900   3.311
70286W        W41815  42.093   8.182   2.284
70287W        W41816  18.491   1.169  14.676
70288W        W41817  18.120   6.148   2.897
70289W        W41818  33.355  25.239  12.541
70290W        W41819   5.267  33.928  13.019
70291W        W41820   0.496  21.135   1.357
70292W        W41821  25.970  40.029  11.990
70293W        W41822  44.897  26.159   0.980
70294W        W41823   9.018  10.094   0.926
70295W        W41824  37.397  21.277   2.379
70296W        W41825  15.296  44.993   0.282
70297W        W41826  10.031   2.655  12.932
70298W        W41827  36.573   3.792   3.247
70299W        W41828  33.189  34.720  14.578
70300W        W41829   1.564   8.648   3.340
70301W        W41830  41.068  35.565   3.390
70302W        W41831  24.986  41.841   1.967
70303W        W41832  33.980  27.417   1.011
70304W        W41833  32.571  36.891  14.684
70305W        W41834  30.957   6.705  13.960
70306W        W41835  28.939  43.909   3.209
70307W        W41836  41.904   8.973  12.567
70308W        W41837  26.214   9.831   1.500
70309W        W41838  22.090  17.803   0.925
70310W        W41839   8.603   9.811   0.696
70311W        W41840   8.967  43.970  13.959
70312W        W41841  34.470  25.532   0.779
70313W        W41842  44.482  35.911   2.212
70314W        W41843  24.950  28.108   2.427
70315W        W41844  24.009  13.881  10.693
70316W        W41845   4.171  35.041   4.600
70317W        W41846  15.574  39.510  10.731
70318W        W41847  43.941  31.053  12.494
70319W        W41848  12.719   4.476  12.662
70320W        W41849  18.462   7.991   3.893
70321W        W41850  17.581  31.501  12.454
70322W        W41851  33.502  13.329   3.550
70323W        W41852  44.442  20.755  10.981
70324W        W41853  40.765   6.955  14.396
70325W        W41854   0.451  36.388  14.587
70326W        W41855   0.755  26.694   3.226
70327W        W41856  36.984  34.860  12.522
70328W        W41857  15.057  17.565  13.581
70329W        W41858  32.005  27.944  13.763
70330W        W41859  33.575  10.259   2.711
70331W        W41860  19.387  41.870  14.264
70332W        W41861  43.371  32.091   3.758
70333W        W41862   5.425  11.799  12.438
70334W        W41863  42.332  18.238   4.924
70335W        W41864  30.500  15.639   0.301
70336W        W41865  25.750  24.626   2.785
70337W        W41866  41.777  17.249   1.218
70338W        W41867  29.050  33.248   1.982
70339W        W41868  40.562  33.843   2.814
70340W        W41869   0.496  40.143   2.391
70341W        W41870   7.468  16.830   4.862
70342W        W41871  13.799  33.209   5.102
70343W        W41872  39.561  30.527   0.954
70344W        W41873  42.552  19.639   3.097
70345W        W41874   7.779   4.485  13.628
70346W        W41875  24.289  13.424  11.066
70347W        W41876  25.983  36.791   4.804
70348W        W41877  10.917   7.173  12.088
70349W        W41878  43.027  39.487   3.256
70350W        W41879  43.932   6.634   4.721
70351W        W41880  12.199   4.812  14.008
70352W        W41881   3.173   8.721  12.507
70353W        W41882  40.343  36.597  13.165
70354W        W41883  18.734  18.643  13.060
70355W        W41884   5.001  27.439  11.019
70356W        W41885  14.094   1.991  11.409
70357W        W41886  33.367  15.721   2.651
70358W        W41887  26.449  13.188  14.819
70359W        W41888  39.020  12.258  13.378
70360W        W41889  18.250  28.410  13.089
70361W        W41890  34.646  17.220   4.935
70362W        W41891  11.755  11.900  14.272
70363W        W41892  21.124   7.757  11.206
70364W        W41893  34.832   6.867  13.376
70365W        W41894  18.914  19.216   4.081
70366W        W41895  22.496  37.340  10.408
70367W        W41896   1.714  37.662  13.508
70368W        W41897  25.456  26.053   0.247
70369W        W41898   0.293  20.428   3.581
70370W        W41899  38.437  25.152   1.299
70371W        W41900   8.160   4.668  12.494
70372W        W41901  18.628   5.302  14.802
70373W        W41902  18.293   4.425  14.723
70374W        W41903  20.121  42.860  14.471
70375W        W41904   3.276  34.657  14.530
70376W        W41905  37.421  38.535  14.457
70377W        W41906  31.575  27.128   0.280
70378W        W41907   0.697  37.745   5.275
70379W        W41908  36.412  23.618  10.757
70380W        W41909  25.686   0.055  13.541
70381W        W41910  15.173   6.389   3.383
70382W        W41911  22.610   2.324   3.946
70383W        W41912   0.253  16.886  11.982
70384W        W41913  27.579  17.983  10.809
70385W        W41914  44.813  34.007   1.374
70386W        W41915  25.688  15.093   1.313
70387W        W41916  37.431   6.328   4.751
70388W        W41917  23.492  39.903   9.609
70389W        W41918  12.751  21.527  14.484
70390W        W41919  13.342   4.083   2.762
70391W        W41920  11.383   1.009  12.032
70392W        W41921  14.670   2.473   2.911
70393W        W41922  20.286  19.607  10.682
70394W        W41923  17.835  19.016   0.033
70395W        W41924   1.798  15.853  12.077
70396W        W41925  24.015  38.274  12.083
70397W        W41926  27.922   9.875  10.995
70398W        W41927  43.424   9.438  11.383
70399W        W41928   9.805  28.837   0.312
70400W        W41929   9.252  15.264   0.946
70401W        W41930  13.331  33.350   3.835
70402W        W41931  33.542  11.878  13.892
70403W        W41932   1.525  36.875  12.984
70404W        W41933  31.461  39.973  12.002
70405W        W41934   6.151  29.892   2.597
70406W        W41935  16.282  44.326  11.582
70407W        W41936  29.191  43.549   2.843
70408W        W41937   8.371  14.648   1.004
70409W        W41938  28.656   3.662   1.735
70410W        W41939  43.977  30.149  13.338
70411W        W41940   5.179  36.074  11.622
70412W        W41941  33.646  12.990   4.745
70413W        W41942  10.097  22.955  12.505
70414W        W41943   9.905  13.729   2.345
70415W        W41944   0.464  25.417   0.591
70416W        W41945  31.224  32.173   0.081
70417W        W41946  29.970  19.588   4.205
70418W        W41947  15.346  17.754  11.337
70419W        W41948  35.960  44.586   0.320
70420W        W41949  23.004  32.884  11.324
70421W        W41950  23.757  44.243  14.469
70422W        W41951  17.979  11.067  11.213
70423W        W41952  12.681  43.938   1.636
70424W        W41953   6.701   8.890  12.921
70425W        W41954  18.226  11.690   0.258
70426W        W41955  33.455   4.707  12.398
70427W        W41956  18.543   2.071  13.451
70428W        W41957  19.638  30.790   2.275
70429W        W41958  20.035   7.865  13.095
70430W        W41959  23.475  25.435   0.367
70431W        W41960   9.293  22.183   3.343
70432W        W41961  18.702  21.096  14.287
70433W        W41962  22.665  24.049  11.150
70434W        W41963  22.630  38.335  11.197
70435W        W41964  27.697  14.547   4.831
70436W        W41965  10.363  22.608   5.103
70437W        W41966  39.174  43.419  13.437
70438W        W41967   8.351  16.316  10.665
70439W        W41968  28.076  16.205   0.908
70440W        W41969  38.435  21.240  10.687
70441W        W41970  11.038   2.857  13.923
70442W        W41971   3.495  11.333   2.392
70443W        W41972  17.083  18.628  14.503
70444W        W41973  26.043  26.751   2.860
70445W        W41974  31.116  36.135  11.119
70446W        W41975  20.695  40.429   2.312
70447W        W41976  35.351  38.060  14.903
70448W        W41977  39.821  18.638  13.819
70449W        W41978  15.552  33.016   2.289
70450W        W41979  10.118   0.782   3.435
70451W        W41980  27.968  13.363  11.656
70452W        W41981  42.981  11.839  10.573
70453W        W41982  38.050   2.272   1.393
70454W        W41983  10.058   1.842  12.779
70455W        W41984  39.434  10.559   0.231
70456W        W41985  40.719  30.121  11.217
70457W        W41986  43.566   9.266  14.892
70458W        W41987  39.977  20.152  13.470
70459W        W41988  41.815  26.843  13.812
70460W        W41989   0.746  11.887  11.211
70461W        W41990   2.282  20.221   0.923
70462W        W41991  19.242  29.878  14.426
70463W        W41992  13.312  22.124   4.403
70464W        W41993  23.057  13.063  12.841
70465W        W41994  10.483  34.631   3.207
70466W        W41995  43.971   9.640  12.523
70467W        W41996  22.646  40.316   4.116
70468W        W41997  27.682  34.559   1.358
70469W        W41998   6.152  19.049  11.869
70470W        W41999  19.529   6.953  13.815
70471W        W42000  20.114  30.485   4.499
70472W        W42001   4.948  27.676  14.432
70473W        W42002   9.888  42.340   4.366
70474W        W42003   6.175   6.049  14.544
70475W        W42004   4.846  13.502  13.800
70476W        W42005   8.635  10.357  14.469
70477W        W42006  20.946   7.696  12.450
70478W        W42007   3.962   4.351   3.219
70479W        W42008  11.726   7.701   4.559
70480W        W42009  14.642  26.510   1.853
70481W        W42010  41.812  32.611   2.800
70482W        W42011  42.542  16.579  12.551
70483W        W42012  39.129  25.516  12.920
70484W        W42013  17.609   8.723  10.739
70485W        W42014  13.165  32.682  11.157
70486W        W42015  31.498  29.095  11.662
70487W        W42016  12.885   5.458   3.128
70488W        W42017  41.667  25.465   4.288
70489W        W42018  18.993  32.199  12.002
70490W        W42019  13.426  41.361  12.870
70491W        W42020  26.624   1.461  11.653
70492W        W42021  38.335  29.046  14.553
70493W        W42022  25.781  29.797  14.187
70494W        W42023  24.508  12.728   4.011
70495W        W42024  30.012  43.748   3.294
70496W        W42025  17.154  12.681   4.584
70497W        W42026  34.020  42.092   2.213
70498W        W42027  38.563   0.314   2.139
70499W        W42028  30.015  38.366  10.482
70500W        W42029  14.546   0.144   4.489
70501W        W42030  21.052  23.993   3.024
70502W        W42031  10.887   0.420  12.667
70503W        W42032  21.045   1.044   3.252
70504W        W42033  34.446  18.532   2.880
70505W        W42034   3.895  10.353  14.391
70506W        W42035  19.572  24.483   2.767
70507W        W42036  27.444  21.532   0.697
70508W        W42037  37.886  16.531   4.279
70509W        W42038   2.456   0.235   4.004
70510W        W42039  42.571  13.223   4.732
70511W        W42040   6.372   2.043   0.425
70512W        W42041  29.951  34.136   3.254
70513W        W42042  14.507  44.185   5.067
70514W        W42043  25.896  15.533   3.987
70515W        W42044   6.461  23.958  11.560
70516W        W42045  24.150  19.076   4.360
70517W        W42046  43.617  43.875  10.806
70518W        W42047  20.333  31.517   1.251
70519W        W42048   5.133   3.643  10.728
70520W        W42049  39.758  34.112  10.716
70521W        W42050  16.615  15.449  12.312
70522W        W42051  16.829  39.390   1.519
70523W        W42052  13.886  33.133   1.689
70524W        W42053  20.816  18.213   1.799
70525W        W42054  36.920   8.463  10.750
70526W        W42055   1.042  22.052  11.525
70527W        W42056  44.843  35.917  10.796
70528W        W42057   8.850  11.686  11.927
70529W        W42058  39.459  15.166  10.986
70530W        W42059   1.423  43.617  11.939
70531W        W42060  23.713  17.270  13.463
70532W        W42061  10.224  23.716  13.930
70533W        W42062   8.347  28.907  11.150
70534W        W42063  19.030  29.689   2.176
70535W        W42064  10.628  24.217  14.610
70536W        W42065   0.475   1.946   2.759
70537W        W42066  32.182  11.709   3.674
70538W        W42067  25.222  14.019  12.687
70539W        W42068  43.605   3.059  11.920
70540W        W42069  44.882  31.437  12.171
70541W        W42070   0.385  29.149   3.616
70542W        W42071  26.606  36.649  12.050
70543W        W42072  14.484  36.006  14.709
70544W        W42073  22.436   1.031  14.334
70545W        W42074  16.939   3.859   3.714
70546W        W42075  31.010  38.879   4.265
70547W        W42076  16.081  31.886  14.360
70548W        W42077  15.757   2.412   1.254
70549W        W42078  17.306  35.852  12.567
70550W        W42079  26.560  21.688  14.293
70551W        W42080   9.308  42.234  11.119
70552W        W42081  32.000  27.941  12.030
70553W        W42082  41.604  22.339  12.635
70554W        W42083  13.434  38.922   4.663
70555W        W42084   4.348  11.344  11.148
70556W        W42085  32.626  18.306   1.491
70557W        W42086  25.799  11.403  13.425
70558W        W42087   0.330  29.717  11.473
70559W        W42088  18.804  17.650  11.995
70560W        W42089   4.180   9.592   4.118
70561W        W42090   7.401  17.329   0.464
70562W        W42091  26.418  44.576   1.197
70563W        W42092  41.015  38.571   2.297
70564W        W42093  43.623  12.587   4.089
70565W        W42094  27.250  13.695  11.941
70566W        W42095  17.736  35.843  13.535
70567W        W42096  16.577  24.484  10.336
70568W        W42097  23.565  18.205  13.578
70569W        W42098  14.075   0.600   5.024
70570W        W42099  44.766  36.493   3.233
70571W        W42100  29.845  37.500   0.991
70572W        W42101  23.641  17.350   1.330
70573W        W42102  32.626  20.695   2.491
70574W        W42103  40.857  23.970   2.362
70575W        W42104  32.144  41.908   2.717
70576W        W42105   4.716   4.232  10.120
70577W        W42106  39.283  21.945   0.371
70578W        W42107   2.212   4.835   2.877
70579W        W42108  27.072  25.410  11.227
70580W        W42109  25.607  24.636   4.169
70581W        W42110   8.823  40.866   2.611
70582W        W42111  16.768  24.981  11.091
70583W        W42112  21.730  40.481  13.788
70584W        W42113  34.487  14.802  11.741
70585W        W42114  34.547  37.964   3.632
70586W        W42115  14.594  43.892  13.399
70587W        W42116  11.868  34.468   0.806
70588W        W42117  18.065  41.484   1.942
70589W        W42118  37.060  12.707   0.331
70590W        W42119   8.160  10.772  11.023
70591W        W42120  14.180  19.470  10.664
70592W        W42121  26.938   2.281  13.535
70593W        W42122  21.113   7.029   0.686
70594W        W42123  26.939  17.195   3.125
70595W        W42124  34.396   4.753   1.714
70596W        W42125  17.115  21.841  13.853
70597W        W42126  11.375   2.300   0.492
70598W        W42127   5.367  19.379   0.763
70599W        W42128  39.784  26.978   2.722
70600W        W42129  42.940   6.380  13.998
70601W        W42130  24.911  36.101   0.781
70602W        W42131   9.875  35.923   3.074
70603W        W42132  16.321   3.001   0.029
70604W        W42133  25.614  13.137  11.135
70605W        W42134   0.360  43.571   0.591
70606W        W42135  29.594  36.856  14.325
70607W        W42136  22.730  32.899   1.448
70608W        W42137   9.926  27.693  13.500
70609W        W42138  25.476   7.216  12.981
70610W        W42139  21.859  33.507  13.552
70611W        W42140   5.855  42.487  11.873
70612W        W42141   7.658  10.931   3.308
70613W        W42142  41.966  38.794  13.992
70614W        W42143   2.595  33.706  14.821
70615W        W42144  35.931   2.289  12.455
70616W        W42145  17.652  24.046  11.854
70617W        W42146  26.446  25.070   4.011
70618W        W42147  36.378   0.874  13.982
70619W        W42148  14.036  30.979  12.436
70620W        W42149  35.923  42.292  14.851
70621W        W42150  42.512  32.928  14.924
70622W        W42151  30.722   5.183  12.667
70623W        W42152   8.542   7.671   3.764
70624W        W42153  16.071  39.837   4.054
70625W        W42154  35.250  28.050  10.432
70626W        W42155  35.473  25.203  13.884
70627W        W42156  18.217  24.740   2.865
70628W        W42157  39.247  16.087  13.038
70629W        W42158   9.598  11.746  14.917
70630W        W42159  33.489  38.591  12.890
70631W        W42160   0.224  24.140   2.145
70632W        W42161  39.365  29.424   4.512
70633W        W42162  43.555  19.219   4.110
70634W        W42163  13.270  39.181   1.013
70635W        W42164  24.642  11.125   0.803
70636W        W42165  26.099  38.823  11.578
70637W        W42166  43.114  35.328   0.356
70638W        W42167  39.992   4.169  12.685
70639W        W42168  39.731   5.302   2.788
70640W        W42169   2.091  29.207  14.265
70641W        W42170  14.640  37.265   3.797
70642W        W42171  34.654  44.449   1.422
70643W        W42172   8.720  34.201  11.032
70644W        W42173  39.893  38.293   3.601
70645W        W42174  34.917   3.965  12.494
70646W        W42175  30.481  23.162   0.840
70647W        W42176  16.293  36.230   3.920
70648W        W42177  35.357  19.714   3.704
70649W        W42178   2.847   9.285   0.507
70650W        W42179  23.895  40.029   4.385
70651W        W42180  43.084   8.961   3.569
70652W        W42181   3.014  29.712  12.207
70653W        W42182  34.080  34.908   4.044
70654W        W42183  40.058  14.849   0.161
70655W        W42184   0.899  10.874  11.640
70656W        W42185  38.444  43.744   1.877
70657W        W42186  17.014  38.010  10.925
70658W        W42187  41.868  30.534  14.202
70659W        W42188   8.949  28.183  13.543
70660W        W42189  11.671  18.585  11.581
70661W        W42190   5.905  10.212   2.797
70662W        W42191   1.751   3.214   1.239
70663W        W42192  31.065  34.372  12.153
70664W        W42193  10.807  40.292   2.748
70665W        W42194  40.175  30.083  12.389
70666W        W42195   2.067  21.223   0.174
70667W        W42196  32.996   2.695   3.241
70668W        W42197  20.198  44.536   1.303
70669W        W42198   5.630   7.778  13.271
70670W        W42199  27.443  15.674  12.834
70671W        W42200  21.222  12.331  10.043
70672W        W42201  13.585  11.902   4.207
70673W        W42202  23.830  13.548   3.986
70674W        W42203  16.736  38.168   3.661
70675W        W42204  33.430  21.108  13.862
70676W        W42205  17.105  34.341  13.028
70677W        W42206  13.650  38.890   3.242
70678W        W42207  12.887  23.293  12.638
70679W        W42208   0.087  10.838   0.238
70680W        W42209   5.121   2.713  12.610
70681W        W42210  13.694  14.044   3.194
70682W        W42211   8.063  14.144   2.336
70683W        W42212  17.815   6.677   3.603
70684W        W42213  42.562  16.728   1.296
70685W        W42214  32.587   0.122  12.074
70686W        W42215  42.375   4.472   1.843
70687W        W42216  11.186  33.062  13.111
70688W        W42217  17.677   1.799  12.068
70689W        W42218  13.011   8.613  13.383
70690W        W42219  22.645   3.664   2.882
70691W        W42220   8.665  28.061   0.577
70692W        W42221  30.017  30.395  12.562
70693W        W42222  32.890  27.197  12.834
70694W        W42223  38.539   2.429   4.163
70695W        W42224   2.395   7.785  12.330
70696W        W42225   5.495  24.219   2.154
70697W        W42226  37.589   4.663   4.363
70698W        W42227  31.825  36.411  14.838
70699W        W42228  28.453  37.545  11.584
70700W        W42229  18.200  34.586   2.691
70701W        W42230  24.833   8.092  14.909
70702W        W42231  10.095  15.186   3.534
70703W        W42232  20.283  10.197  14.371
70704W        W42233  34.372  16.087  11.569
70705W        W42234  24.215  15.189   1.918
70706W        W42235  18.466  33.455  14.771
70707W        W42236  44.219   6.744   2.705
70708W        W42237  25.184  41.432  13.499
70709W        W42238  29.522   2.173  11.124
70710W        W42239  28.455  23.250   2.951
70711W        W42240  44.910  25.047   0.014
70712W        W42241  11.403  44.342   2.743
70713W        W42242  14.315   5.832  11.149
70714W        W42243  24.477  42.004  11.605
70715W        W42244  37.488  19.796  11.588
70716W        W42245  35.503   9.255   0.405
70717W        W42246  32.164  44.691  10.972
70718W        W42247   9.896  15.892   2.917
70719W        W42248  15.518  15.756  11.953
70720W        W42249  42.414   3.933  10.645
70721W        W42250   0.633  32.766  10.563
70722W        W42251  14.405   6.755   4.075
70723W        W42252  20.109  23.806  11.622
70724W        W42253  27.980   0.898  11.939
70725W        W42254  41.258   3.568   4.602
70726W        W42255  29.235  28.176  12.468
70727W        W42256  14.524  21.956  12.497
70728W        W42257  34.650  10.851   4.775
70729W        W42258   3.017  38.532  14.257
70730W        W42259  23.405   2.104  12.043
70731W        W42260   1.811  15.619  11.099
70732W        W42261  38.420  42.968   2.535
70733W        W42262  21.797   2.945   4.162
70734W        W42263  44.794  34.432   1.685
70735W        W42264  30.543  12.355  13.965
70736W        W42265   9.157  30.027  13.096
70737W        W42266  40.512  41.761   1.703
70738W        W42267  23.754   8.988   2.741
70739W        W42268  19.011  12.055  14.503
70740W        W42269   4.657   9.235  10.917
70741W        W42270  43.023  35.196   3.588
70742W        W42271  16.689  43.657   0.617
70743W        W42272  40.430  17.735  11.674
70744W        W42273  11.782  10.386   3.737
70745W        W42274  22.608   2.130   3.470
70746W        W42275  29.901  18.588  13.572
70747W        W42276  18.277  17.466   2.339
70748W        W42277  33.079  42.441   1.665
70749W        W42278  29.739  34.855  12.552
70750W        W42279  23.528  28.205   4.709
70751W        W42280  42.361  21.228   1.929
70752W        W42281  28.477  39.423  14.228
70753W        W42282  11.388  16.716  10.440
70754W        W42283  40.854   6.777   1.839
70755W        W42284  33.175  11.359   0.608
70756W        W42285  41.947  32.143   2.565
70757W        W42286  16.387  15.358  12.953
70758W        W42287  19.731  21.138  13.761
70759W        W42288  43.740  39.880   4.229
70760W        W42289  31.948  39.752  11.301
70761W        W42290  29.291  24.252  12.991
70762W        W42291  21.879   5.219   1.870
70763W        W42292  19.290  15.773   4.119
70764W        W42293  22.623  33.065  14.544
70765W        W42294  38.853  37.608  10.541
70766W        W42295  17.248  22.183  14.853
70767W        W42296  35.055  33.035   1.469
70768W        W42297  29.184  32.136  14.826
70769W        W42298  14.815  21.961  11.674
70770W        W42299  28.382  12.729   0.925
70771W        W42300  14.225  25.470   4.696
70772W        W42301  15.115  20.884   0.544
70773W        W42302  19.493   3.842  10.678
70774W        W42303  42.377  40.421   1.840
70775W        W42304  31.821   1.718  11.160
70776W        W42305   4.920  34.911  10.119
70777W        W42306  36.145  19.775   0.864
70778W        W42307  26.564  44.993   0.406
70779W        W42308  30.157  38.697   3.666
70780W        W42309  13.143  10.028   4.076
70781W        W42310  29.598  34.157   3.647
70782W        W42311  32.076  30.197  12.658
70783W        W42312  35.358   6.434  12.484
70784W        W42313  36.897  11.321  14.084
70785W        W42314  20.208  37.878   2.784
70786W        W42315  39.319  20.467   0.273
70787W        W42316   5.543  19.722   3.950
70788W        W42317  41.713  20.142   4.404
70789W        W42318  38.010  16.019  13.479
70790W        W42319  33.914  14.638   3.350
70791W        W42320  32.897   9.839   3.118
70792W        W42321  30.978  19.111   2.792
70793W        W42322   2.285  26.647   2.291
70794W        W42323  28.158   8.363  11.545
70795W        W42324  27.140   9.480   4.213
70796W        W42325  15.257  36.982  11.083
70797W        W42326  23.398   5.325  12.577
70798W        W42327  15.213  30.139  11.113
70799W        W42328   0.023  31.271   3.221
70800W        W42329  10.496  14.349  13.320
70801W        W42330   8.202  21.088  14.007
70802W        W42331  42.255  41.898  11.041
70803W        W42332  32.984  29.356  14.887
70804W        W42333  12.073  32.135   1.666
70805W        W42334  42.359  36.345  12.167
70806W        W42335  33.996  38.467   2.446
70807W        W42336   2.445  24.957  13.904
70808W        W42337  44.291  15.553  10.145
70809W        W42338   4.782  32.015  11.035
70810W        W42339  19.707  31.681  14.520
70811W        W42340  18.552   2.491  12.158
70812W        W42341   9.137  27.160  10.958
70813W        W42342  31.654  28.573   1.393
70814W        W42343  26.078  16.113  10.738
70815W        W42344  37.218   5.232  13.231
70816W        W42345  18.527  20.306   4.498
70817W        W42346   7.858  41.819   2.269
70818W        W42347  13.455  13.178   1.359
70819W        W42348   4.444  25.067   3.330
70820W        W42349   2.727   7.364  13.463
70821W        W42350  16.241  35.967  12.481
70822W        W42351  39.481  14.239   2.897
70823W        W42352  44.249  17.102   3.650
70824W        W42353  17.439  13.544  14.579
70825W        W42354  36.252  28.549   3.662
70826W        W42355  33.355  18.658   1.826
70827W        W42356  22.563  37.609  13.147
70828W        W42357  42.095  31.831  11.465
70829W        W42358  38.466   5.389  14.013
70830W        W42359  11.759   4.877  13.754
70831W        W42360  32.124  12.784   4.740
70832W        W42361  41.442  29.894   2.315
70833W        W42362  29.014  42.880  10.701
70834W        W42363  39.489   5.644  14.846
70835W        W42364  36.669  28.537   0.357
70836W        W42365  31.696  24.761  12.604
70837W        W42366  40.560   5.785  10.451
70838W        W42367  35.761  19.624  13.849
70839W        W42368  38.145  20.707   3.691
70840W        W42369  29.111   9.243   4.564
70841W        W42370  34.837  19.997  13.827
70842W        W42371  11.628  16.784  12.853
70843W        W42372  28.970  44.680  14.431
70844W        W42373  11.867  19.916   1.107
70845W        W42374  37.934  38.381  12.628
70846W        W42375  34.520  32.616   3.474
70847W        W42376  42.731  40.249  11.695
70848W        W42377  43.863  39.344  12.583
70849W        W42378  29.417  36.944   4.107
70850W        W42379  24.180  16.728  14.662
70851W        W42380  36.604  24.977  14.413
70852W        W42381  25.499  22.518   1.588
70853W        W42382   2.649  26.056   1.885
70854W        W42383  33.611   3.432   2.186
70855W        W42384  37.629  17.032  13.489
70856W        W42385  33.466  14.386   2.190
70857W        W42386  16.533  22.338  14.338
70858W        W42387  44.816  34.381  10.097
70859W        W42388  20.843  33.545  13.424
70860W        W42389  20.702  12.576   0.906
70861W        W42390  24.408  30.568  11.307
70862W        W42391  23.651  21.153   1.730
70863W        W42392  31.829  21.633  14.842
70864W        W42393  22.812  14.672   0.476
70865W        W42394   7.384  11.073   1.789
70866W        W42395  31.196  36.059   2.886
70867W        W42396  12.764  28.815   2.408
70868W        W42397   7.295  14.260  12.505
70869W        W42398  25.506   2.759   0.593
70870W        W42399  11.420   0.381   3.157
70871W        W42400  33.488  39.942   1.959
70872W        W42401  20.818  41.458  10.727
70873W        W42402  26.993  32.173  13.118
70874W        W42403   9.705  16.338   2.664
70875W        W42404  37.355  20.202   3.767
70876W        W42405  41.289   9.349  13.996
70877W        W42406  29.100  44.350  13.566
70878W        W42407   7.210  40.409   3.064
70879W        W42408   5.125  40.387  12.610
70880W        W42409  40.238  31.026  12.828
70881W        W42410  14.840  24.379  10.630
70882W        W42411   8.945  43.928  13.101
70883W        W42412  18.398  40.478   4.196
70884W        W42413   9.874  25.467  14.970
70885W        W42414   8.788  36.630   2.953
70886W        W42415  29.202  22.138   3.188
70887W        W42416   3.493  39.769   2.942
70888W        W42417  19.551  26.257  12.998
70889W        W42418  21.653  33.999  14.810
70890W        W42419  38.772  37.219  13.612
70891W        W42420  11.335  34.665  10.506
70892W        W42421  25.116   3.176  12.470
70893W        W42422  24.690   1.680   2.914
70894W        W42423  17.205  39.361   1.886
70895W        W42424   6.443  36.014   2.597
70896W        W42425   8.695   3.424   3.134
70897W        W42426  36.745  27.754  13.182
70898W        W42427  44.411  29.537  12.210
70899W        W42428  42.459  17.640   1.638
70900W        W42429   7.060   4.456   2.471
70901W        W42430  24.140  15.225   0.395
70902W        W42431  20.226   2.408   1.060
70903W        W42432  10.411  23.028   4.220
70904W        W42433  13.733  16.950   0.496
70905W        W42434  27.214  14.667   1.793
70906W        W42435  18.767  35.029   0.195
70907W        W42436   4.446  34.038   3.549
70908W        W42437  26.667  33.889   1.401
70909W        W42438   2.178  39.337   2.225
70910W        W42439  30.945  18.592   3.480
70911W        W42440   9.789   9.612  13.944
70912W        W42441  11.065  41.511  14.877
70913W        W42442  31.406  17.337  12.469
70914W        W42443   4.422  24.093  10.988
70915W        W42444  23.612  42.776   1.821
70916W        W42445   8.233  34.356   0.455
70917W        W42446   3.110  18.653  10.713
70918W        W42447   1.541  44.369   3.672
70919W        W42448  30.540  43.052  14.834
70920W        W42449   2.799   5.570  11.533
70921W        W42450  27.817  24.672  14.729
70922W        W42451   8.296  11.576   0.386
70923W        W42452  11.298  35.437  12.672
70924W        W42453  41.323  26.183   1.259
70925W        W42454  34.988  19.694  14.275
70926W        W42455   3.267  32.976  14.870
70927W        W42456  34.451  16.421   0.475
70928W        W42457  10.271   5.527   9.965
70929W        W42458  28.442   5.161   2.666
70930W        W42459  21.669  27.993  14.034
70931W        W42460  13.849  27.111   0.784
70932W        W42461  30.900  25.488   0.220
70933W        W42462  43.498  33.730  13.632
70934W        W42463  11.605   4.463   0.764
70935W        W42464  44.422  44.813   2.474
70936W        W42465  18.914  16.233   2.913
70937W        W42466  34.100   0.982   1.833
70938W        W42467  23.415  10.282   1.123
70939W        W42468  31.045  30.909   0.328
70940W        W42469  35.285   4.662   4.622
70941W        W42470  15.809  26.727  12.374
70942W        W42471  43.035  16.098  10.950
70943W        W42472  41.853  27.186   4.304
70944W        W42473  19.730   0.390  12.099
70945W        W42474  39.535   0.937   0.800
70946W        W42475  27.884  22.495   2.911
70947W        W42476   5.693  39.215  14.584
70948W        W42477  25.138  22.724   2.385
70949W        W42478   1.885  30.429  12.118
70950W        W42479  14.584  39.945   3.917
70951W        W42480  41.229   2.270   4.678
70952W        W42481  29.392  39.381  13.128
70953W        W42482   0.995  12.419   4.211
70954W        W42483  21.206  19.725   1.491
70955W        W42484  44.843  22.513  12.315
70956W        W42485  16.784  42.577   0.869
70957W        W42486  41.957  12.424   0.430
70958W        W42487   2.909  26.737  14.425
70959W        W42488  25.116  22.943  14.778
70960W        W42489  15.937  16.586  10.343
70961W        W42490  32.495  22.202  12.880
70962W        W42491  15.191   6.892  12.922
70963W        W42492  18.353   0.798   3.392
70964W        W42493   4.865   1.608   1.766
70965W        W42494  26.513  25.549   2.174
70966W        W42495   6.600  41.895   0.836
70967W        W42496  25.644  42.881  12.532
70968W        W42497  25.640  23.919   3.128
70969W        W42498  27.397  14.913   5.060
70970W        W42499  38.126  33.619  10.455
70971W        W42500   7.292  35.434   0.099
70972W        W42501  38.324  22.082  11.089
70973W        W42502   8.208   8.200   4.460
70974W        W42503   8.672  10.394  12.476
70975W        W42504  32.943  28.523   4.659
70976W        W42505   5.979  23.916  14.900
70977W        W42506  23.327  15.741   3.791
70978W        W42507  12.080  18.640  13.046
70979W        W42508  26.870  32.980  12.949
70980W        W42509   2.082  19.668   4.482
70981W        W42510   6.218  29.397   1.804
70982W        W42511  18.031  18.710   0.446
70983W        W42512  20.537  28.410   1.364
70984W        W42513  38.572   4.668  10.390
70985W        W42514  36.891  41.689   0.637
70986W        W42515  40.027   2.982   0.224
70987W        W42516  22.307  24.881   0.338
70988W        W42517  10.650   9.311   1.753
70989W        W42518  39.332  33.397   0.344
70990W        W42519  18.809  36.323  12.210
70991W        W42520  31.874  39.586   3.217
70992W        W42521  43.401  44.209   3.590
70993W        W42522  10.907  38.969  13.537
70994W        W42523  22.188  24.445  14.307
70995W        W42524   1.840  43.324   1.815
70996W        W42525  16.527  26.168   4.596
70997W        W42526  18.269   4.128   1.197
70998W        W42527  28.628  11.210  13.948
70999W        W42528  35.193  32.127   1.027
71000W        W42529  43.352   9.415   4.341
71001W        W42530   8.396  12.591   4.721
71002W        W42531   1.740  23.921   0.196
71003W        W42532   7.751  22.088  14.946
71004W        W42533  28.513  38.522  14.387
71005W        W42534   4.305  16.816  10.740
71006W        W42535  21.768  21.936   0.327
71007W        W42536  22.192   3.799  13.923
71008W        W42537  36.955   1.199  10.699
71009W        W42538  20.464  26.217   3.678
71010W        W42539  27.593  13.053  11.494
71011W        W42540  33.789  20.475  14.355
71012W        W42541  32.090  34.338  12.516
71013W        W42542   8.682  40.345  10.737
71014W        W42543  16.341  16.991   4.656
71015W        W42544  23.048  43.363   3.739
71016W        W42545  34.049  30.373   4.169
71017W        W42546  17.698  15.315  11.601
71018W        W42547  28.067   5.147   4.070
71019W        W42548  11.280   6.163  13.010
71020W        W42549  25.710  28.952  12.122
71021W        W42550  35.540  43.567   4.323
71022W        W42551  37.324  41.518   4.574
71023W        W42552  12.751  12.329  14.920
71024W        W42553  41.895  40.061   1.829
71025W        W42554  44.037   1.903   0.080
71026W        W42555   1.627   9.467  13.090
71027W        W42556   1.060  32.072   1.269
71028W        W42557  11.669  26.209   3.627
71029W        W42558   2.537  15.526   4.090
71030W        W42559  36.175  14.455   3.230
71031W        W42560  27.109  16.618   2.885
71032W        W42561   3.942   6.942   4.042
71033W        W42562  26.687  44.434  13.039
71034W        W42563  10.324  30.801   1.772
71035W        W42564  27.041  15.194  12.909
71036W        W42565  19.183  31.176   2.875
71037W        W42566  14.408   3.506  14.404
71038W        W42567  44.385   8.125   3.709
71039W        W42568   3.842  24.707   0.259
71040W        W42569  10.185  28.708  10.729
71041W        W42570  38.083  14.809  12.564
71042W        W42571  39.312  16.295  13.926
71043W        W42572  42.751  12.088  11.006
71044W        W42573  13.023  35.559  13.047
71045W        W42574  14.235  38.584  12.311
71046W        W42575  18.185  39.914   0.054
71047W        W42576   3.345  16.631   2.274
71048W        W42577  37.373  11.711  13.470
71049W        W42578   5.285  14.111   0.955
71050W        W42579  44.804  19.794  14.566
71051W        W42580  13.394  31.118   4.310
71052W        W42581  28.341  29.520  12.380
71053W        W42582  20.548  16.509  13.085
71054W        W42583   5.220  10.756  11.984
71055W        W42584  32.662   6.485   4.327
71056W        W42585  35.456  17.584   4.648
71057W        W42586  39.487  26.886   3.163
71058W        W42587  15.765  19.429  12.390
71059W        W42588  18.185  32.572   0.797
71060W        W42589  16.503   4.737   0.357
71061W        W42590  10.559  33.620   4.188
71062W        W42591  13.216  14.244   3.192
71063W        W42592  43.183  28.797  11.098
71064W        W42593   9.896  25.305   1.310
71065W        W42594  36.503  21.572   2.791
71066W        W42595  44.070  38.501  12.980
71067W        W42596  31.019  34.286   3.125
71068W        W42597   6.816  33.312  14.510
71069W        W42598  13.954  29.422  11.147
71070W        W42599  35.491  17.705  12.814
71071W        W42600  36.710  33.160   0.773
71072W        W42601  12.443   4.955   3.653
71073W        W42602  32.831   4.711   0.488
71074W        W42603  20.720  32.161   4.241
71075W        W42604  36.950   9.634  14.561
71076W        W42605  17.062  38.868  11.039
71077W        W42606   3.328  11.896  13.032
71078W        W42607  13.941  10.610  12.579
71079W        W42608  16.533  24.480   3.329
71080W        W42609  32.005   1.067   0.813
71081W        W42610  21.225  12.109  13.023
71082W        W42611  18.025  34.083   2.278
71083W        W42612  34.606  18.185  14.381
71084W        W42613  18.540   3.625   3.553
71085W        W42614  40.515  34.677  12.572
71086W        W42615   0.045  14.027  11.618
71087W        W42616  13.590  19.612   4.611
71088W        W42617   2.507  36.208   4.194
71089W        W42618   4.694  18.317   3.762
71090W        W42619  42.217  33.385   4.198
71091W        W42620  29.510  21.711  14.603
71092W        W42621  17.258  10.315  13.341
71093W        W42622  19.863  25.621  14.623
71094W        W42623  18.045  27.448   4.497
71095W        W42624  23.557  17.755  13.839
71096W        W42625   1.271  37.910  13.465
71097W        W42626  43.911  22.186  14.302
71098W        W42627  25.285   9.665  11.091
71099W        W42628   4.654  17.142  12.160
71100W        W42629  42.581  29.872   2.834
71101W        W42630  43.089  27.941   3.657
71102W        W42631  15.691  19.236   3.347
71103W        W42632  34.585  25.622   2.712
71104W        W42633  27.650  44.299  10.694
71105W        W42634  15.042  29.186   2.294
71106W        W42635   5.641  43.394   1.990
71107W        W42636   9.275  16.069   2.544
71108W        W42637  25.236  23.660   4.839
71109W        W42638   1.683  26.389   0.824
71110W        W42639  21.157  36.017   0.431
71111W        W42640  36.762  20.782  11.132
71112W        W42641  18.669  17.090  14.604
71113W        W42642  21.508   2.677  12.075
71114W        W42643  37.880  31.653   3.227
71115W        W42644  13.845  12.696  11.922
71116W        W42645  41.187  29.551   5.012
71117W        W42646  12.990  21.813   4.143
71118W        W42647  20.988  17.570  13.147
71119W        W42648  18.812  36.144  10.487
71120W        W42649  18.122  14.138  14.838
71121W        W42650   4.136  17.629  14.259
71122W        W42651  40.998  29.023  14.924
71123W        W42652  17.049   9.896   3.184
71124W        W42653  20.503   5.428   4.058
71125W        W42654  40.108  19.196  11.034
71126W        W42655   9.754   3.231   2.388
71127W        W42656  21.540  33.025  11.608
71128W        W42657  34.815  31.292  12.071
71129W        W42658  28.083  41.438   9.585
71130W        W42659  13.146  27.073  12.055
71131W        W42660  32.749  19.224  12.919
71132W        W42661  30.430  38.709  10.269
71133W        W42662  16.133   7.806  13.950
71134W        W42663  38.620  11.286  13.281
71135W        W42664  34.393  12.919   3.721
71136W        W42665  21.103   3.236  10.770
71137W        W42666  39.419  41.387   4.489
71138W        W42667  44.214   2.280   0.926
71139W        W42668  17.709  16.333   1.414
71140W        W42669   1.932  17.066  13.860
71141W        W42670  35.165  11.306  11.897
71142W        W42671   2.931  21.461  10.732
71143W        W42672  16.052   0.540  11.936
71144W        W42673  37.574  22.540   1.868
71145W        W42674  38.580  41.977  10.683
71146W        W42675  18.200  11.682  14.146
71147W        W42676  39.840   5.447   1.914
71148W        W42677  41.112   8.620   3.142
71149W        W42678  24.862  38.088  12.508
71150W        W42679  11.431  25.425   1.280
71151W        W42680  12.863   9.760  12.833
71152W        W42681   4.411   7.816  14.200
71153W        W42682  38.068   2.683   2.891
71154W        W42683   5.325  34.891   2.706
71155W        W42684  11.519   9.920  14.534
71156W        W42685  22.075  30.712  11.281
71157W        W42686  18.335   4.640  10.949
71158W        W42687  25.395  16.540  11.662
71159W        W42688   2.162   6.601  12.736
71160W        W42689   8.103  19.351  10.756
71161W        W42690  33.109  14.390  14.262
71162W        W42691  10.854  19.417   4.535
71163W        W42692  21.995  36.882   5.017
71164W        W42693  41.306  35.987  14.255
71165W        W42694   6.003  19.767  11.536
71166W        W42695  22.429   5.852  13.791
71167W        W42696  24.075  41.063   3.067
71168W        W42697  30.462  27.649   0.993
71169W        W42698  42.482  33.344   1.735
71170W        W42699  27.616  20.697   1.172
71171W        W42700  28.087  36.976   1.395
71172W        W42701   4.049  33.204   4.060
71173W        W42702  35.540  37.024  14.669
71174W        W42703  16.666  35.728  11.077
71175W        W42704  16.247  11.278   4.668
71176W        W42705  17.850  16.056   3.652
71177W        W42706  37.982   4.396   1.461
71178W        W42707  18.730  40.355  14.066
71179W        W42708  13.782   6.196  13.008
71180W        W42709  11.540  20.173  10.975
71181W        W42710  27.491  32.907  14.726
71182W        W42711  20.079  23.645  13.316
71183W        W42712  29.139  32.456   0.261
71184W        W42713  35.519  34.362  13.822
71185W        W42714  27.421   7.853  11.467
71186W        W42715  23.733   0.705   4.313
71187W        W42716  42.051  19.593   0.037
71188W        W42717   2.461  14.658   3.204
71189W        W42718  12.241  28.724   2.717
71190W        W42719  35.512  32.481  12.481
71191W        W42720  23.630  22.049  11.210
71192W        W42721  12.017  20.293   4.471
71193W        W42722  20.105  19.750   0.832
71194W        W42723   4.738  24.175  10.576
71195W        W42724   1.382   3.176  10.584
71196W        W42725  16.861   5.944  14.765
71197W        W42726  10.213  30.459   0.563
71198W        W42727  40.961   5.342  13.609
71199W        W42728  24.607  10.502  13.551
71200W        W42729   0.618  24.127  14.435
71201W        W42730  24.063  33.373   4.467
71202W        W42731  23.584  15.330  11.968
71203W        W42732  36.674  17.787  12.086
71204W        W42733  29.036   0.823   2.206
71205W        W42734  16.154   7.877  14.504
71206W        W42735  29.049   1.791   0.930
71207W        W42736  14.880   8.390  13.453
71208W        W42737  20.341  27.464  14.087
71209W        W42738  38.402   2.871  11.560
71210W        W42739  21.096  37.921   5.467
71211W        W42740   6.462   0.373  14.387
71212W        W42741  29.981  35.566  13.181
71213W        W42742  24.553  36.386   3.257
71214W        W42743  19.392  11.269   3.749
71215W        W42744  31.677  27.187   2.757
71216W        W42745   2.316  42.470   3.340
71217W        W42746  34.065  41.170  12.043
71218W        W42747   1.086  18.526  11.161
71219W        W42748  34.658  11.803  10.477
71220W        W42749  30.398  27.124   1.444
71221W        W42750  26.737  20.022  13.136
71222W        W42751   5.854  23.262  13.299
71223W        W42752  28.486  28.587   3.384
71224W        W42753  27.578  11.949   4.831
71225W        W42754  35.716  13.264   0.299
71226W        W42755  37.400  23.179   4.023
71227W        W42756  33.572  12.804   2.278
71228W        W42757  34.895  41.994  13.758
71229W        W42758  14.554  43.055  10.912
71230W        W42759  25.200   6.481  12.877
71231W        W42760   3.568  10.230  12.493
71232W        W42761  15.037  25.085  12.591
71233W        W42762  29.348  13.859  14.363
71234W        W42763  29.157  27.130   3.815
71235W        W42764  31.110  18.143   3.664
71236W        W42765   1.330  11.868   3.787
71237W        W42766   3.035   1.891  11.614
71238W        W42767  17.280  11.382   2.906
71239W        W42768  23.184  26.694   4.072
71240W        W42769  12.666  21.222  14.911
71241W        W42770  17.080  39.590  12.421
71242W        W42771  20.736   8.152  10.434
71243W        W42772  19.742   0.272  10.668
71244W        W42773  13.257  38.180   2.808
71245W        W42774   0.427  44.949   2.716
71246W        W42775  31.303  23.540   2.123
71247W        W42776   1.308  17.704   4.741
71248W        W42777   9.310  29.197  14.797
71249W        W42778  40.028  21.762   1.687
71250W        W42779  16.883  32.526   2.241
71251W        W42780  15.123  15.117  13.457
71252W        W42781  21.929  29.525  11.524
71253W        W42782  20.492  12.378   0.464
71254W        W42783  24.334   0.579  11.516
71255W        W42784  37.004  38.565  13.008
71256W        W42785  13.594   9.205  12.973
71257W        W42786  10.876   4.469   2.837
71258W        W42787  13.596  29.730   4.049
71259W        W42788  42.213  15.571   0.892
71260W        W42789  15.195  42.432   3.642
71261W        W42790  43.431   9.581  10.544
71262W        W42791   7.757  25.961   3.691
71263W        W42792  10.581  16.245   2.247
71264W        W42793  26.900  43.035  10.323
71265W        W42794  23.655  36.129   0.311
71266W        W42795  32.577  29.469  10.968
71267W        W42796  14.126   6.671  13.783
71268W        W42797  40.360  44.259   0.774
71269W        W42798  33.433  37.006  12.041
71270W        W42799  27.938  21.618  10.411
71271W        W42800  27.692  34.105  11.950
71272W        W42801   5.248   6.059   2.695
71273W        W42802   8.157   3.493   4.902
71274W        W42803   3.857  44.372  12.393
71275W        W42804  12.198  31.478   3.851
71276W        W42805   0.470  42.360   2.725
71277W        W42806  34.057  39.436  13.767
71278W        W42807  43.956  26.684   2.644
71279W        W42808  35.586   6.429  13.398
71280W        W42809   1.071   8.699   4.140
71281W        W42810  37.371  35.370   2.156
71282W        W42811  19.364  13.700   1.900
71283W        W42812  32.448  32.651   4.614
71284W        W42813  36.279  13.724   3.801
71285W        W42814  37.562  44.121  12.222
71286W        W42815  24.926  43.982   0.837
71287W        W42816   5.972  38.291   4.111
71288W        W42817  12.801  19.310   1.237
71289W        W42818  43.066  18.520   4.584
71290W        W42819  28.022  43.701  14.014
71291W        W42820  14.742  20.466   2.967
71292W        W42821   8.346   4.957  11.004
71293W        W42822  21.559  11.317   1.528
71294W        W42823   0.255   9.888  11.017
71295W        W42824   1.452  41.587  14.584
71296W        W42825  23.410  28.413   2.615
71297W        W42826  17.781  25.023   1.358
71298W        W42827   6.417   3.663   3.309
71299W        W42828  21.016  26.625   1.463
71300W        W42829   2.874  25.708  12.012
71301W        W42830  13.458  37.120  11.592
71302W        W42831  25.552  13.421  10.706
71303W        W42832   0.218  14.541  11.552
71304W        W42833  12.121  38.656   4.753
71305W        W42834  43.440  22.269   1.263
71306W        W42835  11.774   8.996   5.027
71307W        W42836  18.960  21.847  10.980
71308W        W42837  32.833   7.286   1.684
71309W        W42838  16.786  16.131  14.529
71310W        W42839   1.474  42.062  12.842
71311W        W42840  27.943  22.401   0.883
71312W        W42841  34.514  19.161  14.417
71313W        W42842  16.076   6.743  10.299
71314W        W42843  28.631  22.556  11.127
71315W        W42844   6.213  13.825  13.416
71316W        W42845  31.929   2.636   1.981
71317W        W42846  21.076  11.914   0.456
71318W        W42847  16.081  44.291   1.056
71319W        W42848  19.795  23.135   3.341
71320W        W42849  26.971  21.099  14.808
71321W        W42850  26.256  42.304  11.122
71322W        W42851  39.011  20.556   2.082
71323W        W42852  16.577  17.669  10.652
71324W        W42853  10.000  33.528   1.308
71325W        W42854  18.747  31.877  11.617
71326W        W42855  16.287  42.264  10.694
71327W        W42856   6.835  13.954   2.578
71328W        W42857  39.350  39.282  12.916
71329W        W42858   0.878  10.459  13.557
71330W        W42859  41.845  35.879  11.552
71331W        W42860  38.342  43.304   4.432
71332W        W42861  24.270  43.374  14.421
71333W        W42862  37.576  43.710   0.948
71334W        W42863  20.764  34.157  11.638
71335W        W42864  35.038  44.375   0.213
71336W        W42865  15.741  13.394   1.904
71337W        W42866  23.924  21.325  13.377
71338W        W42867  38.044   8.752  10.938
71339W        W42868  44.344  39.021   0.222
71340W        W42869  31.256  25.263  12.103
71341W        W42870   5.827  18.079  12.416
71342W        W42871  38.540  15.347  13.739
71343W        W42872  41.872  26.252  11.659
71344W        W42873   6.560   2.735   3.063
71345W        W42874  35.060  17.268  14.729
71346W        W42875  30.942  11.094  11.600
71347W        W42876   7.354   7.142   1.228
71348W        W42877   4.695  28.711   0.128
71349W        W42878   0.467  11.120   1.319
71350W        W42879  28.155  36.377   0.502
71351W        W42880  31.289  18.952  14.778
71352W        W42881   9.188   1.559  13.352
71353W        W42882  38.699   4.308   3.483
71354W        W42883   9.581   8.152  12.018
71355W        W42884  23.046  33.976  12.720
71356W        W42885   7.474  26.896  10.595
71357W        W42886  40.950  39.874   0.812
71358W        W42887  42.041  18.298  10.973
71359W        W42888  33.023  17.555   1.367
71360W        W42889   8.651  42.774  13.678
71361W        W42890   4.342  42.819   1.442
71362W        W42891  24.634   4.438  13.359
71363W        W42892   8.413  22.640   2.782
71364W        W42893  18.279  14.648   1.749
71365W        W42894  41.378  17.587   0.395
71366W        W42895  32.566  10.258  12.048
71367W        W42896  38.413  22.833  11.864
71368W        W42897  34.453  43.927  13.614
71369W        W42898   2.450  10.311  10.877
71370W        W42899  36.836  30.046   2.618
71371W        W42900  38.852  38.423  11.631
71372W        W42901  19.327   6.749   2.862
71373W        W42902  29.229  38.881   4.113
71374W        W42903  10.259  26.935   2.394
71375W        W42904  27.863  38.385  13.018
71376W        W42905  15.092  35.603   4.102
71377W        W42906  29.365  28.452  14.506
71378W        W42907  34.096  32.064   2.664
71379W        W42908   3.594  26.684  13.445
71380W        W42909   4.203  39.692   3.500
71381W        W42910  20.078  16.307  13.153
71382W        W42911  37.505  16.110  13.543
71383W        W42912  19.835  43.906  11.802
71384W        W42913  30.509  24.597   4.996
71385W        W42914  18.148   4.781   4.175
71386W        W42915   7.851   9.114   3.771
71387W        W42916   8.806   3.911   1.037
71388W        W42917  38.000  19.040  12.242
71389W        W42918  27.094  41.336   1.618
71390W        W42919  40.735  43.890  14.510
71391W        W42920  31.389   2.352   2.581
71392W        W42921  28.240  42.101   0.623
71393W        W42922  26.674  20.188   3.562
71394W        W42923  23.544  27.188   2.287
71395W        W42924  19.761   3.920   4.129
71396W        W42925  33.590  17.058  12.042
71397W        W42926  12.026   0.340   1.934
71398W        W42927   2.378   0.372  10.918
71399W        W42928  14.843  17.808  11.461
71400W        W42929  21.718  37.023  13.797
71401W        W42930  11.869  20.537   1.669
71402W        W42931  22.775  42.567  10.968
71403W        W42932  34.525  42.089  14.616
71404W        W42933  23.510  27.472   1.835
71405W        W42934   6.396  30.131  11.669
71406W        W42935  43.530   6.503   0.186
71407W        W42936  22.521  34.691   5.011
71408W        W42937  42.948  13.208   2.889
71409W        W42938  37.556  33.844  12.883
71410W        W42939   3.336  13.039   4.868
71411W        W42940   7.699   4.229   4.478
71412W        W42941  20.777  11.324  12.507
71413W        W42942  11.344  26.617  10.852
71414W        W42943  21.443  34.186   0.289
71415W        W42944   5.233  31.792  10.529
71416W        W42945  38.814  30.139  14.798
71417W        W42946   7.153  14.401  13.763
71418W        W42947  32.496   9.817  14.001
71419W        W42948   8.343  33.886   0.724
71420W        W42949  42.658  40.484  11.174
71421W        W42950  12.047  23.855   1.885
71422W        W42951  30.162  13.230   0.375
71423W        W42952  37.541  40.398   4.578
71424W        W42953  19.764  21.060  12.014
71425W        W42954   3.529  16.225   1.352
71426W        W42955  28.566  16.039   0.803
71427W        W42956  26.971  44.786  10.578
71428W        W42957  31.100  34.050   2.651
71429W        W42958  36.450   3.735   2.389
71430W        W42959  38.499  14.305  12.070
71431W        W42960   3.555  24.161  13.914
71432W        W42961  10.934  42.767   4.224
71433W        W42962  34.586  26.562   1.669
71434W        W42963  28.158  26.786  13.021
71435W        W42964  31.714  31.477   1.861
71436W        W42965  28.103  29.683  11.233
71437W        W42966  27.435  27.654   1.831
71438W        W42967   5.680  15.089   3.364
71439W        W42968  16.811  24.028  10.240
71440W        W42969  18.237  18.374   3.167
71441W        W42970  16.563  25.151   3.796
71442W        W42971  43.042  11.662   1.632
71443W        W42972  19.525  19.754   2.814
71444W        W42973  42.347  24.015   3.616
71445W        W42974  23.127  27.493   2.220
71446W        W42975  41.096  23.118  12.649
71447W        W42976   9.965  21.604  13.850
71448W        W42977   0.590   7.868   2.757
71449W        W42978   3.782  14.109   0.786
71450W        W42979  28.924  41.914   3.059
71451W        W42980  35.497  39.589   1.094
71452W        W42981  39.700  44.993  13.037
71453W        W42982  32.160  14.836   4.062
71454W        W42983  38.027  25.005   0.525
71455W        W42984  30.093  17.117  13.330
71456W        W42985  40.803  32.440  14.418
71457W        W42986  19.180  32.171  13.959
71458W        W42987  17.112  21.069  10.374
71459W        W42988  36.158  23.992  14.032
71460W        W42989  16.253   3.919  11.680
71461W        W42990  27.660  31.958  10.579
71462W        W42991  35.269  32.613   3.666
71463W        W42992   4.837  26.623   4.840
71464W        W42993  11.810  20.690  13.300
71465W        W42994   5.891  18.202  13.306
71466W        W42995  37.544  41.402  11.853
71467W        W42996  31.995   8.434   1.301
71468W        W42997  31.954   4.090   1.742
71469W        W42998   8.276   7.304  12.749
71470W        W42999  18.678  35.051  10.725
71471W        W43000  10.558   8.470  12.210
71472W        W43001  32.840   2.972  13.759
71473W        W43002  42.079  23.255  11.096
71474W        W43003   1.109  14.507  10.370
71475W        W43004  42.226   1.370  12.489
71476W        W43005  36.446  11.756   0.994
71477W        W43006  37.090  31.704  13.979
71478W        W43007  35.942  33.642  14.880
71479W        W43008   2.753  43.658   4.722
71480W        W43009  40.148  38.293   2.764
71481W        W43010  44.755  18.171  13.062
71482W        W43011  21.683  18.751   1.774
71483W        W43012  44.403  23.236  10.516
71484W        W43013   2.392  13.567   4.068
71485W        W43014  12.143  35.546   2.778
71486W        W43015  17.963   6.948  10.932
71487W        W43016  34.687  23.638   4.287
71488W        W43017  43.770  16.237   4.708
71489W        W43018   8.031  40.343   2.701
71490W        W43019  32.851  26.125  12.491
71491W        W43020  12.530  27.978  14.449
71492W        W43021  27.933   8.969   0.049
71493W        W43022  13.651   4.683  14.220
71494W        W43023  25.235   5.213  13.922
71495W        W43024   1.009   9.803   0.288
71496W        W43025  39.927   6.715  13.453
71497W        W43026  27.086  41.718  12.551
71498W        W43027  37.610   2.779   3.146
71499W        W43028  25.284  38.269   4.230
71500W        W43029  12.698  20.817  13.322
71501W        W43030  33.663  14.568  10.958
71502W        W43031  11.558   0.775  11.614
71503W        W43032  21.517   9.771   2.220
71504W        W43033  13.243   3.866   3.888
71505W        W43034  24.079  17.609   2.364
71506W        W43035  25.063  19.967  11.764
71507W        W43036  41.291  33.184   2.040
71508W        W43037  42.014  33.115  11.999
71509W        W43038   5.904  18.649  14.499
71510W        W43039   9.813   7.877  11.620
71511W        W43040  10.283  24.589  14.525
71512W        W43041  42.373  11.184   0.464
71513W        W43042  31.965  36.963   4.584
71514W        W43043  29.713  27.455  10.270
71515W        W43044  35.516   7.311  13.746
71516W        W43045   6.440   3.272   4.568
71517W        W43046  21.954   1.808  11.252
71518W        W43047  35.787   2.728  10.633
71519W        W43048  40.649   9.145  12.990
71520W        W43049  29.618  10.563   0.403
71521W        W43050   1.853  20.676   4.153
71522W        W43051  22.173   3.843   4.569
71523W        W43052  24.747   5.251   2.332
71524W        W43053  15.868  17.496  13.956
71525W        W43054  42.537   8.525  13.217
71526W        W43055   1.206   5.709   2.658
71527W        W43056  15.138  18.660  14.302
71528W        W43057  41.980   9.120   1.160
71529W        W43058  12.783  33.175  13.995
71530W        W43059  35.460  23.980  13.327
71531W        W43060  10.420  36.351   3.566
71532W        W43061  42.021  12.299  10.282
71533W        W43062   8.435   9.333   3.483
71534W        W43063  10.192   4.437   4.344
71535W        W43064  17.001  34.044   0.991
71536W        W43065  17.076   6.396  13.053
71537W        W43066   8.942  12.702  14.974
71538W        W43067  17.612  31.827   5.030
71539W        W43068  14.598  11.409   0.008
71540W        W43069   8.221  42.984  12.259
71541W        W43070   3.284   1.291   1.356
71542W        W43071  33.963  23.219  14.485
71543W        W43072  10.377  35.922  11.538
71544W        W43073  12.348  15.686   3.493
71545W        W43074  29.562  17.271  10.501
71546W        W43075   0.022  24.565  11.211
71547W        W43076  22.656  29.430   0.323
71548W        W43077  32.544   8.787   2.369
71549W        W43078  35.166  38.963  13.717
71550W        W43079  43.379  36.901   3.650
71551W        W43080  40.835  19.800  12.803
71552W        W43081  31.095  14.783  13.488
71553W        W43082   8.326  18.321   1.593
71554W        W43083  24.352  13.586   4.238
71555W        W43084  27.003  30.695  14.856
71556W        W43085   9.406  15.097   2.239
71557W        W43086  34.587  42.994  13.042
71558W        W43087  31.041  26.349  10.925
71559W        W43088  18.314  38.874   3.772
71560W        W43089  33.662  44.397  12.360
71561W        W43090  13.441  11.424   2.331
71562W        W43091  25.268  11.940  12.819
71563W        W43092  36.740  16.182   0.788
71564W        W43093   3.303  28.912  13.901
71565W        W43094  20.547   1.632   3.169
71566W        W43095  34.483  21.219  13.163
71567W        W43096  15.824   8.616   1.388
71568W        W43097   5.717  36.334   1.489
71569W        W43098  16.176  13.069  14.406
71570W        W43099  17.671  15.833   0.556
71571W        W43100  20.564   5.190  14.797
71572W        W43101  29.581  39.712   4.241
71573W        W43102  33.002  16.641   4.738
71574W        W43103  30.671  33.522   0.640
71575W        W43104  31.499  22.203   4.550
71576W        W43105  41.577  39.142  13.918
71577W        W43106  37.522   5.285   2.103
71578W        W43107  41.884  41.935   1.666
71579W        W43108  21.102   7.487   0.927
71580W        W43109  17.248  15.791   4.093
71581W        W43110  17.915   7.897   4.596
71582W        W43111  25.464  41.001   2.337
71583W        W43112   1.719  35.510  11.964
71584W        W43113  18.561  38.119  14.314
71585W        W43114  29.709   8.812  13.461
71586W        W43115  30.009  15.527  14.402
71587W        W43116  43.211   3.877   0.287
71588W        W43117  41.465   9.544   0.547
71589W        W43118  30.610  17.864  11.203
71590W        W43119  17.528  18.260   1.292
71591W        W43120  39.625  43.034   4.331
71592W        W43121  19.762  37.898  14.798
71593W        W43122  27.066  35.731   1.320
71594W        W43123  28.895  36.600  10.382
71595W        W43124  16.090  16.035   3.321
71596W        W43125  25.167   3.999   1.709
71597W        W43126  12.506  30.129  11.552
71598W        W43127  19.819  19.010  11.674
71599W        W43128  28.552  13.918  11.145
71600W        W43129  23.916  13.763  13.309
71601W        W43130  37.088  20.122  11.592
71602W        W43131  14.728  23.854   4.205
71603W        W43132  23.460  29.812   4.586
71604W        W43133  29.499  24.445   5.115
71605W        W43134  26.968  35.911  13.673
71606W        W43135  35.559   2.304  11.583
71607W        W43136  44.393  16.652  13.749
71608W        W43137  34.399  30.390  12.450
71609W        W43138  34.904  30.890   4.101
71610W        W43139   4.854  22.668  12.924
71611W        W43140  12.401  38.617  14.981
71612W        W43141  31.814  28.398  14.648
71613W        W43142  39.825  24.651   0.974
71614W        W43143   5.454  22.239   1.289
71615W        W43144  44.397  13.966   1.720
71616W        W43145  38.835  18.161   2.403
71617W        W43146  43.896  25.965   3.162
71618W        W43147  14.934  38.283  11.125
71619W        W43148  12.227  41.261  11.501
71620W        W43149  32.030  30.480   4.167
71621W        W43150  26.465  10.222  14.714
71622W        W43151   0.444  16.449   2.675
71623W        W43152  29.519  25.751   3.288
71624W        W43153  25.115  21.613   0.094
71625W        W43154  19.722  37.071   0.953
71626W        W43155  14.738   1.254   0.496
71627W        W43156   6.264  30.316   2.898
71628W        W43157  44.001  16.203   3.175
71629W        W43158  22.047  22.143  13.930
71630W        W43159  16.870  40.089   2.365
71631W        W43160  30.128  13.500  14.454
71632W        W43161  27.317  42.819   4.540
71633W        W43162  10.896   7.989   2.222
71634W        W43163  32.618   4.981   4.146
71635W        W43164  38.749  12.501  12.398
71636W        W43165  44.503  10.354  10.129
71637W        W43166  37.792  19.985   3.270
71638W        W43167  19.814   6.869   2.953
71639W        W43168  39.663  35.294   4.504
71640W        W43169  27.973   2.082  13.977
71641W        W43170  29.132  35.525  11.186
71642W        W43171  11.315  38.638   0.857
71643W        W43172   1.764  41.565   1.410
71644W        W43173  32.535  18.433  13.576
71645W        W43174  34.727   1.434   2.081
71646W        W43175  40.395  23.602   4.545
71647W        W43176   6.377  33.067  11.434
71648W        W43177  12.059   6.392   4.543
71649W        W43178  31.752  13.012   5.091
71650W        W43179  40.153  21.781  12.061
71651W        W43180   1.305  20.983  12.984
71652W        W43181  35.365  28.682  11.759
71653W        W43182  12.737  25.606   3.788
71654W        W43183  26.752  13.111  13.045
71655W        W43184  16.754  27.733  12.555
71656W        W43185  28.067  12.070   4.612
71657W        W43186  18.830  22.522   4.122
71658W        W43187  29.610  44.117   2.451
71659W        W43188  12.531  21.507   2.832
71660W        W43189  23.272  32.439   0.814
71661W        W43190  34.937  37.072   2.544
71662W        W43191  39.291  17.166  13.711
71663W        W43192  20.760  20.970   0.377
71664W        W43193  39.143   2.868  11.133
71665W        W43194  40.402  33.148   4.363
71666W        W43195  21.309  12.308  11.607
71667W        W43196   6.365  44.008  11.017
71668W        W43197  18.680  32.090  12.608
71669W        W43198  35.311   1.051  10.242
71670W        W43199  41.289  43.804   4.147
71671W        W43200  27.905  19.978  14.868
71672W        W43201  42.391  33.158  12.902
71673W        W43202   4.471  20.969   0.330
71674W        W43203   6.260  16.844   4.539
71675W        W43204  32.521   2.406  11.699
71676W        W43205  44.249  29.180   4.158
71677W        W43206  36.324  21.521   3.684
71678W        W43207  13.280   9.096   0.314
71679W        W43208  26.661   2.292   4.521
71680W        W43209  39.360  40.395  14.925
71681W        W43210  38.882  17.805   3.302
71682W        W43211  20.464  16.735   1.811
71683W        W43212  42.423   7.478   2.918
71684W        W43213  43.367   7.959   2.700
71685W        W43214  12.269  33.869  13.931
71686W        W43215   7.685   1.867   2.883
71687W        W43216   2.436  11.558   0.687
71688W        W43217   6.180   5.848   4.141
71689W        W43218  31.484   4.358   3.109
71690W        W43219   6.067  37.017   3.798
71691W        W43220  25.450  11.374   0.289
71692W        W43221  12.564  14.548   2.347
71693W        W43222   1.710  26.220   1.752
71694W        W43223  19.155   6.140  14.899
71695W        W43224  19.847  31.629  11.646
71696W        W43225  44.477  23.988  13.069
71697W        W43226  11.207  15.755  10.892
71698W        W43227   7.334  36.465  11.728
71699W        W43228   3.948  38.379   3.302
71700W        W43229  29.434  11.796   1.341
71701W        W43230  21.147  37.423   4.179
71702W        W43231  35.672  14.556  11.579
71703W        W43232   1.742  43.698   2.169
71704W        W43233  29.644  24.154  11.630
71705W        W43234  17.712  40.902  13.879
71706W        W43235  40.498  30.077   4.849
71707W        W43236  22.444  42.904   0.886
71708W        W43237  30.410   5.487   3.644
71709W        W43238  14.822   9.225   2.712
71710W        W43239  24.760  32.329  13.930
71711W        W43240   6.596   8.318   2.284
71712W        W43241   8.954  19.781   1.680
71713W        W43242   7.629  30.113   0.586
71714W        W43243  44.885  14.476   2.952
71715W        W43244  12.757  35.141   2.211
71716W        W43245  13.264  28.183   3.288
71717W        W43246  25.582   9.222  10.483
71718W        W43247  36.615  27.538   2.916
71719W        W43248  11.352   2.919   4.290
71720W        W43249  28.981   6.159  14.348
71721W        W43250   8.224   0.909  12.168
71722W        W43251  14.792  36.239  13.552
71723W        W43252  12.683  21.921  13.572
71724W        W43253   9.298  42.982   4.504
71725W        W43254   6.995  23.272  11.391
71726W        W43255  33.395  16.173   0.401
71727W        W43256  14.963  25.766   3.964
71728W        W43257   8.818  21.179   2.866
71729W        W43258   0.212  22.921  11.599
71730W        W43259   7.079  27.511   3.805
71731W        W43260  19.406  26.403   2.039
71732W        W43261  42.026  12.061   1.421
71733W        W43262  17.566  27.411   2.666
71734W        W43263  42.983  45.000   3.877
71735W        W43264   3.874  12.597  13.396
71736W        W43265  36.420  27.501  11.972
71737W        W43266   8.067   0.926  11.076
71738W        W43267  13.921  11.046   4.646
71739W        W43268   4.981   9.995   0.872
71740W        W43269  13.852  19.706  14.837
71741W        W43270  28.225  25.170   4.807
71742W        W43271  34.934  38.996   4.606
71743W        W43272  11.685  17.257   2.764
71744W        W43273   8.334   1.724   3.378
71745W        W43274  32.635  27.128   2.823
71746W        W43275   0.563  14.668   1.839
71747W        W43276  31.508   7.835   3.907
71748W        W43277  26.906   1.913  13.944
71749W        W43278   1.615  37.050   0.519
71750W        W43279   3.788  14.782  14.485
71751W        W43280  13.152  32.315  13.105
71752W        W43281  21.965  28.817  12.194
71753W        W43282   8.056  26.739  12.984
71754W        W43283  10.352   3.756   1.374
71755W        W43284  40.789  11.245   0.365
71756W        W43285  41.877  29.164   4.212
71757W        W43286  16.756  11.219   4.676
71758W        W43287  28.214  43.700   3.899
71759W        W43288   3.728  34.706   1.679
71760W        W43289  15.632  19.525  11.513
71761W        W43290  20.292   5.886  11.218
71762W        W43291  16.735  31.121  11.267
71763W        W43292  39.423  18.052   3.592
71764W        W43293  11.949  20.612  11.479
71765W        W43294  21.572  26.752  12.474
71766W        W43295  27.511  10.239   4.192
71767W        W43296   3.497  20.074   4.433
71768W        W43297  25.753   5.663   2.197
71769W        W43298   1.407  35.584  12.380
71770W        W43299  31.397  27.551   0.498
71771W        W43300   2.437  26.926   0.466
71772W        W43301  27.363  30.576   3.097
71773W        W43302   7.769   0.799  11.481
71774W        W43303  43.946  40.521   4.846
71775W        W43304  20.798  35.896  13.228
71776W        W43305  11.270  24.917  13.866
71777W        W43306  24.442  34.862  12.286
71778W        W43307  38.050  14.887   2.690
71779W        W43308  30.553  33.148  11.684
71780W        W43309   8.823  30.053   3.831
71781W        W43310  10.513  27.426  14.235
71782W        W43311  22.098   7.728   2.372
71783W        W43312   6.738  27.111  12.118
71784W        W43313  10.902  41.827  11.541
71785W        W43314  37.824  15.635  11.147
71786W        W43315  11.434  36.779  12.982
71787W        W43316  40.847  35.171  12.196
71788W        W43317  20.928   5.420   3.101
71789W        W43318  24.558  22.658   4.670
71790W        W43319  44.517   7.952  12.018
71791W        W43320  38.807   1.377  13.460
71792W        W43321  16.236  43.816  11.526
71793W        W43322  40.389   7.610   2.857
71794W        W43323  14.044  28.459  13.493
71795W        W43324   0.696  27.156  12.604
71796W        W43325  27.634  15.564  12.370
71797W        W43326  12.612  11.217  11.197
71798W        W43327   7.281  29.116  10.586
71799W        W43328   8.439  40.965   3.210
71800W        W43329  24.908   6.472   5.428
71801W        W43330  34.220  18.180  12.806
71802W        W43331  19.303  19.269  13.326
71803W        W43332  14.893  44.231  12.973
71804W        W43333   8.854  34.779   2.897
71805W        W43334  31.017  39.479  13.913
71806W        W43335  17.488   5.153  11.817
71807W        W43336  34.838  24.667  12.866
71808W        W43337  36.861  18.575   0.517
71809W        W43338   9.069   8.189  11.956
71810W        W43339  23.681  30.745   2.192
71811W        W43340  13.532   5.715  10.729
71812W        W43341  15.849  30.919   1.487
71813W        W43342  29.111  11.218   3.328
71814W        W43343  35.597   0.728   0.936
71815W        W43344  15.455   1.295   2.480
71816W        W43345  43.513   0.236  11.309
71817W        W43346  42.937  32.102  14.810
71818W        W43347  39.848   2.781  13.335
71819W        W43348  40.446  40.831   1.771
71820W        W43349  39.570   8.190  14.733
71821W        W43350  28.065  16.994  13.427
71822W        W43351  23.074  19.034  11.029
71823W        W43352  38.923  36.947  12.112
71824W        W43353  33.714  16.910  12.979
71825W        W43354  40.987  44.466   2.882
71826W        W43355   1.145  36.120   3.227
71827W        W43356  41.431   0.227  13.542
71828W        W43357  18.580   2.483  13.168
71829W        W43358  37.849  39.353  11.149
71830W        W43359  19.059  20.589  12.633
71831W        W43360   5.998   7.454   4.239
71832W        W43361  19.878   9.971  11.663
71833W        W43362   2.032  37.684  11.264
71834W        W43363  16.305  12.371   9.458
71835W        W43364  35.023  31.544  10.928
71836W        W43365   3.543  43.281   1.341
71837W        W43366  37.074  27.825  14.419
71838W        W43367  36.490  28.912   2.776
71839W        W43368  25.594  18.244   3.580
71840W        W43369  27.754  18.318   1.153
71841W        W43370   4.354  14.702   3.774
71842W        W43371  43.199  22.663   2.428
71843W        W43372   3.584  30.131   2.020
71844W        W43373  17.884  25.747  10.727
71845W        W43374   2.578   0.740  12.950
71846W        W43375  39.943  44.003  12.031
71847W        W43376  12.920  33.444   2.618
71848W        W43377   4.831   1.498  10.809
71849W        W43378  18.678  25.293  13.831
71850W        W43379  10.144  32.688   0.366
71851W        W43380  42.250  11.634   3.332
71852W        W43381  27.124   5.570   3.644
71853W        W43382  12.307  33.068  14.861
71854W        W43383   5.230  38.520  10.733
71855W        W43384  16.159  16.747   1.849
71856W        W43385  38.545  28.862  14.970
71857W        W43386  13.284  23.384  14.343
71858W        W43387  38.911  43.284  13.850
71859W        W43388  10.825  27.719  11.887
71860W        W43389   9.746  21.043  13.550
71861W        W43390   2.170  14.848  12.711
71862W        W43391   9.185   9.972   3.185
71863W        W43392  31.703  38.133   1.873
71864W        W43393  30.595  26.643   1.556
71865W        W43394  18.054  15.922  13.838
71866W        W43395   2.405  16.562   0.450
71867W        W43396  23.334  27.795   0.976
71868W        W43397   8.813  39.549  11.162
71869W        W43398  18.466   1.686   2.227
71870W        W43399  30.681  26.861   2.956
71871W        W43400   6.220  20.529   3.779
71872W        W43401  23.584   8.960  13.502
71873W        W43402  33.968   5.941   1.823
71874W        W43403  17.860  33.279  14.738
71875W        W43404  33.636  30.591   3.603
71876W        W43405   4.245  29.956   3.722
71877W        W43406  35.758  28.068  14.417
71878W        W43407   8.159  17.993   0.182
71879W        W43408   6.171  36.223   1.229
71880W        W43409  42.976  21.497   4.229
71881W        W43410  19.219  12.520  13.856
71882W        W43411  24.994  14.277  13.059
71883W        W43412  32.541  19.241  10.714
71884W        W43413  17.055  17.841  12.482
71885W        W43414  40.049  25.258  14.883
71886W        W43415   7.767  43.816  11.854
71887W        W43416   4.643  35.367   0.283
71888W        W43417   4.513  26.797  10.742
71889W        W43418  12.606  29.547  12.537
71890W        W43419   5.760  12.193   2.443
71891W        W43420  10.627  19.148   0.368
71892W        W43421  16.838  38.543   0.947
71893W        W43422  42.239   9.327   1.588
71894W        W43423   9.143  20.545   3.814
71895W        W43424   3.238  42.212   4.247
71896W        W43425  12.274  15.272  12.980
71897W        W43426  23.298  34.340   4.696
71898W        W43427   7.895  37.265  14.835
71899W        W43428  17.821  40.827   4.580
71900W        W43429  16.030   1.988   4.123
71901W        W43430   3.833  13.330   0.321
71902W        W43431  14.269  14.165  12.827
71903W        W43432   7.368  36.912  12.049
71904W        W43433   2.300  17.896  11.159
71905W        W43434  19.653   7.945   1.822
71906W        W43435  25.739  44.278  14.824
71907W        W43436   0.921  10.829   1.198
71908W        W43437   3.347   5.437   0.711
71909W        W43438  10.278  44.551   1.692
71910W        W43439  30.759  30.577   3.845
71911W        W43440  29.309  36.351  12.666
71912W        W43441  36.433   5.412   3.291
71913W        W43442  36.421  26.461  14.400
71914W        W43443  44.849   7.666  12.738
71915W        W43444  21.106  29.350   3.050
71916W        W43445   3.905  33.194   9.993
71917W        W43446  13.119  24.694   4.121
71918W        W43447   5.886   9.773  10.610
71919W        W43448  19.816  25.095   3.221
71920W        W43449   3.255   8.969  12.932
71921W        W43450   4.265  18.096  10.233
71922W        W43451   3.758   0.493   0.367
71923W        W43452  22.084  36.655  11.056
71924W        W43453   1.019   2.846   2.197
71925W        W43454  32.845  36.449  14.772
71926W        W43455  19.627  28.081  14.077
71927W        W43456  24.469  13.392   0.295
71928W        W43457   4.219  30.084  14.201
71929W        W43458  40.552  28.235  14.088
71930W        W43459  25.260   6.214   4.128
71931W        W43460  12.225  23.694  14.563
71932W        W43461  21.607  39.600   2.756
71933W        W43462  28.140  11.096  14.243
71934W        W43463  28.424  40.000   1.927
71935W        W43464   2.455  18.813  11.539
71936W        W43465   0.479   2.814  10.491
71937W        W43466  37.352  20.213   0.999
71938W        W43467  33.560  41.233  11.970
71939W        W43468  31.962  32.035   3.539
71940W        W43469  14.667  30.220   3.763
71941W        W43470  40.828   7.876   4.450
71942W        W43471  10.724  19.190  10.736
71943W        W43472  19.734  39.031  11.700
71944W        W43473  32.409   7.835  14.330
71945W        W43474  36.890   5.384  11.596
71946W        W43475  40.061  22.983  13.453
71947W        W43476  29.820  25.994   1.240
71948W        W43477  28.854  20.445   4.748
71949W        W43478  39.783   9.905  11.633
71950W        W43479  34.031  14.049   4.189
71951W        W43480  24.285   1.994   4.909
71952W        W43481  42.931   7.329  13.798
71953W        W43482  44.623  29.391   0.793
71954W        W43483   1.067  44.240   3.809
71955W        W43484  34.728  17.483  13.816
71956W        W43485  21.604  33.102  13.363
71957W        W43486   7.001   3.362   0.034
71958W        W43487   7.929  16.782   3.698
71959W        W43488  24.287  24.239  14.947
71960W        W43489  20.689   4.443  10.340
71961W        W43490  24.582  17.339   2.963
71962W        W43491  32.616   5.286  11.107
71963W        W43492  17.783  29.507   1.595
71964W        W43493   5.735  20.257  10.670
71965W        W43494  25.129   6.956  12.625
71966W        W43495   9.322  12.574   4.542
71967W        W43496  44.214  11.415   0.753
71968W        W43497  31.153  22.179   2.264
71969W        W43498  40.326  44.211  13.009
71970W        W43499  31.361  24.651  13.484
71971W        W43500   9.093  28.884  12.496
71972W        W43501  13.293  33.357   4.764
71973W        W43502   4.881  28.403  11.455
71974W        W43503  22.410  28.732   1.730
71975W        W43504  22.682  40.810  14.489
71976W        W43505  14.988  36.590  11.266
71977W        W43506   0.528  44.713  12.455
71978W        W43507  43.238  41.417  14.029
71979W        W43508   4.415   9.892   3.094
71980W        W43509  18.485   1.735  11.570
71981W        W43510  31.086   9.795   4.896
71982W        W43511  12.395  29.080  12.618
71983W        W43512   7.639   9.727   1.063
71984W        W43513  25.370  16.210  12.097
71985W        W43514  42.344  35.329  13.991
71986W        W43515  20.350  23.761   5.011
71987W        W43516   2.868   8.576   3.493
71988W        W43517  19.647  10.838   1.132
71989W        W43518  42.700  34.492   3.316
71990W        W43519   3.384   9.968  11.574
71991W        W43520  15.559  35.225   3.975
71992W        W43521  37.986  44.300  12.026
71993W        W43522  12.593   0.724  13.516
71994W        W43523  16.798   7.082   4.568
71995W        W43524  34.475  24.014  11.665
71996W        W43525  40.205  30.564  14.001
71997W        W43526  25.407  42.285  12.097
71998W        W43527   2.524  29.561   0.100
71999W        W43528  11.139   4.382   4.097
72000W        W43529  34.963   6.482   1.788
72001W        W43530  22.819  13.251   3.039
72002W        W43531  17.183  25.696  10.705
72003W        W43532   8.817   1.525   3.174
72004W        W43533  12.619   6.169  11.495
72005W        W43534  12.067  24.701   4.178
72006W        W43535  16.445  19.278   0.919
72007W        W43536  41.368   0.068  10.618
72008W        W43537  28.959  17.232  11.825
72009W        W43538  29.174  32.645  11.173
72010W        W43539  24.524  43.450  14.852
72011W        W43540   1.249  32.785   1.745
72012W        W43541  25.095  43.414  13.121
72013W        W43542  33.058  34.917  12.501
72014W        W43543   5.933  18.152  11.069
72015W        W43544  39.074  42.718   0.795
72016W        W43545  16.492  29.482   2.847
72017W        W43546  20.913  23.272  12.339
72018W        W43547   1.194  23.749   4.235
72019W        W43548  32.123  18.764   4.572
72020W        W43549  33.488  36.354   4.060
72021W        W43550   5.908  22.807  12.977
72022W        W43551  38.276   0.294   4.558
72023W        W43552   9.388  38.835  12.545
72024W        W43553  31.196  30.871   3.256
72025W        W43554   0.389  21.436   2.351
72026W        W43555  14.536   1.281   1.395
72027W        W43556   8.347  41.853  12.939
72028W        W43557  31.881  36.343  10.709
72029W        W43558  15.238  24.491   4.624
72030W        W43559  40.874  20.106  10.674
72031W        W43560  31.473  30.083   1.439
72032W        W43561  40.901   6.478  14.569
72033W        W43562   9.882  17.243  11.011
72034W        W43563  42.982  11.311   2.874
72035W        W43564  18.322  32.626   1.603
72036W        W43565  24.705   1.406   2.445
72037W        W43566  34.616   7.861   4.491
72038W        W43567  37.406  39.466   1.495
72039W        W43568  13.229  40.267   5.130
72040W        W43569  34.421  37.024   0.928
72041W        W43570  13.314  33.029  10.798
72042W        W43571  24.925  14.258  14.869
72043W        W43572  16.287   5.445  10.771
72044W        W43573  39.852   5.840  13.904
72045W        W43574  21.037  19.239  10.749
72046W        W43575  20.943  43.508   0.270
72047W        W43576  29.874  24.033   4.976
72048W        W43577  38.375  19.204   4.218
72049W        W43578  21.718  44.294   3.217
72050W        W43579  31.618  36.009   4.222
72051W        W43580  43.565  21.196   3.186
72052W        W43581  28.359  33.657   0.469
72053W        W43582  21.363  11.716  13.328
72054W        W43583   2.162  41.362  11.826
72055W        W43584  21.295  38.338  14.411
72056W        W43585  30.524  11.056  10.466
72057W        W43586  19.276   5.789   3.719
72058W        W43587   1.049  31.818   2.802
72059W        W43588  27.171  12.465  13.654
72060W        W43589  33.327  32.341  10.206
72061W        W43590  20.661  28.110   0.689
72062W        W43591  34.177  35.917   4.345
72063W        W43592  38.127  42.296   3.204
72064W        W43593  10.120  23.212   0.174
72065W        W43594  20.723  10.850   2.654
72066W        W43595  22.738  17.780   3.215
72067W        W43596   3.449  33.131   1.733
72068W        W43597  38.501  36.347   3.186
72069W        W43598  43.530   9.840  14.321
72070W        W43599  39.874   6.787  10.520
72071W        W43600  38.394  31.708   2.434
72072W        W43601  32.884  21.130  13.091
72073W        W43602  11.749  13.583   1.419
72074W        W43603  30.022  26.753  14.663
72075W        W43604  25.136  12.597   3.997
72076W        W43605  10.109  41.948   3.197
72077W        W43606   8.185   4.805  13.822
72078W        W43607   1.134  25.039  12.777
72079W        W43608  34.979  37.823   0.735
72080W        W43609  39.572  31.951   0.266
72081W        W43610  43.591  28.430   1.550
72082W        W43611  15.950  37.311   3.674
72083W        W43612  37.882   0.654   3.861
72084W        W43613  23.500   6.644   0.870
72085W        W43614  22.690   4.419   1.974
72086W        W43615  17.072  22.906   9.923
72087W        W43616   2.592  22.946   0.483
72088W        W43617   5.477  17.855   1.429
72089W        W43618  12.870   3.789   1.889
72090W        W43619  43.797  35.402  13.753
72091W        W43620  31.021  41.572  13.762
72092W        W43621  26.185  33.101  11.089
72093W        W43622  18.062  16.352  11.127
72094W        W43623   5.718  21.035   1.908
72095W        W43624  32.246  14.103   3.111
72096W        W43625   5.514  17.288   2.285
72097W        W43626   7.235  13.238  10.716
72098W        W43627  38.972  37.729   1.501
72099W        W43628  21.197   7.995  10.761
72100W        W43629  25.048  22.612   3.232
72101W        W43630  33.499  39.023   1.886
72102W        W43631   6.183  38.767   4.188
72103W        W43632   6.766  16.109   1.647
72104W        W43633  30.022  35.864   1.789
72105W        W43634   8.372  31.686   4.143
72106W        W43635   9.328  37.959   3.805
72107W        W43636  42.405  33.881   2.679
72108W        W43637  38.981  39.112  12.557
72109W        W43638   2.434  30.983  12.342
72110W        W43639  10.574  25.181  11.559
72111W        W43640  30.725  20.999   4.496
72112W        W43641  29.116  32.047   0.823
72113W        W43642  17.074  20.575  11.722
72114W        W43643  33.325  32.526   3.332
72115W        W43644  19.143  36.399   4.535
72116W        W43645  39.531  42.058  10.928
72117W        W43646  15.582   6.798   0.934
72118W        W43647   5.210  37.556  10.513
72119W        W43648   9.839  21.606   1.860
72120W        W43649  23.443  32.608  13.544
72121W        W43650  24.988  14.654   0.849
72122W        W43651  32.637   3.423  13.649
72123W        W43652  43.427  11.057  10.778
72124W        W43653   1.327   9.141   4.242
72125W        W43654  31.673  11.417   2.827
72126W        W43655   2.828  28.445  12.640
72127W        W43656  28.518   5.462   4.008
72128W        W43657  40.364  20.735   4.512
72129W        W43658  11.285  16.058  12.653
72130W        W43659   5.232  38.429  13.495
72131W        W43660   8.690  32.251  10.787
72132W        W43661  44.560  14.195  11.520
72133W        W43662   0.659   4.826  13.079
72134W        W43663  12.085  42.723  12.475
72135W        W43664   3.481  12.259  13.388
72136W        W43665  24.089  33.822   2.785
72137W        W43666   5.223  39.107   0.379
72138W        W43667  34.871  43.749   2.009
72139W        W43668  32.022  18.726   0.060
72140W        W43669  34.460  14.343  14.025
72141W        W43670  26.764   2.298  14.974
72142W        W43671  23.002   2.481   5.213
72143W        W43672  22.003   4.497   2.305
72144W        W43673  39.163   4.709  14.846
72145W        W43674  25.729  29.632  10.533
72146W        W43675  36.554  37.735   4.518
72147W        W43676   4.538  11.228   4.046
72148W        W43677  18.742  28.150   3.433
72149W        W43678  40.734  25.537  11.244
72150W        W43679  14.707   9.536  12.494
72151W        W43680   6.425  27.432   3.481
72152W        W43681   4.245  25.051  11.419
72153W        W43682  11.354   5.752   2.341
72154W        W43683  30.153   5.630   1.960
72155W        W43684  23.823  22.604  13.284
72156W        W43685  33.631  13.355  11.517
72157W        W43686  16.093  30.463   1.746
72158W        W43687  32.194  23.477  10.192
72159W        W43688  42.361  31.037   4.053
72160W        W43689   2.457  32.775   4.947
72161W        W43690   0.081  31.120   1.826
72162W        W43691   0.683  26.768   1.237
72163W        W43692  30.399  42.025   1.974
72164W        W43693  44.434   8.885  14.874
72165W        W43694  10.140  16.619   0.993
72166W        W43695  35.403   2.936   3.830
72167W        W43696  42.004  19.078   4.117
72168W        W43697   3.693  38.009   4.550
72169W        W43698  11.390  20.021   2.246
72170W        W43699  26.137  22.692  10.500
72171W        W43700  20.519  39.955  12.120
72172W        W43701  34.451  38.278   0.678
72173W        W43702   4.311  28.207   0.878
72174W        W43703   0.390  19.645   0.679
72175W        W43704  18.628  19.685   2.437
72176W        W43705  26.184  20.075   2.647
72177W        W43706   4.941   4.713  13.521
72178W        W43707  26.019   0.962  13.513
72179W        W43708  11.802   0.387  12.613
72180W        W43709  12.215  37.874   1.751
72181W        W43710  37.403  36.982   4.878
72182W        W43711  20.812  43.076   3.174
72183W        W43712  34.340   8.788  14.774
72184W        W43713  26.106  32.856  12.250
72185W        W43714  24.764  11.769  12.052
72186W        W43715  41.914   5.676   2.054
72187W        W43716   4.558  21.619   2.559
72188W        W43717  34.470   5.972   1.021
72189W        W43718  24.441   5.427  12.607
72190W        W43719  27.933  30.635  12.883
72191W        W43720  25.505  22.143   0.831
72192W        W43721  19.212  13.076  11.651
72193W        W43722  12.947  29.794   1.799
72194W        W43723   1.201  15.738   1.223
72195W        W43724  11.231  36.999  11.645
72196W        W43725  42.899  18.941  11.156
72197W        W43726   0.949  26.404   3.709
72198W        W43727   3.701   2.356   4.807
72199W        W43728  14.121  44.271   4.716
72200W        W43729  16.756  43.227   2.055
72201W        W43730  22.020  24.398   4.248
72202W        W43731  37.866  42.742   4.702
72203W        W43732   5.308   4.680   2.313
72204W        W43733  19.670  32.181  12.988
72205W        W43734   1.349  35.436  10.355
72206W        W43735   4.297  40.137  12.097
72207W        W43736   7.832  32.706  10.730
72208W        W43737  27.688  34.794   4.042
72209W        W43738  30.681  24.438   1.343
72210W        W43739   2.221  18.753   5.036
72211W        W43740  13.781  33.782  11.140
72212W        W43741  40.837  37.400   0.765
72213W        W43742  24.563  24.886  13.859
72214W        W43743  11.915  10.143   0.839
72215W        W43744   4.411   1.655  14.289
72216W        W43745  40.844  11.912  12.952
72217W        W43746  27.006  11.312  13.476
72218W        W43747  14.030  43.851  10.598
72219W        W43748  10.791  36.149   3.249
72220W        W43749  38.530  17.820   2.669
72221W        W43750   3.169   8.663  13.911
72222W        W43751   4.420  25.718  14.679
72223W        W43752   0.740  21.075   0.890
72224W        W43753  41.854   2.653   1.895
72225W        W43754  44.767  26.714  14.361
72226W        W43755  20.135  33.967   4.635
72227W        W43756  24.429  16.082   1.676
72228W        W43757  40.352  33.571   0.773
72229W        W43758   3.381  29.584  12.692
72230W        W43759  42.039  22.168  10.502
72231W        W43760  13.567  28.715  13.514
72232W        W43761   9.763  29.371   0.278
72233W        W43762   7.939  28.509  11.140
72234W        W43763  22.138  20.292   4.510
72235W        W43764  37.448   9.167  12.550
72236W        W43765  18.271  26.263  14.038
72237W        W43766  39.470  11.850   3.838
72238W        W43767  22.763   8.309  11.425
72239W        W43768  42.792  28.346  13.932
72240W        W43769   8.094  43.010   3.597
72241W        W43770  44.788  31.967  12.140
72242W        W43771  21.318  38.323   1.581
72243W        W43772  33.912   5.453  12.418
72244W        W43773   3.661  21.029   1.718
72245W        W43774  34.911   9.094   3.167
72246W        W43775  35.653   7.451   2.334
72247W        W43776  25.367  37.134  14.736
72248W        W43777   2.920  29.984  11.727
72249W        W43778  25.408  30.349  11.096
72250W        W43779  40.076  17.207   2.179
72251W        W43780  29.641  15.184   2.149
72252W        W43781   2.297   7.158   4.293
72253W        W43782  24.062  11.269   2.638
72254W        W43783   2.414  22.320   4.138
72255W        W43784   4.624  15.855   3.207
72256W        W43785  28.410  31.576  14.528
72257W        W43786  17.708  25.356  14.860
72258W        W43787  37.364  22.634   2.368
72259W        W43788  29.130   0.557   1.775
72260W        W43789   3.313  28.024  13.990
72261W        W43790   4.867  14.374   1.359
72262W        W43791   3.485  32.240  11.371
72263W        W43792  26.278  11.340  11.000
72264W        W43793  10.111   0.305   3.723
72265W        W43794  35.019   2.271   1.582
72266W        W43795  32.756  36.029  13.840
72267W        W43796  35.308  13.924   2.799
72268W        W43797  21.214   7.359  12.139
72269W        W43798   5.496  42.291  11.067
72270W        W43799  42.471  17.562  14.754
72271W        W43800  32.587  19.764  11.913
72272W        W43801   3.924  23.046  12.108
72273W        W43802  18.416  14.659  10.619
72274W        W43803  31.434  10.324   1.205
72275W        W43804  30.780  32.013  12.677
72276W        W43805  24.483  12.384   1.100
72277W        W43806   9.996  14.537  11.509
72278W        W43807  25.457   0.075  11.332
72279W        W43808  35.486  30.858  14.279
72280W        W43809  16.618  16.481  12.126
72281W        W43810  39.104  38.192   1.290
72282W        W43811  37.459  22.736  13.019
72283W        W43812  21.321  37.856   5.013
72284W        W43813   1.924  19.133  13.057
72285W        W43814   6.338   9.412   3.247
72286W        W43815  36.377   0.583   4.735
72287W        W43816  33.596   5.674  13.138
72288W        W43817  23.325   8.586  10.789
72289W        W43818  30.491   5.381   4.144
72290W        W43819   7.972  20.081   2.255
72291W        W43820  22.395  24.150   2.868
72292W        W43821  18.571   0.277  14.470
72293W        W43822  14.844  32.018  12.516
72294W        W43823   5.920  22.101   1.178
72295W        W43824  27.797  29.244  11.242
72296W        W43825  21.281   3.297   1.704
72297W        W43826  12.892   2.036   1.353
72298W        W43827  25.873  12.155  12.051
72299W        W43828  27.451  23.989  11.644
72300W        W43829  36.819  27.559   3.398
72301W        W43830  11.687  15.416  12.429
72302W        W43831  43.716  17.183   1.300
72303W        W43832  28.506  32.204   2.754
72304W        W43833  12.247  14.865  10.738
72305W        W43834  36.522  13.050  13.026
72306W        W43835  19.431  26.460  13.457
72307W        W43836  30.235  13.750   1.441
72308W        W43837  25.406  22.068  13.911
72309W        W43838   9.696  37.619  14.768
72310W        W43839  29.167  18.992  13.081
72311W        W43840  34.781   7.078  11.084
72312W        W43841  35.503   7.827   4.110
72313W        W43842  37.898  42.229  12.441
72314W        W43843  16.824   2.867   3.681
72315W        W43844  16.204  26.461   4.295
72316W        W43845   6.391  16.925  10.644
72317W        W43846  11.809   1.217  13.264
72318W        W43847  36.470  39.749   2.687
72319W        W43848  33.412  30.578  14.213
72320W        W43849   6.416   4.744   0.981
72321W        W43850  18.081  36.067   0.885
72322W        W43851  19.601  35.529  10.940
72323W        W43852   6.515   7.995  10.802
72324W        W43853  31.210  44.350   3.643
72325W        W43854  37.949  42.032   4.004
72326W        W43855  12.219  15.154   3.575
72327W        W43856  37.630   3.443  12.996
72328W        W43857  39.730  31.492   4.238
72329W        W43858  25.047  44.074   1.753
72330W        W43859  39.273  34.913   2.252
72331W        W43860   1.019  35.591   4.497
72332W        W43861   5.509  36.803  11.051
72333W        W43862  22.746   3.492   1.710
72334W        W43863  38.958  19.371   4.520
72335W        W43864   6.586  31.048   4.917
72336W        W43865  26.485  12.782   1.885
72337W        W43866  31.711  33.930  11.047
72338W        W43867  27.719  12.383  13.802
72339W        W43868  26.740   5.099   2.138
72340W        W43869  34.857  16.363  14.453
72341W        W43870  26.720  33.704  10.845
72342W        W43871  15.142   3.007  11.917
72343W        W43872  25.879   3.807  10.553
72344W        W43873  29.433   3.835  12.058
72345W        W43874  30.558  24.031  12.126
72346W        W43875  36.383  20.737   4.721
72347W        W43876  39.731  16.986   3.235
72348W        W43877  21.783   6.864  13.932
72349W        W43878  44.492  36.321   3.638
72350W        W43879  32.668  23.137   0.257
72351W        W43880   6.705  38.465   3.650
72352W        W43881  11.814  26.138   1.224
72353W        W43882  32.038  23.147   1.482
72354W        W43883  20.546  44.989  14.893
72355W        W43884  42.095   2.223   3.735
72356W        W43885  42.480  15.236   0.545
72357W        W43886  35.109  39.857  14.931
72358W        W43887  22.101  27.159  11.256
72359W        W43888  38.318  44.986   3.252
72360W        W43889  28.249  39.776  13.930
72361W        W43890  23.025  24.490  12.956
72362W        W43891  34.444  18.952  13.053
72363W        W43892  22.626   2.515  13.083
72364W        W43893   5.372   0.842  13.397
72365W        W43894  29.323  17.832   1.470
72366W        W43895  36.149  37.063   2.799
72367W        W43896  19.595   2.952  13.270
72368W        W43897   3.716   5.570  11.623
72369W        W43898   0.935   1.050   0.256
72370W        W43899   5.696  11.663  14.342
72371W        W43900  36.507  40.039   1.365
72372W        W43901  21.451  25.591  12.003
72373W        W43902  22.652   4.748   2.367
72374W        W43903  30.081  28.148   1.512
72375W        W43904   6.668  25.066   9.933
72376W        W43905  37.354  11.904  14.871
72377W        W43906  36.756   5.640   2.169
72378W        W43907  33.301  13.200   0.654
72379W        W43908  15.831  10.705   1.696
72380W        W43909  32.821   7.153  13.951
72381W        W43910  28.714  17.091   2.276
72382W        W43911  44.036  41.468   1.875
72383W        W43912  28.266   8.910   1.800
72384W        W43913  13.231  44.239  13.960
72385W        W43914  38.552   3.903  14.619
72386W        W43915  28.163  35.965  11.057
72387W        W43916  23.971  20.369  13.626
72388W        W43917  30.603  18.179   1.255
72389W        W43918  22.272  17.270   3.779
72390W        W43919  43.007  12.355  12.338
72391W        W43920   2.297  22.995  13.740
72392W        W43921   5.653   7.139   3.372
72393W        W43922  37.291  18.583   1.289
72394W        W43923  27.042  21.679  14.571
72395W        W43924  25.145  23.955  14.797
72396W        W43925   1.853  36.409   2.815
72397W        W43926  24.360  42.537  11.066
72398W        W43927  15.626  30.547  10.133
72399W        W43928  36.541   4.808   3.385
72400W        W43929  44.556   0.031   1.439
72401W        W43930   4.772  27.522  11.487
72402W        W43931  33.752   2.899  12.427
72403W        W43932  11.199  10.217  12.858
72404W        W43933  32.077  24.050   2.277
72405W        W43934  11.644  33.952   0.880
72406W        W43935  22.855  22.169   5.028
72407W        W43936  27.124  26.195  11.701
72408W        W43937  11.714   9.439  14.437
72409W        W43938  34.012  34.310   0.941
72410W        W43939  21.449  22.077   2.585
72411W        W43940  24.243  25.422   2.233
72412W        W43941   9.348  10.414   3.391
72413W        W43942  33.879  12.169  13.070
72414W        W43943   3.752   5.268  13.932
72415W        W43944  30.031  35.842   0.043
72416W        W43945  39.046  13.132   3.160
72417W        W43946   2.181  17.749   1.846
72418W        W43947  43.500  16.750  12.533
72419W        W43948  18.798  12.158   4.094
72420W        W43949  15.457  23.684   4.435
72421W        W43950  22.669   7.300  14.849
72422W        W43951  24.199  23.040   4.903
72423W        W43952  20.804   4.185   2.832
72424W        W43953  22.053  41.009   4.988
72425W        W43954  18.541   3.680  10.811
72426W        W43955  24.467  16.711   2.311
72427W        W43956   9.608  39.516  13.349
72428W        W43957  38.062  23.506  10.914
72429W        W43958  21.524  29.171  10.657
72430W        W43959  41.029  12.132  12.024
72431W        W43960  22.725   7.289   1.508
72432W        W43961   3.746  23.874  11.008
72433W        W43962  44.286  15.438  13.343
72434W        W43963  17.930  20.209  14.565
72435W        W43964  36.094   8.956   4.543
72436W        W43965  16.185  30.480  13.975
72437W        W43966  42.347   8.877  12.239
72438W        W43967  34.140  17.599   2.073
72439W        W43968   0.950  23.467   1.292
72440W        W43969  24.777  11.897  13.987
72441W        W43970  38.359  42.232  14.452
72442W        W43971   7.770  15.809   1.469
72443W        W43972  24.243   1.779   1.794
72444W        W43973  13.850  32.644   3.803
72445W        W43974  36.064  33.032  11.472
72446W        W43975  17.977  28.198   1.411
72447W        W43976  20.072   5.651  13.945
72448W        W43977  29.680  36.001   2.537
72449W        W43978  10.228  39.712  11.766
72450W        W43979  24.823   5.191   0.270
72451W        W43980  13.067  40.601   1.743
72452W        W43981  22.605   2.908  14.457
72453W        W43982  43.833  19.038   4.993
72454W        W43983  23.823  19.289   3.738
72455W        W43984  21.167  19.752   3.901
72456W        W43985   4.871  23.197  12.852
72457W        W43986  25.606  25.659   4.491
72458W        W43987   1.963  25.954   0.784
72459W        W43988  14.216  16.909   3.167
72460W        W43989  17.196  38.817  13.005
72461W        W43990  10.507  42.141   4.938
72462W        W43991  40.440   1.810   0.698
72463W        W43992  39.754  34.426  12.924
72464W        W43993   0.449  20.270  12.562
72465W        W43994  28.216   2.874   3.699
72466W        W43995  16.355  19.035   4.888
72467W        W43996   6.622  25.999  11.135
72468W        W43997  40.855  40.810  14.999
72469W        W43998  39.773   2.967  14.034
72470W        W43999  41.794  41.441  11.450
72471W        W44000  37.287   9.819  11.463
72472W        W44001  12.709  20.204  10.470
72473W        W44002  14.170   2.243  13.331
72474W        W44003   0.978  35.434  10.742
72475W        W44004  17.330  39.860  14.462
72476W        W44005  22.090  15.114  13.717
72477W        W44006  16.175  42.808   4.281
72478W        W44007  16.169  29.572  12.916
72479W        W44008  12.289  30.701   0.862
72480W        W44009  12.150  38.922   3.388
72481W        W44010  28.180  21.584  10.874
72482W        W44011   7.971  19.216  13.886
72483W        W44012  30.207   7.100  11.260
72484W        W44013   3.382  19.311  12.030
72485W        W44014   0.252  35.115   4.795
72486W        W44015   3.200   3.208   3.158
72487W        W44016   1.205  16.880  12.587
72488W        W44017  14.250  22.355  12.306
72489W        W44018   8.135  23.176  14.966
72490W        W44019  24.592  19.356   4.181
72491W        W44020  28.195  27.173   2.127
72492W        W44021   5.966   7.392   3.711
72493W        W44022   8.096  27.562   2.426
72494W        W44023  31.407  39.864   2.733
72495W        W44024  14.130  33.158   3.220
72496W        W44025  31.192   5.749  13.015
72497W        W44026   2.086  28.982  11.573
72498W        W44027  26.101  11.882   1.565
72499W        W44028  24.481  25.465   3.734
72500W        W44029  14.231  43.939   3.341
72501W        W44030  26.636  29.348   1.377
72502W        W44031  12.880   3.260   1.843
72503W        W44032  38.369   5.674  12.049
72504W        W44033   9.645  24.067  10.896
72505W        W44034  13.817  42.712   0.875
72506W        W44035   8.412  23.172  13.923
72507W        W44036  38.503  29.389   3.305
72508W        W44037   6.548  30.992  13.627
72509W        W44038  15.535  38.106  12.873
72510W        W44039  28.450   3.665  10.677
72511W        W44040  23.182  13.759  12.566
72512W        W44041  43.444  43.440  12.072
72513W        W44042  20.589  21.566   2.656
72514W        W44043  41.017  40.797  14.091
72515W        W44044  19.688  26.722   2.395
72516W        W44045  24.027  39.208   4.196
72517W        W44046   7.260   7.212  13.024
72518W        W44047   3.721  18.792   3.768
72519W        W44048  39.825  14.147   2.089
72520W        W44049  19.152  27.938   9.912
72521W        W44050  10.226  44.753   0.813
72522W        W44051  25.557  18.745   4.524
72523W        W44052  43.536  29.232  11.764
72524W        W44053  44.822  14.834   3.348
72525W        W44054  27.539  39.259   3.632
72526W        W44055   4.980  13.857   1.326
72527W        W44056  20.558  21.534   3.190
72528W        W44057  36.619  38.374  11.640
72529W        W44058  19.523  28.597   3.385
72530W        W44059   2.790  12.786  11.594
72531W        W44060  24.525  22.105  12.394
72532W        W44061  42.267  16.198   1.049
72533W        W44062  34.581   3.819  11.615
72534W        W44063  17.814  13.079  13.033
72535W        W44064  12.240  14.774   1.979
72536W        W44065  22.217  32.586  13.906
72537W        W44066   6.997  29.520  10.469
72538W        W44067   8.288  33.871   0.200
72539W        W44068  44.423   9.938   3.215
72540W        W44069  13.917  20.603   3.294
72541W        W44070  10.715  42.312  10.388
72542W        W44071  25.226  13.573  12.119
72543W        W44072   9.900   5.634   1.169
72544W        W44073   1.926  28.406   1.903
72545W        W44074  28.449   7.710  13.446
72546W        W44075  44.203  44.135  14.807
72547W        W44076  17.710  18.646  12.931
72548W        W44077  42.438  38.600   2.619
72549W        W44078  31.078  28.647   2.243
72550W        W44079   3.449  15.757   0.977
72551W        W44080  35.792  43.561   0.347
72552W        W44081  38.422  20.782  14.922
72553W        W44082  34.996  23.924   4.610
72554W        W44083   2.308  15.185  14.359
72555W        W44084  11.668   0.488  12.032
72556W        W44085  17.187  41.442  11.366
72557W        W44086  11.359  32.569   3.811
72558W        W44087   2.508  17.909   3.157
72559W        W44088   4.497   0.829  12.774
72560W        W44089  31.761  24.973  10.479
72561W        W44090  39.632  30.701  12.933
72562W        W44091  21.443   6.738   0.390
72563W        W44092  19.495  15.708  12.963
72564W        W44093  13.327   7.039  14.895
72565W        W44094  39.414   2.038  14.688
72566W        W44095   9.939  43.534   2.784
72567W        W44096   0.473  36.102   2.820
72568W        W44097  42.798   3.096   2.211
72569W        W44098   8.362  44.920  11.161
72570W        W44099  36.447   4.608  11.654
72571W        W44100  21.980  13.336   1.364
72572W        W44101  42.091  20.232   0.281
72573W        W44102  32.025  30.198  14.465
72574W        W44103  26.199  44.556  14.787
72575W        W44104   2.259   2.765   0.331
72576W        W44105  23.394  19.082  10.632
72577W        W44106  32.972  27.630   4.283
72578W        W44107  20.614  44.238   1.157
72579W        W44108  20.184   0.041   1.344
72580W        W44109  26.749  28.028   3.369
72581W        W44110  28.015  22.664   3.832
72582W        W44111  11.268   9.066   2.768
72583W        W44112   6.381  44.021   0.666
72584W        W44113  38.031  32.346  12.870
72585W        W44114  41.903  19.511  10.713
72586W        W44115   6.287  16.963   0.462
72587W        W44116   5.454  10.277  12.062
72588W        W44117  43.751  21.207   0.501
72589W        W44118  17.335  11.173   0.875
72590W        W44119  30.284  43.210   1.317
72591W        W44120  10.212   2.744  11.535
72592W        W44121   0.514  37.858  10.709
72593W        W44122  41.012  14.696   0.739
72594W        W44123   0.757  25.144   4.169
72595W        W44124  20.757  21.748  14.442
72596W        W44125   6.678  36.461  12.374
72597W        W44126  17.346  30.633  13.552
72598W        W44127   5.677  41.857   0.409
72599W        W44128  11.064  23.776  11.809
72600W        W44129  21.061  31.222   4.229
72601W        W44130   5.903  25.966   1.731
72602W        W44131  29.495  42.290  12.508
72603W        W44132  27.232  26.848   4.253
72604W        W44133  23.750  39.282   3.768
72605W        W44134  44.308  34.600   1.796
72606W        W44135  10.458  25.072  13.670
72607W        W44136  20.181  41.925   2.200
72608W        W44137   9.711  34.002   2.602
72609W        W44138   8.347  22.160  13.557
72610W        W44139  33.538  31.600  14.772
72611W        W44140  23.151  31.859   2.703
72612W        W44141  29.174  28.183  13.260
72613W        W44142  31.045  38.359   0.684
72614W        W44143  36.772  33.840   2.299
72615W        W44144  26.336  34.737  12.683
72616W        W44145  29.930  29.169   0.417
72617W        W44146  43.094   1.952  13.555
72618W        W44147  41.748  39.518   4.602
72619W        W44148  16.739  23.491   4.813
72620W        W44149  20.369  32.199   5.123
72621W        W44150   0.732  25.674   4.096
72622W        W44151   7.805  29.441   4.678
72623W        W44152  22.018  36.321  10.676
72624W        W44153  14.325  20.514  12.399
72625W        W44154  33.946  26.611   2.007
72626W        W44155  18.277   8.261   4.668
72627W        W44156  17.194  37.650   4.979
72628W        W44157  33.507  11.813   1.713
72629W        W44158   2.583  20.361  13.807
72630W        W44159  12.885  42.538  10.786
72631W        W44160  14.601  33.881  12.376
72632W        W44161  18.420   1.738   5.167
72633W        W44162  25.679   0.376  10.988
72634W        W44163  24.417   1.191  11.529
72635W        W44164  31.923  16.224   3.312
72636W        W44165  23.397  18.806   2.788
72637W        W44166  11.729   5.953  12.844
72638W        W44167   9.763  14.273  14.189
72639W        W44168  43.889  36.683  14.516
72640W        W44169  33.625  39.353  10.921
72641W        W44170  11.828  26.555  13.686
72642W        W44171  22.592  27.505  14.693
72643W        W44172  18.203  44.524  12.674
72644W        W44173   1.897   2.458   3.148
72645W        W44174  35.127  25.532  10.729
72646W        W44175  11.852  38.910   2.116
72647W        W44176  15.683  33.931   0.233
72648W        W44177  28.544   0.769  10.922
72649W        W44178  16.644  32.589  13.099
72650W        W44179  23.909  12.357  14.554
72651W        W44180  44.329  14.276  14.534
72652W        W44181  16.160   0.375  12.411
72653W        W44182  43.311   0.885   3.094
72654W        W44183  12.195   4.417  11.950
72655W        W44184  15.708   7.833   5.454
72656W        W44185  39.537  10.045   0.246
72657W        W44186  44.354  25.887  12.605
72658W        W44187  39.582  38.084  10.671
72659W        W44188  23.048   2.429  11.877
72660W        W44189  37.679  14.356   3.291
72661W        W44190  24.043  36.126   4.118
72662W        W44191  25.226   9.416   0.889
72663W        W44192  30.896  41.002   0.286
72664W        W44193   2.568  18.512   0.083
72665W        W44194   3.497   0.978   0.763
72666W        W44195   4.365   9.127  11.691
72667W        W44196  19.134  42.936   1.789
72668W        W44197  16.414  28.620   9.748
72669W        W44198  42.278  30.237   1.458
72670W        W44199   5.314  44.982  12.348
72671W        W44200   2.414  30.469  14.888
72672W        W44201  17.974  34.825   3.904
72673W        W44202   6.801  40.868  12.930
72674W        W44203   2.227  36.351   0.417
72675W        W44204  30.018   5.905   1.531
72676W        W44205  31.390  24.748  14.857
72677W        W44206  24.582   3.831  10.682
72678W        W44207  29.821  33.883  12.604
72679W        W44208  28.207  24.482   0.046
72680W        W44209   6.985  11.834   0.712
72681W        W44210  24.570  25.134   4.130
72682W        W44211  17.165  28.181   0.050
72683W        W44212  17.175   3.222   2.010
72684W        W44213  19.065  40.303  12.391
72685W        W44214  37.110   4.855   0.878
72686W        W44215  43.926   7.389  13.647
72687W        W44216  10.391  26.631  12.799
72688W        W44217  36.512  14.830  12.823
72689W        W44218  14.327  15.461  10.746
72690W        W44219  21.806   3.696  11.419
72691W        W44220  26.536  33.338  12.804
72692W        W44221  42.813   5.606   2.587
72693W        W44222  23.077   7.048  12.208
72694W        W44223  37.747  24.386   2.259
72695W        W44224   1.303  37.315  10.839
72696W        W44225  20.559   0.453  12.463
72697W        W44226  16.756   2.658   4.549
72698W        W44227   5.026  43.261  11.442
72699W        W44228  34.413  42.189   3.333
72700W        W44229  13.198   7.354  14.437
72701W        W44230   7.391  35.590  12.413
72702W        W44231   5.694  38.434   4.516
72703W        W44232  14.248  34.012   0.788
72704W        W44233   7.375  41.783   0.492
72705W        W44234  15.285  20.121  12.658
72706W        W44235   3.367   3.366  14.050
72707W        W44236   6.956  40.688   0.771
72708W        W44237   0.539   5.900   1.406
72709W        W44238  13.698  19.873   2.772
72710W        W44239  38.832  14.132   3.698
72711W        W44240  31.477  26.989   2.344
72712W        W44241  34.756  20.159  12.353
72713W        W44242   4.257  25.788   0.899
72714W        W44243  41.270   4.241  11.184
72715W        W44244   6.582  36.490  14.416
72716W        W44245  39.914  28.710   1.530
72717W        W44246  30.015  12.608  12.876
72718W        W44247  31.618   6.182  12.526
72719W        W44248  44.934   2.898   2.346
72720W        W44249  31.664  30.501  10.793
72721W        W44250  26.126   9.388   0.707
72722W        W44251  37.948   1.358   4.128
72723W        W44252  28.119   9.736   1.445
72724W        W44253  25.111  17.273   3.610
72725W        W44254  25.531  12.374  10.691
72726W        W44255  19.628  38.946   3.958
72727W        W44256   4.169  39.832   1.489
72728W        W44257  10.233  17.302  12.324
72729W        W44258  18.790   0.355  14.940
72730W        W44259   2.336   4.334   4.600
72731W        W44260  23.225  41.431   0.894
72732W        W44261   2.266  23.678   0.790
72733W        W44262   7.537  15.614  13.273
72734W        W44263  22.056  37.141  11.160
72735W        W44264  24.756  14.298  13.550
72736W        W44265  34.605  29.906  14.500
72737W        W44266  24.529   4.182  12.927
72738W        W44267  41.303  24.391  13.077
72739W        W44268  44.504   0.127  14.904
72740W        W44269  35.378   7.033  10.685
72741W        W44270  42.380   4.852   2.820
72742W        W44271  30.555  28.255   5.123
72743W        W44272  16.764  38.071  11.990
72744W        W44273  27.207  28.097   3.136
72745W        W44274   6.063  32.935  13.539
72746W        W44275  37.375  15.602   3.742
72747W        W44276  31.952  26.466  11.228
72748W        W44277  34.350  21.088  11.050
72749W        W44278  39.857  23.465  13.496
72750W        W44279  25.398  12.358  12.192
72751W        W44280  42.355  26.734  11.133
72752W        W44281  27.876  14.691   0.889
72753W        W44282  28.978  39.075  13.220
72754W        W44283  24.194   8.573  11.150
72755W        W44284   0.984  14.738  13.775
72756W        W44285  39.005  23.019  12.612
72757W        W44286   2.021  43.949  11.618
72758W        W44287   9.803  31.394  13.754
72759W        W44288   0.944  25.447  13.482
72760W        W44289  23.582  22.305  12.516
72761W        W44290  29.970  44.050   3.755
72762W        W44291  14.250  27.883   2.745
72763W        W44292  34.044  42.417   0.486
72764W        W44293  29.094  23.585  11.190
72765W        W44294  39.099  40.956   2.927
72766W        W44295   0.427  20.108   1.232
72767W        W44296  34.729  23.738   0.958
72768W        W44297  39.258   5.257   4.126
72769W        W44298  34.143   7.937   1.776
72770W        W44299  39.546  18.790  11.226
72771W        W44300  31.223  32.539   0.465
72772W        W44301  34.435  39.943   3.046
72773W        W44302  31.913  25.530   2.719
72774W        W44303  17.683  36.285  12.186
72775W        W44304  26.496   9.217   1.026
72776W        W44305  26.408  30.968  13.289
72777W        W44306  29.901  37.077   2.184
72778W        W44307  43.856  14.646  12.859
72779W        W44308   5.206  39.878   3.123
72780W        W44309  32.510  33.665   4.590
72781W        W44310  18.587  34.044  10.850
72782W        W44311  13.719  39.013   0.738
72783W        W44312  38.389  39.342  12.948
72784W        W44313  42.578  25.161   4.322
72785W        W44314  17.807  24.271  13.090
72786W        W44315  43.362   7.948   4.203
72787W        W44316  29.363  44.575   2.648
72788W        W44317  34.370  36.503   0.857
72789W        W44318   9.709  37.543  14.245
72790W        W44319   1.794  20.259   0.265
72791W        W44320  32.912   3.706  11.022
72792W        W44321  14.253  20.571  14.552
72793W        W44322  24.604   4.618  13.860
72794W        W44323   5.944  33.165  14.003
72795W        W44324  31.420  24.572   2.622
72796W        W44325  34.178  25.635   1.339
72797W        W44326  12.350  34.102   2.324
72798W        W44327  18.806  14.454   0.916
72799W        W44328  42.076   1.194  12.029
72800W        W44329  27.432  13.786  10.882
72801W        W44330  27.958   5.993   3.135
72802W        W44331  44.294  28.302   1.532
72803W        W44332   3.338   6.327   0.511
72804W        W44333  21.828  29.113   4.757
72805W        W44334  14.007  28.756   1.749
72806W        W44335  25.078  28.492  14.075
72807W        W44336  25.684  41.716  11.577
72808W        W44337  39.052  28.499   4.130
72809W        W44338   2.191   6.230   3.198
72810W        W44339   5.512   9.019  11.060
72811W        W44340  33.111   7.164   4.044
72812W        W44341  42.535  22.994  11.078
72813W        W44342  22.570  15.638   4.714
72814W        W44343  35.826  15.749   3.733
72815W        W44344   8.686  22.156  14.586
72816W        W44345  44.034  28.638  10.697
72817W        W44346  10.434  26.144   0.671
72818W        W44347   1.383   5.560  13.143
72819W        W44348  28.574  20.476   0.306
72820W        W44349  23.903  22.616  12.789
72821W        W44350   7.765  43.972   3.408
72822W        W44351  35.865  30.419  13.795
72823W        W44352  32.522  23.454  14.560
72824W        W44353   6.958  13.652   3.540
72825W        W44354  18.981  29.652  11.232
72826W        W44355  38.937   1.555   1.814
72827W        W44356   6.160   7.225  14.713
72828W        W44357   1.239  35.835   3.668
72829W        W44358  41.952  17.143  12.082
72830W        W44359   1.450  35.470   0.283
72831W        W44360  40.397   2.292  14.845
72832W        W44361  35.816  27.711   3.258
72833W        W44362  39.977  27.917   0.857
72834W        W44363   1.832  35.088   2.275
72835W        W44364   9.703  12.240   4.630
72836W        W44365  18.614  22.221   1.476
72837W        W44366  17.855  33.464  12.570
72838W        W44367  44.550  27.557  13.841
72839W        W44368  26.371   4.196  13.230
72840W        W44369  23.780  34.401  13.816
72841W        W44370  38.113  20.522   1.447
72842W        W44371   3.871  14.683  11.056
72843W        W44372   5.031   9.515   2.506
72844W        W44373   5.896  43.864   2.829
72845W        W44374  34.844  32.923  11.414
72846W        W44375  23.536   2.178  14.579
72847W        W44376   6.752   1.852  11.312
72848W        W44377  13.916  23.458   4.629
72849W        W44378  21.525  27.998  13.035
72850W        W44379  18.318  35.418   3.301
72851W        W44380  17.775  11.734  12.088
72852W        W44381  13.570  29.460  11.532
72853W        W44382  33.184  25.625  11.686
72854W        W44383   9.173  28.599   0.693
72855W        W44384   1.098  13.599   3.986
72856W        W44385   8.808  34.355  10.117
72857W        W44386   2.377  30.275   2.893
72858W        W44387  17.301  22.600  13.487
72859W        W44388   0.762  27.030  11.610
72860W        W44389   5.144  15.634  13.375
72861W        W44390   8.510  43.228   4.018
72862W        W44391   5.896  38.008   3.660
72863W        W44392  39.882  25.885  14.360
72864W        W44393   3.668  17.043   2.155
72865W        W44394  38.640  41.451   4.198
72866W        W44395  34.048  31.050  13.001
72867W        W44396   0.683  35.641   5.461
72868W        W44397  11.248   4.135  12.982
72869W        W44398  28.466  42.579   0.704
72870W        W44399   3.824  39.983   3.839
72871W        W44400  29.924  43.087   0.933
72872W        W44401   4.222   3.395   1.603
72873W        W44402  43.251   8.154  10.849
72874W        W44403   5.088  31.524   2.196
72875W        W44404  41.793   3.823   3.664
72876W        W44405  31.007  31.853  10.752
72877W        W44406  44.234  19.905   2.834
72878W        W44407   3.411  14.371   1.745
72879W        W44408  35.561  29.301   2.813
72880W        W44409  25.507  31.144  10.714
72881W        W44410  31.308   7.751  14.519
72882W        W44411   2.002  37.177  11.238
72883W        W44412  24.976  11.650  12.519
72884W        W44413  28.745  18.542   1.957
72885W        W44414  35.876  13.613  11.676
72886W        W44415   8.615  14.132  12.014
72887W        W44416   9.807  20.823  11.436
72888W        W44417  35.150  15.316   0.799
72889W        W44418  12.937   0.842   1.879
72890W        W44419  14.653  32.071   0.050
72891W        W44420   6.857   3.796  13.830
72892W        W44421  24.359   5.940  12.558
72893W        W44422   4.508  30.941  14.405
72894W        W44423  28.534   2.183  14.259
72895W        W44424  13.100  13.003  13.944
72896W        W44425  24.945  12.164   0.268
72897W        W44426  12.121  39.324  14.360
72898W        W44427  22.660  28.073   0.392
72899W        W44428  31.930  33.308  12.527
72900W        W44429   4.753  38.839   0.951
72901W        W44430   9.110  18.608  13.560
72902W        W44431  34.419  38.489   1.167
72903W        W44432   2.359  17.103   4.286
72904W        W44433   8.792  30.957   4.072
72905W        W44434  24.052  30.073  12.116
72906W        W44435  37.650  23.806  11.607
72907W        W44436  40.896  21.725   0.273
72908W        W44437   2.940  25.963  11.532
72909W        W44438  36.062  35.150   3.172
72910W        W44439   8.337  25.427   0.808
72911W        W44440  36.492   4.708   4.624
72912W        W44441   0.871   1.833  11.713
72913W        W44442  44.162  36.576   2.708
72914W        W44443  32.070   3.404  12.908
72915W        W44444  20.276  26.118  11.428
72916W        W44445   3.670  36.262   1.727
72917W        W44446   4.230  32.256  11.981
72918W        W44447  39.966  25.199   1.818
72919W        W44448  42.065  39.221   0.248
72920W        W44449  31.046  19.557   0.450
72921W        W44450  29.134  30.186   4.583
72922W        W44451  33.798  23.077  13.092
72923W        W44452   7.593  10.241   0.401
72924W        W44453  15.501  26.149  10.731
72925W        W44454  15.827   2.159  12.853
72926W        W44455  40.085  36.320   1.346
72927W        W44456  21.647  17.540  13.986
72928W        W44457  44.803   2.342  14.103
72929W        W44458  32.919  28.339  14.670
72930W        W44459  44.354   8.668   4.617
72931W        W44460  44.411  31.574   3.707
72932W        W44461   0.720   2.672  13.029
72933W        W44462  21.111   4.239  11.536
72934W        W44463  21.463  21.125   1.896
72935W        W44464   3.222  14.729   2.786
72936W        W44465   4.452  23.228  13.633
72937W        W44466  26.003   4.454  13.519
72938W        W44467  43.729  22.647   4.104
72939W        W44468  34.429  12.221   2.342
72940W        W44469  20.058  35.550   2.300
72941W        W44470  18.970  11.840   4.649
72942W        W44471  44.527   7.774  11.543
72943W        W44472  22.960   2.425   0.921
72944W        W44473  28.548   1.316   3.832
72945W        W44474  22.495  28.919   0.363
72946W        W44475   7.790  21.902  11.647
72947W        W44476  31.976  32.090   2.031
72948W        W44477  30.367  19.236  11.208
72949W        W44478  44.608  34.820  11.901
72950W        W44479  16.398  27.602  14.126
72951W        W44480  32.724  32.238   2.079
72952W        W44481   8.657   1.904  10.782
72953W        W44482  24.590  13.343  13.737
72954W        W44483  18.557  29.554   0.785
72955W        W44484  28.726  14.870  12.831
72956W        W44485  22.457  17.234   2.516
72957W        W44486   5.716  43.269   4.274
72958W        W44487  15.991   3.103   3.031
72959W        W44488   7.929  36.849  12.507
72960W        W44489   6.367  29.761  13.486
72961W        W44490   5.942  22.634  11.169
72962W        W44491  30.089  15.246  12.476
72963W        W44492  28.682  17.465   4.056
72964W        W44493  25.358  31.577   1.678
72965W        W44494   3.388  27.667   2.151
72966W        W44495   8.684   5.389   3.213
72967W        W44496  33.002  29.947   0.828
72968W        W44497  13.375   4.258  10.731
72969W        W44498  11.853  25.189  13.752
72970W        W44499   4.390  43.925   2.463
72971W        W44500  27.168  35.569   3.656
72972W        W44501  43.980  19.790  13.520
72973W        W44502  28.780  12.779   3.086
72974W        W44503  22.070  37.362   5.224
72975W        W44504   6.995   7.198  13.484
72976W        W44505  20.521  10.630  10.637
72977W        W44506  22.147  37.424   2.011
72978W        W44507  15.055  40.371   2.217
72979W        W44508  36.465   9.478  12.240
72980W        W44509  27.607  30.556  13.960
72981W        W44510  19.174  20.198  13.349
72982W        W44511  13.625  16.728  14.619
72983W        W44512  38.559  25.528   1.673
72984W        W44513  14.516  33.112  12.137
72985W        W44514  29.972   6.780   2.435
72986W        W44515  35.874  23.334   1.695
72987W        W44516  11.719  15.123   0.413
72988W        W44517  15.688  28.127   0.996
72989W        W44518  21.573  31.150   2.858
72990W        W44519  35.464  30.946   1.480
72991W        W44520  19.997   6.286   0.916
72992W        W44521  15.497  18.467  12.581
72993W        W44522  17.616  33.097   3.645
72994W        W44523   7.825  24.109   4.098
72995W        W44524   4.631  40.286  12.690
72996W        W44525  31.715  18.705  12.192
72997W        W44526   1.091  27.524   0.335
72998W        W44527   7.944  24.619   2.162
72999W        W44528  39.072  22.430  11.062
73000W        W44529   5.345   6.015  14.973
73001W        W44530  44.258  37.883   0.896
73002W        W44531   6.837   2.995  13.394
73003W        W44532   3.599  13.309  11.152
73004W        W44533  31.171   0.448  10.695
73005W        W44534  19.316  34.419   2.372
73006W        W44535   0.476  11.150   0.388
73007W        W44536  13.994   7.689   4.359
73008W        W44537  24.764   0.827  11.393
73009W        W44538   4.995  25.033   3.267
73010W        W44539   7.362  16.088  11.161
73011W        W44540  37.610  24.998  11.826
73012W        W44541   3.437  38.393  13.985
73013W        W44542  40.974  31.838   0.072
73014W        W44543  18.171  33.642   1.544
73015W        W44544  44.403  42.330  12.953
73016W        W44545  25.985   9.920   3.314
73017W        W44546   1.799  42.823  14.943
73018W        W44547  18.419  31.529  10.077
73019W        W44548   9.362  27.135  12.300
73020W        W44549  35.820   1.733   0.098
73021W        W44550   6.336  43.027   4.127
73022W        W44551  26.235   5.831  10.984
73023W        W44552   7.373  17.298  11.617
73024W        W44553   6.329  37.149   1.335
73025W        W44554  32.921  21.611   4.533
73026W        W44555  24.739  28.085   4.129
73027W        W44556  12.892  40.282   4.194
73028W        W44557  41.316  16.252   1.978
73029W        W44558  38.374  43.314  13.562
73030W        W44559  23.619   4.789   1.320
73031W        W44560  32.073   8.329  11.524
73032W        W44561  40.404   1.653  13.790
73033W        W44562  25.957  19.698   3.753
73034W        W44563  16.169  14.740   3.045
73035W        W44564  26.062  44.853  13.027
73036W        W44565  18.724  16.714   2.710
73037W        W44566  32.468  38.085   3.801
73038W        W44567  17.731  43.341  12.852
73039W        W44568  20.123   1.335  12.777
73040W        W44569  18.684  25.539   3.890
73041W        W44570  19.077  32.090   3.083
73042W        W44571  35.605   9.591   4.155
73043W        W44572  13.158  42.594   3.521
73044W        W44573  16.199  31.463   4.062
73045W        W44574  40.786  43.485   3.872
73046W        W44575  34.185  41.209  14.323
73047W        W44576   2.308  14.374  14.019
73048W        W44577  38.355  16.726   0.705
73049W        W44578  38.360  40.430  11.525
73050W        W44579  23.068  17.301  11.315
73051W        W44580  31.618   4.845   3.894
73052W        W44581  44.562  34.364  14.927
73053W        W44582  44.688  32.226  13.509
73054W        W44583   3.291  16.123  14.418
73055W        W44584  10.412  41.753  12.987
73056W        W44585  19.528   7.307   0.414
73057W        W44586  33.063  15.862  13.020
73058W        W44587   2.310   9.280  13.802
73059W        W44588  13.240  27.725   3.057
73060W        W44589  41.513  42.626   1.848
73061W        W44590  44.077  13.562  14.087
73062W        W44591  44.711  21.338   4.644
73063W        W44592  12.252  26.440  12.399
73064W        W44593  30.342   8.630  11.177
73065W        W44594   3.956  14.857   4.056
73066W        W44595   7.290  28.302   2.199
73067W        W44596  37.596   5.928  11.167
73068W        W44597  24.036  17.592  13.115
73069W        W44598  11.137  28.115  11.705
73070W        W44599  39.599  30.040  11.557
73071W        W44600   4.755  30.185  14.869
73072W        W44601  39.343  18.777   3.401
73073W        W44602  27.394   3.850   3.850
73074W        W44603  13.222  21.388  10.204
73075W        W44604  31.144  16.079   2.656
73076W        W44605  41.914  31.706   2.120
73077W        W44606  24.805  39.453   3.740
73078W        W44607   4.253  12.407  11.160
73079W        W44608  44.827  29.463  13.380
73080W        W44609   9.750  10.199   3.164
73081W        W44610   3.807  13.853  10.536
73082W        W44611  36.305   7.626   4.652
73083W        W44612  36.511  34.164  11.633
73084W        W44613  12.893  29.124  12.508
73085W        W44614   1.051  22.648   3.603
73086W        W44615   9.714  20.750   3.731
73087W        W44616  25.251  39.804  14.287
73088W        W44617   9.697  24.957  14.942
73089W        W44618  30.579  40.600   4.030
73090W        W44619  35.394  11.281  10.740
73091W        W44620   9.391  31.525  13.046
73092W        W44621   7.652  17.866  13.330
73093W        W44622  24.666  33.151  10.726
73094W        W44623   5.985  42.182  10.420
73095W        W44624  44.360   6.170  14.273
73096W        W44625  12.729  35.848  12.502
73097W        W44626  18.513  27.404  11.907
73098W        W44627  22.693  22.756   2.695
73099W        W44628   0.879  44.273  13.945
73100W        W44629  17.747  11.377   2.704
73101W        W44630  17.746   1.216   3.389
73102W        W44631  41.428   4.401  12.411
73103W        W44632  37.034  22.551   1.882
73104W        W44633  25.113   9.479   1.670
73105W        W44634  26.120  36.509  14.737
73106W        W44635  39.952  34.927  11.730
73107W        W44636  37.165  26.896  12.891
73108W        W44637   5.485  29.967   1.872
73109W        W44638  41.791   2.717  13.891
73110W        W44639   4.588  43.925   3.262
73111W        W44640   9.383  27.284   3.017
73112W        W44641  10.293  34.313  14.566
73113W        W44642   9.831  30.758  13.537
73114W        W44643  10.521  27.748   0.227
73115W        W44644  26.632  41.911  12.486
73116W        W44645  43.334  13.267  12.328
73117W        W44646  31.288  35.411   2.357
73118W        W44647  40.493  35.998   2.450
73119W        W44648  28.018   6.935   2.245
73120W        W44649   2.395  16.756   3.913
73121W        W44650   6.327  21.728  11.966
73122W        W44651  33.105  18.217   1.689
73123W        W44652  28.951   0.732   2.700
73124W        W44653   7.476   8.582  14.902
73125W        W44654  27.014  20.764  11.520
73126W        W44655  33.554  28.824  12.696
73127W        W44656  13.457  16.830   2.269
73128W        W44657  18.548  43.960   0.103
73129W        W44658   5.208  39.368  14.670
73130W        W44659  38.489  10.718   3.049
73131W        W44660   8.283  41.059  12.279
73132W        W44661  41.001  33.317  11.964
73133W        W44662   1.243  40.809   1.704
73134W        W44663  33.479  17.654  13.989
73135W        W44664   1.212  20.458  13.042
73136W        W44665  37.368   5.706  14.391
73137W        W44666  24.633   0.659  13.164
73138W        W44667  18.611  14.907  12.464
73139W        W44668  44.001   3.250   1.251
73140W        W44669  42.504  25.232  12.097
73141W        W44670  20.963  29.005  12.018
73142W        W44671  27.780  13.689  13.459
73143W        W44672   9.324  22.229   2.827
73144W        W44673  18.700  35.349   1.115
73145W        W44674  42.257  35.801  11.911
73146W        W44675  39.286  19.587   0.439
73147W        W44676  42.655  11.701   4.650
73148W        W44677  26.575   3.023   3.055
73149W        W44678   2.460   0.895  10.794
73150W        W44679  21.453  26.108   2.704
73151W        W44680  26.668  25.727  11.099
73152W        W44681  21.128  12.303  13.957
73153W        W44682  22.137  43.062  12.194
73154W        W44683  24.258  28.573   2.773
73155W        W44684  10.353   9.378   3.201
73156W        W44685  25.015  31.880  14.743
73157W        W44686  32.929  14.841   1.649
73158W        W44687  39.836  38.697  13.447
73159W        W44688  22.260  21.481  11.999
73160W        W44689  24.754  36.444  13.094
73161W        W44690  23.222  35.345   1.156
73162W        W44691  13.367  14.276  14.000
73163W        W44692  21.966  17.315   0.723
73164W        W44693  37.634  25.228  13.518
73165W        W44694   3.588  21.799   1.034
73166W        W44695  23.085  35.390   2.181
73167W        W44696  33.169  27.180   3.603
73168W        W44697  43.804  35.854  10.629
73169W        W44698  30.195   3.452   4.546
73170W        W44699   0.818  10.682  10.753
73171W        W44700  18.731  18.307  11.681
73172W        W44701  23.617   1.333  13.069
73173W        W44702  40.162   2.698  13.776
73174W        W44703  16.294  12.470  11.113
73175W        W44704  16.139  16.809   2.919
73176W        W44705  27.950  13.050  13.598
73177W        W44706  19.490   1.417  14.382
73178W        W44707  30.990   9.131  12.644
73179W        W44708  41.096  20.707   4.190
73180W        W44709  34.867  36.970  13.171
73181W        W44710  22.211  41.003   1.851
73182W        W44711  19.575  12.330   3.651
73183W        W44712   2.878  22.634   0.842
73184W        W44713  18.789  36.076  13.686
73185W        W44714  24.573  37.199  11.644
73186W        W44715  43.547  31.871   1.378
73187W        W44716  29.733  44.974   3.897
73188W        W44717  10.715   2.504  11.506
73189W        W44718  32.303  10.353  12.927
73190W        W44719   0.206  40.668   3.268
73191W        W44720   8.757  29.357   1.068
73192W        W44721  29.047  17.523  13.619
73193W        W44722   6.013  15.704   4.876
73194W        W44723  32.789  17.689   2.282
73195W        W44724  18.817  42.061   1.867
73196W        W44725  11.484  24.018  14.783
73197W        W44726  33.427  18.857  12.502
73198W        W44727  23.066  10.660  13.240
73199W        W44728  29.899   0.282   2.093
73200W        W44729  36.302  24.182  11.404
73201W        W44730  37.479  35.915  13.090
73202W        W44731  12.969  16.662   4.867
73203W        W44732   4.922  17.024  11.191
73204W        W44733  27.463  17.162  11.125
73205W        W44734  29.103   9.270   2.711
73206W        W44735  32.166   5.661  11.278
73207W        W44736  30.071  31.628   0.120
73208W        W44737   6.419  12.579   0.429
73209W        W44738  32.396  21.270   4.324
73210W        W44739  19.678  23.015  11.103
73211W        W44740   7.100  16.184  14.409
73212W        W44741  38.463   9.333  14.881
73213W        W44742  25.444  34.194  14.794
73214W        W44743  38.750  11.284  11.932
73215W        W44744   6.945  26.179  12.101
73216W        W44745   4.001  22.176   3.340
73217W        W44746  29.191  32.497  12.018
73218W        W44747  12.258  38.628   1.441
73219W        W44748  30.799   0.426  11.687
73220W        W44749  37.056   2.892   3.127
73221W        W44750  36.011  14.086   4.084
73222W        W44751  21.246  28.025   3.957
73223W        W44752   1.668  20.599  11.541
73224W        W44753  14.356  44.767   0.409
73225W        W44754  16.194   3.507  10.486
73226W        W44755  14.600  11.018   1.475
73227W        W44756  24.531   6.132   3.722
73228W        W44757   2.090  42.234  11.913
73229W        W44758   4.802  39.021  12.995
73230W        W44759  14.704  44.272   1.214
73231W        W44760  41.277   4.466   3.796
73232W        W44761  36.987  43.899  11.553
73233W        W44762  37.798  10.045  10.357
73234W        W44763  23.539   8.508  12.393
73235W        W44764  18.321  27.559  10.325
73236W        W44765  17.279  44.072   2.015
73237W        W44766  32.102  20.511   4.801
73238W        W44767  19.958  24.027  14.466
73239W        W44768  28.558   8.607  13.063
73240W        W44769   2.907   0.228   0.632
73241W        W44770  44.439  40.504   5.065
73242W        W44771  37.425  25.822  11.683
73243W        W44772  15.071  36.281  12.705
73244W        W44773  12.168  15.410   0.324
73245W        W44774  26.149  34.031   1.371
73246W        W44775  24.357  42.232   0.489
73247W        W44776  43.512  11.073  13.611
73248W        W44777  39.014  41.697  11.576
73249W        W44778  16.325  28.101  14.248
73250W        W44779  40.893  16.750   1.368
73251W        W44780   4.159  38.304   0.481
73252W        W44781   3.927  13.369   1.197
73253W        W44782  13.596   5.275  12.039
73254W        W44783  30.236  40.913  13.396
73255W        W44784  27.355  23.126   4.231
73256W        W44785  17.669  20.174  13.536
73257W        W44786  24.001  14.165  12.983
73258W        W44787  26.542  26.248   2.335
73259W        W44788  43.492  32.165  12.454
73260W        W44789  16.314  23.252  12.990
73261W        W44790  18.074  14.930  14.062
73262W        W44791  16.069   9.706  13.429
73263W        W44792   6.463  25.681   3.525
73264W        W44793  22.591   0.859  10.429
73265W        W44794  30.993  31.339   3.179
73266W        W44795   6.145  15.724  11.138
73267W        W44796  21.767   7.895  12.083
73268W        W44797  17.539   0.471  13.486
73269W        W44798  18.596  36.097   2.813
73270W        W44799  16.711  43.409  13.804
73271W        W44800  26.103   8.254   4.689
73272W        W44801  35.555  18.130   4.075
73273W        W44802  39.807  15.749  13.705
73274W        W44803  31.499   9.716   4.600
73275W        W44804   6.673  12.435   2.397
73276W        W44805  27.913   6.398   4.523
73277W        W44806   8.949  28.968   0.116
73278W        W44807   7.814  19.708  13.988
73279W        W44808   9.354   8.737   2.823
73280W        W44809  44.718   3.898  12.043
73281W        W44810   9.199  23.086   2.810
73282W        W44811  27.387  18.649  11.217
73283W        W44812  14.690  32.974   0.025
73284W        W44813  43.069  19.615  14.710
73285W        W44814  12.957  33.602  14.447
73286W        W44815   1.539  37.950  13.932
73287W        W44816   2.001  28.731   2.269
73288W        W44817  29.623  44.048   0.006
73289W        W44818  27.702   1.797  14.410
73290W        W44819   0.272  35.854  11.669
73291W        W44820  25.533   0.016   3.165
73292W        W44821  22.482   2.761   2.776
73293W        W44822   1.527  34.162  11.137
73294W        W44823  12.002   1.376   4.759
73295W        W44824  33.406  36.539   3.139
73296W        W44825  34.294  31.211   4.042
73297W        W44826  14.812  28.918  11.697
73298W        W44827  18.294  10.944  10.822
73299W        W44828  42.338  14.382   0.993
73300W        W44829  12.869  41.265   0.426
73301W        W44830  10.081  20.528   1.418
73302W        W44831  17.692  16.222  10.622
73303W        W44832  11.163  37.612   3.549
73304W        W44833  10.143  20.729  13.703
73305W        W44834  37.604  38.001   1.655
73306W        W44835   5.531  40.960   2.820
73307W        W44836  34.511  41.989   1.020
73308W        W44837  31.942   2.931  14.556
73309W        W44838  43.938  43.069  11.062
73310W        W44839  34.645  41.094   2.558
73311W        W44840  41.456  17.015  14.480
73312W        W44841   5.165  13.466  14.423
73313W        W44842   3.686  44.823   1.836
73314W        W44843  29.237  23.006  12.394
73315W        W44844  20.177  39.310  14.047
73316W        W44845  32.964   5.678  12.993
73317W        W44846  21.524  19.570  14.516
73318W        W44847  31.682  43.882  12.205
73319W        W44848   2.443  29.965   1.187
73320W        W44849   4.867  41.839  14.749
73321W        W44850  12.225  19.000  13.504
73322W        W44851   5.469  37.557   1.741
73323W        W44852  41.942   5.860   0.488
73324W        W44853  35.729  15.409  11.206
73325W        W44854  38.985   2.663   2.666
73326W        W44855  44.668   3.627  14.022
73327W        W44856  44.405  42.771  11.121
73328W        W44857  17.049  34.893   2.320
73329W        W44858  20.103   1.867  12.045
73330W        W44859  16.690   7.767   1.430
73331W        W44860  32.805  44.707  12.381
73332W        W44861  38.903   7.386  14.838
73333W        W44862  17.577   8.942   1.749
73334W        W44863  18.957   0.822   2.538
73335W        W44864  17.832   4.874   2.849
73336W        W44865  30.434  15.502   5.311
73337W        W44866   0.041  31.686  11.755
73338W        W44867   5.209  31.122  11.669
73339W        W44868   2.744  41.012   3.846
73340W        W44869   9.076  33.925  14.290
73341W        W44870  25.604  44.016   0.289
73342W        W44871   7.301  15.341   1.251
73343W        W44872  33.547  14.208   4.144
73344W        W44873  13.073   2.468   4.998
73345W        W44874   0.315  41.903   1.423
73346W        W44875  33.486   1.646   1.242
73347W        W44876  34.482  35.887  13.167
73348W        W44877  10.702   1.487  10.276
73349W        W44878  17.173  38.867   4.215
73350W        W44879  30.906  18.566   1.364
73351W        W44880  18.607  35.648  13.483
73352W        W44881  12.239  42.703   1.839
73353W        W44882  11.203   4.507   3.284
73354W        W44883  25.284   5.888   2.308
73355W        W44884   7.589  35.926   3.566
73356W        W44885  13.197   2.296   0.998
73357W        W44886  17.319  21.046  12.562
73358W        W44887  27.327  36.134   3.774
73359W        W44888  24.021  21.530   4.343
73360W        W44889  17.258  14.513  14.406
73361W        W44890  34.440  32.369   2.425
73362W        W44891  19.901   0.886  11.328
73363W        W44892  43.377  38.628   2.369
73364W        W44893  16.568  31.031  12.516
73365W        W44894   1.291  44.834  14.564
73366W        W44895  27.422  30.430  11.938
73367W        W44896   9.772  37.875   1.202
73368W        W44897   1.368  31.560   3.402
73369W        W44898  11.643   6.894  12.299
73370W        W44899  28.041  23.008  14.714
73371W        W44900  16.247  34.674   0.003
73372W        W44901  27.442  30.932   1.001
73373W        W44902  32.513  34.477  13.181
73374W        W44903  35.649  32.987   3.683
73375W        W44904  33.629  39.880  14.387
73376W        W44905  38.213  10.960   3.497
73377W        W44906  33.001  24.033  10.689
73378W        W44907  34.578  33.055   1.744
73379W        W44908  16.630  25.663  12.950
73380W        W44909  11.706   7.087  11.831
73381W        W44910  13.742  33.612   4.788
73382W        W44911  42.252   0.984   1.940
73383W        W44912   5.119   0.945  14.324
73384W        W44913  27.668  15.511   0.846
73385W        W44914  41.368  18.252   2.306
73386W        W44915   7.924  36.562   3.721
73387W        W44916  38.235  24.657  12.451
73388W        W44917  24.411  32.937   3.173
73389W        W44918  31.834  10.716  11.209
73390W        W44919   2.866   6.665  11.584
73391W        W44920  31.516  20.483   1.034
73392W        W44921  44.630   0.892  11.641
73393W        W44922   1.696   9.118   1.529
73394W        W44923  29.071  16.502  13.972
73395W        W44924  17.032  27.758   2.179
73396W        W44925   0.193  28.949   4.093
73397W        W44926  10.368  26.762   3.323
73398W        W44927  38.597  35.924  14.286
73399W        W44928  11.593   6.353  13.571
73400W        W44929  12.115  43.632   1.346
73401W        W44930  21.688  22.118   3.331
73402W        W44931  35.741   5.912  13.509
73403W        W44932  11.395  29.397   2.245
73404W        W44933  41.298   3.952  13.205
73405W        W44934  33.592   0.295  14.943
73406W        W44935   5.035  26.393   3.230
73407W        W44936   7.409  26.940  14.504
73408W        W44937  21.611  33.620  13.037
73409W        W44938  29.392  23.574  11.598
73410W        W44939  30.809  10.271   3.128
73411W        W44940   1.916   2.283  12.495
73412W        W44941  13.320  11.588   3.650
73413W        W44942   8.843  28.992   1.424
73414W        W44943  25.696   6.760   4.891
73415W        W44944  38.907   0.196   1.357
73416W        W44945  33.837   5.306  12.898
73417W        W44946  33.125  16.356  12.538
73418W        W44947  27.447  44.974  10.660
73419W        W44948   1.664  42.158  11.600
73420W        W44949   3.754  40.840   3.767
73421W        W44950  18.865  19.644   5.101
73422W        W44951  10.452   3.004  11.091
73423W        W44952   0.341   4.431  13.111
73424W        W44953  12.979  31.714   3.302
73425W        W44954  24.718  44.865  14.854
73426W        W44955  28.376  43.305  12.098
73427W        W44956  35.809  18.832  11.864
73428W        W44957  26.561  18.691   0.708
73429W        W44958  29.120  29.286   4.959
73430W        W44959  23.869  12.275  12.782
73431W        W44960   1.432  36.858   3.597
73432W        W44961  33.334  15.674   4.963
73433W        W44962   5.294  29.927  10.716
73434W        W44963  19.513  43.460   4.049
73435W        W44964   4.359  37.374  12.497
73436W        W44965  10.796  39.229  13.963
73437W        W44966  32.749  20.698   3.534
73438W        W44967  20.038   4.774  12.504
73439W        W44968  30.116  16.116   1.382
73440W        W44969  24.807  20.753  12.076
73441W        W44970  24.488   0.481   1.895
73442W        W44971   7.875  39.743  10.577
73443W        W44972  36.472   2.814   1.889
73444W        W44973  28.626  12.875  11.504
73445W        W44974  37.994  28.287  14.283
73446W        W44975  20.557  25.244   4.581
73447W        W44976  41.242   5.481   0.915
73448W        W44977  40.316   6.533  12.382
73449W        W44978  12.265   0.391   1.061
73450W        W44979  35.842   1.912   3.567
73451W        W44980  18.329  40.455   2.269
73452W        W44981  30.602  19.589   4.867
73453W        W44982  30.128   0.511  13.369
73454W        W44983   5.662  39.489   3.842
73455W        W44984  12.952  28.203  12.605
73456W        W44985  39.592  14.160  14.682
73457W        W44986  37.418  33.677   3.115
73458W        W44987  28.241  14.125   3.141
73459W        W44988  16.682  13.263  13.307
73460W        W44989  23.028  37.431  13.282
73461W        W44990  43.032   5.735  10.450
73462W        W44991  13.772   9.764   0.048
73463W        W44992  40.774  24.270  12.895
73464W        W44993  15.793  22.256   4.579
73465W        W44994  29.603  37.854   2.768
73466W        W44995  42.088  41.055   1.077
73467W        W44996  15.320  41.466  10.855
73468W        W44997   8.894  20.910  12.530
73469W        W44998   6.459  35.674  14.518
73470W        W44999  40.517  36.564   4.266
73471W        W45000  13.091   2.248   2.483
73472W        W45001  32.270  10.593   1.412
73473W        W45002  22.655  32.299  13.844
73474W        W45003  42.718   5.386  10.709
73475W        W45004  17.924  25.134  13.363
73476W        W45005  19.737   9.191   0.479
73477W        W45006  40.050  27.071   4.731
73478W        W45007  33.218  19.791   3.887
73479W        W45008  11.669  22.989  12.890
73480W        W45009  20.607  38.955  14.283
73481W        W45010   8.366  40.709  11.892
73482W        W45011  22.285   9.586  13.404
73483W        W45012   0.686  35.858   4.191
73484W        W45013  35.646  35.544   0.402
73485W        W45014  26.965  30.177   0.911
73486W        W45015  26.134  17.715   1.730
73487W        W45016  24.764  31.999   0.468
73488W        W45017  33.856  10.159  14.151
73489W        W45018   9.161   4.060  14.517
73490W        W45019  18.036  38.480  11.976
73491W        W45020   8.967  23.257  13.899
73492W        W45021  22.255  41.438   4.730
73493W        W45022  42.764  35.923  11.946
73494W        W45023  18.314  16.635  12.415
73495W        W45024  21.984   8.381  11.879
73496W        W45025  30.046  43.833  12.974
73497W        W45026   6.483  33.801  11.438
73498W        W45027  34.520  28.303   4.503
73499W        W45028  37.491  12.869  14.408
73500W        W45029   9.280  37.586   1.436
73501W        W45030  44.375  25.793   2.396
73502W        W45031  18.649  44.268  11.942
73503W        W45032  31.025  34.858  11.989
73504W        W45033  25.638  15.776  12.018
73505W        W45034  13.740  43.772   3.323
73506W        W45035  20.510  38.901  12.096
73507W        W45036   7.907  14.155  11.559
73508W        W45037  36.653  44.021   0.781
73509W        W45038  13.380   6.529   4.932
73510W        W45039  23.069  36.570   3.148
73511W        W45040  14.266   2.493   0.346
73512W        W45041  17.111  30.221   3.268
73513W        W45042  22.463  10.413   4.130
73514W        W45043   4.348  40.276   2.842
73515W        W45044  35.129   2.718   0.788
73516W        W45045  39.617  27.372   3.288
73517W        W45046  41.423  28.948   4.148
73518W        W45047  38.992  23.204   2.770
73519W        W45048   9.341  28.860  11.112
73520W        W45049  32.573  40.152  14.077
73521W        W45050  42.342   4.422  11.946
73522W        W45051  44.361  41.593   0.591
73523W        W45052  34.875  37.395   1.023
73524W        W45053  12.898   2.424   0.500
73525W        W45054  17.834  29.989   1.266
73526W        W45055  11.340  32.199  12.978
73527W        W45056  17.107  38.975  10.115
73528W        W45057   1.268   8.674  14.473
73529W        W45058  28.895  37.382  13.449
73530W        W45059  19.513  28.700   2.419
73531W        W45060  29.621  13.657   4.217
73532W        W45061   9.912  23.773   4.546
73533W        W45062  24.182   6.048  14.404
73534W        W45063  12.231  43.308   2.845
73535W        W45064  13.818  12.298   2.127
73536W        W45065  12.837  43.465  14.032
73537W        W45066  28.074  27.389  11.095
73538W        W45067  44.384  26.690  10.627
73539W        W45068  20.175  18.312  11.129
73540W        W45069  13.187  22.342  10.233
73541W        W45070   1.442  20.964  14.808
73542W        W45071  41.230   0.869   1.384
73543W        W45072   4.989   1.482  11.531
73544W        W45073  24.090  19.276  14.380
73545W        W45074  33.122  28.891   0.852
73546W        W45075   9.857  14.792   3.756
73547W        W45076   4.633  38.401   1.314
73548W        W45077  32.335  41.969  12.594
73549W        W45078  15.456  37.772  11.737
73550W        W45079   1.559  18.538  11.414
73551W        W45080  38.396  42.778   2.031
73552W        W45081  33.857   7.244  12.082
73553W        W45082  15.742  12.646  13.968
73554W        W45083   9.168  35.613  13.939
73555W        W45084  30.945  11.286   3.881
73556W        W45085  31.872  35.546   4.181
73557W        W45086  10.127  29.287   1.831
73558W        W45087  40.835  43.208   1.431
73559W        W45088  26.513  19.118  14.750
73560W        W45089  42.462  43.778  14.349
73561W        W45090   2.961  34.678  12.830
73562W        W45091  33.158  36.303   1.905
73563W        W45092   7.789   3.557   3.205
73564W        W45093  28.943  29.026   4.416
73565W        W45094  29.095  20.813  11.547
73566W        W45095  39.923  39.257  13.393
73567W        W45096  36.780  19.932   4.458
73568W        W45097   6.132  32.674  12.513
73569W        W45098  32.021  43.681   1.235
73570W        W45099  33.575  37.608   4.581
73571W        W45100  10.736  12.979   4.695
73572W        W45101   2.354   2.740  13.111
73573W        W45102  40.537   0.737  14.256
73574W        W45103  28.060  21.695   2.145
73575W        W45104  33.599   5.436  12.013
73576W        W45105  25.347  34.298  11.002
73577W        W45106  26.961  40.487   4.766
73578W        W45107  39.426  20.035   1.758
73579W        W45108  20.657  18.724   1.760
73580W        W45109  22.820  44.330   1.322
73581W        W45110   5.364  30.743   2.808
73582W        W45111  28.617   2.405  14.731
73583W        W45112  42.247  28.601  13.481
73584W        W45113   4.972  22.315  12.057
73585W        W45114  25.728  20.934  12.071
73586W        W45115   7.959  10.165   1.067
73587W        W45116  43.017  26.043   3.286
73588W        W45117  42.895  32.927  10.190
73589W        W45118  40.009  19.989   3.908
73590W        W45119  44.290   4.362  13.933
73591W        W45120  23.917  42.420   2.343
73592W        W45121  12.699  30.536   2.634
73593W        W45122   5.397  43.051   0.910
73594W        W45123   5.744  14.187   2.237
73595W        W45124  20.978  39.058   9.888
73596W        W45125  32.069  31.507  13.142
73597W        W45126  39.373   4.950  13.103
73598W        W45127  10.330  33.960   3.776
73599W        W45128  42.961  34.467  14.061
73600W        W45129  41.920   2.219   3.241
73601W        W45130  26.103  30.651   3.302
73602W        W45131  11.183  19.341   3.742
73603W        W45132   7.223  21.586  14.869
73604W        W45133  34.872  44.753   4.460
73605W        W45134   9.753  34.592  12.372
73606W        W45135  27.251   6.098   3.537
73607W        W45136  39.824   1.877  14.988
73608W        W45137  20.174  31.550  12.053
73609W        W45138  11.536  25.601  13.625
73610W        W45139  12.804  31.959  11.103
73611W        W45140   2.833  27.638  13.437
73612W        W45141  11.586  14.809  14.506
73613W        W45142   0.066  19.792  11.854
73614W        W45143   3.468  32.903   3.184
73615W        W45144  40.982   2.722   1.333
73616W        W45145   2.379  36.947   1.114
73617W        W45146  25.736  21.174   2.012
73618W        W45147  24.188   5.938  11.662
73619W        W45148  40.052  24.285   1.293
73620W        W45149  22.027  29.319   4.312
73621W        W45150  44.997  24.147  10.912
73622W        W45151  29.701  34.174  12.183
73623W        W45152   3.483  35.844   0.377
73624W        W45153  44.914  35.174   1.380
73625W        W45154   5.039  33.357  11.621
73626W        W45155  35.839  38.018  10.653
73627W        W45156   3.358   2.382   4.326
73628W        W45157  13.129   6.039  10.615
73629W        W45158   9.642  38.434   1.214
73630W        W45159  38.933  39.050   3.239
73631W        W45160  22.610   7.883   3.736
73632W        W45161  17.855   4.581   0.050
73633W        W45162  28.637  40.080   0.246
73634W        W45163  40.320  37.324   0.703
73635W        W45164   8.932   6.734   2.214
73636W        W45165  13.893  44.937   1.180
73637W        W45166   8.345  35.079   2.891
73638W        W45167  19.048  36.519  13.625
73639W        W45168  31.512  33.585   1.426
73640W        W45169  19.072  33.147   3.300
73641W        W45170  11.820  12.982   0.869
73642W        W45171  31.543  43.772   1.471
73643W        W45172  11.757  35.300   1.393
73644W        W45173  14.312  25.619  12.001
73645W        W45174   0.216  32.373   5.133
73646W        W45175  43.211   5.316  12.043
73647W        W45176  21.041  10.248  12.190
73648W        W45177  21.036  21.598   4.950
73649W        W45178  16.552  37.069  12.809
73650W        W45179  42.274  18.790  13.341
73651W        W45180  22.171  40.354   1.437
73652W        W45181  17.122   9.427   1.271
73653W        W45182  34.086  20.666   2.464
73654W        W45183   1.759  23.740   1.426
73655W        W45184  17.176   2.012  12.595
73656W        W45185  37.867  38.842   9.871
73657W        W45186   1.370  43.988  13.784
73658W        W45187  38.669  15.174  11.961
73659W        W45188   5.467   9.752  14.012
73660W        W45189  22.246  18.066  12.855
73661W        W45190  23.707  22.767  14.247
73662W        W45191  38.504  12.141   0.141
73663W        W45192   3.198  17.053   0.404
73664W        W45193   9.885  37.672  13.438
73665W        W45194   5.784   8.730  12.357
73666W        W45195   2.936  29.835  13.577
73667W        W45196  44.793  34.349   0.414
73668W        W45197   3.600  20.054  11.598
73669W        W45198  44.237  38.074   1.398
73670W        W45199  28.868  36.231  10.744
73671W        W45200  35.472  42.010  13.407
73672W        W45201  36.867  12.365   2.705
73673W        W45202   5.864  10.610   2.341
73674W        W45203  27.444  17.642  11.617
73675W        W45204  11.426  37.200  13.932
73676W        W45205  31.302   7.434  13.769
73677W        W45206   7.300  27.677   4.626
73678W        W45207  35.598   8.367  13.926
73679W        W45208  21.569   5.926  10.985
73680W        W45209  31.735   9.100   0.873
73681W        W45210  19.290   4.607   0.770
73682W        W45211  28.064   2.356   4.493
73683W        W45212   1.778   9.817   3.805
73684W        W45213  26.692  34.854  13.024
73685W        W45214  15.977  42.963  11.086
73686W        W45215  28.698  11.362  11.023
73687W        W45216  32.095  16.561  14.270
73688W        W45217  36.858  30.952  14.391
73689W        W45218  18.688  41.033  12.692
73690W        W45219   6.259  20.941  12.873
73691W        W45220   3.789  41.477   3.052
73692W        W45221  14.757   4.333  14.319
73693W        W45222  10.211  17.270  13.820
73694W        W45223   3.177  15.775  12.289
73695W        W45224   5.881   8.190  13.462
73696W        W45225  43.745   8.272  10.758
73697W        W45226  25.231  14.857   1.248
73698W        W45227  31.432  26.676  14.080
73699W        W45228  30.968  42.789  11.118
73700W        W45229  24.448   2.407  12.596
73701W        W45230  15.874   4.913   0.987
73702W        W45231  41.900  20.086   3.939
73703W        W45232  17.163  31.674  12.692
73704W        W45233  35.117  27.153  13.518
73705W        W45234  18.152   7.380   1.406
73706W        W45235  35.346  35.971   0.403
73707W        W45236  31.274  20.567   2.893
73708W        W45237  24.709  21.799   3.146
73709W        W45238   7.904  10.431   2.385
73710W        W45239  25.568  23.945  12.321
73711W        W45240  31.952   8.466  14.357
73712W        W45241  13.782  27.405   3.365
73713W        W45242  34.649  14.791   1.494
73714W        W45243   7.697   2.266   1.735
73715W        W45244   1.668   2.517  13.918
73716W        W45245  42.292  32.891   4.445
73717W        W45246  29.109  36.888  14.864
73718W        W45247  15.389  43.098   0.950
73719W        W45248  22.979  25.410  12.707
73720W        W45249   9.148   2.554  12.380
73721W        W45250  36.465  27.446  10.459
73722W        W45251  21.029  31.729   4.214
73723W        W45252   6.909  13.371  12.038
73724W        W45253  33.996  15.769  11.719
73725W        W45254  13.640  12.336  13.986
73726W        W45255   1.061  28.224  14.504
73727W        W45256  38.809  39.354   2.338
73728W        W45257  26.659  20.432   4.423
73729W        W45258   7.871  31.845  13.834
73730W        W45259  42.415   5.980   1.859
73731W        W45260  25.007  44.825   0.302
73732W        W45261  36.068  38.479   0.311
73733W        W45262  15.738   7.253   0.051
73734W        W45263  10.510  28.495   1.832
73735W        W45264   1.002  28.070  11.121
73736W        W45265  34.545   6.899  14.277
73737W        W45266   9.373  24.556   4.470
73738W        W45267  17.759  10.561   0.211
73739W        W45268  41.659   0.499  10.606
73740W        W45269   4.957  31.666   0.782
73741W        W45270  21.758   4.951   2.309
73742W        W45271  10.266   7.448   4.882
73743W        W45272  27.186  32.179   0.858
73744W        W45273  16.028   7.195   2.695
73745W        W45274  12.558  33.028  14.422
73746W        W45275  27.138  38.863  12.035
73747W        W45276  31.429  10.806  13.934
73748W        W45277   3.038  30.156  13.967
73749W        W45278  20.848  10.087   5.057
73750W        W45279  34.607   3.025   1.919
73751W        W45280  32.946  18.057  13.509
73752W        W45281   6.871  16.625  14.564
73753W        W45282  26.837  32.462  12.433
73754W        W45283  40.837  22.476   2.104
73755W        W45284  31.770  40.265   2.762
73756W        W45285  33.512  12.910  12.855
73757W        W45286  29.568  17.655  13.480
73758W        W45287  16.197  15.176   0.760
73759W        W45288  15.582  36.559  14.428
73760W        W45289  20.281  42.789  13.044
73761W        W45290  41.871  40.925  12.978
73762W        W45291  30.112  10.095   1.274
73763W        W45292  37.422  16.007   0.267
73764W        W45293  30.031  44.458  12.260
73765W        W45294   7.658  26.646  12.650
73766W        W45295  21.719   8.683  14.311
73767W        W45296  16.380  20.878   0.835
73768W        W45297  37.652  17.027   1.261
73769W        W45298  18.336  44.827  13.268
73770W        W45299  11.826  44.411   0.108
73771W        W45300  33.366  39.452  14.467
73772W        W45301  13.777  33.732   2.331
73773W        W45302  14.304  14.639  14.080
73774W        W45303  38.874   8.899  13.796
73775W        W45304  33.343  27.253  11.210
73776W        W45305  14.546   5.726   1.364
73777W        W45306  11.570  43.461  11.670
73778W        W45307  31.376  44.937  11.302
73779W        W45308   6.395  12.758  13.485
73780W        W45309  19.838   1.169   2.064
73781W        W45310  14.318  30.859   4.539
73782W        W45311   4.798  22.414   3.206
73783W        W45312  12.067  19.228   2.288
73784W        W45313  25.660  37.852   0.444
73785W        W45314   9.200  37.823  13.802
73786W        W45315   3.223  19.699   2.748
73787W        W45316   5.391   8.822   1.380
73788W        W45317  32.137  30.804   1.135
73789W        W45318  31.840  30.304   2.728
73790W        W45319   1.879  43.415  12.067
73791W        W45320  16.393   4.745   1.929
73792W        W45321  23.720   5.179  10.774
73793W        W45322  42.491   6.255   1.023
73794W        W45323  38.047  13.951  14.017
73795W        W45324  39.600  19.530   1.741
73796W        W45325  40.336  45.000  12.445
73797W        W45326   2.214  39.086  12.192
73798W        W45327  13.142   9.462  11.996
73799W        W45328  21.210  30.983  14.059
73800W        W45329  13.342  39.801   3.508
73801W        W45330  43.557  10.243   4.880
73802W        W45331   0.506  35.443   0.728
73803W        W45332  11.609  33.948   2.834
73804W        W45333  33.546   9.431  10.323
73805W        W45334  29.782   0.442   3.674
73806W        W45335  43.322  14.733   1.951
73807W        W45336  43.765  30.860   1.647
73808W        W45337  17.855   4.735  11.180
73809W        W45338  40.439  38.736  12.569
73810W        W45339  26.728   8.161   4.114
73811W        W45340  20.285  24.017   4.109
73812W        W45341  43.536  12.433   2.752
73813W        W45342   7.233  27.873  12.646
73814W        W45343  29.729  23.113  11.617
73815W        W45344  40.313  13.371   4.327
73816W        W45345  15.609  16.033   3.129
73817W        W45346   9.549  34.437  10.649
73818W        W45347  28.564  13.232   3.272
73819W        W45348   0.607   5.642   3.761
73820W        W45349  44.648  37.927  11.207
73821W        W45350  30.135  39.539  12.601
73822W        W45351  22.661  15.363  11.714
73823W        W45352  10.938  18.789   1.898
73824W        W45353  23.499  14.953   1.205
73825W        W45354  18.148  26.232  12.633
73826W        W45355  20.668   8.233   3.108
73827W        W45356  44.401  21.602  13.030
73828W        W45357  31.430  29.743  11.509
73829W        W45358  41.520  41.485  10.518
73830W        W45359  28.944  26.158  14.290
73831W        W45360   1.416   7.369  14.858
73832W        W45361  32.428  24.548  11.946
73833W        W45362  31.200  25.080   3.610
73834W        W45363  30.602  38.805   0.296
73835W        W45364   2.223  35.009   0.427
73836W        W45365  12.220   5.134  14.435
73837W        W45366  22.030  29.038   0.780
73838W        W45367  14.162  19.957   1.815
73839W        W45368  26.837  15.690  11.549
73840W        W45369   1.857  30.899  11.938
73841W        W45370   5.778  27.212   4.162
73842W        W45371  16.679  13.847   2.214
73843W        W45372  32.703   0.550   2.575
73844W        W45373   9.714  16.247  13.344
73845W        W45374  22.224  17.180   1.147
73846W        W45375  32.542  33.998  10.371
73847W        W45376   3.892  31.388   1.626
73848W        W45377  13.097  36.852  13.281
73849W        W45378  43.372  14.660  14.018
73850W        W45379   5.843  42.381   2.988
73851W        W45380  22.628  29.418   2.382
73852W        W45381  10.348  40.811   0.959
73853W        W45382  39.420  20.744   4.470
73854W        W45383  28.012  16.360   1.397
73855W        W45384  43.384  39.952  11.726
73856W        W45385  15.859   1.336   4.776
73857W        W45386  19.509  19.078   3.334
73858W        W45387   7.663  12.180   4.608
73859W        W45388  16.199   7.363  14.273
73860W        W45389  39.870   0.871   4.292
73861W        W45390   8.029  30.699   3.311
73862W        W45391  11.359   9.490  12.530
73863W        W45392  25.926  17.291   1.530
73864W        W45393  10.826  26.626  13.988
73865W        W45394  37.053  10.068   4.971
73866W        W45395  13.782  40.415   3.946
73867W        W45396  27.410   9.229   3.113
73868W        W45397   0.577  39.800  13.700
73869W        W45398  43.541   9.388   2.751
73870W        W45399  26.750  19.741  13.555
73871W        W45400  18.499  23.700   0.577
73872W        W45401  43.735   2.306  12.455
73873W        W45402  20.100   4.855   0.782
73874W        W45403  35.509  17.135   4.371
73875W        W45404  13.665   7.919   3.505
73876W        W45405  34.211  12.079   3.268
73877W        W45406   0.687  30.702   2.328
73878W        W45407   1.193  22.999   0.321
73879W        W45408  23.142  39.023   1.759
73880W        W45409   3.481   0.560  12.743
73881W        W45410  17.557   1.936   0.903
73882W        W45411  17.036  42.419   4.623
73883W        W45412   8.484  18.080   1.155
73884W        W45413  36.071  27.699  12.601
73885W        W45414  13.268  27.741   0.187
73886W        W45415  36.521  29.876  13.764
73887W        W45416  31.026  18.126  12.102
73888W        W45417   1.980  41.846  13.291
73889W        W45418  16.791  38.009   2.375
73890W        W45419  19.658  41.102  13.059
73891W        W45420  31.044  20.176   2.639
73892W        W45421  43.455   5.294   1.882
73893W        W45422  35.381   4.021   0.699
73894W        W45423  37.294  41.448   1.778
73895W        W45424  30.963  12.006   3.790
73896W        W45425  15.681  34.371   1.751
73897W        W45426  17.724  38.312   0.415
73898W        W45427   5.460  26.461  11.837
73899W        W45428  25.696  39.406   2.787
73900W        W45429  31.904   9.829   1.754
73901W        W45430  40.966   2.508  12.481
73902W        W45431  19.052   3.073  11.212
73903W        W45432  18.427  28.556  11.893
73904W        W45433  39.741   3.744   1.618
73905W        W45434   4.638  15.613  13.331
73906W        W45435   3.745  12.563  11.602
73907W        W45436  27.671  17.213   4.111
73908W        W45437  10.778   7.666  10.686
73909W        W45438  44.528  16.067  12.013
73910W        W45439  36.552  31.089  12.619
73911W        W45440  41.564  23.178  11.109
73912W        W45441  10.458  29.510  13.359
73913W        W45442  13.907  19.396  12.462
73914W        W45443   0.309   3.351  12.927
73915W        W45444   7.216   8.207  12.950
73916W        W45445  27.456  21.786   1.771
73917W        W45446  34.076  41.597   1.715
73918W        W45447  27.746  33.062   0.697
73919W        W45448  44.502  18.642   3.186
73920W        W45449  37.864   8.912   2.702
73921W        W45450  25.136  30.388   4.179
73922W        W45451  22.527  40.588   1.750
73923W        W45452  26.466  41.320   9.865
73924W        W45453  44.912  13.484   3.873
73925W        W45454  27.446   1.293   2.952
73926W        W45455   7.909  31.670   4.406
73927W        W45456  20.100  15.229   3.311
73928W        W45457   6.300  41.120   4.145
73929W        W45458   6.003  12.694  10.337
73930W        W45459  38.572  29.227  12.851
73931W        W45460  38.893  25.038  13.036
73932W        W45461   2.864  24.457   0.901
73933W        W45462   4.265   0.391   0.260
73934W        W45463  15.385  37.006   4.186
73935W        W45464  10.992  16.185   0.004
73936W        W45465  37.454  41.278   2.343
73937W        W45466   8.339   0.409  11.979
73938W        W45467  44.851  13.074  12.671
73939W        W45468  27.259  19.601  11.124
73940W        W45469  30.152  29.371  12.010
73941W        W45470   1.900   1.985  14.878
73942W        W45471   4.377  24.730  14.790
73943W        W45472  38.811   6.892   0.871
73944W        W45473  17.809  39.525  14.518
73945W        W45474  29.913   5.952  12.078
73946W        W45475  30.390  20.236   1.804
73947W        W45476  32.397  35.721   3.324
73948W        W45477   5.216  28.923   0.738
73949W        W45478  19.198  14.824  12.999
73950W        W45479  19.205  41.935   2.246
73951W        W45480  22.125   4.336  11.615
73952W        W45481  36.161  35.604   0.301
73953W        W45482  42.866  27.130  11.923
73954W        W45483  42.450   7.681  10.807
73955W        W45484   3.689   1.199   3.928
73956W        W45485  12.547  32.341  11.837
73957W        W45486  39.534  17.826  14.039
73958W        W45487  25.976  18.538   1.851
73959W        W45488  32.890   1.889  14.387
73960W        W45489  11.138  31.414  10.615
73961W        W45490  23.835  35.958  13.906
73962W        W45491  20.748  23.218   0.994
73963W        W45492  31.025  37.933   3.104
73964W        W45493  15.992  20.208  14.941
73965W        W45494  35.623  19.792   0.801
73966W        W45495  18.582  33.567   1.906
73967W        W45496  25.427   7.745  11.619
73968W        W45497  30.203  17.128  14.333
73969W        W45498  12.362  38.355  12.689
73970W        W45499   5.193  19.812  13.719
73971W        W45500  11.153   0.747   0.425
73972W        W45501  28.179  10.187   4.084
73973W        W45502  25.030  31.617   1.293
73974W        W45503  14.282  35.149  14.930
73975W        W45504  12.235  39.782   0.337
73976W        W45505   1.684  42.009   2.184
73977W        W45506   1.025  16.900  14.768
73978W        W45507  18.233  30.910   2.491
73979W        W45508   1.353  33.461   1.170
73980W        W45509  17.512   2.104  11.665
73981W        W45510  40.317  36.078  14.551
73982W        W45511  15.882   1.393  12.120
73983W        W45512  32.066  38.487   4.138
73984W        W45513  41.452   6.217   2.927
73985W        W45514  39.757  27.672   0.016
73986W        W45515  17.965  14.779   4.859
73987W        W45516  13.849  26.168   2.696
73988W        W45517   6.382  14.037   2.843
73989W        W45518  35.051  30.010   3.651
73990W        W45519  10.850  13.570   1.435
73991W        W45520  37.528   1.826   3.160
73992W        W45521   0.385  27.024   2.339
73993W        W45522  43.439  42.999   4.026
73994W        W45523  21.623  43.533  13.988
73995W        W45524  13.278  43.441  10.624
73996W        W45525   9.766   5.764   3.670
73997W        W45526  43.060  10.843   2.641
73998W        W45527  31.045   1.759   2.988
73999W        W45528  10.438   7.700   2.920
74000W        W45529  29.492  33.520   1.869
74001W        W45530  31.699   3.488   1.635
74002W        W45531  30.443  41.478  11.290
74003W        W45532  32.894  14.881  14.360
74004W        W45533  33.400  16.780  12.445
74005W        W45534  41.426  27.036  11.984
74006W        W45535  11.752   7.782   2.678
74007W        W45536  11.348  33.950   1.442
74008W        W45537  39.562  21.513  11.019
74009W        W45538  17.843  36.721  11.070
74010W        W45539   5.274  13.296   2.388
74011W        W45540  16.310   8.755  13.287
74012W        W45541  41.803   8.723   3.683
74013W        W45542  44.773  30.420   3.168
74014W        W45543  10.373  40.618   2.779
74015W        W45544  20.029  25.289   4.575
74016W        W45545  30.432  16.030  11.076
74017W        W45546   8.508  27.242  11.605
74018W        W45547   1.336   4.412   2.591
74019W        W45548  33.265  14.003   4.519
74020W        W45549  31.390   9.913  14.066
74021W        W45550  11.343  19.362  12.947
74022W        W45551  18.024  34.340  10.680
74023W        W45552  12.644   4.683  14.712
74024W        W45553  28.185  30.717   3.979
74025W        W45554  13.617  33.048   2.988
74026W        W45555   5.912  20.121  13.055
74027W        W45556  10.888  15.700   1.351
74028W        W45557  16.515  14.202  13.309
74029W        W45558   0.947   6.923  12.102
74030W        W45559  27.884  11.104  13.299
74031W        W45560  22.272  36.947   1.792
74032W        W45561  40.691  42.392  10.643
74033W        W45562   2.094  27.403  10.559
74034W        W45563   3.378  30.918  12.561
74035W        W45564  11.894  19.750  10.371
74036W        W45565  44.342  35.365   4.883
74037W        W45566   6.696  13.128   2.804
74038W        W45567  23.841  15.871  11.765
74039W        W45568  38.446  24.283   4.686
74040W        W45569  36.923  23.218   0.404
74041W        W45570  27.603   8.827  14.049
74042W        W45571  26.347  29.310   2.295
74043W        W45572  16.263  27.140   1.891
74044W        W45573  28.397  43.983   3.077
74045W        W45574   7.215   9.852   2.602
74046W        W45575   9.206  18.070  14.450
74047W        W45576  15.592  28.334  12.388
74048W        W45577  11.424  36.375   2.404
74049W        W45578  37.972  38.271   2.498
74050W        W45579   8.363  30.466   0.092
74051W        W45580   7.775   9.076  12.910
74052W        W45581  28.721  25.340   1.264
74053W        W45582  21.547   5.895   0.010
74054W        W45583   1.925   5.981  11.853
74055W        W45584  10.350  38.751  10.667
74056W        W45585  17.258   3.020  12.512
74057W        W45586   6.924  39.305  10.684
74058W        W45587  29.090  14.904   2.437
74059W        W45588   0.865  16.650  11.429
74060W        W45589   3.345  24.683   2.742
74061W        W45590  34.821  32.500   2.746
74062W        W45591  11.055   9.250  12.079
74063W        W45592  34.813  42.477   2.393
74064W        W45593  42.361  15.433  14.213
74065W        W45594   6.668  27.989  14.229
74066W        W45595  40.558  29.120  13.551
74067W        W45596  11.295  34.789  13.788
74068W        W45597  21.688  16.037  11.176
74069W        W45598  25.299  22.874   2.858
74070W        W45599   9.351  28.246   2.776
74071W        W45600  39.853  36.396   0.017
74072W        W45601  28.253   5.210   1.754
74073W        W45602  43.242   4.763  14.261
74074W        W45603   1.029   2.641  13.915
74075W        W45604  15.164  22.652   0.819
74076W        W45605  38.576   7.837  14.791
74077W        W45606   6.419  42.448  10.629
74078W        W45607  28.844   5.286  12.979
74079W        W45608   5.445  43.850   2.185
74080W        W45609   9.225  30.975   2.267
74081W        W45610  41.341   1.248   4.250
74082W        W45611  34.476  25.322  13.755
74083W        W45612  17.587   9.133  12.611
74084W        W45613  11.205  19.029   2.942
74085W        W45614  16.626  37.334  13.635
74086W        W45615  27.745  29.492  14.874
74087W        W45616  26.533  40.058  13.085
74088W        W45617   2.963  17.294   0.784
74089W        W45618   1.928  11.739  12.898
74090W        W45619  14.993  22.960   2.861
74091W        W45620  29.093  25.038   2.734
74092W        W45621  27.975  28.732   4.559
74093W        W45622  40.440  15.172   1.770
74094W        W45623  25.563  18.718  13.581
74095W        W45624  30.416  35.644  11.514
74096W        W45625  40.597  38.765  10.861
74097W        W45626  24.148   7.629  11.395
74098W        W45627  10.406  17.701  14.032
74099W        W45628  37.290  19.080  11.039
74100W        W45629  21.167  27.799  14.956
74101W        W45630  34.158  18.114   2.889
74102W        W45631  18.410  36.111  11.428
74103W        W45632  31.690  42.044  10.680
74104W        W45633  28.164  20.472  11.508
74105W        W45634  43.552  15.305   3.111
74106W        W45635   4.220   3.804   3.766
74107W        W45636  21.037  22.204   1.741
74108W        W45637  23.900   2.873  13.862
74109W        W45638  41.313  16.205   0.286
74110W        W45639  34.134   9.446   2.765
74111W        W45640  39.802  12.724  14.773
74112W        W45641  41.864   4.377  12.109
74113W        W45642  15.862  16.857  11.197
74114W        W45643  27.902   7.385   4.320
74115W        W45644  18.110   9.424   1.232
74116W        W45645  36.866   1.877  11.547
74117W        W45646   0.185  30.508   0.298
74118W        W45647  40.310  38.609   2.307
74119W        W45648  39.011   7.166   4.596
74120W        W45649  18.662  14.276   4.601
74121W        W45650  21.119  35.104   1.381
74122W        W45651  19.404  33.088  12.988
74123W        W45652  15.256  34.406  13.484
74124W        W45653  37.101  29.943  11.564
74125W        W45654  11.488  23.904   1.900
74126W        W45655  32.394  43.340  11.155
74127W        W45656  15.401   3.689   1.846
74128W        W45657  21.695   1.769   1.266
74129W        W45658  10.901   2.835   0.725
74130W        W45659  35.610   6.803  11.553
74131W        W45660  40.741  32.568  13.367
74132W        W45661   3.263  10.609   2.841
74133W        W45662  33.366  41.427  12.435
74134W        W45663  22.467  25.054  10.057
74135W        W45664  44.457   4.511  14.806
74136W        W45665  14.072  23.671  12.135
74137W        W45666  44.032  42.496  12.236
74138W        W45667  32.348   4.200  13.054
74139W        W45668  25.655  23.496   1.286
74140W        W45669   0.653  43.469   3.834
74141W        W45670  44.041  10.755   1.504
74142W        W45671   0.261  40.952  13.860
74143W        W45672   5.288  15.033  10.658
74144W        W45673   9.929   1.685  14.364
74145W        W45674  24.097  42.537   1.887
74146W        W45675  21.277  25.683  11.155
74147W        W45676  34.014  32.913   2.979
74148W        W45677  25.741  39.192  11.681
74149W        W45678  24.266  12.114   1.505
74150W        W45679  23.105  29.116   4.611
74151W        W45680  25.198  21.991  11.648
74152W        W45681  27.022   3.418  13.372
74153W        W45682   0.479  22.942   2.290
74154W        W45683   6.762  28.312   0.993
74155W        W45684  17.245   4.072  12.564
74156W        W45685  30.522  20.646   1.490
74157W        W45686   5.314  42.590   4.150
74158W        W45687  40.745  24.055  11.990
74159W        W45688   1.255  11.811  14.028
74160W        W45689  10.692  15.487  13.470
74161W        W45690  37.854  29.471  12.595
74162W        W45691   6.880  33.698  11.135
74163W        W45692  32.496  39.888   1.202
74164W        W45693   5.164  32.464  12.190
74165W        W45694  38.857  36.529   2.847
74166W        W45695   8.294  24.540  13.302
74167W        W45696   8.520   3.322  12.083
74168W        W45697   2.171  12.271   2.748
74169W        W45698   1.361  29.072   2.390
74170W        W45699  30.484   0.765   1.166
74171W        W45700  18.770   5.278   3.793
74172W        W45701  35.617  21.870   2.687
74173W        W45702  41.583  41.726   0.903
74174W        W45703  44.301  31.933   2.468
74175W        W45704  44.204  27.120  11.669
74176W        W45705  28.655  27.075  11.004
74177W        W45706  13.361  35.961  12.980
74178W        W45707  14.606  31.246  13.729
74179W        W45708  33.990  17.780   0.336
74180W        W45709  11.615  27.522   4.274
74181W        W45710  39.423   3.177  11.499
74182W        W45711   1.544  13.934   3.977
74183W        W45712  10.884  43.822   0.367
74184W        W45713  32.922  27.698   2.278
74185W        W45714  11.296  32.515   4.336
74186W        W45715  13.367  20.560   2.082
74187W        W45716   6.278  25.009   2.890
74188W        W45717  42.468  43.967  14.820
74189W        W45718  18.369  14.679  13.673
74190W        W45719  29.102   6.467  11.593
74191W        W45720  19.775  28.010  13.585
74192W        W45721  20.024  17.800   1.770
74193W        W45722  44.471  41.354  14.383
74194W        W45723  31.043  34.438  14.960
74195W        W45724  29.416   8.728  11.221
74196W        W45725  14.218  39.674  13.809
74197W        W45726  41.157  40.781   0.995
74198W        W45727  24.808  23.640  14.466
74199W        W45728  10.094  34.155   1.756
74200W        W45729  12.655  22.058  14.448
74201W        W45730  34.964  26.546   4.074
74202W        W45731   9.195  15.701   4.208
74203W        W45732   6.831  40.708  10.727
74204W        W45733  22.108   7.949   4.797
74205W        W45734  40.901   3.149   4.591
74206W        W45735  21.692  30.373  11.350
74207W        W45736  23.513  39.921  13.895
74208W        W45737  35.528  25.136   0.376
74209W        W45738  42.852  35.359   2.645
74210W        W45739  35.017   5.156   2.309
74211W        W45740  25.693  30.107  12.743
74212W        W45741  30.690  29.697   0.788
74213W        W45742  21.727  23.520  14.323
74214W        W45743   2.377  11.106  14.380
74215W        W45744   3.092   0.891  12.884
74216W        W45745  19.024   4.720  12.552
74217W        W45746  40.021  23.707  13.069
74218W        W45747  42.181   4.426   3.999
74219W        W45748  19.156  17.823   1.201
74220W        W45749  43.302  34.326  13.042
74221W        W45750  22.279  32.096   0.853
74222W        W45751  39.866  29.207  14.883
74223W        W45752   3.721  16.983   4.276
74224W        W45753   3.291  15.011  14.547
74225W        W45754  40.247  36.963   4.062
74226W        W45755  30.472  37.476   1.831
74227W        W45756  32.499  21.245  13.449
74228W        W45757  34.072  23.025  12.025
74229W        W45758  34.821  12.194  14.373
74230W        W45759  34.572  20.481   2.340
74231W        W45760  39.956  22.493  13.577
74232W        W45761   5.959   9.152   3.432
74233W        W45762  26.979   0.281  14.053
74234W        W45763  17.415  22.153   4.586
74235W        W45764   0.238   6.760   1.746
74236W        W45765  35.872   9.061   1.921
74237W        W45766  40.417   1.349   0.928
74238W        W45767  19.477  26.487  12.496
74239W        W45768  32.936  25.279  12.859
74240W        W45769  25.681  28.188  11.585
74241W        W45770  42.031   7.437   3.249
74242W        W45771  19.866  32.135  13.753
74243W        W45772  26.518  37.652  11.204
74244W        W45773  25.920  38.327  13.812
74245W        W45774  19.083  22.442  13.933
74246W        W45775  44.844   7.343  13.134
74247W        W45776  43.705  40.500  10.022
74248W        W45777  13.299  11.213  13.044
74249W        W45778  16.535  19.731   1.327
74250W        W45779  10.315   8.348   2.339
74251W        W45780  15.661  31.133  13.420
74252W        W45781   3.005  37.344   2.328
74253W        W45782  17.594  37.895   0.683
74254W        W45783  10.354   9.677  11.391
74255W        W45784  29.189  31.566  13.393
74256W        W45785   1.265  38.420   0.145
74257W        W45786  25.403  38.745   0.109
74258W        W45787   3.131   3.934   5.005
74259W        W45788  11.103  27.207   3.076
74260W        W45789  39.281   4.318  14.507
74261W        W45790  41.831   1.714   1.826
74262W        W45791  30.961   0.191  11.116
74263W        W45792  36.989  11.957   1.325
74264W        W45793  42.587  20.887  14.214
74265W        W45794  31.447   3.933   1.703
74266W        W45795  19.075  20.580  10.617
74267W        W45796   2.830  37.205  13.873
74268W        W45797  37.836  10.662   2.221
74269W        W45798  21.093  15.643   4.665
74270W        W45799  14.280  26.465   4.879
74271W        W45800   9.728  11.596   3.990
74272W        W45801  33.809  11.162  12.441
74273W        W45802  12.313   1.985   4.119
74274W        W45803  35.715  43.800  14.862
74275W        W45804   5.510  44.633  11.564
74276W        W45805  32.969  18.599  11.125
74277W        W45806  28.242  11.707  12.195
74278W        W45807  13.824  28.110  10.991
74279W        W45808   4.682   6.261  13.060
74280W        W45809  41.963  44.699   2.873
74281W        W45810  21.091  22.489   0.856
74282W        W45811  18.832  33.514  13.833
74283W        W45812  36.340  20.572  12.832
74284W        W45813  44.901  32.065  10.809
74285W        W45814   2.227  26.636   3.923
74286W        W45815  18.856   4.291   4.538
74287W        W45816   0.440  38.916   4.830
74288W        W45817  19.121  20.841  14.523
74289W        W45818   0.358  23.897   4.354
74290W        W45819  42.855  33.503   5.051
74291W        W45820  29.526   0.982  14.847
74292W        W45821  22.278  16.326  14.324
74293W        W45822  10.702  15.064   4.678
74294W        W45823  22.520   3.952   1.839
74295W        W45824  25.536  31.661  14.042
74296W        W45825  43.838  23.709  11.959
74297W        W45826  42.783  25.039  12.841
74298W        W45827  14.014  11.439   2.893
74299W        W45828  13.999  12.325   1.271
74300W        W45829  24.156   0.547   4.579
74301W        W45830   7.720   5.863   1.207
74302W        W45831  22.660  24.743   3.163
74303W        W45832  27.199  39.991  10.722
74304W        W45833  21.169  23.775  11.558
74305W        W45834   3.815  23.126  14.911
74306W        W45835  30.949  44.174  11.016
74307W        W45836  43.811   0.805   3.282
74308W        W45837  39.347   1.061  11.238
74309W        W45838  38.774  42.770   1.218
74310W        W45839  34.416  15.170   1.207
74311W        W45840  24.151  26.997   0.547
74312W        W45841  27.135  31.503   3.911
74313W        W45842  42.294  33.433  14.909
74314W        W45843  17.176  42.286  14.495
74315W        W45844  19.121  25.566   3.595
74316W        W45845  18.344  36.561   1.875
74317W        W45846   9.276   8.094   3.729
74318W        W45847  43.830   4.046  11.121
74319W        W45848  38.020  19.067   2.441
74320W        W45849  20.451  11.875   1.196
74321W        W45850  29.388   6.389   1.967
74322W        W45851  30.104  18.301   3.865
74323W        W45852  42.933  21.654  11.471
74324W        W45853  29.053  41.755   4.862
74325W        W45854  42.558  15.542  13.447
74326W        W45855  25.600   3.025  11.721
74327W        W45856   6.984   1.365   3.178
74328W        W45857  25.082  23.509  10.711
74329W        W45858  11.341  13.840  10.644
74330W        W45859  20.488  33.695   3.281
74331W        W45860  13.367   4.618   2.749
74332W        W45861  41.005  19.674  10.963
74333W        W45862  39.996  17.696  12.814
74334W        W45863   2.384   8.839  10.450
74335W        W45864  19.159  24.723   2.604
74336W        W45865  25.173  40.450   0.003
74337W        W45866  43.849  44.411  12.342
74338W        W45867   0.496  17.806  11.116
74339W        W45868  16.258  39.931   1.819
74340W        W45869   9.897   9.444  11.496
74341W        W45870  40.130  25.683   1.515
74342W        W45871  28.154  25.184  13.873
74343W        W45872  19.360  15.273   4.050
74344W        W45873   2.380  23.969  10.736
74345W        W45874   3.882  30.190  13.786
74346W        W45875  28.405  28.641   0.443
74347W        W45876  28.598  43.241  11.360
74348W        W45877  41.308  32.432  13.881
74349W        W45878  42.232  27.693   1.053
74350W        W45879  42.939   5.241   3.212
74351W        W45880  14.280  17.127   5.035
74352W        W45881  36.586  15.643  14.308
74353W        W45882  37.173  41.453  11.095
74354W        W45883  30.309  34.575   2.347
74355W        W45884  32.926  44.622   2.091
74356W        W45885   1.754   8.325   2.304
74357W        W45886  19.499  26.582   1.064
74358W        W45887   3.344   9.324   3.807
74359W        W45888  29.620   3.690   1.227
74360W        W45889  19.232  36.418   2.423
74361W        W45890  44.709  41.640  14.813
74362W        W45891  18.280  43.902   2.343
74363W        W45892  38.149  21.123   0.185
74364W        W45893  25.506  13.113  13.420
74365W        W45894  31.424  18.628   1.381
74366W        W45895  38.865   0.468  10.771
74367W        W45896  16.234  13.370  13.548
74368W        W45897  12.871   4.023   1.419
74369W        W45898   4.785  35.554  12.376
74370W        W45899  42.552  36.011   2.215
74371W        W45900  33.061   3.431  12.855
74372W        W45901  26.948  17.512  12.942
74373W        W45902  31.829  16.325   0.520
74374W        W45903  28.996   6.182   0.717
74375W        W45904  31.844  11.685   4.083
74376W        W45905  13.810  36.498  13.645
74377W        W45906  27.768  42.928   4.773
74378W        W45907  13.705  31.320  11.088
74379W        W45908  24.229  20.453  10.830
74380W        W45909  13.997   4.349  11.754
74381W        W45910  20.185  26.550   2.645
74382W        W45911  18.672  31.200   5.409
74383W        W45912   2.462  42.928  14.306
74384W        W45913  32.696   6.249  11.632
74385W        W45914   8.434  40.314  14.480
74386W        W45915   7.222  29.380  12.631
74387W        W45916  25.142   6.040  14.347
74388W        W45917  30.384  40.655  11.178
74389W        W45918  37.350  35.403  11.902
74390W        W45919  35.067  40.919   3.744
74391W        W45920  13.321  36.026   4.132
74392W        W45921   1.550   0.839  13.996
74393W        W45922  38.312  42.743  14.428
74394W        W45923  35.281   0.263   1.618
74395W        W45924  18.275   6.206  14.229
74396W        W45925  35.848  41.481  10.775
74397W        W45926   0.921  41.939   3.203
74398W        W45927   4.240  22.791  11.565
74399W        W45928  44.285   5.322   0.438
74400W        W45929  28.438  40.824   3.779
74401W        W45930  35.192  43.923   4.288
74402W        W45931  40.831   9.980  14.229
74403W        W45932   1.952  18.578  13.910
74404W        W45933   3.314  24.187  12.579
74405W        W45934  24.168  30.068   2.717
74406W        W45935  11.152  10.033  13.334
74407W        W45936  12.446  15.151   0.673
74408W        W45937  43.371  44.741   3.645
74409W        W45938   4.772  12.072   3.856
74410W        W45939  42.621  18.826   0.278
74411W        W45940  11.302  15.126  12.604
74412W        W45941  29.302  44.243   1.297
74413W        W45942  39.401   7.812  10.777
74414W        W45943  34.955  16.112   1.353
74415W        W45944  33.260  14.359   3.706
74416W        W45945  27.193  12.644  12.373
74417W        W45946  11.614  42.089   1.787
74418W        W45947  13.336  27.526   4.062
74419W        W45948   3.363   4.374   1.146
74420W        W45949  32.831  32.849  13.448
74421W        W45950  36.512   8.917   0.306
74422W        W45951   4.290   8.298   0.005
74423W        W45952  20.056  44.866   0.278
74424W        W45953  20.480  32.047   2.734
74425W        W45954  10.705  27.149  13.843
74426W        W45955  40.438   2.234   3.931
74427W        W45956   3.597  35.478   1.283
74428W        W45957  34.030  42.520   4.139
74429W        W45958  15.135  15.560   0.360
74430W        W45959   9.801  13.431   2.804
74431W        W45960  33.780  26.878  12.652
74432W        W45961  42.952   9.394  13.482
74433W        W45962  25.757  38.110  14.558
74434W        W45963  22.550  11.562  10.538
74435W        W45964   3.764  42.821   1.382
74436W        W45965  22.132  30.873   4.140
74437W        W45966  13.616   4.674   0.663
74438W        W45967  14.749  14.717   2.835
74439W        W45968  32.579   3.410  12.135
74440W        W45969  15.244  13.331  14.850
74441W        W45970  34.546  15.903  10.078
74442W        W45971  16.286   3.899   0.292
74443W        W45972  34.313  39.761  12.075
74444W        W45973  12.826   0.379   2.942
74445W        W45974  44.910   6.048  14.282
74446W        W45975   5.007  16.964  10.268
74447W        W45976  34.782  24.595   3.996
74448W        W45977  37.561  36.761   2.378
74449W        W45978  11.122  27.859  13.532
74450W        W45979  19.203  44.501   4.204
74451W        W45980  22.799  34.542   0.020
74452W        W45981  23.028  25.697  14.477
74453W        W45982  42.024  11.625   0.001
74454W        W45983  30.441  27.010  14.790
74455W        W45984  21.628  43.883  12.833
74456W        W45985  44.279  23.946   2.660
74457W        W45986   6.294  33.024   2.791
74458W        W45987   7.380  16.075   0.710
74459W        W45988  41.931  26.596  12.502
74460W        W45989  40.112   1.660  14.242
74461W        W45990  13.218  23.420   1.899
74462W        W45991  29.093  17.097   1.598
74463W        W45992   1.440  36.375  13.473
74464W        W45993   5.430  44.808   0.389
74465W        W45994  28.235  25.752   2.369
74466W        W45995   8.830   0.795  14.432
74467W        W45996   3.378  20.238  14.866
74468W        W45997  14.102  18.176   1.171
74469W        W45998  27.144  28.991  14.267
74470W        W45999   9.663   0.270   2.835
74471W        W46000  40.129   3.100  11.082
74472W        W46001   0.716   0.893  12.001
74473W        W46002  29.706  10.636   1.927
74474W        W46003  16.672  38.418  13.061
74475W        W46004  26.191  44.467   3.895
74476W        W46005  20.596  24.082  13.914
74477W        W46006  25.318  26.359   2.312
74478W        W46007  20.523   3.895  11.631
74479W        W46008   2.379  12.139   3.218
74480W        W46009   1.362  29.587   1.127
74481W        W46010  24.949  32.406   2.594
74482W        W46011  40.528   1.405   1.442
74483W        W46012  35.969  35.515   1.278
74484W        W46013  34.544  18.779  11.211
74485W        W46014  38.959  40.850  11.205
74486W        W46015  28.887  34.013   3.162
74487W        W46016  26.977  29.786   3.143
74488W        W46017  37.244   9.398   4.952
74489W        W46018   0.430  10.422   1.744
74490W        W46019  24.093  15.619   0.731
74491W        W46020  31.410   7.299   1.577
74492W        W46021   1.294  44.265   1.302
74493W        W46022  39.154  22.052  14.053
74494W        W46023   2.166  30.572   1.916
74495W        W46024   8.451  38.221   4.210
74496W        W46025  17.558  21.156  11.904
74497W        W46026  15.882  31.371  13.834
74498W        W46027  25.886  23.473   1.755
74499W        W46028  15.475  42.890   4.972
74500W        W46029  35.490  41.188   2.419
74501W        W46030  44.242  15.750   3.304
74502W        W46031  40.640  22.492  12.878
74503W        W46032  36.958  38.171   2.289
74504W        W46033   0.573   5.248  11.159
74505W        W46034  32.701  14.753   9.496
74506W        W46035  20.541  38.128  13.829
74507W        W46036  14.635  41.489   4.564
74508W        W46037   3.078  44.369  12.129
74509W        W46038  14.088  22.755   0.407
74510W        W46039   7.087  15.081   0.872
74511W        W46040  28.610  39.576   3.233
74512W        W46041  28.081  23.727   0.422
74513W        W46042  29.113  16.664   2.845
74514W        W46043   7.215   4.228   1.119
74515W        W46044   2.672  19.706  14.988
74516W        W46045  12.154   9.922  10.585
74517W        W46046  42.070  19.278   0.445
74518W        W46047   0.880   2.815   4.043
74519W        W46048  14.284  40.262   0.813
74520W        W46049  21.143   5.407   3.567
74521W        W46050  25.154  27.972   3.364
74522W        W46051   1.195  16.804   4.580
74523W        W46052   1.799  44.966  11.087
74524W        W46053  40.462  26.761   4.825
74525W        W46054  19.593  44.318   3.895
74526W        W46055   0.399  10.169   3.163
74527W        W46056  15.608  15.066  13.243
74528W        W46057  41.307  21.640  10.705
74529W        W46058  22.685  20.904  12.972
74530W        W46059  14.165  41.516   4.800
74531W        W46060  32.204  13.816  11.498
74532W        W46061  12.129   3.753  13.102
74533W        W46062  20.763  39.797  11.151
74534W        W46063   0.342  34.128   0.092
74535W        W46064  22.651  44.882  13.081
74536W        W46065  30.651  14.918  13.771
74537W        W46066  37.944  23.246   0.722
74538W        W46067   9.898   5.275  10.623
74539W        W46068  41.453  43.339   2.666
74540W        W46069  19.962  22.282  12.875
74541W        W46070  31.901  15.396   0.269
74542W        W46071  11.366  39.473   1.217
74543W        W46072  42.982  33.866  11.925
74544W        W46073  12.536  12.699   3.083
74545W        W46074  32.118  18.550   3.203
74546W        W46075  35.807  37.851   3.333
74547W        W46076  11.685  18.180   1.987
74548W        W46077  17.041  17.378  13.928
74549W        W46078  24.146   6.295  13.924
74550W        W46079   4.823  19.382   5.076
74551W        W46080  16.247   3.361  13.961
74552W        W46081  44.495  41.877   3.578
74553W        W46082  14.841  21.260   2.830
74554W        W46083   5.408  27.091  14.438
74555W        W46084  13.619  27.435  11.011
74556W        W46085  43.824   8.847  13.723
74557W        W46086  23.736  16.891  11.695
74558W        W46087  15.740  40.709  12.964
74559W        W46088   6.723  17.612   1.827
74560W        W46089  32.161  15.284  13.979
74561W        W46090  21.063   1.325   4.694
74562W        W46091  40.854  31.010  14.980
74563W        W46092  29.011   3.025  14.279
74564W        W46093  10.979  33.570  14.868
74565W        W46094  25.662  11.227   0.874
74566W        W46095   2.446  17.092  13.894
74567W        W46096   1.292   6.449  12.836
74568W        W46097  42.776   8.678  12.458
74569W        W46098  18.079   5.798  12.432
74570W        W46099  39.806  29.701   4.661
74571W        W46100  31.443  44.437  13.989
74572W        W46101  19.167  24.986  14.587
74573W        W46102   0.470  22.232   0.433
74574W        W46103  38.867  32.130   3.310
74575W        W46104  19.332  14.546   1.837
74576W        W46105  31.048   4.477  13.538
74577W        W46106   7.189   1.679   0.731
74578W        W46107  16.771   6.991  13.993
74579W        W46108  40.532  13.261  11.024
74580W        W46109  37.425  37.377   1.101
74581W        W46110  31.612  34.577   5.177
74582W        W46111  10.234  35.429  11.647
74583W        W46112  26.170  16.007  14.154
74584W        W46113  39.272  26.983   2.706
74585W        W46114  27.386  39.869  14.936
74586W        W46115  22.104   7.598   4.415
74587W        W46116   8.885  33.080   0.643
74588W        W46117   6.708  22.091   0.047
74589W        W46118   2.799  25.368   4.542
74590W        W46119  36.454  26.926   0.906
74591W        W46120   8.368  10.734  11.505
74592W        W46121  41.984  15.205   4.140
74593W        W46122   6.323  42.644  11.639
74594W        W46123   2.879  27.803  11.865
74595W        W46124  31.783  29.103   1.843
74596W        W46125  32.037  20.133   1.767
74597W        W46126   4.825  44.337  11.173
74598W        W46127   7.635  26.093   2.887
74599W        W46128  13.588  35.050   2.747
74600W        W46129  25.255  29.362  10.814
74601W        W46130  21.063  41.855  14.930
74602W        W46131  22.651  29.875   2.640
74603W        W46132  19.551  20.519   3.830
74604W        W46133  25.413   5.383  10.686
74605W        W46134  26.538  25.161  11.950
74606W        W46135  17.975  44.945   4.426
74607W        W46136   3.406  27.934   4.857
74608W        W46137  33.831  11.112   1.852
74609W        W46138  34.559  26.680  10.527
74610W        W46139  22.291  44.758  12.001
74611W        W46140  30.972  41.972  12.229
74612W        W46141  23.768   5.313  14.474
74613W        W46142  27.252  38.985   2.149
74614W        W46143  33.601  34.051  11.834
74615W        W46144  26.498  36.438   0.782
74616W        W46145  30.672   8.580   4.142
74617W        W46146   6.423  11.212   3.151
74618W        W46147  35.642  26.759   4.993
74619W        W46148   2.382  41.697  10.474
74620W        W46149  29.903  40.977  12.071
74621W        W46150  39.613  41.961  14.912
74622W        W46151  32.627  37.761  14.694
74623W        W46152  11.264  13.144  13.426
74624W        W46153  41.009  41.301   4.570
74625W        W46154  25.259   3.915  12.232
74626W        W46155  16.268   8.771   2.777
74627W        W46156  23.227  26.136  12.578
74628W        W46157  33.050  20.411   2.714
74629W        W46158  40.849  26.106   4.333
74630W        W46159  14.856  35.840  12.555
74631W        W46160   3.320  25.247  13.494
74632W        W46161   1.166  24.219  13.328
74633W        W46162  11.288  44.947   2.806
74634W        W46163  34.397  32.456   0.412
74635W        W46164   9.903  42.073   1.370
74636W        W46165  11.511  31.539  11.966
74637W        W46166  31.817  10.778   0.468
74638W        W46167  22.627  37.373   4.574
74639W        W46168  39.525   7.675   3.203
74640W        W46169  26.552  20.867   5.169
74641W        W46170  12.386  39.541  12.079
74642W        W46171  23.881   0.803   0.332
74643W        W46172  34.379  44.214   0.396
74644W        W46173   7.819  27.106   0.808
74645W        W46174  31.883  33.875  13.317
74646W        W46175  34.818   1.388   1.090
74647W        W46176  32.425  37.548   3.708
74648W        W46177  11.463   3.769  11.537
74649W        W46178  37.593  18.816  14.912
74650W        W46179  14.078  36.621   3.593
74651W        W46180   8.375   8.736   1.640
74652W        W46181  31.981  25.743  13.089
74653W        W46182  44.151  21.456  12.082
74654W        W46183  40.478  24.748  14.068
74655W        W46184  33.809  37.167  14.489
74656W        W46185  12.564  12.267   1.503
74657W        W46186  19.143   5.798   4.607
74658W        W46187  10.767  36.738   2.388
74659W        W46188   6.308  16.814   2.198
74660W        W46189  31.134   0.783   3.305
74661W        W46190   6.055  13.996   3.735
74662W        W46191  38.379  31.649  12.641
74663W        W46192  19.383  39.889   3.557
74664W        W46193  20.895  32.297  14.739
74665W        W46194  26.721  22.521   3.432
74666W        W46195  28.672  39.631   1.691
74667W        W46196   1.336  26.037   2.842
74668W        W46197  33.512  13.827  10.586
74669W        W46198   6.340  33.350  13.420
74670W        W46199  43.388  39.296  13.905
74671W        W46200  18.734  42.187   2.368
74672W        W46201  21.775   3.654  14.250
74673W        W46202   3.207  29.214  12.990
74674W        W46203  20.715  26.444   0.810
74675W        W46204  34.078  35.816  11.834
74676W        W46205  42.358   8.891   1.970
74677W        W46206  12.156  27.564  10.730
74678W        W46207   9.695  20.261   1.624
74679W        W46208  35.422   6.026   2.567
74680W        W46209  16.749  11.581  11.997
74681W        W46210   4.724  31.055  11.066
74682W        W46211  26.654  12.990   3.236
74683W        W46212  26.177  42.758  12.472
74684W        W46213  25.293  29.562  14.989
74685W        W46214  37.301  35.580  12.738
74686W        W46215  41.459  20.570   0.869
74687W        W46216   7.314  43.803  12.611
74688W        W46217  25.717  28.600   3.994
74689W        W46218  25.113  13.272   0.938
74690W        W46219  44.220   5.375  13.988
74691W        W46220  40.748   4.181  11.182
74692W        W46221  27.416  32.549   4.569
74693W        W46222  35.162  39.205   9.977
74694W        W46223   0.295  18.340   4.129
74695W        W46224  37.136  11.946   4.481
74696W        W46225  41.007  43.665  13.478
74697W        W46226  19.308   0.003  10.609
74698W        W46227  40.806  11.669   1.226
74699W        W46228   2.165   4.360  14.743
74700W        W46229   7.629  35.284   4.394
74701W        W46230  11.803  21.376   0.544
74702W        W46231   5.075  23.118  11.101
74703W        W46232  11.262   9.730   4.523
74704W        W46233   2.309   3.436   4.682
74705W        W46234  38.762  16.624   3.678
74706W        W46235  41.544  14.678   1.530
74707W        W46236  43.937   0.073   4.942
74708W        W46237  17.801  35.511   2.626
74709W        W46238  15.732  35.535   3.571
74710W        W46239  13.756  25.015   1.833
74711W        W46240  18.392  25.890   4.195
74712W        W46241  32.075  32.101  12.082
74713W        W46242  17.974   9.106   0.772
74714W        W46243   9.786   2.731   3.606
74715W        W46244   1.030   5.178   4.523
74716W        W46245  23.291  12.338  11.447
74717W        W46246   6.885  22.686  13.367
74718W        W46247  24.723  22.074  11.926
74719W        W46248  20.275  42.902   4.105
74720W        W46249   2.402  41.018  12.883
74721W        W46250  17.684  30.134   4.840
74722W        W46251  19.984  12.334   0.475
74723W        W46252  30.378  38.397   1.851
74724W        W46253  25.756  20.831   4.234
74725W        W46254  37.051  34.086   0.050
74726W        W46255  21.272  44.958  13.757
74727W        W46256   5.271  36.091   3.206
74728W        W46257  44.869  10.774   4.645
74729W        W46258  13.290  14.007   1.457
74730W        W46259  27.430  43.972   0.503
74731W        W46260  23.284  21.106   0.351
74732W        W46261  12.181  37.139   2.869
74733W        W46262  32.373  36.888   4.265
74734W        W46263  31.168   6.912   3.269
74735W        W46264  16.083  23.679   2.246
74736W        W46265   2.077  22.632   2.733
74737W        W46266   4.424  29.021   0.498
74738W        W46267  39.653  24.766  11.247
74739W        W46268   6.342  32.119   2.263
74740W        W46269   2.647  24.208   4.936
74741W        W46270   7.272   6.892   1.871
74742W        W46271  30.107  14.687   2.766
74743W        W46272   8.423   4.278   1.020
74744W        W46273  20.240   7.180   4.078
74745W        W46274  29.006  16.626  12.687
74746W        W46275  24.077  39.624  12.061
74747W        W46276  41.273  43.305  11.564
74748W        W46277  23.745  31.056   1.336
74749W        W46278  32.455   2.827  14.979
74750W        W46279  23.937  24.053  12.022
74751W        W46280  10.371  37.599   0.349
74752W        W46281  10.826  14.083   1.263
74753W        W46282  12.479  44.005  13.455
74754W        W46283  37.746   3.831   3.308
74755W        W46284  23.098  29.711  14.492
74756W        W46285  17.747   9.865  12.018
74757W        W46286   2.254  16.567  11.982
74758W        W46287  40.404  23.532   1.007
74759W        W46288   0.995  32.347  12.988
74760W        W46289  43.417  44.206  12.522
74761W        W46290  40.265  27.939  11.969
74762W        W46291  34.929  37.574  14.435
74763W        W46292   2.757   3.493   3.235
74764W        W46293  20.766  30.514  13.425
74765W        W46294  16.281  25.111   0.041
74766W        W46295   2.359  38.058  12.170
74767W        W46296   3.523  21.510   3.816
74768W        W46297   9.941  16.811  11.613
74769W        W46298   1.434   6.225  11.445
74770W        W46299  26.549  35.796  12.913
74771W        W46300  36.588  24.569  13.648
74772W        W46301  42.784  34.248  13.068
74773W        W46302  36.362  25.290   3.197
74774W        W46303   4.375  20.682  10.680
74775W        W46304  39.458  11.113   1.680
74776W        W46305  39.811  29.452   4.211
74777W        W46306  20.563   5.008   3.150
74778W        W46307  35.982  43.402  11.562
74779W        W46308  34.634  34.244  12.836
74780W        W46309  17.984  35.037   2.570
74781W        W46310  17.315  39.362  11.957
74782W        W46311   8.091  18.603   4.267
74783W        W46312  11.163   5.882   2.800
74784W        W46313  22.570  19.088   1.010
74785W        W46314  35.213  41.553   3.197
74786W        W46315  17.351  32.615  14.329
74787W        W46316  35.599  19.085  11.460
74788W        W46317  24.287   6.772  13.026
74789W        W46318  17.417  18.298  11.630
74790W        W46319  23.656  28.126   0.763
74791W        W46320  14.016  28.789  14.170
74792W        W46321  16.004   4.186  13.406
74793W        W46322   1.194  42.283  11.811
74794W        W46323  37.393   9.796  10.096
74795W        W46324  30.591  12.611   3.869
74796W        W46325  27.353  10.657   0.577
74797W        W46326  10.249  29.502   0.563
74798W        W46327  12.368  41.555  11.098
74799W        W46328  34.348  20.541  12.565
74800W        W46329   8.087  16.193   1.208
74801W        W46330  32.515  12.482  11.733
74802W        W46331  37.708   0.747  10.795
74803W        W46332   3.806  35.852   2.274
74804W        W46333  36.016  21.937   3.723
74805W        W46334  44.196  31.856  11.223
74806W        W46335  40.496  40.377  12.056
74807W        W46336  13.295  34.363   4.603
74808W        W46337  26.493   7.800  11.178
74809W        W46338  43.270  43.397   3.234
74810W        W46339  37.116  32.476   2.198
74811W        W46340  18.584  28.941   4.039
74812W        W46341   2.463  13.267  12.585
74813W        W46342  27.704  40.056  10.749
74814W        W46343  44.281  14.237  11.958
74815W        W46344  30.919   9.958  13.848
74816W        W46345   0.829  32.060  12.455
74817W        W46346  40.996   1.736  12.940
74818W        W46347   0.969  15.761   2.912
74819W        W46348  23.561  43.692  10.541
74820W        W46349  16.622  40.254   1.963
74821W        W46350  35.877   0.767  10.720
74822W        W46351   0.052  13.682  13.907
74823W        W46352  42.500  15.693  12.131
74824W        W46353   9.426  31.495   5.007
74825W        W46354  42.004  44.582  14.879
74826W        W46355  34.077  36.694  13.744
74827W        W46356  17.533   2.991  11.102
74828W        W46357   2.872  23.009   2.255
74829W        W46358  33.595   4.911  14.887
74830W        W46359  25.837  43.074  13.469
74831W        W46360  26.732  28.011  11.315
74832W        W46361   0.650  36.387  13.846
74833W        W46362  23.982  29.575  13.983
74834W        W46363   0.808   1.028   3.561
74835W        W46364  19.546  32.437   3.671
74836W        W46365   0.402  31.388  10.577
74837W        W46366   9.701  10.133   0.320
74838W        W46367  33.112  29.419   0.833
74839W        W46368  11.841  29.158   2.374
74840W        W46369  31.237  40.860  11.156
74841W        W46370  37.599   2.435  13.031
74842W        W46371   9.680  23.054  14.889
74843W        W46372  32.911   2.170   3.163
74844W        W46373  42.077  36.929   1.735
74845W        W46374  32.684  23.159   3.946
74846W        W46375   9.462  16.717  13.392
74847W        W46376  31.106  38.017  10.781
74848W        W46377  26.569  19.085   2.676
74849W        W46378  14.939  35.103  12.051
74850W        W46379   5.233   4.471   2.801
74851W        W46380  12.417   8.918  12.817
74852W        W46381  35.401  21.585   0.256
74853W        W46382  27.240   4.586  14.368
74854W        W46383  14.781  43.794   4.134
74855W        W46384   0.850  24.222   2.901
74856W        W46385  19.708  22.034  11.200
74857W        W46386  38.493  16.438   1.542
74858W        W46387  39.224  34.633   2.691
74859W        W46388  38.538  40.499   2.388
74860W        W46389  11.321   1.233   0.720
74861W        W46390   3.439  25.704   2.813
74862W        W46391  21.403  31.183  11.516
74863W        W46392   8.834  33.336   2.715
74864W        W46393  11.407   7.735  13.109
74865W        W46394  33.587  29.688   0.950
74866W        W46395  44.077  25.483   0.917
74867W        W46396  44.696  24.768  11.600
74868W        W46397  36.440  14.212   4.332
74869W        W46398  41.063   1.898  11.649
74870W        W46399   6.316  22.732   4.157
74871W        W46400  14.886  34.504  14.376
74872W        W46401  25.923  27.446  12.850
74873W        W46402  16.542  20.530  12.808
74874W        W46403  13.662  41.793  11.637
74875W        W46404  38.260  11.667  13.265
74876W        W46405  27.846  22.011  10.947
74877W        W46406  42.273  13.628   1.791
74878W        W46407  12.696   4.771  10.957
74879W        W46408  38.991  36.536   1.149
74880W        W46409  42.376  31.394   2.757
74881W        W46410   0.977  19.771  13.611
74882W        W46411   5.678  42.018  12.520
74883W        W46412   4.532   5.806  14.862
74884W        W46413   7.142  34.016  10.796
74885W        W46414   1.427  19.169  14.401
74886W        W46415  24.743  43.440   3.426
74887W        W46416   3.914  25.949   2.739
74888W        W46417  42.392  10.179  13.786
74889W        W46418   2.657  41.060  11.047
74890W        W46419  31.158  30.966  11.243
74891W        W46420   4.789  44.944  14.016
74892W        W46421   0.768  17.765   2.795
74893W        W46422  21.677   9.721   3.739
74894W        W46423  40.569  39.402   3.894
74895W        W46424  15.033  38.837  13.434
74896W        W46425  32.638   7.307  13.474
74897W        W46426  22.235  39.174  11.133
74898W        W46427  16.033  16.630  11.618
74899W        W46428  22.697  40.319   2.177
74900W        W46429  28.676  12.591   0.494
74901W        W46430  40.100  22.139  12.459
74902W        W46431  24.150   3.714   0.036
74903W        W46432  34.194  44.063   2.301
74904W        W46433   3.721  21.988   3.734
74905W        W46434  19.971   3.369   0.811
74906W        W46435  25.528  12.865  11.565
74907W        W46436   8.680  20.621  13.006
74908W        W46437   8.869  23.750  12.931
74909W        W46438  40.333  25.146   3.727
74910W        W46439  13.214  19.128  14.840
74911W        W46440  22.370   3.820  14.402
74912W        W46441   6.794  30.939   1.933
74913W        W46442  42.511  33.889   0.827
74914W        W46443  15.342  14.961   4.482
74915W        W46444  42.971  20.978   4.094
74916W        W46445  32.650  17.317   3.004
74917W        W46446  15.455   9.770  12.170
74918W        W46447  17.305  44.861   0.830
74919W        W46448  42.422  14.484   0.042
74920W        W46449  30.026  25.998  12.085
74921W        W46450  20.449  35.084   3.888
74922W        W46451   2.137  19.203  11.473
74923W        W46452  26.608  35.323  11.595
74924W        W46453  13.706   1.565  13.009
74925W        W46454  23.152  15.840   2.808
74926W        W46455  38.649  13.156  12.538
74927W        W46456  43.206  24.459   1.688
74928W        W46457  35.677   3.811  14.793
74929W        W46458   5.309  28.095  13.652
74930W        W46459  29.686  32.467   3.867
74931W        W46460  17.234  11.583   3.845
74932W        W46461  32.272  25.174   0.130
74933W        W46462  29.725  23.943  12.953
74934W        W46463  12.645  16.088  13.142
74935W        W46464  39.843  15.836   1.535
74936W        W46465  15.370  30.349  13.510
74937W        W46466   3.989  36.822   3.180
74938W        W46467  34.868   8.720  14.799
74939W        W46468  20.209  35.083  13.969
74940W        W46469   7.852  31.583   3.369
74941W        W46470   3.480   6.783   2.443
74942W        W46471  19.879   7.304   2.626
74943W        W46472   3.171  13.839  12.217
74944W        W46473  17.913  20.028  12.829
74945W        W46474   4.173  28.672   4.043
74946W        W46475  40.266   5.248   2.859
74947W        W46476  19.328   6.871   3.875
74948W        W46477  29.967   3.293  14.177
74949W        W46478  37.665   6.981  14.802
74950W        W46479  14.279  14.497  12.173
74951W        W46480  15.369  24.185  14.751
74952W        W46481   8.931  21.506  13.009
74953W        W46482   1.431   0.215   3.173
74954W        W46483  23.899  14.706  13.018
74955W        W46484  18.910  15.093   2.341
74956W        W46485  25.016  40.989   4.131
74957W        W46486   6.826  28.190   4.099
74958W        W46487   4.879  27.013   4.482
74959W        W46488  22.080  26.262  11.710
74960W        W46489  16.109   5.383   2.542
74961W        W46490   1.174  26.958   2.822
74962W        W46491   7.835  14.675  12.903
74963W        W46492  16.167   8.938   1.885
74964W        W46493   7.354   1.981  14.098
74965W        W46494   5.879   6.183   1.709
74966W        W46495  14.938  41.860   2.926
74967W        W46496   4.687  40.985   0.274
74968W        W46497  12.115  10.811  10.508
74969W        W46498  40.314  37.015  14.042
74970W        W46499  37.965  24.708  14.440
74971W        W46500  42.565  12.760   1.435
74972W        W46501  33.139   4.978   0.818
74973W        W46502  30.676  22.182   4.946
74974W        W46503  39.133  23.050  14.099
74975W        W46504   2.305  17.175  12.591
74976W        W46505   7.667  28.649   3.072
74977W        W46506  24.765  42.319   2.718
74978W        W46507  15.707   1.756  10.696
74979W        W46508  29.497  12.359  12.121
74980W        W46509  14.648  41.403  11.583
74981W        W46510  18.706  11.676   1.845
74982W        W46511  25.736  22.712   3.128
74983W        W46512   5.851  13.164   1.336
74984W        W46513   9.197  21.346  11.256
74985W        W46514  31.425  21.148  12.897
74986W        W46515  10.489  14.288  14.996
74987W        W46516  26.408   2.113   2.893
74988W        W46517  15.236  13.889   0.093
74989W        W46518  35.491  30.344   0.863
74990W        W46519  19.294  32.923   1.465
74991W        W46520  20.753  34.331   0.648
74992W        W46521   2.495  32.944   3.189
74993W        W46522  24.087  26.649  13.385
74994W        W46523  41.916  32.491  13.260
74995W        W46524  13.712  27.922   3.376
74996W        W46525   6.770  20.581   1.008
74997W        W46526  26.063  38.236   1.850
74998W        W46527  40.876  31.195  13.019
74999W        W46528  24.236  35.070   2.278
75000W        W46529  14.220  22.636  10.349
75001W        W46530  42.256  40.031   4.088
75002W        W46531   9.563  40.452  10.637
75003W        W46532  23.452  20.708  11.472
75004W        W46533  28.924   6.882   3.299
75005W        W46534  20.103   1.716   0.521
75006W        W46535  25.084   6.500  14.124
75007W        W46536  18.387  10.953  12.021
75008W        W46537   3.629  42.567   5.040
75009W        W46538  43.012   1.377  12.973
75010W        W46539  16.212  27.461  12.133
75011W        W46540  26.660  28.469   3.125
75012W        W46541  43.714  41.308   1.293
75013W        W46542   7.469  18.037  11.581
75014W        W46543  39.810  27.642   2.455
75015W        W46544   1.311   9.937   1.806
75016W        W46545   8.431   4.771   0.823
75017W        W46546  35.869   5.233  14.491
75018W        W46547  11.023  18.525   2.774
75019W        W46548  20.247  30.165   4.079
75020W        W46549  17.078   5.955  11.200
75021W        W46550  20.069  35.510  11.244
75022W        W46551  14.745  42.848   1.270
75023W        W46552   7.223  14.366   0.387
75024W        W46553   9.991  19.884  13.786
75025W        W46554  21.163  32.774  10.523
75026W        W46555   4.342  25.627   2.231
75027W        W46556  18.686  28.548  14.179
75028W        W46557  11.594   2.167   3.111
75029W        W46558  28.915   9.370   3.303
75030W        W46559  43.775  27.032  12.866
75031W        W46560  37.816  13.153  13.337
75032W        W46561  43.749  15.877   0.784
75033W        W46562  38.623  41.057  10.718
75034W        W46563  16.758  26.445   3.615
75035W        W46564  27.144  21.188  11.776
75036W        W46565   4.618  40.046  14.638
75037W        W46566  11.713  38.166  13.813
75038W        W46567  36.058  21.968   1.261
75039W        W46568   9.306  25.647  14.952
75040W        W46569  41.201  37.314   5.008
75041W        W46570  19.738   8.322  14.002
75042W        W46571   0.993  11.809   3.338
75043W        W46572  32.767  23.029  12.348
75044W        W46573  21.941   4.866  13.986
75045W        W46574  15.500  38.790  12.535
75046W        W46575  22.743   6.444  11.646
75047W        W46576  12.087  23.681   3.906
75048W        W46577  16.227  25.913   2.004
75049W        W46578  27.713   1.661   1.566
75050W        W46579  19.489  24.753   1.681
75051W        W46580  13.777  17.300   1.347
75052W        W46581   7.088  28.570   1.308
75053W        W46582  30.002  42.446  10.863
75054W        W46583  24.355  29.247  14.113
75055W        W46584   9.797  17.543  12.125
75056W        W46585   9.402   4.830  12.121
75057W        W46586   7.951  27.627   2.901
75058W        W46587  25.527  24.202  14.368
75059W        W46588  14.613  44.145   4.564
75060W        W46589  10.789  30.682   0.484
75061W        W46590  41.548  29.527  11.122
75062W        W46591  29.902  13.816   3.777
75063W        W46592  36.579  16.204  13.496
75064W        W46593  30.983   3.276  12.993
75065W        W46594  40.536  27.574   1.300
75066W        W46595   7.457  25.729   0.993
75067W        W46596  19.138  43.840  14.463
75068W        W46597  20.027   7.519   5.038
75069W        W46598  34.023  29.393   0.828
75070W        W46599  29.634  32.580  14.365
75071W        W46600  25.935  16.813  10.657
75072W        W46601  26.437  43.565  14.894
75073W        W46602  16.343  21.268  12.400
75074W        W46603  19.992  24.617   3.318
75075W        W46604   0.392  29.863  10.714
75076W        W46605  12.819  14.539   3.279
75077W        W46606  38.962  11.897   3.914
75078W        W46607  34.362  15.763   3.751
75079W        W46608  29.197   6.471   3.165
75080W        W46609  30.381  33.822  13.379
75081W        W46610  26.644  23.110   1.679
75082W        W46611  11.295   2.964   3.251
75083W        W46612  43.360  38.513   4.829
75084W        W46613  42.825  12.358  13.480
75085W        W46614   3.532  14.194   2.698
75086W        W46615  21.184   5.658  11.732
75087W        W46616  37.654  14.091   0.989
75088W        W46617  34.423   2.525  10.830
75089W        W46618  25.698  15.642  12.509
75090W        W46619  23.494  33.751   1.964
75091W        W46620  11.008  33.545  11.147
75092W        W46621  34.033  12.336   2.833
75093W        W46622  26.484  17.678   4.190
75094W        W46623  24.269   8.363  10.689
75095W        W46624   7.890   2.835   3.794
75096W        W46625  11.981  32.524  11.575
75097W        W46626   5.801  17.130   0.207
75098W        W46627  22.030  14.616  13.998
75099W        W46628  14.625   9.710   2.687
75100W        W46629   6.163  23.624   1.866
75101W        W46630   7.864  32.587  12.108
75102W        W46631  30.864  36.222   4.899
75103W        W46632  18.570  31.575  13.231
75104W        W46633  40.110  44.151   3.352
75105W        W46634  20.227  12.539   4.564
75106W        W46635  36.833   7.611   4.643
75107W        W46636  44.203  31.924  13.068
75108W        W46637   9.271  19.390   0.244
75109W        W46638  41.490  36.340   5.146
75110W        W46639  18.055  29.457   3.628
75111W        W46640  20.522  18.528  11.419
75112W        W46641  33.527  18.295  11.680
75113W        W46642  27.375  21.400   2.723
75114W        W46643  40.215  32.631  11.834
75115W        W46644  11.628  25.487  11.971
75116W        W46645  42.900   5.825   1.647
75117W        W46646  12.367  44.315   2.790
75118W        W46647  16.033  25.602  14.298
75119W        W46648  13.174  37.330  11.202
75120W        W46649   7.187  18.806   3.990
75121W        W46650  26.567  35.107   1.425
75122W        W46651  41.225  19.195   2.793
75123W        W46652   5.826  25.990  10.822
75124W        W46653  41.137  36.333   0.184
75125W        W46654   4.344  25.989   1.357
75126W        W46655  24.066  29.623   4.941
75127W        W46656  34.302  31.945  12.536
75128W        W46657  44.246   0.417   0.263
75129W        W46658  43.415  32.113  11.107
75130W        W46659  24.552  29.997  11.902
75131W        W46660  39.366  37.895   4.200
75132W        W46661  38.490  33.071  13.878
75133W        W46662  23.148  34.902   1.447
75134W        W46663  15.727  33.864   0.754
75135W        W46664  42.056  29.025  13.759
75136W        W46665  42.877   4.340   4.099
75137W        W46666  30.063  28.611  13.082
75138W        W46667   1.422  39.295   1.232
75139W        W46668   8.207   7.865   0.742
75140W        W46669  17.192  39.900  10.243
75141W        W46670  13.388  41.376  10.739
75142W        W46671  22.764  24.507   2.727
75143W        W46672  19.052  34.494   3.823
75144W        W46673  10.094  43.526   0.268
75145W        W46674   7.083   5.701   2.720
75146W        W46675  38.338  31.609   3.547
75147W        W46676  43.279   6.118  10.708
75148W        W46677   6.904  39.335  13.861
75149W        W46678   5.460  11.425   3.415
75150W        W46679  19.119  26.081  13.756
75151W        W46680  15.783  29.202   0.966
75152W        W46681   6.283  39.788  14.928
75153W        W46682   5.777  38.891   1.040
75154W        W46683   5.861  41.232  14.615
75155W        W46684  25.668  34.835  13.946
75156W        W46685  18.200  25.389   4.116
75157W        W46686   5.918  27.817   2.314
75158W        W46687   5.030  36.372  12.359
75159W        W46688  32.693  31.921  13.650
75160W        W46689  16.251  10.652  13.027
75161W        W46690  29.126  14.383   2.419
75162W        W46691  29.482  23.649   4.183
75163W        W46692  28.377   7.279   1.615
75164W        W46693  35.421  12.755  12.397
75165W        W46694  11.728  10.285  12.851
75166W        W46695  26.122   9.019  11.594
75167W        W46696  42.284  43.509   4.694
75168W        W46697   5.364  18.822   0.425
75169W        W46698   6.411  14.878   1.987
75170W        W46699   6.114  31.436   0.372
75171W        W46700  12.831  16.796  13.552
75172W        W46701   7.588  42.657   4.452
75173W        W46702   5.657   2.461  11.257
75174W        W46703  24.429  34.276  12.944
75175W        W46704  26.051   8.018   3.293
75176W        W46705  26.659  12.132   4.947
75177W        W46706  43.036  32.569   1.439
75178W        W46707  26.591  35.519  11.150
75179W        W46708   4.728  18.677   2.820
75180W        W46709   2.269  38.332   2.589
75181W        W46710  18.574  44.326   2.316
75182W        W46711  35.064  37.405  11.903
75183W        W46712  16.035  30.933  12.367
75184W        W46713  13.191  36.632  12.466
75185W        W46714   8.281  28.579  11.994
75186W        W46715  17.705  32.874   2.603
75187W        W46716   3.541  30.025   4.699
75188W        W46717  29.033  19.472  12.896
75189W        W46718  21.755  42.525  13.871
75190W        W46719  31.653  23.107   0.261
75191W        W46720  24.526  41.619  10.684
75192W        W46721  22.158   0.525  12.639
75193W        W46722  22.964  12.650  14.740
75194W        W46723  18.221   5.103  11.180
75195W        W46724   7.839   3.959  13.515
75196W        W46725  27.546  41.785  13.871
75197W        W46726  13.872  41.543  12.064
75198W        W46727   3.836  16.106   0.937
75199W        W46728  37.923  18.223   1.572
75200W        W46729  20.763  31.507  14.409
75201W        W46730  41.459  28.400  11.318
75202W        W46731  43.726  44.190  13.879
75203W        W46732  20.089  39.511  11.678
75204W        W46733   1.993  31.647   2.795
75205W        W46734  34.031   1.773  13.433
75206W        W46735  42.552   2.443  14.405
75207W        W46736  10.270  31.423   0.400
75208W        W46737  44.254  17.110  14.952
75209W        W46738  42.412  37.600   1.348
75210W        W46739  29.342  11.164   2.773
75211W        W46740  43.975  23.754  14.474
75212W        W46741  37.771  27.561  11.713
75213W        W46742  24.104  38.835  10.544
75214W        W46743  13.282  16.057  13.458
75215W        W46744   4.876  42.291   4.113
75216W        W46745  30.190   2.458  12.988
75217W        W46746   1.547  40.099  14.062
75218W        W46747  13.723   1.373  12.541
75219W        W46748  24.648   3.605  11.159
75220W        W46749  43.109  43.774   4.337
75221W        W46750  38.033  33.248   4.222
75222W        W46751   4.403   9.710  11.404
75223W        W46752   3.653  40.712   4.244
75224W        W46753  24.594  15.210   0.138
75225W        W46754  21.317  23.616   1.721
75226W        W46755  12.614   5.844  13.067
75227W        W46756  29.713  44.628   1.297
75228W        W46757  26.002  15.530   0.396
75229W        W46758  25.820  22.524   1.160
75230W        W46759   4.753   2.362   1.132
75231W        W46760   2.215  21.010   5.012
75232W        W46761  33.820  43.081   1.302
75233W        W46762  14.777  42.515  14.073
75234W        W46763  30.411  27.142  11.735
75235W        W46764   0.775  15.602   1.453
75236W        W46765  34.892   6.141  13.916
75237W        W46766  35.304  14.203  13.191
75238W        W46767  19.450  37.468  14.768
75239W        W46768  44.320  42.432  14.016
75240W        W46769   7.139  23.230  12.502
75241W        W46770  19.795  22.149   2.971
75242W        W46771   9.301  31.998   5.051
75243W        W46772  36.924  25.720  13.366
75244W        W46773  16.497  17.555   1.723
75245W        W46774  30.992  38.904  13.403
75246W        W46775  40.093  30.553   0.990
75247W        W46776  39.363  36.172   1.417
75248W        W46777  35.406  44.341   9.983
75249W        W46778  22.884   0.290  13.302
75250W        W46779  16.257  23.686  13.675
75251W        W46780  44.728  14.308  10.725
75252W        W46781   5.350  42.856  11.403
75253W        W46782  29.109  33.939  10.796
75254W        W46783  10.351  35.398   2.203
75255W        W46784  18.771  35.745   1.465
75256W        W46785  29.924  30.915   0.883
75257W        W46786  28.532   0.036  11.983
75258W        W46787  13.242  20.323  14.001
75259W        W46788  42.582  42.595  14.451
75260W        W46789  31.435  13.855   3.420
75261W        W46790   4.421  14.958   3.334
75262W        W46791  35.399  16.592   1.781
75263W        W46792  36.531  28.329   4.166
75264W        W46793  41.735  17.014  13.552
75265W        W46794  19.113  37.576  10.619
75266W        W46795   7.086   0.450   3.718
75267W        W46796  23.077  22.047  10.482
75268W        W46797   6.955   3.787   1.842
75269W        W46798  20.511   1.516   2.322
75270W        W46799  21.606  42.904   0.247
75271W        W46800   6.786  41.858  14.740
75272W        W46801  25.009  21.610   3.562
75273W        W46802  25.622  14.265  13.657
75274W        W46803  25.943  21.659   4.566
75275W        W46804  13.038  35.400   1.888
75276W        W46805  35.383  31.108  12.778
75277W        W46806   1.758  34.630   2.010
75278W        W46807   2.368   5.443   4.699
75279W        W46808  39.981   9.557  12.444
75280W        W46809  20.651  17.091  12.995
75281W        W46810   5.850  32.089   3.745
75282W        W46811  12.512  40.993  13.734
75283W        W46812  15.864   8.748   4.628
75284W        W46813  21.600  16.274   3.098
75285W        W46814  35.401  43.397   0.032
75286W        W46815  20.416  29.479   9.482
75287W        W46816  38.088  21.052   5.010
75288W        W46817  23.241  35.364   1.689
75289W        W46818  41.527  38.421   2.278
75290W        W46819  35.818   4.747   0.385
75291W        W46820  36.765   2.260   3.571
75292W        W46821   7.370   3.742  11.164
75293W        W46822  20.606  42.867   1.470
75294W        W46823  43.504  24.126  13.395
75295W        W46824   2.266  13.654  13.472
75296W        W46825  11.244  32.296   3.028
75297W        W46826   8.159  12.302   0.222
75298W        W46827  37.052  40.448  14.344
75299W        W46828  10.473  22.934  13.804
75300W        W46829  20.177  36.308  11.680
75301W        W46830  13.559  18.209  11.114
75302W        W46831   8.416  35.330  14.331
75303W        W46832  25.732  20.168   1.288
75304W        W46833  14.541  19.491   1.733
75305W        W46834  32.208  22.244  13.308
75306W        W46835  41.059   3.837  11.393
75307W        W46836  34.419   1.826  12.522
75308W        W46837  16.754   8.833  11.804
75309W        W46838  40.319  23.146   4.343
75310W        W46839  14.696  18.719  12.483
75311W        W46840  20.852  38.604   1.634
75312W        W46841   3.325  16.545   0.446
75313W        W46842  24.756   5.221   4.354
75314W        W46843  22.622  21.120   3.520
75315W        W46844  31.414  14.566   0.416
75316W        W46845  31.912   1.674   4.960
75317W        W46846  19.412  23.387   1.485
75318W        W46847  20.078  22.174  11.532
75319W        W46848  43.885  40.371   4.356
75320W        W46849  14.148  15.944  11.410
75321W        W46850  33.161  12.955   4.218
75322W        W46851  20.611   8.808   0.206
75323W        W46852  26.641  27.267   2.244
75324W        W46853   6.205  44.055  13.921
75325W        W46854   8.477   0.400   0.867
75326W        W46855  41.382  10.335   0.838
75327W        W46856  44.318   6.300  12.999
75328W        W46857  23.097  11.181   4.873
75329W        W46858  26.116  28.460   4.742
75330W        W46859  33.769  24.231  10.151
75331W        W46860  39.976   5.352   4.335
75332W        W46861  34.507  40.023  13.822
75333W        W46862  36.975  12.336   4.160
75334W        W46863  18.144  38.508  10.606
75335W        W46864  17.094  36.353   2.597
75336W        W46865  14.573  12.708   3.171
75337W        W46866  17.789  17.139  12.858
75338W        W46867  18.221  33.549  12.958
75339W        W46868  39.659  12.749   0.263
75340W        W46869   6.811  39.576  12.443
75341W        W46870  33.586  12.394  10.618
75342W        W46871  24.566  24.119   3.823
75343W        W46872  15.853  18.288  12.910
75344W        W46873  39.338  37.771   2.294
75345W        W46874  31.758  25.405  12.183
75346W        W46875  12.261  29.873   1.405
75347W        W46876   7.684  27.789  12.052
75348W        W46877   5.494   3.809  11.499
75349W        W46878  38.546  18.271   4.087
75350W        W46879  19.811   3.161   4.538
75351W        W46880  30.760  12.171   4.595
75352W        W46881   8.756  37.267  11.416
75353W        W46882  29.492  14.879  14.297
75354W        W46883  26.772   3.952  11.235
75355W        W46884  43.414  36.115   9.771
75356W        W46885   8.583   8.858   5.059
75357W        W46886   4.869   6.253  12.572
75358W        W46887  17.539  26.656  11.473
75359W        W46888  40.015  39.713   0.914
75360W        W46889  24.008   1.371   2.708
75361W        W46890  17.454   3.287   0.619
75362W        W46891   5.957  42.733  10.472
75363W        W46892   9.185  41.301  12.109
75364W        W46893  23.756  41.474   0.417
75365W        W46894  22.826  18.587  11.147
75366W        W46895  20.062  39.505  12.576
75367W        W46896  29.949  36.929  12.147
75368W        W46897  32.493   0.897   3.095
75369W        W46898  13.000   2.590  11.458
75370W        W46899  44.792  24.663   3.599
75371W        W46900  24.399  12.352  14.421
75372W        W46901  25.749  41.676   1.718
75373W        W46902  24.172  17.680  10.628
75374W        W46903   8.754  16.165   4.547
75375W        W46904  15.886  39.679  11.577
75376W        W46905   3.590   7.656   0.023
75377W        W46906  40.533  27.842   4.724
75378W        W46907  11.833  36.691   3.314
75379W        W46908  31.007  23.225   4.356
75380W        W46909  17.687  39.266   1.602
75381W        W46910  40.915  27.504  11.423
75382W        W46911  21.689  13.795  12.521
75383W        W46912   5.908  28.574  11.627
75384W        W46913   0.456   0.893  13.113
75385W        W46914  18.688   9.424  13.966
75386W        W46915  40.350  14.249  12.197
75387W        W46916   1.942  33.089  11.274
75388W        W46917  42.084  22.834   5.214
75389W        W46918  33.954   9.255   0.806
75390W        W46919  23.955  41.001  10.656
75391W        W46920  12.402  33.727  12.732
75392W        W46921  12.137   8.308   3.288
75393W        W46922  41.611  29.173   5.097
75394W        W46923  16.166  11.320   0.379
75395W        W46924  23.478  10.803  14.877
75396W        W46925  14.004  37.633  12.016
75397W        W46926  44.283  19.405   2.653
75398W        W46927  24.118  19.263   3.240
75399W        W46928   0.077  31.362   5.522
75400W        W46929   8.438  40.593  13.083
75401W        W46930  13.318  26.533   9.823
75402W        W46931   2.007   0.006   0.494
75403W        W46932   3.410  13.396  11.638
75404W        W46933  14.274  23.221  11.948
75405W        W46934  12.707  37.380   2.882
75406W        W46935  29.080  12.148  14.717
75407W        W46936  15.216   4.326   3.853
75408W        W46937  13.634  18.077   3.679
75409W        W46938  34.974  13.066  13.998
75410W        W46939  42.710   2.235  12.539
75411W        W46940   0.802  40.673   3.668
75412W        W46941  44.157   1.820  14.376
75413W        W46942  39.249  32.569  13.019
75414W        W46943  27.526  41.796  11.953
75415W        W46944  30.087  44.975  13.402
75416W        W46945   7.935   4.224  12.621
75417W        W46946  38.834  36.448  12.939
75418W        W46947  15.101   9.201   2.158
75419W        W46948  39.571  11.804  13.953
75420W        W46949  21.616  38.549   1.951
75421W        W46950   3.688  10.363   3.671
75422W        W46951  30.491   8.624   0.329
75423W        W46952  21.734  28.063   0.955
75424W        W46953  32.967  43.905  11.973
75425W        W46954  32.559  18.960  12.396
75426W        W46955  17.078  16.735  12.386
75427W        W46956  40.766  15.732   3.799
75428W        W46957  39.910  41.794  13.537
75429W        W46958  43.754  36.487   3.322
75430W        W46959  40.462  30.124  12.913
75431W        W46960  32.907   6.224  11.159
75432W        W46961  28.199  20.970  11.647
75433W        W46962   6.218   3.153  11.261
75434W        W46963  14.037  35.043  14.066
75435W        W46964  44.191  16.109   1.980
75436W        W46965  34.120  38.885   2.143
75437W        W46966  30.816  12.209   0.381
75438W        W46967   2.263  18.245  13.355
75439W        W46968  33.501  12.112  14.385
75440W        W46969  39.067  31.879  13.501
75441W        W46970  23.798  41.918   1.367
75442W        W46971  30.278  14.255   3.031
75443W        W46972  30.779  42.901   1.373
75444W        W46973  15.310  23.195   4.576
75445W        W46974  21.798  29.995  11.673
75446W        W46975  32.387  26.175  11.097
75447W        W46976  39.717   5.816   1.567
75448W        W46977  14.055  40.699  12.499
75449W        W46978  35.367  41.861   4.522
75450W        W46979   9.414  41.705   2.639
75451W        W46980  36.672  35.176  12.232
75452W        W46981  44.731   5.387  13.866
75453W        W46982  21.551   0.698  13.001
75454W        W46983  43.281  15.387  10.773
75455W        W46984  42.453  26.231   1.592
75456W        W46985  19.102   2.766   1.487
75457W        W46986  34.383  35.968  12.671
75458W        W46987  37.458  37.570  13.452
75459W        W46988  25.849   7.281   3.195
75460W        W46989  33.002   0.535   0.887
75461W        W46990  35.403  39.030   1.755
75462W        W46991  44.217  11.648  14.151
75463W        W46992   0.871   0.493   4.243
75464W        W46993  26.167  17.816  14.840
75465W        W46994  28.062  13.847   0.553
75466W        W46995  31.447  32.442  14.625
75467W        W46996  17.755  25.408  12.411
75468W        W46997  37.099  19.484  10.799
75469W        W46998  23.947  39.634  13.899
75470W        W46999  32.104  40.706   1.295
75471W        W47000  11.131  13.834   3.943
75472W        W47001  19.513  31.232  11.578
75473W        W47002  28.071  35.614  11.430
75474W        W47003  21.313  14.597   4.544
75475W        W47004  22.730  25.248   3.246
75476W        W47005  40.063  24.541   3.682
75477W        W47006   3.890  39.966   3.219
75478W        W47007  35.158  43.007  14.745
75479W        W47008  29.698  41.087   2.092
75480W        W47009  35.846  12.687   4.501
75481W        W47010  29.352  14.558  13.583
75482W        W47011  17.152   9.385  12.378
75483W        W47012   9.885  29.061   2.371
75484W        W47013   9.634  20.127  11.275
75485W        W47014  16.838  44.301  14.314
75486W        W47015   8.083  15.379  12.095
75487W        W47016  19.577  40.149  11.280
75488W        W47017   0.785   5.745   2.385
75489W        W47018   3.960  29.653  14.907
75490W        W47019  32.377  17.672   2.634
75491W        W47020  43.168  31.476  11.873
75492W        W47021  28.092  42.452   3.117
75493W        W47022  16.192   9.900  14.386
75494W        W47023  40.570   5.213  12.000
75495W        W47024  27.106  31.146  12.493
75496W        W47025  32.380  43.438   0.324
75497W        W47026  31.124  44.832   3.879
75498W        W47027   6.600  43.162  11.112
75499W        W47028   8.893   5.852   2.440
75500W        W47029  30.450   1.046  14.757
75501W        W47030   9.460  20.723   4.185
75502W        W47031  35.952  34.076  13.774
75503W        W47032  13.121  20.821  14.018
75504W        W47033  14.271  19.883  12.932
75505W        W47034  22.584  18.539  12.086
75506W        W47035  37.120  16.694  13.997
75507W        W47036  42.952   7.348   2.822
75508W        W47037  35.967  44.355  14.862
75509W        W47038   2.450   8.234  11.143
75510W        W47039  23.201   7.752  10.813
75511W        W47040  24.308  33.611  12.831
75512W        W47041  23.706  12.837  14.429
75513W        W47042   1.287  18.066  13.402
75514W        W47043   8.788   8.335  12.603
75515W        W47044  23.114  44.280   4.205
75516W        W47045  20.305   4.174  10.569
75517W        W47046  27.690  17.150  11.672
75518W        W47047  13.973  31.468  14.887
75519W        W47048  19.945  32.706  11.095
75520W        W47049  39.438   9.893  11.263
75521W        W47050   8.033  10.926  13.805
75522W        W47051  21.210  13.654  11.913
75523W        W47052  34.172  44.420   1.207
75524W        W47053   1.316  22.462   3.213
75525W        W47054   2.641  24.733   4.143
75526W        W47055   8.438  11.665   4.693
75527W        W47056  13.466  23.323   2.846
75528W        W47057  15.635  19.747  10.632
75529W        W47058   9.124  14.708  12.565
75530W        W47059  22.133  13.214   1.842
75531W        W47060   1.403  37.827  10.793
75532W        W47061  16.988  35.584   0.924
75533W        W47062   0.523  16.253   0.795
75534W        W47063  33.484  10.765   1.706
75535W        W47064  40.527  20.491  11.018
75536W        W47065  39.955  14.600  14.188
75537W        W47066  25.128  11.767   1.931
75538W        W47067  41.074   9.762  12.994
75539W        W47068   1.776   0.963   4.034
75540W        W47069  27.521  16.063   4.565
75541W        W47070   7.097  24.170   2.787
75542W        W47071   6.925  34.042  13.931
75543W        W47072  31.602  32.636   2.796
75544W        W47073   0.056  14.322   3.422
75545W        W47074  31.982  18.181   4.096
75546W        W47075   7.000  19.609  14.311
75547W        W47076  32.020  14.584   1.253
75548W        W47077  19.178  25.233   1.394
75549W        W47078  37.843  27.029   3.854
75550W        W47079  25.901  26.174   0.707
75551W        W47080  24.514  35.918   1.127
75552W        W47081  16.326  25.213   3.341
75553W        W47082  20.522  40.975   0.737
75554W        W47083  13.975  35.604   3.575
75555W        W47084   4.169   3.126   0.599
75556W        W47085  16.513  33.621  14.396
75557W        W47086  34.713  17.732  10.404
75558W        W47087   9.559   3.422   4.769
75559W        W47088  26.174   8.024  13.084
75560W        W47089   8.179  40.921   1.879
75561W        W47090  21.668  32.173  10.525
75562W        W47091  17.748  32.636  12.845
75563W        W47092  26.203  40.500   3.210
75564W        W47093  36.369  30.396  14.890
75565W        W47094  28.650  36.840   2.678
75566W        W47095  22.437  18.078  12.356
75567W        W47096  39.909  22.522   3.655
75568W        W47097  21.987  43.873  14.299
75569W        W47098  41.825   4.145  14.970
75570W        W47099  30.361  22.806   2.348
75571W        W47100  30.480  34.919  12.010
75572W        W47101  31.458  23.115   2.782
75573W        W47102  15.705   0.574  11.546
75574W        W47103   1.506  34.504  11.523
75575W        W47104   0.361   9.266   3.078
75576W        W47105  25.718  41.465   2.372
75577W        W47106  21.904  44.817  12.344
75578W        W47107  25.973  35.521   4.851
75579W        W47108   1.887   3.890   0.233
75580W        W47109  39.740  32.194   2.408
75581W        W47110  13.660  39.878   3.895
75582W        W47111  40.991  34.028  14.862
75583W        W47112  21.599  34.295   1.722
75584W        W47113  43.908   6.938  11.157
75585W        W47114   9.850  36.658   4.618
75586W        W47115   2.311  38.825   0.229
75587W        W47116  43.602  29.663  11.999
75588W        W47117  36.458  37.340   0.007
75589W        W47118  44.344  42.372  14.541
75590W        W47119   1.937  30.844   1.493
75591W        W47120  16.576  29.047  12.301
75592W        W47121   1.478  44.461  10.606
75593W        W47122  22.532  36.533  14.814
75594W        W47123  10.916   7.708  14.452
75595W        W47124  19.192  34.123  11.648
75596W        W47125  12.724  21.392  10.933
75597W        W47126  37.066  40.117   3.645
75598W        W47127  23.443  26.254  11.590
75599W        W47128  17.113  42.501  11.570
75600W        W47129  22.114  23.012   1.771
75601W        W47130  43.615   8.426  14.751
75602W        W47131  20.526   6.392   2.834
75603W        W47132  21.276   5.943  13.472
75604W        W47133  44.075  24.760   4.165
75605W        W47134   8.197  12.796  13.860
75606W        W47135  20.221  24.101  13.560
75607W        W47136  31.419   3.777   2.480
75608W        W47137   8.772  37.575  13.941
75609W        W47138   3.999  37.212   2.442
75610W        W47139  43.445  40.817   1.583
75611W        W47140  32.374   9.290   1.260
75612W        W47141  12.213  23.220   2.634
75613W        W47142  40.951   5.491   0.102
75614W        W47143  40.510  37.126  13.103
75615W        W47144  43.720  28.827  11.069
75616W        W47145  19.128  27.506  12.107
75617W        W47146  34.492  35.437  10.602
75618W        W47147  16.160  21.775  12.472
75619W        W47148   4.158  15.559  13.539
75620W        W47149  21.526  40.453   1.872
75621W        W47150  36.652   7.782   3.277
75622W        W47151  13.577  33.518   1.898
75623W        W47152  18.784  35.113  11.583
75624W        W47153   6.340   2.328   2.777
75625W        W47154  22.992   9.439   3.414
75626W        W47155  39.591  24.577  12.489
75627W        W47156  12.748  17.478   3.279
75628W        W47157   7.391  25.645   2.373
75629W        W47158   6.801   0.402  13.415
75630W        W47159  35.419  29.327  11.801
75631W        W47160  34.685  39.036   3.105
75632W        W47161  33.240  25.090   0.293
75633W        W47162  14.606  34.660   3.706
75634W        W47163  10.287  24.080  10.066
75635W        W47164  44.400  33.224  13.291
75636W        W47165  13.831  26.168  13.117
75637W        W47166  16.815   1.222   2.431
75638W        W47167  33.443  23.256   1.641
75639W        W47168  28.740  31.623   0.818
75640W        W47169  13.694   6.957  13.562
75641W        W47170  28.074   2.736  12.956
75642W        W47171  20.999  33.899   0.474
75643W        W47172  16.386  30.455  13.468
75644W        W47173  35.588  40.783  13.056
75645W        W47174   9.698  43.587   1.115
75646W        W47175   3.969  12.110  12.511
75647W        W47176  29.542  14.011   1.591
75648W        W47177  37.478  20.774   2.379
75649W        W47178  21.177   0.976  12.111
75650W        W47179  31.102  34.571   2.702
75651W        W47180   8.520  43.262  13.668
75652W        W47181  33.917  15.221   1.110
75653W        W47182  20.519  31.723   4.961
75654W        W47183  32.834  42.932  11.437
75655W        W47184   4.392  29.387  12.306
75656W        W47185  42.127  13.269   0.603
75657W        W47186  29.875  16.395  10.127
75658W        W47187   7.161  39.875   0.882
75659W        W47188  37.786  33.914   3.718
75660W        W47189  22.502  43.034  10.950
75661W        W47190  32.682  18.228  14.587
75662W        W47191  41.513  29.522  13.384
75663W        W47192  35.777  23.189   1.218
75664W        W47193  18.267  28.941   2.706
75665W        W47194  42.376   3.402   2.323
75666W        W47195   9.485   7.738   3.383
75667W        W47196   4.783  21.531  10.683
75668W        W47197  27.954  28.583   1.692
75669W        W47198   7.091  24.020   1.801
75670W        W47199  38.528   6.853  13.429
75671W        W47200   2.470  35.479   1.691
75672W        W47201  32.738  40.644  14.191
75673W        W47202  38.539  25.708  13.507
75674W        W47203  22.462  23.586  12.907
75675W        W47204  32.327  22.509  14.961
75676W        W47205  44.007   1.377   4.615
75677W        W47206  11.258  25.903   1.239
75678W        W47207  33.099  44.943  11.060
75679W        W47208  22.573  26.119  14.580
75680W        W47209  31.933  29.090   0.797
75681W        W47210  19.944  13.294   0.024
75682W        W47211  14.873   5.328   4.037
75683W        W47212  25.657  36.193   2.831
75684W        W47213   3.921  27.438   0.888
75685W        W47214   1.677  28.452  13.392
75686W        W47215  14.258  42.482  13.260
75687W        W47216  40.409  28.410   1.542
75688W        W47217  31.387  17.070  14.539
75689W        W47218   5.973  39.934   1.446
75690W        W47219  39.803  43.372  10.814
75691W        W47220   0.215  19.553   4.425
75692W        W47221   6.489  33.943   4.966
75693W        W47222  21.975  21.626  11.129
75694W        W47223  28.326  32.127   4.078
75695W        W47224  39.783  37.050  13.765
75696W        W47225  20.321  28.371   0.349
75697W        W47226   0.837  14.400  14.929
75698W        W47227   0.309  11.216   4.162
75699W        W47228  39.493  39.906  11.196
75700W        W47229  24.094  15.584   3.137
75701W        W47230  40.001  44.818   2.565
75702W        W47231  41.949   7.381  10.787
75703W        W47232  17.528  36.285  11.699
75704W        W47233   9.480  34.976  11.496
75705W        W47234   1.589  10.238  10.639
75706W        W47235  12.037  22.034   1.790
75707W        W47236  29.443   7.136   1.367
75708W        W47237  32.989  10.622  14.047
75709W        W47238  14.455  22.798  11.078
75710W        W47239   5.929  12.844   4.164
75711W        W47240  11.779  16.604   1.285
75712W        W47241  16.157  42.077  12.902
75713W        W47242   8.967   3.879   0.548
75714W        W47243  22.236  16.844   2.002
75715W        W47244  24.587  33.838   1.074
75716W        W47245   4.822  34.914   2.850
75717W        W47246  31.075  30.045  11.309
75718W        W47247  42.888  15.200   4.372
75719W        W47248  10.792  16.788  11.633
75720W        W47249  38.434  29.476  11.101
75721W        W47250   8.879  11.245   2.728
75722W        W47251  32.704   0.047   2.331
75723W        W47252   6.510  25.162   1.403
75724W        W47253  30.068  40.824  14.667
75725W        W47254   6.754  29.017   4.694
75726W        W47255  10.366  39.079   4.660
75727W        W47256   8.266  24.549   4.633
75728W        W47257  16.125  13.781  11.461
75729W        W47258   3.912  32.026  11.607
75730W        W47259   4.357  38.462  11.491
75731W        W47260  21.140  29.752   5.114
75732W        W47261  42.439   2.127  10.444
75733W        W47262  18.711  39.896   0.832
75734W        W47263  36.843  29.002  11.336
75735W        W47264  29.409   5.199  11.054
75736W        W47265  33.119  26.173   1.802
75737W        W47266  36.069  27.874  12.108
75738W        W47267  40.093  18.270   2.133
75739W        W47268   3.247   5.794  11.648
75740W        W47269  21.030  14.680  12.047
75741W        W47270  27.885  33.662  11.703
75742W        W47271  28.013  25.162  14.591
75743W        W47272  10.778  25.938   1.799
75744W        W47273   2.979   5.774  14.091
75745W        W47274  38.331   4.860   1.893
75746W        W47275  43.263  43.335  10.578
75747W        W47276  30.095  23.312   0.035
75748W        W47277   2.801  38.592   1.345
75749W        W47278   3.305  24.956  13.032
75750W        W47279  31.549  40.011   4.519
75751W        W47280   6.687  26.481  12.414
75752W        W47281  27.072  14.094   1.343
75753W        W47282   9.857  17.864  14.880
75754W        W47283  41.375  37.561   2.311
75755W        W47284  30.619  11.121   1.855
75756W        W47285  19.327  25.432   0.493
75757W        W47286  18.206  39.901  14.541
75758W        W47287  43.025   4.389  11.663
75759W        W47288  26.777  14.510   3.472
75760W        W47289  17.583  37.002  12.015
75761W        W47290   8.234  32.118   3.913
75762W        W47291  23.943  40.113  10.808
75763W        W47292  12.202   7.027  14.475
75764W        W47293   6.833   3.791   0.249
75765W        W47294  34.612   0.988   1.854
75766W        W47295  14.537  33.603  11.920
75767W        W47296  10.127  10.239  10.159
75768W        W47297  36.241  31.010  11.677
75769W        W47298  22.510  41.861  13.870
75770W        W47299  25.717  11.175  14.432
75771W        W47300   5.476  41.873  12.052
75772W        W47301  42.291   0.006  14.902
75773W        W47302  42.263  39.484   2.646
75774W        W47303  22.245  16.254  12.920
75775W        W47304  20.557   9.759   0.297
75776W        W47305  38.811   5.654  11.813
75777W        W47306  26.714  40.451   2.315
75778W        W47307  10.206  40.606   1.421
75779W        W47308  29.153  25.032   5.035
75780W        W47309  42.682  42.248  14.895
75781W        W47310  22.507  13.302  13.624
75782W        W47311  19.651   4.371  14.787
75783W        W47312  30.399  18.973   0.852
75784W        W47313  33.990  38.483  14.897
75785W        W47314   2.229   2.520   4.670
75786W        W47315  44.297  20.368  10.687
75787W        W47316   3.885  16.286  12.445
75788W        W47317   4.255  35.895   4.584
75789W        W47318  42.323  29.194  10.725
75790W        W47319   3.065  18.688   4.246
75791W        W47320  24.664   2.458   0.443
75792W        W47321  24.656  11.317  11.419
75793W        W47322  41.842   4.972   5.192
75794W        W47323  14.225  24.951   4.697
75795W        W47324  12.769  21.495   3.820
75796W        W47325   1.003  42.324  14.928
75797W        W47326   4.601   1.327  12.942
75798W        W47327  28.141  39.771  10.850
75799W        W47328  10.107  38.428  13.958
75800W        W47329  31.555   6.701  12.527
75801W        W47330  39.405  39.511   1.877
75802W        W47331  39.625  24.817  14.223
75803W        W47332   6.809   0.465   3.123
75804W        W47333  27.162   7.409  14.085
75805W        W47334  33.662   1.393  13.406
75806W        W47335  29.722  44.281   1.654
75807W        W47336  43.248   7.749  11.146
75808W        W47337  23.514  24.160   2.221
75809W        W47338  11.962   4.626  10.416
75810W        W47339  33.970  24.393  10.622
75811W        W47340  40.159  42.523   1.815
75812W        W47341  31.076  37.825   4.099
75813W        W47342  44.914  27.286   3.736
75814W        W47343   0.003  42.343  13.478
75815W        W47344  17.517  12.157   1.708
75816W        W47345  34.312  32.617  12.133
75817W        W47346  30.774  24.572  12.308
75818W        W47347   8.281   3.655  13.370
75819W        W47348  41.981  20.577   1.303
75820W        W47349  27.107  16.860   1.733
75821W        W47350  34.870  20.579   1.232
75822W        W47351  12.545  24.441   0.473
75823W        W47352  16.245  43.340   0.714
75824W        W47353  26.126  22.536  11.486
75825W        W47354  31.625   4.744   3.394
75826W        W47355  43.192  35.892   1.164
75827W        W47356   4.802   9.821  13.195
75828W        W47357  10.145  13.282   1.066
75829W        W47358   1.001   1.869   1.456
75830W        W47359  22.831   7.105   3.457
75831W        W47360  33.667  20.077   1.872
75832W        W47361   7.791   9.092  12.000
75833W        W47362  38.996  27.900   2.729
75834W        W47363  13.866   0.670  10.206
75835W        W47364  43.413   5.889   2.928
75836W        W47365  43.909  12.130   0.851
75837W        W47366  34.022   4.492   3.749
75838W        W47367  11.725  13.083   0.335
75839W        W47368   1.728  43.855  10.685
75840W        W47369  39.118  35.482   0.255
75841W        W47370  40.565  30.693   0.291
75842W        W47371  31.570  11.543  12.954
75843W        W47372  43.222   0.745   3.568
75844W        W47373   7.986  29.222   0.336
75845W        W47374   3.534  41.005  14.188
75846W        W47375  10.911  15.355   5.052
75847W        W47376  33.822  42.475   2.486
75848W        W47377  39.556   3.063   5.071
75849W        W47378  41.519  41.825  14.306
75850W        W47379  35.035   4.272   3.844
75851W        W47380  16.670  12.906  12.385
75852W        W47381   3.656  19.818  12.045
75853W        W47382  40.071   5.641  13.472
75854W        W47383  15.150  27.051   3.354
75855W        W47384  43.940  23.225  10.783
75856W        W47385  41.981  24.946   1.686
75857W        W47386  27.844  42.813   2.807
75858W        W47387  31.287  12.168   4.569
75859W        W47388  34.866  40.440  14.040
75860W        W47389   2.722  28.542  14.910
75861W        W47390  12.633   5.540  14.466
75862W        W47391  35.848  28.587  11.633
75863W        W47392  11.228  38.453  13.354
75864W        W47393  35.570  43.344   4.791
75865W        W47394  26.962   5.949   0.382
75866W        W47395  19.328  28.981   3.696
75867W        W47396  39.076  10.464   2.165
75868W        W47397  13.608  34.739   2.231
75869W        W47398   0.335  19.208   0.966
75870W        W47399  42.841  30.411  12.074
75871W        W47400  11.717  25.825  14.925
75872W        W47401  20.585  21.111  13.550
75873W        W47402  18.095   3.373   2.309
75874W        W47403  20.759  18.836  14.902
75875W        W47404  44.861  17.575   1.253
75876W        W47405  40.328   4.127   3.740
75877W        W47406   8.134   5.202   0.846
75878W        W47407  31.619  22.225   3.666
75879W        W47408   4.429  23.601   3.611
75880W        W47409  27.616  16.825  12.584
75881W        W47410  32.831  36.629  13.364
75882W        W47411  38.456  14.127   2.716
75883W        W47412   6.837  25.335  11.881
75884W        W47413  18.286  34.504   1.205
75885W        W47414  10.275   0.534  13.851
75886W        W47415  15.428  17.528   0.181
75887W        W47416  11.672  32.465   1.747
75888W        W47417  19.681  20.044  11.951
75889W        W47418   5.897  37.086   0.984
75890W        W47419   3.725  25.583   4.162
75891W        W47420  25.493   6.644   2.410
75892W        W47421  20.158   6.632  11.619
75893W        W47422  12.202  31.881  12.968
75894W        W47423   0.038   8.644   3.349
75895W        W47424  41.337   7.170  11.628
75896W        W47425   7.402  18.503   1.796
75897W        W47426  21.238  30.916  11.912
75898W        W47427   6.733  13.366  10.739
75899W        W47428  25.025  18.277  14.760
75900W        W47429  16.789   3.870  12.457
75901W        W47430  21.935  25.095  11.445
75902W        W47431  21.313  36.943   4.196
75903W        W47432  20.551  34.405  14.762
75904W        W47433   2.263  25.145  14.870
75905W        W47434   5.470  21.476  14.477
75906W        W47435  20.919  30.390  10.669
75907W        W47436  15.295  38.332  11.546
75908W        W47437  10.281   6.715   4.217
75909W        W47438   4.291   4.191  10.425
75910W        W47439  35.652  41.334   0.865
75911W        W47440  37.458  10.815  13.523
75912W        W47441  33.834   4.398  13.768
75913W        W47442   0.354  18.684  12.476
75914W        W47443  19.260  13.385  12.957
75915W        W47444  36.506  43.073  14.557
75916W        W47445  34.946   5.458   0.201
75917W        W47446  37.034  43.496   0.967
75918W        W47447  15.333  30.024   0.782
75919W        W47448  27.443  42.543   0.237
75920W        W47449  41.236  11.638  11.242
75921W        W47450  18.079  39.776  12.171
75922W        W47451  29.129   8.574   3.218
75923W        W47452  13.370  12.495   1.942
75924W        W47453  14.098   7.283   0.271
75925W        W47454  15.473  39.426  11.818
75926W        W47455  33.307  43.287   4.167
75927W        W47456   3.745  17.712  14.859
75928W        W47457  24.492   0.757   3.708
75929W        W47458  30.113  35.672  11.051
75930W        W47459   6.316  24.789   3.914
75931W        W47460   8.745  28.686   2.274
75932W        W47461  22.702  22.541   1.191
75933W        W47462  29.593   7.954  13.797
75934W        W47463   5.619  39.056   2.888
75935W        W47464  23.115   4.230   0.364
75936W        W47465  38.363  44.439  14.257
75937W        W47466   3.740  19.801   3.170
75938W        W47467   6.679  40.501   1.189
75939W        W47468  37.858  29.668   3.394
75940W        W47469  14.377  32.600  12.191
75941W        W47470   3.746   2.848   3.648
75942W        W47471  26.578  14.755  14.475
75943W        W47472  29.417   7.208  14.423
75944W        W47473  32.308   5.284  11.589
75945W        W47474  26.221  13.283   3.287
75946W        W47475  13.761  14.118   4.912
75947W        W47476  28.234   6.906   2.733
75948W        W47477  18.722  12.709   3.672
75949W        W47478  42.892  17.968  11.235
75950W        W47479  15.544  11.321  10.666
75951W        W47480  30.434   1.543   3.389
75952W        W47481  41.663  38.013   3.660
75953W        W47482  41.840  24.324   3.548
75954W        W47483  12.154   4.798   3.239
75955W        W47484  35.917   1.524   2.715
75956W        W47485  32.404  32.319  11.743
75957W        W47486  19.237  22.766  11.181
75958W        W47487  10.966  11.901   4.390
75959W        W47488  43.067  30.326   1.607
75960W        W47489  26.557  25.163  14.792
75961W        W47490  30.178  17.289   0.714
75962W        W47491  32.054   7.770  12.870
75963W        W47492  33.191  23.053   0.177
75964W        W47493   9.226   4.372  10.664
75965W        W47494  17.196  41.960  13.122
75966W        W47495  37.417  34.539   4.625
75967W        W47496  42.797  10.706   1.580
75968W        W47497  40.493  29.873   0.991
75969W        W47498  14.026  15.194   3.959
75970W        W47499  44.301  36.554   0.439
75971W        W47500   9.358   0.759  14.228
75972W        W47501  31.547  12.657  13.725
75973W        W47502  11.691  24.711  13.655
75974W        W47503  43.908  12.104  11.022
75975W        W47504   8.371  16.093  14.788
75976W        W47505   7.528  31.119  13.227
75977W        W47506  25.557  17.239   2.778
75978W        W47507  20.418  38.848   2.287
75979W        W47508  16.658  36.676  13.405
75980W        W47509  13.116  30.607   2.930
75981W        W47510  22.085  19.619   3.179
75982W        W47511   4.199  29.474   0.343
75983W        W47512  15.151   1.523   2.115
75984W        W47513   8.435  34.901  11.443
75985W        W47514  16.284   1.164   2.349
75986W        W47515  37.985  16.253  12.872
75987W        W47516  37.987  16.766  14.348
75988W        W47517   6.638   8.805  11.923
75989W        W47518  15.671  42.054  11.621
75990W        W47519  43.016  10.663  12.510
75991W        W47520  14.424  10.691  12.735
75992W        W47521  13.103  44.329   0.396
75993W        W47522   3.313  32.413  12.337
75994W        W47523  13.062  14.710   2.304
75995W        W47524  26.004  14.215  14.910
75996W        W47525  27.578  24.491  12.329
75997W        W47526   8.089  39.294   2.343
75998W        W47527  32.626  28.280  12.522
75999W        W47528  20.362   6.819  10.806
76000W        W47529  42.465  33.608   1.286
76001W        W47530   9.865  28.163   0.892
76002W        W47531  18.505  12.159   4.524
76003W        W47532  29.433  15.805  12.877
76004W        W47533  25.967  33.099  13.415
76005W        W47534  43.860  37.961   2.848
76006W        W47535   4.955  16.557   0.097
76007W        W47536  30.567  11.757  12.110
76008W        W47537  22.727  23.540   4.099
76009W        W47538  37.911   5.203  13.054
76010W        W47539   8.125  43.937   2.577
76011W        W47540  16.038  44.963  10.014
76012W        W47541  15.242  14.187  10.666
76013W        W47542  22.778  18.392  14.477
76014W        W47543   2.908  40.986   1.876
76015W        W47544   6.705   9.129  14.371
76016W        W47545   5.188  15.585   1.783
76017W        W47546  18.522  43.071   0.039
76018W        W47547  19.988  37.099   2.228
76019W        W47548  21.222  19.248  13.279
76020W        W47549   9.335  43.022   3.221
76021W        W47550  26.143  40.991  11.516
76022W        W47551  18.693   4.788  14.770
76023W        W47552  29.386   7.452  10.374
76024W        W47553  26.534  33.657   1.874
76025W        W47554  23.550  31.408   0.185
76026W        W47555  29.459  10.244  13.447
76027W        W47556   6.519  37.744  12.113
76028W        W47557  42.255  17.379   0.385
76029W        W47558   6.337  37.749  13.382
76030W        W47559  27.050  34.480   1.879
76031W        W47560  29.194  27.280   1.818
76032W        W47561  44.226  34.131   3.756
76033W        W47562  32.964   3.471   3.805
76034W        W47563  29.021  29.572  13.925
76035W        W47564  21.566  18.020   3.586
76036W        W47565   1.737  36.122   2.410
76037W        W47566  40.892   1.613  10.754
76038W        W47567  26.688  41.978   0.830
76039W        W47568  26.916  16.562  10.617
76040W        W47569  16.379  36.056   1.307
76041W        W47570   1.801  38.522   1.840
76042W        W47571   1.851  16.828  10.571
76043W        W47572  16.276  24.785  12.727
76044W        W47573  25.786  43.588  13.524
76045W        W47574  40.205  40.043  11.653
76046W        W47575  17.516   4.433  12.943
76047W        W47576  36.311  26.674  11.135
76048W        W47577   3.315  19.269  14.913
76049W        W47578  36.439  14.612  11.059
76050W        W47579  31.471  35.482   1.881
76051W        W47580  18.329  43.826  12.073
76052W        W47581  25.286  26.926   2.303
76053W        W47582  12.779  23.158   1.938
76054W        W47583  32.549  22.126   0.198
76055W        W47584  41.208   7.887  11.131
76056W        W47585  33.354  16.910  10.666
76057W        W47586   5.514  41.163   3.298
76058W        W47587  20.773  44.242  12.811
76059W        W47588  41.315   1.116   3.478
76060W        W47589   4.241  10.383   0.438
76061W        W47590  25.525  27.594   4.275
76062W        W47591  30.720  25.194   2.395
76063W        W47592  28.603  20.169  11.469
76064W        W47593  24.243  29.993  14.079
76065W        W47594  22.116  11.411  11.121
76066W        W47595  35.157  33.065  13.571
76067W        W47596  16.129  22.504  13.352
76068W        W47597  24.763  40.455   4.540
76069W        W47598  18.223  43.695   0.393
76070W        W47599  26.432   0.733  13.330
76071W        W47600   0.320  23.688   3.879
76072W        W47601  30.495  39.391  13.949
76073W        W47602   3.787  32.295   3.825
76074W        W47603  20.732  22.292  14.994
76075W        W47604  25.037   3.760  13.770
76076W        W47605  31.629  39.996  10.989
76077W        W47606   5.109   0.212  11.169
76078W        W47607  22.032   3.341  10.499
76079W        W47608  43.363  23.743   3.081
76080W        W47609  29.711  22.712   0.370
76081W        W47610  31.582   4.778  14.370
76082W        W47611   6.257  19.315  10.695
76083W        W47612  23.786  36.844  10.704
76084W        W47613  19.412  33.336   4.228
76085W        W47614   4.633   6.728  13.311
76086W        W47615  35.407  21.144  13.982
76087W        W47616   2.828   8.692  12.946
76088W        W47617   1.426  17.566  13.418
76089W        W47618  19.748  17.335   4.567
76090W        W47619  41.293  10.244  11.716
76091W        W47620  42.739  27.444   2.842
76092W        W47621   3.042   4.919   3.804
76093W        W47622  44.465   3.307   2.907
76094W        W47623   7.151  38.007  11.014
76095W        W47624   7.682   8.478   1.221
76096W        W47625  11.356  32.946   4.631
76097W        W47626  24.231   3.753  13.024
76098W        W47627  12.738  12.690  10.962
76099W        W47628  26.549  39.858   3.772
76100W        W47629   3.801  21.892   1.818
76101W        W47630  23.697  31.664   2.236
76102W        W47631  16.568  11.840  12.600
76103W        W47632   3.474  11.750   3.663
76104W        W47633  20.350   1.879   5.016
76105W        W47634  42.299  19.952   1.760
76106W        W47635  33.133  44.058   4.104
76107W        W47636  21.762  17.540  12.229
76108W        W47637  32.734  25.898   9.573
76109W        W47638  27.106  22.235   3.692
76110W        W47639  33.098  27.377   2.672
76111W        W47640  23.072   2.383  12.381
76112W        W47641  17.170  23.577   0.364
76113W        W47642  27.408   3.823  10.613
76114W        W47643  42.025  18.827   2.165
76115W        W47644  12.261   1.490   1.828
76116W        W47645  32.083  26.701  10.770
76117W        W47646  40.194   1.453  12.381
76118W        W47647  20.747  17.007   3.748
76119W        W47648  38.927   7.888  10.573
76120W        W47649  17.105  34.947   4.024
76121W        W47650  14.279   1.097   2.396
76122W        W47651  41.041  44.620   0.972
76123W        W47652  39.927  25.485  13.409
76124W        W47653   9.795  30.825   2.924
76125W        W47654   5.380  34.194   0.912
76126W        W47655  29.588  11.624  10.344
76127W        W47656  31.067  11.852  11.964
76128W        W47657  24.105  11.363   3.878
76129W        W47658  42.493   0.542  12.973
76130W        W47659   4.441  29.142  11.082
76131W        W47660  33.380  29.111  10.798
76132W        W47661  16.715  19.062  12.904
76133W        W47662   8.791   7.908   1.501
76134W        W47663  18.215  28.214   4.147
76135W        W47664  36.606  37.552  14.075
76136W        W47665  32.982  21.202  10.777
76137W        W47666  31.660   1.894  10.703
76138W        W47667  33.891   1.065   2.308
76139W        W47668  22.944  25.702   3.737
76140W        W47669  20.564   2.822   1.151
76141W        W47670  34.036   8.600   3.656
76142W        W47671   2.529  33.092  11.607
76143W        W47672  11.309  41.106  11.464
76144W        W47673  39.104  17.675   0.469
76145W        W47674  19.212   2.838  11.647
76146W        W47675  34.927  35.946  12.902
76147W        W47676  32.968   9.972   0.035
76148W        W47677   9.406  18.801  13.975
76149W        W47678  30.408  23.598   1.707
76150W        W47679   0.449  12.281  11.078
76151W        W47680  11.364  27.079  10.615
76152W        W47681  19.219  43.955  13.481
76153W        W47682   4.560  25.706   4.598
76154W        W47683  24.952  13.243   1.424
76155W        W47684  24.583  17.796   3.281
76156W        W47685  42.785   8.608   3.996
76157W        W47686  36.083  14.953   3.386
76158W        W47687  23.063   0.789   2.885
76159W        W47688  29.080  36.564   4.247
76160W        W47689  40.260  38.104  14.956
76161W        W47690  21.812   7.300  14.796
76162W        W47691   1.802  13.705   1.895
76163W        W47692  36.230  20.095  14.854
76164W        W47693  29.876  44.533  14.195
76165W        W47694  37.966  17.093  11.981
76166W        W47695   5.682  13.576  14.319
76167W        W47696  35.626  32.411   1.040
76168W        W47697   9.629  27.810  13.948
76169W        W47698  11.753   3.682  14.467
76170W        W47699  37.559   3.959  14.835
76171W        W47700  26.011  24.055   4.396
76172W        W47701  24.194  16.655  10.397
76173W        W47702  27.088   2.910   4.984
76174W        W47703   1.696  26.582  14.577
76175W        W47704  14.137   2.439   3.664
76176W        W47705  35.070  34.509   0.142
76177W        W47706   7.284  25.459   3.230
76178W        W47707  39.840  25.631   4.685
76179W        W47708   1.480  22.679  13.343
76180W        W47709  36.926  35.753  12.421
76181W        W47710  32.911  35.063   2.676
76182W        W47711  37.618  14.171   4.115
76183W        W47712  22.500  16.727   2.425
76184W        W47713  27.634  29.107  13.351
76185W        W47714   7.330  31.941  12.453
76186W        W47715  28.517  28.952   1.640
76187W        W47716  29.504  14.513   0.217
76188W        W47717  34.183  18.021   4.210
76189W        W47718  12.661  20.023   3.700
76190W        W47719  22.619  16.843   3.316
76191W        W47720   1.719   3.468   2.270
76192W        W47721  17.231  44.512  10.209
76193W        W47722  32.171  19.045   3.258
76194W        W47723   8.642   6.230   2.107
76195W        W47724  37.452   7.874  12.920
76196W        W47725  16.827  40.920   3.654
76197W        W47726  30.419  15.199  14.515
76198W        W47727  33.383  40.547   4.652
76199W        W47728  44.233  35.846   1.192
76200W        W47729  31.184  23.088   3.748
76201W        W47730  38.566  28.419   1.680
76202W        W47731   6.832  26.698   3.209
76203W        W47732  22.454  26.080   2.145
76204W        W47733  41.595  29.122   1.222
76205W        W47734  41.827  35.318  14.859
76206W        W47735  35.794  36.040  11.551
76207W        W47736  43.192  24.698   4.059
76208W        W47737  41.846  37.383  12.794
76209W        W47738  32.817  15.611   4.836
76210W        W47739   8.940  22.612   2.715
76211W        W47740  32.415  36.309  10.693
76212W        W47741  14.658  40.481  10.885
76213W        W47742  26.573   5.421   2.870
76214W        W47743   0.395  18.096   0.122
76215W        W47744  18.349   0.889  13.858
76216W        W47745  26.405  31.858   5.058
76217W        W47746  26.919  30.356  14.480
76218W        W47747  41.450  17.683  12.454
76219W        W47748  12.801  33.702  11.716
76220W        W47749   5.043   8.694   0.429
76221W        W47750   8.244   2.600   1.152
76222W        W47751   1.875  16.866   4.139
76223W        W47752  42.724  31.731   3.178
76224W        W47753  40.372  21.796   3.723
76225W        W47754  12.805  18.150   2.635
76226W        W47755   9.276  19.049   2.448
76227W        W47756   5.889  30.539  10.816
76228W        W47757  15.826  20.513  11.158
76229W        W47758  40.857  19.733   3.280
76230W        W47759  18.281  15.123  12.870
76231W        W47760  38.878  24.433   3.241
76232W        W47761   0.712  44.028   4.128
76233W        W47762  20.603  30.610  14.461
76234W        W47763  16.667   3.055  14.063
76235W        W47764  42.901  14.258   4.598
76236W        W47765   8.230  19.095  12.120
76237W        W47766  24.156   7.126   2.985
76238W        W47767  40.778   6.762  12.598
76239W        W47768   8.236  24.420   4.129
76240W        W47769  20.212  21.408  13.734
76241W        W47770  21.704   5.697   2.789
76242W        W47771  13.775  42.008  11.174
76243W        W47772  13.011   6.603  14.900
76244W        W47773   6.010  30.573   0.910
76245W        W47774   9.177  38.464  11.726
76246W        W47775   9.287  31.657   0.039
76247W        W47776  21.390  40.487  12.967
76248W        W47777  34.963   0.916   2.230
76249W        W47778  21.996  26.761  11.587
76250W        W47779  27.220  13.387   0.228
76251W        W47780  35.302  37.111   1.173
76252W        W47781  41.855   5.658   3.686
76253W        W47782  26.017  39.333  14.056
76254W        W47783   9.192  21.757   3.053
76255W        W47784   4.829   9.860  11.682
76256W        W47785   2.841   0.738   2.451
76257W        W47786  15.867  40.698   0.248
76258W        W47787  21.844   2.224  13.297
76259W        W47788  42.289  35.011   0.287
76260W        W47789  14.262  34.448  12.315
76261W        W47790  10.244  39.836  11.272
76262W        W47791  32.638  12.595   1.056
76263W        W47792  33.878  30.373  12.611
76264W        W47793  23.304  26.427   1.207
76265W        W47794  41.966  23.614  11.684
76266W        W47795  22.653  27.911  13.910
76267W        W47796  34.029  31.247   1.264
76268W        W47797   2.364  44.993  10.553
76269W        W47798  10.314  28.125  14.899
76270W        W47799  36.890  13.800   3.592
76271W        W47800  31.611  28.456   2.188
76272W        W47801  19.126  23.163   3.903
76273W        W47802  15.717  39.213   0.823
76274W        W47803  19.280  15.376   4.534
76275W        W47804  42.775  11.683   0.751
76276W        W47805  34.996  24.716  11.810
76277W        W47806  17.726  31.353  10.618
76278W        W47807  26.148   7.084  11.509
76279W        W47808  30.484   0.445  12.123
76280W        W47809  36.490   5.279   2.786
76281W        W47810  29.200  14.357   3.282
76282W        W47811   5.319   4.832   3.363
76283W        W47812  39.948  44.424   3.768
76284W        W47813  33.111  32.037   1.766
76285W        W47814  44.318   6.273   3.869
76286W        W47815  29.917   1.490   3.238
76287W        W47816  44.165   1.377   0.176
76288W        W47817  40.618  44.306  10.733
76289W        W47818  31.514  23.127   0.778
76290W        W47819  21.149  11.242  13.292
76291W        W47820  36.114   6.286  13.340
76292W        W47821  15.848  43.445  12.540
76293W        W47822   4.593   2.002  13.955
76294W        W47823  35.100   8.931   0.234
76295W        W47824  28.614   3.213  10.843
76296W        W47825  15.599  41.257  14.309
76297W        W47826  18.549  42.814   9.873
76298W        W47827  29.027  30.523   2.375
76299W        W47828  24.532  42.231   1.793
76300W        W47829   8.860  30.762  13.524
76301W        W47830   2.359  32.218   0.464
76302W        W47831  34.464  11.403   3.915
76303W        W47832  36.558   6.361   2.289
76304W        W47833  16.906  31.207   0.560
76305W        W47834   6.432  25.663   4.027
76306W        W47835  40.283   5.967  13.057
76307W        W47836  24.191   2.313   2.283
76308W        W47837  44.770  11.822  13.463
76309W        W47838  41.788   2.208   1.587
76310W        W47839  41.118  24.086  10.767
76311W        W47840   3.342  29.900   4.230
76312W        W47841  12.245  16.809  12.934
76313W        W47842  39.307   6.681   4.585
76314W        W47843  15.301  37.923  10.348
76315W        W47844  26.854  10.127   0.053
76316W        W47845  19.968  41.547  11.029
76317W        W47846   9.760  17.593   4.144
76318W        W47847   4.322  37.416  11.979
76319W        W47848  40.591  38.123   4.991
76320W        W47849   4.489   9.335   2.362
76321W        W47850  36.043  32.621  12.427
76322W        W47851  11.858  17.284  14.546
76323W        W47852  19.587  19.317   1.877
76324W        W47853  38.418  26.042  12.132
76325W        W47854  27.150  36.981   4.788
76326W        W47855   8.466  34.195  12.871
76327W        W47856  37.392  15.880   4.999
76328W        W47857  39.435  16.114  14.745
76329W        W47858  31.437  14.400  13.423
76330W        W47859  22.183  14.409   4.077
76331W        W47860   8.829  34.485   0.844
76332W        W47861  34.330   3.951   3.791
76333W        W47862  10.202  33.884   2.568
76334W        W47863  14.894   2.725  13.498
76335W        W47864   0.930  15.118  11.204
76336W        W47865  37.079  24.719   2.367
76337W        W47866   7.701  42.490   0.884
76338W        W47867  22.567   6.621  14.265
76339W        W47868  14.808  17.848   4.019
76340W        W47869  25.312  39.825   4.420
76341W        W47870   7.596  43.758   0.272
76342W        W47871   9.106  42.224   1.764
76343W        W47872  18.028   6.081  12.849
76344W        W47873  31.891  13.124  12.117
76345W        W47874  39.577  31.197  12.172
76346W        W47875  14.590   0.188   2.263
76347W        W47876   7.293  18.520  11.392
76348W        W47877  35.013  32.429  12.326
76349W        W47878   9.384  14.281  12.448
76350W        W47879  38.028  18.836   0.251
76351W        W47880  27.578  34.408   0.424
76352W        W47881   0.659  25.662  14.535
76353W        W47882  25.199  20.763   2.302
76354W        W47883  18.715  33.062  14.227
76355W        W47884  17.983  27.086   3.646
76356W        W47885  16.217  27.129  11.455
76357W        W47886  34.168  17.046  12.714
76358W        W47887  28.113   4.037  12.422
76359W        W47888  17.610   3.375   1.154
76360W        W47889  10.616  24.105  11.751
76361W        W47890  17.615   1.425   0.834
76362W        W47891  10.552  31.753   3.663
76363W        W47892  41.215  39.499   4.823
76364W        W47893  39.998   6.159   4.534
76365W        W47894  21.186   2.699   2.312
76366W        W47895  30.602   9.207   0.997
76367W        W47896  31.757  28.416  13.018
76368W        W47897   9.192  43.834  12.660
76369W        W47898  10.230   1.232  11.551
76370W        W47899  30.778  35.502   2.373
76371W        W47900  36.861   1.503   2.854
76372W        W47901  13.176  36.107   4.633
76373W        W47902  29.066  43.517  11.126
76374W        W47903  41.964  23.308  13.890
76375W        W47904  10.894  26.509   0.475
76376W        W47905   6.846  34.420   1.695
76377W        W47906  16.910  24.182   3.610
76378W        W47907  41.442   8.186   3.021
76379W        W47908  12.911   8.434  10.686
76380W        W47909   7.369  15.127  12.630
76381W        W47910  35.532   9.105  11.744
76382W        W47911   5.168  12.041   3.533
76383W        W47912  40.297  21.517  11.636
76384W        W47913  12.674  25.784   4.742
76385W        W47914  43.177  19.777   1.416
76386W        W47915   2.293   3.694  10.900
76387W        W47916  29.415   9.764  14.352
76388W        W47917  33.945  25.320   3.163
76389W        W47918  23.338  27.694  13.198
76390W        W47919   9.892   6.295  10.683
76391W        W47920  20.160  18.548   4.132
76392W        W47921   1.837   7.361   4.521
76393W        W47922  38.316   3.526  11.119
76394W        W47923  44.729   6.453  11.603
76395W        W47924  17.290  23.794  10.188
76396W        W47925  41.386   2.145   0.133
76397W        W47926  18.228   0.372  12.617
76398W        W47927  39.751  34.083  14.491
76399W        W47928  44.945   0.369   4.591
76400W        W47929  32.980   4.195   0.467
76401W        W47930  19.305  21.454  10.105
76402W        W47931  13.109  15.247  11.008
76403W        W47932  15.892  19.807  11.939
76404W        W47933  33.008  25.200   1.260
76405W        W47934  44.250   2.243  12.423
76406W        W47935  25.618  13.287   0.926
76407W        W47936  38.155  15.526  13.477
76408W        W47937  18.676  13.186  11.643
76409W        W47938   2.054  36.383   4.989
76410W        W47939  29.556  15.077   0.776
76411W        W47940  36.488  19.845   0.472
76412W        W47941  22.000  29.863   1.072
76413W        W47942  25.242  39.931  13.258
76414W        W47943  14.798  14.537  13.907
76415W        W47944   8.236  44.187   4.126
76416W        W47945  38.891   8.838  12.887
76417W        W47946  20.863  35.868  12.711
76418W        W47947  34.596   7.473  12.089
76419W        W47948  11.785  21.791   2.196
76420W        W47949  32.225  38.128   2.241
76421W        W47950  18.774  39.523   2.603
76422W        W47951   2.471   1.277  11.206
76423W        W47952  19.264  39.090  11.498
76424W        W47953  39.094  32.833  14.809
76425W        W47954  12.242  32.868   4.151
76426W        W47955  39.494  13.027  13.534
76427W        W47956  17.191   6.362  11.603
76428W        W47957  12.570  36.711   0.441
76429W        W47958  36.583   1.133  14.809
76430W        W47959  36.273  34.329   2.008
76431W        W47960  16.088  12.018   0.840
76432W        W47961  21.468   1.444   3.606
76433W        W47962  38.934  39.343   0.181
76434W        W47963  42.357  33.098   1.244
76435W        W47964  36.399  25.667  11.286
76436W        W47965   2.713  33.635   1.378
76437W        W47966   6.145   5.907   4.675
76438W        W47967  13.714  23.442  11.232
76439W        W47968  24.709  15.145   4.306
76440W        W47969  22.312   5.475   0.072
76441W        W47970   6.780  36.040  12.685
76442W        W47971  41.811  28.590   2.786
76443W        W47972  35.769   3.517   1.746
76444W        W47973  33.598   9.333   1.702
76445W        W47974  38.635  39.451  13.419
76446W        W47975  36.785  43.249  10.920
76447W        W47976  39.506  20.023   3.754
76448W        W47977   3.502  20.814  13.592
76449W        W47978   9.775  39.499   2.644
76450W        W47979   1.169  29.580  13.943
76451W        W47980   6.383  35.336   4.565
76452W        W47981   5.999  27.557  12.600
76453W        W47982  40.058  13.031  14.390
76454W        W47983  22.634  28.779  14.535
76455W        W47984   0.531   8.277  12.114
76456W        W47985  37.548   9.843  13.438
76457W        W47986  38.512   2.925   2.940
76458W        W47987   6.533  25.545   0.642
76459W        W47988   5.245  29.131   3.102
76460W        W47989  34.048  19.302   0.485
76461W        W47990  11.209  18.656  14.987
76462W        W47991   7.457  42.899  12.981
76463W        W47992  37.117  23.081   2.229
76464W        W47993  30.946   2.948   0.452
76465W        W47994  28.332  25.062  12.965
76466W        W47995  36.166  42.296   2.692
76467W        W47996  42.873  39.225  12.261
76468W        W47997   9.786  17.543   0.716
76469W        W47998  29.646  43.792  14.404
76470W        W47999   7.497  39.472   0.969
76471W        W48000  19.527   4.902  12.526
76472W        W48001  17.525  44.690   4.237
76473W        W48002  31.828  17.343  13.912
76474W        W48003  10.379  39.889  13.539
76475W        W48004  14.208   4.701   2.411
76476W        W48005  10.139   6.931   3.284
76477W        W48006  26.689  16.783   4.155
76478W        W48007   9.776  29.481   2.658
76479W        W48008  17.464  43.765   4.542
76480W        W48009   8.664  39.601   4.714
76481W        W48010  16.460  29.532  14.806
76482W        W48011  14.376  20.843   2.178
76483W        W48012   1.379  38.096   2.584
76484W        W48013   1.300  30.324   1.833
76485W        W48014  26.659  13.130   2.254
76486W        W48015   1.773  28.156  10.685
76487W        W48016  36.068  10.403  11.637
76488W        W48017  27.224  35.490  13.557
76489W        W48018  31.355  17.216  13.598
76490W        W48019  18.156  41.135  11.015
76491W        W48020  21.396  11.862   2.711
76492W        W48021  43.787   1.338  12.505
76493W        W48022  24.879  13.371   2.257
76494W        W48023  36.316  10.586  14.364
76495W        W48024  10.428  21.609   0.601
76496W        W48025  39.216  25.483  12.279
76497W        W48026  31.056  36.995  13.307
76498W        W48027  29.444  21.711   3.839
76499W        W48028  35.532  34.392  12.475
76500W        W48029   2.970   7.244   1.851
76501W        W48030  27.038   8.329  10.685
76502W        W48031  30.519   7.655  13.814
76503W        W48032  15.977  17.935   1.118
76504W        W48033  27.004  22.761   3.817
76505W        W48034  24.197   7.329  14.033
76506W        W48035  39.299  12.064   0.816
76507W        W48036  35.063  15.099  13.014
76508W        W48037  12.043  10.924   3.202
76509W        W48038   6.238   7.148  12.958
76510W        W48039  39.094   2.294  12.592
76511W        W48040  23.451  14.905  12.185
76512W        W48041  32.277  15.575  14.386
76513W        W48042  42.717  36.869   1.407
76514W        W48043  27.566  44.950  14.498
76515W        W48044  34.100  29.542   3.253
76516W        W48045  41.026  14.629  12.695
76517W        W48046   4.424  12.811   0.406
76518W        W48047  44.460  19.358  10.716
76519W        W48048  20.258  28.202   4.578
76520W        W48049  29.469  34.254   2.369
76521W        W48050  27.830   0.793  11.446
76522W        W48051  33.788  24.944   0.626
76523W        W48052  38.092  34.409  10.728
76524W        W48053  27.532  27.869  13.855
76525W        W48054  42.517  21.045  11.083
76526W        W48055  25.599   8.150   4.565
76527W        W48056  41.039  26.789  12.381
76528W        W48057   4.453  18.635   0.492
76529W        W48058   8.838  19.505  14.403
76530W        W48059  23.061  21.033  10.568
76531W        W48060   5.688  25.624  12.570
76532W        W48061  14.792   6.701  11.186
76533W        W48062  10.466  20.724  12.393
76534W        W48063  31.877  35.825  10.636
76535W        W48064  20.569  38.338   4.155
76536W        W48065  28.729   5.886  14.977
76537W        W48066   1.708  18.977  11.632
76538W        W48067  40.136   0.388   4.331
76539W        W48068  27.060   5.144   1.723
76540W        W48069  33.356   0.240  13.111
76541W        W48070  40.946  15.070  10.543
76542W        W48071  44.069  10.716   3.800
76543W        W48072  43.879  23.025  12.549
76544W        W48073  12.795   3.696   3.673
76545W        W48074   5.983  33.783   4.914
76546W        W48075   5.773  27.916  13.400
76547W        W48076  41.897  10.613  14.041
76548W        W48077  16.510  17.440  14.579
76549W        W48078  43.064  11.120   4.253
76550W        W48079   3.415  17.333   0.006
76551W        W48080  10.321   5.342   0.313
76552W        W48081  36.054  31.618  12.207
76553W        W48082   7.818  19.141   1.258
76554W        W48083   6.356  43.323  13.794
76555W        W48084   1.799   2.891  11.281
76556W        W48085  36.280  28.450   1.907
76557W        W48086  21.625  22.913   3.980
76558W        W48087  31.628  24.902  12.129
76559W        W48088  43.502   2.922  14.481
76560W        W48089  11.100  40.393   0.374
76561W        W48090  43.845  14.062  10.566
76562W        W48091  43.712  35.202   0.343
76563W        W48092  31.785  19.711   2.704
76564W        W48093   4.701   3.402  12.636
76565W        W48094  10.831  30.415  14.387
76566W        W48095  31.853  18.573   0.523
76567W        W48096  22.534  14.777  13.613
76568W        W48097  19.754  44.346   1.439
76569W        W48098   7.835  22.736  11.877
76570W        W48099  10.961  18.723  10.548
76571W        W48100   6.717  32.386   4.405
76572W        W48101  28.155  40.203   0.375
76573W        W48102   7.225  21.085   2.636
76574W        W48103  11.256   5.188   2.217
76575W        W48104  16.018  38.446   3.634
76576W        W48105  17.392  25.211  13.012
76577W        W48106  34.868  14.352   0.772
76578W        W48107  18.585  30.432  13.508
76579W        W48108   9.888  40.495  12.673
76580W        W48109   4.751   4.456  11.740
76581W        W48110  10.789   3.894  13.032
76582W        W48111   8.912   2.978   3.353
76583W        W48112  19.190  19.773   3.737
76584W        W48113   9.741  43.433   2.306
76585W        W48114  30.361  19.484   0.879
76586W        W48115  21.593  26.636   2.785
76587W        W48116  24.392  11.298   3.442
76588W        W48117  29.080  31.517   2.962
76589W        W48118  19.589  42.436  12.566
76590W        W48119   3.983  39.018   3.581
76591W        W48120  16.073  37.776   1.628
76592W        W48121  35.352  12.167   1.253
76593W        W48122  16.725   7.904   0.072
76594W        W48123  15.843   9.195  12.709
76595W        W48124   1.997  20.628   3.195
76596W        W48125  28.777  15.660  13.653
76597W        W48126  40.428  40.451   1.419
76598W        W48127  24.280  28.664  14.760
76599W        W48128  19.524  15.619   2.447
76600W        W48129  33.787  37.978   3.156
76601W        W48130   7.272   5.568   1.492
76602W        W48131  14.858  44.275  12.146
76603W        W48132  29.663   6.375   2.395
76604W        W48133  40.232   9.920   3.693
76605W        W48134   5.270  25.394  13.432
76606W        W48135  36.471  27.169  14.449
76607W        W48136   6.131  42.473   0.818
76608W        W48137  40.490   6.136   3.391
76609W        W48138  12.525  17.043  12.524
76610W        W48139  14.540  44.838   1.861
76611W        W48140  26.460  38.870  13.792
76612W        W48141   4.829  22.568  10.663
76613W        W48142  13.067   6.485  11.406
76614W        W48143  30.568  42.158  11.498
76615W        W48144  40.168  39.776   3.680
76616W        W48145  15.526  39.307   1.972
76617W        W48146  12.219  44.000  14.512
76618W        W48147   9.863  30.537   2.077
76619W        W48148  40.990  25.076   2.366
76620W        W48149  24.949  21.138   0.238
76621W        W48150  30.443  42.754   4.905
76622W        W48151  43.803  35.551   0.821
76623W        W48152  26.348  34.521  14.689
76624W        W48153  16.350  17.054   2.347
76625W        W48154   4.815  36.439   4.454
76626W        W48155  34.816  28.336  12.994
76627W        W48156  11.664  40.846  13.381
76628W        W48157  29.224   6.665   4.854
76629W        W48158  38.407  10.290  12.676
76630W        W48159  40.333  41.428   3.206
76631W        W48160  29.115  37.963   4.283
76632W        W48161   1.243   7.261   1.383
76633W        W48162  15.141  24.435   1.960
76634W        W48163  14.611  26.072  14.247
76635W        W48164   3.732  26.510  12.973
76636W        W48165  30.677  43.801  12.393
76637W        W48166   9.157   5.446  12.864
76638W        W48167   4.786  13.394   1.164
76639W        W48168  30.801  26.159   1.395
76640W        W48169   2.263  10.735  11.112
76641W        W48170  44.339  32.379   3.212
76642W        W48171   8.261  32.977   4.654
76643W        W48172  43.028  31.233  14.829
76644W        W48173   9.881  22.272  11.431
76645W        W48174  39.090  39.270  13.557
76646W        W48175  19.218   2.872   0.978
76647W        W48176  31.067  40.099  14.362
76648W        W48177   3.146   5.310  13.155
76649W        W48178  26.194  34.283  12.503
76650W        W48179  36.319   9.967  11.549
76651W        W48180   9.163  38.876  12.090
76652W        W48181   4.314  33.252   4.712
76653W        W48182  15.411  24.167  13.941
76654W        W48183   5.491   2.610   2.216
76655W        W48184  20.923  31.901   1.468
76656W        W48185  42.392   6.215  13.354
76657W        W48186  40.815  23.117  10.705
76658W        W48187   7.302  22.257   2.210
76659W        W48188  21.634  37.877  13.321
76660W        W48189  43.408  42.058   2.627
76661W        W48190  34.888  29.940  12.900
76662W        W48191  21.345  22.641  13.918
76663W        W48192  39.110   8.674  11.073
76664W        W48193  13.114  21.098  11.127
76665W        W48194  37.323  20.078  12.566
76666W        W48195   6.095  14.803   1.011
76667W        W48196  12.853  42.057  11.712
76668W        W48197  36.599  29.900  11.736
76669W        W48198  36.817  43.494   0.490
76670W        W48199  18.743   9.497   5.071
76671W        W48200  41.806   1.977   4.122
76672W        W48201   2.455  23.570   2.700
76673W        W48202  25.019  37.533  14.386
76674W        W48203   6.648  41.323  14.239
76675W        W48204  26.170  20.042   0.460
76676W        W48205   3.059  38.323   2.178
76677W        W48206   3.895  33.097  13.818
76678W        W48207  44.033  20.327  12.681
76679W        W48208   7.182  21.428   4.557
76680W        W48209   8.034   4.400  10.399
76681W        W48210  13.266  22.945  10.813
76682W        W48211  25.683  20.271   0.407
76683W        W48212  43.721  10.305   3.656
76684W        W48213   5.689  12.256   0.489
76685W        W48214   4.160  33.598  13.908
76686W        W48215  36.379  16.281   4.472
76687W        W48216  40.531  38.365  13.965
76688W        W48217  41.230  14.762  14.177
76689W        W48218  17.879  41.588   0.714
76690W        W48219  43.526  38.008  14.564
76691W        W48220  21.044  11.644   4.144
76692W        W48221  44.337  27.920  13.028
76693W        W48222  35.875  38.361  14.019
76694W        W48223   9.377  18.042  14.925
76695W        W48224   5.490  33.528   2.453
76696W        W48225   0.029  33.549   2.847
76697W        W48226   2.528   2.496  12.692
76698W        W48227  34.111  33.089  12.054
76699W        W48228   7.841  29.992   0.125
76700W        W48229  13.200  18.806  13.823
76701W        W48230   7.703   3.802   3.700
76702W        W48231  43.014  35.913  13.252
76703W        W48232  35.871  20.621   4.634
76704W        W48233   9.839  31.429   0.694
76705W        W48234  23.241   4.357   3.678
76706W        W48235  25.652  23.016  14.829
76707W        W48236  10.167  18.030  10.611
76708W        W48237  20.488  44.986  11.230
76709W        W48238  13.147  23.739   4.118
76710W        W48239  28.110  23.770   3.190
76711W        W48240  28.611  42.928  11.769
76712W        W48241  30.971   2.964   1.406
76713W        W48242   5.836  29.960  12.440
76714W        W48243   4.974  32.446  13.151
76715W        W48244  19.038  15.601  10.701
76716W        W48245  28.977   9.786  11.541
76717W        W48246  40.277  44.864   1.411
76718W        W48247  12.561   4.238   4.558
76719W        W48248  27.632  36.985  14.774
76720W        W48249  33.546  14.957   4.831
76721W        W48250  31.076   7.882   0.339
76722W        W48251  28.016  29.779  10.362
76723W        W48252  15.821   8.432   3.252
76724W        W48253  31.026  25.547   3.790
76725W        W48254   8.790   5.739   1.951
76726W        W48255  23.631   0.691  13.040
76727W        W48256  32.392  21.275  12.945
76728W        W48257  39.266  25.601  11.799
76729W        W48258  40.790  43.293   2.316
76730W        W48259  21.679   9.138   3.721
76731W        W48260  14.842  41.496  13.845
76732W        W48261  21.805   8.921   5.031
76733W        W48262  25.199  32.034   0.191
76734W        W48263  27.995   4.749  11.109
76735W        W48264  43.005  24.727  10.549
76736W        W48265  21.204  13.196   4.781
76737W        W48266  28.875  29.713  13.447
76738W        W48267  28.653   7.200   1.183
76739W        W48268  13.566   5.674  12.916
76740W        W48269  44.382  25.764  14.929
76741W        W48270  24.624  37.012   3.692
76742W        W48271  13.225  41.607  13.289
76743W        W48272  27.466   7.166  12.066
76744W        W48273   4.784  44.840   1.710
76745W        W48274  40.024  32.060  14.507
76746W        W48275  11.144  16.924  14.965
76747W        W48276  40.252  16.654  10.739
76748W        W48277  28.856   3.965  10.512
76749W        W48278  30.626  35.275  13.841
76750W        W48279   6.812  13.053  13.393
76751W        W48280  28.364  29.240  12.810
76752W        W48281  11.663   0.885   2.523
76753W        W48282   6.032   3.953   3.479
76754W        W48283  31.139  32.064   1.793
76755W        W48284  29.197  39.588  14.960
76756W        W48285   1.363  40.604   2.201
76757W        W48286  34.672   1.734  12.086
76758W        W48287  27.513  43.635  13.348
76759W        W48288  15.599   6.229   2.229
76760W        W48289  44.812  31.439   4.042
76761W        W48290  23.711   1.991   4.842
76762W        W48291  35.699  27.039  12.449
76763W        W48292  23.289  23.654  14.384
76764W        W48293  28.559  34.661   0.497
76765W        W48294  23.248  31.512  13.040
76766W        W48295  32.603  24.978   1.878
76767W        W48296  43.354  43.406   4.628
76768W        W48297  12.592   6.293   3.100
76769W        W48298  11.618  12.359   1.869
76770W        W48299   8.260  27.050  12.015
76771W        W48300   8.687  39.071  14.857
76772W        W48301  10.591  13.963   1.714
76773W        W48302  18.119  34.957   2.056
76774W        W48303  33.461  42.861  10.606
76775W        W48304  36.134  42.886  11.587
76776W        W48305   1.643  23.460   4.373
76777W        W48306  33.074   4.393   4.834
76778W        W48307  39.312  32.398   4.108
76779W        W48308  19.194  24.089   2.250
76780W        W48309  33.147   3.393  13.785
76781W        W48310   5.203   5.245   1.370
76782W        W48311  10.789  18.265   1.970
76783W        W48312  27.691   4.807   0.879
76784W        W48313  10.818  37.097   1.462
76785W        W48314   0.291  13.111  12.969
76786W        W48315  39.213   1.713  12.501
76787W        W48316  38.828  16.526  11.057
76788W        W48317   5.955  39.906   3.754
76789W        W48318  32.376  27.130  10.755
76790W        W48319   2.949   1.634   0.929
76791W        W48320  33.605  35.575  10.297
76792W        W48321   4.195  12.658  10.712
76793W        W48322  38.632   8.856   3.380
76794W        W48323  11.689  13.636   0.169
76795W        W48324  13.306  12.326  13.436
76796W        W48325  20.705  42.107   4.594
76797W        W48326  14.118  10.427   4.060
76798W        W48327  17.340   9.426  10.858
76799W        W48328  37.114   2.836  11.022
76800W        W48329   8.165   5.921  10.440
76801W        W48330  32.979  23.422  12.597
76802W        W48331  22.250  25.956   4.915
76803W        W48332  35.658  42.346  12.503
76804W        W48333  40.744  14.315  13.481
76805W        W48334  14.204  40.403   1.729
76806W        W48335  33.976  27.663   1.461
76807W        W48336  43.593  38.344   0.878
76808W        W48337   6.098   6.814   3.479
76809W        W48338  33.913  22.372  10.769
76810W        W48339  28.814  23.469  13.194
76811W        W48340  44.863  19.655  10.848
76812W        W48341  23.984  38.111  13.814
76813W        W48342  14.746  37.880   2.807
76814W        W48343   8.955  39.978  14.419
76815W        W48344   9.370  32.833   3.300
76816W        W48345  12.491  12.839  11.856
76817W        W48346   5.804  30.174  14.939
76818W        W48347  27.413  35.035  11.159
76819W        W48348  23.008  37.352   4.948
76820W        W48349  39.518  20.434  14.765
76821W        W48350  23.982   5.069  12.646
76822W        W48351  44.734   6.783   4.756
76823W        W48352  20.376   3.588  13.976
76824W        W48353  30.544   6.411  14.846
76825W        W48354  13.296  34.615  13.421
76826W        W48355   1.413  24.576  14.549
76827W        W48356  37.432  36.974   1.433
76828W        W48357  21.933  30.285   2.757
76829W        W48358  26.132   0.066  14.734
76830W        W48359  14.263  42.688  13.761
76831W        W48360  35.389  37.295   2.629
76832W        W48361  27.995   8.248   4.390
76833W        W48362  36.132  23.732   3.191
76834W        W48363  39.655  14.033  12.397
76835W        W48364   7.866  34.542  14.298
76836W        W48365  19.460  17.677  13.035
76837W        W48366   0.051  14.048   5.040
76838W        W48367  21.134  33.819   2.749
76839W        W48368   0.484  32.978   2.799
76840W        W48369  21.860  38.615   0.171
76841W        W48370   7.842  28.080  13.848
76842W        W48371  14.748  36.039  13.046
76843W        W48372  24.679  27.778   4.560
76844W        W48373  27.040  40.011  14.562
76845W        W48374   5.875  38.821  14.913
76846W        W48375  26.840  32.348   2.349
76847W        W48376  10.135   5.193  14.854
76848W        W48377  28.454  25.622   4.937
76849W        W48378  27.607  28.412   2.972
76850W        W48379  39.624  16.487   0.880
76851W        W48380  34.520  38.374   4.891
76852W        W48381   3.172  12.053   0.367
76853W        W48382  31.485  10.111   1.720
76854W        W48383   8.086   9.851  14.798
76855W        W48384  34.014  14.192  13.381
76856W        W48385  23.540  31.350   3.657
76857W        W48386  24.712  24.665  12.926
76858W        W48387   2.402  19.682   3.177
76859W        W48388  18.581  26.960  12.484
76860W        W48389  21.492  15.166   2.401
76861W        W48390  37.187  21.175  14.592
76862W        W48391  13.795  26.187   4.095
76863W        W48392   7.539  15.540  14.799
76864W        W48393  44.722   8.262   3.339
76865W        W48394  21.882  35.964   3.983
76866W        W48395  28.438   4.998   3.731
76867W        W48396  17.445  44.092   0.333
76868W        W48397  14.691  39.511  10.879
76869W        W48398   0.992  22.503  13.247
76870W        W48399  40.138  28.171  13.144
76871W        W48400   0.296  14.497  13.546
76872W        W48401  29.761  42.373   0.789
76873W        W48402  41.791  22.849   4.209
76874W        W48403   0.319  38.860  13.322
76875W        W48404   3.304  18.510   4.730
76876W        W48405  14.370  19.265  13.427
76877W        W48406   1.373  13.060   3.181
76878W        W48407  15.570  25.963  14.405
76879W        W48408  21.089  26.740  13.974
76880W        W48409  44.004  16.061  12.107
76881W        W48410  36.510   5.230   0.530
76882W        W48411  23.756   6.943   3.283
76883W        W48412  18.366  34.396  12.499
76884W        W48413   3.983  18.055  13.958
76885W        W48414   2.313   9.751   3.681
76886W        W48415  12.806  22.892  11.256
76887W        W48416   9.791  12.877   0.987
76888W        W48417   2.034  30.170  13.069
76889W        W48418  17.616  34.970  11.490
76890W        W48419   9.291  15.502  14.834
76891W        W48420  21.797  39.888  12.424
76892W        W48421   1.538  14.046  11.523
76893W        W48422  21.180  24.616   3.312
76894W        W48423  37.297   1.375   0.837
76895W        W48424   0.360  10.662  11.534
76896W        W48425  17.161   5.391  11.490
76897W        W48426  18.798  22.788   3.671
76898W        W48427   5.009  15.080   2.799
76899W        W48428  15.189  26.501  12.095
76900W        W48429  40.310  19.588   0.236
76901W        W48430   3.484  16.590   3.905
76902W        W48431   8.138  41.067  14.333
76903W        W48432  27.964  43.122  14.279
76904W        W48433  24.548  35.650   1.909
76905W        W48434  31.106  40.500   0.221
76906W        W48435  29.426  23.168   0.409
76907W        W48436  28.842  15.748   4.864
76908W        W48437  32.478  27.987   2.214
76909W        W48438  29.434  11.253  14.340
76910W        W48439   4.932  20.701  13.247
76911W        W48440  36.463   0.310  10.924
76912W        W48441   4.414  35.853  14.335
76913W        W48442  14.689  10.236   2.645
76914W        W48443   0.987   4.527  11.739
76915W        W48444  44.267  33.101  14.672
76916W        W48445  35.558  17.100   1.820
76917W        W48446  39.493  11.303  14.796
76918W        W48447  13.028   8.120  11.539
76919W        W48448  12.790   8.027   1.822
76920W        W48449  35.585   1.674   1.759
76921W        W48450  14.805  11.208  11.586
76922W        W48451  27.015  11.789  13.765
76923W        W48452  22.645  41.046   2.680
76924W        W48453  32.628  33.902  12.128
76925W        W48454  25.726  28.364   1.007
76926W        W48455   6.649   0.215   1.343
76927W        W48456  10.826  25.722   4.092
76928W        W48457  12.947  40.712  11.195
76929W        W48458  26.517  25.022   2.696
76930W        W48459  38.338   6.418   0.228
76931W        W48460   4.343  13.573  13.076
76932W        W48461  40.509   7.667  12.470
76933W        W48462  36.029  15.507  12.130
76934W        W48463  32.074  21.336   5.077
76935W        W48464  36.780  29.587  14.110
76936W        W48465  34.953  14.483   3.208
76937W        W48466   8.624  40.929   2.127
76938W        W48467  37.993  44.710  13.492
76939W        W48468  39.497  38.239  14.860
76940W        W48469  35.748   0.209   4.016
76941W        W48470  15.870   5.853  11.829
76942W        W48471  11.126  36.995   0.238
76943W        W48472  35.947  31.149   1.032
76944W        W48473  30.502  24.196   2.368
76945W        W48474  12.233  38.479  13.506
76946W        W48475  18.636  25.374  11.891
76947W        W48476  13.234  18.993  14.326
76948W        W48477  28.540  21.616  13.105
76949W        W48478   1.857  23.679   3.508
76950W        W48479  44.555   3.477  11.158
76951W        W48480   2.261  22.841   4.125
76952W        W48481   8.731  31.711   0.737
76953W        W48482  33.696  36.101   3.210
76954W        W48483   0.549  18.581   3.266
76955W        W48484  43.127   7.255   4.162
76956W        W48485  17.083  25.950   3.324
76957W        W48486  10.858  24.319   4.696
76958W        W48487   7.853  43.229  12.578
76959W        W48488  43.516  43.800   2.171
76960W        W48489  41.983   9.835   3.656
76961W        W48490  38.027  12.593  11.152
76962W        W48491   2.841  34.580  13.351
76963W        W48492  42.243  11.639  12.873
76964W        W48493  23.373  43.723   0.687
76965W        W48494  21.080  34.427  14.553
76966W        W48495  26.378  24.217   1.150
76967W        W48496   8.926  16.642  14.388
76968W        W48497  44.916  34.231   0.917
76969W        W48498   3.793  28.913  14.095
76970W        W48499  44.315  38.993  10.509
76971W        W48500  16.026  33.821   3.148
76972W        W48501  23.488   1.151  12.208
76973W        W48502  32.460  22.834   9.801
76974W        W48503  41.437  15.350  13.044
76975W        W48504   4.784  29.264   5.378
76976W        W48505  21.496   5.142  11.952
76977W        W48506  23.695  12.558   2.767
76978W        W48507   3.804   8.948   3.615
76979W        W48508  31.637  27.676   1.009
76980W        W48509  21.414   9.158   2.559
76981W        W48510  29.686  28.726   4.026
76982W        W48511  40.847   2.353   1.915
76983W        W48512  25.011  21.961  10.713
76984W        W48513  11.515  24.699   0.474
76985W        W48514   3.199  33.622  11.688
76986W        W48515  19.967  15.669  14.864
76987W        W48516  43.669   3.645   0.382
76988W        W48517  38.832  36.440   3.908
76989W        W48518  16.725  28.635  13.064
76990W        W48519  44.560  25.014   4.811
76991W        W48520  11.780  42.589   2.689
76992W        W48521  29.247  28.451   0.414
76993W        W48522  29.172  42.769   4.835
76994W        W48523   7.293  44.647   3.370
76995W        W48524  22.051  22.434  11.657
76996W        W48525  14.916  31.027  10.710
76997W        W48526  42.611   3.726  12.597
76998W        W48527   6.344   8.902  10.829
76999W        W48528  37.500  18.028   2.709
77000W        W48529  31.862   6.403  11.909
77001W        W48530  30.055  42.448   2.931
77002W        W48531  32.088  37.800   1.735
77003W        W48532  21.140  18.825  11.945
77004W        W48533   1.246  33.580  13.845
77005W        W48534  30.394  17.007  10.971
77006W        W48535  40.396  27.151   0.342
77007W        W48536  42.976  24.084   3.152
77008W        W48537  34.861  24.199  14.513
77009W        W48538  41.517   7.655   1.634
77010W        W48539  17.844  39.377  11.924
77011W        W48540  27.111  22.567  13.403
77012W        W48541  28.078  32.510   4.564
77013W        W48542  14.257   6.208  10.755
77014W        W48543  16.466  33.376  13.719
77015W        W48544  11.138  24.123   2.790
77016W        W48545   1.387  36.582  12.542
77017W        W48546  43.918   3.859  14.562
77018W        W48547   1.930   1.765  12.578
77019W        W48548  33.064  19.617  14.750
77020W        W48549  23.173   7.822   0.351
77021W        W48550   1.426   5.177  14.059
77022W        W48551  27.379   5.617   4.448
77023W        W48552   2.456  39.793  13.421
77024W        W48553  19.876   1.817  14.510
77025W        W48554  37.458  16.064   2.235
77026W        W48555  25.138   4.940  14.364
77027W        W48556  40.269  38.164   1.728
77028W        W48557   8.182   7.969  11.469
77029W        W48558   0.937  36.097  14.167
77030W        W48559  39.297  39.830  13.842
77031W        W48560   0.106  26.219   3.526
77032W        W48561   8.487   3.843  12.918
77033W        W48562  24.909  39.571   2.303
77034W        W48563  41.226  10.680   1.242
77035W        W48564  21.774  21.173  11.012
77036W        W48565  26.278  12.400  13.395
77037W        W48566  37.113  35.457  13.183
77038W        W48567  44.662   2.973  11.209
77039W        W48568  12.404  16.590   2.389
77040W        W48569  18.088  37.556   1.990
77041W        W48570  10.304   1.724  11.504
77042W        W48571  16.180   4.890   4.195
77043W        W48572  37.506  14.568   2.851
77044W        W48573  35.943  11.432  11.395
77045W        W48574  28.407  13.137  10.582
77046W        W48575  41.484  17.692   0.960
77047W        W48576  37.696  14.316  13.211
77048W        W48577  23.204  11.580  13.014
77049W        W48578   4.888   5.239  13.571
77050W        W48579  12.551  35.330   1.718
77051W        W48580  13.889  17.092   2.257
77052W        W48581  35.022  31.145  10.564
77053W        W48582   7.320   7.298   2.763
77054W        W48583   0.336  37.812  13.325
77055W        W48584  15.817  17.836   2.023
77056W        W48585  34.388  26.979   1.425
77057W        W48586   9.051   1.998  11.107
77058W        W48587   5.218  36.913   1.759
77059W        W48588  18.782   7.871  13.040
77060W        W48589  39.911  21.296  11.961
77061W        W48590  14.734  16.243   2.702
77062W        W48591  30.406   1.316   0.204
77063W        W48592  30.373  27.752   4.091
77064W        W48593   9.086  20.062  10.639
77065W        W48594  31.497   5.242   0.373
77066W        W48595  10.423  11.435  13.853
77067W        W48596  17.269  17.706  14.975
77068W        W48597   1.389  16.554  14.533
77069W        W48598  36.271  24.203   3.312
77070W        W48599  32.784  31.953  11.055
77071W        W48600  26.652  33.634  11.891
77072W        W48601  10.432  29.561   1.428
77073W        W48602  37.512  27.479  14.476
77074W        W48603   0.202   3.397  13.462
77075W        W48604  25.740  30.283  14.481
77076W        W48605  31.206  33.981   3.984
77077W        W48606  40.027  26.190  11.100
77078W        W48607  29.476  10.917  14.729
77079W        W48608  31.067   2.235   4.654
77080W        W48609  28.487  24.185   2.927
77081W        W48610  35.928   0.324   0.860
77082W        W48611  13.543  37.470   3.007
77083W        W48612  39.704  18.997  10.782
77084W        W48613  28.035  37.933   4.882
77085W        W48614  43.853  14.386  14.314
77086W        W48615  34.664  30.953   3.643
77087W        W48616   7.427   1.679   2.459
77088W        W48617  41.030  42.573  11.133
77089W        W48618  27.655  30.890  10.606
77090W        W48619  13.346   4.747  10.578
77091W        W48620  10.162  38.258   2.913
77092W        W48621  40.797  31.560   4.346
77093W        W48622   0.520   7.732   4.232
77094W        W48623   9.347  23.651  10.923
77095W        W48624  25.287  25.541   0.579
77096W        W48625  15.600  24.027  12.503
77097W        W48626   3.483  11.915  12.507
77098W        W48627  34.481  44.969   2.767
77099W        W48628  15.174  34.608   2.836
77100W        W48629  35.489  44.287  11.928
77101W        W48630  10.723  43.771   5.427
77102W        W48631  37.771   9.855   2.631
77103W        W48632  33.539  44.012   4.617
77104W        W48633  17.662  23.105  13.881
77105W        W48634  40.309  29.674   1.436
77106W        W48635  36.945   1.730  12.476
77107W        W48636  39.449  37.428  13.952
77108W        W48637  37.089  20.704  14.312
77109W        W48638   6.186  40.172  10.319
77110W        W48639   7.506  13.825  12.363
77111W        W48640  27.707   5.941  14.813
77112W        W48641   3.155  14.613   1.323
77113W        W48642   8.500  35.192   0.942
77114W        W48643  32.964  14.699   0.283
77115W        W48644  31.876  27.268   3.220
77116W        W48645  41.501   3.462   3.838
77117W        W48646   6.765  16.849  13.717
77118W        W48647  16.346  43.091   3.838
77119W        W48648   7.805   3.418  13.429
77120W        W48649   5.522  25.075   1.223
77121W        W48650  28.055  25.556   1.901
77122W        W48651  15.542   3.937   4.030
77123W        W48652  29.107  13.505  10.379
77124W        W48653  28.376  44.964  11.521
77125W        W48654  17.318  14.178   2.451
77126W        W48655  34.453   6.513   1.100
77127W        W48656  33.044  18.143  10.884
77128W        W48657  12.855  20.689  14.924
77129W        W48658  11.005   6.757  11.788
77130W        W48659  12.638   5.766  13.949
77131W        W48660   7.447  40.857  11.152
77132W        W48661  32.554  42.848   2.694
77133W        W48662  27.509   8.393   3.634
77134W        W48663   3.974  19.996  12.407
77135W        W48664  16.726  23.253   1.839
77136W        W48665  17.163  35.383   1.411
77137W        W48666  12.670  29.227  14.129
77138W        W48667  44.458  15.775  12.534
77139W        W48668   1.605  33.890   4.514
77140W        W48669  14.116  12.292  13.565
77141W        W48670  35.347  36.737  13.127
77142W        W48671   9.669  40.057   1.254
77143W        W48672   5.116  18.383  12.931
77144W        W48673  38.857  42.515   0.315
77145W        W48674  10.151  14.823   0.824
77146W        W48675   0.589  22.303  14.261
77147W        W48676  40.442   2.541   2.512
77148W        W48677  36.545  12.666  11.622
77149W        W48678  28.928   2.652  11.655
77150W        W48679  10.352  31.368   0.927
77151W        W48680  28.493  18.213  12.103
77152W        W48681  28.228  20.194   3.741
77153W        W48682  41.167  42.498  12.959
77154W        W48683   5.380  10.414  12.574
77155W        W48684  18.818  19.286   9.950
77156W        W48685  37.631   9.556   2.218
77157W        W48686  32.067  23.840  14.801
77158W        W48687   5.878  34.863  12.592
77159W        W48688  14.234  41.232  11.204
77160W        W48689  41.580  10.652  13.631
77161W        W48690  31.389  31.916  10.399
77162W        W48691  24.080  44.521   0.312
77163W        W48692  27.709  30.607   3.666
77164W        W48693  27.499   2.272   2.781
77165W        W48694   6.265  16.831  11.481
77166W        W48695  11.676  33.009   0.870
77167W        W48696  34.481  34.622   1.000
77168W        W48697  37.357  38.095   4.184
77169W        W48698   4.352   1.261  11.534
77170W        W48699  33.368  13.296  13.244
77171W        W48700  40.623  21.965  14.906
77172W        W48701   2.530  30.785  10.733
77173W        W48702  40.660   5.869   0.281
77174W        W48703   2.145  19.669  14.990
77175W        W48704  37.325  21.787   2.357
77176W        W48705  16.762  27.068   2.095
77177W        W48706  23.566  15.781  14.427
77178W        W48707   8.693  19.318  13.943
77179W        W48708  25.589  36.921   4.150
77180W        W48709  42.129  26.522  12.006
77181W        W48710  16.146  11.717   1.275
77182W        W48711  44.662   5.800   4.744
77183W        W48712  36.144   8.288   2.655
77184W        W48713  37.498   7.836  10.792
77185W        W48714  14.331  23.235   2.441
77186W        W48715  39.660  31.083  13.568
77187W        W48716  22.026  22.240   3.694
77188W        W48717  33.509  41.080  11.113
77189W        W48718  37.685  19.015  13.853
77190W        W48719  21.647  36.350  11.611
77191W        W48720  20.819  38.991   1.017
77192W        W48721   9.708  10.874   1.950
77193W        W48722  22.318  35.460   1.813
77194W        W48723  22.143  42.614   4.089
77195W        W48724  24.545  35.879   3.242
77196W        W48725   2.257  14.136   4.578
77197W        W48726  42.011  32.925  14.064
77198W        W48727  33.320  29.665   3.699
77199W        W48728  24.705  31.834   4.868
77200W        W48729  42.900  32.971   4.944
77201W        W48730  18.237  12.835   3.127
77202W        W48731   7.658   3.007   0.961
77203W        W48732   9.874  29.188  12.896
77204W        W48733   8.598  16.783   0.930
77205W        W48734  39.343  40.320  11.518
77206W        W48735  12.145  44.507  12.767
77207W        W48736   5.720  37.891   2.701
77208W        W48737   0.339   0.302   3.820
77209W        W48738  21.026   2.498   3.749
77210W        W48739  17.650   7.096  11.286
77211W        W48740  25.610  33.500   3.059
77212W        W48741   4.900  29.363  11.141
77213W        W48742  38.872  34.679   0.423
77214W        W48743  25.697   9.445   3.747
77215W        W48744  32.676  15.639  10.243
77216W        W48745   9.790  26.596   1.837
77217W        W48746  15.595  10.538   4.937
77218W        W48747   9.246  43.499   4.514
77219W        W48748  14.350  16.106  13.031
77220W        W48749  37.062  39.104   3.613
77221W        W48750   1.986  32.841   1.332
77222W        W48751  43.280  30.632  14.015
77223W        W48752  39.716  19.878   2.179
77224W        W48753  34.443  18.259  13.339
77225W        W48754   0.352  26.451   1.464
77226W        W48755  38.602  39.451  12.484
77227W        W48756   4.212  34.673  13.063
77228W        W48757   0.579  15.601  11.529
77229W        W48758  33.094  22.721   3.683
77230W        W48759  27.082  27.974  13.072
77231W        W48760  22.539  43.502   2.946
77232W        W48761   0.725  33.904   3.467
77233W        W48762   3.997  38.993  13.597
77234W        W48763  29.154  37.070  11.219
77235W        W48764  30.440  31.455  14.804
77236W        W48765   0.936  25.706  11.891
77237W        W48766  32.530  39.606   3.796
77238W        W48767   0.255   9.326  12.485
77239W        W48768  37.748  41.167   4.127
77240W        W48769   6.443  40.384   4.547
77241W        W48770  23.276   2.428   1.351
77242W        W48771  15.911  42.454  12.549
77243W        W48772   6.733  34.263  13.424
77244W        W48773  15.232  11.628  13.852
77245W        W48774  44.662  30.293   1.454
77246W        W48775  41.370   6.477  13.833
77247W        W48776  22.458  26.155  14.070
77248W        W48777  14.244  44.313   1.944
77249W        W48778  24.547   6.509  10.464
77250W        W48779  22.657  19.564   0.765
77251W        W48780  34.434  28.507  13.841
77252W        W48781  37.793  11.161  13.885
77253W        W48782  22.254  10.609  13.572
77254W        W48783  39.840  35.409  14.525
77255W        W48784  11.767   8.063   2.210
77256W        W48785  16.156   9.892   1.538
77257W        W48786  13.057   5.386   4.135
77258W        W48787  29.448  30.330   4.162
77259W        W48788  23.665  21.782   3.936
77260W        W48789  29.087  16.240  10.991
77261W        W48790  20.249   7.397  13.096
77262W        W48791  30.990  33.956  12.453
77263W        W48792  29.892  14.248  12.653
77264W        W48793  28.490   7.598  12.934
77265W        W48794  26.522   2.104  14.227
77266W        W48795   6.877  11.154   2.348
77267W        W48796  22.495  18.616   0.770
77268W        W48797  25.009  34.842   1.843
77269W        W48798  39.050  24.992   2.427
77270W        W48799   4.892  11.227  13.339
77271W        W48800  17.323  35.525   2.828
77272W        W48801   0.221  37.180   3.459
77273W        W48802   3.633  12.293  11.173
77274W        W48803  16.634  11.377   2.140
77275W        W48804  39.487  39.561   2.915
77276W        W48805   1.961  18.398   0.811
77277W        W48806  18.336  23.008   1.645
77278W        W48807  41.413   5.414  14.809
77279W        W48808  23.450  32.397   2.850
77280W        W48809  29.458  28.980   0.351
77281W        W48810  18.567  18.032  14.977
77282W        W48811  11.441  12.312  11.057
77283W        W48812  35.345  10.778   3.085
77284W        W48813   2.461  44.273  12.801
77285W        W48814  17.600  24.215   4.759
77286W        W48815  15.327  28.593  13.997
77287W        W48816  37.538  44.003   0.534
77288W        W48817  25.925  13.204   4.228
77289W        W48818   1.763  25.483  13.791
77290W        W48819  42.255   0.243  13.944
77291W        W48820  44.091  11.823   0.450
77292W        W48821   4.251  17.089   0.322
77293W        W48822  25.593  27.060  13.690
77294W        W48823   3.338   8.802   3.325
77295W        W48824  42.606  25.808  14.691
77296W        W48825  20.649  10.890  14.892
77297W        W48826  19.653  23.655  12.980
77298W        W48827  15.274   0.456   3.656
77299W        W48828  22.836  26.598   1.405
77300W        W48829  25.680  34.989   0.391
77301W        W48830  13.183  16.120   1.266
77302W        W48831  41.473  43.727   1.224
77303W        W48832  20.975  31.483  12.901
77304W        W48833  26.434   6.550   3.312
77305W        W48834   0.537  32.271  14.568
77306W        W48835  26.409  16.303   0.395
77307W        W48836  13.541  12.854  10.983
77308W        W48837   3.705   4.703  11.577
77309W        W48838  28.900  19.639  12.065
77310W        W48839  38.330  25.477  10.647
77311W        W48840  41.024  21.551  12.829
77312W        W48841   5.329  25.525   4.139
77313W        W48842  24.074  30.518  12.480
77314W        W48843  36.128  25.188  11.065
77315W        W48844  23.643  41.881   4.233
77316W        W48845  36.502  41.084  11.056
77317W        W48846  15.077   7.890   1.858
77318W        W48847  40.811  34.201   3.277
77319W        W48848  31.097  26.878   4.654
77320W        W48849  26.468  32.496   4.493
77321W        W48850  22.600  26.713  12.493
77322W        W48851   8.224  30.902  12.547
77323W        W48852  26.990  24.001   3.290
77324W        W48853  39.455  14.065   0.167
77325W        W48854  27.172  29.010   1.256
77326W        W48855  16.773  43.204   2.562
77327W        W48856  13.810  32.447   0.502
77328W        W48857  14.924  14.635   0.847
77329W        W48858  36.066  28.661  14.412
77330W        W48859   7.224  24.606   0.751
77331W        W48860  42.711   5.285   4.030
77332W        W48861   3.643  25.709  12.604
77333W        W48862  14.690   2.992  12.831
77334W        W48863  13.448  44.928  12.002
77335W        W48864  42.770   6.912   4.781
77336W        W48865  19.352  22.716   1.305
77337W        W48866   2.266  43.441   4.733
77338W        W48867   8.886  14.059   1.823
77339W        W48868  12.112   2.552  13.458
77340W        W48869  14.640  36.195  14.241
77341W        W48870  25.679  30.793  11.058
77342W        W48871  14.805   0.077   0.825
77343W        W48872  31.782  12.873  11.689
77344W        W48873  31.259  31.594   1.627
77345W        W48874  27.697  18.622  11.623
77346W        W48875  20.866  20.145   4.144
77347W        W48876  43.705   7.429   5.071
77348W        W48877  19.347  42.037   3.596
77349W        W48878  41.362  22.750  12.405
77350W        W48879  22.856  22.768  13.782
77351W        W48880  27.438   2.793   2.316
77352W        W48881  31.103  24.216  13.348
77353W        W48882  36.190  12.859   1.634
77354W        W48883  32.353  23.954   1.852
77355W        W48884  43.319  16.178   0.019
77356W        W48885  11.254  44.275   0.027
77357W        W48886  18.369  25.082   0.781
77358W        W48887  33.084  39.455   0.235
77359W        W48888  10.221  15.900   4.219
77360W        W48889  44.574   8.853   4.174
77361W        W48890  42.927  38.580   3.665
77362W        W48891  16.060  11.720   4.878
77363W        W48892  36.958  11.028  14.499
77364W        W48893   7.234  13.489  11.158
77365W        W48894   4.500  14.237   2.805
77366W        W48895  24.034  17.008   1.665
77367W        W48896  10.240  20.979  11.202
77368W        W48897  17.837  36.086   0.438
77369W        W48898  44.877  24.634   4.611
77370W        W48899   9.725  42.803  12.822
77371W        W48900   9.850   1.830   1.184
77372W        W48901  29.166  13.835   3.219
77373W        W48902  35.624  23.671   3.175
77374W        W48903  23.460  29.958   1.730
77375W        W48904  23.685   9.849  11.282
77376W        W48905  13.482   0.694   1.872
77377W        W48906   3.920  42.317  14.744
77378W        W48907  34.447  27.974  13.019
77379W        W48908  10.174  38.074   0.437
77380W        W48909  13.032  32.555   4.095
77381W        W48910  26.123  44.531   3.387
77382W        W48911  44.393   2.763  14.507
77383W        W48912  29.599  40.227   4.181
77384W        W48913  31.127  20.298  11.177
77385W        W48914  19.162  36.024   1.665
77386W        W48915  12.905  44.227   1.268
77387W        W48916  39.041  17.762   4.207
77388W        W48917  40.863   3.860  12.393
77389W        W48918  18.776  27.718  10.169
77390W        W48919  36.537  25.743   1.262
77391W        W48920  34.956  12.686  14.479
77392W        W48921   5.907  12.634  14.684
77393W        W48922  31.232  39.759  13.060
77394W        W48923  27.529  44.305   4.959
77395W        W48924  40.914  36.411   3.908
77396W        W48925  33.550   4.344   2.873
77397W        W48926  38.035  43.664  13.340
77398W        W48927  29.582  19.334  12.913
77399W        W48928   5.728  31.139   2.198
77400W        W48929   0.687  40.597   4.921
77401W        W48930  27.185  22.949   1.209
77402W        W48931  23.582   6.689   2.418
77403W        W48932  19.370  19.844  14.881
77404W        W48933   8.285  29.218   2.155
77405W        W48934  35.052   1.236  13.510
77406W        W48935   2.242  23.501   3.184
77407W        W48936  17.586  11.661  12.582
77408W        W48937   0.610  22.701  12.156
77409W        W48938  11.418   2.313   1.388
77410W        W48939   6.177  11.756   0.558
77411W        W48940   4.491  11.376   3.205
77412W        W48941  44.507  42.486  10.704
77413W        W48942  11.459  42.950   0.316
77414W        W48943  36.283  14.303  14.006
77415W        W48944   3.232  41.276  14.991
77416W        W48945   8.463  15.991  12.335
77417W        W48946  30.437   6.823   1.311
77418W        W48947  43.887  25.484  11.514
77419W        W48948   6.418   8.667   1.844
77420W        W48949  25.609   3.632  14.387
77421W        W48950  29.867  41.434  12.472
77422W        W48951  41.770  26.101  12.523
77423W        W48952   7.553  15.249   0.788
77424W        W48953  30.478  22.554  14.993
77425W        W48954   8.291  40.826   0.297
77426W        W48955  16.733  40.887  12.982
77427W        W48956  29.629  39.993   4.655
77428W        W48957  17.953  14.679   3.580
77429W        W48958  11.886  19.855   2.240
77430W        W48959  40.082  35.526  13.900
77431W        W48960  41.286  21.180   1.338
77432W        W48961  44.016  33.308   3.622
77433W        W48962  31.906   8.455   2.903
77434W        W48963  17.009  34.945  13.842
77435W        W48964  15.301  25.052   3.987
77436W        W48965  37.790  27.509   3.638
77437W        W48966  28.455  43.578  13.400
77438W        W48967  27.998  27.610   2.447
77439W        W48968  23.707  15.483  14.009
77440W        W48969  37.901  33.992  13.976
77441W        W48970   0.254  26.097  13.408
77442W        W48971  43.759   4.509   2.822
77443W        W48972  29.946   9.603  12.074
77444W        W48973  39.856   9.314   1.638
77445W        W48974  40.400  35.810  13.572
77446W        W48975  23.487   0.998   4.877
77447W        W48976  18.339  44.737  10.887
77448W        W48977  14.067  44.193   2.895
77449W        W48978  19.126  28.739  13.900
77450W        W48979  43.669   8.332  13.858
77451W        W48980  11.799   5.962   0.223
77452W        W48981  39.825  35.119   0.368
77453W        W48982  20.238  19.149  13.457
77454W        W48983  15.616  11.832   1.019
77455W        W48984  41.198  20.201   4.234
77456W        W48985  28.075  38.916  11.974
77457W        W48986  39.407   9.274   0.846
77458W        W48987  44.519   4.708  10.457
77459W        W48988  34.461   4.911  12.052
77460W        W48989  21.684  16.263  14.992
77461W        W48990  44.673  34.554   2.175
77462W        W48991  27.503   8.523   2.686
77463W        W48992  32.793   6.306   0.380
77464W        W48993  13.681   9.382   4.412
77465W        W48994  42.584  21.572  11.055
77466W        W48995  42.053  10.979  10.599
77467W        W48996   8.942  43.639  11.163
77468W        W48997  28.978  23.891  13.453
77469W        W48998  33.797  14.350  11.415
77470W        W48999   2.930  15.869   0.938
77471W        W49000  33.737   2.958  10.197
77472W        W49001  40.251  24.273  13.863
77473W        W49002  44.685  23.539  11.466
77474W        W49003   2.040  10.401  13.059
77475W        W49004  32.157  35.558   3.760
77476W        W49005   7.824  13.900   4.053
77477W        W49006  39.920  13.147   2.158
77478W        W49007  44.726  42.150  13.864
77479W        W49008  38.342  16.046   2.415
77480W        W49009  24.462  18.173  13.889
77481W        W49010  25.229   6.924  11.414
77482W        W49011  14.114  22.488  10.828
77483W        W49012  21.671  42.985   2.875
77484W        W49013  19.515  32.977  11.937
77485W        W49014  36.169  19.266  13.934
77486W        W49015  29.914  21.700   3.652
77487W        W49016   1.905   9.408  12.658
77488W        W49017  31.906  33.009   1.042
77489W        W49018  41.404  10.147   4.277
77490W        W49019   3.775  31.886   3.521
77491W        W49020  16.073   4.902   2.357
77492W        W49021   6.138  23.237   3.064
77493W        W49022   7.288  22.494   0.873
77494W        W49023  41.097  11.513   0.829
77495W        W49024  40.672   1.406  12.545
77496W        W49025  23.611  28.467  11.633
77497W        W49026  16.203   3.974  10.769
77498W        W49027   5.684  39.460   2.176
77499W        W49028  32.058   6.372  10.900
77500W        W49029  22.239  35.541  14.587
77501W        W49030  16.572  14.775   3.425
77502W        W49031  27.563  17.969  12.991
77503W        W49032  31.515  42.511  11.604
77504W        W49033  10.803  37.491   1.797
77505W        W49034  41.519   6.700   2.733
77506W        W49035  37.445  10.935  11.835
77507W        W49036  20.748  37.494   2.384
77508W        W49037   6.643   6.182  13.852
77509W        W49038  41.021  30.122  10.787
77510W        W49039  36.505  12.874   2.090
77511W        W49040  17.656  20.299  12.047
77512W        W49041  44.987  43.573  12.889
77513W        W49042  34.151   4.679   4.210
77514W        W49043  17.606  34.352  13.743
77515W        W49044  22.250  21.213   4.909
77516W        W49045  17.295  40.785  13.571
77517W        W49046   1.199  20.755  10.655
77518W        W49047   7.400  37.794   4.832
77519W        W49048  39.017  41.110  13.879
77520W        W49049  33.746  32.243  11.645
77521W        W49050  41.989  36.515   5.040
77522W        W49051  42.879  33.601   0.004
77523W        W49052   4.962  35.014   0.483
77524W        W49053  32.544  16.901   0.880
77525W        W49054  25.717  35.813  10.833
77526W        W49055  36.699  34.387   3.252
77527W        W49056   0.918  17.585  14.132
77528W        W49057  21.461  27.207   3.671
77529W        W49058   4.197  30.991   1.562
77530W        W49059  32.842  18.602   0.359
77531W        W49060  34.892  12.775  12.274
77532W        W49061  43.509  26.670  10.359
77533W        W49062  33.588  20.571  12.055
77534W        W49063  12.185  44.026  12.922
77535W        W49064   2.992  15.666  13.710
77536W        W49065   4.287  18.236   2.222
77537W        W49066  17.050  36.783   0.930
77538W        W49067  15.699  12.093   0.500
77539W        W49068  43.213  29.424   0.723
77540W        W49069   3.900  39.606  13.133
77541W        W49070  28.979   4.279   4.655
77542W        W49071   8.768   5.693  12.032
77543W        W49072  21.667  21.076  11.498
77544W        W49073   8.868   6.327  11.534
77545W        W49074   5.351  27.209  13.027
77546W        W49075   0.120  32.027   1.843
77547W        W49076   5.533  16.841  10.231
77548W        W49077  25.635  14.690   3.247
77549W        W49078  12.920  16.591  14.040
77550W        W49079   2.445  26.885   1.835
77551W        W49080  28.502  16.438   1.139
77552W        W49081  23.016  43.318   2.716
77553W        W49082   6.775  30.040  13.561
77554W        W49083  32.180  30.524  10.803
77555W        W49084  22.098  13.639   4.604
77556W        W49085   8.336  15.075  13.380
77557W        W49086   7.899  17.300   3.640
77558W        W49087  21.774  34.223  12.474
77559W        W49088  14.057   5.349   1.795
77560W        W49089  38.490  25.115   4.112
77561W        W49090  40.760  10.321  14.633
77562W        W49091  40.934  37.572  10.534
77563W        W49092  36.505   3.684   0.232
77564W        W49093   3.124  24.708   1.285
77565W        W49094  38.485  32.669   3.586
77566W        W49095  12.898  30.959   1.773
77567W        W49096  24.755  13.893   2.221
77568W        W49097  40.326   9.147  12.568
77569W        W49098  23.586   3.132  12.001
77570W        W49099  27.867  14.251  11.655
77571W        W49100  30.992  41.807  10.625
77572W        W49101  11.819  26.730   0.059
77573W        W49102  30.345  39.866   3.438
77574W        W49103  34.042  39.374  14.291
77575W        W49104   0.983  29.902   1.903
77576W        W49105  12.096   2.517   3.896
77577W        W49106  37.007  43.005   1.218
77578W        W49107   7.492   3.825   1.897
77579W        W49108  14.565  39.836  10.073
77580W        W49109  40.939  34.536   3.672
77581W        W49110  44.776  15.175  10.702
77582W        W49111  19.138   4.739   0.267
77583W        W49112  30.126  31.966   2.292
77584W        W49113  37.028  30.497  13.497
77585W        W49114   3.461  34.358  10.056
77586W        W49115  40.364  27.998   4.237
77587W        W49116   9.377  14.593   2.273
77588W        W49117  34.469  41.847   2.012
77589W        W49118  17.621   6.126  13.461
77590W        W49119  29.493  42.837   0.701
77591W        W49120   3.817  21.849  11.070
77592W        W49121   4.239   8.973  13.016
77593W        W49122  17.990  29.371   2.601
77594W        W49123  19.931  15.698  11.576
77595W        W49124   4.746  22.097   0.916
77596W        W49125  25.077  43.428  13.982
77597W        W49126   7.614  43.860   3.886
77598W        W49127  15.190  11.511   2.768
77599W        W49128  15.044   8.403   2.906
77600W        W49129  12.218  24.701  13.555
77601W        W49130   9.610  11.639   2.383
77602W        W49131  35.126  14.146  11.369
77603W        W49132  44.687  16.498  11.588
77604W        W49133  37.069   4.195   1.497
77605W        W49134  44.172  27.503  11.031
77606W        W49135   4.730   0.576  12.387
77607W        W49136  44.677  26.159  12.997
77608W        W49137   4.432  43.620  12.361
77609W        W49138  41.055  21.216   4.058
77610W        W49139  42.072  38.229  11.271
77611W        W49140  30.524  41.981   4.295
77612W        W49141   9.179  15.657  14.308
77613W        W49142  43.869  39.902   2.378
77614W        W49143  20.524  10.303   1.192
77615W        W49144  14.100  43.240  11.122
77616W        W49145  19.178   0.934  11.515
77617W        W49146  43.473  25.410   1.916
77618W        W49147  29.157  40.836  10.712
77619W        W49148  13.795  22.271   1.842
77620W        W49149   1.987  30.087  14.850
77621W        W49150  36.533  10.116  14.389
77622W        W49151  19.808   5.750   2.616
77623W        W49152  30.869  11.886   2.669
77624W        W49153  19.326  11.936   2.702
77625W        W49154  37.869  24.587  11.998
77626W        W49155   7.174  42.549   0.918
77627W        W49156  31.135   9.436   1.235
77628W        W49157  29.202  37.769   0.175
77629W        W49158  31.915  10.593  14.970
77630W        W49159  13.889   9.676   1.942
77631W        W49160  35.511  24.126   0.690
77632W        W49161  33.109  12.239  10.505
77633W        W49162  31.887  32.855  10.528
77634W        W49163  25.940  33.357   2.661
77635W        W49164  11.804  43.256  12.084
77636W        W49165  24.281  20.669  12.032
77637W        W49166  17.854  42.470  13.995
77638W        W49167  40.384  16.417   2.754
77639W        W49168  16.195  11.750  10.535
77640W        W49169  41.856   7.626  11.997
77641W        W49170  31.924  39.757   2.706
77642W        W49171   8.294  20.217   3.746
77643W        W49172  21.125   5.681  13.028
77644W        W49173  41.767  11.571  14.049
77645W        W49174  10.713  19.266   1.841
77646W        W49175   1.838  16.335  10.382
77647W        W49176  13.022  10.300   3.203
77648W        W49177  40.153  44.929  13.344
77649W        W49178  35.000   1.450   2.892
77650W        W49179  27.360  22.962  13.624
77651W        W49180  35.327  43.888   0.248
77652W        W49181  20.308   0.396   0.462
77653W        W49182  30.484  14.601   0.613
77654W        W49183  21.606   4.368   4.098
77655W        W49184  28.136  13.094  12.078
77656W        W49185  10.072  37.956  11.079
77657W        W49186  27.092   1.422   4.265
77658W        W49187  19.515  29.936   0.166
77659W        W49188  19.542  41.848   2.625
77660W        W49189   8.414   1.191   3.325
77661W        W49190  35.037  39.833   4.656
77662W        W49191   3.403  12.772  13.242
77663W        W49192  22.210  32.663  12.427
77664W        W49193   9.917  15.247  10.714
77665W        W49194  36.483  19.007  12.969
77666W        W49195  33.516  28.395   4.166
77667W        W49196  23.782  32.846   2.794
77668W        W49197  29.416   9.661   0.279
77669W        W49198  18.283  18.729   3.652
77670W        W49199  37.610  12.792  10.946
77671W        W49200  18.241   4.684   1.478
77672W        W49201  34.817  10.256  12.015
77673W        W49202  14.495  25.056  12.672
77674W        W49203  28.641   8.236  12.178
77675W        W49204  42.982  17.579   3.426
77676W        W49205  24.629  44.484   4.112
77677W        W49206   9.317  13.955  13.883
77678W        W49207   3.561  23.926  12.198
77679W        W49208  33.999  27.467   4.644
77680W        W49209  12.281  14.625   0.829
77681W        W49210  14.274   0.495  10.533
77682W        W49211   0.468  42.710   1.770
77683W        W49212  22.538  22.637  12.519
77684W        W49213  27.113  28.989  13.352
77685W        W49214   4.326  28.510   0.432
77686W        W49215  40.865  21.539  12.357
77687W        W49216  33.388  36.962   0.959
77688W        W49217  20.491  12.158  12.740
77689W        W49218  37.216   8.919  14.428
77690W        W49219  20.712  32.005  14.270
77691W        W49220  25.180  23.150  13.338
77692W        W49221  40.345  41.285  11.003
77693W        W49222  19.727  11.625   0.859
77694W        W49223  24.101  11.423   0.073
77695W        W49224  19.536  19.121   0.851
77696W        W49225  23.222  18.580  13.558
77697W        W49226  28.456  17.725   1.365
77698W        W49227  25.632  31.020  13.978
77699W        W49228  35.892  13.471   0.750
77700W        W49229  11.314  32.013  12.027
77701W        W49230   4.832  30.641  12.343
77702W        W49231   8.719  15.585  12.483
77703W        W49232  37.668  32.605   1.347
77704W        W49233  26.391  17.556  11.503
77705W        W49234  40.513  44.938   2.413
77706W        W49235  40.590  15.253   3.803
77707W        W49236  26.039  38.665   2.418
77708W        W49237  23.089   0.400  11.687
77709W        W49238  14.390  12.873   0.317
77710W        W49239   0.157  34.492  14.721
77711W        W49240  29.213   2.273   1.689
77712W        W49241   9.963   3.688   0.496
77713W        W49242  11.759  36.359   3.700
77714W        W49243   7.897  23.597   3.656
77715W        W49244  17.699  23.276  13.403
77716W        W49245  15.866  32.046   2.901
77717W        W49246   9.601  17.637   0.255
77718W        W49247   3.302  43.783   3.274
77719W        W49248   0.383  30.210  11.624
77720W        W49249   7.759  30.398  13.788
77721W        W49250   2.957  35.629   0.397
77722W        W49251  23.488  29.617   2.607
77723W        W49252  12.685  32.108  13.034
77724W        W49253  30.014  38.810  14.309
77725W        W49254  31.493   1.405  13.717
77726W        W49255  28.134  38.534   2.125
77727W        W49256  26.516  22.859  11.614
77728W        W49257  33.138  11.938  12.628
77729W        W49258  35.866  40.497  10.496
77730W        W49259  22.470  14.141   1.012
77731W        W49260  14.756  31.094   4.373
77732W        W49261  25.247   0.969  11.532
77733W        W49262  32.661  39.531  11.532
77734W        W49263   9.460   7.711  13.464
77735W        W49264  18.777  11.607   0.480
77736W        W49265  22.732  14.511   1.781
77737W        W49266  13.296  40.133  14.519
77738W        W49267  27.579   9.287  14.258
77739W        W49268  20.628  27.215  10.095
77740W        W49269  32.021  38.380  10.673
77741W        W49270  41.731  16.049  11.982
77742W        W49271  17.667  43.292  12.344
77743W        W49272   2.028   7.582  10.663
77744W        W49273  16.575  34.371   1.787
77745W        W49274   5.460  19.704   4.464
77746W        W49275   0.265  42.701   2.262
77747W        W49276  37.504  43.398  12.647
77748W        W49277  13.195  16.445   2.069
77749W        W49278  13.950  39.489  14.828
77750W        W49279  35.350  21.109  14.509
77751W        W49280  30.423   4.794  12.512
77752W        W49281  34.133  22.199   3.415
77753W        W49282  43.884   2.600  12.854
77754W        W49283   6.175  23.485   0.948
77755W        W49284  21.187  42.236  12.020
77756W        W49285   9.626  15.319  13.503
77757W        W49286  22.874  14.416   0.904
77758W        W49287  15.574  43.774   2.106
77759W        W49288  16.203  34.589  11.062
77760W        W49289   4.484   4.566  11.279
77761W        W49290  37.413  29.388   0.788
77762W        W49291  14.294  12.694  10.631
77763W        W49292  19.212  25.274  11.347
77764W        W49293  20.784  18.772   4.161
77765W        W49294  44.351  10.954  10.691
77766W        W49295  32.893  22.117   1.830
77767W        W49296  35.771  40.885  11.612
77768W        W49297  42.188  26.752  10.106
77769W        W49298   5.997  30.237  14.443
77770W        W49299  37.994  36.440   3.275
77771W        W49300  42.494  43.724  13.005
77772W        W49301  42.551  25.031   2.162
77773W        W49302  11.388  12.845   2.298
77774W        W49303  43.371   3.189  14.042
77775W        W49304   8.125  20.095   3.274
77776W        W49305  12.262  31.002  11.881
77777W        W49306  31.032   5.102  11.023
77778W        W49307  30.234  33.533   0.927
77779W        W49308   0.780   1.577   9.880
77780W        W49309  27.942  37.138  11.899
77781W        W49310  25.516  27.706  14.955
77782W        W49311  22.127  28.635  11.172
77783W        W49312   8.910  20.630   3.054
77784W        W49313   2.713  27.058   2.941
77785W        W49314  20.018  40.059  11.618
77786W        W49315  39.657  31.318   0.989
77787W        W49316   1.535   3.819   4.937
77788W        W49317  18.958   6.740  11.149
77789W        W49318  42.984   5.192  14.919
77790W        W49319  29.619   3.874   0.683
77791W        W49320  19.140  31.034   3.367
77792W        W49321  31.421   5.297  14.350
77793W        W49322  29.186  37.485  13.875
77794W        W49323  13.654   0.643   4.712
77795W        W49324  29.153  11.236  13.861
77796W        W49325  29.317  29.200  11.683
77797W        W49326   7.624  29.605   0.415
77798W        W49327   6.319  13.822   3.310
77799W        W49328  40.891  28.202   4.133
77800W        W49329   2.331  36.005   1.785
77801W        W49330  19.715  12.638  12.899
77802W        W49331  32.401  34.242   3.807
77803W        W49332  12.857  44.406  13.549
77804W        W49333  34.483  15.449   2.142
77805W        W49334  25.745  18.670   3.198
77806W        W49335  32.941  30.604  11.489
77807W        W49336  30.183  31.479  13.351
77808W        W49337  23.251  24.019  11.933
77809W        W49338  34.443  33.145  12.903
77810W        W49339  17.687   5.553   0.103
77811W        W49340  30.858   3.764   3.654
77812W        W49341  12.826  11.298  13.401
77813W        W49342   6.885  32.479  12.998
77814W        W49343   4.186  36.907  12.607
77815W        W49344  24.525   9.594   0.873
77816W        W49345  32.884   8.091  14.444
77817W        W49346   1.856   8.335  11.762
77818W        W49347  27.609  14.385  13.963
77819W        W49348  44.362   3.202   3.403
77820W        W49349  13.098   0.365   0.415
77821W        W49350   5.694  32.425   1.067
77822W        W49351  21.720  16.009   0.430
77823W        W49352   0.582  23.070   2.786
77824W        W49353  41.083  21.494  11.896
77825W        W49354   8.789   5.634  14.520
77826W        W49355  16.598  12.091   4.877
77827W        W49356   6.678  43.419  14.509
77828W        W49357  32.891  15.919   2.734
77829W        W49358  20.000  29.505  12.844
77830W        W49359  18.415  43.927  11.099
77831W        W49360  28.447  35.861  10.630
77832W        W49361  42.071  15.283  13.826
77833W        W49362  17.145  39.424   4.272
77834W        W49363  19.257   5.213  12.870
77835W        W49364   1.507   6.475   4.508
77836W        W49365   9.126  26.020   1.933
77837W        W49366   9.240  14.778   4.185
77838W        W49367  34.019  40.770  14.037
77839W        W49368  15.843  11.887   2.452
77840W        W49369  10.177  13.382   3.380
77841W        W49370  38.917  11.456   2.259
77842W        W49371  33.012  30.639  12.437
77843W        W49372  24.797   0.843   3.243
77844W        W49373  34.220  31.800   3.131
77845W        W49374  16.191  19.826  10.665
77846W        W49375  34.991   0.878  11.864
77847W        W49376   2.805  22.039  12.342
77848W        W49377  31.892  27.597   4.723
77849W        W49378  23.482   5.294  11.663
77850W        W49379  14.734  28.104  10.267
77851W        W49380  16.584  42.355   4.373
77852W        W49381  26.094   3.839   0.282
77853W        W49382  24.122   4.711   0.884
77854W        W49383  42.980   2.849  13.877
77855W        W49384  32.640  12.826   3.961
77856W        W49385  37.507  42.215   0.854
77857W        W49386   3.378  43.749   2.707
77858W        W49387  34.560  35.591   3.669
77859W        W49388  23.436  16.600  10.898
77860W        W49389  23.472  25.660   3.570
77861W        W49390  38.880  43.280  12.554
77862W        W49391   0.731   0.311   2.449
77863W        W49392  14.874  10.417  12.546
77864W        W49393  38.099   5.991   1.203
77865W        W49394  22.310  22.944   3.363
77866W        W49395  38.430   8.410   3.272
77867W        W49396  17.324  32.027  11.760
77868W        W49397  24.621  36.411   2.385
77869W        W49398  38.340  38.515   4.731
77870W        W49399  18.670  11.106   0.467
77871W        W49400   9.705  18.617   0.329
77872W        W49401   3.714   3.874  12.094
77873W        W49402  15.336  44.450   0.333
77874W        W49403  44.497  13.801   2.216
77875W        W49404   7.000  21.571   2.502
77876W        W49405  16.180  36.711   0.330
77877W        W49406   6.790  18.188   0.468
77878W        W49407  38.764  41.038  14.309
77879W        W49408  21.225   5.224   0.387
77880W        W49409  42.038   2.775   0.353
77881W        W49410  40.909  30.298   5.062
77882W        W49411  34.736  13.246  12.191
77883W        W49412  17.763  25.106   2.294
77884W        W49413  29.380  15.082  11.547
77885W        W49414  35.120   9.328  13.467
77886W        W49415   7.986  11.734  12.583
77887W        W49416  18.193  15.212   0.441
77888W        W49417   2.479  37.482  11.149
77889W        W49418  28.003   6.554   4.025
77890W        W49419   3.703  14.793  13.047
77891W        W49420  11.848   6.848  13.284
77892W        W49421  26.292  29.697   4.150
77893W        W49422  32.161  29.473   1.853
77894W        W49423  18.416   7.362  11.591
77895W        W49424  28.548  14.605   4.067
77896W        W49425   9.099  32.516   2.486
77897W        W49426  15.021  33.716  12.089
77898W        W49427   3.060  20.109  11.630
77899W        W49428  32.851  39.121   1.003
77900W        W49429   7.265  21.196   1.305
77901W        W49430  11.127  16.390  11.599
77902W        W49431   0.995  12.700  13.020
77903W        W49432   7.759  31.332  13.800
77904W        W49433  29.119  28.939  13.114
77905W        W49434   4.645  14.847   1.356
77906W        W49435  10.843  20.215  11.570
77907W        W49436  25.726  37.083   1.266
77908W        W49437  10.353   3.836   4.302
77909W        W49438   5.321  44.063  14.924
77910W        W49439  19.788  12.660   3.290
77911W        W49440   0.251  27.952   0.318
77912W        W49441  33.125  29.715  11.590
77913W        W49442  37.475  29.419  14.848
77914W        W49443  44.191   0.938   1.057
77915W        W49444   5.634   6.244  12.108
77916W        W49445   1.184   4.431  11.051
77917W        W49446  36.429  24.974   1.910
77918W        W49447   2.402  27.207  14.951
77919W        W49448  12.541  16.123   1.730
77920W        W49449  24.224  12.544   2.752
77921W        W49450  32.150   1.525  12.021
77922W        W49451   6.489  37.156   0.095
77923W        W49452  31.878  36.950  13.932
77924W        W49453  38.752   7.188  12.110
77925W        W49454  38.593   2.940  12.044
77926W        W49455  17.631  24.480  14.032
77927W        W49456  22.707  26.285   4.634
77928W        W49457  35.052   0.917  12.380
77929W        W49458  29.473   3.292   3.341
77930W        W49459  26.646  44.717   4.753
77931W        W49460  41.522  37.057   4.717
77932W        W49461  21.059  42.917   1.065
77933W        W49462  34.420  44.834  14.021
77934W        W49463  12.400  27.743   3.656
77935W        W49464   0.961  43.900   0.283
77936W        W49465  39.076  16.753  14.484
77937W        W49466  33.118  42.738  12.876
77938W        W49467   6.709  23.863   1.492
77939W        W49468  27.275  44.338  13.870
77940W        W49469  37.031   0.722  12.524
77941W        W49470  17.314  32.418   0.511
77942W        W49471  27.659  29.964  10.708
77943W        W49472  38.789  17.117   3.796
77944W        W49473  26.450   5.823   4.643
77945W        W49474  36.427  42.080  12.172
77946W        W49475  11.260   2.023  12.021
77947W        W49476  13.586   1.142  14.420
77948W        W49477   8.394  30.901   3.668
77949W        W49478   6.362  44.563   3.332
77950W        W49479  43.442  34.611   0.775
77951W        W49480  11.162  23.606  11.353
77952W        W49481  10.208  32.175  12.531
77953W        W49482  43.388   4.727  11.512
77954W        W49483  27.005  12.566   3.118
77955W        W49484  23.490  31.701  13.469
77956W        W49485  24.196  19.695  12.106
77957W        W49486  19.025  44.419  13.438
77958W        W49487  34.026  20.517   1.758
77959W        W49488  39.817  32.629  10.930
77960W        W49489  15.681  10.935   2.122
77961W        W49490  13.868  35.974   1.187
77962W        W49491  43.057  21.282   4.960
77963W        W49492  12.322  38.060   3.306
77964W        W49493  13.315  38.831  10.700
77965W        W49494   0.327  25.510  14.174
77966W        W49495  43.862  33.427  14.884
77967W        W49496  37.612  23.633  11.107
77968W        W49497  35.378  26.892  13.131
77969W        W49498  24.229   6.754  11.340
77970W        W49499  41.681  34.224   4.224
77971W        W49500  27.292  33.825   4.070
77972W        W49501  19.688  17.273  13.872
77973W        W49502  27.261   3.604  12.920
77974W        W49503   8.364  26.331   1.851
77975W        W49504   8.866  17.544  12.854
77976W        W49505   8.186  19.588   3.310
77977W        W49506   4.707  17.535   1.959
77978W        W49507  15.395   5.027  11.823
77979W        W49508  37.047  37.131  12.910
77980W        W49509  37.505  35.093  14.370
77981W        W49510  17.660  21.503   3.534
77982W        W49511  35.441  42.780  12.887
77983W        W49512  30.153  24.713  12.949
77984W        W49513  37.622  13.982   4.611
77985W        W49514  42.348   1.484  14.464
77986W        W49515  24.636   6.677   2.949
77987W        W49516  16.854  22.501   2.428
77988W        W49517  28.403  11.723   2.193
77989W        W49518  34.359  17.806  14.673
77990W        W49519  37.799  32.372  11.461
77991W        W49520  27.000  30.261   3.320
77992W        W49521  17.299   9.282  14.071
77993W        W49522  13.242  42.333  11.976
77994W        W49523  36.308  22.180  11.934
77995W        W49524  39.632   9.419   2.902
77996W        W49525  41.233  13.427  13.066
77997W        W49526  10.145  26.438   4.151
77998W        W49527  33.033   4.649   3.968
77999W        W49528  34.062  37.307   0.559
78000W        W49529  10.467  15.222  10.506
78001W        W49530  23.036  11.674  14.288
78002W        W49531  24.994  35.402   1.873
78003W        W49532   5.486  18.349  12.135
78004W        W49533  26.086  10.685   2.149
78005W        W49534  16.627  42.432   4.941
78006W        W49535  31.831  42.874  11.416
78007W        W49536  34.988   9.471   1.831
78008W        W49537  23.066  23.964   2.405
78009W        W49538   7.328  37.102   3.122
78010W        W49539  26.938   3.807  14.791
78011W        W49540   2.274  30.084  14.335
78012W        W49541  22.781  23.582  10.980
78013W        W49542  39.955  37.318   4.309
78014W        W49543  33.354   9.125   2.136
78015W        W49544  22.228  37.981   1.292
78016W        W49545  38.463   9.427  10.431
78017W        W49546  16.933  27.535  14.863
78018W        W49547  18.420   2.547  13.649
78019W        W49548  37.928   2.014  11.652
78020W        W49549  16.383  39.827  13.909
78021W        W49550  33.192  24.998   3.769
78022W        W49551  10.009  23.261   4.551
78023W        W49552  41.566  12.590  14.564
78024W        W49553  44.970  27.497  12.845
78025W        W49554   4.972   6.679   4.884
78026W        W49555  42.862  28.738  12.666
78027W        W49556  20.858  14.811   0.394
78028W        W49557   7.372   5.136   1.219
78029W        W49558  33.847   4.957   3.894
78030W        W49559  26.724  30.204  13.871
78031W        W49560  28.636  38.253  13.448
78032W        W49561  21.390  22.373  14.434
78033W        W49562  23.003  21.563  10.662
78034W        W49563   0.971  32.973  14.972
78035W        W49564  40.605  38.664  13.047
78036W        W49565  11.736  13.983   9.753
78037W        W49566   7.104  10.901  12.098
78038W        W49567  41.583  35.989  12.803
78039W        W49568  23.109  14.593   1.383
78040W        W49569  22.632  32.982   0.040
78041W        W49570  12.732  29.842  11.169
78042W        W49571  42.449  26.089   4.121
78043W        W49572  35.106  26.122   2.258
78044W        W49573  41.430  35.850  13.313
78045W        W49574  10.493   4.008   3.652
78046W        W49575   8.048  12.780  12.688
78047W        W49576   9.335  37.063   2.735
78048W        W49577  20.578  43.436   2.206
78049W        W49578  34.048  41.927   0.723
78050W        W49579  20.316  36.045  13.151
78051W        W49580  34.496  33.489   0.950
78052W        W49581  10.076  35.371   2.658
78053W        W49582  25.884  10.120  12.006
78054W        W49583   5.415  31.204   4.510
78055W        W49584  25.979   3.713   1.494
78056W        W49585   2.587   2.179   3.711
78057W        W49586   8.212   5.372   1.975
78058W        W49587  29.095  11.272  14.762
78059W        W49588  10.654   8.555  13.781
78060W        W49589  30.070  10.349   3.621
78061W        W49590  13.344  20.280  11.299
78062W        W49591  40.214  35.318   1.245
78063W        W49592  13.741  14.808  12.831
78064W        W49593  35.790  29.610   0.102
78065W        W49594  35.643  27.119  14.389
78066W        W49595   9.651  20.639   2.347
78067W        W49596  19.031   5.455  14.473
78068W        W49597  15.976  20.520   2.065
78069W        W49598   5.356   9.754  10.615
78070W        W49599  32.564   8.177  12.428
78071W        W49600   6.926  28.841  12.342
78072W        W49601  23.012   9.606   0.603
78073W        W49602  18.523   8.933  14.006
78074W        W49603  18.866  20.005  14.336
78075W        W49604   5.394   2.226   4.437
78076W        W49605   2.325  21.252  13.823
78077W        W49606  10.478  35.229  14.331
78078W        W49607   4.218  39.967  12.586
78079W        W49608   0.452  11.546   3.237
78080W        W49609  33.971  17.592   4.410
78081W        W49610  35.800  37.458  13.114
78082W        W49611   8.600   8.880   4.156
78083W        W49612   9.472  21.861  12.120
78084W        W49613   5.812  31.910   3.246
78085W        W49614  44.737  29.204  11.918
78086W        W49615  26.025  38.302   3.262
78087W        W49616  13.652  23.580   3.685
78088W        W49617   3.884  13.590  14.064
78089W        W49618  22.050  27.138   0.843
78090W        W49619  25.466   7.880   2.489
78091W        W49620  27.196   7.953   4.169
78092W        W49621  41.903  18.095  14.945
78093W        W49622  21.029  32.435   0.227
78094W        W49623  26.103  43.462  11.842
78095W        W49624   1.939   0.336   0.884
78096W        W49625  43.428  38.435   0.390
78097W        W49626  24.047  33.090  12.814
78098W        W49627  22.075  30.426  11.703
78099W        W49628  22.813  26.879  11.885
78100W        W49629   1.977  27.096   1.877
78101W        W49630   2.187  15.371   3.757
78102W        W49631  35.001  43.721  14.286
78103W        W49632  17.680  19.521   0.932
78104W        W49633  20.630  22.570   1.723
78105W        W49634  33.883  19.770  11.562
78106W        W49635  12.055   9.369  10.795
78107W        W49636   2.467  38.191  12.651
78108W        W49637  37.126  28.713   1.840
78109W        W49638  38.772   9.979  14.806
78110W        W49639  25.123  16.722  14.254
78111W        W49640   8.350  33.118  12.988
78112W        W49641  18.059  15.550   3.540
78113W        W49642  15.638  29.194  12.510
78114W        W49643  11.301  20.056  11.389
78115W        W49644  23.995  24.568   0.224
78116W        W49645  36.123  21.783  14.770
78117W        W49646  12.709  38.396   1.190
78118W        W49647  22.799  38.059   1.961
78119W        W49648   1.661  25.036   3.759
78120W        W49649  24.447  39.739  13.640
78121W        W49650  20.480  40.473   0.893
78122W        W49651  33.143  24.176   2.193
78123W        W49652  42.230  34.631   3.164
78124W        W49653  15.098  13.114  10.561
78125W        W49654   5.224   9.550  11.518
78126W        W49655  12.584  21.521  12.822
78127W        W49656   7.543  25.519   4.914
78128W        W49657  26.494  41.048   0.259
78129W        W49658  19.593  31.395  13.487
78130W        W49659  36.846  13.520  12.381
78131W        W49660  23.702   3.656  10.765
78132W        W49661  24.691  17.130   0.294
78133W        W49662  43.535  10.263  12.038
78134W        W49663   9.318  10.510  10.176
78135W        W49664  16.158  39.017   1.411
78136W        W49665  33.692  25.470  11.715
78137W        W49666  27.393   8.673   1.850
78138W        W49667  26.673  23.695   2.379
78139W        W49668  21.060   8.889   3.771
78140W        W49669  24.226  30.325   0.858
78141W        W49670   7.123  43.943   4.043
78142W        W49671  30.054  12.827   4.503
78143W        W49672  42.457  42.466   2.704
78144W        W49673  23.981   7.676  13.335
78145W        W49674  40.400   7.511  10.768
78146W        W49675  24.550  15.874   2.461
78147W        W49676   3.225  11.691   4.138
78148W        W49677  18.644  43.054  12.437
78149W        W49678   0.068  22.129  11.594
78150W        W49679  18.618  27.468   2.161
78151W        W49680  11.599   8.315   1.275
78152W        W49681  36.833  18.253   2.203
78153W        W49682   1.986  29.952   3.084
78154W        W49683   4.482  18.713  14.983
78155W        W49684  24.635  15.312   3.293
78156W        W49685  27.062  16.801  10.165
78157W        W49686  32.100  19.066  11.602
78158W        W49687  15.255  42.312  13.960
78159W        W49688  17.743  18.509  11.984
78160W        W49689  12.369  34.640   0.154
78161W        W49690  44.393   8.662  14.366
78162W        W49691   6.596  33.988  14.991
78163W        W49692   9.034   2.032  13.516
78164W        W49693  38.509   9.050  11.542
78165W        W49694  15.842  17.004   2.321
78166W        W49695  10.445   9.475   4.917
78167W        W49696  16.622   5.663   1.875
78168W        W49697  34.421   4.310   4.911
78169W        W49698   8.943  25.556   1.790
78170W        W49699  16.060  29.910  11.666
78171W        W49700   2.832   7.564   0.149
78172W        W49701  34.757   4.850  13.451
78173W        W49702  11.328  43.763  12.587
78174W        W49703  40.512  15.230   1.246
78175W        W49704  40.552   3.143  12.898
78176W        W49705  22.410  25.141  14.855
78177W        W49706  29.856   1.179   3.638
78178W        W49707  42.882  24.370   1.273
78179W        W49708  18.839  27.690  11.047
78180W        W49709  38.018  36.282  14.844
78181W        W49710  27.217  35.544   0.832
78182W        W49711  31.456  25.215  12.574
78183W        W49712  37.797  41.555  13.083
78184W        W49713  41.406   8.157  11.538
78185W        W49714  22.009  13.915   4.147
78186W        W49715   9.541  30.198   4.855
78187W        W49716  23.072   7.158  12.694
78188W        W49717   9.794   8.342   3.842
78189W        W49718  22.362  31.235  10.609
78190W        W49719  18.109  25.909   1.750
78191W        W49720  40.163  20.137  11.256
78192W        W49721  23.804  26.764  10.656
78193W        W49722  32.511  39.057  11.524
78194W        W49723  17.738  31.909   2.870
78195W        W49724   7.704  18.690  13.901
78196W        W49725   2.370  38.553  14.754
78197W        W49726  12.586  31.664  10.724
78198W        W49727   8.724  38.368   1.418
78199W        W49728  42.451  33.053  11.049
78200W        W49729  43.884  33.705   0.696
78201W        W49730   1.365  12.334  14.006
78202W        W49731  37.498  28.171  12.714
78203W        W49732  27.165  25.120   0.260
78204W        W49733  15.717  18.132  10.427
78205W        W49734  42.099  39.856   2.301
78206W        W49735   9.178  32.619   1.799
78207W        W49736  38.423  24.155   1.194
78208W        W49737  42.768  34.050   0.339
78209W        W49738   5.271   0.338  13.257
78210W        W49739   5.770  22.814   3.148
78211W        W49740  42.732  14.332   2.786
78212W        W49741  34.440  21.505  12.403
78213W        W49742  28.189  28.418  11.863
78214W        W49743  36.344  21.770   3.240
78215W        W49744  41.918  42.891  13.573
78216W        W49745  22.020   0.983   2.891
78217W        W49746   6.835   0.739  11.769
78218W        W49747  30.666  41.717   1.015
78219W        W49748  44.046  16.350   2.696
78220W        W49749  40.564  27.537  12.038
78221W        W49750  15.104   5.268   1.755
78222W        W49751  11.783  35.347   4.753
78223W        W49752  29.565   9.952  12.120
78224W        W49753  23.731  30.439   0.887
78225W        W49754  30.991  28.644   4.047
78226W        W49755  31.424  28.081  14.845
78227W        W49756  16.184  12.336   0.386
78228W        W49757  32.467  41.336   0.804
78229W        W49758  38.475   6.907   1.334
78230W        W49759  11.786  27.647  11.098
78231W        W49760  24.062  14.601  14.798
78232W        W49761  35.982  35.144   2.232
78233W        W49762  44.290  31.096   1.003
78234W        W49763  25.733  31.131   4.366
78235W        W49764  18.175  11.283  11.635
78236W        W49765  33.540  16.231   2.428
78237W        W49766  42.964  16.162  10.447
78238W        W49767  42.243   1.463  13.582
78239W        W49768  29.382  38.492  13.021
78240W        W49769  14.753   0.157  11.603
78241W        W49770  29.687  28.237   4.106
78242W        W49771  27.595  37.216   1.859
78243W        W49772  11.778  34.056  10.903
78244W        W49773  33.847   7.307  13.104
78245W        W49774   4.104  32.222   3.214
78246W        W49775  16.505  44.805   4.024
78247W        W49776  44.608   8.697   0.355
78248W        W49777  34.264  20.220   2.690
78249W        W49778   6.768   2.554  11.943
78250W        W49779  36.373   4.802   1.834
78251W        W49780  31.670   6.830  12.069
78252W        W49781  41.885  23.650  12.662
78253W        W49782  12.008  11.947  11.730
78254W        W49783  15.650  35.142  12.345
78255W        W49784  26.388  37.540   2.874
78256W        W49785  26.953  20.066  14.876
78257W        W49786  33.038   4.708  14.094
78258W        W49787  35.585  33.085  11.641
78259W        W49788  10.177  15.678   3.405
78260W        W49789  39.566  43.837  12.347
78261W        W49790  32.538  33.049  14.375
78262W        W49791   5.256  29.393   2.649
78263W        W49792  39.489  29.084  13.093
78264W        W49793  19.347  36.363  10.698
78265W        W49794   8.291   7.228  13.273
78266W        W49795  36.557   3.834  12.081
78267W        W49796  29.156   3.004   1.119
78268W        W49797  40.982  21.820   1.788
78269W        W49798  22.049  31.134   0.595
78270W        W49799   8.817  25.079  14.983
78271W        W49800  17.001   9.373   3.267
78272W        W49801  34.666  38.120   1.434
78273W        W49802   1.354  27.966  12.486
78274W        W49803  44.993   4.878   3.819
78275W        W49804   3.274  22.401   4.959
78276W        W49805   5.403  22.631  12.061
78277W        W49806  20.570  24.013   4.606
78278W        W49807  19.114  16.908  14.380
78279W        W49808  10.209  31.833  11.573
78280W        W49809  41.064  29.975  13.891
78281W        W49810  33.873  38.465  10.716
78282W        W49811   7.973   5.306  11.118
78283W        W49812  18.686  21.460  12.211
78284W        W49813   2.818  29.111  13.826
78285W        W49814  26.747  44.643   2.542
78286W        W49815  21.034   8.181  14.811
78287W        W49816   4.368   4.689   3.325
78288W        W49817  34.952  23.228  13.424
78289W        W49818  40.145   8.614   5.139
78290W        W49819   1.353  39.440   3.772
78291W        W49820  31.561   9.810  14.569
78292W        W49821  43.932   7.134  12.106
78293W        W49822  17.334  24.682   5.087
78294W        W49823   7.278  33.425   3.587
78295W        W49824   8.385  42.808   4.294
78296W        W49825   6.887  19.353   2.719
78297W        W49826  33.840  23.508  14.895
78298W        W49827   8.891  15.232  14.143
78299W        W49828  12.631  37.376  11.004
78300W        W49829  10.233  12.570  12.773
78301W        W49830  22.035   1.105   0.285
78302W        W49831  43.371  14.135  14.160
78303W        W49832  25.076  20.617  10.684
78304W        W49833   0.585  26.183  11.219
78305W        W49834   7.457  31.526  11.664
78306W        W49835  18.746   5.805  10.762
78307W        W49836  12.430   2.378  13.071
78308W        W49837  30.694  42.816  12.510
78309W        W49838  43.544   5.934   3.450
78310W        W49839  16.711  18.336   0.369
78311W        W49840  28.453  38.469   0.782
78312W        W49841  26.758  37.221  12.601
78313W        W49842  22.616  18.283   3.224
78314W        W49843   7.283  24.629   2.697
78315W        W49844  20.656  39.140  13.790
78316W        W49845  30.931   5.832   4.992
78317W        W49846  26.769   8.800   0.234
78318W        W49847  18.537  23.042   1.157
78319W        W49848  15.909  44.165  12.072
78320W        W49849   6.910  23.284   3.726
78321W        W49850   9.117  12.809  13.603
78322W        W49851   2.616   1.941  12.015
78323W        W49852  23.490  37.545  10.698
78324W        W49853  36.629   3.352   1.220
78325W        W49854  13.124   6.480  10.896
78326W        W49855  30.132  10.394   0.339
78327W        W49856  16.680  29.081  12.799
78328W        W49857  18.170  44.294   2.673
78329W        W49858  38.005  28.845   2.114
78330W        W49859  43.843  42.432  14.488
78331W        W49860  31.530  37.403   4.143
78332W        W49861  11.725   5.200   4.388
78333W        W49862  15.327   0.920  11.584
78334W        W49863  31.787  44.462  13.445
78335W        W49864  30.858  34.926   3.640
78336W        W49865  23.683  22.630   2.712
78337W        W49866  21.386  25.250  10.874
78338W        W49867  13.031   3.620   0.690
78339W        W49868  21.809  18.230  14.466
78340W        W49869  32.027  23.507  13.815
78341W        W49870  10.174  32.542  14.007
78342W        W49871   3.841  27.397   2.373
78343W        W49872   0.535  18.217  11.885
78344W        W49873  19.540   2.303   2.833
78345W        W49874   5.215  21.048   3.771
78346W        W49875  39.557  16.177  13.489
78347W        W49876  12.107   5.340  14.899
78348W        W49877  44.210  33.891  11.040
78349W        W49878  36.126  32.478  11.092
78350W        W49879  39.850  13.099  12.047
78351W        W49880  28.040  13.265  14.329
78352W        W49881  30.197   7.185   3.332
78353W        W49882  24.698  31.062  10.427
78354W        W49883   0.970  17.352  12.466
78355W        W49884  14.613   7.663   2.697
78356W        W49885  26.209  23.356   2.693
78357W        W49886  41.064  27.148   3.072
78358W        W49887  10.312  28.007   1.934
78359W        W49888  44.774   2.711  12.968
78360W        W49889   8.738  21.921  11.707
78361W        W49890   3.924   1.587  12.384
78362W        W49891  12.639  30.230   4.557
78363W        W49892   0.565  37.842   4.121
78364W        W49893   2.714  18.532   1.306
78365W        W49894  30.312  14.654   4.182
78366W        W49895  40.930  17.459  12.029
78367W        W49896  24.463  29.852   2.351
78368W        W49897  28.400  18.156  12.970
78369W        W49898  17.367  16.752  12.897
78370W        W49899  30.678  11.296  13.874
78371W        W49900  29.413  16.779   4.780
78372W        W49901  43.236   4.334  10.462
78373W        W49902  29.713  20.229  12.939
78374W        W49903  29.972   0.402  14.056
78375W        W49904   7.623  41.511  14.434
78376W        W49905   1.249  30.255  14.475
78377W        W49906  44.026  29.662   2.887
78378W        W49907  44.388  12.660  13.604
78379W        W49908  22.479   1.775  11.917
78380W        W49909  10.151  38.341  11.620
78381W        W49910   6.181   3.935  13.092
78382W        W49911  34.528   7.070  12.413
78383W        W49912  30.801  44.774  12.640
78384W        W49913  36.412  30.276  10.711
78385W        W49914  44.431   0.376   0.746
78386W        W49915  19.585  42.958   2.746
78387W        W49916  41.821   1.650  12.017
78388W        W49917   0.496  13.778   1.662
78389W        W49918  40.338  41.589  11.411
78390W        W49919   3.842  36.320   3.201
78391W        W49920  11.381   3.487   3.333
78392W        W49921  15.178  37.965   0.713
78393W        W49922  26.990  37.499  12.191
78394W        W49923   8.312  42.064  14.368
78395W        W49924  38.995  33.402   0.967
78396W        W49925  30.516   3.803   2.762
78397W        W49926  21.016  10.176  11.214
78398W        W49927  26.642  35.613   2.725
78399W        W49928  16.257   5.225  11.233
78400W        W49929  16.075   4.153   3.841
78401W        W49930  36.004  38.487  13.019
78402W        W49931  17.931  23.251   2.401
78403W        W49932  30.066  14.699   3.284
78404W        W49933  32.548   7.814   0.186
78405W        W49934   6.990  30.653   0.762
78406W        W49935   8.919  15.850  14.740
78407W        W49936  39.760   8.850  13.100
78408W        W49937  23.665  15.260   3.101
78409W        W49938   4.881  25.298  10.758
78410W        W49939  17.241  19.710   2.174
78411W        W49940  17.548  41.444   3.774
78412W        W49941   9.182  14.886  10.911
78413W        W49942   1.323  23.344   1.670
78414W        W49943  21.102  12.736  12.420
78415W        W49944  29.121  29.089  12.588
78416W        W49945  16.076  40.803  13.364
78417W        W49946   6.181   8.624  12.059
78418W        W49947   0.329  41.740  11.921
78419W        W49948  44.475  13.432  14.909
78420W        W49949  10.275  23.630   2.543
78421W        W49950  35.953  21.137   0.935
78422W        W49951  18.635  23.662   1.958
78423W        W49952  28.108   4.142  14.736
78424W        W49953  34.365   5.269  12.577
78425W        W49954  17.295  25.640   0.731
78426W        W49955  37.922  35.012   2.865
78427W        W49956  28.447   7.694   1.263
78428W        W49957  13.331  42.195  11.484
78429W        W49958   9.931   4.677  13.306
78430W        W49959  31.380   8.157   0.668
78431W        W49960  33.178  41.985   1.893
78432W        W49961  43.019  10.681   4.582
78433W        W49962  40.757  37.396   4.790
78434W        W49963  24.123  11.077   0.445
78435W        W49964  17.035  10.267  11.351
78436W        W49965   3.154  39.079   1.850
78437W        W49966  10.720   9.625  10.758
78438W        W49967  38.612  34.151   3.492
78439W        W49968   5.912  31.073  14.901
78440W        W49969   3.861  22.528  12.052
78441W        W49970  36.213  27.053   2.239
78442W        W49971  14.786  21.294   4.124
78443W        W49972  25.065  25.780   4.612
78444W        W49973  41.863   8.421   1.850
78445W        W49974  19.320  16.511  14.950
78446W        W49975   4.269  18.772  14.001
78447W        W49976  10.629   7.096   2.166
78448W        W49977  31.243  30.555   3.655
78449W        W49978  31.963   2.149   1.805
78450W        W49979  26.447  16.593  13.026
78451W        W49980  35.471  17.529  10.945
78452W        W49981  40.330   6.581   3.152
78453W        W49982   0.384  39.395   4.621
78454W        W49983  17.711  23.113   0.782
78455W        W49984  17.562   4.781  10.750
78456W        W49985  39.238   8.903   4.171
78457W        W49986   4.658   8.495   3.691
78458W        W49987  20.488  41.803   2.761
78459W        W49988  28.172  10.363   2.250
78460W        W49989   1.307  29.530  12.935
78461W        W49990   0.370  41.356  11.567
78462W        W49991  19.314  13.802  14.246
78463W        W49992  38.668  30.186   2.358
78464W        W49993  22.465  31.363   2.370
78465W        W49994  38.457  35.701  12.527
78466W        W49995   8.323  23.099   0.504
78467W        W49996  28.695  41.811  13.120
78468W        W49997  19.681  35.571  12.011
78469W        W49998  11.113  31.277  14.630
78470W        W49999  43.545   4.173   4.011
78471W        W50000   0.430   6.629   3.604
78472W        W50001   3.689  19.643   4.624
78473W        W50002   6.147  16.335   4.547
78474W        W50003  28.485  40.572   4.224
78475W        W50004  28.919  17.983  13.388
78476W        W50005  13.737   5.258   1.359
78477W        W50006  25.101  39.342  14.519
78478W        W50007  30.940   5.346  10.558
78479W        W50008  30.635  40.882   2.360
78480W        W50009  18.738  16.739   0.716
78481W        W50010  30.721  26.123  13.272
78482W        W50011  38.282  11.233   0.638
78483W        W50012  37.078  31.721   0.910
78484W        W50013  36.982   6.275   3.358
78485W        W50014  15.594  32.385  13.856
78486W        W50015  22.457   4.713   3.392
78487W        W50016   0.318  40.422   3.723
78488W        W50017  33.576  17.649  12.441
78489W        W50018   5.582  41.561   3.616
78490W        W50019   5.904  36.964   2.315
78491W        W50020   2.730  35.137   1.350
78492W        W50021  22.001  13.105  12.083
78493W        W50022  17.332  30.984   1.419
78494W        W50023  40.435   0.906   4.936
78495W        W50024  12.386  21.321   1.413
78496W        W50025  23.667  16.757   1.947
78497W        W50026  24.118  23.495   4.639
78498W        W50027  40.260   3.735   0.764
78499W        W50028  28.609  40.531  13.956
78500W        W50029   9.142  30.841  11.418
78501W        W50030   8.349   5.923   2.406
78502W        W50031  28.132  10.346  14.303
78503W        W50032   8.244  27.507   3.302
78504W        W50033  25.752  41.475  11.129
78505W        W50034  24.793  22.278   3.766
78506W        W50035  27.961  38.914  14.747
78507W        W50036   7.351  42.265   2.779
78508W        W50037  25.965  11.303   0.458
78509W        W50038  10.765  23.462   1.645
78510W        W50039  23.015  28.310   4.615
78511W        W50040  33.390  21.360  14.426
78512W        W50041  34.518  32.102  12.995
78513W        W50042  22.523   9.775   0.451
78514W        W50043  38.977  31.461  14.439
78515W        W50044  20.511  19.413   0.982
78516W        W50045  24.757  17.662  13.901
78517W        W50046  25.017   3.355  13.434
78518W        W50047   1.181  22.918  12.988
78519W        W50048   4.403   4.494  13.737
78520W        W50049  15.425  35.024   1.110
78521W        W50050  15.210  33.132   1.218
78522W        W50051  28.415   5.800   1.391
78523W        W50052  29.008  17.607   2.419
78524W        W50053  13.145  27.450   2.621
78525W        W50054  14.270  20.676  11.919
78526W        W50055  25.010  14.472  12.559
78527W        W50056   0.429  21.508  14.007
78528W        W50057  40.802  44.305  11.735
78529W        W50058   6.378  30.656  11.628
78530W        W50059   1.321  42.543  14.225
78531W        W50060  37.226  34.073   2.342
78532W        W50061  16.376  38.474  11.342
78533W        W50062  35.456  26.728   4.214
78534W        W50063  41.116  36.079  12.971
78535W        W50064  13.238  30.489  12.965
78536W        W50065   9.791  36.070   0.813
78537W        W50066   6.480   1.096   4.046
78538W        W50067  21.143  14.980   3.265
78539W        W50068  31.328  34.774  11.504
78540W        W50069   9.198   9.573   3.602
78541W        W50070   7.886   6.290   4.635
78542W        W50071  32.372  37.328   5.063
78543W        W50072  36.516  15.325  12.084
78544W        W50073  23.267  27.275  11.232
78545W        W50074  16.483   2.949   2.811
78546W        W50075  34.590  29.876   0.396
78547W        W50076  10.862   3.913   1.220
78548W        W50077   9.630  36.852   0.448
78549W        W50078  30.947  12.721  12.998
78550W        W50079   1.258  34.330   0.682
78551W        W50080  35.116  24.682   1.868
78552W        W50081  25.503  16.292   3.697
78553W        W50082  29.004  39.399  14.094
78554W        W50083   0.489  10.889  11.979
78555W        W50084  33.969  23.905   2.536
78556W        W50085  19.115  24.487  13.321
78557W        W50086  27.555   6.277   2.908
78558W        W50087  16.966  37.331   0.888
78559W        W50088  42.510  44.057   2.289
78560W        W50089  29.711  18.596  11.659
78561W        W50090  18.630  22.726   4.562
78562W        W50091  25.193  12.383   0.869
78563W        W50092  29.538  19.869   3.311
78564W        W50093  41.332  29.355   1.910
78565W        W50094  26.259  16.696  11.937
78566W        W50095  39.540  25.663  12.631
78567W        W50096   3.939  34.407   1.322
78568W        W50097   4.949  11.733  13.420
78569W        W50098  40.977  28.412   0.338
78570W        W50099   2.251  41.281   2.214
78571W        W50100   8.548  31.820  13.015
78572W        W50101   9.052  29.902   0.447
78573W        W50102  43.836  13.731  12.918
78574W        W50103  14.800  33.809   3.137
78575W        W50104  16.050  41.059  11.186
78576W        W50105  12.611  42.311  13.052
78577W        W50106   3.311  30.964  12.032
78578W        W50107   9.491  12.033  10.890
78579W        W50108  26.135  20.874   2.162
78580W        W50109   8.802  29.699   4.582
78581W        W50110  29.944  32.830   1.942
78582W        W50111  41.539  40.562   3.735
78583W        W50112   8.203  26.228   3.913
78584W        W50113  18.059  29.401  12.992
78585W        W50114   1.263   6.914   0.084
78586W        W50115   5.237  11.030  11.549
78587W        W50116  30.926  33.903  11.486
78588W        W50117  26.093  12.782  14.828
78589W        W50118   9.595  32.456   4.097
78590W        W50119  39.904  13.164   1.170
78591W        W50120  41.750  42.358   2.243
78592W        W50121  13.629  39.336  14.437
78593W        W50122  16.851  31.234   1.272
78594W        W50123  40.577  17.489   3.870
78595W        W50124  14.079  31.630   1.766
78596W        W50125  39.881  39.311  12.163
78597W        W50126   6.690  43.959   2.145
78598W        W50127  29.054  12.695   4.739
78599W        W50128  37.583  35.843   2.298
78600W        W50129  24.644  24.979  13.329
78601W        W50130  44.854  27.903   2.166
78602W        W50131  19.037   2.081   4.126
78603W        W50132  12.816   1.538  12.959
78604W        W50133  29.605  39.862  14.689
78605W        W50134   2.109  41.572  13.877
78606W        W50135   9.382  19.982   1.911
78607W        W50136  36.900  27.606  12.232
78608W        W50137  27.994   3.201   5.058
78609W        W50138  36.003   4.862   1.154
78610W        W50139   9.570   9.208  13.031
78611W        W50140  24.278  36.158  14.798
78612W        W50141  38.574  32.095  13.460
78613W        W50142  24.507  21.824  10.627
78614W        W50143  32.450  28.948  10.993
78615W        W50144   3.310  20.985   4.136
78616W        W50145  21.096   0.858   0.399
78617W        W50146  23.213   6.200   3.548
78618W        W50147  40.835  37.470  14.503
78619W        W50148   2.185   8.886   1.396
78620W        W50149  33.282  39.679  12.635
78621W        W50150  31.125  14.174  13.789
78622W        W50151  24.224   6.481   3.976
78623W        W50152   0.816   0.002  14.441
78624W        W50153   8.348   6.977   4.229
78625W        W50154  16.613  22.496  10.218
78626W        W50155  31.987   5.074  11.953
78627W        W50156  17.598   6.765  13.872
78628W        W50157   7.382  43.271   1.475
78629W        W50158   0.592  39.403   3.109
78630W        W50159  17.576  40.020   4.241
78631W        W50160  27.722   2.456  10.450
78632W        W50161  28.100   9.398  12.773
78633W        W50162  31.064  30.441   2.052
78634W        W50163   0.906  12.168  14.181
78635W        W50164   3.960  16.882  13.212
78636W        W50165  12.144  14.354  10.754
78637W        W50166  23.488  17.345  11.605
78638W        W50167  36.559  18.210  11.835
78639W        W50168  33.850   1.570  12.946
78640W        W50169  34.499   2.258  14.478
78641W        W50170  34.467  30.963   1.303
78642W        W50171   1.129  24.109  14.617
78643W        W50172   6.370  37.867   2.119
78644W        W50173   2.854  19.772   0.477
78645W        W50174  31.626   6.424  14.555
78646W        W50175   3.316  22.884  11.493
78647W        W50176  22.011  17.732   3.725
78648W        W50177  14.635  44.482  14.940
78649W        W50178  22.087   8.061   1.956
78650W        W50179  17.199  31.527   0.268
78651W        W50180   9.127  44.334  10.618
78652W        W50181  16.963  18.543   1.449
78653W        W50182  31.894   4.575  12.045
78654W        W50183   3.429  18.163   2.842
78655W        W50184  39.937  38.598  11.600
78656W        W50185  41.459   4.870   2.562
78657W        W50186  13.045  16.101   1.742
78658W        W50187  34.039  22.638   3.778
78659W        W50188  21.630  33.500   3.445
78660W        W50189  34.494  13.097   0.785
78661W        W50190  19.654  42.392   2.790
78662W        W50191   8.639  38.362   2.742
78663W        W50192  33.313  27.964   1.915
78664W        W50193  25.724  29.449  11.000
78665W        W50194  41.747  39.569   2.574
78666W        W50195   6.632   7.408   3.134
78667W        W50196  11.363  43.064  11.110
78668W        W50197   5.908  41.500  11.262
78669W        W50198   9.790  24.267   4.575
78670W        W50199   8.392   3.064   3.364
78671W        W50200  22.321  34.428   4.187
78672W        W50201  21.552   3.449  13.428
78673W        W50202  34.836   0.400  11.255
78674W        W50203   2.477   0.735  11.270
78675W        W50204  42.259  29.323  14.449
78676W        W50205  21.554  10.542  13.920
78677W        W50206  41.337  31.105  14.465
78678W        W50207   3.872  27.207   3.417
78679W        W50208  13.865  31.937  12.425
78680W        W50209   4.674   2.440   3.415
78681W        W50210  27.699  15.856  11.486
78682W        W50211   9.743  17.778  11.187
78683W        W50212  28.584  11.690  10.634
78684W        W50213  31.973  38.817  10.395
78685W        W50214  39.305  20.265  13.852
78686W        W50215  26.398   1.972  11.031
78687W        W50216  33.069  15.834  13.946
78688W        W50217  12.917  35.793   0.209
78689W        W50218  30.898  36.090  12.439
78690W        W50219  18.704  38.431  12.050
78691W        W50220  31.773   5.219   4.451
78692W        W50221  19.545  28.678  12.505
78693W        W50222  23.067  12.569  12.665
78694W        W50223   3.973   6.423  12.402
78695W        W50224  20.725  24.234   3.838
78696W        W50225  42.968  39.592   3.780
78697W        W50226  31.592  24.814  13.935
78698W        W50227  20.706  27.884   4.643
78699W        W50228  34.913  36.042   4.980
78700W        W50229  18.006  26.809  13.942
78701W        W50230  25.107   2.915   4.057
78702W        W50231  13.851  34.678   5.029
78703W        W50232   3.776   1.467   4.373
78704W        W50233   3.804  19.576  11.610
78705W        W50234   2.182  30.963  13.432
78706W        W50235  23.671  42.508  13.849
78707W        W50236  22.074   9.897   3.443
78708W        W50237  40.773  41.857  11.548
78709W        W50238  18.506   6.190  11.989
78710W        W50239  42.500  30.665  13.458
78711W        W50240   9.953  29.614  14.247
78712W        W50241  11.572  37.041  14.443
78713W        W50242   7.883  27.215  10.700
78714W        W50243   4.059  25.583   0.008
78715W        W50244   7.771  30.327   3.103
78716W        W50245  44.534   7.791   5.051
78717W        W50246  34.553  22.160  13.044
78718W        W50247  42.542  24.802   3.348
78719W        W50248  29.104  38.024   2.754
78720W        W50249   6.749  33.114   3.874
78721W        W50250  18.886  31.618  10.252
78722W        W50251   6.677  39.403   2.810
78723W        W50252   8.197   2.442   1.633
78724W        W50253   5.417  19.042  13.272
78725W        W50254  23.449  10.746   2.235
78726W        W50255   6.704  12.158  14.041
78727W        W50256  24.913  43.919  13.925
78728W        W50257   3.502  24.095   2.315
78729W        W50258  10.262  29.684  12.430
78730W        W50259  42.977  15.014   2.292
78731W        W50260  37.545  19.319  14.850
78732W        W50261  19.789  16.184  11.573
78733W        W50262  16.878  10.041   5.304
78734W        W50263  27.924  15.433  13.489
78735W        W50264  29.502  20.096  14.483
78736W        W50265  29.076  25.386  13.469
78737W        W50266  11.630  20.929  11.757
78738W        W50267   6.773  29.512   0.420
78739W        W50268  13.134  14.273  14.487
78740W        W50269  24.913   4.137  12.559
78741W        W50270  16.162  42.464  11.149
78742W        W50271  26.414  35.279  10.709
78743W        W50272  38.756  18.276   1.880
78744W        W50273  44.900  29.438  12.346
78745W        W50274  22.087  43.271   2.764
78746W        W50275  35.131  27.240   3.615
78747W        W50276  44.027  18.902  12.584
78748W        W50277  27.797   3.286  13.750
78749W        W50278   1.966  29.544  11.028
78750W        W50279   1.360  41.303  13.132
78751W        W50280  30.640  21.007   2.600
78752W        W50281  13.270   4.874  12.103
78753W        W50282  22.618  19.112  13.988
78754W        W50283  31.783  16.116  14.250
78755W        W50284   0.545  23.116  13.689
78756W        W50285   9.436  18.524   0.781
78757W        W50286  34.634  25.133  13.296
78758W        W50287  22.721  29.534   4.982
78759W        W50288  22.649  17.279  12.532
78760W        W50289  27.534  32.233  10.167
78761W        W50290  10.702  35.335  13.874
78762W        W50291  26.430  10.743  14.782
78763W        W50292   1.433   0.501  11.605
78764W        W50293   0.237  12.677   1.364
78765W        W50294  42.874  30.077  10.727
78766W        W50295   4.763  21.917   9.952
78767W        W50296  31.972  20.118  11.144
78768W        W50297  37.441   8.628   2.075
78769W        W50298  31.064  35.997   4.201
78770W        W50299   3.032   9.853  12.004
78771W        W50300   7.428  12.781  11.626
78772W        W50301  43.901  43.219   0.277
78773W        W50302   2.315  22.958  10.487
78774W        W50303  13.849  14.533   2.903
78775W        W50304  38.957  17.833   0.968
78776W        W50305  19.280  31.296  12.087
78777W        W50306   7.318  41.280   0.380
78778W        W50307   1.502   9.308   0.808
78779W        W50308  41.008  17.730   0.745
78780W        W50309  35.014  26.462   4.560
78781W        W50310   4.878   8.151   4.622
78782W        W50311  35.359  43.788   1.358
78783W        W50312  17.739  24.877  12.491
78784W        W50313  37.871  39.103  12.975
78785W        W50314   2.260   7.608   2.819
78786W        W50315  37.898  38.290  12.120
78787W        W50316  43.881  44.784   2.391
78788W        W50317  11.372  44.020  14.274
78789W        W50318  19.548  22.753   0.772
78790W        W50319  41.079  38.964  13.937
78791W        W50320  25.434  30.140  14.892
78792W        W50321  25.222  20.144  10.472
78793W        W50322  29.645  26.117  12.504
78794W        W50323   9.401   3.863   1.829
78795W        W50324  14.569   9.825   1.283
78796W        W50325  37.856  16.590   0.745
78797W        W50326  15.305  32.044  10.805
78798W        W50327  30.836  37.129  11.025
78799W        W50328  30.900  12.149  13.182
78800W        W50329  35.082   0.347   3.133
78801W        W50330  32.806  24.646   2.231
78802W        W50331  12.737   3.511   3.199
78803W        W50332  38.536   3.836   4.071
78804W        W50333  23.137  17.058   1.296
78805W        W50334  15.786  18.140   1.569
78806W        W50335  32.398   2.848   2.101
78807W        W50336  42.469  26.756   3.459
78808W        W50337  38.811  14.361   0.389
78809W        W50338   1.077  15.511   4.174
78810W        W50339  18.866  15.379  14.310
78811W        W50340  18.824  18.082  11.020
78812W        W50341  25.272  13.502  11.163
78813W        W50342  19.072  39.141  12.399
78814W        W50343  11.273   7.959   4.642
78815W        W50344  24.222   8.423  11.634
78816W        W50345  27.275  28.076   2.150
78817W        W50346  34.172  42.491  11.474
78818W        W50347   6.868   9.621   1.763
78819W        W50348  18.519  44.843  14.066
78820W        W50349   7.640  23.066  14.891
78821W        W50350  40.521  42.748   0.008
78822W        W50351  18.134   3.900   0.716
78823W        W50352  27.192  11.485   0.225
78824W        W50353  30.849  11.273  13.385
78825W        W50354  43.482  39.859   3.301
78826W        W50355   1.856  33.401  12.310
78827W        W50356  26.558  44.268  12.395
78828W        W50357  25.000  44.855   1.329
78829W        W50358  16.536  15.668   1.380
78830W        W50359  18.514  25.177   2.743
78831W        W50360  21.761   9.769  12.860
78832W        W50361  11.587  19.673  11.552
78833W        W50362  17.133  40.473   3.615
78834W        W50363   3.489  21.450  12.511
78835W        W50364   7.651  27.053   4.466
78836W        W50365  40.746  28.011  12.111
78837W        W50366  32.111  18.796   0.931
78838W        W50367  16.646   7.233  10.771
78839W        W50368   3.844  31.057  11.601
78840W        W50369  16.233  40.531   1.752
78841W        W50370   4.216  36.508   1.265
78842W        W50371  26.877  26.498   1.129
78843W        W50372  31.547   7.165   2.723
78844W        W50373  17.374  39.795  12.900
78845W        W50374  22.477   9.265   1.735
78846W        W50375  23.107   1.658   2.414
78847W        W50376  40.336   7.186   2.560
78848W        W50377   3.880   3.812  12.598
78849W        W50378  37.453  42.782  11.879
78850W        W50379  11.069  26.205   4.887
78851W        W50380  36.484  32.024  14.564
78852W        W50381  34.014  31.918  13.809
78853W        W50382   4.041   4.147  13.997
78854W        W50383  11.742  19.155   3.001
78855W        W50384  14.700   1.883   3.606
78856W        W50385  32.156   7.289   0.748
78857W        W50386  32.413  12.698  11.148
78858W        W50387  33.520  21.854  14.396
78859W        W50388   4.873  39.083  14.951
78860W        W50389  34.566  25.199   0.301
78861W        W50390  13.134  14.596  12.016
78862W        W50391   7.963   1.400   9.681
78863W        W50392  21.200  19.938  12.702
78864W        W50393  14.110  19.692   4.535
78865W        W50394  25.101   3.032   0.904
78866W        W50395  23.639  27.719  12.787
78867W        W50396  31.386   0.465   4.467
78868W        W50397  36.007  33.833  11.195
78869W        W50398  10.814   4.397   2.011
78870W        W50399  28.874  12.907  14.325
78871W        W50400   7.336  19.565   2.815
78872W        W50401  40.942   6.518  12.158
78873W        W50402   3.216  12.363   1.668
78874W        W50403  17.004  20.467   3.125
78875W        W50404  34.835  38.371   1.901
78876W        W50405  29.027   0.635  14.277
78877W        W50406  31.436  16.980   4.304
78878W        W50407  18.731   8.255   0.519
78879W        W50408   8.803  35.059   4.451
78880W        W50409   4.332  43.503   1.715
78881W        W50410   0.029  24.231   3.458
78882W        W50411  42.411  34.727   4.360
78883W        W50412  15.829  28.967  10.319
78884W        W50413  15.644   2.932   1.346
78885W        W50414   8.029  31.194  13.382
78886W        W50415  29.584  15.069   3.997
78887W        W50416  13.605  13.356  11.291
78888W        W50417  21.622  42.886  10.915
78889W        W50418  41.065  15.129   0.453
78890W        W50419  32.168   2.733  12.552
78891W        W50420  12.672  26.142  12.526
78892W        W50421  25.981  26.121   0.198
78893W        W50422  17.074  11.772  12.576
78894W        W50423  17.788  43.861   4.133
78895W        W50424  27.136   6.425   1.375
78896W        W50425  15.731  25.893   0.466
78897W        W50426  16.870  37.636  12.341
78898W        W50427   3.222  17.844  11.131
78899W        W50428  20.589  33.421   5.208
78900W        W50429  11.884  32.546   0.785
78901W        W50430  28.806  32.334   9.685
78902W        W50431  44.806  43.051   3.875
78903W        W50432  32.333  42.923  11.526
78904W        W50433  13.788  26.022   3.612
78905W        W50434  20.624  33.428  11.335
78906W        W50435  43.057  43.982   3.883
78907W        W50436  44.098  28.375   3.147
78908W        W50437  33.536  17.329  11.603
78909W        W50438  33.569  26.367  13.495
78910W        W50439  10.852  12.569   1.216
78911W        W50440  23.480  16.079  11.474
78912W        W50441  15.960  35.339   0.973
78913W        W50442   9.636  11.353  11.475
78914W        W50443  25.989  26.271  13.454
78915W        W50444  10.145   2.242   1.775
78916W        W50445  16.369  22.108   3.193
78917W        W50446  30.325  11.606   0.855
78918W        W50447  39.393   3.794  10.711
78919W        W50448  23.393  28.556   3.694
78920W        W50449  38.605  21.504   3.129
78921W        W50450  28.054  22.827  12.917
78922W        W50451  42.737   3.247  12.041
78923W        W50452  36.165  42.069   3.190
78924W        W50453  13.517  41.541   3.924
78925W        W50454   5.202   7.937   1.703
78926W        W50455   7.184  17.074  12.670
78927W        W50456   6.798   9.601   0.486
78928W        W50457   5.675  38.807  10.504
78929W        W50458  23.437  44.467  13.582
78930W        W50459  41.962  13.216  12.007
78931W        W50460  30.901   0.714  11.054
78932W        W50461  18.200  14.394  11.848
78933W        W50462   2.398  28.899   4.598
78934W        W50463   5.204   0.834   2.731
78935W        W50464  25.278   1.305  11.129
78936W        W50465  20.360  28.914   3.642
78937W        W50466  31.420   1.778  12.911
78938W        W50467  14.597  19.535   2.786
78939W        W50468  32.110  38.486   3.637
78940W        W50469  28.476  33.127  14.835
78941W        W50470  30.183  40.867   4.477
78942W        W50471  31.008   3.433   0.270
78943W        W50472   2.878  15.685   2.359
78944W        W50473  27.493  31.358  11.580
78945W        W50474  19.354  12.573   1.886
78946W        W50475   7.578  15.233   3.509
78947W        W50476  11.074  43.071  11.545
78948W        W50477  42.141  15.561   2.306
78949W        W50478  15.825  32.266   4.259
78950W        W50479  27.024  13.027  11.093
78951W        W50480  38.415   0.006  13.479
78952W        W50481  11.851  28.144  12.423
78953W        W50482  37.934   1.711   4.527
78954W        W50483  36.401  31.440   2.750
78955W        W50484   1.763  37.390   2.880
78956W        W50485  24.178  35.928  12.404
78957W        W50486  21.357  23.036   3.218
78958W        W50487  28.071  44.724  13.779
78959W        W50488  18.058  25.427  13.942
78960W        W50489  44.394   3.000   4.659
78961W        W50490   5.310  16.829   2.223
78962W        W50491   7.632  41.917  14.785
78963W        W50492  42.982  14.739   3.685
78964W        W50493  40.969   1.317  11.157
78965W        W50494   8.140  18.840  11.267
78966W        W50495   8.331  35.935  14.443
78967W        W50496   7.890  22.255  13.752
78968W        W50497  38.924  42.976   3.769
78969W        W50498  16.103  13.204   4.449
78970W        W50499   6.080  38.392  10.508
78971W        W50500  15.275  30.354  14.567
78972W        W50501  22.642  26.968   2.449
78973W        W50502  44.461   2.692  12.485
78974W        W50503  32.437   5.805   2.812
78975W        W50504  39.467  38.995  11.695
78976W        W50505  19.328  25.929  13.319
78977W        W50506  24.969  28.999  11.127
78978W        W50507  42.792  10.501   3.595
78979W        W50508  36.020   8.472   4.698
78980W        W50509  32.709  14.355   1.694
78981W        W50510  19.251  20.960  11.921
78982W        W50511  25.590  44.046  13.405
78983W        W50512  40.321  32.927   3.425
78984W        W50513  28.340  15.294   2.725
78985W        W50514   5.686  26.682  11.451
78986W        W50515  15.804  42.039  13.850
78987W        W50516  29.744  11.657  11.642
78988W        W50517  16.244  30.861  10.783
78989W        W50518  44.993  26.996  12.133
78990W        W50519  24.344  37.372   1.222
78991W        W50520   5.242  36.571   3.402
78992W        W50521  40.740  17.251   0.767
78993W        W50522  38.282  36.054  11.639
78994W        W50523  40.857   8.856   3.541
78995W        W50524  22.458   1.789  11.398
78996W        W50525  19.320  10.898   3.382
78997W        W50526  35.358  31.531  13.074
78998W        W50527  32.373  38.036   0.781
78999W        W50528  44.669  27.085   2.867
79000W        W50529  38.473  44.309  11.882
79001W        W50530  14.233  41.902  12.039
79002W        W50531  21.968  20.282  14.470
79003W        W50532  39.871   8.290  11.383
79004W        W50533  40.950  29.994  13.037
79005W        W50534   4.977  22.953   2.379
79006W        W50535  21.000  40.169   3.663
79007W        W50536  42.134  34.862  11.756
79008W        W50537  15.893  10.448  11.537
79009W        W50538  11.801  21.651  13.305
79010W        W50539  16.254  28.939   4.214
79011W        W50540  12.111  14.118  11.206
79012W        W50541  23.484  18.222  11.491
79013W        W50542  14.200  31.384  12.127
79014W        W50543  44.080  31.323   5.204
79015W        W50544  23.440  16.171   3.526
79016W        W50545  41.325  35.346  12.039
79017W        W50546  37.179   6.301  12.134
79018W        W50547  18.635  12.857  11.254
79019W        W50548   2.968  43.068   1.774
79020W        W50549  25.042  35.354   4.888
79021W        W50550  23.418  15.190   4.129
79022W        W50551  44.223  31.554   1.852
79023W        W50552   2.017  16.174  13.825
79024W        W50553  13.368  14.623   2.722
79025W        W50554  16.801   3.546   4.091
79026W        W50555   3.359  32.902  10.594
79027W        W50556   9.009  29.457  12.991
79028W        W50557  26.741  26.729   3.295
79029W        W50558  17.738  24.216   0.653
79030W        W50559  44.548  27.234  11.274
79031W        W50560  38.016  30.700   3.218
79032W        W50561   9.971  22.650  12.933
79033W        W50562  15.759  20.766  12.999
79034W        W50563  22.329  26.578  14.881
79035W        W50564  22.173  29.819   4.279
79036W        W50565   9.813  35.152   2.290
79037W        W50566   1.172  35.374  11.972
79038W        W50567   7.692   6.319  12.946
79039W        W50568  28.523  43.533   0.770
79040W        W50569  39.803   3.226   2.891
79041W        W50570   7.496   1.039  11.138
79042W        W50571  31.287  43.440  14.473
79043W        W50572   1.172   2.326   4.705
79044W        W50573  14.480  21.709   4.125
79045W        W50574   5.979  28.610  13.095
79046W        W50575  13.335  41.259  11.249
79047W        W50576   4.386   6.501  13.996
79048W        W50577  22.914  12.325  13.984
79049W        W50578  12.957  32.392  14.943
79050W        W50579  42.998  35.956   4.311
79051W        W50580   3.203  35.568  10.584
79052W        W50581   2.934   9.215   0.014
79053W        W50582   3.401  35.357   0.295
79054W        W50583  17.390   6.971   2.700
79055W        W50584  23.826  13.048  11.130
79056W        W50585  38.580   4.267   2.155
79057W        W50586  34.028  11.622   0.471
79058W        W50587   2.024   6.267  13.092
79059W        W50588  30.596  29.122  11.003
79060W        W50589   3.315  27.048  12.175
79061W        W50590  28.254  12.824   3.118
79062W        W50591  28.160  13.307  12.640
79063W        W50592  16.313  10.554   0.779
79064W        W50593   3.050  38.052   0.007
79065W        W50594   8.267  19.895   4.645
79066W        W50595  31.196  15.418  14.799
79067W        W50596   8.558   9.934   4.890
79068W        W50597  16.781  30.715   1.373
79069W        W50598   0.454  43.350  14.778
79070W        W50599  28.617  31.645  13.246
79071W        W50600  16.522   7.412  13.852
79072W        W50601  25.199  15.741  12.572
79073W        W50602   6.417  13.125  14.512
79074W        W50603  36.346  16.208  12.814
79075W        W50604  25.398   7.389  12.487
79076W        W50605  17.525  40.327  13.490
79077W        W50606  37.624  44.397  10.884
79078W        W50607  15.134  37.609   2.581
79079W        W50608  11.463  28.760  11.231
79080W        W50609   3.828  25.308  12.327
79081W        W50610  31.476  10.604  11.919
79082W        W50611  13.351  22.026  14.988
79083W        W50612  32.087  44.957  12.887
79084W        W50613  26.116  43.483   3.080
79085W        W50614  18.068  40.712   0.667
79086W        W50615  26.278  32.619   3.224
79087W        W50616  12.359  28.771  11.522
79088W        W50617  22.209  13.074   4.602
79089W        W50618   5.046   7.208  10.255
79090W        W50619   9.379  18.567  14.448
79091W        W50620  34.875   7.419  14.318
79092W        W50621  44.357  32.344   0.348
79093W        W50622  19.299  20.654  13.633
79094W        W50623  13.628   0.808   5.204
79095W        W50624  14.380  27.357  14.141
79096W        W50625  13.698  20.501   5.441
79097W        W50626   1.727  33.967  12.982
79098W        W50627  35.795  38.514   0.741
79099W        W50628  30.289   4.175   3.075
79100W        W50629  32.109  28.125  10.688
79101W        W50630  36.238  33.225  14.829
79102W        W50631   7.819  44.787  13.780
79103W        W50632  37.812  30.924  11.624
79104W        W50633  43.913  12.834  11.680
79105W        W50634   2.340  17.980   0.777
79106W        W50635  25.466  29.387  12.544
79107W        W50636  28.474   9.765  10.969
79108W        W50637  23.759  30.083  12.582
79109W        W50638  35.999   3.203  13.941
79110W        W50639  36.082  29.379  11.185
79111W        W50640  30.309  24.252   4.065
79112W        W50641  41.924  21.786  11.414
79113W        W50642  22.521   2.326   2.454
79114W        W50643  13.831   7.767   1.397
79115W        W50644  23.995  16.078  14.340
79116W        W50645  40.141  41.879   1.064
79117W        W50646  33.051  11.101  13.830
79118W        W50647   5.060  26.164   3.685
79119W        W50648  10.649  40.517   1.667
79120W        W50649  37.898  30.912  12.546
79121W        W50650  43.195  27.049   4.128
79122W        W50651  21.656  18.061  11.981
79123W        W50652   2.607  32.702   0.467
79124W        W50653  28.195  22.852  11.209
79125W        W50654  17.334  21.710   3.177
79126W        W50655   1.919  34.620  14.475
79127W        W50656   2.279   3.228   0.547
79128W        W50657  27.616  18.576   2.859
79129W        W50658  13.890  37.764   0.704
79130W        W50659   8.148  33.610   4.981
79131W        W50660   3.671   9.498   1.014
79132W        W50661  39.607  14.229  11.077
79133W        W50662  12.654  17.438   0.778
79134W        W50663  15.023  22.650   4.857
79135W        W50664  38.399  32.126   3.549
79136W        W50665  22.849   5.874   3.346
79137W        W50666  28.386  17.893  10.702
79138W        W50667  43.346  42.921   1.717
79139W        W50668  17.877  36.489   1.679
79140W        W50669  23.293   4.420  11.129
79141W        W50670  26.255  26.166  11.755
79142W        W50671  39.306  15.123  13.609
79143W        W50672  14.202  31.686  13.417
79144W        W50673   4.226  28.189   4.179
79145W        W50674  11.152  34.073   1.911
79146W        W50675  43.879  17.047  10.649
79147W        W50676  13.304  22.584   3.083
79148W        W50677  30.130  19.772   1.797
79149W        W50678  16.695   8.336  14.793
79150W        W50679  19.749  24.156  13.809
79151W        W50680   5.922  21.512   0.365
79152W        W50681  22.374  12.418   2.181
79153W        W50682   7.893  39.298   3.485
79154W        W50683  29.095   6.169  10.639
79155W        W50684   5.011  19.738   4.056
79156W        W50685  38.407  18.534  11.617
79157W        W50686  28.593  15.063   3.173
79158W        W50687   0.607  14.867   0.296
79159W        W50688   1.334  30.085  12.724
79160W        W50689  18.010   0.361   2.144
79161W        W50690   7.220  39.813   2.268
79162W        W50691  21.633   0.195   1.288
79163W        W50692  25.722  29.749   3.313
79164W        W50693  32.884   6.311  14.755
79165W        W50694   7.219  33.141  10.642
79166W        W50695  18.818  38.853   3.645
79167W        W50696  32.540   2.293  10.742
79168W        W50697  19.572  37.605   3.260
79169W        W50698  37.185   9.874   4.068
79170W        W50699   1.428  10.393   2.775
79171W        W50700   2.183  27.092   2.769
79172W        W50701  28.198  40.905  14.927
79173W        W50702  14.388  10.297  10.110
79174W        W50703  37.910  14.129   3.704
79175W        W50704   9.895  43.846   0.644
79176W        W50705  31.055  16.916   4.648
79177W        W50706  34.957  20.586   1.732
79178W        W50707   4.322  19.120   0.289
79179W        W50708   2.704  20.251   0.613
79180W        W50709  16.054  32.222  12.238
79181W        W50710  14.564  23.958   3.739
79182W        W50711   4.832   9.284   4.311
79183W        W50712  12.233  31.934   3.524
79184W        W50713  26.198  18.215  14.473
79185W        W50714  36.538  41.078   1.279
79186W        W50715  16.249   8.432   1.771
79187W        W50716   7.770   1.320   1.809
79188W        W50717  25.631   9.841  14.166
79189W        W50718   7.677  14.785  14.327
79190W        W50719  42.454  27.949  14.372
79191W        W50720  10.649  37.592   1.313
79192W        W50721  36.148  15.185   2.823
79193W        W50722   1.349   6.608  12.282
79194W        W50723  14.127  22.666   0.919
79195W        W50724  22.509  28.387   2.124
79196W        W50725  32.389  12.318  14.162
79197W        W50726  32.541   3.123   2.885
79198W        W50727  28.232   3.722   3.568
79199W        W50728  16.300  37.926   4.933
79200W        W50729  19.030  37.279   4.257
79201W        W50730  16.076  20.269   2.690
79202W        W50731  31.985  14.350  12.854
79203W        W50732   6.719  35.384   4.164
79204W        W50733  24.589  15.735   4.564
79205W        W50734   5.991  28.382   2.848
79206W        W50735  19.962  12.712  13.351
79207W        W50736  33.586  31.210   2.122
79208W        W50737  22.775  11.356   1.876
79209W        W50738   1.411  27.521   2.928
79210W        W50739  35.078  26.031   3.209
79211W        W50740   9.819   9.141  12.348
79212W        W50741  10.955   3.674   3.100
79213W        W50742  12.340  23.570  11.536
79214W        W50743  25.524  31.832   3.808
79215W        W50744  44.926  32.509   1.810
79216W        W50745  35.628  44.112  13.880
79217W        W50746   8.485  23.606  13.303
79218W        W50747   0.927  25.730  12.820
79219W        W50748  25.129  31.140  12.017
79220W        W50749  14.008  29.322   1.822
79221W        W50750  26.612  27.201  10.687
79222W        W50751  28.681  11.678  11.957
79223W        W50752  25.053  18.129  10.689
79224W        W50753   9.822  43.522  11.615
79225W        W50754  38.524   5.173  10.478
79226W        W50755  38.335  43.897  12.649
79227W        W50756  30.006  38.020  13.561
79228W        W50757  12.341   6.609   1.273
79229W        W50758  19.192  38.552  12.202
79230W        W50759  42.340  29.571  11.594
79231W        W50760  18.140  37.042   1.906
79232W        W50761  21.411  18.247  10.548
79233W        W50762   3.391  24.230   4.174
79234W        W50763  38.521  28.477   0.287
79235W        W50764   8.666  39.652   1.831
79236W        W50765   6.266   4.195   2.228
79237W        W50766  20.519   2.498   3.739
79238W        W50767  28.734   8.909   3.203
79239W        W50768  24.477   6.955   2.538
79240W        W50769   9.746  25.946   4.646
79241W        W50770  16.043  30.984   4.159
79242W        W50771  43.477   3.754   3.653
79243W        W50772  22.618   8.746   3.371
79244W        W50773   1.183   7.192   3.219
79245W        W50774   6.001  24.165   3.279
79246W        W50775  34.930  13.937  10.844
79247W        W50776  35.158  32.434  11.188
79248W        W50777   0.002  17.261   3.220
79249W        W50778  19.802  32.545  11.990
79250W        W50779   0.432   9.895   0.889
79251W        W50780   2.633  36.795   3.189
79252W        W50781   1.969   6.679   3.136
79253W        W50782  17.788  33.923  13.484
79254W        W50783  35.182  27.417  14.385
79255W        W50784  24.934  13.620   1.813
79256W        W50785  21.659  20.591  12.128
79257W        W50786  26.094  23.778   1.349
79258W        W50787  32.559  16.012  14.204
79259W        W50788  19.622   7.697  11.972
79260W        W50789   8.280  28.473   4.796
79261W        W50790  44.097  27.012  11.166
79262W        W50791   4.372  20.588   3.666
79263W        W50792  11.555   6.043  12.080
79264W        W50793   5.760  29.672  10.748
79265W        W50794  21.340  23.037  12.160
79266W        W50795  22.564  35.065  11.976
79267W        W50796   7.597  21.068  12.986
79268W        W50797   5.981  44.838  11.480
79269W        W50798  18.000  12.387  11.661
79270W        W50799  24.705  30.068  13.545
79271W        W50800  42.293  30.656   3.685
79272W        W50801   6.471  34.873   4.351
79273W        W50802  42.986  10.140   0.726
79274W        W50803  35.982   7.663  10.525
79275W        W50804  37.976  24.249  11.628
79276W        W50805  22.832  38.075  12.445
79277W        W50806   3.409  36.395  11.519
79278W        W50807   5.359  39.797  12.071
79279W        W50808  27.333  43.125  13.435
79280W        W50809  26.103   8.776   4.586
79281W        W50810   3.353  40.200  12.010
79282W        W50811   6.442   1.554   1.376
79283W        W50812   6.935  36.609   1.750
79284W        W50813  25.211  27.464   2.650
79285W        W50814  11.867  22.864   3.268
79286W        W50815  35.529  32.027  10.605
79287W        W50816  24.646   8.573  14.766
79288W        W50817   1.614  17.267  11.834
79289W        W50818  36.301  44.778   4.502
79290W        W50819  11.263  15.361   0.433
79291W        W50820  34.520  34.055  12.369
79292W        W50821  11.253  31.108   1.424
79293W        W50822   5.061  30.774  11.326
79294W        W50823  29.519  33.429   1.340
79295W        W50824  43.979  19.282  14.359
79296W        W50825  44.013  19.220   0.394
79297W        W50826  29.699  12.599   2.622
79298W        W50827  26.225  36.532  12.912
79299W        W50828  41.213  23.528   3.812
79300W        W50829  33.639  18.200   1.809
79301W        W50830  27.462  41.349   3.886
79302W        W50831  40.061  19.650   2.588
79303W        W50832   6.370  33.875   4.440
79304W        W50833  16.032  13.536   4.909
79305W        W50834  43.948  21.324   1.480
79306W        W50835  37.302  30.860  11.545
79307W        W50836  29.908  33.446   2.715
79308W        W50837  12.332  42.789   0.246
79309W        W50838  29.545   6.998   4.635
79310W        W50839  21.357   0.839  11.507
79311W        W50840  21.525  19.613  13.019
79312W        W50841  35.411   5.487  13.434
79313W        W50842  31.850  14.687   1.765
79314W        W50843  10.842  37.691   0.096
79315W        W50844  26.079  38.881   4.391
79316W        W50845  32.999  27.628  13.512
79317W        W50846   2.411  23.223  12.308
79318W        W50847  20.341   1.143   1.883
79319W        W50848  34.962  28.321  13.881
79320W        W50849  39.518  24.967   1.277
79321W        W50850  17.288  17.304   3.168
79322W        W50851  13.599  19.977  14.450
79323W        W50852  24.522  38.651  11.093
79324W        W50853  39.729  24.211   0.689
79325W        W50854  18.820  31.102   3.771
79326W        W50855  36.778  38.007   0.030
79327W        W50856  38.107  16.774  11.547
79328W        W50857  24.774  20.767  14.349
79329W        W50858  21.793  44.234   1.359
79330W        W50859  40.843  20.517   4.616
79331W        W50860  32.186  40.908   0.780
79332W        W50861  18.888   9.156  14.684
79333W        W50862  24.583  37.438   0.753
79334W        W50863  39.573  40.609   0.737
79335W        W50864  44.768  35.326  14.702
79336W        W50865  30.826  34.894  11.547
79337W        W50866   7.458  34.931   0.270
79338W        W50867  13.713  36.536  14.147
79339W        W50868  28.528  24.438   4.338
79340W        W50869   1.994   7.836   1.396
79341W        W50870  18.231   8.398   3.667
79342W        W50871  41.089  34.457   2.307
79343W        W50872  29.749  24.121  10.265
79344W        W50873  36.187  42.894  10.092
79345W        W50874  37.508  17.386  11.093
79346W        W50875   5.450  36.403   4.997
79347W        W50876  10.443  18.001   1.272
79348W        W50877  39.453  17.070  13.200
79349W        W50878   2.325  26.909   3.239
79350W        W50879  14.206  20.494   1.820
79351W        W50880   9.267  18.154  11.661
79352W        W50881  18.128  35.682  12.087
79353W        W50882   1.103  43.699   4.048
79354W        W50883  35.160   9.174   2.681
79355W        W50884  25.424  18.221   4.498
79356W        W50885  21.730   5.231   4.609
79357W        W50886  34.159  11.149   4.759
79358W        W50887   8.430   4.172   4.071
79359W        W50888  41.972  23.792  14.093
79360W        W50889  18.188  42.883   0.502
79361W        W50890  19.743  13.371  12.545
79362W        W50891  44.390  18.514   0.115
79363W        W50892  16.279  36.570   3.121
79364W        W50893  31.496  19.203  12.964
79365W        W50894  40.763  43.771   4.279
79366W        W50895   2.688  11.088   1.001
79367W        W50896  28.891  26.404  11.732
79368W        W50897   7.263  20.018   0.570
79369W        W50898  14.382   6.669  11.497
79370W        W50899  18.558  43.951   3.748
79371W        W50900   2.467  28.501   2.128
79372W        W50901   7.717  39.410   2.680
79373W        W50902  15.551   8.583  14.006
79374W        W50903  27.568  20.065  14.237
79375W        W50904  40.008  13.816   1.704
79376W        W50905   5.494   6.725  14.475
79377W        W50906  17.083  16.910  11.535
79378W        W50907  30.960  10.503   1.310
79379W        W50908  41.801  29.982  13.247
79380W        W50909  22.174  38.768  13.890
79381W        W50910  29.411  21.825   0.118
79382W        W50911   9.507  15.669   4.635
79383W        W50912  39.408  16.681  13.562
79384W        W50913  22.640  13.798  10.586
79385W        W50914  38.481  16.069   1.914
79386W        W50915  21.075  38.615  14.802
79387W        W50916  19.255  41.359   3.084
79388W        W50917  26.015  22.693  11.992
79389W        W50918   1.455   9.135  12.462
79390W        W50919   0.262   1.325  12.610
79391W        W50920  36.288  12.463   3.641
79392W        W50921  42.833  44.549   0.817
79393W        W50922  23.183  16.226  13.946
79394W        W50923  13.473  30.263   3.704
79395W        W50924  26.980  31.161   0.845
79396W        W50925  26.550  29.924  11.805
79397W        W50926  10.752  27.501   1.780
79398W        W50927  43.863   6.099  12.813
79399W        W50928   5.719  18.774   2.599
79400W        W50929  37.964  13.743  14.478
79401W        W50930  35.950  18.122   1.388
79402W        W50931  43.840  39.598   3.768
79403W        W50932  36.963  32.620   0.020
79404W        W50933  19.234  34.650   0.878
79405W        W50934  35.321   1.715  14.901
79406W        W50935  20.678  33.567  12.932
79407W        W50936  32.801  32.402  10.782
79408W        W50937   8.039  37.349  12.517
79409W        W50938  43.077  26.758   4.569
79410W        W50939  10.805   7.558   3.309
79411W        W50940  12.635  35.430  11.537
79412W        W50941  40.318   1.260  13.422
79413W        W50942  18.765  24.144   0.476
79414W        W50943  29.604  27.939  13.381
79415W        W50944   6.681  42.314  14.501
79416W        W50945  12.373  20.777   2.626
79417W        W50946  40.030   8.666  12.674
79418W        W50947  23.144   5.850   4.313
79419W        W50948  21.014   6.157  11.673
79420W        W50949  40.323  26.467  12.858
79421W        W50950  19.532  30.049  13.006
79422W        W50951  27.338   0.213   1.050
79423W        W50952   0.462   7.915   2.212
79424W        W50953   7.822   3.809   1.367
79425W        W50954  35.706  24.201   2.374
79426W        W50955  26.574  11.208  11.914
79427W        W50956  44.283  43.505   2.369
79428W        W50957  33.948  28.840  11.521
79429W        W50958  19.578  15.636   1.681
79430W        W50959   2.657  25.806  12.756
79431W        W50960  24.108  24.876  10.792
79432W        W50961  41.337  30.868  13.049
79433W        W50962   0.477  14.735   1.318
79434W        W50963  14.802  34.245   2.778
79435W        W50964  24.443   5.808   2.829
79436W        W50965  38.821  19.993  11.053
79437W        W50966  18.260  20.460  12.839
79438W        W50967  34.515  36.008   0.853
79439W        W50968  13.458  23.232  14.805
79440W        W50969  31.889  34.861   4.426
79441W        W50970  43.681  29.426   3.667
79442W        W50971  43.388  17.053   2.855
79443W        W50972  32.841   2.238   4.600
79444W        W50973   8.251   2.489   4.541
79445W        W50974  10.648  23.684  11.469
79446W        W50975   1.266  38.871  10.978
79447W        W50976   3.099   7.491  12.145
79448W        W50977  14.849   7.876   4.116
79449W        W50978  37.760   2.291   3.098
79450W        W50979   3.338   7.816   1.521
79451W        W50980  41.886   4.624   0.250
79452W        W50981   1.051  13.807  10.660
79453W        W50982  44.221  36.669  14.134
79454W        W50983  18.736   5.408   1.486
79455W        W50984   2.283  36.027  14.455
79456W        W50985  37.223  40.880  10.637
79457W        W50986  13.444  18.732   1.688
79458W        W50987  11.056  11.134   3.732
79459W        W50988   2.841  27.168  13.225
79460W        W50989  44.984  31.963   0.231
79461W        W50990   9.898  30.599   1.556
79462W        W50991  14.299   6.333   3.629
79463W        W50992  30.834  42.017   2.846
79464W        W50993  31.079   4.735  11.437
79465W        W50994  24.180  34.356  14.584
79466W        W50995  19.778  33.456   2.218
79467W        W50996   2.748  35.595  14.823
79468W        W50997  32.520  16.034   1.189
79469W        W50998  15.961  11.509   0.807
79470W        W50999  19.789  23.767  12.024
79471W        W51000  42.863  10.758   3.124
79472W        W51001   1.402  13.275  11.998
79473W        W51002  22.534  38.791   3.154
79474W        W51003  38.779  40.769   1.189
79475W        W51004  41.806  10.679   4.075
79476W        W51005  39.139  28.688  12.495
79477W        W51006   4.406  40.217   4.695
79478W        W51007  30.449  15.078   2.703
79479W        W51008   2.178  27.393  12.838
79480W        W51009  27.581  27.557  14.263
79481W        W51010  33.452   1.365  10.747
79482W        W51011  33.122  30.137  13.524
79483W        W51012  15.192  31.072   0.279
79484W        W51013  36.336   8.906  12.128
79485W        W51014  12.715  36.419   4.613
79486W        W51015  41.004  15.483   1.414
79487W        W51016  40.232  17.121   4.088
79488W        W51017  44.723  32.990   1.666
79489W        W51018   6.760  22.999   4.138
79490W        W51019  10.311  32.663  10.294
79491W        W51020   0.535  18.036   3.671
79492W        W51021  17.858  18.498  11.073
79493W        W51022  44.767  36.626   1.885
79494W        W51023  17.975   6.313   0.771
79495W        W51024  22.346  38.640   0.308
79496W        W51025  32.397   1.764  13.028
79497W        W51026   1.235  32.540  14.852
79498W        W51027   8.968   5.475  11.152
79499W        W51028   1.524   7.430  12.052
79500W        W51029  11.220   5.373   2.674
79501W        W51030  11.115  29.320   4.053
79502W        W51031  43.832  16.770   4.537
79503W        W51032  27.156  17.089   4.058
79504W        W51033  44.269  33.920   4.228
79505W        W51034  15.532  14.477   0.381
79506W        W51035   3.459  30.889  10.671
79507W        W51036   1.744  42.044  10.752
79508W        W51037  21.931  18.371  11.630
79509W        W51038  22.577  24.151   2.379
79510W        W51039   0.558  28.525   3.223
79511W        W51040  27.985  15.430   0.378
79512W        W51041  18.215  29.913   3.373
79513W        W51042  12.331  26.655   3.258
79514W        W51043  38.840  13.155  11.715
79515W        W51044  29.672   4.953  11.413
79516W        W51045  21.772  22.357   1.239
79517W        W51046  33.931  44.297   3.608
79518W        W51047  34.613  31.717   0.828
79519W        W51048  22.699   3.435  14.228
79520W        W51049  35.646  34.945  12.033
79521W        W51050  29.552  20.533  11.603
79522W        W51051  27.910   4.684   1.350
79523W        W51052  43.305   9.838   4.045
79524W        W51053  20.598  43.186  13.026
79525W        W51054  33.885  43.912  11.884
79526W        W51055  27.528  43.539  14.227
79527W        W51056  38.540  30.111  10.707
79528W        W51057   6.155   6.063  14.026
79529W        W51058  27.454   8.409  14.768
79530W        W51059  12.051  31.632   2.901
79531W        W51060  27.137  43.881  14.092
79532W        W51061  24.906  19.333  13.341
79533W        W51062  41.221   0.914  14.881
79534W        W51063  38.386  30.636  12.336
79535W        W51064  15.868   5.338   1.279
79536W        W51065  15.714  17.738   0.700
79537W        W51066  17.574  27.452   0.329
79538W        W51067  12.207   7.997  14.323
79539W        W51068  31.864  15.481   9.872
79540W        W51069   9.151  25.435   0.403
79541W        W51070  30.876  15.361   3.182
79542W        W51071  24.047  40.570  12.050
79543W        W51072  10.376  12.314   1.410
79544W        W51073  36.397  33.989   0.773
79545W        W51074  19.776  42.989   4.164
79546W        W51075  35.510  12.187  12.195
79547W        W51076   2.462  43.669   0.978
79548W        W51077   1.859  36.690  13.475
79549W        W51078   4.690  38.563   3.754
79550W        W51079  39.556  17.874  12.524
79551W        W51080  35.089  29.047   4.652
79552W        W51081  27.261   5.737   0.804
79553W        W51082  10.059  31.092   4.659
79554W        W51083   5.989  19.674  14.414
79555W        W51084  29.452   4.740   3.083
79556W        W51085  23.709  39.965  14.902
79557W        W51086  42.304  37.553   3.654
79558W        W51087  35.137  14.059  12.695
79559W        W51088  17.781  22.248  10.296
79560W        W51089  14.671  42.461  13.575
79561W        W51090  29.741  31.984   1.863
79562W        W51091  28.003   6.186   2.658
79563W        W51092   8.312  10.520  12.117
79564W        W51093  14.599  12.443  13.434
79565W        W51094  38.459  17.265  14.842
79566W        W51095  35.528   1.262  12.774
79567W        W51096   7.227   5.343  11.695
79568W        W51097  15.493   7.627  10.291
79569W        W51098  25.550  38.815   1.977
79570W        W51099  42.012  33.456   2.486
79571W        W51100  39.184  15.277  11.732
79572W        W51101   9.676  28.375  11.548
79573W        W51102  29.341  15.361   2.532
79574W        W51103  21.188  30.139   2.469
79575W        W51104  24.965  28.701  13.555
79576W        W51105   4.114  21.495  14.769
79577W        W51106  16.203  20.164  12.618
79578W        W51107   4.335  37.898   3.039
79579W        W51108  16.577  34.211   1.252
79580W        W51109  17.167   4.396  13.541
79581W        W51110  23.597  29.670   1.255
79582W        W51111  37.126  24.361  13.056
79583W        W51112  12.072  38.628  13.030
79584W        W51113  28.516  32.889  10.905
79585W        W51114  33.782  21.162   4.483
79586W        W51115  24.752   0.849   4.145
79587W        W51116  40.782  35.388   3.812
79588W        W51117  10.202   3.376   3.389
79589W        W51118   9.753  10.902  13.407
79590W        W51119  11.333  18.311   1.321
79591W        W51120  13.021   0.780   2.695
79592W        W51121  16.062   4.575   3.060
79593W        W51122   1.379  27.302   2.461
79594W        W51123  31.353  38.554   2.429
79595W        W51124   8.281  36.543  12.728
79596W        W51125  30.523  22.991   0.311
79597W        W51126   1.847  33.649   1.759
79598W        W51127   7.686  21.445  12.534
79599W        W51128  40.998  37.612   1.217
79600W        W51129  40.346  42.092  11.379
79601W        W51130  44.982   1.882   1.233
79602W        W51131  40.377  15.825  10.603
79603W        W51132  26.653  24.391   3.409
79604W        W51133   5.038  34.184  12.022
79605W        W51134   7.454  32.941  12.170
79606W        W51135   0.190  19.204  12.107
79607W        W51136  20.846  15.364  12.466
79608W        W51137  14.731  35.861   2.842
79609W        W51138  33.671  18.146   2.704
79610W        W51139  27.658  24.644   2.843
79611W        W51140  23.324  29.038  14.959
79612W        W51141   0.821  29.361   4.641
79613W        W51142   0.965   5.336  14.221
79614W        W51143  28.599  10.736   0.040
79615W        W51144  39.342   4.336  12.038
79616W        W51145   2.906  43.325   0.032
79617W        W51146   1.882  15.341  12.004
79618W        W51147  16.379  37.752  14.350
79619W        W51148   5.117  18.553  12.445
79620W        W51149  43.397  13.460   2.824
79621W        W51150  38.061   8.814  14.692
79622W        W51151  41.285  24.172   2.180
79623W        W51152   9.311   5.094  11.199
79624W        W51153  28.675  11.287   2.191
79625W        W51154  24.289  28.435  13.933
79626W        W51155  44.441   2.693   2.203
79627W        W51156   9.804  42.115  12.169
79628W        W51157  39.801  23.999  14.269
79629W        W51158  27.259  44.208  14.968
79630W        W51159   5.168   9.419   2.013
79631W        W51160   5.456  20.268   2.912
79632W        W51161  14.122  38.407   2.456
79633W        W51162  26.237  39.219  12.545
79634W        W51163  44.875  23.762  14.736
79635W        W51164  20.810  20.120  13.637
79636W        W51165  40.557   2.629  12.938
79637W        W51166  35.088  10.193   0.009
79638W        W51167  26.479  18.463  12.166
79639W        W51168  40.100  24.490  12.595
79640W        W51169   5.342  44.159  11.190
79641W        W51170  44.628  22.013  14.313
79642W        W51171  30.577  14.095   0.760
79643W        W51172  43.924  19.984   1.784
79644W        W51173  43.207   0.240   1.257
79645W        W51174  44.811  26.109   0.486
79646W        W51175  42.354  17.542   2.207
79647W        W51176  42.570  11.609   1.830
79648W        W51177  31.859  24.213   4.079
79649W        W51178  23.903  31.479  13.844
79650W        W51179  30.757  26.775  12.829
79651W        W51180  35.297   2.763   2.943
79652W        W51181   2.430  22.522  13.523
79653W        W51182  24.983  27.564   4.180
79654W        W51183  38.183   5.644   3.141
79655W        W51184  13.627  13.148  12.677
79656W        W51185   4.502  36.914  11.263
79657W        W51186  36.443   1.617  13.449
79658W        W51187   0.166  37.314  11.903
79659W        W51188   8.344  16.822  10.626
79660W        W51189  28.055  29.629  12.928
79661W        W51190   4.015  35.236  12.409
79662W        W51191  24.650  32.811  12.875
79663W        W51192  19.047  37.894  12.521
79664W        W51193   9.900  21.058  14.894
79665W        W51194  20.993  29.045   0.301
79666W        W51195   4.900   8.383  11.050
79667W        W51196  17.623  10.809  14.281
79668W        W51197  22.213  42.360  12.914
79669W        W51198  16.534  36.200  10.940
79670W        W51199  28.125  14.032  10.252
79671W        W51200  15.950  27.046  11.979
79672W        W51201  42.840   1.968  10.720
79673W        W51202  13.686   2.161  11.658
79674W        W51203  31.960   6.773  14.055
79675W        W51204  14.534  44.859  12.840
79676W        W51205  33.970   0.158   0.333
79677W        W51206  34.059  27.397   2.830
79678W        W51207  28.180   6.910  13.933
79679W        W51208  12.312  40.135   0.905
79680W        W51209  32.375  24.204   4.213
79681W        W51210  31.888  19.799   3.621
79682W        W51211   0.574  36.376  10.599
79683W        W51212  43.282  23.731   2.163
79684W        W51213  26.416   4.814  11.155
79685W        W51214  38.327  39.076   2.232
79686W        W51215  42.023  36.865  11.079
79687W        W51216  34.499   0.776  11.237
79688W        W51217  40.404   7.747  12.976
79689W        W51218  18.032   6.412  13.301
79690W        W51219  31.829  43.462  12.577
79691W        W51220  14.636  17.144  11.251
79692W        W51221  18.082  43.732   3.686
79693W        W51222  26.575   9.693  13.781
79694W        W51223  35.920  14.493  12.034
79695W        W51224  21.050  34.336  14.019
79696W        W51225  16.371  22.753  14.730
79697W        W51226  23.797  36.484   2.345
79698W        W51227  33.573  44.135  14.332
79699W        W51228  27.578  25.753   1.769
79700W        W51229  39.826  30.635   1.929
79701W        W51230  11.396   2.768  14.828
79702W        W51231  37.973   0.508   3.379
79703W        W51232  38.937   8.367   3.135
79704W        W51233  22.926  30.904   1.700
79705W        W51234  41.496   7.620   0.275
79706W        W51235   2.515  20.620   3.198
79707W        W51236  26.917  37.830   1.463
79708W        W51237  38.026  19.177  14.220
79709W        W51238  39.339   2.697  11.657
79710W        W51239  13.822  30.546  12.237
79711W        W51240   7.601   4.761  14.446
79712W        W51241  42.810  31.651   2.688
79713W        W51242  13.639  16.767   4.209
79714W        W51243  10.641  40.024  14.401
79715W        W51244  38.474  42.104   2.851
79716W        W51245  35.804  27.167   1.352
79717W        W51246  38.330  24.951  14.123
79718W        W51247  35.064  24.905   0.392
79719W        W51248  38.465  15.391   3.411
79720W        W51249   0.360   0.694   2.340
79721W        W51250  34.880  14.798  10.576
79722W        W51251  20.063   7.483  10.361
79723W        W51252  21.612   0.373  10.650
79724W        W51253  17.853   5.424   2.804
79725W        W51254  11.348   1.859   3.724
79726W        W51255  43.285  35.144   4.732
79727W        W51256  42.512  30.947   1.006
79728W        W51257  29.069  28.492  14.076
79729W        W51258   7.385  37.978  10.530
79730W        W51259  41.399  27.151  14.976
79731W        W51260  23.235  42.929  10.283
79732W        W51261  12.913  37.017  13.832
79733W        W51262  30.618  28.718  10.636
79734W        W51263  27.535  26.479  12.419
79735W        W51264  36.925  33.902  12.968
79736W        W51265  18.203   1.757  13.179
79737W        W51266  31.750  30.953   2.039
79738W        W51267   1.684  12.906  13.502
79739W        W51268  41.166  16.579   2.331
79740W        W51269   8.478  12.628  12.949
79741W        W51270  36.852  34.891   4.573
79742W        W51271  42.862  13.710   2.738
79743W        W51272  12.565  18.670  14.439
79744W        W51273  38.591   2.417  12.744
79745W        W51274  22.131  31.164  13.460
79746W        W51275  22.503  14.867  11.790
79747W        W51276  24.603   1.620  11.787
79748W        W51277  15.362  17.074  14.378
79749W        W51278  25.728  13.525  14.409
79750W        W51279  25.927   5.360  12.422
79751W        W51280  40.484  39.326   4.779
79752W        W51281   1.841   9.015   4.155
79753W        W51282  41.302  18.867  10.658
79754W        W51283  41.573  32.354  11.154
79755W        W51284  44.118  18.649  11.966
79756W        W51285  33.624  33.079   2.696
79757W        W51286  42.862  23.248  14.360
79758W        W51287  16.626  14.238  13.840
79759W        W51288  42.394  42.949   2.480
79760W        W51289  31.959  11.863   1.888
79761W        W51290  21.134  12.655  14.790
79762W        W51291  27.842  10.336   1.802
79763W        W51292  33.004   3.355   1.526
79764W        W51293  28.009  24.690  13.627
79765W        W51294  35.303   2.895  13.993
79766W        W51295  16.953  43.690   2.063
79767W        W51296   1.883  39.881   1.687
79768W        W51297  31.622  24.240  12.556
79769W        W51298  18.758  26.577   3.720
79770W        W51299   0.851  36.079   2.411
79771W        W51300  34.004  10.338  13.370
79772W        W51301  30.039  40.013   4.318
79773W        W51302  17.238  37.588  11.113
79774W        W51303   7.107   7.708  12.986
79775W        W51304  43.332  34.874   1.265
79776W        W51305  18.557  43.435  10.786
79777W        W51306  27.436  37.795   1.345
79778W        W51307  34.005  34.905  13.350
79779W        W51308   6.986   0.270  11.977
79780W        W51309  42.157  39.019   4.210
79781W        W51310  22.453  40.739  11.677
79782W        W51311  24.082   4.447  13.828
79783W        W51312  24.571  23.163  12.840
79784W        W51313   7.894  19.736  11.890
79785W        W51314  44.404   7.614   3.722
79786W        W51315  30.646  41.314  11.791
79787W        W51316   8.545  36.170  14.020
79788W        W51317  11.251  21.130  12.813
79789W        W51318  16.606  28.367   0.199
79790W        W51319  37.193  42.388  14.010
79791W        W51320  18.785  13.787   3.262
79792W        W51321  25.741  35.910   3.265
79793W        W51322  13.413  15.356  11.735
79794W        W51323  26.900  38.608  13.818
79795W        W51324   1.977  26.934  11.916
79796W        W51325  43.367  22.130   3.290
79797W        W51326   1.943  24.953  14.489
79798W        W51327  28.937  10.253  14.861
79799W        W51328  17.721  22.012   3.392
79800W        W51329  22.449  26.102   0.066
79801W        W51330  20.249  34.317   0.842
79802W        W51331   6.168  40.370   3.629
79803W        W51332  26.068  41.840   0.453
79804W        W51333  10.901  30.705   3.161
79805W        W51334  12.116  44.976  12.485
79806W        W51335  19.561   4.421   1.239
79807W        W51336  15.758  33.191   1.290
79808W        W51337  43.327  23.166   1.725
79809W        W51338  28.811   1.787  13.179
79810W        W51339  22.033  26.901  10.813
79811W        W51340  29.931  27.951  11.998
79812W        W51341   1.379  33.353  12.134
79813W        W51342  14.124  18.361   4.387
79814W        W51343   3.591   2.348   3.868
79815W        W51344  17.808  14.844   0.361
79816W        W51345  29.028  31.692  12.918
79817W        W51346   7.354  23.412   0.335
79818W        W51347  31.347   1.412   4.215
79819W        W51348  22.962  18.362   0.798
79820W        W51349  35.054  31.892   0.583
79821W        W51350  15.635  16.649  10.776
79822W        W51351   9.150  14.221  14.941
79823W        W51352  15.112  29.608   3.186
79824W        W51353  41.896  27.187  14.254
79825W        W51354  21.816  40.078   2.730
79826W        W51355  11.847   2.804  14.519
79827W        W51356   4.509   9.844   1.116
79828W        W51357  43.659  32.489   3.652
79829W        W51358  44.357   6.629  13.452
79830W        W51359  22.205  31.944   0.316
79831W        W51360  12.836  11.401   3.632
79832W        W51361  32.704  32.499  14.392
79833W        W51362  12.853  40.111   0.957
79834W        W51363   0.173  40.288   4.222
79835W        W51364   9.730  33.729  12.670
79836W        W51365  26.253   6.960   1.900
79837W        W51366  13.153  30.901  13.797
79838W        W51367  22.036  34.278  11.223
79839W        W51368  11.904  32.580  14.935
79840W        W51369  22.571  37.042  12.051
79841W        W51370   0.744   5.844   0.709
79842W        W51371   0.317  38.961  13.831
79843W        W51372   9.649  33.116   2.984
79844W        W51373  37.170  37.606   3.673
79845W        W51374   2.943  39.587  12.677
79846W        W51375  44.233  14.300  10.904
79847W        W51376  26.371  20.812   1.279
79848W        W51377   1.711   4.578  14.617
79849W        W51378  15.720  42.465   4.820
79850W        W51379  13.352  20.616  13.553
79851W        W51380  27.025  27.286   0.931
79852W        W51381  42.808  16.247  12.902
79853W        W51382  36.880   0.804   4.588
79854W        W51383  35.233  27.975  12.276
79855W        W51384  40.726  35.099  14.353
79856W        W51385  24.060  24.370  10.768
79857W        W51386  41.038   4.090  13.635
79858W        W51387  17.594   6.428   0.390
79859W        W51388   0.025  16.137   0.857
79860W        W51389   3.367  38.885   2.886
79861W        W51390   8.599  27.493   3.686
79862W        W51391  32.607  41.159  12.178
79863W        W51392  35.100  31.002  11.058
79864W        W51393  27.532  28.379  13.947
79865W        W51394  20.002   5.346   4.054
79866W        W51395  41.943  39.644  13.410
79867W        W51396  15.173  39.986  12.526
79868W        W51397   2.385  41.897   1.020
79869W        W51398  27.157  13.012   4.711
79870W        W51399  11.733  31.437   1.455
79871W        W51400  28.886  22.736   1.295
79872W        W51401  40.125  28.699  12.447
79873W        W51402  28.629  34.259  11.616
79874W        W51403  15.780  18.060  13.369
79875W        W51404   9.731  15.692   1.911
79876W        W51405  41.365  28.800  11.606
79877W        W51406  11.508   6.478  12.609
79878W        W51407   5.604  27.731  13.840
79879W        W51408  22.968  18.563  14.017
79880W        W51409  21.448  21.600  11.089
79881W        W51410  42.817  35.030   1.289
79882W        W51411  30.033  35.845   0.908
79883W        W51412  18.184  38.394   1.206
79884W        W51413   9.372   8.642   1.463
79885W        W51414  26.050  37.748   4.580
79886W        W51415   8.676  23.083   2.769
79887W        W51416  12.324  40.713  12.332
79888W        W51417  22.132  23.050  14.087
79889W        W51418  25.584  20.976  14.750
79890W        W51419  15.294  34.727  12.088
79891W        W51420  38.289  23.355   1.690
79892W        W51421  43.662  19.255  11.735
79893W        W51422  32.447  13.624  14.255
79894W        W51423  14.460   2.128  12.909
79895W        W51424  18.721  21.613   4.375
79896W        W51425  28.886  10.131   0.814
79897W        W51426   9.834   1.991   4.749
79898W        W51427  39.748  35.365   3.715
79899W        W51428  23.731  20.363   2.742
79900W        W51429  29.991  40.046   1.412
79901W        W51430  33.287  33.812   3.849
79902W        W51431  20.578  27.438   4.937
79903W        W51432  44.532  16.704  14.834
79904W        W51433   8.175   7.921  14.841
79905W        W51434   1.761  18.135   3.342
79906W        W51435   9.759   5.741  12.077
79907W        W51436  28.419  29.524  10.639
79908W        W51437   1.191  15.253   1.430
79909W        W51438   3.206   2.199   4.788
79910W        W51439  15.511  11.850   4.419
79911W        W51440   8.753  16.031  11.524
79912W        W51441  43.322   1.885  10.459
79913W        W51442   7.111   8.675  12.700
79914W        W51443   3.745  36.390   4.097
79915W        W51444  33.962   6.606   1.387
79916W        W51445  15.118  32.566   1.012
79917W        W51446  26.161  38.600   3.638
79918W        W51447  17.638  11.883  11.217
79919W        W51448   7.722   6.778   4.000
79920W        W51449  28.164  13.856   0.040
79921W        W51450   2.926   2.864  14.544
79922W        W51451   4.396  43.989   1.954
79923W        W51452  41.905   3.503  12.224
79924W        W51453  25.483  14.020  14.525
79925W        W51454  25.987  33.630   1.707
79926W        W51455  18.086  27.241  11.162
79927W        W51456  37.482  22.194   0.749
79928W        W51457  23.608   1.229   1.259
79929W        W51458   1.920   4.562  11.897
79930W        W51459  26.730  31.693   1.917
79931W        W51460  23.160   0.498  14.845
79932W        W51461  28.583   1.793   3.537
79933W        W51462  26.427   9.372   2.410
79934W        W51463  21.629   7.843   4.483
79935W        W51464  18.818  30.494  11.735
79936W        W51465  16.083  30.826  13.282
79937W        W51466  10.484  42.347   3.185
79938W        W51467  35.813  10.572   2.319
79939W        W51468  42.962  20.743  13.297
79940W        W51469  22.545  24.704  14.015
79941W        W51470  31.873   9.715  14.981
79942W        W51471  34.046   8.689  10.853
79943W        W51472  44.847  30.960  11.521
79944W        W51473  23.619   4.743   2.795
79945W        W51474  43.223  29.632  14.326
79946W        W51475  19.099  31.811  12.379
79947W        W51476  40.848  23.999  11.215
79948W        W51477  35.807  23.151  11.884
79949W        W51478  14.842  16.667  14.093
79950W        W51479   2.861  29.920   0.329
79951W        W51480  27.712   8.363   1.315
79952W        W51481  18.756   1.460  12.906
79953W        W51482   4.827  42.755  14.685
79954W        W51483  21.045  41.325  12.499
79955W        W51484  15.237   5.318  14.693
79956W        W51485  22.442  10.882   2.359
79957W        W51486  24.621  28.857   4.598
79958W        W51487   1.937  27.458  12.379
79959W        W51488  33.855  11.294   9.889
79960W        W51489   0.446  15.332  14.453
79961W        W51490  14.652  37.496  14.018
79962W        W51491  23.075   3.054   2.233
79963W        W51492   4.699  15.133  12.492
79964W        W51493  18.056   3.199   4.152
79965W        W51494  28.071  19.247   2.253
79966W        W51495  13.869  10.268   4.496
79967W        W51496  32.910   7.910   3.723
79968W        W51497  12.389  10.339  13.357
79969W        W51498  29.672  13.774   3.314
79970W        W51499  33.675  43.412  13.943
79971W        W51500  37.903   9.283  13.986
79972W        W51501  43.239  28.910  12.008
79973W        W51502   4.426  13.636  14.916
79974W        W51503  24.165  14.480  10.484
79975W        W51504  39.866  15.001   4.491
79976W        W51505  28.708  43.255  10.864
79977W        W51506  43.193   6.620  10.780
79978W        W51507  42.341  40.078  11.374
79979W        W51508  38.745  30.496   3.718
79980W        W51509  23.104   2.845   3.941
79981W        W51510  20.227  16.103   2.349
79982W        W51511   9.109  13.261   2.369
79983W        W51512  43.051  30.322   4.886
79984W        W51513  30.989  23.578  13.993
79985W        W51514  36.985  15.599  12.969
79986W        W51515  41.192  35.096   4.622
79987W        W51516  17.865   0.405  13.033
79988W        W51517   7.203  32.377  13.494
79989W        W51518  21.830  35.176  13.238
79990W        W51519  36.135  43.872   4.083
79991W        W51520  41.794   2.205  13.909
79992W        W51521  28.977  25.789   1.430
79993W        W51522  25.379  42.542  14.407
79994W        W51523  20.914  11.163   4.074
79995W        W51524   2.809  17.284   2.145
79996W        W51525  30.988   2.600   2.404
79997W        W51526  14.567  25.914  13.738
79998W        W51527  39.820  26.220  12.888
79999W        W51528   7.292  44.785   1.885
80000W        W51529  31.573  25.205  11.724
80001W        W51530   0.213  17.198   1.156
80002W        W51531  26.111   5.822   2.649
80003W        W51532   1.217  21.584   0.395
80004W        W51533   9.557   8.456   1.918
80005W        W51534  32.061  33.547   4.876
80006W        W51535  11.934  19.179   3.500
80007W        W51536   2.925  31.181  13.767
80008W        W51537  32.786  35.079   0.370
80009W        W51538  18.838  28.921   2.814
80010W        W51539  23.965   6.332  14.822
80011W        W51540  20.579  16.834  11.548
80012W        W51541   9.864   2.011   2.150
80013W        W51542  41.007  38.098  12.395
80014W        W51543  29.499   9.090   4.094
80015W        W51544  17.853  19.541  10.299
80016W        W51545  35.422  26.502   0.615
80017W        W51546  20.582  44.857   4.729
80018W        W51547  25.080  19.648   4.088
80019W        W51548  20.064  38.898   9.831
80020W        W51549   1.215  16.330   0.333
80021W        W51550  41.879   3.424   4.184
80022W        W51551  24.900  38.762  14.673
80023W        W51552  26.368  31.095  10.379
80024W        W51553  14.506   5.464  14.525
80025W        W51554  31.406  42.517  12.558
80026W        W51555  19.257   6.004   1.745
80027W        W51556  18.070   3.746  11.980
80028W        W51557  33.194  15.357   2.268
80029W        W51558  28.163  14.753   2.388
80030W        W51559  28.998  27.440   0.516
80031W        W51560  23.442  28.714   2.178
80032W        W51561  22.626  40.560   4.929
80033W        W51562  38.849  17.313   0.208
80034W        W51563   2.314  33.507   0.974
80035W        W51564  28.896  37.216   3.209
80036W        W51565   2.371   2.952   4.392
80037W        W51566   7.291   0.062  11.620
80038W        W51567  11.222  23.097  11.169
80039W        W51568   6.157  32.532   1.280
80040W        W51569  20.011  38.557  11.564
80041W        W51570   2.936  38.507   0.841
80042W        W51571  24.186  44.168   4.158
80043W        W51572  19.070  27.243  11.129
80044W        W51573  22.146  33.974  11.647
80045W        W51574  22.685  34.286  12.514
80046W        W51575  32.837  14.312  10.996
80047W        W51576  39.469   8.341  13.376
80048W        W51577  30.278   4.437   4.434
80049W        W51578  40.418  18.194   2.860
80050W        W51579  17.617   3.649  13.399
80051W        W51580  25.616   2.758   3.152
80052W        W51581  17.186  38.350   4.183
80053W        W51582  33.842  34.372  11.462
80054W        W51583  36.624  20.568  14.017
80055W        W51584  38.537  34.030   2.998
80056W        W51585  28.957  21.325  12.966
80057W        W51586  38.746  42.006   2.328
80058W        W51587  23.915  10.777  13.474
80059W        W51588  17.360  34.521  12.201
80060W        W51589  41.251  15.992   1.317
80061W        W51590  18.071   8.131   0.868
80062W        W51591   1.496  12.881   1.851
80063W        W51592  22.398  38.412   2.189
80064W        W51593  13.829   1.149   0.508
80065W        W51594  13.626  36.448  10.744
80066W        W51595  22.814  26.309  12.827
80067W        W51596  44.063   5.736   0.160
80068W        W51597   0.293   7.112  11.602
80069W        W51598  15.044   8.802  11.872
80070W        W51599  10.166  26.032   1.116
80071W        W51600  32.014  31.500   4.262
80072W        W51601  22.275  31.559  13.054
80073W        W51602   8.686  26.926  11.048
80074W        W51603   4.312  39.103   0.871
80075W        W51604  40.888  30.024  11.711
80076W        W51605  24.062  14.724   1.720
80077W        W51606  31.660  39.607   0.494
80078W        W51607   2.349  38.358  10.752
80079W        W51608  23.747  21.168   2.229
80080W        W51609   9.550  33.805   0.280
80081W        W51610  10.795  33.431   0.367
80082W        W51611  25.671  13.746  13.540
80083W        W51612  30.562  22.469   1.973
80084W        W51613  27.326  10.276  14.797
80085W        W51614   1.393  30.594  12.018
80086W        W51615  25.557   7.695  14.323
80087W        W51616  39.487  33.707   4.494
80088W        W51617  30.377  14.856   3.699
80089W        W51618  35.914  17.332   2.186
80090W        W51619  29.673   8.274  11.358
80091W        W51620  15.591   5.866   4.542
80092W        W51621  39.087  18.511  11.230
80093W        W51622   1.290  16.328  13.995
80094W        W51623  23.532  21.758  11.641
80095W        W51624  10.232  12.413   0.387
80096W        W51625   3.683  33.469  14.106
80097W        W51626  30.197  14.283  11.176
80098W        W51627  13.411  31.408  13.155
80099W        W51628  13.375  13.032   1.871
80100W        W51629  12.685  32.518  14.478
80101W        W51630   5.822  28.071   3.245
80102W        W51631   5.218   4.896  13.943
80103W        W51632  15.077   4.224   0.544
80104W        W51633  10.392  42.683   3.619
80105W        W51634  28.411  24.923  14.363
80106W        W51635  25.487  24.439  12.436
80107W        W51636  19.745  20.859   1.922
80108W        W51637  38.342  22.504  13.955
80109W        W51638  13.308  40.065  10.514
80110W        W51639  30.987   2.886  11.134
80111W        W51640  16.580  32.524  10.456
80112W        W51641  39.446   0.677  13.434
80113W        W51642  19.077  10.181  11.639
80114W        W51643  35.792  12.768  14.811
80115W        W51644  44.824  40.971  13.565
80116W        W51645  18.960  33.432  14.531
80117W        W51646  33.877   0.296  10.915
80118W        W51647  24.776  37.919  13.720
80119W        W51648  23.919  23.107  11.031
80120W        W51649   3.272  31.611  11.955
80121W        W51650  27.027  27.499  12.163
80122W        W51651  37.696   3.853  14.346
80123W        W51652  41.223   6.823   4.506
80124W        W51653  28.216  14.220   2.257
80125W        W51654  43.526  39.612   2.063
80126W        W51655   6.240  24.124   1.793
80127W        W51656  11.248  24.345   1.813
80128W        W51657  34.410  24.837  13.926
80129W        W51658  44.995  15.101  12.136
80130W        W51659  33.517  35.158  14.530
80131W        W51660  30.643  38.307   0.360
80132W        W51661   3.391  42.035  10.638
80133W        W51662  38.122  18.183  11.237
80134W        W51663  30.965  35.860  11.542
80135W        W51664  40.620   1.198   2.293
80136W        W51665  26.243  33.507   3.051
80137W        W51666  29.723  32.971   4.020
80138W        W51667   2.804  17.521  13.356
80139W        W51668  40.302   0.908   1.379
80140W        W51669  32.583  10.160  11.131
80141W        W51670  30.452  21.276   1.245
80142W        W51671  20.519  14.684   3.663
80143W        W51672  25.503  19.130   3.256
80144W        W51673  37.453  44.606   1.811
80145W        W51674  38.468  28.027   0.995
80146W        W51675  16.105  35.285   1.830
80147W        W51676   2.257  22.405   4.935
80148W        W51677  17.129  20.107  12.588
80149W        W51678  21.126  24.121  11.003
80150W        W51679  36.126   8.427  13.342
80151W        W51680  20.701  40.086   1.246
80152W        W51681  37.901   5.810  12.228
80153W        W51682  29.743  22.267   5.142
80154W        W51683  36.564  28.959  13.911
80155W        W51684  44.835  41.165  14.046
80156W        W51685  32.845   2.416   0.735
80157W        W51686   0.462  31.891   1.484
80158W        W51687  43.398   0.231   2.176
80159W        W51688  17.778  40.842  13.356
80160W        W51689  44.336  23.707  13.503
80161W        W51690   6.629  19.745   2.342
80162W        W51691  24.664  11.215   1.970
80163W        W51692  21.792  15.319  10.724
80164W        W51693  30.898  27.143  11.576
80165W        W51694   1.389  38.610  13.368
80166W        W51695  22.261   8.227  14.295
80167W        W51696  38.298   9.463  12.471
80168W        W51697  13.177   8.646   2.811
80169W        W51698  16.039  40.938   2.943
80170W        W51699  25.514  31.203   4.827
80171W        W51700  11.633   1.659  14.445
80172W        W51701  40.258   7.556   5.224
80173W        W51702  19.994  31.284  11.283
80174W        W51703  32.783  40.611   2.710
80175W        W51704  35.143  30.132   1.704
80176W        W51705  31.786   9.346   1.360
80177W        W51706   7.259  29.681   1.651
80178W        W51707  27.021   0.913  10.789
80179W        W51708  39.732  25.269   2.728
80180W        W51709  44.967  25.500  13.817
80181W        W51710   8.872   8.416   4.247
80182W        W51711  13.967   6.400   0.339
80183W        W51712  38.022  30.807  14.418
80184W        W51713  18.805  11.330   4.587
80185W        W51714  34.834   8.890  13.350
80186W        W51715  26.663  27.533   2.694
80187W        W51716  23.796  34.114   3.615
80188W        W51717  28.406   3.711  14.417
80189W        W51718  37.455  18.081  14.306
80190W        W51719  10.188  14.140  11.152
80191W        W51720  15.787  38.436  14.567
80192W        W51721  15.199   0.017   1.192
80193W        W51722  16.060   6.419  12.935
80194W        W51723  10.134  29.143   3.704
80195W        W51724   8.690  27.016   0.431
80196W        W51725   4.933  28.749   1.854
80197W        W51726   1.247   9.150   1.265
80198W        W51727  24.663  13.123   1.830
80199W        W51728   6.781  37.581   2.198
80200W        W51729   9.719  29.321   4.331
80201W        W51730  12.354  39.326   3.632
80202W        W51731  34.096  39.537   2.942
80203W        W51732  39.535  35.475   3.245
80204W        W51733  12.680   9.896   2.823
80205W        W51734  35.507  17.737   2.241
80206W        W51735  40.275  37.061   2.315
80207W        W51736  43.783  43.771  13.395
80208W        W51737  21.681  28.731   3.728
80209W        W51738  11.656  41.959   4.701
80210W        W51739  17.368   9.983   2.774
80211W        W51740  31.996  25.572  10.912
80212W        W51741  38.776   7.524   2.821
80213W        W51742   0.813  15.416  12.674
80214W        W51743  24.695  19.490   2.295
80215W        W51744   8.238  30.894  11.634
80216W        W51745  32.041  34.142   3.441
80217W        W51746  14.186  31.699  14.436
80218W        W51747  13.265   3.396  14.519
80219W        W51748  23.660  27.685   4.643
80220W        W51749   3.223   1.346  11.693
80221W        W51750  10.751   0.389  13.672
80222W        W51751  41.457   4.640   4.581
80223W        W51752  23.926   7.101  14.466
80224W        W51753  18.686  41.566   1.764
80225W        W51754  27.432  22.484   0.813
80226W        W51755  30.290  35.491  14.762
80227W        W51756  32.494   6.707   3.334
80228W        W51757  12.598  40.238   3.388
80229W        W51758  28.869   6.206   2.206
80230W        W51759  31.860  16.427  13.846
80231W        W51760   4.358   5.758  10.643
80232W        W51761  27.831  27.840  12.614
80233W        W51762  11.262  33.556   1.758
80234W        W51763  36.103   9.348   0.938
80235W        W51764   7.203  36.287   1.419
80236W        W51765  33.968  27.568  11.996
80237W        W51766  35.572  13.193   3.171
80238W        W51767   2.504  24.162  12.111
80239W        W51768  29.047  39.055  11.454
80240W        W51769  18.528   8.411  14.583
80241W        W51770  28.099  34.042  12.294
80242W        W51771  34.868  21.486   3.279
80243W        W51772  26.194  39.586   2.803
80244W        W51773   6.624   8.460   3.265
80245W        W51774  33.799  25.547   4.088
80246W        W51775  35.110  19.791  11.021
80247W        W51776  28.691  27.660   1.342
80248W        W51777  21.932  21.212   1.649
80249W        W51778  15.244  39.924  13.036
80250W        W51779  38.296  41.120   0.307
80251W        W51780  28.731   0.507   1.332
80252W        W51781  43.083  32.042  13.430
80253W        W51782   7.134  17.027   3.996
80254W        W51783  38.103  21.653   4.214
80255W        W51784  14.251  37.352  10.496
80256W        W51785  33.107   0.795  11.534
80257W        W51786  43.246  29.623  13.019
80258W        W51787  35.746   6.067  12.491
80259W        W51788   6.186  22.120   0.755
80260W        W51789  25.986  33.710  14.368
80261W        W51790  27.515  25.641   3.041
80262W        W51791  33.143  21.765  14.741
80263W        W51792  14.486  39.804   1.014
80264W        W51793  42.949  36.481   1.133
80265W        W51794   1.662  23.925  12.485
80266W        W51795  35.690   1.981  12.064
80267W        W51796  19.613   8.732   1.313
80268W        W51797  40.611  37.820  11.484
80269W        W51798  31.458   2.776  14.406
80270W        W51799  37.482  42.105   3.263
80271W        W51800  16.794  33.134   0.297
80272W        W51801  20.053   8.709   4.267
80273W        W51802  33.155  26.082  13.307
80274W        W51803  20.307   6.261  12.366
80275W        W51804  30.356  28.956   1.930
80276W        W51805  20.190   6.985   0.282
80277W        W51806  13.072  18.799  12.152
80278W        W51807  11.549  38.335   4.037
80279W        W51808  20.981  12.386  13.459
80280W        W51809  18.027  37.620   2.507
80281W        W51810  33.236  37.403   1.181
80282W        W51811  30.534  13.194   3.110
80283W        W51812  37.319  37.504   5.013
80284W        W51813  29.660  22.065  13.761
80285W        W51814  43.740  27.005  13.957
80286W        W51815  42.104   9.281  13.726
80287W        W51816   4.413  36.371  14.289
80288W        W51817  34.831  35.960   0.434
80289W        W51818  13.335  31.685  11.098
80290W        W51819  26.443   4.983  12.024
80291W        W51820  35.613  44.948  13.309
80292W        W51821   6.326  23.090  13.489
80293W        W51822  13.403   6.776  10.552
80294W        W51823  44.509  39.635  13.005
80295W        W51824  20.536   7.435   3.260
80296W        W51825  23.173  35.800   1.412
80297W        W51826  11.681  41.088  14.021
80298W        W51827   2.229  19.791  10.730
80299W        W51828  32.065  21.563  14.399
80300W        W51829  34.669  37.088   1.382
80301W        W51830   5.143   9.311   3.839
80302W        W51831  33.563   1.851   3.041
80303W        W51832   8.832  17.693   4.197
80304W        W51833   7.413  16.499  13.365
80305W        W51834  34.514  43.400   0.030
80306W        W51835  18.562   2.432   1.781
80307W        W51836  16.614  32.379  14.947
80308W        W51837  25.122   6.902   0.980
80309W        W51838  24.021  35.985  12.890
80310W        W51839  27.732  12.357   1.651
80311W        W51840  28.677  31.154   2.798
80312W        W51841  43.576  16.108   2.917
80313W        W51842  14.473  35.380   4.692
80314W        W51843  30.928  18.244  14.796
80315W        W51844  20.375   3.395   3.797
80316W        W51845   3.450  19.219   3.626
80317W        W51846   0.259   1.951  13.087
80318W        W51847  16.138  14.480   4.655
80319W        W51848  13.629  19.371   2.824
80320W        W51849  25.873  35.982   0.951
80321W        W51850  14.282  29.140  14.476
80322W        W51851   5.668   7.365  12.956
80323W        W51852  39.342   6.107  13.069
80324W        W51853  11.886  42.962   0.001
80325W        W51854  30.277   5.188   3.256
80326W        W51855  37.017  44.499  10.008
80327W        W51856  11.272   9.593   2.720
80328W        W51857  26.940  34.721   4.683
80329W        W51858  43.410  13.209   1.344
80330W        W51859  23.797  33.978  10.728
80331W        W51860   2.799   1.722  12.518
80332W        W51861   3.839  41.479   2.548
80333W        W51862  10.470   8.804  10.972
80334W        W51863  24.041  23.686   1.396
80335W        W51864  43.332   5.140  13.439
80336W        W51865  31.351  33.021   0.282
80337W        W51866  31.107  24.177  12.844
80338W        W51867  16.540  34.801  12.222
80339W        W51868   7.557   4.213  14.981
80340W        W51869  24.219  42.504   3.607
80341W        W51870  39.832  12.054  14.541
80342W        W51871   0.130  22.772   2.694
80343W        W51872  26.589  17.621   2.662
80344W        W51873  22.603  44.272   1.900
80345W        W51874  41.884   8.161  14.470
80346W        W51875  35.967   3.938   2.385
80347W        W51876  24.869  33.004  12.011
80348W        W51877  14.342   6.203   1.406
80349W        W51878  29.586   4.781  13.046
80350W        W51879  32.653  44.226  11.604
80351W        W51880   9.387   7.355   0.795
80352W        W51881   2.506  12.538  13.139
80353W        W51882  32.941   3.828  13.553
80354W        W51883  36.725  25.055   0.765
80355W        W51884  22.651  38.906   3.666
80356W        W51885  27.191  16.536  13.781
80357W        W51886  30.040  39.837   1.874
80358W        W51887   4.828  33.426   4.689
80359W        W51888  23.548  18.268   4.693
80360W        W51889  11.121  16.638   2.766
80361W        W51890  16.653  20.095  10.492
80362W        W51891   6.830  22.967  14.898
80363W        W51892  17.668   6.894  14.437
80364W        W51893  27.932  31.655  14.230
80365W        W51894  25.620   1.450   3.236
80366W        W51895  42.226  43.421   3.178
80367W        W51896   2.171  21.828  12.010
80368W        W51897  15.306  15.567   1.946
80369W        W51898   4.279   6.847  12.955
80370W        W51899  43.362   8.594  13.539
80371W        W51900  40.192  26.138   2.792
80372W        W51901  35.133  11.610   2.694
80373W        W51902  35.908  24.656   1.294
80374W        W51903  13.821  15.630  12.445
80375W        W51904  26.622  14.199  13.743
80376W        W51905  17.994  11.839   2.358
80377W        W51906  35.065   3.967  13.419
80378W        W51907  25.145   3.398  11.566
80379W        W51908  21.244  40.952   4.027
80380W        W51909  10.696  24.591  10.765
80381W        W51910  37.281  35.832  11.597
80382W        W51911  34.759  15.113  13.441
80383W        W51912  24.670  40.352   4.010
80384W        W51913  41.329  19.915   4.652
80385W        W51914  28.706  14.038  14.994
80386W        W51915  41.285  12.851   0.912
80387W        W51916  16.358  37.483  11.480
80388W        W51917  32.931   4.615   2.287
80389W        W51918  34.098  31.079   0.392
80390W        W51919  23.694  15.922   1.342
80391W        W51920  28.506   1.751   3.033
80392W        W51921  16.048  14.647   2.035
80393W        W51922   1.242  31.578   1.473
80394W        W51923  24.238  25.946   1.370
80395W        W51924  26.329  32.420  12.480
80396W        W51925  32.634  30.818  13.956
80397W        W51926  30.654   7.396  14.643
80398W        W51927  18.972   5.973   2.313
80399W        W51928  29.550  30.659   3.274
80400W        W51929  32.381   2.437   1.736
80401W        W51930  18.481  44.961   4.556
80402W        W51931   9.313  38.393   2.147
80403W        W51932  40.898  22.629   1.225
80404W        W51933   6.911   6.777   3.771
80405W        W51934   8.923  43.010  14.888
80406W        W51935  15.594  19.687   0.455
80407W        W51936  33.383  15.779  13.427
80408W        W51937  35.354  14.254   0.945
80409W        W51938  40.790  33.555   3.735
80410W        W51939   6.931  34.372  12.842
80411W        W51940  29.407   7.951   1.802
80412W        W51941  20.709  32.889  11.928
80413W        W51942   5.439  15.048   1.768
80414W        W51943   8.556  13.114   3.244
80415W        W51944  16.696  31.184  11.787
80416W        W51945  25.645   2.498  12.960
80417W        W51946  42.462  30.716   1.477
80418W        W51947   2.135  26.216   2.765
80419W        W51948  14.580  44.410  12.581
80420W        W51949  37.995   5.398  11.212
80421W        W51950  16.250  29.419  11.573
80422W        W51951   3.399  15.394  12.559
80423W        W51952   5.757   6.793  11.190
80424W        W51953   1.947  39.956   0.702
80425W        W51954  18.688   9.909   4.199
80426W        W51955   0.249   0.826   0.780
80427W        W51956   8.189  34.872  14.549
80428W        W51957   4.958  22.761   3.578
80429W        W51958  28.012   4.964   4.543
80430W        W51959  33.111  38.845  10.217
80431W        W51960  15.651  34.217   1.247
80432W        W51961   4.255  37.515  13.808
80433W        W51962  34.998  15.421   4.682
80434W        W51963  19.471  37.961  10.591
80435W        W51964  18.077  35.323   1.330
80436W        W51965  41.287   6.890  11.202
80437W        W51966   9.058  27.600  14.952
80438W        W51967   6.346  17.054  13.527
80439W        W51968  33.620  31.156   2.936
80440W        W51969  14.723  37.252   0.258
80441W        W51970  26.131  17.322  14.289
80442W        W51971   9.661  14.334   4.654
80443W        W51972  25.672  42.409   3.906
80444W        W51973  42.956  42.561  13.988
80445W        W51974  19.815  37.190  11.647
80446W        W51975  21.686  42.977  13.303
80447W        W51976  32.513  44.556   5.306
80448W        W51977  35.982  28.004  12.998
80449W        W51978  21.538  41.740   1.795
80450W        W51979   5.903  17.831  12.899
80451W        W51980  10.110   0.926  12.522
80452W        W51981  20.120  29.805  11.542
80453W        W51982  26.063   4.718  14.968
80454W        W51983  36.537  22.727  10.817
80455W        W51984   0.037  28.776   3.641
80456W        W51985   9.880   6.716   0.398
80457W        W51986  37.259  34.028   4.695
80458W        W51987   7.881   2.578  13.105
80459W        W51988  36.779   0.498  13.908
80460W        W51989  31.618  35.463   2.806
80461W        W51990  41.866   0.058  11.296
80462W        W51991   0.416  23.398  11.493
80463W        W51992  44.004  19.818  12.561
80464W        W51993  25.663  44.888   0.876
80465W        W51994  31.644  14.095  13.787
80466W        W51995  10.821  26.569  14.564
80467W        W51996  14.849   0.584   0.742
80468W        W51997  15.743   2.407   0.311
80469W        W51998   2.049   7.305  12.016
80470W        W51999  29.885  18.103   0.235
80471W        W52000  38.839   5.497   0.892
80472W        W52001   5.965  31.736  14.927
80473W        W52002  31.211   7.324  10.563
80474W        W52003  33.987  19.511  12.996
80475W        W52004  21.201   3.836  13.650
80476W        W52005  38.285   7.667   2.676
80477W        W52006  33.451  18.069   0.931
80478W        W52007   1.653   5.106   3.691
80479W        W52008  40.211   1.899  13.365
80480W        W52009  17.266  27.605  12.502
80481W        W52010  23.837  33.148   4.038
80482W        W52011  28.398   8.338   1.849
80483W        W52012  17.295  10.685  10.721
80484W        W52013   5.859  15.695  10.728
80485W        W52014  33.018   4.043  14.921
80486W        W52015  18.725  30.312  14.018
80487W        W52016  19.063   7.254   3.638
80488W        W52017  15.616  26.380  12.715
80489W        W52018  23.007  23.006   0.382
80490W        W52019  18.808  39.719  11.598
80491W        W52020  41.070  44.963   1.968
80492W        W52021  42.799  16.026  12.441
80493W        W52022  10.368  35.168   0.332
80494W        W52023  18.289   8.452   2.338
80495W        W52024  13.574  31.255  11.944
80496W        W52025  33.840   5.620   0.431
80497W        W52026  21.603   1.173  13.206
80498W        W52027   4.262  35.585   2.460
80499W        W52028  44.473  20.761  13.530
80500W        W52029  21.252  17.573   2.306
80501W        W52030  14.505   4.199  11.836
80502W        W52031  27.128  30.085   1.414
80503W        W52032   6.320  15.402  10.770
80504W        W52033  42.974  29.642  13.864
80505W        W52034  36.645  26.475  13.009
80506W        W52035   3.947  25.396  10.553
80507W        W52036   3.860  33.465   2.839
80508W        W52037  38.949  38.442  11.113
80509W        W52038  29.014  23.224   2.325
80510W        W52039  19.232  31.808  14.377
80511W        W52040   2.237  12.181   4.588
80512W        W52041   4.042   0.190   2.371
80513W        W52042  42.050  13.844   2.326
80514W        W52043  12.618  17.120   4.068
80515W        W52044  25.927  31.123   3.384
80516W        W52045  37.024  25.468   3.107
80517W        W52046  26.457  42.838  12.959
80518W        W52047  17.002   5.665   2.609
80519W        W52048  27.938   7.149   0.110
80520W        W52049   6.179  36.022   1.700
80521W        W52050  12.718  44.599  12.699
80522W        W52051  34.736  28.188   4.941
80523W        W52052  23.521  37.887  13.788
80524W        W52053   6.639  22.092   3.618
80525W        W52054  12.341   2.743   1.371
80526W        W52055  22.466   0.854   9.906
80527W        W52056   4.689  13.677  14.421
80528W        W52057  33.982  14.161   1.241
80529W        W52058  34.593  40.538   0.403
80530W        W52059  29.421  41.951  14.279
80531W        W52060  26.916  12.355  10.544
80532W        W52061   0.314  36.338  11.470
80533W        W52062  14.707  17.391  12.124
80534W        W52063  32.138   1.451  13.378
80535W        W52064  32.120   7.954   1.387
80536W        W52065  36.793  11.094   4.811
80537W        W52066  14.234   4.588  13.572
80538W        W52067  29.620  34.400  14.529
80539W        W52068   5.200   6.687   2.157
80540W        W52069   5.649  44.297   0.901
80541W        W52070  19.120  41.872   1.043
80542W        W52071  22.023  28.493   4.444
80543W        W52072  15.868  20.136  13.023
80544W        W52073   3.831  23.115  11.555
80545W        W52074   6.641  38.705   4.470
80546W        W52075  33.414   1.218   2.214
80547W        W52076  36.941   3.410   3.209
80548W        W52077  43.064  41.888  11.624
80549W        W52078  28.222  20.658  12.485
80550W        W52079  28.699  12.390  13.463
80551W        W52080  39.776  37.442  14.387
80552W        W52081   1.931   0.733  11.552
80553W        W52082   9.064   0.146   3.609
80554W        W52083  10.208   5.970   4.911
80555W        W52084  44.640  22.185  10.098
80556W        W52085  35.574  44.216   2.870
80557W        W52086  34.203  10.556  12.542
80558W        W52087  22.727   1.264  13.417
80559W        W52088  28.369  40.037   1.409
80560W        W52089  21.704  38.478  14.704
80561W        W52090  32.917  20.205   3.705
80562W        W52091  39.515  17.661  11.989
80563W        W52092  25.096  38.563   1.965
80564W        W52093  26.261  40.433   3.718
80565W        W52094  29.097  26.002   2.932
80566W        W52095  19.131  25.601   4.639
80567W        W52096  36.023  29.491   4.570
80568W        W52097  33.719  34.630  14.539
80569W        W52098   8.273  27.429  14.736
80570W        W52099  24.543  42.912  11.378
80571W        W52100  27.066   8.669   4.808
80572W        W52101  27.665  42.317   2.861
80573W        W52102  28.782  41.472   0.417
80574W        W52103  19.419  33.940  13.428
80575W        W52104  25.891  27.767   2.312
80576W        W52105  34.723  24.211  12.635
80577W        W52106  11.034  19.310   1.249
80578W        W52107  43.845  43.043  12.016
80579W        W52108   9.808  13.367  12.844
80580W        W52109  22.994  27.028  13.973
80581W        W52110  38.365   8.685  13.784
80582W        W52111   7.790   6.682  14.763
80583W        W52112  35.573  37.554   1.220
80584W        W52113  31.829  42.299   2.911
80585W        W52114  13.700   1.652   2.722
80586W        W52115  13.590  28.036   1.617
80587W        W52116  27.146  23.509  12.556
80588W        W52117  34.042   4.157   2.208
80589W        W52118   7.306  26.197   1.197
80590W        W52119  10.902  41.885   3.991
80591W        W52120  30.162   6.234   2.392
80592W        W52121  16.660  40.448   3.819
80593W        W52122  36.464  28.185  13.155
80594W        W52123   7.524   5.182   1.753
80595W        W52124   0.268  34.313   1.826
80596W        W52125  14.144  36.414   1.647
80597W        W52126  34.270  20.141  11.085
80598W        W52127  26.773  22.502  12.569
80599W        W52128  17.481  12.380   2.812
80600W        W52129  16.232  41.512  14.911
80601W        W52130  22.514  34.588  12.127
80602W        W52131  14.847  39.397   1.095
80603W        W52132  17.176  32.537  13.089
80604W        W52133  27.111  38.957  11.522
80605W        W52134  27.624   2.884  14.498
80606W        W52135  38.046   9.181   4.481
80607W        W52136  38.370   7.087  13.000
80608W        W52137  37.498  16.218   4.407
80609W        W52138  17.208  38.683   2.478
80610W        W52139  38.903  44.131  14.513
80611W        W52140  24.056  15.781   4.501
80612W        W52141   9.348  37.383   4.674
80613W        W52142   7.659  18.741  11.084
80614W        W52143   5.660  32.657  13.389
80615W        W52144  30.551  23.634  11.719
80616W        W52145  37.908  39.391  12.014
80617W        W52146  27.174   0.880   3.051
80618W        W52147  11.912  22.727   2.361
80619W        W52148  35.298  26.485   3.262
80620W        W52149   0.221  18.571   0.818
80621W        W52150  28.273   8.664   2.250
80622W        W52151  15.683  31.521   0.673
80623W        W52152  22.573  34.795   0.421
80624W        W52153  12.375  28.471  11.935
80625W        W52154  18.509  36.847   4.440
80626W        W52155   0.489  41.856  11.450
80627W        W52156  29.016  31.523  11.603
80628W        W52157   6.666   0.189   3.559
80629W        W52158  25.038  39.065  12.357
80630W        W52159  21.294  30.458  11.048
80631W        W52160  42.222  41.523   0.249
80632W        W52161  27.448   7.821   4.617
80633W        W52162  21.257  15.163  12.053
80634W        W52163  22.195  27.520  11.936
80635W        W52164  43.364  42.873   4.513
80636W        W52165   4.500  34.041  13.152
80637W        W52166  35.468  38.921  10.952
80638W        W52167  12.787  26.238   4.520
80639W        W52168   4.174  25.241  10.973
80640W        W52169   9.172  11.252  11.124
80641W        W52170  28.688   1.390  13.928
80642W        W52171  29.210  15.668   0.038
80643W        W52172   0.670   2.811   1.762
80644W        W52173  35.208  16.162  12.080
80645W        W52174  29.005  11.755  11.105
80646W        W52175  42.023  29.752   2.362
80647W        W52176  10.529  34.465  12.044
80648W        W52177   9.601  39.767   0.814
80649W        W52178  23.218  23.251  13.554
80650W        W52179  19.205  10.196  10.200
80651W        W52180  10.473  11.996   4.527
80652W        W52181   0.121  22.904  12.105
80653W        W52182  39.160  30.424   1.280
80654W        W52183   8.625  18.754   2.758
80655W        W52184  11.326  43.106  13.821
80656W        W52185  18.292  36.447   0.327
80657W        W52186   3.817  37.433  10.954
80658W        W52187  34.361  42.940  11.653
80659W        W52188  27.923  42.485   3.587
80660W        W52189  14.255  15.458  11.264
80661W        W52190  20.712  16.029  13.269
80662W        W52191  31.786  24.620   0.915
80663W        W52192  30.648  30.017  10.478
80664W        W52193  41.023  39.337   1.783
80665W        W52194   0.688  20.672  14.464
80666W        W52195  22.421  26.036  12.020
80667W        W52196  26.243  26.500  10.853
80668W        W52197   7.445  41.817   3.567
80669W        W52198  32.680  11.229  11.957
80670W        W52199   6.042  40.220  14.788
80671W        W52200   2.304  21.176  13.307
80672W        W52201  19.982  42.205   1.845
80673W        W52202  31.932  32.585  14.724
80674W        W52203   1.767   1.615   1.097
80675W        W52204   5.718  44.523  11.125
80676W        W52205  18.981  37.982   2.261
80677W        W52206  29.464  39.143  11.178
80678W        W52207  20.865  17.306   1.231
80679W        W52208  15.632  31.680   0.174
80680W        W52209  10.956  18.268  10.842
80681W        W52210  34.488  38.468  14.667
80682W        W52211  17.707  10.256   0.629
80683W        W52212  31.960  22.661  13.535
80684W        W52213  28.331  39.783   3.700
80685W        W52214  16.613  43.937  14.634
80686W        W52215  40.550  43.714  11.222
80687W        W52216  22.039  26.496   4.120
80688W        W52217   6.843  21.001   4.433
80689W        W52218  26.601  17.839   0.314
80690W        W52219  31.619   6.909   1.894
80691W        W52220  19.172  10.404   3.234
80692W        W52221   6.715   5.837   4.114
80693W        W52222  26.127  31.986   4.625
80694W        W52223  40.070  18.048  14.930
80695W        W52224  16.539  12.176  14.390
80696W        W52225  39.471   1.954   1.139
80697W        W52226  20.298  37.291  14.075
80698W        W52227   2.494  30.598   0.417
80699W        W52228  39.414   2.342  14.231
80700W        W52229  20.005  37.911   0.930
80701W        W52230   3.133  26.997   1.459
80702W        W52231  33.313  30.215  11.582
80703W        W52232  28.420   2.308  11.944
80704W        W52233   3.303  40.189   0.811
80705W        W52234   4.430  24.571  10.739
80706W        W52235  17.004   0.015  11.348
80707W        W52236  43.952  33.892   3.075
80708W        W52237  34.439  32.039   1.205
80709W        W52238  34.566  44.626  13.136
80710W        W52239   1.512  11.287  12.831
80711W        W52240  33.033  24.186  13.266
80712W        W52241   3.900   6.870  11.992
80713W        W52242  32.110   9.922   0.391
80714W        W52243  44.434  14.480  14.995
80715W        W52244   0.932  43.801   2.094
80716W        W52245  44.548   5.697  14.235
80717W        W52246  11.600  27.188  11.983
80718W        W52247   5.454   7.504   3.729
80719W        W52248   7.258  37.111   3.640
80720W        W52249   5.938  12.717  12.603
80721W        W52250  36.005   2.183   0.924
80722W        W52251  44.761  38.880  11.227
80723W        W52252  28.075   4.204  14.219
80724W        W52253  17.977  32.421   1.264
80725W        W52254  42.969   6.739  12.501
80726W        W52255  36.235  35.605   2.963
80727W        W52256  43.362  22.520  12.463
80728W        W52257  24.619  40.245   0.773
80729W        W52258  44.879  29.755   0.476
80730W        W52259   1.332  21.620   2.200
80731W        W52260   8.208  11.963   0.761
80732W        W52261   5.608  26.655  13.204
80733W        W52262  30.712  44.977  14.019
80734W        W52263  35.140  38.329   1.439
80735W        W52264  37.979  10.887   0.868
80736W        W52265  34.693  32.853  12.438
80737W        W52266  26.873   9.121   1.416
80738W        W52267   6.243  30.957  12.092
80739W        W52268  10.884  13.868  11.567
80740W        W52269   9.152  24.241  11.118
80741W        W52270  13.621  35.477   1.022
80742W        W52271  43.655   1.015  14.624
80743W        W52272  25.983   0.041  10.753
80744W        W52273  20.309  41.586   1.353
80745W        W52274   5.156   9.388  11.026
80746W        W52275  23.023   1.536   2.918
80747W        W52276  18.349  42.500   4.109
80748W        W52277  22.767  26.092   0.460
80749W        W52278   4.040  16.113   2.476
80750W        W52279  21.500  31.474  12.688
80751W        W52280  39.091   2.011   0.459
80752W        W52281   7.062  20.258   3.150
80753W        W52282  34.608  41.035   3.416
80754W        W52283   8.333   5.583   3.928
80755W        W52284  33.726  25.071   4.528
80756W        W52285  28.044   3.754   0.408
80757W        W52286   2.252  37.721  12.571
80758W        W52287   8.123   1.240   2.191
80759W        W52288  41.469   0.506   2.678
80760W        W52289   7.680   5.133  14.834
80761W        W52290  18.583  16.632  10.781
80762W        W52291   6.278   9.125  12.154
80763W        W52292  17.951  24.060   4.387
80764W        W52293  14.252  40.623   2.825
80765W        W52294  36.115  13.651   0.224
80766W        W52295  23.550   2.754  11.145
80767W        W52296   0.789   8.863   4.596
80768W        W52297  41.906  16.121   4.948
80769W        W52298   9.909   0.371  14.187
80770W        W52299  11.408  10.319   2.196
80771W        W52300  30.876   9.899  12.016
80772W        W52301  34.080  12.871  14.551
80773W        W52302  24.281  37.898   4.335
80774W        W52303  26.453  29.108   4.583
80775W        W52304  23.234  44.743   0.874
80776W        W52305  13.255  32.992   4.335
80777W        W52306  18.612  34.348  14.937
80778W        W52307   6.115   3.430  14.820
80779W        W52308  24.178  13.391   1.838
80780W        W52309  21.626  20.648  13.083
80781W        W52310  36.810  18.810  14.348
80782W        W52311  11.063   8.386  11.918
80783W        W52312  19.260   5.740   1.253
80784W        W52313  33.021  28.108  12.807
80785W        W52314  42.067  28.950   1.302
80786W        W52315  30.359   9.826   0.383
80787W        W52316  17.787  23.102   1.806
80788W        W52317  10.807  14.671   4.076
80789W        W52318  29.512  20.013  11.589
80790W        W52319  27.743  27.291   1.608
80791W        W52320   8.915  14.382   1.011
80792W        W52321   2.801   5.751   2.684
80793W        W52322  25.689  23.046  13.476
80794W        W52323  36.943  19.273  13.077
80795W        W52324  41.839  41.138   3.295
80796W        W52325  15.688   5.159   3.268
80797W        W52326  18.522  23.099  11.862
80798W        W52327  15.292  41.398   0.038
80799W        W52328   2.306  14.324  12.623
80800W        W52329   3.296  33.364   3.396
80801W        W52330   1.388   6.153  11.952
80802W        W52331  44.739  21.160   1.784
80803W        W52332  25.098   6.254   1.752
80804W        W52333  15.053   6.202  14.443
80805W        W52334   4.656   5.366  12.812
80806W        W52335  28.131  20.454   2.690
80807W        W52336  36.138  18.090  11.494
80808W        W52337  34.708  43.163   4.187
80809W        W52338  43.904   9.741  10.741
80810W        W52339   4.543  26.201  14.867
80811W        W52340  22.508  15.250  13.428
80812W        W52341  14.194  23.805  12.610
80813W        W52342  19.649   5.432  11.432
80814W        W52343  10.102  29.637   4.576
80815W        W52344   5.664  37.075  13.578
80816W        W52345  16.166   5.649   0.969
80817W        W52346   5.888   0.685   1.966
80818W        W52347  23.819  26.198   1.171
80819W        W52348  43.847  44.370  14.470
80820W        W52349  15.775  17.010  13.843
80821W        W52350  36.567  33.891   1.273
80822W        W52351  20.114   6.654  13.541
80823W        W52352  40.549  18.212   0.070
80824W        W52353  33.976  39.998  10.649
80825W        W52354  25.433  42.442   4.936
80826W        W52355  20.653  22.620  12.948
80827W        W52356  42.188  26.177   4.597
80828W        W52357   2.623   8.559   0.716
80829W        W52358   9.608  32.018   4.643
80830W        W52359  26.519  42.309  11.555
80831W        W52360  10.449  10.173   4.320
80832W        W52361  28.698  32.422  12.109
80833W        W52362  19.850  34.353  14.485
80834W        W52363  18.574  27.565   0.603
80835W        W52364   5.350  12.138   0.874
80836W        W52365   2.270  44.223  11.971
80837W        W52366   8.168  44.723   1.264
80838W        W52367  29.913   3.458   4.113
80839W        W52368   0.967  18.257   1.352
80840W        W52369  28.762  21.231   3.635
80841W        W52370   7.256  39.001  14.801
80842W        W52371  17.854  34.463  12.374
80843W        W52372  33.666  31.141  13.400
80844W        W52373  17.235   5.427  13.016
80845W        W52374  19.719  35.068  10.617
80846W        W52375  30.003   0.776  14.794
80847W        W52376  41.206  42.369  10.702
80848W        W52377  33.400  39.151   3.563
80849W        W52378  14.337  31.408   4.568
80850W        W52379  16.233  40.744   3.821
80851W        W52380  25.004  18.420   0.982
80852W        W52381   3.017  16.857  13.023
80853W        W52382  16.567  13.237  12.804
80854W        W52383   3.530  36.354  13.370
80855W        W52384  27.691  14.089   2.318
80856W        W52385   3.958  34.830   2.665
80857W        W52386  25.969  32.537   4.552
80858W        W52387  22.022  16.783   0.576
80859W        W52388   5.190  25.712   0.702
80860W        W52389   4.372  20.001   2.279
80861W        W52390  25.000  10.476  13.126
80862W        W52391  26.517   8.907  12.895
80863W        W52392  38.497  26.138   1.338
80864W        W52393  16.398  27.412  14.838
80865W        W52394  27.406  34.508   4.553
80866W        W52395  15.580  37.980  14.430
80867W        W52396  26.041   5.032   4.923
80868W        W52397   9.368  35.381  10.580
80869W        W52398  33.096   0.439   4.200
80870W        W52399  38.557  31.143  13.560
80871W        W52400  32.618  40.141  12.332
80872W        W52401  18.631   6.848  14.800
80873W        W52402   3.786   3.344   2.896
80874W        W52403  43.747   1.233   0.568
80875W        W52404   0.437  23.947  10.728
80876W        W52405  33.484  29.880   2.798
80877W        W52406  11.824  38.264  10.439
80878W        W52407  24.532  43.324   1.857
80879W        W52408  26.580   8.790   0.726
80880W        W52409  11.474  37.258   4.768
80881W        W52410   4.469  20.835   3.213
80882W        W52411   4.306  44.206  10.562
80883W        W52412   9.989   0.484  13.012
80884W        W52413  14.187   3.086  13.045
80885W        W52414   2.921  37.443  11.431
80886W        W52415  11.033  19.584  10.672
80887W        W52416  31.878   9.390  12.618
80888W        W52417  29.674   4.092   4.657
80889W        W52418   9.113   3.856  11.852
80890W        W52419  27.743  30.936   2.796
80891W        W52420  41.981  18.280   1.264
80892W        W52421   1.745  41.002  11.145
80893W        W52422  23.430  34.555   2.316
80894W        W52423  18.214  16.318  14.468
80895W        W52424  14.291  32.007  10.335
80896W        W52425  25.147  44.279   2.493
80897W        W52426  40.192  42.579  11.452
80898W        W52427  18.700  23.300  14.800
80899W        W52428  38.106  19.831   4.701
80900W        W52429  24.284   2.986  11.659
80901W        W52430  13.911  26.430   3.153
80902W        W52431  11.582  25.793  12.402
80903W        W52432  32.180  17.177   2.810
80904W        W52433  42.498  23.707   1.850
80905W        W52434   4.199   2.742   4.203
80906W        W52435  30.505  16.377   3.679
80907W        W52436   4.629  29.428   3.041
80908W        W52437   8.725  26.297  13.344
80909W        W52438  29.022  43.406   0.548
80910W        W52439   4.196   1.576  13.821
80911W        W52440   7.350  17.373   4.842
80912W        W52441  23.670  19.626   2.278
80913W        W52442  13.036   0.259   3.702
80914W        W52443   3.913   8.243  13.539
80915W        W52444  28.022  12.121  13.479
80916W        W52445   9.069  33.073   3.629
80917W        W52446  13.388  13.238  14.335
80918W        W52447  16.738  36.847   2.285
80919W        W52448  20.594  14.102   0.807
80920W        W52449   6.273   2.706  14.461
80921W        W52450   0.304  14.270   4.407
80922W        W52451   4.733  34.398  11.662
80923W        W52452   4.846   9.603  14.562
80924W        W52453  20.008  19.211  13.956
80925W        W52454  32.954  28.880  13.909
80926W        W52455  32.252  25.505  12.132
80927W        W52456  44.279  17.616   4.570
80928W        W52457  28.907  11.152   3.788
80929W        W52458   1.884  20.498   3.676
80930W        W52459  20.833   6.702   3.766
80931W        W52460   9.126  18.993  12.225
80932W        W52461   9.564   5.936  11.616
80933W        W52462   9.955  29.130  11.982
80934W        W52463  23.057  19.682   0.461
80935W        W52464  37.084   8.858  11.048
80936W        W52465  32.119  30.705  12.728
80937W        W52466  18.316  31.321  12.059
80938W        W52467  26.645  42.473  13.817
80939W        W52468   2.454  35.846   3.120
80940W        W52469  14.646  43.360   2.201
80941W        W52470  30.830  20.090   1.289
80942W        W52471  11.305  35.424   0.477
80943W        W52472  11.532  26.275   3.112
80944W        W52473  22.790  14.781   4.567
80945W        W52474  41.802   3.239  13.899
80946W        W52475  24.153  23.224   3.446
80947W        W52476   3.830   7.572  10.629
80948W        W52477  36.693  33.344   2.420
80949W        W52478  17.788   5.473  12.683
80950W        W52479  14.094  43.904  13.265
80951W        W52480  29.632  18.568   0.376
80952W        W52481  10.697  29.031  10.647
80953W        W52482  34.443   6.463   4.269
80954W        W52483  12.734   3.392  11.432
80955W        W52484  26.947  14.263   0.833
80956W        W52485  28.673  21.132  11.568
80957W        W52486  44.176  29.528   1.077
80958W        W52487   0.780  20.440   1.775
80959W        W52488  17.155  29.315  14.544
80960W        W52489   2.227   6.692   2.609
80961W        W52490  35.760  23.516   0.813
80962W        W52491  30.671   7.171   4.179
80963W        W52492  12.177  20.295  11.855
80964W        W52493  26.284   3.704  13.038
80965W        W52494  20.308  15.238  14.003
80966W        W52495  14.513  26.494   3.986
80967W        W52496  14.565   6.531   3.233
80968W        W52497  44.036  34.318  10.780
80969W        W52498  32.589  20.023   0.281
80970W        W52499  28.500  19.700  11.718
80971W        W52500  24.894   6.014  14.886
80972W        W52501  31.044   4.010   4.382
80973W        W52502   5.247  25.145   3.714
80974W        W52503   0.207  24.169  14.768
80975W        W52504   6.172   3.428   1.768
80976W        W52505  25.767  43.449  11.045
80977W        W52506  40.398  33.584   4.086
80978W        W52507  19.955   9.892  10.453
80979W        W52508  16.026   7.352  13.732
80980W        W52509  23.977   2.050  14.335
80981W        W52510  36.352   8.118   4.798
80982W        W52511  43.409  23.661   0.982
80983W        W52512  23.578  19.038  14.410
80984W        W52513  32.632   2.384   2.183
80985W        W52514  21.254  30.439   4.175
80986W        W52515  44.731   6.776   2.545
80987W        W52516  27.132  23.268   3.765
80988W        W52517   0.953  35.558   0.960
80989W        W52518  24.705  17.755  12.565
80990W        W52519  15.944   4.968   4.663
80991W        W52520   5.674  20.087   1.667
80992W        W52521  38.345   7.232   2.958
80993W        W52522  33.069  41.884  12.375
80994W        W52523  40.543  30.600  14.393
80995W        W52524  20.496  40.157  14.004
80996W        W52525  41.516   9.212  13.553
80997W        W52526  33.596  35.472  10.808
80998W        W52527  11.418  44.809  14.509
80999W        W52528   4.826   9.129  14.780
81000W        W52529  21.054  29.813   2.851
81001W        W52530  20.903   3.444  11.690
81002W        W52531   2.276  29.449  11.543
81003W        W52532   2.572   0.480   4.431
81004W        W52533  16.788  18.910  10.129
81005W        W52534  22.105  36.376   0.860
81006W        W52535  30.664  14.637   2.845
81007W        W52536  20.457  22.147  13.069
81008W        W52537  26.765  31.140  12.902
81009W        W52538  11.616   2.054  10.521
81010W        W52539  13.183  11.371  12.555
81011W        W52540   0.706  22.132  10.558
81012W        W52541   6.306  44.643  12.489
81013W        W52542  12.167  32.399   0.365
81014W        W52543  12.946  27.095   3.556
81015W        W52544  13.147  43.771   2.901
81016W        W52545  39.644   7.766   0.025
81017W        W52546  36.935  20.366   3.053
81018W        W52547  43.950   7.474  14.165
81019W        W52548   3.037  29.959   1.285
81020W        W52549  37.909  28.482  12.897
81021W        W52550  19.272  18.781  13.493
81022W        W52551  27.605  21.214  10.464
81023W        W52552  34.432  21.582  11.524
81024W        W52553   5.204  25.764  14.436
81025W        W52554  22.097  42.431  11.491
81026W        W52555   3.904  18.856  11.542
81027W        W52556  41.362  15.118   4.735
81028W        W52557  23.650  43.713  14.665
81029W        W52558  43.063  42.473  11.100
81030W        W52559  38.835  28.157  13.594
81031W        W52560  31.961   8.628  11.948
81032W        W52561   2.813  37.930  11.970
81033W        W52562  12.035  42.261  14.518
81034W        W52563  25.414  12.137   0.449
81035W        W52564  42.519  17.907  12.471
81036W        W52565  25.464  13.300   2.834
81037W        W52566  33.052  37.770   4.545
81038W        W52567   4.805   5.450   2.188
81039W        W52568  17.392   1.153  10.284
81040W        W52569  21.154  40.007  12.865
81041W        W52570  32.694  43.196   0.849
81042W        W52571  34.849  14.289  10.482
81043W        W52572   0.438  33.872  11.569
81044W        W52573  23.993  39.329   0.230
81045W        W52574   7.265  16.798  11.516
81046W        W52575  18.274  20.837   3.273
81047W        W52576   7.154  17.470   3.745
81048W        W52577  43.523  37.913  12.606
81049W        W52578  24.041  35.992   4.912
81050W        W52579  10.852  25.578  13.028
81051W        W52580  15.807  34.056  14.214
81052W        W52581  44.877  16.529  14.506
81053W        W52582  18.336  18.681   1.842
81054W        W52583  25.108   8.687   1.381
81055W        W52584  38.040  25.567   2.226
81056W        W52585  11.322  37.231   2.571
81057W        W52586   0.851  28.364   5.033
81058W        W52587   0.957  24.072   0.968
81059W        W52588  25.049  32.615  14.304
81060W        W52589  27.076  23.160   2.832
81061W        W52590  13.837   4.225  10.979
81062W        W52591  10.212   0.726  11.577
81063W        W52592  22.277  13.691   1.718
81064W        W52593   0.349  32.087   3.633
81065W        W52594  24.469  30.676  14.530
81066W        W52595  23.516   0.519  11.129
81067W        W52596  33.573  26.540  12.295
81068W        W52597  23.288  29.038   1.798
81069W        W52598   7.889   8.230  13.588
81070W        W52599  31.812  24.467   3.193
81071W        W52600  33.460  41.310  14.878
81072W        W52601  20.726  23.118  10.621
81073W        W52602  20.083  23.241   3.783
81074W        W52603  13.831   0.025  13.765
81075W        W52604  34.519   0.574   0.174
81076W        W52605  13.738  43.401   2.588
81077W        W52606  34.439  26.106   1.454
81078W        W52607  19.069  26.066  12.864
81079W        W52608  22.475  11.940   4.000
81080W        W52609  23.001  18.477  13.108
81081W        W52610  23.627  33.351  13.147
81082W        W52611  36.789  31.262  13.943
81083W        W52612  43.277  28.727   3.281
81084W        W52613  23.496  14.379   3.695
81085W        W52614   7.421   1.132   0.541
81086W        W52615  12.399  18.394   3.909
81087W        W52616   9.690   7.152  14.518
81088W        W52617   2.245   1.388   0.316
81089W        W52618   0.851  10.132  14.906
81090W        W52619  33.115  33.998  11.082
81091W        W52620   1.936  17.839  10.776
81092W        W52621  39.489  24.734   2.310
81093W        W52622  40.999  38.952   4.679
81094W        W52623  10.017   7.822   4.634
81095W        W52624  23.273  42.382   0.767
81096W        W52625  25.145  29.139  12.170
81097W        W52626  14.165  14.417   4.203
81098W        W52627  26.359  38.139  12.043
81099W        W52628   4.337  31.031   4.220
81100W        W52629  14.029   5.710   4.066
81101W        W52630  30.474   8.913  12.864
81102W        W52631   2.877  27.175   1.910
81103W        W52632  37.511  15.317  13.977
81104W        W52633  39.455  16.708   4.878
81105W        W52634  25.806  33.730   0.286
81106W        W52635  38.565  42.877   3.365
81107W        W52636  13.685   7.926   0.796
81108W        W52637   7.729  32.512   2.874
81109W        W52638  37.327  38.929   1.195
81110W        W52639   8.963  43.903  10.360
81111W        W52640  24.069  28.077   0.428
81112W        W52641  19.981   6.603   2.166
81113W        W52642  36.949  29.663   0.866
81114W        W52643  22.745  13.318   2.544
81115W        W52644  42.835  12.641  14.820
81116W        W52645  30.107  15.279   3.572
81117W        W52646  33.438  38.345   3.181
81118W        W52647   8.081  29.840   4.938
81119W        W52648  37.953   6.664  12.080
81120W        W52649  41.553  10.256  10.811
81121W        W52650  34.111  13.746   4.595
81122W        W52651  38.144  18.291   4.590
81123W        W52652   5.977  13.795   0.241
81124W        W52653   5.974  27.936   4.515
81125W        W52654  15.756  28.146   4.844
81126W        W52655  13.497  36.505   0.031
81127W        W52656  38.266  11.439   3.258
81128W        W52657  43.183  10.746  11.196
81129W        W52658  39.799  31.008  14.618
81130W        W52659  39.771   4.476   1.463
81131W        W52660  21.224  44.435   3.310
81132W        W52661   9.521   5.810  12.813
81133W        W52662  14.230   6.289   0.874
81134W        W52663  20.979  40.914   2.621
81135W        W52664  30.435   6.788  13.975
81136W        W52665  15.616  29.519   4.394
81137W        W52666  29.874  28.996  14.036
81138W        W52667  32.161  16.392   2.811
81139W        W52668  41.896  16.563  13.325
81140W        W52669  44.463  13.330   4.922
81141W        W52670  29.513  30.516  14.226
81142W        W52671  44.012  35.335  10.587
81143W        W52672  20.492  42.517  13.443
81144W        W52673   0.202  35.657   3.320
81145W        W52674  30.852  14.998  14.807
81146W        W52675   5.286   2.961   2.855
81147W        W52676   7.839   2.210  14.036
81148W        W52677  37.321  39.399  11.132
81149W        W52678  15.159  32.359  14.342
81150W        W52679  34.309  38.891  14.908
81151W        W52680  32.123   8.486  12.433
81152W        W52681   2.911  41.835  13.433
81153W        W52682  29.452  22.310  12.268
81154W        W52683   5.719  36.321  14.994
81155W        W52684  12.139  23.229  12.994
81156W        W52685  38.387  42.453  10.617
81157W        W52686  40.091  41.654   2.423
81158W        W52687  43.780   5.787   2.602
81159W        W52688   5.394  27.149   4.517
81160W        W52689   4.894   7.973   5.097
81161W        W52690  38.309  41.537  12.896
81162W        W52691  44.729  12.668   0.932
81163W        W52692  30.956  34.525  11.208
81164W        W52693  39.446  34.286  13.340
81165W        W52694  36.906  36.907   4.742
81166W        W52695  34.016  36.827   4.589
81167W        W52696   0.995  24.945  11.128
81168W        W52697  39.540   5.238   2.279
81169W        W52698   1.884  29.532   1.029
81170W        W52699  12.733  35.352  14.953
81171W        W52700  29.191  44.718   4.511
81172W        W52701  14.248  26.271   4.388
81173W        W52702  19.393  42.371   0.621
81174W        W52703  40.339  12.204   4.147
81175W        W52704  13.788   2.747   3.381
81176W        W52705   7.311  16.691  14.268
81177W        W52706   9.097  32.472   4.310
81178W        W52707  10.668  25.399   0.437
81179W        W52708   3.598  26.144   3.112
81180W        W52709   1.876  13.700  14.297
81181W        W52710  12.325  11.203  10.270
81182W        W52711   4.784  39.482   5.043
81183W        W52712  24.175  12.366  13.595
81184W        W52713  39.864  18.314   0.821
81185W        W52714  30.311  10.409   2.259
81186W        W52715  43.283  42.282   0.490
81187W        W52716  10.568  23.053   0.003
81188W        W52717   2.392   9.251  12.825
81189W        W52718  25.397  40.067   0.319
81190W        W52719   4.223   0.176   3.227
81191W        W52720   2.460  37.942   3.401
81192W        W52721  42.799  44.268   3.292
81193W        W52722  17.536  22.657   1.739
81194W        W52723  32.665  23.167  10.156
81195W        W52724  40.664  43.939   4.745
81196W        W52725  36.564  27.992  12.261
81197W        W52726  44.806   3.830  10.386
81198W        W52727   6.907  24.504  10.901
81199W        W52728  35.758  39.160  12.415
81200W        W52729  36.461  19.206  14.391
81201W        W52730  13.282   3.293   1.518
81202W        W52731  42.387  42.815  10.393
81203W        W52732  11.590  32.084   4.832
81204W        W52733   3.698  38.763  10.644
81205W        W52734  23.160  36.612   1.813
81206W        W52735  41.137  23.895  12.912
81207W        W52736  19.546  44.173  11.490
81208W        W52737  36.805  27.888   4.302
81209W        W52738  26.981  42.661   0.024
81210W        W52739  32.778  12.162   0.711
81211W        W52740   1.714  32.624   0.936
81212W        W52741   2.547  24.075  14.016
81213W        W52742  17.566  43.233  10.448
81214W        W52743  34.155  20.007   1.702
81215W        W52744   4.230   2.354   4.704
81216W        W52745  35.562  19.044  10.775
81217W        W52746  39.778  27.246   3.758
81218W        W52747   6.233  34.820   4.793
81219W        W52748  39.561  16.076   3.394
81220W        W52749  36.991  22.291  14.999
81221W        W52750  42.129   6.409   4.422
81222W        W52751  29.536  27.443  13.472
81223W        W52752  10.285  32.911   4.588
81224W        W52753  12.067   5.857   4.073
81225W        W52754  35.065  35.602   1.326
81226W        W52755   7.787  24.256  11.112
81227W        W52756  18.639  43.065   1.904
81228W        W52757   5.735  30.137  10.527
81229W        W52758  29.631  35.320  11.089
81230W        W52759  10.371  28.305  14.294
81231W        W52760  25.583   4.859  14.095
81232W        W52761  22.615  20.478   2.294
81233W        W52762  15.711  21.495  12.397
81234W        W52763  44.333  18.361  10.727
81235W        W52764  33.018  27.885   0.494
81236W        W52765  10.836  38.040   1.830
81237W        W52766  35.681  31.686  12.671
81238W        W52767  43.061  16.518  11.234
81239W        W52768  15.436  29.235  10.649
81240W        W52769  23.583  26.739  13.010
81241W        W52770  39.038  42.978  10.629
81242W        W52771   3.939  42.279  10.508
81243W        W52772  11.640  31.317   3.216
81244W        W52773  16.230   5.256   2.032
81245W        W52774  18.459  10.048   1.896
81246W        W52775  34.571   9.877   0.631
81247W        W52776  22.728  25.160  10.525
81248W        W52777   7.709  37.149   0.317
81249W        W52778  38.467  39.125   4.697
81250W        W52779  36.031   5.907  11.515
81251W        W52780   7.696   3.247   1.763
81252W        W52781  16.028  39.845  14.543
81253W        W52782   3.332  40.311  13.415
81254W        W52783  40.255   9.309  12.003
81255W        W52784   1.007   2.765   0.786
81256W        W52785  11.881   4.407  11.142
81257W        W52786  44.314  38.934  11.530
81258W        W52787   6.926  28.044  13.731
81259W        W52788   1.747  26.708   4.110
81260W        W52789  36.961  32.888  11.038
81261W        W52790  43.048  34.842   1.762
81262W        W52791   5.721   5.769   3.163
81263W        W52792  34.823  14.976  12.567
81264W        W52793   3.870  44.268   0.585
81265W        W52794  31.257  21.002   4.495
81266W        W52795  25.108   5.606   0.092
81267W        W52796   8.561  33.103   1.844
81268W        W52797  36.799  33.153   1.305
81269W        W52798  25.450   2.133   4.267
81270W        W52799  14.822   2.389  13.898
81271W        W52800  33.045   7.259  14.531
81272W        W52801  44.267   8.417   4.152
81273W        W52802  35.854  13.924   2.301
81274W        W52803   8.615  16.144   3.545
81275W        W52804  27.174  19.104  11.199
81276W        W52805  17.018  40.872   1.425
81277W        W52806  13.759  23.669  14.461
81278W        W52807  33.892  29.942   2.507
81279W        W52808   0.737  15.575   0.931
81280W        W52809   6.308   5.339  12.768
81281W        W52810   4.891   8.967  12.143
81282W        W52811  40.836  43.443  14.758
81283W        W52812  26.724  43.056   3.242
81284W        W52813  33.751  26.986  13.977
81285W        W52814   7.200  30.626   2.701
81286W        W52815  10.675   3.727  14.455
81287W        W52816  35.467  37.693  12.788
81288W        W52817  18.335  44.376   1.306
81289W        W52818  13.041   3.246   4.482
81290W        W52819  33.904  37.723  13.586
81291W        W52820  23.782  32.414  14.869
81292W        W52821   4.295  35.847   1.564
81293W        W52822  41.990  11.652   0.937
81294W        W52823  25.930  31.549  14.896
81295W        W52824  10.456  18.472  10.632
81296W        W52825  11.743  37.065   1.972
81297W        W52826  16.395   4.339   1.125
81298W        W52827  32.947  17.583   0.291
81299W        W52828   7.287  20.065  11.371
81300W        W52829  34.441  31.920  14.415
81301W        W52830  22.251   2.213  11.186
81302W        W52831  26.716  24.628  12.798
81303W        W52832  39.817   9.143  12.680
81304W        W52833  26.157  30.681  12.216
81305W        W52834  37.496  21.280  13.591
81306W        W52835  42.714  38.387  12.502
81307W        W52836  26.732   5.620  10.783
81308W        W52837  39.773  10.597  13.421
81309W        W52838  43.454  44.357  11.555
81310W        W52839  16.317   3.656  14.382
81311W        W52840  37.136  20.626  11.475
81312W        W52841  29.437  38.051   2.312
81313W        W52842  13.237   6.571  12.328
81314W        W52843   5.686  26.199  13.421
81315W        W52844  13.893  31.523  11.525
81316W        W52845   7.320  24.731  13.254
81317W        W52846  13.128  13.583   1.161
81318W        W52847   8.449  15.230   3.212
81319W        W52848  13.254  14.839   1.712
81320W        W52849  13.740  23.663   4.177
81321W        W52850  13.316   9.458  12.582
81322W        W52851  18.159  18.241   0.703
81323W        W52852  35.947  41.793   0.895
81324W        W52853  42.019   6.830  10.726
81325W        W52854  37.973   6.133   3.247
81326W        W52855  15.339  38.293  14.822
81327W        W52856  44.772   2.393   4.101
81328W        W52857  20.260  32.582   2.668
81329W        W52858  21.117  15.814  12.459
81330W        W52859  17.453  11.224   4.203
81331W        W52860  26.745  39.150  10.302
81332W        W52861   8.148  22.954   4.126
81333W        W52862  30.699  36.827   4.655
81334W        W52863  25.697  16.189   4.578
81335W        W52864   3.255  29.907   3.318
81336W        W52865  26.061  12.751  13.892
81337W        W52866  42.979  14.803   2.791
81338W        W52867  17.526  41.772   1.870
81339W        W52868   3.824   4.954  10.773
81340W        W52869  11.333  43.517  10.877
81341W        W52870  29.513   8.259   0.569
81342W        W52871  30.603  12.912   1.364
81343W        W52872  37.787  11.103   4.663
81344W        W52873   8.253  24.426  10.954
81345W        W52874  11.704   2.851  10.209
81346W        W52875  16.217  35.950   2.945
81347W        W52876   5.342  10.050  11.589
81348W        W52877  33.479   3.004   4.203
81349W        W52878  22.728  35.081  11.142
81350W        W52879   0.881  35.327   2.829
81351W        W52880  21.813  15.799  13.776
81352W        W52881  41.781   5.149   3.683
81353W        W52882  18.608  32.706  11.073
81354W        W52883  43.776  14.270   4.898
81355W        W52884   9.564  30.588  12.153
81356W        W52885  38.461  17.101   4.666
81357W        W52886  43.936  10.252  10.986
81358W        W52887  29.557   0.965   0.935
81359W        W52888  25.206  40.762   4.558
81360W        W52889  11.653   4.477  14.518
81361W        W52890  35.012  40.735   1.811
81362W        W52891   7.434  42.088   4.005
81363W        W52892  13.796   0.521  13.785
81364W        W52893  18.851  38.178  11.641
81365W        W52894  36.248   4.954   0.183
81366W        W52895  34.389  16.241   5.032
81367W        W52896  34.019   8.948   4.624
81368W        W52897  23.531  37.454   1.581
81369W        W52898   1.992  38.991  11.349
81370W        W52899  23.774  35.497   4.367
81371W        W52900  42.881   5.195   1.836
81372W        W52901  26.881  35.252  14.760
81373W        W52902  35.166   7.223   2.258
81374W        W52903  37.542  10.085  12.391
81375W        W52904  10.155  39.095  10.990
81376W        W52905  29.192   5.665   4.470
81377W        W52906   5.384  25.930  11.609
81378W        W52907  38.387  24.223  13.500
81379W        W52908  36.340   4.224   2.174
81380W        W52909   2.223  37.513   3.148
81381W        W52910   6.167  19.116   1.835
81382W        W52911  11.634  38.924  12.492
81383W        W52912   6.227   4.402   3.672
81384W        W52913  10.057  29.486   3.201
81385W        W52914  37.788  20.936   1.377
81386W        W52915   6.172   4.920   2.794
81387W        W52916   2.864  33.371   3.118
81388W        W52917  42.920  39.524  11.835
81389W        W52918  41.702  27.317  10.770
81390W        W52919  14.248  20.955  11.122
81391W        W52920  35.385  13.118   1.736
81392W        W52921  36.555  42.569   1.763
81393W        W52922  43.011  38.105   2.882
81394W        W52923  11.353  22.671   1.664
81395W        W52924  37.910  33.661   3.288
81396W        W52925  43.480  13.437   1.793
81397W        W52926  17.596  37.414  14.758
81398W        W52927  14.371   8.387  13.439
81399W        W52928   8.738  33.941  10.582
81400W        W52929  17.882  39.822  12.726
81401W        W52930  10.610  37.164   0.177
81402W        W52931  17.500  44.785  12.963
81403W        W52932  36.500  17.505  14.889
81404W        W52933  29.404   1.271   3.889
81405W        W52934  37.155   3.291  13.133
81406W        W52935   1.822  34.578   3.037
81407W        W52936  24.522  37.918   3.838
81408W        W52937   7.905  27.900   1.193
81409W        W52938  11.313   3.809   1.777
81410W        W52939  12.181  10.715  11.982
81411W        W52940   6.165  23.994   3.746
81412W        W52941   5.329  12.689   2.790
81413W        W52942  15.101  21.588   1.835
81414W        W52943  30.475   2.993  10.392
81415W        W52944  25.238  20.028  13.819
81416W        W52945  13.266   6.670   1.695
81417W        W52946  36.912  44.259  12.504
81418W        W52947   9.900  33.883   2.142
81419W        W52948  21.747  17.171  13.027
81420W        W52949  12.632  11.015  14.864
81421W        W52950  40.644  14.631  13.079
81422W        W52951  31.459  32.176  10.830
81423W        W52952  27.742  41.072  13.093
81424W        W52953  10.607   4.484  10.534
81425W        W52954  39.888  12.176   3.876
81426W        W52955  27.144  39.618   0.887
81427W        W52956  41.141  14.680  14.679
81428W        W52957  18.728  16.096  14.441
81429W        W52958  13.239  18.839  11.315
81430W        W52959  43.548  31.900  10.665
81431W        W52960  35.437  17.816   1.400
81432W        W52961  14.096  38.569   4.578
81433W        W52962  41.679  44.808  13.643
81434W        W52963  36.056  26.640   4.740
81435W        W52964  11.127   2.400   0.960
81436W        W52965   7.931  36.289  14.897
81437W        W52966  24.642  19.361   3.212
81438W        W52967   9.813  44.551  13.920
81439W        W52968   6.761  10.666   2.198
81440W        W52969   6.417   8.710  11.287
81441W        W52970  16.356  22.783  13.728
81442W        W52971  35.241  23.384   5.030
81443W        W52972   3.354  13.554   0.422
81444W        W52973  13.453  41.387  10.205
81445W        W52974   0.967  12.964   4.938
81446W        W52975  30.564   2.601   3.325
81447W        W52976  40.636  16.290  10.795
81448W        W52977  19.944  30.732  10.465
81449W        W52978  31.550  40.378   1.934
81450W        W52979  22.447   7.485  11.758
81451W        W52980   0.742  15.638   2.472
81452W        W52981  25.063  24.687   3.202
81453W        W52982  28.314  44.360   0.429
81454W        W52983  15.764   1.542  11.163
81455W        W52984   8.634   3.908   3.687
81456W        W52985  37.973  21.567  11.974
81457W        W52986   6.978   8.216  13.474
81458W        W52987  18.647  36.986   1.945
81459W        W52988  34.836  35.592   0.839
81460W        W52989   1.412   5.765   3.125
81461W        W52990  21.653  26.215  12.354
81462W        W52991  33.058   9.149   1.265
81463W        W52992  25.187  31.073  11.171
81464W        W52993  31.127  21.042   2.788
81465W        W52994  41.589  16.187  10.428
81466W        W52995   6.293  26.964   1.274
81467W        W52996  34.335  38.786   0.725
81468W        W52997  16.413  37.986   2.011
81469W        W52998  41.922  40.078  13.125
81470W        W52999  38.926  35.854  10.800
81471W        W53000   1.068  29.082  13.082
81472W        W53001  36.258  29.993  12.503
81473W        W53002  13.413  38.696   2.790
81474W        W53003  36.944   7.733  14.849
81475W        W53004   1.003  27.278  12.012
81476W        W53005  17.284  29.611   3.245
81477W        W53006  30.919  43.651  14.788
81478W        W53007  39.368   2.939  14.423
81479W        W53008  10.747  26.437   1.905
81480W        W53009  34.993  15.455   3.174
81481W        W53010  44.519  43.205   2.024
81482W        W53011  24.447   8.192  13.929
81483W        W53012  38.918  28.125   1.935
81484W        W53013  23.136  14.071   3.511
81485W        W53014  17.514  41.278  13.571
81486W        W53015  32.379  29.600   3.579
81487W        W53016  42.548  36.911  11.144
81488W        W53017  40.391  17.399  11.319
81489W        W53018  33.476   6.814   4.219
81490W        W53019  40.925  25.559   0.856
81491W        W53020  13.631  42.427   3.691
81492W        W53021  19.481   9.371   3.878
81493W        W53022   4.859  26.864   1.596
81494W        W53023  36.307   5.709   2.402
81495W        W53024  12.365  28.432   3.139
81496W        W53025  39.350  26.448   4.627
81497W        W53026   4.302  14.131   0.897
81498W        W53027  16.193  13.562   1.014
81499W        W53028  20.037  21.617  14.896
81500W        W53029  42.651  33.635  11.588
81501W        W53030   5.360  35.777   3.765
81502W        W53031  30.402   8.606  12.047
81503W        W53032   6.060  33.510   2.574
81504W        W53033  12.019  15.570   3.095
81505W        W53034  44.027   0.376   4.537
81506W        W53035  18.726  14.252   1.382
81507W        W53036  22.066  25.890  14.391
81508W        W53037  24.617  32.839  11.235
81509W        W53038  41.363  33.076  10.723
81510W        W53039   0.591   6.009  13.063
81511W        W53040  19.799  41.597  13.167
81512W        W53041  36.468   7.417  12.409
81513W        W53042  35.849  26.380   0.897
81514W        W53043  33.075  43.665  12.482
81515W        W53044  43.336   4.190   2.760
81516W        W53045  25.522  32.804  14.153
81517W        W53046  22.719  12.089   0.752
81518W        W53047   2.772  26.126  11.069
81519W        W53048   7.752   7.443   1.385
81520W        W53049  31.329   0.811  11.874
81521W        W53050  29.811  21.656   1.951
81522W        W53051  10.168  15.266  13.571
81523W        W53052  33.405   8.866   0.951
81524W        W53053  21.080  12.786  13.792
81525W        W53054  13.697  21.560   4.570
81526W        W53055  12.357  29.895   3.190
81527W        W53056  22.877   0.771  13.478
81528W        W53057  12.738   9.964  14.852
81529W        W53058  35.332  37.515  14.003
81530W        W53059  42.785  16.766  12.115
81531W        W53060   7.852  21.474  14.268
81532W        W53061  39.000   9.828   0.719
81533W        W53062  33.173  35.468   3.810
81534W        W53063   3.232  10.828  10.365
81535W        W53064  40.046  32.075   0.440
81536W        W53065  17.518  15.232   4.186
81537W        W53066  37.702  16.107   0.701
81538W        W53067  26.601  29.977   1.713
81539W        W53068  19.282  17.835  11.167
81540W        W53069  21.780  26.722   2.289
81541W        W53070  17.145   4.352  11.663
81542W        W53071  28.120   9.108  14.597
81543W        W53072  28.054   5.693   1.757
81544W        W53073   6.179   8.603   0.847
81545W        W53074  31.006   6.390  10.741
81546W        W53075  31.648  33.640   4.128
81547W        W53076   1.554  37.383  14.370
81548W        W53077  19.861  39.054   0.854
81549W        W53078  14.718   0.925  11.080
81550W        W53079   0.332  27.599   3.732
81551W        W53080  19.524  15.350  13.769
81552W        W53081  27.697   5.912  13.303
81553W        W53082  38.831  32.898  12.023
81554W        W53083  25.285  42.062   4.140
81555W        W53084  22.542   1.443   1.755
81556W        W53085  16.374  23.011   0.956
81557W        W53086  17.307  31.293  12.074
81558W        W53087  31.658   2.584  12.610
81559W        W53088  15.580   0.770  13.165
81560W        W53089  18.488  23.262   0.261
81561W        W53090  18.361  21.285   4.103
81562W        W53091  12.841   9.838  11.144
81563W        W53092   2.347  10.730   1.176
81564W        W53093  30.924  44.313   5.149
81565W        W53094   4.832  24.500  14.227
81566W        W53095  29.335  17.287   3.204
81567W        W53096  36.342   1.877  11.586
81568W        W53097   5.317  30.749   5.025
81569W        W53098   1.866  17.812  14.227
81570W        W53099  11.804  30.626  12.632
81571W        W53100  33.360  33.080  14.948
81572W        W53101  30.721  37.521   3.151
81573W        W53102  16.975   7.211   0.628
81574W        W53103  32.002  20.287  12.545
81575W        W53104  41.356  15.107   1.313
81576W        W53105  44.820   3.176  11.651
81577W        W53106  33.158  17.853   4.131
81578W        W53107   2.653   9.685   4.152
81579W        W53108  35.082  25.015   4.057
81580W        W53109  39.574  14.838   3.688
81581W        W53110  20.295  10.426  12.484
81582W        W53111  33.157  23.832   0.886
81583W        W53112  26.456  22.261   4.559
81584W        W53113  24.112  29.094   2.715
81585W        W53114  31.666  12.268  10.633
81586W        W53115   4.666   9.178   0.880
81587W        W53116  31.681  23.256   3.727
81588W        W53117  24.507  11.644  13.266
81589W        W53118  17.115  42.975   3.882
81590W        W53119  15.249  39.776  11.551
81591W        W53120  44.507  44.323  11.141
81592W        W53121  37.030   4.661   3.226
81593W        W53122   6.952  39.273  11.198
81594W        W53123  36.168   4.962   4.240
81595W        W53124  19.635   4.144  11.662
81596W        W53125  19.564   0.469  11.140
81597W        W53126  32.806   6.313  13.476
81598W        W53127   2.004  18.294  12.081
81599W        W53128  13.104   7.725  14.790
81600W        W53129  40.318  33.126  11.585
81601W        W53130  32.127  17.149  11.247
81602W        W53131  17.079  23.735   2.836
81603W        W53132   0.789  19.322   0.696
81604W        W53133  11.418  17.776   2.141
81605W        W53134   7.105   3.968   2.742
81606W        W53135  32.191   1.958  13.506
81607W        W53136  37.227  42.751   3.205
81608W        W53137  23.116  43.096  11.625
81609W        W53138  26.583  20.413   4.924
81610W        W53139   6.627   1.914   4.141
81611W        W53140  12.089   1.779  11.082
81612W        W53141   8.076  13.367   3.175
81613W        W53142  19.311  11.386   1.042
81614W        W53143  19.807  36.602   1.350
81615W        W53144  40.011   9.841   0.191
81616W        W53145  18.691  25.714   1.695
81617W        W53146   1.818  23.962   0.717
81618W        W53147   9.863  24.498  10.707
81619W        W53148  32.425   6.262   0.002
81620W        W53149  16.738  25.658   0.819
81621W        W53150  44.417  36.988  11.515
81622W        W53151  24.044  12.151   4.581
81623W        W53152  18.482  20.122   2.690
81624W        W53153  41.704  21.525   2.211
81625W        W53154   9.577  14.629   3.323
81626W        W53155  38.323   2.861   0.535
81627W        W53156   7.610  34.763  13.367
81628W        W53157   0.984  27.938  11.602
81629W        W53158  20.319   6.669   3.988
81630W        W53159   2.289  20.012   0.396
81631W        W53160  27.424  32.662   3.697
81632W        W53161  10.380   4.431  13.312
81633W        W53162  39.338  44.507   0.950
81634W        W53163  22.067  15.839  11.445
81635W        W53164  11.836  44.617   2.764
81636W        W53165  39.088  33.625  11.991
81637W        W53166   6.640   7.637  11.635
81638W        W53167  39.270   6.068   1.710
81639W        W53168   4.338  27.045   3.661
81640W        W53169   0.082  14.672   4.660
81641W        W53170  38.865  24.063   1.616
81642W        W53171  33.760  32.992   5.013
81643W        W53172  31.610  22.224  11.598
81644W        W53173  35.634  27.230  13.427
81645W        W53174  22.714  30.919   3.746
81646W        W53175  28.569  10.213  13.031
81647W        W53176  15.979  23.218  12.552
81648W        W53177  10.359  41.799  11.495
81649W        W53178  40.055   4.834  10.859
81650W        W53179  38.250  43.489   2.635
81651W        W53180  22.070  12.722   0.703
81652W        W53181  16.693   9.256  12.106
81653W        W53182  33.105  17.708  12.624
81654W        W53183  11.164   0.969   4.163
81655W        W53184   1.923   8.352  14.519
81656W        W53185  36.073  22.971   4.520
81657W        W53186  10.619  42.050   3.598
81658W        W53187  27.997  26.571  12.169
81659W        W53188  35.951  35.388   1.778
81660W        W53189  13.575  28.154   0.312
81661W        W53190  35.552  22.190  12.850
81662W        W53191  14.146   6.413  14.242
81663W        W53192  36.089  14.672  14.721
81664W        W53193  33.361  22.586  14.884
81665W        W53194  39.452  15.676  11.952
81666W        W53195   0.972  35.141   3.647
81667W        W53196   8.171  29.491   3.770
81668W        W53197  44.520  33.711   2.827
81669W        W53198  23.146  35.842  13.426
81670W        W53199   8.413   9.949  10.467
81671W        W53200  19.095   7.951   0.329
81672W        W53201  44.697  28.412   0.811
81673W        W53202  32.076  16.144  10.560
81674W        W53203   2.443   1.237  13.025
81675W        W53204  16.700   8.394   2.061
81676W        W53205   0.928  24.436  11.140
81677W        W53206  41.869  33.957   1.613
81678W        W53207   4.099  12.740   4.544
81679W        W53208   0.244  23.141  12.867
81680W        W53209  23.395  18.185  10.584
81681W        W53210  18.780  17.277   0.183
81682W        W53211  39.472  25.521   4.028
81683W        W53212  44.415  16.222   3.467
81684W        W53213  20.573  12.197   3.861
81685W        W53214  25.470   3.948  10.882
81686W        W53215  12.766  29.668  13.862
81687W        W53216  23.450  12.725   4.098
81688W        W53217   0.629  36.593  12.892
81689W        W53218  34.996   7.666  14.778
81690W        W53219  15.812  36.770  13.990
81691W        W53220  23.544  34.726  14.244
81692W        W53221  10.300  22.248  10.513
81693W        W53222  26.668  41.886  14.940
81694W        W53223  41.797   9.548   0.937
81695W        W53224  32.027  28.132  14.240
81696W        W53225   2.807  30.013  11.223
81697W        W53226  30.281  33.462  10.982
81698W        W53227  34.098  15.269   3.642
81699W        W53228  26.314  41.049  13.838
81700W        W53229  15.321   7.328   3.124
81701W        W53230  14.408  18.204  12.063
81702W        W53231  42.632   3.893  14.710
81703W        W53232   7.733  21.048  11.148
81704W        W53233   3.025  17.665  11.610
81705W        W53234   6.581  19.922  13.878
81706W        W53235  19.814  20.529   4.853
81707W        W53236  35.098  27.446   4.406
81708W        W53237   6.333  37.431   4.562
81709W        W53238  44.279  13.897  11.218
81710W        W53239  34.356   3.343  14.782
81711W        W53240  14.547  43.553   3.717
81712W        W53241  14.137   9.773   0.971
81713W        W53242  12.648  17.284  10.720
81714W        W53243  23.540  12.844  12.920
81715W        W53244  32.773   5.811   2.381
81716W        W53245  28.487   3.327   4.805
81717W        W53246   5.183  10.830   0.364
81718W        W53247  11.294   4.867  14.574
81719W        W53248  15.336  38.443   4.837
81720W        W53249   9.470   4.336  13.666
81721W        W53250  12.115  29.429   3.214
81722W        W53251  38.933  13.287   4.214
81723W        W53252  31.572   3.287   2.605
81724W        W53253  16.948  35.238   0.124
81725W        W53254   2.414  34.040   0.536
81726W        W53255  18.281  13.780   3.114
81727W        W53256   9.271  10.521   1.168
81728W        W53257  13.203  28.638   0.922
81729W        W53258  11.831  26.650  11.115
81730W        W53259  17.284   2.941  10.643
81731W        W53260  16.186   0.385   3.618
81732W        W53261  13.106  17.161  14.914
81733W        W53262  27.545  26.765  12.894
81734W        W53263  22.167  11.094  13.407
81735W        W53264  34.981   9.249  14.548
81736W        W53265  15.488   4.470  13.422
81737W        W53266  22.168  29.175  11.218
81738W        W53267   1.565  21.615  13.481
81739W        W53268  22.313  24.317  11.453
81740W        W53269  27.633  21.118  13.611
81741W        W53270  44.513  43.996   2.370
81742W        W53271  25.913  26.681  13.851
81743W        W53272  35.554  24.925  14.858
81744W        W53273   7.847  24.082   3.275
81745W        W53274  23.263  28.470  12.441
81746W        W53275   6.124   5.006  14.508
81747W        W53276  20.149  44.444  10.764
81748W        W53277  20.408  33.611   4.135
81749W        W53278  21.189   7.143   4.496
81750W        W53279  23.132  24.006   0.487
81751W        W53280  23.215  35.536  11.611
81752W        W53281  38.572  22.647  14.382
81753W        W53282   2.286  10.731  10.582
81754W        W53283  28.167  39.568   1.503
81755W        W53284  34.187   4.365   1.194
81756W        W53285  22.701  42.413  13.124
81757W        W53286  11.343  23.139  14.306
81758W        W53287  28.121  24.208  13.029
81759W        W53288  14.556  22.557   4.600
81760W        W53289  21.643  10.273  13.005
81761W        W53290  40.555  43.922  12.537
81762W        W53291  32.621   6.697   1.760
81763W        W53292  11.220  19.268   1.769
81764W        W53293  36.585  13.135  11.969
81765W        W53294  29.950  22.643   3.397
81766W        W53295  34.125   8.419   1.923
81767W        W53296   0.926  23.137  12.609
81768W        W53297  40.977  22.563  10.459
81769W        W53298   1.957  41.851   0.286
81770W        W53299   2.924  20.223  12.463
81771W        W53300  27.655  11.765   2.780
81772W        W53301  28.373  22.196  14.218
81773W        W53302   9.991  42.706  10.129
81774W        W53303  39.840  42.580   4.227
81775W        W53304  37.791  44.948   3.217
81776W        W53305  44.829  23.492   3.131
81777W        W53306  40.304  27.130   3.835
81778W        W53307  26.744  39.367  12.488
81779W        W53308  18.811  42.722   3.249
81780W        W53309   4.707  38.608  14.593
81781W        W53310   8.500  12.148  13.093
81782W        W53311  39.723   7.321   4.036
81783W        W53312  36.858  22.933  11.170
81784W        W53313  31.910  22.814  14.833
81785W        W53314  32.227  10.440   0.392
81786W        W53315  38.021  24.418   3.609
81787W        W53316   4.354  22.978   4.249
81788W        W53317  34.771  26.867  10.957
81789W        W53318  26.857  44.381  11.986
81790W        W53319  40.002   1.346   3.194
81791W        W53320  26.223  13.216   1.734
81792W        W53321   4.108  21.766   2.237
81793W        W53322   8.816  44.461  14.039
81794W        W53323  42.257  28.706  12.559
81795W        W53324  18.740   2.081   4.591
81796W        W53325  35.975   0.555  12.013
81797W        W53326   2.354  31.174  11.862
81798W        W53327  39.629  35.902   2.227
81799W        W53328   9.569  15.722   0.940
81800W        W53329  32.836  28.032   0.980
81801W        W53330  44.992  29.606  14.947
81802W        W53331  38.017  39.051  11.550
81803W        W53332  31.024  32.149  14.581
81804W        W53333  25.506  41.610   3.149
81805W        W53334  17.360  22.602   2.290
81806W        W53335  27.667  23.605  12.469
81807W        W53336  37.709  29.489  12.103
81808W        W53337  28.152  13.562  13.107
81809W        W53338  35.042   1.497   3.736
81810W        W53339  12.206   5.353   4.326
81811W        W53340  16.598  22.624   4.752
81812W        W53341  38.594   8.826  14.787
81813W        W53342  30.126   5.113   1.907
81814W        W53343  28.556  32.845  12.547
81815W        W53344  12.280  32.986  13.142
81816W        W53345   6.688   5.314  10.571
81817W        W53346  40.088  26.572   1.124
81818W        W53347  27.583  22.292   1.659
81819W        W53348  29.850  27.706   4.052
81820W        W53349   2.251  44.747  12.008
81821W        W53350  20.847  40.442   4.494
81822W        W53351  39.994  16.181   0.519
81823W        W53352  14.218   3.685   2.449
81824W        W53353  25.498  33.673   0.967
81825W        W53354   1.547  14.685  12.025
81826W        W53355  24.295  32.179   3.172
81827W        W53356   7.935   5.958  14.078
81828W        W53357  11.378  12.761   4.038
81829W        W53358   1.930  20.938  14.618
81830W        W53359   6.885  39.302  14.572
81831W        W53360   3.928   7.807   2.779
81832W        W53361  34.323  37.107  14.659
81833W        W53362  42.418  40.963  11.322
81834W        W53363  13.074  15.461   2.357
81835W        W53364  21.670  17.195   3.213
81836W        W53365  31.943   7.927   3.615
81837W        W53366  21.757  22.378   2.268
81838W        W53367  30.881   9.657  10.580
81839W        W53368  20.247   5.313   4.523
81840W        W53369  38.375  37.292   3.171
81841W        W53370  31.711  32.801   5.603
81842W        W53371   2.564  20.585  12.086
81843W        W53372  14.803   1.913   4.990
81844W        W53373  13.343  23.208  12.422
81845W        W53374  12.689  26.978  13.032
81846W        W53375  30.041  31.657   3.273
81847W        W53376  38.866   3.053   0.838
81848W        W53377   8.136   6.623   0.762
81849W        W53378  13.292  38.103  12.469
81850W        W53379  32.245  15.051  12.681
81851W        W53380  27.011  19.170  11.978
81852W        W53381  32.843  30.084   1.322
81853W        W53382  12.464   8.821   4.084
81854W        W53383  28.950  10.810   1.459
81855W        W53384  27.111   2.648  11.186
81856W        W53385  32.367  38.661  10.064
81857W        W53386  27.565  31.401  10.604
81858W        W53387  21.975  24.699   3.716
81859W        W53388  38.887  40.459  12.630
81860W        W53389  27.348  28.986  12.888
81861W        W53390  12.920  41.410  10.973
81862W        W53391  30.262  27.947   2.454
81863W        W53392   4.797  22.094  13.334
81864W        W53393  27.638  14.973  10.268
81865W        W53394  41.966  26.601  13.374
81866W        W53395  26.935  25.327   2.366
81867W        W53396  33.542   8.750   4.779
81868W        W53397  44.931  38.077  12.923
81869W        W53398  29.464  35.899  12.454
81870W        W53399  27.555   6.321  14.479
81871W        W53400  10.074  13.229   2.409
81872W        W53401  31.871  29.462   4.048
81873W        W53402   9.162  28.567   1.243
81874W        W53403   4.820  11.227  10.915
81875W        W53404  41.558  18.776  11.086
81876W        W53405  17.134   0.354   3.149
81877W        W53406  39.588  22.675  14.444
81878W        W53407  20.653  34.054  13.132
81879W        W53408  28.158  30.428  12.439
81880W        W53409  32.557  30.523   0.278
81881W        W53410  21.241  35.735  13.037
81882W        W53411  21.115  19.420  14.252
81883W        W53412   3.239  19.153   0.883
81884W        W53413  21.002  24.258  11.544
81885W        W53414  33.507   0.808   4.137
81886W        W53415   2.529   6.952  10.396
81887W        W53416  27.160   7.856  12.336
81888W        W53417  15.773  38.505  13.799
81889W        W53418   2.202  34.923  11.570
81890W        W53419  17.026  15.774  14.812
81891W        W53420  42.065  21.165  14.120
81892W        W53421  33.078  26.532   3.266
81893W        W53422  26.588  39.788   1.005
81894W        W53423  13.585   2.436  14.966
81895W        W53424  27.490  27.216   3.352
81896W        W53425  16.036  36.441   1.184
81897W        W53426  44.968  13.396  11.155
81898W        W53427  32.941   7.056   2.557
81899W        W53428  26.284  22.410  13.783
81900W        W53429  23.317  34.312  14.032
81901W        W53430   4.341   5.207  14.281
81902W        W53431  38.978   4.271   1.802
81903W        W53432  26.646  32.953   3.131
81904W        W53433  44.439  38.267   0.606
81905W        W53434  26.574  43.265  14.466
81906W        W53435   6.754  23.649  11.130
81907W        W53436  11.860  26.103   2.740
81908W        W53437  39.435  25.096  13.478
81909W        W53438   0.393  35.515   2.858
81910W        W53439  43.503  35.600  12.480
81911W        W53440  14.317  13.786   4.523
81912W        W53441   6.704  44.739   4.026
81913W        W53442  20.053  10.530   1.312
81914W        W53443   5.074  40.206  10.411
81915W        W53444  35.373  40.527  12.206
81916W        W53445  44.303  12.888   1.712
81917W        W53446  41.790  28.661  12.281
81918W        W53447  32.435  29.072   0.011
81919W        W53448  24.711  34.608   3.671
81920W        W53449  30.850   8.239   1.853
81921W        W53450  36.133  39.009   0.449
81922W        W53451  24.243   8.808   2.956
81923W        W53452  42.303  43.854   2.877
81924W        W53453   1.295  32.760  13.387
81925W        W53454  11.140  11.574  11.613
81926W        W53455  44.608  22.707   2.795
81927W        W53456  39.841   3.048   4.172
81928W        W53457  44.877   8.269   4.851
81929W        W53458  24.107  18.595  11.703
81930W        W53459  25.115  17.523   3.161
81931W        W53460  16.220  18.620   2.173
81932W        W53461  34.669   9.568   4.375
81933W        W53462  16.750  12.719   3.139
81934W        W53463  16.563   9.559  14.333
81935W        W53464  17.491  35.084  10.303
81936W        W53465   9.117  27.588  13.984
81937W        W53466  44.834  36.102   1.907
81938W        W53467  20.760  27.997   3.788
81939W        W53468  31.143  19.806  13.405
81940W        W53469  42.296   2.216  13.946
81941W        W53470  13.970  19.299  14.074
81942W        W53471  21.881  32.082   2.300
81943W        W53472  25.002  19.815  14.218
81944W        W53473   0.296  41.543  12.903
81945W        W53474  44.833  30.583   0.928
81946W        W53475  27.489  41.757   3.578
81947W        W53476   9.731  23.625  14.049
81948W        W53477   5.248  13.785   3.622
81949W        W53478  36.572   3.830  14.279
81950W        W53479  21.777  39.412  14.804
81951W        W53480  27.683   5.885  14.228
81952W        W53481  34.563  42.662   4.190
81953W        W53482  18.140  43.089   1.789
81954W        W53483   3.326   5.924   4.568
81955W        W53484   7.774   2.474   0.333
81956W        W53485   9.743  41.928  11.135
81957W        W53486  41.745  39.091   2.784
81958W        W53487  40.250  43.952   2.890
81959W        W53488  36.826  19.803  14.452
81960W        W53489  27.356   0.439  14.378
81961W        W53490  14.720   1.956  14.656
81962W        W53491   4.340  19.599   1.975
81963W        W53492  24.539  41.606  12.082
81964W        W53493  12.158   0.460  14.546
81965W        W53494   3.855  11.199   1.956
81966W        W53495  25.396  26.470  11.653
81967W        W53496  19.895   1.151   4.723
81968W        W53497  22.019  31.313   2.628
81969W        W53498  14.821  38.119  14.763
81970W        W53499   3.657  22.850  11.104
81971W        W53500  14.035   9.589   1.429
81972W        W53501  36.117   6.750   0.001
81973W        W53502  19.666  30.686  11.613
81974W        W53503   4.375  13.423   2.318
81975W        W53504  27.406  22.620  10.594
81976W        W53505  33.957  25.363   4.935
81977W        W53506  37.528  38.905   4.712
81978W        W53507  39.067   4.383   3.124
81979W        W53508  19.155  31.096  11.215
81980W        W53509   2.309  12.830   2.567
81981W        W53510  28.040   9.902   1.936
81982W        W53511  41.291  41.420   0.603
81983W        W53512   3.154  12.566   0.339
81984W        W53513  28.918  24.863  12.042
81985W        W53514  20.973  10.649   4.160
81986W        W53515   4.703  42.980  11.721
81987W        W53516  24.649  17.838  10.776
81988W        W53517  16.760  17.239   4.457
81989W        W53518  15.163  31.511   2.870
81990W        W53519  32.001   4.859  13.421
81991W        W53520  27.596  19.843   4.505
81992W        W53521   4.364  14.668   0.205
81993W        W53522  11.848   3.310  13.060
81994W        W53523  23.073   2.376   3.140
81995W        W53524   6.832   4.481   3.208
81996W        W53525  35.872  36.922   4.334
81997W        W53526  26.504  19.540   1.945
81998W        W53527   0.869  10.128   2.414
81999W        W53528  12.083  42.265  12.922
82000W        W53529   1.975  27.887  14.601
82001W        W53530  29.806  19.108  14.424
82002W        W53531  34.628  11.789   3.114
82003W        W53532  43.003  25.107  13.536
82004W        W53533   7.760  25.228   9.864
82005W        W53534  44.382   3.363  10.045
82006W        W53535  18.041  29.908  13.072
82007W        W53536  18.671  27.897  10.619
82008W        W53537   8.387  25.035  12.413
82009W        W53538  21.093  27.403   2.685
82010W        W53539  14.681  39.513   3.142
82011W        W53540  22.184  30.844   3.577
82012W        W53541  25.634  22.621  10.687
82013W        W53542  36.940  10.225  10.459
82014W        W53543  11.920   2.266  10.878
82015W        W53544   3.936  15.258   1.250
82016W        W53545  34.416  21.265   0.848
82017W        W53546  19.020  25.611  12.651
82018W        W53547   5.470  40.537   0.562
82019W        W53548  13.667  27.029  11.958
82020W        W53549   5.831  42.204  13.594
82021W        W53550  37.848  37.317   4.094
82022W        W53551  41.302  22.438  11.648
82023W        W53552   1.522  18.939  13.596
82024W        W53553  12.250  36.173   4.759
82025W        W53554  27.199  25.561  13.483
82026W        W53555  15.393   4.780   3.663
82027W        W53556  20.651  34.967   4.366
82028W        W53557  42.822  25.957  11.797
82029W        W53558  41.304  16.964   4.699
82030W        W53559  32.509  21.498  12.469
82031W        W53560  40.708  30.624  11.407
82032W        W53561  23.001  27.492   0.657
82033W        W53562   3.649  39.035   4.006
82034W        W53563   1.171   0.022   2.329
82035W        W53564   7.891  43.440  14.296
82036W        W53565  29.371   1.747   4.096
82037W        W53566  16.244  29.281   3.809
82038W        W53567   0.454  26.718   1.890
82039W        W53568   2.345  15.157   4.806
82040W        W53569  17.107  26.053   2.813
82041W        W53570  33.478  11.024   1.022
82042W        W53571   7.956  32.110   2.640
82043W        W53572  32.209  28.434  13.797
82044W        W53573   2.690  35.530  13.868
82045W        W53574  14.695   9.994   3.128
82046W        W53575  27.657  14.226  13.458
82047W        W53576  15.312   9.445   1.768
82048W        W53577   2.342  25.108  10.367
82049W        W53578   3.527  20.613   2.356
82050W        W53579  14.936  44.801   2.213
82051W        W53580  23.935  13.736   3.196
82052W        W53581   3.908  27.269  11.867
82053W        W53582  37.929  31.892  12.541
82054W        W53583  30.962   9.668   2.389
82055W        W53584  43.433  25.101   0.095
82056W        W53585  29.941  22.181   0.255
82057W        W53586  11.708   1.450  11.230
82058W        W53587  19.070   4.778  13.426
82059W        W53588   3.120  39.932  13.913
82060W        W53589  43.431  23.038  12.315
82061W        W53590  12.754   7.738  11.749
82062W        W53591   1.235  43.817   3.539
82063W        W53592  22.321  43.548  10.973
82064W        W53593  41.434  38.818   1.946
82065W        W53594  23.834  28.562   0.528
82066W        W53595   6.572  43.660  12.527
82067W        W53596  22.275  18.525  11.032
82068W        W53597  15.557  44.401  14.869
82069W        W53598  26.577   7.943   3.198
82070W        W53599   3.304  19.380  13.440
82071W        W53600  34.612  21.273  11.930
82072W        W53601  25.485  29.641   0.924
82073W        W53602  37.086  29.902  14.385
82074W        W53603  22.217  30.758  10.785
82075W        W53604  33.365  30.595  13.560
82076W        W53605  25.795   3.166   3.435
82077W        W53606  22.007   8.039  14.798
82078W        W53607  34.015  33.957  11.077
82079W        W53608   6.558  12.565   3.645
82080W        W53609  21.555  38.942   0.440
82081W        W53610  10.336  23.438  12.576
82082W        W53611  28.963  39.970   2.631
82083W        W53612  22.797  32.226   0.661
82084W        W53613   3.463   6.276  13.059
82085W        W53614  26.600  23.749   1.526
82086W        W53615  21.533   6.135  14.537
82087W        W53616   9.228   5.487   4.357
82088W        W53617   1.424   5.072   0.444
82089W        W53618  33.413  29.372  10.337
82090W        W53619  19.260  42.868   0.790
82091W        W53620  19.608   1.750   3.193
82092W        W53621  43.438  39.809   4.941
82093W        W53622  20.809  38.468   4.585
82094W        W53623   4.383  18.211   4.163
82095W        W53624  38.444  25.137  12.364
82096W        W53625  13.430   4.426  14.771
82097W        W53626  32.087  24.513  12.392
82098W        W53627   6.133   9.387   0.313
82099W        W53628  34.602  40.942   1.525
82100W        W53629  13.794  13.135  12.202
82101W        W53630  10.695  15.755  11.586
82102W        W53631  41.596  16.260   4.120
82103W        W53632   1.868  25.057  11.200
82104W        W53633  41.517  25.115   2.348
82105W        W53634  36.354  32.965   1.121
82106W        W53635  37.124  23.985   4.288
82107W        W53636   8.669  37.807  11.609
82108W        W53637  11.096  38.082  10.887
82109W        W53638  13.387  42.406   4.749
82110W        W53639  28.535   7.448   3.382
82111W        W53640  26.347  22.966  13.411
82112W        W53641  11.156   6.507   4.641
82113W        W53642   2.018  29.973  12.307
82114W        W53643  20.316   8.607   0.946
82115W        W53644  22.339  17.996  10.737
82116W        W53645   5.609  15.522  13.540
82117W        W53646  42.590  16.696  11.145
82118W        W53647   5.694   7.162   0.880
82119W        W53648  24.563  37.299  11.155
82120W        W53649  44.506  41.880  14.396
82121W        W53650   5.791  42.376   2.458
82122W        W53651  38.362  23.717   0.869
82123W        W53652  32.177  18.556  13.152
82124W        W53653   5.153  19.621   2.688
82125W        W53654   0.285   8.226  10.809
82126W        W53655  21.861  40.064   1.775
82127W        W53656  19.485  43.235   0.397
82128W        W53657  21.725  10.329   4.633
82129W        W53658  36.171  16.411  13.238
82130W        W53659  10.810  42.212  12.325
82131W        W53660  17.958   7.677   5.062
82132W        W53661  30.074   7.878  11.078
82133W        W53662  19.717  29.607  11.785
82134W        W53663  32.527  21.952  11.061
82135W        W53664  34.557  13.333  11.332
82136W        W53665   6.802  12.849  14.296
82137W        W53666  39.529   4.821   2.647
82138W        W53667  30.420   5.001   3.765
82139W        W53668  43.425  19.406  10.523
82140W        W53669  12.882  23.288   4.078
82141W        W53670  36.024   7.740   3.979
82142W        W53671   8.765  25.190   4.381
82143W        W53672  16.122  28.135   0.288
82144W        W53673  37.420  12.357   2.050
82145W        W53674  37.232  41.293   4.114
82146W        W53675  31.243   3.076   2.942
82147W        W53676  35.219   9.833   2.215
82148W        W53677  22.959   0.445  14.327
82149W        W53678   0.656  23.736   3.150
82150W        W53679   2.481  37.027   4.504
82151W        W53680  14.982   1.048   4.888
82152W        W53681  43.917  11.453   4.858
82153W        W53682  34.521  36.975  10.712
82154W        W53683  38.773   2.146   3.734
82155W        W53684  40.646  43.158   4.346
82156W        W53685  14.917  16.721  14.864
82157W        W53686  13.309  20.655  10.939
82158W        W53687   0.868   3.748  11.244
82159W        W53688  26.662   6.151  14.426
82160W        W53689  16.233  32.192  10.753
82161W        W53690   0.943  17.711   1.353
82162W        W53691  32.518  40.393   1.411
82163W        W53692  41.516  26.880  11.486
82164W        W53693  42.050  12.340  14.468
82165W        W53694  10.289  13.756   4.683
82166W        W53695  12.168  37.422  10.785
82167W        W53696  24.968  31.921   4.426
82168W        W53697  41.594  33.508  10.866
82169W        W53698  15.021   8.823   3.227
82170W        W53699  25.626  15.250   3.146
82171W        W53700   2.898  34.763   1.682
82172W        W53701  26.107   2.050  10.611
82173W        W53702  37.305  41.739   0.924
82174W        W53703  20.579  10.808   1.292
82175W        W53704  31.901  36.458   4.132
82176W        W53705  40.543  32.014   2.654
82177W        W53706  43.409  37.279   1.766
82178W        W53707  16.122  10.497   4.982
82179W        W53708   0.696  33.081   3.256
82180W        W53709  15.057  43.422  11.335
82181W        W53710   9.142   8.248  13.836
82182W        W53711  35.445  22.643   3.756
82183W        W53712  43.336   8.004   0.164
82184W        W53713  28.194  16.090   4.687
82185W        W53714  41.217  32.836   3.359
82186W        W53715  26.799  23.716  12.229
82187W        W53716  16.718  44.913   4.465
82188W        W53717  42.833  19.231  14.972
82189W        W53718  30.364   9.263   2.919
82190W        W53719  10.388  38.793   1.690
82191W        W53720  10.566  21.094  10.684
82192W        W53721  14.178  23.509   3.789
82193W        W53722   0.943   5.758  12.403
82194W        W53723  39.558  37.396  14.881
82195W        W53724  40.825  34.573   1.873
82196W        W53725  32.267   0.309   0.107
82197W        W53726  34.890  19.385   0.809
82198W        W53727  27.886   6.446  14.863
82199W        W53728  40.052  20.621   2.759
82200W        W53729  36.233   9.419   1.748
82201W        W53730  12.094  27.621   0.791
82202W        W53731  40.957  13.787   0.295
82203W        W53732  20.468  23.952  14.406
82204W        W53733  30.140  30.082  14.501
82205W        W53734   8.708  24.233  12.032
82206W        W53735  21.952  20.804   2.680
82207W        W53736   6.411   7.422  12.544
82208W        W53737  42.386   3.838  14.176
82209W        W53738  41.921   2.214  11.171
82210W        W53739  13.401  26.414   3.366
82211W        W53740  32.046  27.597   1.330
82212W        W53741  15.702  11.127  12.566
82213W        W53742  17.029  24.504   3.209
82214W        W53743  24.704   9.844   2.873
82215W        W53744  10.983  40.533  12.026
82216W        W53745  12.788  10.374   3.663
82217W        W53746  41.941  28.511   0.524
82218W        W53747  28.553  18.603   3.113
82219W        W53748  24.713  39.994  13.280
82220W        W53749  26.545   6.761   1.528
82221W        W53750   5.370  12.246  13.849
82222W        W53751  17.882  24.000  13.952
82223W        W53752  36.142  19.169   3.318
82224W        W53753   8.298   0.208   2.173
82225W        W53754  31.425  16.792  12.380
82226W        W53755  11.367  28.899   4.251
82227W        W53756  19.746   0.480  12.932
82228W        W53757  30.513  13.523  12.227
82229W        W53758  25.472  10.313  12.920
82230W        W53759  37.507  32.252  11.874
82231W        W53760   0.441  19.523  11.549
82232W        W53761  11.962  27.720   9.883
82233W        W53762  13.677  26.603  10.668
82234W        W53763  37.972   7.972   0.011
82235W        W53764  14.593   3.787   2.848
82236W        W53765  44.892  12.626  11.464
82237W        W53766  31.949  20.916  11.569
82238W        W53767   3.522  17.162   0.814
82239W        W53768   8.221  13.327  11.060
82240W        W53769   0.517   4.690  14.029
82241W        W53770  28.682  13.704   3.076
82242W        W53771  43.698  18.031  13.052
82243W        W53772  40.486  27.928   1.750
82244W        W53773  17.891  16.476   2.286
82245W        W53774  29.949  17.184  11.359
82246W        W53775  30.990  36.679   1.481
82247W        W53776  13.884   6.271  14.840
82248W        W53777  15.724  10.828  13.029
82249W        W53778   6.396  44.290   1.365
82250W        W53779  42.806   2.294  13.923
82251W        W53780   6.751  31.985   0.771
82252W        W53781  25.069  24.784   4.267
82253W        W53782  23.113  16.261  11.131
82254W        W53783  33.479  28.994   4.675
82255W        W53784  35.807  13.566   1.276
82256W        W53785  43.909  13.161   1.913
82257W        W53786   3.777  31.869  11.132
82258W        W53787   3.077  20.655  11.177
82259W        W53788  37.507  38.586   0.324
82260W        W53789  35.857   7.958  12.026
82261W        W53790  41.508  11.831   1.030
82262W        W53791   9.853   5.134   3.192
82263W        W53792  30.385  21.410  11.928
82264W        W53793  35.125   3.327   0.076
82265W        W53794  35.598   7.809  14.012
82266W        W53795   5.657   7.359   2.316
82267W        W53796  12.268  43.532  13.445
82268W        W53797  10.962  34.535   4.117
82269W        W53798   4.786  32.127  13.514
82270W        W53799  16.655  11.933  10.649
82271W        W53800   1.362  15.221   0.942
82272W        W53801   0.009  12.395   3.215
82273W        W53802  19.763  24.379   3.698
82274W        W53803   7.019   8.082  10.736
82275W        W53804  36.071   9.821  11.976
82276W        W53805  32.781  15.412  14.440
82277W        W53806  28.507   7.706   2.681
82278W        W53807  32.437   4.222  11.544
82279W        W53808   7.560  41.228   1.345
82280W        W53809   2.811   9.074  12.569
82281W        W53810   6.449  27.560   2.939
82282W        W53811  31.596  10.758  12.588
82283W        W53812   2.214  44.091   1.271
82284W        W53813  39.774   3.311  10.703
82285W        W53814  14.862  44.299   4.140
82286W        W53815  12.708   3.708  12.132
82287W        W53816  40.091  27.970   0.360
82288W        W53817  42.393   9.255  11.380
82289W        W53818  41.886   0.209   3.840
82290W        W53819  28.064  27.538   0.937
82291W        W53820  31.852  26.109   4.027
82292W        W53821  41.579   1.721  12.504
82293W        W53822  14.722  14.180   0.068
82294W        W53823  27.654  38.308   2.799
82295W        W53824  32.533  44.654  11.889
82296W        W53825   8.450  20.145   4.220
82297W        W53826  33.843  26.583   0.522
82298W        W53827  17.685  14.428  13.112
82299W        W53828   3.313  32.523   0.892
82300W        W53829  12.784  10.428   1.261
82301W        W53830   8.384  42.734   1.866
82302W        W53831  44.956  10.918   3.603
82303W        W53832  24.313  32.791  11.979
82304W        W53833  18.131  43.155  14.643
82305W        W53834  20.751  12.852   3.704
82306W        W53835  43.506   4.272   3.509
82307W        W53836   3.683   2.875   3.116
82308W        W53837   3.184  19.660   3.654
82309W        W53838  32.002  13.779  14.025
82310W        W53839  15.467  33.444   2.696
82311W        W53840  37.241  27.458   0.814
82312W        W53841   3.459  22.320   0.385
82313W        W53842  39.523  39.549   1.043
82314W        W53843   0.345  21.338   4.612
82315W        W53844  28.453  18.154   4.538
82316W        W53845  39.263  20.068  12.928
82317W        W53846   7.821  40.819   2.709
82318W        W53847  21.076   4.634  11.195
82319W        W53848  30.174  11.285  13.937
82320W        W53849  38.298  11.585  11.050
82321W        W53850  32.892  36.507   3.200
82322W        W53851  32.153   2.468   2.411
82323W        W53852  30.197   6.675   3.278
82324W        W53853  21.226  31.453  11.915
82325W        W53854  12.664  40.921  12.648
82326W        W53855  19.242  39.275   2.785
82327W        W53856  14.278  41.361   0.805
82328W        W53857  24.580  33.465   4.504
82329W        W53858  19.635  36.096   0.708
82330W        W53859   9.853  33.162  13.427
82331W        W53860  26.080   4.973  14.021
82332W        W53861  19.707  38.835  14.746
82333W        W53862  31.498  17.521   3.088
82334W        W53863  36.556   0.675   3.220
82335W        W53864   0.151  13.829   3.590
82336W        W53865  31.050  31.940  14.076
82337W        W53866  38.998   8.699   3.738
82338W        W53867  40.943  44.000   3.804
82339W        W53868   4.919  20.248   4.303
82340W        W53869  22.181  31.993   4.599
82341W        W53870  19.717  16.512  13.479
82342W        W53871  26.980  34.842   1.519
82343W        W53872  17.224   3.736   2.051
82344W        W53873  15.735  17.850  14.824
82345W        W53874  20.652  29.524   3.764
82346W        W53875  11.730  16.096   1.385
82347W        W53876  27.592  38.858   4.520
82348W        W53877  22.482  29.394   4.563
82349W        W53878  38.330   4.675   3.485
82350W        W53879  31.128  22.260  10.869
82351W        W53880  14.795  21.987   0.256
82352W        W53881  14.267  37.794  13.446
82353W        W53882  20.973   4.320  14.402
82354W        W53883  24.055  29.048  12.787
82355W        W53884  25.594  24.831   1.689
82356W        W53885   6.545  32.841  13.422
82357W        W53886   5.240  19.096  11.592
82358W        W53887  33.554  40.848   1.379
82359W        W53888  34.504  35.526   4.181
82360W        W53889   3.749   0.926   2.103
82361W        W53890  44.391  22.577   0.932
82362W        W53891  39.933  25.674  13.886
82363W        W53892  16.081  26.528  13.509
82364W        W53893   1.061  39.868   3.856
82365W        W53894  40.430  39.586  11.061
82366W        W53895  31.420  20.317  13.885
82367W        W53896  33.179  11.086   3.734
82368W        W53897  38.098  31.992   4.595
82369W        W53898  15.465  27.678  13.140
82370W        W53899   6.383  40.333  12.564
82371W        W53900   3.343  43.801   1.327
82372W        W53901  22.974  28.650   3.378
82373W        W53902  34.885  14.109   1.459
82374W        W53903  44.373  12.337   0.700
82375W        W53904  35.746  37.383   3.577
82376W        W53905  26.280  21.226   4.905
82377W        W53906  23.622  25.117  10.690
82378W        W53907  42.734  34.157  11.588
82379W        W53908  26.977  40.820  13.525
82380W        W53909  44.933  31.344   2.295
82381W        W53910  24.736  43.540   1.324
82382W        W53911   5.278  32.754   1.781
82383W        W53912  22.528   2.463   0.472
82384W        W53913  27.198   3.496   0.452
82385W        W53914  34.397  19.722  13.514
82386W        W53915  11.725   6.262   4.155
82387W        W53916  41.828  26.906  11.054
82388W        W53917  21.012  41.854   0.907
82389W        W53918  18.112  38.596   2.204
82390W        W53919  12.224  39.052  10.451
82391W        W53920  17.234  14.309  11.694
82392W        W53921  33.136  17.059   1.687
82393W        W53922  39.190   6.201   9.975
82394W        W53923  14.785  19.753   5.055
82395W        W53924  10.895  43.452   0.872
82396W        W53925  18.208  35.406   2.290
82397W        W53926  35.089  37.013   0.301
82398W        W53927  37.524  28.171   0.239
82399W        W53928  36.980  21.184   1.647
82400W        W53929  32.936   2.247   1.784
82401W        W53930  38.945  42.367   1.570
82402W        W53931   4.521  16.727  10.273
82403W        W53932  20.902  32.645  13.448
82404W        W53933  17.145   2.733   4.130
82405W        W53934   8.323   3.081   5.164
82406W        W53935   8.768   2.544  14.074
82407W        W53936   5.254  38.946   0.996
82408W        W53937  28.762  17.194   0.444
82409W        W53938   3.228   5.518  13.634
82410W        W53939  32.525  39.999  10.684
82411W        W53940  15.779   4.155  11.543
82412W        W53941  24.659  29.310   3.376
82413W        W53942  43.658  11.695   4.488
82414W        W53943  38.441  11.283   1.880
82415W        W53944  10.434  42.556   0.512
82416W        W53945  35.044  31.121  14.404
82417W        W53946   7.317   2.185   0.369
82418W        W53947  43.974   9.950   4.811
82419W        W53948  43.083  37.709  14.519
82420W        W53949  35.379  27.175  13.961
82421W        W53950  18.871  15.317  12.245
82422W        W53951  35.546  26.424  13.237
82423W        W53952   0.971   0.077   0.435
82424W        W53953  15.679  11.862   3.375
82425W        W53954  25.133  36.432   4.170
82426W        W53955  31.602  29.436   0.370
82427W        W53956   8.383  22.767   0.104
82428W        W53957   5.260  26.512  11.211
82429W        W53958  34.056  32.121  12.087
82430W        W53959   5.482  44.821   2.173
82431W        W53960  36.861  41.769   1.877
82432W        W53961   2.459  11.340  12.848
82433W        W53962  25.212  39.498   0.914
82434W        W53963  44.453   7.154  14.338
82435W        W53964  40.062  27.009  11.652
82436W        W53965  10.301  35.951  14.753
82437W        W53966  28.530   5.964   0.475
82438W        W53967   5.319  27.659   4.521
82439W        W53968  29.735  42.084  11.472
82440W        W53969  26.387  33.350  10.654
82441W        W53970   0.213  18.962  14.039
82442W        W53971   4.488  17.244   3.315
82443W        W53972  39.226  36.966  13.822
82444W        W53973  39.227   7.239   3.221
82445W        W53974   8.462  30.967  11.182
82446W        W53975  41.773  43.659   4.586
82447W        W53976   6.369   2.649   2.160
82448W        W53977  25.462  33.421   0.517
82449W        W53978  27.716   7.854   4.189
82450W        W53979  43.306  26.064  12.657
82451W        W53980  42.801   4.132   2.711
82452W        W53981   1.663  16.659  12.555
82453W        W53982  43.756  23.771   1.388
82454W        W53983   4.445  32.252   1.333
82455W        W53984  10.811   4.145   3.214
82456W        W53985  18.881  21.607  14.346
82457W        W53986  28.825  15.141  10.365
82458W        W53987  19.219  32.208  11.545
82459W        W53988  31.512   9.614  11.634
82460W        W53989  35.984  43.932   4.580
82461W        W53990  24.433  38.853   4.161
82462W        W53991  36.569  37.805   1.217
82463W        W53992  34.916  24.023  10.729
82464W        W53993  28.359  24.403   1.726
82465W        W53994  15.639  37.809  12.211
82466W        W53995  15.183  41.265  12.587
82467W        W53996  43.968  37.713  14.321
82468W        W53997  28.942  25.515   2.872
82469W        W53998   3.306  21.918   0.023
82470W        W53999  29.879  31.938  12.505
82471W        W54000  36.183  38.323  13.577
82472W        W54001  24.977  21.654  11.136
82473W        W54002   0.690  35.617  11.890
82474W        W54003  33.761  22.458  13.338
82475W        W54004  41.366  27.934   4.080
82476W        W54005  20.048  13.606   4.655
82477W        W54006  10.978  15.210   3.248
82478W        W54007  35.498  20.487  13.230
82479W        W54008  35.064  28.994   3.754
82480W        W54009  25.766  34.336  13.953
82481W        W54010  19.915  24.543   1.928
82482W        W54011  16.222   4.440  11.723
82483W        W54012  30.640  14.054   3.322
82484W        W54013  29.684   9.947  14.912
82485W        W54014  21.660  23.950  13.924
82486W        W54015  26.957   6.222  12.389
82487W        W54016  23.016   8.077  14.851
82488W        W54017  23.112  41.853  11.334
82489W        W54018  36.395  20.210  12.234
82490W        W54019  39.297  28.493   2.794
82491W        W54020  16.778  22.623  12.464
82492W        W54021   7.661   9.169  14.372
82493W        W54022  22.517  19.848   0.343
82494W        W54023  31.235   0.971   4.573
82495W        W54024  26.517  40.621   0.573
82496W        W54025  23.131  26.205   3.842
82497W        W54026  15.863  38.416   1.263
82498W        W54027   4.037  26.848   2.680
82499W        W54028  40.581  43.973  13.436
82500W        W54029  24.710  29.834   3.258
82501W        W54030  43.878  20.488  11.689
82502W        W54031  16.932  33.892   1.503
82503W        W54032  18.809  24.149  12.465
82504W        W54033  38.927  13.742  13.069
82505W        W54034  26.985  11.008   0.422
82506W        W54035  43.201   7.353   0.861
82507W        W54036  27.963  11.641  11.328
82508W        W54037  10.736  13.118   0.363
82509W        W54038   8.389  28.933   2.586
82510W        W54039  21.190   0.334  14.117
82511W        W54040  43.690  40.380   1.229
82512W        W54041  27.933  39.670   2.346
82513W        W54042  25.246  14.463  14.361
82514W        W54043  16.738  31.060  14.571
82515W        W54044  17.976  12.196   1.963
82516W        W54045  36.336  13.664   2.266
82517W        W54046  29.039  27.033  11.667
82518W        W54047  18.063   4.264  11.217
82519W        W54048  25.692   5.276   1.304
82520W        W54049  21.567   4.775   3.216
82521W        W54050  16.298  42.784  12.304
82522W        W54051  41.325  43.480  13.091
82523W        W54052   1.013  24.031   3.366
82524W        W54053  12.754  28.723  14.070
82525W        W54054  10.705  12.191  10.527
82526W        W54055  21.151   8.835   5.099
82527W        W54056  13.120  38.067   0.491
82528W        W54057  14.519   2.415  14.464
82529W        W54058  13.101  40.480   0.705
82530W        W54059   7.744  25.595  11.980
82531W        W54060  19.469   6.715  12.072
82532W        W54061  26.851  22.723  10.376
82533W        W54062  43.776  24.101  12.337
82534W        W54063  28.881   5.777  12.063
82535W        W54064  11.869   3.794   4.048
82536W        W54065  25.394   5.729   4.034
82537W        W54066  15.734  34.335  12.783
82538W        W54067  36.837   7.849  13.499
82539W        W54068   4.858  22.220  14.686
82540W        W54069  37.049  43.287  12.417
82541W        W54070  30.364  11.837   1.352
82542W        W54071  36.793  26.605   3.373
82543W        W54072  32.506   6.218  12.494
82544W        W54073   6.237  39.070  13.858
82545W        W54074  13.198  24.318   2.739
82546W        W54075  32.023  26.930   0.440
82547W        W54076  24.924  18.604   2.003
82548W        W54077  31.864  26.211   1.359
82549W        W54078  37.020  31.455  12.520
82550W        W54079  35.666  30.129  11.463
82551W        W54080  31.047  20.976  11.562
82552W        W54081  22.668   4.910   1.800
82553W        W54082  42.536  33.985   3.325
82554W        W54083  36.914   0.915   0.179
82555W        W54084  34.448  17.448  11.676
82556W        W54085  22.202  35.213   2.313
82557W        W54086  15.552  16.618  12.478
82558W        W54087  41.773  13.707   1.907
82559W        W54088   2.686  25.505  11.588
82560W        W54089  21.810   4.640  14.424
82561W        W54090  28.579  22.787  12.035
82562W        W54091  28.090  33.456   3.791
82563W        W54092   3.182  15.811  11.154
82564W        W54093  19.750   5.031  12.954
82565W        W54094  37.775   4.393  11.158
82566W        W54095  16.592  37.070   1.837
82567W        W54096   9.791  10.699   3.407
82568W        W54097  12.817   7.180  13.351
82569W        W54098  10.804   4.418  13.011
82570W        W54099  38.301   1.831   1.426
82571W        W54100   1.267   8.176   1.390
82572W        W54101  34.876   8.415  10.473
82573W        W54102  41.681  22.065   0.009
82574W        W54103  22.309  23.827   1.503
82575W        W54104  39.336  37.271   3.180
82576W        W54105  10.735  31.216   0.522
82577W        W54106  35.906  41.235   1.722
82578W        W54107  15.629   4.114  13.773
82579W        W54108  24.518  31.187  14.955
82580W        W54109  39.289  34.039   4.165
82581W        W54110  43.999  37.454   3.212
82582W        W54111  23.157  31.908   0.912
82583W        W54112   6.683  27.792   1.123
82584W        W54113  11.479  42.025   3.350
82585W        W54114  20.019  17.187  11.399
82586W        W54115  29.872  28.461   0.758
82587W        W54116  40.534   4.658   1.148
82588W        W54117  29.473  42.402   1.271
82589W        W54118  25.968  16.036   0.365
82590W        W54119  18.978  24.167   4.513
82591W        W54120  44.513   8.755  11.617
82592W        W54121  34.997   3.005  13.570
82593W        W54122  27.666   5.367   0.371
82594W        W54123  32.407  34.261   0.017
82595W        W54124   5.015   7.650   4.696
82596W        W54125  26.255  36.492   1.701
82597W        W54126   6.144   9.110   4.785
82598W        W54127   3.461  26.745  12.591
82599W        W54128   7.768  39.817  11.089
82600W        W54129  36.868  10.078   1.817
82601W        W54130  42.026   0.435  10.965
82602W        W54131  22.021  37.553   1.510
82603W        W54132   6.379  24.330   4.086
82604W        W54133  26.780   1.772   1.145
82605W        W54134  34.966  35.087   0.744
82606W        W54135   2.071  14.708   0.463
82607W        W54136   4.260  31.390  14.468
82608W        W54137  20.213  31.957  11.533
82609W        W54138  34.040  18.280   0.854
82610W        W54139   4.806   4.515  13.052
82611W        W54140  42.943  22.463  12.160
82612W        W54141  35.749  27.753   4.171
82613W        W54142   8.326  25.438   4.218
82614W        W54143  22.082  15.771  10.941
82615W        W54144  17.203   1.998  13.580
82616W        W54145   9.700  23.081  12.865
82617W        W54146  29.579  33.283   0.430
82618W        W54147  29.466  42.919   1.731
82619W        W54148  35.125  22.642   1.398
82620W        W54149   1.260   5.216  10.390
82621W        W54150  23.956  30.135  13.060
82622W        W54151  37.650   5.680  13.122
82623W        W54152   4.419   8.871   2.114
82624W        W54153  30.756  23.664  11.223
82625W        W54154  19.241  39.249   0.258
82626W        W54155   3.173  27.651   0.306
82627W        W54156  28.596  36.860   1.231
82628W        W54157   6.835  22.660   0.670
82629W        W54158   5.791   5.848  14.800
82630W        W54159   6.889  43.875  11.741
82631W        W54160  30.654   2.799  13.933
82632W        W54161   2.337  35.156  10.694
82633W        W54162  35.318  30.528   4.660
82634W        W54163  34.773  18.608   3.279
82635W        W54164  24.560  44.436   0.121
82636W        W54165  15.826   5.142  11.511
82637W        W54166   0.814  35.150  11.671
82638W        W54167  32.211  33.360   0.788
82639W        W54168  44.867   2.306  11.962
82640W        W54169  17.023  34.112  11.043
82641W        W54170  28.695  32.446  11.114
82642W        W54171  35.699   6.077  14.237
82643W        W54172  33.270  40.383   0.613
82644W        W54173  33.170  43.244   0.564
82645W        W54174  13.175  28.909  14.372
82646W        W54175  19.066  38.901   1.432
82647W        W54176   4.120  40.351   0.660
82648W        W54177  12.629   8.090   3.306
82649W        W54178  43.644   3.566   2.760
82650W        W54179  32.892  13.562   3.173
82651W        W54180  11.688  38.380   4.635
82652W        W54181  19.609   7.880  12.830
82653W        W54182  12.312  28.679  14.834
82654W        W54183  28.884  11.151  13.441
82655W        W54184   5.417  13.321   3.410
82656W        W54185  20.712   1.712   4.682
82657W        W54186   3.195   2.518   1.764
82658W        W54187   3.200  36.346  12.470
82659W        W54188  25.956  40.894   2.294
82660W        W54189  43.049  36.188  10.807
82661W        W54190  36.466  12.845  13.514
82662W        W54191  41.120  18.802   2.361
82663W        W54192   7.806  36.642  11.881
82664W        W54193  24.315   4.506  11.186
82665W        W54194  26.120  14.536  12.058
82666W        W54195   3.441   4.178   0.419
82667W        W54196  28.704   1.237  13.077
82668W        W54197  12.183  40.337   4.354
82669W        W54198   4.725  19.450   0.415
82670W        W54199  20.296   5.847   1.019
82671W        W54200   3.953  40.839  14.506
82672W        W54201   6.538  37.272  11.111
82673W        W54202  14.258   9.824  10.745
82674W        W54203  32.468  42.913   0.472
82675W        W54204  22.905  18.953   2.855
82676W        W54205  19.343   0.974   2.196
82677W        W54206  10.789  17.693  11.688
82678W        W54207  10.765  42.526   1.831
82679W        W54208   7.490  44.415  14.849
82680W        W54209   7.673   9.325   0.369
82681W        W54210  11.553  15.193   2.201
82682W        W54211   7.125  37.262   4.183
82683W        W54212   0.908  24.594  14.447
82684W        W54213  31.949  22.313   0.929
82685W        W54214   7.915   1.555   0.956
82686W        W54215   0.784  26.032   4.806
82687W        W54216  34.562  12.663   2.603
82688W        W54217  43.950  25.459   3.131
82689W        W54218  35.606   1.989  14.343
82690W        W54219   8.332  36.962   2.888
82691W        W54220  31.419  36.691  11.506
82692W        W54221  18.780   3.256   2.774
82693W        W54222  19.805  12.209  11.819
82694W        W54223  36.529   7.541   0.313
82695W        W54224  39.448  22.174  13.619
82696W        W54225   2.371  44.265  11.057
82697W        W54226  38.001   5.121  11.643
82698W        W54227   2.019  15.389  13.311
82699W        W54228  18.398  24.248   3.616
82700W        W54229  19.598  13.837  10.826
82701W        W54230  39.040  15.302  11.246
82702W        W54231   0.544  34.801  14.431
82703W        W54232  33.624   6.370   2.384
82704W        W54233  12.790  10.727  11.532
82705W        W54234  39.801   0.398   2.700
82706W        W54235  44.566  18.798  11.052
82707W        W54236  13.741  15.189   4.615
82708W        W54237  23.226  11.978   0.872
82709W        W54238  38.641  34.677  12.418
82710W        W54239  29.790   3.253  12.480
82711W        W54240  22.006  23.648  14.739
82712W        W54241  37.090  43.985  12.065
82713W        W54242  43.795  41.635  13.077
82714W        W54243  40.093  11.780  14.067
82715W        W54244   2.311  20.527   4.317
82716W        W54245  15.234  13.635  12.857
82717W        W54246  21.185  21.145   0.629
82718W        W54247  17.335  16.073   3.650
82719W        W54248  29.682  42.889   3.022
82720W        W54249   0.674  27.678  11.236
82721W        W54250  22.137  28.905  14.430
82722W        W54251  11.162  25.785  12.116
82723W        W54252  43.479  29.021  14.427
82724W        W54253  24.437  29.429   0.795
82725W        W54254  13.136  25.568   0.823
82726W        W54255  33.478  38.424   2.294
82727W        W54256  13.102  39.526  11.612
82728W        W54257  37.276  33.948   1.117
82729W        W54258   6.831  29.026   3.791
82730W        W54259   4.669  18.580  12.684
82731W        W54260   3.180  19.562   4.538
82732W        W54261  23.069  20.515  10.681
82733W        W54262   4.432  22.502  11.171
82734W        W54263  26.859  28.567   3.821
82735W        W54264  42.335   8.667  12.719
82736W        W54265   3.584  29.183  11.709
82737W        W54266  30.181  12.147   5.135
82738W        W54267  16.888  12.344  14.781
82739W        W54268  31.074  12.315   0.875
82740W        W54269  39.346  21.643   3.823
82741W        W54270  44.874   0.334   3.580
82742W        W54271  13.032   0.778  11.575
82743W        W54272  37.451  44.712  13.958
82744W        W54273   1.349  11.287   0.223
82745W        W54274  30.081  36.154   2.237
82746W        W54275  14.269   0.403   3.844
82747W        W54276  17.893  38.799   4.645
82748W        W54277   4.245  19.752  13.958
82749W        W54278  38.468  32.928   0.270
82750W        W54279   7.960  33.798   2.740
82751W        W54280  37.886  25.736  10.633
82752W        W54281  24.421  42.763   0.513
82753W        W54282  39.123  33.544   2.446
82754W        W54283  17.227  34.889   0.433
82755W        W54284   2.375  40.027  11.117
82756W        W54285  35.989  12.729   0.296
82757W        W54286  23.535  26.210   0.744
82758W        W54287   4.677   7.383  14.396
82759W        W54288  22.220  16.861  11.790
82760W        W54289  30.386  29.935  14.945
82761W        W54290  27.996   1.770   3.276
82762W        W54291  13.371  29.563   3.601
82763W        W54292  14.378  44.385  13.059
82764W        W54293  13.793  18.761   4.375
82765W        W54294  40.098  12.534   0.447
82766W        W54295   0.205  28.459   0.922
82767W        W54296  39.092   3.886  11.975
82768W        W54297  12.894  44.358   3.965
82769W        W54298  24.352  16.184   4.627
82770W        W54299   8.451  10.707   4.040
82771W        W54300  24.159  34.660   4.154
82772W        W54301  15.544  20.140   0.206
82773W        W54302   9.079  39.075  11.175
82774W        W54303  44.201  18.697  13.364
82775W        W54304  26.031  31.082   1.163
82776W        W54305  28.152  42.049  11.245
82777W        W54306  28.550  27.647  11.168
82778W        W54307  36.442  37.669  12.554
82779W        W54308  18.596  30.654   3.675
82780W        W54309   7.183  15.566  12.917
82781W        W54310   2.475  24.376  11.372
82782W        W54311   6.850   4.418  14.268
82783W        W54312   8.163  42.547  11.531
82784W        W54313  23.161  42.019  14.400
82785W        W54314  29.502   7.306  13.005
82786W        W54315  24.755  36.395  14.852
82787W        W54316  33.258   2.920   1.365
82788W        W54317  15.018  38.812   0.477
82789W        W54318  36.037   3.288   2.676
82790W        W54319  20.793  31.649  11.404
82791W        W54320  43.000   2.426  13.025
82792W        W54321  17.148   5.697  10.753
82793W        W54322  44.257  19.768  13.959
82794W        W54323  42.957  33.535   0.497
82795W        W54324  22.130  13.831  12.826
82796W        W54325   4.733  18.692  13.701
82797W        W54326   7.453  42.924  14.721
82798W        W54327  11.410   6.847  13.589
82799W        W54328  38.105   0.863  11.110
82800W        W54329  33.119  42.203   2.679
82801W        W54330  10.710  24.373   1.860
82802W        W54331  10.457  11.209  11.935
82803W        W54332   3.880  17.586  11.897
82804W        W54333  31.815  16.502   1.033
82805W        W54334   9.758  12.666   4.274
82806W        W54335  14.822  27.990   1.299
82807W        W54336  44.543   6.015  11.862
82808W        W54337  44.192  18.159   2.283
82809W        W54338   4.971  10.235  12.891
82810W        W54339  21.488  20.745  14.942
82811W        W54340  11.431  19.920  13.929
82812W        W54341  38.616  19.607  13.788
82813W        W54342  31.346   9.838  11.213
82814W        W54343  41.946  40.888  14.229
82815W        W54344  27.430   5.808   3.108
82816W        W54345   9.463  12.346  14.900
82817W        W54346  43.799  43.822   1.119
82818W        W54347  15.311  28.729  11.684
82819W        W54348  31.343   3.313  14.310
82820W        W54349  19.408   5.530   3.181
82821W        W54350  11.872  32.115  10.615
82822W        W54351  32.850  35.685  12.137
82823W        W54352   9.791  12.317  12.939
82824W        W54353  13.217  40.482  10.217
82825W        W54354  44.814   6.584   4.283
82826W        W54355   1.315   2.944   2.609
82827W        W54356  21.609   3.032   3.682
82828W        W54357   8.934  16.819  13.427
82829W        W54358   3.340  14.844   0.881
82830W        W54359   4.216  29.746  11.665
82831W        W54360  18.011  42.693   1.466
82832W        W54361   9.764  20.946   4.536
82833W        W54362  11.255  43.593  13.089
82834W        W54363  41.515  13.918  12.417
82835W        W54364  32.772  12.659   4.429
82836W        W54365  35.027  17.862  12.564
82837W        W54366  20.121  17.645   0.862
82838W        W54367   8.133  31.785  13.388
82839W        W54368  15.324   5.132  10.805
82840W        W54369   3.233  39.917   1.476
82841W        W54370  10.737  40.104   3.791
82842W        W54371   8.069  19.699   5.073
82843W        W54372  16.173  42.426  14.442
82844W        W54373  37.531  14.817  13.386
82845W        W54374  18.733  44.467   4.609
82846W        W54375   8.965  14.337  14.056
82847W        W54376   2.398  33.926  11.337
82848W        W54377   5.932  32.937   4.222
82849W        W54378   5.266  15.218   3.662
82850W        W54379   4.001  41.015   0.867
82851W        W54380  20.802  10.669  12.010
82852W        W54381   4.938   8.587  13.453
82853W        W54382  11.114  18.105   2.425
82854W        W54383  33.599  16.536   3.587
82855W        W54384  19.938  27.984  13.081
82856W        W54385  32.142  14.360  12.043
82857W        W54386  21.041  43.676   3.690
82858W        W54387  18.805  31.435  12.077
82859W        W54388  39.030  29.693   1.805
82860W        W54389  13.911   6.885  11.283
82861W        W54390  31.415  40.842   1.686
82862W        W54391   6.995   2.442   1.326
82863W        W54392  22.122   0.399   4.773
82864W        W54393  38.968   9.292   0.044
82865W        W54394  42.635  22.659   1.763
82866W        W54395  43.910  27.744   1.693
82867W        W54396  40.902  32.934   0.819
82868W        W54397  29.606  23.475  14.316
82869W        W54398  32.157  22.964   3.783
82870W        W54399  15.848  35.022   5.121
82871W        W54400  26.993   4.374  11.477
82872W        W54401  37.003  20.493  12.532
82873W        W54402  35.980  14.236  14.417
82874W        W54403  33.538  33.389   0.393
82875W        W54404  27.201   4.247   2.662
82876W        W54405  10.727  31.084   2.848
82877W        W54406   6.116  20.486  10.950
82878W        W54407  25.416  18.984   0.822
82879W        W54408  18.194  10.259   0.216
82880W        W54409  36.133  28.139   1.247
82881W        W54410  40.499  25.126  10.392
82882W        W54411  39.590   0.501  12.954
82883W        W54412  14.134  41.709  13.473
82884W        W54413  27.063   6.563  13.410
82885W        W54414  10.130  14.238  11.959
82886W        W54415  25.264   6.221  13.337
82887W        W54416  42.346   0.986  11.633
82888W        W54417   2.035  38.061  13.990
82889W        W54418  32.124  33.636  12.908
82890W        W54419  15.577  38.195   3.696
82891W        W54420  10.077   2.274  13.542
82892W        W54421  43.073  15.053  12.010
82893W        W54422  21.094  42.495  14.421
82894W        W54423  30.171  38.061   4.691
82895W        W54424  42.990   6.296   4.187
82896W        W54425  40.565   3.138   3.761
82897W        W54426   6.126  33.870   1.706
82898W        W54427  13.346   6.119   2.754
82899W        W54428  42.760  33.096   2.205
82900W        W54429  17.924  26.927   5.057
82901W        W54430  34.725  12.209   4.275
82902W        W54431  20.526  40.999   0.188
82903W        W54432  42.655  17.468   3.056
82904W        W54433   8.974  37.348  13.517
82905W        W54434   0.726  12.860  13.486
82906W        W54435  25.303  38.474   1.033
82907W        W54436  21.717  41.773  10.758
82908W        W54437  38.837  37.404   2.342
82909W        W54438  16.351   6.279   4.906
82910W        W54439  36.525  13.653  12.014
82911W        W54440  27.988  15.856  12.558
82912W        W54441  17.848  38.923  10.604
82913W        W54442  15.385  44.976   2.060
82914W        W54443  38.755  25.550  12.037
82915W        W54444  33.287  41.718   3.376
82916W        W54445   1.393  19.295   2.654
82917W        W54446   3.139  40.032  12.915
82918W        W54447  24.083   2.223  12.962
82919W        W54448   5.952  29.614   4.928
82920W        W54449  21.505  24.918  11.257
82921W        W54450   9.377  10.434   0.044
82922W        W54451  27.217  40.266   1.350
82923W        W54452  31.467  31.462  14.430
82924W        W54453  17.059  32.980   3.202
82925W        W54454  34.820  32.000  12.568
82926W        W54455  32.635   5.847   3.286
82927W        W54456  28.990  19.895  13.304
82928W        W54457  12.672   9.881   3.716
82929W        W54458   3.290  22.358  11.475
82930W        W54459  26.709   0.558   4.133
82931W        W54460   5.066  36.247  10.051
82932W        W54461   9.533  26.275   2.184
82933W        W54462  10.266  12.157  14.409
82934W        W54463  40.979   4.309  12.159
82935W        W54464   0.004  12.569  10.571
82936W        W54465  31.485  11.162   1.645
82937W        W54466  26.637  22.922   1.114
82938W        W54467  16.660  23.385  11.087
82939W        W54468  17.411  33.761  11.104
82940W        W54469   9.684  42.039  13.444
82941W        W54470  20.734  26.176   1.438
82942W        W54471  27.624  23.201   1.423
82943W        W54472  42.053  38.379   0.192
82944W        W54473   3.389  44.274   3.104
82945W        W54474   4.667  22.593   5.096
82946W        W54475  34.902  15.779  11.339
82947W        W54476  42.590  36.521  14.417
82948W        W54477  31.414  26.989   3.158
82949W        W54478  22.428  30.040  10.692
82950W        W54479   2.508  33.895  12.590
82951W        W54480  31.939  19.922   5.269
82952W        W54481   7.613  30.619   3.577
82953W        W54482   4.700  13.726   0.340
82954W        W54483  31.914  41.742   1.937
82955W        W54484  10.471  34.040  13.722
82956W        W54485   8.917  18.577  11.498
82957W        W54486  28.143   9.106   3.840
82958W        W54487   2.914  11.105  13.579
82959W        W54488  12.922  11.639  11.081
82960W        W54489  40.633  40.450  14.572
82961W        W54490  29.585   8.287  10.506
82962W        W54491   9.642  10.815  14.837
82963W        W54492  41.017  30.979  11.153
82964W        W54493  38.929  44.857   4.039
82965W        W54494  17.065  23.657   3.418
82966W        W54495  27.674   1.097  13.973
82967W        W54496  19.583  15.413  12.382
82968W        W54497  11.610   1.904   0.194
82969W        W54498  38.993  43.137  11.496
82970W        W54499  40.419  43.885   3.840
82971W        W54500  23.244  11.892   3.636
82972W        W54501   8.646  43.089   3.254
82973W        W54502   3.676  10.701   4.216
82974W        W54503  15.232   9.600  14.473
82975W        W54504  30.354  14.219   1.229
82976W        W54505  14.095  26.449   3.636
82977W        W54506  40.220  28.859   0.758
82978W        W54507  21.738  12.500   3.300
82979W        W54508  22.227   3.355   0.681
82980W        W54509   8.376  28.678  12.951
82981W        W54510  33.314  39.779  14.879
82982W        W54511   8.058  33.110   1.997
82983W        W54512  16.614  15.316  10.552
82984W        W54513   8.314  13.794  14.913
82985W        W54514  10.068  23.009   1.751
82986W        W54515   8.370   0.520   4.118
82987W        W54516  30.003  32.116  10.809
82988W        W54517  10.204  36.993  10.715
82989W        W54518  30.494  24.611   3.095
82990W        W54519   2.854  39.102  12.524
82991W        W54520  39.945  42.269  13.071
82992W        W54521  37.803  36.466   4.153
82993W        W54522  29.102  23.235   1.276
82994W        W54523  39.495  33.519  14.523
82995W        W54524  17.286  10.367  12.808
82996W        W54525  33.521   8.736  12.988
82997W        W54526  12.610  42.211   1.496
82998W        W54527   8.177  13.899  11.946
82999W        W54528  44.239  27.670  12.524
83000W        W54529  11.189  15.622  12.388
83001W        W54530  18.370  37.283   2.324
83002W        W54531  14.145  37.300   1.294
83003W        W54532  39.681   0.337   0.242
83004W        W54533  28.036  10.474   2.748
83005W        W54534  23.563  12.376   0.761
83006W        W54535   3.816  18.559  13.813
83007W        W54536   8.656  20.815  14.382
83008W        W54537  43.028  34.095   4.126
83009W        W54538  42.662  16.675   2.079
83010W        W54539   1.473  18.204   2.259
83011W        W54540   4.061  43.237   1.335
83012W        W54541   0.409   7.781  12.104
83013W        W54542   4.346  41.290  11.864
83014W        W54543  24.542  34.856   3.237
83015W        W54544  41.919  18.029  13.179
83016W        W54545  25.919   3.236  14.310
83017W        W54546   3.859   4.464  14.431
83018W        W54547  29.326   2.189   1.180
83019W        W54548   5.861  15.551   1.220
83020W        W54549  33.924  12.820  10.643
83021W        W54550   8.185   6.413   1.989
83022W        W54551  11.133  41.326   2.732
83023W        W54552  21.396  43.525  11.103
83024W        W54553  31.375  11.194  14.312
83025W        W54554   0.686  43.328   0.239
83026W        W54555   8.211   3.385   2.981
83027W        W54556  29.153  33.477   0.629
83028W        W54557  31.991  21.524   0.301
83029W        W54558   8.639  30.128   2.305
83030W        W54559   7.344  12.988  11.170
83031W        W54560  24.934  23.131   3.134
83032W        W54561  14.662  41.298  14.299
83033W        W54562  26.948  36.161  11.608
83034W        W54563   0.248  27.868  11.632
83035W        W54564  13.747  35.762   0.213
83036W        W54565   5.170  20.550  14.729
83037W        W54566  38.390  26.428  13.907
83038W        W54567  42.648  32.110  14.374
83039W        W54568  28.497  26.398   3.689
83040W        W54569  14.683  12.113  14.309
83041W        W54570   1.837  39.774   4.939
83042W        W54571  26.095   0.199  13.946
83043W        W54572  20.704  36.140  11.721
83044W        W54573   2.632  23.376   4.116
83045W        W54574  18.963  39.054   2.436
83046W        W54575  21.198  15.072  14.497
83047W        W54576  43.019  10.353  14.791
83048W        W54577  19.264  39.768   4.069
83049W        W54578  32.893   1.763  12.401
83050W        W54579  26.562   4.278  14.202
83051W        W54580  18.053  40.376  14.417
83052W        W54581  13.550  12.765  12.995
83053W        W54582  42.409  16.113   2.410
83054W        W54583  36.037  38.081  14.446
83055W        W54584  28.045  23.332  13.005
83056W        W54585  20.088  22.408  13.357
83057W        W54586   1.347  35.314   2.296
83058W        W54587  34.607  10.213  12.550
83059W        W54588  24.745  15.609  14.811
83060W        W54589  14.457  31.863  11.149
83061W        W54590  33.983  26.041  12.951
83062W        W54591   2.257  20.970   4.027
83063W        W54592  18.728   7.810   0.817
83064W        W54593  36.410  11.236  10.633
83065W        W54594  14.342  19.635  13.945
83066W        W54595  14.931  35.000  11.212
83067W        W54596  39.752  37.404  12.179
83068W        W54597   5.479  23.114   2.211
83069W        W54598   8.241   4.000  10.679
83070W        W54599  12.885  34.514  14.392
83071W        W54600  14.787  42.885   0.724
83072W        W54601  26.668  38.152  11.200
83073W        W54602  21.488   4.510   2.261
83074W        W54603  39.050  33.449   4.600
83075W        W54604  28.208  43.267  12.959
83076W        W54605  30.001  42.777   4.242
83077W        W54606  41.395  18.000   2.907
83078W        W54607  24.587  22.501  11.672
83079W        W54608  26.845  11.435   1.744
83080W        W54609  40.160  20.832  10.953
83081W        W54610  34.625   8.287  11.822
83082W        W54611  24.743  19.146   3.742
83083W        W54612  25.265  40.270   4.710
83084W        W54613  34.149  23.524   4.362
83085W        W54614   2.262  22.105   2.726
83086W        W54615  37.784  42.861  13.150
83087W        W54616  21.968  34.843  13.892
83088W        W54617   8.933  37.618   3.877
83089W        W54618  35.107  33.079   3.813
83090W        W54619   0.534  26.224   3.263
83091W        W54620  10.135  13.118  11.980
83092W        W54621  11.179  16.689   0.941
83093W        W54622   8.827  41.504   4.713
83094W        W54623  15.658  32.376   0.950
83095W        W54624  36.555   6.966  13.324
83096W        W54625   3.422  40.422   3.845
83097W        W54626  40.970  28.942  13.941
83098W        W54627  14.818  38.667   4.052
83099W        W54628  11.364   3.373  14.134
83100W        W54629  16.378  27.007   2.868
83101W        W54630  27.002   9.702  12.185
83102W        W54631   4.484  41.307  14.001
83103W        W54632  13.925  29.514   3.647
83104W        W54633  18.658  33.063  10.694
83105W        W54634  11.323  40.055   0.916
83106W        W54635  39.718   8.242  10.564
83107W        W54636  27.410   9.166   0.893
83108W        W54637   6.732  24.963  12.940
83109W        W54638  33.391  16.576  11.960
83110W        W54639  36.371  38.337   3.105
83111W        W54640  21.802  14.542   4.382
83112W        W54641  23.305  10.439  11.393
83113W        W54642  15.762  44.198   4.049
83114W        W54643  16.839  43.622   2.899
83115W        W54644   7.742  18.473  12.489
83116W        W54645  43.051  25.522   3.188
83117W        W54646  30.118  36.369  12.947
83118W        W54647  28.643  13.300  12.407
83119W        W54648   4.221  24.269  11.653
83120W        W54649  35.654   3.712   3.409
83121W        W54650   2.487  29.285  12.843
83122W        W54651  36.387  31.142  14.228
83123W        W54652  15.752   6.300  12.466
83124W        W54653   2.311  16.622  10.485
83125W        W54654  35.553  31.369   2.368
83126W        W54655  23.068  31.667   9.821
83127W        W54656  36.468  44.679  11.187
83128W        W54657  12.673  37.598  12.086
83129W        W54658  23.634  19.753   4.097
83130W        W54659   8.657  41.382  13.023
83131W        W54660  19.516  25.539  12.580
83132W        W54661  28.709   2.912  11.247
83133W        W54662  12.910  20.995  14.496
83134W        W54663  22.311  36.685   1.275
83135W        W54664  25.382  37.539   0.100
83136W        W54665   2.620  20.339  12.878
83137W        W54666  11.347   5.348  12.387
83138W        W54667  42.278  39.910   0.780
83139W        W54668  26.752  21.579  12.502
83140W        W54669  12.603  14.753  12.046
83141W        W54670  43.603  39.645  14.882
83142W        W54671  29.903  12.709   1.823
83143W        W54672  36.884  31.019  10.656
83144W        W54673  10.802  28.039   1.708
83145W        W54674   0.399  17.689  13.098
83146W        W54675  22.607  15.980  14.546
83147W        W54676   6.543  11.503   4.088
83148W        W54677   4.805   5.954   0.303
83149W        W54678  12.732  37.797  14.925
83150W        W54679  41.378  18.701  13.586
83151W        W54680  24.497  27.054  10.404
83152W        W54681  40.441  32.343   4.743
83153W        W54682  42.477  43.192  10.036
83154W        W54683  32.151   9.690  13.615
83155W        W54684  18.156  15.855  11.257
83156W        W54685   5.300  12.634   0.724
83157W        W54686  41.972  18.766   4.521
83158W        W54687   0.530   4.259  11.872
83159W        W54688   6.894  42.037   0.424
83160W        W54689  17.242   7.935   2.770
83161W        W54690  28.685   5.225   3.140
83162W        W54691   9.769  30.997  11.916
83163W        W54692  10.286  42.854  14.499
83164W        W54693  36.130  25.223   0.623
83165W        W54694  32.261  14.043  14.487
83166W        W54695  13.984  10.104  13.357
83167W        W54696  36.510   6.846  11.131
83168W        W54697  12.187  13.815  12.024
83169W        W54698   2.755  44.994   4.387
83170W        W54699  35.393   9.771   1.695
83171W        W54700   1.411  19.531   1.388
83172W        W54701  28.870  25.448  11.613
83173W        W54702  29.043   7.618  11.081
83174W        W54703  44.982   1.103  11.970
83175W        W54704  34.511  19.822  14.436
83176W        W54705  20.609   5.660   3.560
83177W        W54706  14.598  43.354  14.303
83178W        W54707  19.086   0.265  13.561
83179W        W54708   9.630  31.059  11.428
83180W        W54709  41.996  33.813  13.585
83181W        W54710  21.977  44.936  14.882
83182W        W54711  41.418   5.591   3.198
83183W        W54712  37.130   1.256   3.688
83184W        W54713  22.257  21.541   0.605
83185W        W54714  35.494   3.895  14.296
83186W        W54715  40.389  13.763   3.982
83187W        W54716  17.445  40.735   4.243
83188W        W54717  37.979  24.427  13.798
83189W        W54718  14.497   6.403   0.422
83190W        W54719  32.383  42.759   4.851
83191W        W54720  16.092  26.098   2.996
83192W        W54721  36.534   4.363   4.245
83193W        W54722  34.047   5.244   0.707
83194W        W54723  31.815  37.314  13.167
83195W        W54724  24.578  29.099   2.909
83196W        W54725  28.407   8.119  13.117
83197W        W54726  10.734  26.978   3.636
83198W        W54727  26.548   9.685   0.785
83199W        W54728  16.019  26.593   3.130
83200W        W54729   5.947   5.836  12.143
83201W        W54730  14.785  42.578   1.743
83202W        W54731  15.754  11.385   2.359
83203W        W54732  29.899  43.666   0.242
83204W        W54733  36.792  29.387  12.497
83205W        W54734  12.731  28.531   3.809
83206W        W54735  28.869  16.590  13.202
83207W        W54736  19.818  13.797   1.446
83208W        W54737  23.408  28.436   3.158
83209W        W54738  40.452   1.256  11.209
83210W        W54739  38.103  28.754  13.290
83211W        W54740  36.386  31.184   4.088
83212W        W54741  12.433   8.578  14.957
83213W        W54742  41.495  39.947  13.393
83214W        W54743  18.961  20.218  11.587
83215W        W54744  43.005  44.432   4.519
83216W        W54745  21.986  23.133   0.429
83217W        W54746  24.158  36.703  13.937
83218W        W54747  37.487  30.111  14.090
83219W        W54748   9.877  43.939   3.114
83220W        W54749   8.577   5.736  10.712
83221W        W54750  15.717  22.150  11.135
83222W        W54751  32.882  39.548   3.356
83223W        W54752  14.689  16.702  10.459
83224W        W54753  17.694  12.900   3.802
83225W        W54754  16.875   8.416   0.263
83226W        W54755  19.104  30.564   3.622
83227W        W54756   6.158  13.072   2.805
83228W        W54757  19.970  14.829  10.876
83229W        W54758  31.527  24.236   1.767
83230W        W54759   1.323  17.343  13.895
83231W        W54760  13.268   2.966  14.203
83232W        W54761  40.445  22.947   1.230
83233W        W54762  36.550  20.676  12.362
83234W        W54763  24.048  28.139   4.619
83235W        W54764  34.132  20.994  12.818
83236W        W54765  39.991   3.338   5.167
83237W        W54766  10.080   7.327   2.955
83238W        W54767  10.194  20.289  14.437
83239W        W54768  42.298  17.673  11.998
83240W        W54769   1.775  17.186   0.517
83241W        W54770   3.647  44.250  13.365
83242W        W54771  37.818  30.525  13.986
83243W        W54772  16.883   8.703   4.027
83244W        W54773  30.045  40.501   0.144
83245W        W54774  13.027   9.398   3.257
83246W        W54775  30.603  33.933   2.617
83247W        W54776  27.310  23.452   1.115
83248W        W54777   8.420   0.196   3.282
83249W        W54778  33.574  19.687  14.608
83250W        W54779  15.741  12.351   1.036
83251W        W54780  43.453   9.690  12.541
83252W        W54781   4.750  40.868   1.720
83253W        W54782  12.808  15.253  13.006
83254W        W54783  32.198  42.988   3.589
83255W        W54784  12.547  29.083   0.578
83256W        W54785   8.665  22.524   1.000
83257W        W54786   6.838  42.001  12.388
83258W        W54787  20.526   1.667  13.888
83259W        W54788   9.636   2.387   1.811
83260W        W54789  19.814  31.077   3.906
83261W        W54790  32.919  15.201  10.391
83262W        W54791  23.496  10.758  10.990
83263W        W54792  17.190   2.036  11.239
83264W        W54793  23.278   9.806  12.140
83265W        W54794  27.206  38.038   2.873
83266W        W54795  15.130   5.945  12.846
83267W        W54796  22.629  27.564   0.214
83268W        W54797  31.037  21.819  12.429
83269W        W54798  44.541  28.596   3.323
83270W        W54799   8.283  41.792   0.346
83271W        W54800   1.472  11.787   2.435
83272W        W54801   1.928  19.781  11.151
83273W        W54802  26.753  33.140   0.769
83274W        W54803  24.938  12.362   1.340
83275W        W54804   6.162  43.748   4.623
83276W        W54805  33.832  13.056   0.554
83277W        W54806  28.598  13.079  12.853
83278W        W54807  23.949  12.753  14.883
83279W        W54808  44.497  18.640  12.935
83280W        W54809  33.357  44.004   0.267
83281W        W54810  20.313   5.947  10.356
83282W        W54811  18.850  18.247   4.387
83283W        W54812  11.067  23.582  14.264
83284W        W54813  17.659  28.468   0.288
83285W        W54814  44.154   2.039  10.110
83286W        W54815  31.352   2.254  11.664
83287W        W54816  32.972  41.943   0.293
83288W        W54817  36.960  21.315   4.099
83289W        W54818  15.676   4.918   4.233
83290W        W54819  32.789  27.471  10.594
83291W        W54820   8.446  16.484  12.418
83292W        W54821  22.615  12.015   1.249
83293W        W54822  18.729  15.773  12.083
83294W        W54823  21.503  43.757   0.680
83295W        W54824   9.112   0.207  11.485
83296W        W54825  35.739  16.210   1.722
83297W        W54826  13.785  29.431   4.480
83298W        W54827  30.644  35.172   0.042
83299W        W54828   9.366  22.639  14.933
83300W        W54829  20.200  34.686  10.062
83301W        W54830  43.839   5.933   4.224
83302W        W54831  10.282  23.606  11.019
83303W        W54832  37.546   7.742   1.645
83304W        W54833  40.777   1.883  14.708
83305W        W54834  25.204   7.466  12.011
83306W        W54835  32.129  28.648  14.315
83307W        W54836  17.250  29.454   4.076
83308W        W54837  24.114  37.538   3.669
83309W        W54838  38.300  40.153  12.108
83310W        W54839  21.002  18.105   0.994
83311W        W54840  38.954  29.177  14.977
83312W        W54841   0.364  33.882   1.548
83313W        W54842  21.692  17.299  13.524
83314W        W54843  16.708  18.852   2.169
83315W        W54844  40.810  31.672   0.504
83316W        W54845  12.556  24.588   1.404
83317W        W54846  34.928  10.391   3.178
83318W        W54847  25.646  21.736  13.556
83319W        W54848  37.931   4.039  12.431
83320W        W54849   9.146   2.128   4.349
83321W        W54850  27.081  11.032   3.360
83322W        W54851   7.933   4.491  14.121
83323W        W54852  28.536  29.875   2.750
83324W        W54853  44.299  31.071  14.277
83325W        W54854  32.577  36.478  13.953
83326W        W54855   4.195  20.956   1.847
83327W        W54856  31.191  12.847   2.741
83328W        W54857  14.396  32.522  11.655
83329W        W54858  32.450  38.564  11.467
83330W        W54859  12.333  29.448  12.985
83331W        W54860  36.426  18.590   4.401
83332W        W54861  28.699  35.427  10.851
83333W        W54862  30.090  11.375  14.739
83334W        W54863  34.907  38.332  14.912
83335W        W54864  31.155  14.208   2.425
83336W        W54865  41.515  33.468   0.704
83337W        W54866   8.595  44.222   3.727
83338W        W54867  43.504  19.845   2.871
83339W        W54868  22.843  19.628  14.969
83340W        W54869   3.642   8.909   0.972
83341W        W54870  32.100   2.095   1.297
83342W        W54871  42.790  41.335  12.346
83343W        W54872  20.694  27.604   2.437
83344W        W54873  16.125  39.036   0.518
83345W        W54874  42.672  17.599   0.666
83346W        W54875  42.941  41.604  11.201
83347W        W54876  25.980  35.945  11.991
83348W        W54877  27.514  38.238   3.774
83349W        W54878  15.644   9.883  13.749
83350W        W54879  34.616  31.577  13.431
83351W        W54880   8.872  34.413  14.263
83352W        W54881  23.447  17.878   3.666
83353W        W54882  36.052  38.779  12.031
83354W        W54883  34.790  16.323   2.193
83355W        W54884   9.936  14.691  12.936
83356W        W54885  42.263  16.262  14.064
83357W        W54886   6.632   3.190   2.771
83358W        W54887   3.766  17.798   2.654
83359W        W54888  32.883  33.525   3.714
83360W        W54889  40.326  22.623  12.475
83361W        W54890  37.870   5.753   2.150
83362W        W54891  35.461   9.352  12.174
83363W        W54892  33.661  25.038   3.980
83364W        W54893   7.320   1.452   1.552
83365W        W54894   3.171  15.861   4.136
83366W        W54895   9.001   3.169  12.005
83367W        W54896  43.407   3.694  11.578
83368W        W54897   2.739  16.647   4.534
83369W        W54898  14.136  25.963   4.787
83370W        W54899  13.515  40.872  12.066
83371W        W54900   8.052  15.887   2.363
83372W        W54901  43.320  31.063  12.250
83373W        W54902  36.026  29.040   2.616
83374W        W54903  19.230  19.325  10.286
83375W        W54904   2.985  28.050  12.944
83376W        W54905  13.575  42.238  13.954
83377W        W54906  28.931   5.137  11.255
83378W        W54907  24.084  21.498   4.864
83379W        W54908  20.074  42.028   1.376
83380W        W54909  44.720  33.068  10.800
83381W        W54910  31.125  29.657  12.968
83382W        W54911   7.723  13.094  13.917
83383W        W54912  34.786  10.737   0.405
83384W        W54913   7.632  44.572   2.780
83385W        W54914  36.526  22.266   2.371
83386W        W54915   8.032  15.557  13.962
83387W        W54916  10.163  11.884   4.072
83388W        W54917   5.048  36.758  14.989
83389W        W54918  26.392  40.880   2.620
83390W        W54919  18.251   5.200   1.431
83391W        W54920  20.585   7.149   3.704
83392W        W54921   8.590  41.809  13.401
83393W        W54922  41.135  11.780   2.799
83394W        W54923  40.333  12.953   0.966
83395W        W54924   0.006  18.592  12.848
83396W        W54925  33.056  22.088   3.259
83397W        W54926  44.008  15.736   4.707
83398W        W54927   1.404  35.250   4.462
83399W        W54928  15.426   2.789   4.949
83400W        W54929   1.181  29.631   0.657
83401W        W54930   2.809  35.091  14.143
83402W        W54931  32.931  22.808  13.401
83403W        W54932  25.047  34.044  12.636
83404W        W54933  37.517   4.165   4.170
83405W        W54934  35.956   5.871   4.769
83406W        W54935   3.502  43.237   5.058
83407W        W54936  25.581  10.918  13.473
83408W        W54937  36.415  41.427  12.822
83409W        W54938  19.010  25.112   4.597
83410W        W54939  10.613   2.100  14.973
83411W        W54940  16.983   2.848   2.766
83412W        W54941   7.165   5.879  13.571
83413W        W54942   3.855   2.516   1.245
83414W        W54943  14.238   5.690  14.960
83415W        W54944  30.664  22.157   0.765
83416W        W54945  25.646   2.862  10.730
83417W        W54946  15.754   7.511  13.318
83418W        W54947   9.282  32.239  10.367
83419W        W54948   6.287   0.939   0.766
83420W        W54949  24.259  12.246   4.121
83421W        W54950  31.015   6.250   2.756
83422W        W54951  40.700  10.732   1.386
83423W        W54952  36.213  40.399   0.744
83424W        W54953  25.936  42.069  10.779
83425W        W54954  19.449  12.011   4.501
83426W        W54955   7.683  26.692   2.332
83427W        W54956   8.322  43.081  12.775
83428W        W54957  29.685  36.546   2.342
83429W        W54958  25.671  30.066   2.637
83430W        W54959   7.492  25.099  10.345
83431W        W54960  31.393   8.689  14.280
83432W        W54961  26.674  11.244   3.551
83433W        W54962  30.504  12.372  12.917
83434W        W54963  15.291  38.525  13.090
83435W        W54964  32.481  31.441  12.193
83436W        W54965  27.016  25.570   1.016
83437W        W54966   2.790  35.072  13.128
83438W        W54967  16.657  31.610   0.294
83439W        W54968   1.520  44.003  11.550
83440W        W54969  14.636  41.298   2.351
83441W        W54970  38.378   6.818   3.259
83442W        W54971  30.554  30.407   2.358
83443W        W54972  38.117  18.723  11.229
83444W        W54973  38.767  26.935   2.726
83445W        W54974   6.061   6.471   2.162
83446W        W54975  25.324  23.028  10.692
83447W        W54976   8.996  30.466   3.193
83448W        W54977  39.776  28.904   2.392
83449W        W54978  30.182  44.563   3.694
83450W        W54979  19.050  12.941   2.747
83451W        W54980   0.889   8.758  10.893
83452W        W54981  29.683  34.802  10.974
83453W        W54982   3.512  28.427  13.748
83454W        W54983  34.969  42.714  14.337
83455W        W54984  42.012  23.693   4.343
83456W        W54985  11.340  20.461  13.982
83457W        W54986  36.221  21.146   2.276
83458W        W54987  22.637  14.553  11.413
83459W        W54988  31.527  36.882  13.118
83460W        W54989  39.781   5.763  11.497
83461W        W54990  39.059  11.803   4.816
83462W        W54991  24.440   0.470   3.263
83463W        W54992  34.498  34.036  10.902
83464W        W54993   2.344  17.635   2.753
83465W        W54994  18.185   6.476  11.669
83466W        W54995  42.261  42.038   2.402
83467W        W54996  29.115  28.094  10.765
83468W        W54997  32.138  39.392  11.617
83469W        W54998   9.669  38.030   2.276
83470W        W54999  38.513  15.492  14.232
83471W        W55000   4.499   8.310   4.946
83472W        W55001   4.300  29.639  11.175
83473W        W55002  12.159  22.640   3.738
83474W        W55003  11.704   1.233   3.302
83475W        W55004  21.916  32.105  14.741
83476W        W55005  11.342  32.526   4.952
83477W        W55006  24.557  22.704  10.801
83478W        W55007  23.739  30.460   1.758
83479W        W55008  14.936  13.333  13.390
83480W        W55009  23.099  26.698  12.663
83481W        W55010  32.297  27.343   5.073
83482W        W55011  33.909  27.648   2.380
83483W        W55012   4.004  25.219   5.081
83484W        W55013   2.351  30.048   3.874
83485W        W55014  36.469  19.331   0.393
83486W        W55015  36.824  18.652   1.019
83487W        W55016  30.083  24.085  11.918
83488W        W55017  19.537   9.154   2.175
83489W        W55018  29.904  19.476  14.033
83490W        W55019  19.493  16.030   3.290
83491W        W55020  16.116  12.654  13.570
83492W        W55021   1.509  33.064   0.782
83493W        W55022  28.377   9.262   3.310
83494W        W55023  30.844  42.510   3.639
83495W        W55024  13.302  33.538  10.923
83496W        W55025  32.719  18.367   1.994
83497W        W55026  18.188  21.643   5.504
83498W        W55027  30.614  24.999  13.115
83499W        W55028   9.909  25.730  14.500
83500W        W55029  20.541   9.781   4.082
83501W        W55030  11.618  40.415   2.202
83502W        W55031  40.773  14.925  14.374
83503W        W55032  39.152  22.447   1.743
83504W        W55033  28.994  20.279  10.677
83505W        W55034  13.111  17.080   2.589
83506W        W55035  38.792   1.757  11.281
83507W        W55036  24.908  23.055   4.502
83508W        W55037  26.087  31.478  10.884
83509W        W55038  22.044  18.865   0.839
83510W        W55039   1.400  33.860  14.386
83511W        W55040  28.762   0.229  14.495
83512W        W55041  41.082  16.459  13.340
83513W        W55042  40.776  18.837   1.275
83514W        W55043  26.495  31.951   2.289
83515W        W55044  14.348  28.113   2.269
83516W        W55045  19.486  11.163  12.654
83517W        W55046  35.561  17.830   0.288
83518W        W55047  15.153  40.729  13.476
83519W        W55048  17.161  16.790   2.912
83520W        W55049  33.652  15.639   3.210
83521W        W55050  18.490   0.478   0.425
83522W        W55051  24.814  14.729   3.677
83523W        W55052  38.074  26.520   2.214
83524W        W55053   6.077  27.687   0.657
83525W        W55054  22.857  11.603   0.854
83526W        W55055  37.424  10.386   1.301
83527W        W55056  13.582  43.035  12.451
83528W        W55057  34.291  44.771  11.632
83529W        W55058   9.852   3.680   2.689
83530W        W55059  30.698   6.733  12.329
83531W        W55060   9.397   4.154  11.101
83532W        W55061   4.238  34.453  11.757
83533W        W55062  24.654   5.311   3.369
83534W        W55063  20.972  26.192   2.286
83535W        W55064  25.301  23.730  14.341
83536W        W55065  26.996   4.709   4.798
83537W        W55066  21.169   7.947  14.367
83538W        W55067   3.645  28.690  11.165
83539W        W55068  22.104  31.136   4.585
83540W        W55069  16.073  14.101   5.051
83541W        W55070  43.797  37.005   0.845
83542W        W55071  17.142  20.175  13.476
83543W        W55072  42.997  21.656   0.272
83544W        W55073  25.554   9.188  14.960
83545W        W55074  31.735  29.182  12.542
83546W        W55075  22.210  27.621   2.168
83547W        W55076  15.159  24.984   4.478
83548W        W55077  15.594  14.291   3.629
83549W        W55078  28.440   9.414   2.365
83550W        W55079  34.146   0.099   2.357
83551W        W55080   2.506  26.183   1.170
83552W        W55081  11.060  41.772   3.498
83553W        W55082  10.738  13.608   4.220
83554W        W55083  12.664  27.133   1.379
83555W        W55084  21.538   8.645  12.941
83556W        W55085  41.721  33.987  12.470
83557W        W55086  42.299  42.937  13.996
83558W        W55087  17.066  28.137  12.449
83559W        W55088  39.504  12.228   0.339
83560W        W55089  32.377  30.341   4.998
83561W        W55090  11.424  12.863   3.138
83562W        W55091  10.122  33.064  13.868
83563W        W55092  25.057   1.250  13.471
83564W        W55093  15.051  18.558   3.058
83565W        W55094  19.363  23.673   4.102
83566W        W55095   8.297  23.189  10.517
83567W        W55096   3.719  34.015  14.022
83568W        W55097  41.417   9.175  12.599
83569W        W55098   0.715  33.420  14.934
83570W        W55099  34.223  19.758  14.001
83571W        W55100   9.566  32.659   2.684
83572W        W55101  12.880  12.020  12.059
83573W        W55102  42.272  22.415   2.070
83574W        W55103   3.051  32.059  13.990
83575W        W55104  30.488  13.880   1.865
83576W        W55105  13.124  14.104   0.960
83577W        W55106  38.309  31.655  11.589
83578W        W55107  24.081  11.120   1.325
83579W        W55108  23.525   2.695   3.069
83580W        W55109  11.647   3.896   2.159
83581W        W55110   3.205  28.696  13.021
83582W        W55111   9.610  25.734   0.404
83583W        W55112  32.039  29.580   3.169
83584W        W55113  40.763  37.910   0.878
83585W        W55114  12.953  16.148   0.793
83586W        W55115  40.670   1.762   2.153
83587W        W55116  21.918  40.368  12.293
83588W        W55117  30.939  20.762   4.096
83589W        W55118  36.632  42.427  12.501
83590W        W55119  19.624  11.575  14.430
83591W        W55120  36.189   9.148   2.691
83592W        W55121  39.187  28.212   2.363
83593W        W55122  25.480   8.231   0.464
83594W        W55123   7.819   2.913   2.379
83595W        W55124   8.256  35.584   3.774
83596W        W55125   2.447  27.650  13.776
83597W        W55126   1.804  32.636   3.339
83598W        W55127   0.895   2.490  12.562
83599W        W55128  22.637  40.836   4.033
83600W        W55129   0.791  42.537  10.528
83601W        W55130  33.577  23.050  14.818
83602W        W55131  38.802  13.188   4.702
83603W        W55132  32.528  42.796  14.969
83604W        W55133   1.154  41.189  11.164
83605W        W55134  37.908  22.601   2.347
83606W        W55135  28.554  28.993   0.094
83607W        W55136  20.510  41.847   1.803
83608W        W55137  25.623   4.990   3.544
83609W        W55138   9.215  22.074   3.849
83610W        W55139  11.990   1.283   5.426
83611W        W55140   0.112   9.290  13.740
83612W        W55141  20.215  27.532  13.057
83613W        W55142  41.988   0.815   0.385
83614W        W55143  12.158   6.859   0.837
83615W        W55144  33.262  42.523  13.847
83616W        W55145  15.669  39.310  11.225
83617W        W55146  10.804   4.786   0.725
83618W        W55147  21.076   4.954   3.259
83619W        W55148  12.658  23.297  13.946
83620W        W55149   0.969  21.855   4.990
83621W        W55150  31.944  27.238   2.287
83622W        W55151  43.786   6.197  10.623
83623W        W55152  28.030  38.367   0.407
83624W        W55153  30.308  33.297  13.406
83625W        W55154  33.455  34.425  14.126
83626W        W55155  32.919   9.701   4.049
83627W        W55156  32.244  41.800   0.885
83628W        W55157  24.447  44.997  14.436
83629W        W55158  40.353  13.399   2.470
83630W        W55159  33.077  29.986   4.589
83631W        W55160   3.725   9.034  10.821
83632W        W55161   0.472   5.384  14.349
83633W        W55162  19.676  31.187   2.648
83634W        W55163  29.648  11.475   4.300
83635W        W55164  18.634  23.301   4.328
83636W        W55165   1.319  21.601   1.303
83637W        W55166  20.482  11.661  12.897
83638W        W55167  39.013  10.853   3.675
83639W        W55168   2.952  21.848  10.406
83640W        W55169  36.429  14.253   1.483
83641W        W55170   8.017  32.525   4.777
83642W        W55171   4.930   0.097   3.785
83643W        W55172   7.472   3.775   0.923
83644W        W55173  38.681  36.468  12.161
83645W        W55174  26.746   7.277  13.805
83646W        W55175  32.301  21.637  12.017
83647W        W55176  42.067  22.122   1.409
83648W        W55177  15.483  44.779  11.146
83649W        W55178  14.259   6.908   4.834
83650W        W55179   9.852   8.524   2.875
83651W        W55180  43.692   3.857  11.981
83652W        W55181  44.917   0.933   4.282
83653W        W55182   7.867  24.418   1.266
83654W        W55183  41.795  32.020  11.877
83655W        W55184  43.876   3.373  12.408
83656W        W55185  16.117  24.152  13.451
83657W        W55186   5.693  25.691  13.568
83658W        W55187  24.596  25.152  12.805
83659W        W55188  26.468  23.394  12.476
83660W        W55189  42.859  39.773   0.335
83661W        W55190   5.947  26.448  14.392
83662W        W55191   9.092  34.895  14.338
83663W        W55192  41.389  41.622   1.863
83664W        W55193   7.230   4.446   4.489
83665W        W55194  30.770   7.190  13.877
83666W        W55195  15.412  43.027  13.532
83667W        W55196   7.958  10.797  12.395
83668W        W55197  10.277   6.891   2.759
83669W        W55198  24.285  16.174   0.500
83670W        W55199  21.176  36.632  14.026
83671W        W55200   8.919  40.467  14.536
83672W        W55201  19.210  41.262  10.731
83673W        W55202  35.388  35.343  14.981
83674W        W55203  16.335   9.432  12.514
83675W        W55204  26.584   9.671  10.915
83676W        W55205   1.894  16.405  13.363
83677W        W55206  14.054  38.965   0.257
83678W        W55207   5.397   6.427  11.189
83679W        W55208   5.941  23.779  12.750
83680W        W55209  20.476   6.249  14.548
83681W        W55210  43.526  11.544   3.149
83682W        W55211   0.309  27.568  13.213
83683W        W55212  15.360   4.552  12.038
83684W        W55213   9.448  32.854   4.406
83685W        W55214   4.343  44.557   0.784
83686W        W55215  42.341  31.413   1.937
83687W        W55216  42.399   5.661   2.275
83688W        W55217  39.406  26.873   0.355
83689W        W55218  32.915  22.970  12.854
83690W        W55219  16.594  15.222  13.396
83691W        W55220  29.454  28.011  11.164
83692W        W55221   5.535  19.994   0.820
83693W        W55222  40.308   8.258  14.407
83694W        W55223  44.501  43.826  14.534
83695W        W55224  32.482  27.233  10.253
83696W        W55225  13.503  27.605  14.669
83697W        W55226  40.346  23.289  13.064
83698W        W55227  31.428  11.084  11.704
83699W        W55228  24.582  26.247   0.484
83700W        W55229  17.789   2.246   4.570
83701W        W55230  10.293   4.364   0.604
83702W        W55231  19.131  35.510  14.338
83703W        W55232  44.897   2.803   4.452
83704W        W55233  12.793  38.575  12.473
83705W        W55234  31.960   1.242  12.389
83706W        W55235  29.038  12.377  12.891
83707W        W55236  33.433   2.937   2.275
83708W        W55237   9.220  11.181   2.249
83709W        W55238  28.830   6.330   0.237
83710W        W55239   8.366  33.866  12.465
83711W        W55240  25.277  14.891  12.426
83712W        W55241  29.836  40.345  14.658
83713W        W55242   3.847  12.136  12.002
83714W        W55243  34.895  26.670   2.928
83715W        W55244  42.788  24.683   4.404
83716W        W55245  16.023  36.138  11.793
83717W        W55246   9.729  14.275   5.184
83718W        W55247  25.038  33.139  11.128
83719W        W55248  32.480  13.066   0.333
83720W        W55249  33.822   0.562   3.666
83721W        W55250  30.307  24.748  13.463
83722W        W55251  18.037  42.981  13.946
83723W        W55252  42.317   3.843   2.618
83724W        W55253  12.815  37.786  13.550
83725W        W55254  42.045   0.390  12.733
83726W        W55255   0.240   2.260   0.920
83727W        W55256  36.867  27.703  14.892
83728W        W55257  28.603  30.709   4.276
83729W        W55258  10.318   9.181  11.588
83730W        W55259   4.338  13.802  12.587
83731W        W55260  28.495  12.847   2.647
83732W        W55261  29.843  40.307  13.400
83733W        W55262  35.002  26.573   1.954
83734W        W55263  22.486  11.752  11.020
83735W        W55264  42.063  22.343   0.930
83736W        W55265  40.542  34.310  13.447
83737W        W55266   0.661  16.535   4.210
83738W        W55267  26.599  28.271  13.886
83739W        W55268  20.837  27.066   1.232
83740W        W55269   0.759   3.248   1.497
83741W        W55270  28.060  23.714   4.290
83742W        W55271  27.879  33.474   0.412
83743W        W55272  28.424  10.683   4.016
83744W        W55273  26.010   2.434   2.975
83745W        W55274  22.024  42.432   1.407
83746W        W55275  43.747   3.014   0.859
83747W        W55276  44.979  19.285  14.438
83748W        W55277  40.408   6.222   2.212
83749W        W55278  43.884  27.468   4.554
83750W        W55279  11.677  21.512   3.066
83751W        W55280   9.376  11.259  14.856
83752W        W55281  39.828  38.284   0.261
83753W        W55282  26.409  14.482  10.749
83754W        W55283  10.558  23.173  11.600
83755W        W55284  15.399  23.919  10.678
83756W        W55285  44.621  33.240   0.815
83757W        W55286  24.733  20.572   4.478
83758W        W55287  11.250  43.681   2.180
83759W        W55288  36.501  27.104  11.621
83760W        W55289  20.453  43.305  12.125
83761W        W55290  12.165  17.694  13.118
83762W        W55291  16.250   8.683   3.345
83763W        W55292   8.831  32.143  13.455
83764W        W55293  13.237  26.256   4.816
83765W        W55294  29.651  35.955   1.257
83766W        W55295  41.860  25.069  10.004
83767W        W55296  30.504  35.126   1.859
83768W        W55297  33.097   4.202  14.256
83769W        W55298   6.237  39.938  11.174
83770W        W55299  38.666  24.107   0.731
83771W        W55300   8.137   9.691   1.232
83772W        W55301  13.327   0.274   9.698
83773W        W55302  38.802  40.009   4.131
83774W        W55303  21.453  11.400  12.891
83775W        W55304   9.553  42.573   4.655
83776W        W55305  34.637  21.732   0.775
83777W        W55306  43.418  14.331  10.762
83778W        W55307  16.533  37.094  11.151
83779W        W55308   4.935  25.867  13.964
83780W        W55309  27.374  38.851  13.983
83781W        W55310  27.734  32.343  14.152
83782W        W55311  25.576  12.581  11.149
83783W        W55312   3.737  14.669   2.746
83784W        W55313  17.957  20.149   2.681
83785W        W55314  34.785  40.709   4.707
83786W        W55315   4.469  23.570   1.257
83787W        W55316  25.674   9.847  11.378
83788W        W55317  30.296  29.658   2.713
83789W        W55318  22.189  33.885   1.332
83790W        W55319   0.219  27.552   0.768
83791W        W55320  38.509  14.369  14.888
83792W        W55321  12.163  24.054  11.600
83793W        W55322  24.454  26.702  12.995
83794W        W55323  40.478  25.524  12.461
83795W        W55324  43.000  17.155   4.235
83796W        W55325  22.559  38.742   4.144
83797W        W55326  42.658  15.671   2.301
83798W        W55327   3.726  34.656  12.360
83799W        W55328  11.184   5.570   0.289
83800W        W55329   7.746   4.768   2.078
83801W        W55330  14.615  43.761   0.554
83802W        W55331   5.959  42.306   0.352
83803W        W55332   6.947  38.571  13.430
83804W        W55333  43.065  18.481   0.398
83805W        W55334  15.249  27.641   1.313
83806W        W55335  22.423   8.895   0.476
83807W        W55336  16.087  27.655   1.778
83808W        W55337   4.305  20.469  11.151
83809W        W55338  40.431  27.620  14.303
83810W        W55339  18.161  32.425  10.243
83811W        W55340  33.542   4.032  13.486
83812W        W55341  13.964  12.010  11.122
83813W        W55342  27.849  40.427  13.004
83814W        W55343  12.188  10.623   2.799
83815W        W55344  42.500  40.842   0.879
83816W        W55345  19.314   8.119  14.894
83817W        W55346   8.655   2.575   3.158
83818W        W55347  24.701  16.348  10.894
83819W        W55348  33.596  27.519   1.764
83820W        W55349   2.408  23.460  10.592
83821W        W55350  33.021  29.731   2.149
83822W        W55351  13.769  41.386  14.317
83823W        W55352  33.074   6.365   4.685
83824W        W55353  23.279  44.540   4.671
83825W        W55354  29.651  29.072  12.484
83826W        W55355   3.507   3.202  14.516
83827W        W55356   4.391  12.422   4.821
83828W        W55357  28.745  39.016   4.244
83829W        W55358  38.058  30.522  11.420
83830W        W55359  37.588  17.709   3.715
83831W        W55360  20.434  20.504  12.282
83832W        W55361  31.965  27.462   0.383
83833W        W55362  17.643  37.506  10.739
83834W        W55363  20.103  28.445   1.725
83835W        W55364  30.691   8.817   3.658
83836W        W55365  26.157  41.927   0.965
83837W        W55366  13.025  35.616   4.063
83838W        W55367  20.755  26.201  10.532
83839W        W55368  43.522   6.899  11.767
83840W        W55369   9.844  17.045  12.081
83841W        W55370  41.029  25.960  11.212
83842W        W55371   8.853  20.693  10.871
83843W        W55372   9.616   1.972   4.257
83844W        W55373  26.501  16.050  11.558
83845W        W55374  21.795   3.641   2.408
83846W        W55375  31.201  34.811   3.158
83847W        W55376   5.009   5.615  14.931
83848W        W55377  20.164  24.104   2.128
83849W        W55378  14.004  24.732   0.309
83850W        W55379   2.252  35.398   2.152
83851W        W55380   7.324  26.459   3.171
83852W        W55381  12.976  19.992  13.664
83853W        W55382  23.613   3.706   2.739
83854W        W55383  31.571   4.245   3.628
83855W        W55384   2.231  22.069  10.851
83856W        W55385  15.991  22.952   2.707
83857W        W55386  43.499  34.274  13.508
83858W        W55387  10.232   5.434   4.767
83859W        W55388  39.898  44.294  11.189
83860W        W55389  22.174  41.061   3.898
83861W        W55390  13.115  29.592  12.530
83862W        W55391  32.327  29.953   1.963
83863W        W55392  25.108   3.460   2.768
83864W        W55393  31.487  43.918  14.019
83865W        W55394  10.856  38.218   0.028
83866W        W55395   5.488   5.030   3.844
83867W        W55396  27.592   1.476  12.628
83868W        W55397   4.349   2.524  11.121
83869W        W55398  38.544  28.390   4.111
83870W        W55399  34.809  41.339  12.392
83871W        W55400  36.965  33.121   4.276
83872W        W55401  32.650  38.058   4.740
83873W        W55402  14.891   1.750   0.635
83874W        W55403  37.103  30.712  12.000
83875W        W55404   2.391  22.545   3.661
83876W        W55405  44.293   2.366   3.903
83877W        W55406   7.973  39.245  10.612
83878W        W55407  35.953  27.491  11.211
83879W        W55408  35.069  11.393   0.860
83880W        W55409  32.598   6.635  11.237
83881W        W55410  25.862   6.269   4.869
83882W        W55411   4.303  15.291  13.100
83883W        W55412  34.978  30.913  13.043
83884W        W55413  26.725  41.078   0.698
83885W        W55414  14.714  41.953   0.267
83886W        W55415  38.603  42.339  12.023
83887W        W55416   5.179  29.439   0.775
83888W        W55417  39.496  21.648  13.282
83889W        W55418  41.232  37.354  13.588
83890W        W55419  31.656  36.003  11.976
83891W        W55420  34.522  27.421  11.698
83892W        W55421  12.710  31.449   1.799
83893W        W55422  11.885  38.173   0.803
83894W        W55423   7.318  34.320   2.494
83895W        W55424  25.141  41.810   4.633
83896W        W55425   2.363  29.356  10.663
83897W        W55426  15.385   3.315  10.688
83898W        W55427  31.099  20.015   4.658
83899W        W55428  18.033  10.837   1.431
83900W        W55429  30.790  34.179  13.499
83901W        W55430  39.029  36.632  12.503
83902W        W55431  38.946   9.770  11.145
83903W        W55432  16.487  33.762  11.219
83904W        W55433  39.217   9.750  14.952
83905W        W55434   5.958  35.108   4.396
83906W        W55435  40.081  35.036   1.709
83907W        W55436  12.748  43.570   0.516
83908W        W55437  13.290  26.142  14.545
83909W        W55438  18.638  13.355   0.921
83910W        W55439  12.743  18.146  11.598
83911W        W55440   2.992  12.665   3.612
83912W        W55441  10.222  18.301  14.226
83913W        W55442  43.929  11.133   2.913
83914W        W55443  11.490  10.489  12.417
83915W        W55444  21.792  31.900   3.638
83916W        W55445   5.561  32.608  10.794
83917W        W55446  14.593  41.320   1.317
83918W        W55447  19.139  20.108   5.056
83919W        W55448  17.999  25.185   2.746
83920W        W55449  11.155  28.094  13.065
83921W        W55450  24.174   5.805  13.515
83922W        W55451  26.694   9.564   4.643
83923W        W55452  15.260  17.586   3.715
83924W        W55453  33.793  27.145   2.249
83925W        W55454  27.883   5.564   4.332
83926W        W55455  44.163   1.857   4.512
83927W        W55456  25.318  42.325  13.401
83928W        W55457   4.702   7.486   5.196
83929W        W55458  17.664  43.928  11.605
83930W        W55459   1.431  40.091   2.407
83931W        W55460  27.728  25.771   2.255
83932W        W55461   5.758  22.284   4.894
83933W        W55462  31.609  34.690   1.876
83934W        W55463  19.610  27.566   3.794
83935W        W55464  19.343  33.507   2.490
83936W        W55465   1.271   8.487   2.317
83937W        W55466  35.546  13.441  14.453
83938W        W55467   8.255  22.626  13.350
83939W        W55468  23.591  15.735   0.820
83940W        W55469  42.920  30.122   0.734
83941W        W55470  21.044  14.247   2.118
83942W        W55471   0.554   8.911  12.475
83943W        W55472  23.364  19.615   4.521
83944W        W55473   4.102  26.119  12.936
83945W        W55474   4.553  18.577   3.338
83946W        W55475  42.901  38.411   2.476
83947W        W55476  36.156   1.508   4.473
83948W        W55477  39.272  10.274   0.789
83949W        W55478  19.126  21.031   2.599
83950W        W55479  34.513  21.658  12.894
83951W        W55480  19.005  30.403  10.727
83952W        W55481  39.833  30.909   0.712
83953W        W55482   5.620  33.858  14.826
83954W        W55483  15.526  33.381   0.841
83955W        W55484   2.458  33.176  13.487
83956W        W55485  27.462  17.304   0.077
83957W        W55486  24.768  10.074   0.857
83958W        W55487  26.655  27.633  14.800
83959W        W55488  24.017   2.264   3.637
83960W        W55489  24.000  23.957   1.841
83961W        W55490   0.282  13.847  11.199
83962W        W55491   3.165   0.013   1.800
83963W        W55492   3.571  42.515  10.806
83964W        W55493  12.261  37.180   3.765
83965W        W55494  16.311  42.315  13.929
83966W        W55495  43.903   4.256  14.924
83967W        W55496  15.281  36.486  12.237
83968W        W55497  31.353  32.995  12.866
83969W        W55498   5.042  44.263  12.908
83970W        W55499  35.443  31.694   0.296
83971W        W55500  17.807  32.129  13.664
83972W        W55501  40.772   9.467   1.821
83973W        W55502  14.392  18.082  13.026
83974W        W55503  12.708  14.181   0.584
83975W        W55504  41.063   5.227   3.313
83976W        W55505  17.953  14.930  10.631
83977W        W55506   1.560  43.961   3.994
83978W        W55507  10.890  43.195  10.287
83979W        W55508  39.105  36.734   3.625
83980W        W55509  38.940   5.444  10.639
83981W        W55510  18.046   2.780   4.442
83982W        W55511  31.949  27.024  14.925
83983W        W55512  35.767  13.023   1.325
83984W        W55513  32.516   6.693   3.848
83985W        W55514  44.121  23.294  12.171
83986W        W55515  21.573   6.412  13.690
83987W        W55516  31.691  10.800   3.648
83988W        W55517   9.149  13.027   0.502
83989W        W55518   2.296  24.613  14.252
83990W        W55519   2.681   8.273   3.898
83991W        W55520   5.209  37.989  11.638
83992W        W55521  31.895  13.788   0.378
83993W        W55522   0.808   2.558   3.130
83994W        W55523  37.426  39.834   0.679
83995W        W55524  27.012  23.365  13.037
83996W        W55525  30.120   2.352   2.095
83997W        W55526  37.305  18.561  12.661
83998W        W55527  44.360  19.519   4.349
83999W        W55528   5.914  38.576  11.316
84000W        W55529   1.562   8.616   4.266
84001W        W55530   0.449  20.761  13.488
84002W        W55531  14.872  27.501   3.306
84003W        W55532  37.931  33.368   2.853
84004W        W55533   4.850  22.085  11.526
84005W        W55534  29.612  18.800  12.900
84006W        W55535  30.441  16.219   0.331
84007W        W55536  44.231  21.570   4.603
84008W        W55537   2.802  12.587  14.344
84009W        W55538   3.841   2.852   2.605
84010W        W55539  20.629  43.738  12.986
84011W        W55540   7.155  22.000   0.956
84012W        W55541  26.564  15.102  14.048
84013W        W55542  21.880  42.739   5.021
84014W        W55543   9.689   7.166   1.433
84015W        W55544  14.283   5.561  13.642
84016W        W55545  35.870  20.381  13.574
84017W        W55546  35.596  44.847  14.671
84018W        W55547  25.245  30.522  14.589
84019W        W55548  15.120  39.853   3.881
84020W        W55549   7.869  25.200   0.853
84021W        W55550  34.887  31.556   2.646
84022W        W55551   1.737  18.575   3.740
84023W        W55552  33.879  15.641  12.179
84024W        W55553   2.786  24.606  12.066
84025W        W55554  27.988   0.236  13.788
84026W        W55555  41.652   6.116   1.799
84027W        W55556  30.895  21.115   2.165
84028W        W55557  25.969  37.886  14.997
84029W        W55558  15.909   2.963  12.506
84030W        W55559  13.314   8.764  10.805
84031W        W55560  28.547  44.605   0.010
84032W        W55561  20.312  25.979   3.252
84033W        W55562   1.973  44.314   3.347
84034W        W55563   6.954  25.973  14.860
84035W        W55564  35.525  22.121   3.669
84036W        W55565  13.808  25.438   2.962
84037W        W55566  44.882   2.998  13.388
84038W        W55567  28.233  31.893   1.688
84039W        W55568  23.665  26.679   3.833
84040W        W55569  35.795   6.793  10.388
84041W        W55570  18.038  42.408   0.371
84042W        W55571  38.680  39.523   4.973
84043W        W55572  34.959  18.996   1.769
84044W        W55573  18.695  30.912   1.716
84045W        W55574  44.073  43.431   1.891
84046W        W55575  17.774  11.005  12.908
84047W        W55576  40.261  37.381  12.127
84048W        W55577  27.502  32.076  11.873
84049W        W55578  24.432   3.877  12.529
84050W        W55579  13.785  34.662  12.102
84051W        W55580  24.080  44.089   1.822
84052W        W55581  13.191   2.967   4.899
84053W        W55582   3.916  13.081   0.776
84054W        W55583  20.029  10.870  12.864
84055W        W55584   0.881  23.964  13.667
84056W        W55585   9.365   7.945   1.947
84057W        W55586  13.489  21.210  13.903
84058W        W55587   3.857   4.485  10.577
84059W        W55588   9.293  42.366  14.203
84060W        W55589  20.601  28.623  12.018
84061W        W55590  20.704  20.920  14.007
84062W        W55591  16.619  33.923  12.488
84063W        W55592  41.996  12.563  10.725
84064W        W55593  24.902  18.503   1.494
84065W        W55594  24.512   4.407  12.403
84066W        W55595   2.946  12.748   1.864
84067W        W55596  40.543  43.840   3.327
84068W        W55597  41.863   7.147   0.992
84069W        W55598  19.695  15.932  12.011
84070W        W55599   3.842  39.082   0.150
84071W        W55600  20.874  13.160  14.058
84072W        W55601  21.321   8.185  13.061
84073W        W55602  24.713  10.565  14.799
84074W        W55603  13.925  37.280  14.588
84075W        W55604  35.119  22.650  12.516
84076W        W55605  14.866  26.340  13.878
84077W        W55606  22.763  32.114  10.906
84078W        W55607  20.929  42.738  13.968
84079W        W55608   8.468  33.661   1.361
84080W        W55609  28.701  41.323  13.349
84081W        W55610  34.353   3.834   1.900
84082W        W55611   8.372   5.776   0.196
84083W        W55612  31.430  18.852   1.844
84084W        W55613  13.547  32.046  12.841
84085W        W55614  43.078  44.314  11.193
84086W        W55615  20.244  25.114  12.496
84087W        W55616  34.403   5.705  11.545
84088W        W55617  39.097  24.426  12.515
84089W        W55618  12.279  22.244   2.772
84090W        W55619  16.631  19.787  11.460
84091W        W55620  22.592   8.652   1.513
84092W        W55621   0.689  27.238   1.424
84093W        W55622   9.723   8.784   0.519
84094W        W55623  17.362  31.495   1.289
84095W        W55624  38.365  19.331  12.020
84096W        W55625   7.712  24.564  14.458
84097W        W55626  17.606  36.185   3.163
84098W        W55627  28.803   7.655  10.633
84099W        W55628  29.241  31.980   4.400
84100W        W55629  41.825  28.865  10.703
84101W        W55630  18.332  24.241  12.598
84102W        W55631  28.467  35.952   2.649
84103W        W55632  13.756  44.994  14.267
84104W        W55633  44.338   6.608   4.434
84105W        W55634   7.456  32.449  14.501
84106W        W55635  36.206  21.292  14.310
84107W        W55636   2.851  36.562  11.448
84108W        W55637  37.254  29.477   1.334
84109W        W55638  18.684   0.942  12.878
84110W        W55639  26.313  33.543   5.113
84111W        W55640  43.675   0.862  10.561
84112W        W55641   6.656  33.142  10.583
84113W        W55642  33.318  14.624  13.453
84114W        W55643  38.383   1.391   3.324
84115W        W55644  38.600  26.457  11.134
84116W        W55645  37.322  39.949  12.874
84117W        W55646  39.368   7.905  13.788
84118W        W55647  16.896  44.622   4.835
84119W        W55648  35.057  16.747  13.074
84120W        W55649  30.005   3.756   2.887
84121W        W55650  34.054  12.449  13.484
84122W        W55651  34.669  21.621   1.274
84123W        W55652  29.496  39.567  14.021
84124W        W55653  36.857  15.587   3.774
84125W        W55654  28.491  44.623  12.685
84126W        W55655  24.446  25.196   2.730
84127W        W55656  43.078  25.449  12.632
84128W        W55657   7.372  14.737   0.048
84129W        W55658  23.106  16.507   4.214
84130W        W55659  41.661   6.786  11.570
84131W        W55660  25.671  43.560   2.795
84132W        W55661   5.723  22.140  10.986
84133W        W55662   6.429  28.886  12.233
84134W        W55663  40.435  28.379   2.049
84135W        W55664   3.418   0.114   0.380
84136W        W55665   8.877  29.636  14.364
84137W        W55666  40.580  13.848  12.416
84138W        W55667  44.770   7.148  11.018
84139W        W55668  16.387  38.693   0.250
84140W        W55669  43.421   0.350  10.804
84141W        W55670   5.401  29.633  12.382
84142W        W55671  22.471  12.779  14.745
84143W        W55672   8.192  19.217  11.624
84144W        W55673  12.132   5.112   2.807
84145W        W55674  20.342  10.912  13.318
84146W        W55675  21.166  18.743   2.860
84147W        W55676   5.634  12.282  12.563
84148W        W55677   5.756  16.677   0.443
84149W        W55678  20.242  18.996  12.498
84150W        W55679  16.855  22.720  11.593
84151W        W55680  31.000   9.379   0.712
84152W        W55681  32.538   4.245   4.660
84153W        W55682  33.940  26.402   2.911
84154W        W55683  11.942   3.747   0.371
84155W        W55684  20.561  43.720   1.025
84156W        W55685  37.101  25.408   1.656
84157W        W55686  24.440  27.119   3.699
84158W        W55687  37.936  36.745   2.005
84159W        W55688  15.268   5.908  13.898
84160W        W55689  38.820  20.185  13.934
84161W        W55690  30.084   8.160   2.093
84162W        W55691  29.023  30.401  14.361
84163W        W55692  42.383   6.714   0.747
84164W        W55693   7.100  11.341   0.478
84165W        W55694  25.977   3.909  11.046
84166W        W55695  24.429   1.768  13.068
84167W        W55696  18.097  28.701   3.995
84168W        W55697  30.465  30.944  11.945
84169W        W55698  20.781  32.844  14.616
84170W        W55699  42.986  35.954   1.773
84171W        W55700  33.331  44.902  11.529
84172W        W55701  24.754   3.331   4.101
84173W        W55702  10.220   1.777   2.441
84174W        W55703  33.404  31.770   0.326
84175W        W55704  16.823  10.582  10.427
84176W        W55705   1.864  39.946   4.432
84177W        W55706  42.066  25.940   0.758
84178W        W55707  39.031  24.800   1.945
84179W        W55708  12.958  28.739   0.460
84180W        W55709  15.196  14.090   4.351
84181W        W55710  14.658   7.267   4.778
84182W        W55711  10.756  37.956   2.345
84183W        W55712  19.330  33.963   2.720
84184W        W55713  24.986  23.633   1.902
84185W        W55714   7.524  31.685  14.561
84186W        W55715   4.482  13.780   1.464
84187W        W55716  15.301  11.565  11.098
84188W        W55717   2.506   8.856   4.333
84189W        W55718  12.621  24.061   0.845
84190W        W55719  26.211   8.421   0.762
84191W        W55720  11.149  27.679   0.859
84192W        W55721   4.909  39.081  13.984
84193W        W55722   8.271  22.131  11.619
84194W        W55723  35.993  27.669   1.451
84195W        W55724   1.595  19.495   3.718
84196W        W55725  44.343  36.287   1.851
84197W        W55726   2.163   1.666  12.118
84198W        W55727  32.661   8.484  13.093
84199W        W55728  13.078  43.956  13.400
84200W        W55729   6.730  42.955   1.506
84201W        W55730  29.477  20.208  12.484
84202W        W55731   7.677   1.366  13.605
84203W        W55732  34.839  16.073   0.429
84204W        W55733   7.796  10.989   2.381
84205W        W55734  26.174  36.964  13.948
84206W        W55735  34.930  11.211   4.142
84207W        W55736  26.604  38.861   4.570
84208W        W55737   2.178  42.373   1.041
84209W        W55738  42.468  12.119   3.350
84210W        W55739  28.550  30.748   2.408
84211W        W55740  31.864   5.349   1.268
84212W        W55741  21.244  30.206  13.409
84213W        W55742   9.342  29.554   2.190
84214W        W55743   4.398  36.626   2.951
84215W        W55744  11.097  14.582  14.457
84216W        W55745   5.279  29.398  10.773
84217W        W55746  28.234  10.952   2.812
84218W        W55747  15.197  26.193  11.137
84219W        W55748  42.295  27.190   1.193
84220W        W55749  15.936  37.972  13.629
84221W        W55750  38.334  33.390   0.446
84222W        W55751  38.533  44.205  10.490
84223W        W55752   9.719  22.172   1.606
84224W        W55753  11.571   9.223   1.442
84225W        W55754  36.214   3.746   2.872
84226W        W55755  32.529  31.118   1.277
84227W        W55756  44.938  44.045  10.989
84228W        W55757  11.788   1.682   1.928
84229W        W55758  17.679   8.672  14.932
84230W        W55759   3.699  44.934  14.953
84231W        W55760  18.041  26.387   1.938
84232W        W55761  23.778  29.016   1.909
84233W        W55762  13.254   6.388   0.469
84234W        W55763  22.343  35.901  10.687
84235W        W55764  11.863   6.412  11.117
84236W        W55765  38.024   4.778   4.651
84237W        W55766   8.182  28.217  14.317
84238W        W55767  36.428  39.856  10.664
84239W        W55768   7.768  24.642  14.982
84240W        W55769  23.338  33.479   0.719
84241W        W55770  42.231  11.561  13.796
84242W        W55771  13.655  26.673   0.995
84243W        W55772   4.954  24.872  11.913
84244W        W55773  15.676  15.048  14.133
84245W        W55774  21.322  42.812  13.641
84246W        W55775   3.211  17.181   1.234
84247W        W55776  28.904  39.599  13.213
84248W        W55777  18.814  32.663   3.224
84249W        W55778  41.278  18.723  11.520
84250W        W55779  15.230  22.219   4.570
84251W        W55780  44.973  26.674   2.781
84252W        W55781  17.114  13.695  14.977
84253W        W55782   5.862  10.741  11.714
84254W        W55783  40.358  26.135   2.095
84255W        W55784  37.504  34.960  11.677
84256W        W55785  26.883  16.192  14.053
84257W        W55786   7.484  22.108  10.692
84258W        W55787  13.794  37.520   4.496
84259W        W55788  20.151  13.313  14.501
84260W        W55789  41.287  44.548   1.706
84261W        W55790  32.900  43.468   2.003
84262W        W55791  43.277  31.063   4.463
84263W        W55792  34.810  38.349  13.804
84264W        W55793  13.658  42.423   1.277
84265W        W55794  39.771  36.500  11.980
84266W        W55795  44.764  25.754   2.720
84267W        W55796  28.507  17.040  14.056
84268W        W55797   8.194  27.912   4.471
84269W        W55798  30.155  19.067   1.819
84270W        W55799  34.492  15.903  11.055
84271W        W55800  14.336   9.393   1.805
84272W        W55801   1.930  13.180  11.354
84273W        W55802  27.898  39.015  10.252
84274W        W55803  43.026  15.557  12.137
84275W        W55804  36.852  25.949  12.898
84276W        W55805  35.538  33.032   2.853
84277W        W55806   8.421  18.411  11.411
84278W        W55807   7.875   5.765   2.162
84279W        W55808   7.142  15.620   0.843
84280W        W55809   1.979  16.791  11.615
84281W        W55810  29.981   8.553   0.420
84282W        W55811  20.192   0.993  10.507
84283W        W55812  18.716  11.853   0.959
84284W        W55813  37.091  17.634   0.012
84285W        W55814  33.604  11.405   4.449
84286W        W55815  33.933  23.499   4.838
84287W        W55816  27.589  15.301  10.672
84288W        W55817  25.149  27.248  13.452
84289W        W55818  36.024  23.529  14.381
84290W        W55819  11.765  43.073   2.872
84291W        W55820   0.090  21.509  12.378
84292W        W55821  21.803  12.827   1.675
84293W        W55822  17.553  22.144   2.479
84294W        W55823  32.331  21.016   4.762
84295W        W55824  34.835  37.300   2.994
84296W        W55825  31.864  13.137  10.748
84297W        W55826  13.648  28.965   4.825
84298W        W55827  33.017  22.309   1.344
84299W        W55828  19.010  14.797   2.772
84300W        W55829   7.796   3.952   2.314
84301W        W55830  20.828  27.145   4.070
84302W        W55831  43.278  43.269  11.467
84303W        W55832   0.854  41.329  14.218
84304W        W55833  25.478  17.632  14.398
84305W        W55834  24.468  31.910  12.838
84306W        W55835  39.022  43.383   1.786
84307W        W55836  27.715  39.384   1.308
84308W        W55837   8.934  33.611  10.937
84309W        W55838  21.657   8.428  13.436
84310W        W55839  43.987   7.115  14.550
84311W        W55840  27.375   2.010   1.889
84312W        W55841  34.838   1.535  14.838
84313W        W55842  25.711   1.026   0.499
84314W        W55843   2.767  20.717  12.551
84315W        W55844  10.829   4.702  14.351
84316W        W55845  13.314  16.509  13.693
84317W        W55846  18.918  22.378   0.562
84318W        W55847  20.950  11.907  13.639
84319W        W55848  42.424  40.107  10.870
84320W        W55849  35.272  40.063  11.969
84321W        W55850  26.633   8.919   4.635
84322W        W55851  25.757  28.989  12.642
84323W        W55852  38.923  41.910  13.667
84324W        W55853  14.293  44.547   3.727
84325W        W55854   2.949  37.417  11.967
84326W        W55855  15.624   7.195  12.944
84327W        W55856   2.255   4.258  12.142
84328W        W55857  22.523  27.711   0.746
84329W        W55858  42.735  25.502   5.108
84330W        W55859   6.356   9.795  10.335
84331W        W55860  42.619  18.811  14.767
84332W        W55861  40.366  22.310   2.301
84333W        W55862  24.770   5.272   1.779
84334W        W55863  44.158  38.054  11.295
84335W        W55864  41.416  41.538   4.331
84336W        W55865  37.866   3.834   2.811
84337W        W55866  25.634  39.653   4.037
84338W        W55867  14.903   5.350  11.625
84339W        W55868   5.859   0.708   0.594
84340W        W55869  33.983  25.120  13.975
84341W        W55870  18.273  44.971  11.879
84342W        W55871  22.999   9.921  11.608
84343W        W55872  27.871  36.482   3.774
84344W        W55873   1.456  15.712   0.791
84345W        W55874  43.963   7.243   2.875
84346W        W55875   9.283  14.819   0.667
84347W        W55876   3.377  31.406  10.694
84348W        W55877  16.533  19.217  12.007
84349W        W55878  22.504  18.613  13.078
84350W        W55879  13.870  22.622  12.987
84351W        W55880   5.591   6.459   2.421
84352W        W55881  44.545  10.425   3.144
84353W        W55882  10.872   2.199  12.993
84354W        W55883  43.805  20.549  10.652
84355W        W55884  43.995  42.375  13.587
84356W        W55885  31.535  42.171   3.361
84357W        W55886  33.693  27.571  12.885
84358W        W55887   9.372  32.970   4.946
84359W        W55888  16.271   6.352  14.420
84360W        W55889   2.296  15.321   2.788
84361W        W55890  39.876  12.735   1.830
84362W        W55891  36.843   5.724  12.045
84363W        W55892  44.296  35.464  14.567
84364W        W55893  14.792   6.128   1.151
84365W        W55894  33.544  12.389   3.711
84366W        W55895  12.742  31.617  14.289
84367W        W55896  35.321  32.014  12.475
84368W        W55897  36.976   9.657   0.079
84369W        W55898  14.588   3.046   0.827
84370W        W55899   3.032  41.516   2.570
84371W        W55900  23.717  15.146   0.780
84372W        W55901  37.715  36.922   4.409
84373W        W55902  36.331  39.941   3.163
84374W        W55903  13.903  14.370   2.369
84375W        W55904  39.328   2.847  13.317
84376W        W55905   1.874  32.134   1.758
84377W        W55906  22.577  28.469  11.382
84378W        W55907  29.664   4.620  12.198
84379W        W55908  16.351  22.222   4.540
84380W        W55909  27.080  37.952  12.525
84381W        W55910  38.855  19.831   1.321
84382W        W55911   5.208   7.649   1.290
84383W        W55912  30.536  27.192  10.506
84384W        W55913   2.734  19.913   0.999
84385W        W55914  21.422   7.957  13.542
84386W        W55915  32.445   7.273  12.111
84387W        W55916  30.585  36.614  14.257
84388W        W55917   3.980  16.575  11.105
84389W        W55918  31.760  10.819  14.327
84390W        W55919  44.887   6.169  12.474
84391W        W55920  21.706   0.641  10.218
84392W        W55921  20.766  31.026   3.644
84393W        W55922  11.228  27.729   1.751
84394W        W55923  32.634  17.974  12.663
84395W        W55924  11.573  11.825   5.000
84396W        W55925  14.452   7.863  14.396
84397W        W55926  38.297  27.893  11.209
84398W        W55927  31.469  11.681   4.460
84399W        W55928  31.610   2.353   0.058
84400W        W55929  10.128   6.449  11.111
84401W        W55930  24.425  11.661  10.549
84402W        W55931  12.473  26.794  11.122
84403W        W55932  40.209  39.605   2.397
84404W        W55933  28.638  34.344  13.567
84405W        W55934  31.497  44.374  14.943
84406W        W55935  35.326   6.716   4.241
84407W        W55936   5.179  22.804   1.930
84408W        W55937  35.939   8.666   0.837
84409W        W55938  43.996  28.551   0.235
84410W        W55939  43.375  12.157   1.464
84411W        W55940  41.181  22.045  13.011
84412W        W55941  12.022  26.241   3.246
84413W        W55942   5.068  42.438   4.579
84414W        W55943  25.696  11.726   0.631
84415W        W55944  37.767  24.107   0.322
84416W        W55945  25.110  42.474   1.199
84417W        W55946  38.406   1.503  14.344
84418W        W55947  15.230  15.440   4.575
84419W        W55948  32.944  43.080   2.947
84420W        W55949  33.360  18.578   0.341
84421W        W55950  25.952  24.698  13.528
84422W        W55951  30.324  31.295   0.921
84423W        W55952  34.400  28.573   2.193
84424W        W55953   2.684   9.919  11.153
84425W        W55954  37.116   4.887  14.935
84426W        W55955  10.359  35.481   3.609
84427W        W55956  27.741   3.405  12.835
84428W        W55957   9.266   7.176  12.841
84429W        W55958  33.564   1.623   5.376
84430W        W55959  10.811   8.296   3.527
84431W        W55960  16.646  24.923  10.593
84432W        W55961  21.960  29.010  11.672
84433W        W55962  24.088  40.972  13.612
84434W        W55963  29.365  35.089   4.691
84435W        W55964  24.777  35.688  14.383
84436W        W55965  29.368   2.658   4.054
84437W        W55966   8.868  36.465   1.386
84438W        W55967   9.617  16.852  10.808
84439W        W55968  25.499  32.323   3.694
84440W        W55969  21.685  30.706  14.888
84441W        W55970   0.227  25.981  11.537
84442W        W55971   1.968  22.498  13.323
84443W        W55972  32.958  17.066   0.235
84444W        W55973   1.771  14.391  13.385
84445W        W55974   1.327  18.562  13.294
84446W        W55975  40.028  28.450   4.309
84447W        W55976  20.636   8.260   3.621
84448W        W55977  23.469  17.300   0.852
84449W        W55978  35.890  28.185   1.709
84450W        W55979  35.019  17.486  11.198
84451W        W55980  38.439   2.853  10.704
84452W        W55981   2.790  14.672  13.302
84453W        W55982  12.906  15.047   0.856
84454W        W55983   2.962  10.135  10.743
84455W        W55984  31.545  41.324   4.755
84456W        W55985  16.996  37.873  11.462
84457W        W55986  22.653  25.983  13.626
84458W        W55987  27.808  22.553  10.910
84459W        W55988  39.887  23.581  14.985
84460W        W55989  29.627  24.663   2.266
84461W        W55990   3.147  21.020   3.270
84462W        W55991  10.181   3.042  10.659
84463W        W55992  38.817  29.566   3.702
84464W        W55993   5.626  23.480   4.865
84465W        W55994  43.211   5.244  10.531
84466W        W55995   9.355   1.968   1.985
84467W        W55996  18.821   6.872   2.812
84468W        W55997  17.217  22.796   3.215
84469W        W55998  42.575  10.839   4.908
84470W        W55999  17.252  33.356   2.342
84471W        W56000  26.740   3.472  12.940
84472W        W56001   8.543  34.420  10.585
84473W        W56002  34.001   4.432   4.652
84474W        W56003  42.869  11.218   4.708
84475W        W56004  36.474  35.814   0.922
84476W        W56005  27.661  15.042   5.489
84477W        W56006   5.944  19.674   2.919
84478W        W56007   6.176  33.909   3.450
84479W        W56008  44.470  19.197  11.585
84480W        W56009  10.838   8.830  13.362
84481W        W56010  29.622   3.419   1.936
84482W        W56011  28.573  30.005  12.522
84483W        W56012  30.464  28.384  12.854
84484W        W56013  16.317  14.221  12.452
84485W        W56014  19.635   0.269   4.361
84486W        W56015  22.566  38.316  10.677
84487W        W56016   1.078  41.877   0.189
84488W        W56017  37.914  25.452   0.311
84489W        W56018  44.838  43.519   4.122
84490W        W56019  34.918  26.641   0.374
84491W        W56020  37.060  41.342  11.597
84492W        W56021  35.141   2.316   3.229
84493W        W56022  18.369  14.865  11.965
84494W        W56023  25.691  26.227  13.900
84495W        W56024  28.365  36.432   3.686
84496W        W56025  23.042  10.665   0.704
84497W        W56026  31.922  14.002  11.089
84498W        W56027   8.536  33.485   0.452
84499W        W56028  27.913  42.011   3.390
84500W        W56029  44.244  44.561   4.080
84501W        W56030  17.692   5.632  13.589
84502W        W56031  22.217  39.091  12.448
84503W        W56032  11.169   2.821  12.389
84504W        W56033  34.997  23.172   4.219
84505W        W56034  17.792  37.009  10.648
84506W        W56035  10.564  17.240   2.567
84507W        W56036   4.503   7.798   4.810
84508W        W56037  36.886   5.408   4.540
84509W        W56038  15.245  29.667  11.383
84510W        W56039  18.298   2.240  14.059
84511W        W56040  42.884   3.366  13.922
84512W        W56041  42.090  34.821   0.734
84513W        W56042  34.330   7.465   1.440
84514W        W56043  16.827  31.145   3.718
84515W        W56044  25.970  27.744   4.008
84516W        W56045  22.737  19.683  12.123
84517W        W56046  43.943  11.724   4.052
84518W        W56047  12.161   2.826   3.123
84519W        W56048  42.341   7.386   1.016
84520W        W56049   7.761  16.061  13.070
84521W        W56050   2.548  29.101   3.652
84522W        W56051  37.262  17.493  12.586
84523W        W56052  10.471  11.657  14.355
84524W        W56053  28.599  19.379   2.568
84525W        W56054   8.422  40.992  12.771
84526W        W56055   9.576  12.606  13.785
84527W        W56056  34.649   7.929   0.836
84528W        W56057  21.086  11.303   4.557
84529W        W56058   0.474  24.060   2.586
84530W        W56059  44.279  12.040  11.613
84531W        W56060  15.174   5.772   0.001
84532W        W56061  13.433  18.917  12.561
84533W        W56062  34.529   3.161   4.214
84534W        W56063  29.165  39.414   3.373
84535W        W56064  39.944  11.855  13.137
84536W        W56065   8.801   3.494  11.649
84537W        W56066  34.352  44.203   3.322
84538W        W56067  29.596  26.954  12.612
84539W        W56068  38.553  16.255  14.786
84540W        W56069   5.817  27.028  12.888
84541W        W56070  24.202   0.059   1.949
84542W        W56071  19.985  25.452   1.841
84543W        W56072  24.063   8.085  11.096
84544W        W56073  16.820   5.284   4.126
84545W        W56074  40.468  35.617   0.893
84546W        W56075  18.564  20.473  10.692
84547W        W56076   9.886  43.634   1.828
84548W        W56077  24.474   3.732   4.325
84549W        W56078   3.758  11.376   2.859
84550W        W56079  17.656   2.906  14.477
84551W        W56080   0.043  35.934   0.223
84552W        W56081  23.646   5.098   1.768
84553W        W56082  36.168   0.931   1.770
84554W        W56083  35.146  39.071   3.391
84555W        W56084  36.282   6.241   4.589
84556W        W56085   4.745  38.215  13.536
84557W        W56086  42.076   0.468   1.248
84558W        W56087  11.736  18.223  10.263
84559W        W56088  20.709   5.084   4.430
84560W        W56089   9.268   6.414  13.781
84561W        W56090  42.971  35.378  13.073
84562W        W56091   4.647  30.009   0.728
84563W        W56092  44.714  10.758  12.371
84564W        W56093  38.901  14.824   2.226
84565W        W56094  15.595  27.607   0.867
84566W        W56095  44.354  20.215  11.708
84567W        W56096  21.158  17.307   0.333
84568W        W56097  17.129   8.119  10.743
84569W        W56098  16.732  41.941   4.659
84570W        W56099  28.211  14.538  12.017
84571W        W56100  30.404  20.959  12.137
84572W        W56101  16.135   2.924   4.878
84573W        W56102  31.129  22.915  11.588
84574W        W56103   7.552   8.614  12.976
84575W        W56104  34.048  22.079  12.939
84576W        W56105  27.572   5.156   4.340
84577W        W56106  38.017  21.624   0.908
84578W        W56107   7.846  25.346  13.868
84579W        W56108  15.391  43.290  12.338
84580W        W56109  15.613  21.734  13.306
84581W        W56110  23.593   7.705   2.077
84582W        W56111  15.192   3.477   2.838
84583W        W56112  16.617  22.157   5.001
84584W        W56113  37.374   7.871  11.281
84585W        W56114  28.130  10.206  12.759
84586W        W56115   5.422   7.230   0.406
84587W        W56116  14.259  39.110   1.171
84588W        W56117  26.161  13.548   4.532
84589W        W56118  44.751  38.399   3.323
84590W        W56119  39.360  42.610   2.832
84591W        W56120  32.134  40.933  13.506
84592W        W56121  14.408  42.556   0.523
84593W        W56122  39.897  25.276  11.996
84594W        W56123  24.287  30.154   1.352
84595W        W56124  39.480  20.909  10.000
84596W        W56125  34.497  32.923   2.793
84597W        W56126  29.604   2.391  11.918
84598W        W56127  14.720  17.791   1.918
84599W        W56128  30.694  15.907  13.866
84600W        W56129  42.461   5.842   1.354
84601W        W56130  23.416  17.212   2.717
84602W        W56131  35.425  17.677  14.352
84603W        W56132  25.126   7.149  13.616
84604W        W56133  35.291  18.669   3.200
84605W        W56134  34.763  33.413  10.220
84606W        W56135   6.843  39.486   4.331
84607W        W56136  35.414  23.458  12.008
84608W        W56137  41.793  37.394  10.916
84609W        W56138  26.493   9.359   5.383
84610W        W56139  23.004   3.549   2.334
84611W        W56140  19.175  27.691   1.723
84612W        W56141  42.555  28.065   1.853
84613W        W56142  13.794  43.368  10.735
84614W        W56143   4.691  11.815   2.655
84615W        W56144  38.791  10.477  14.943
84616W        W56145  43.330  38.101   1.494
84617W        W56146  35.512  11.291   4.389
84618W        W56147  33.905   7.177   1.390
84619W        W56148  29.424  23.226  13.865
84620W        W56149  13.332  43.507  13.378
84621W        W56150  30.487  38.238  14.016
84622W        W56151  40.430   9.240  14.422
84623W        W56152  22.663  20.629   3.330
84624W        W56153  16.665  36.295   2.292
84625W        W56154  20.298  35.922   0.987
84626W        W56155  33.184  41.437  14.412
84627W        W56156  26.555  30.894   3.239
84628W        W56157  14.758  24.274  12.061
84629W        W56158  28.405  24.656   4.879
84630W        W56159  40.203  25.702  12.042
84631W        W56160  31.531  27.624  12.136
84632W        W56161  29.451  21.548  13.054
84633W        W56162  42.472  16.768  14.512
84634W        W56163  11.310  33.552   3.819
84635W        W56164  36.382  41.499   4.182
84636W        W56165  33.739   0.458   3.122
84637W        W56166   2.063  21.628  13.297
84638W        W56167  15.666  20.114   3.809
84639W        W56168   9.891  39.790  13.708
84640W        W56169  40.691  25.389   0.428
84641W        W56170  11.240  18.514  13.940
84642W        W56171  17.871  12.748  14.281
84643W        W56172  21.452  13.733   1.020
84644W        W56173   5.389  27.895   0.036
84645W        W56174  35.637  38.188  11.542
84646W        W56175   0.181  44.342   1.937
84647W        W56176  24.490  26.196  10.778
84648W        W56177  24.065  41.950   2.951
84649W        W56178  42.817  39.742  13.510
84650W        W56179  28.605  29.307  13.255
84651W        W56180  22.608  44.440   3.123
84652W        W56181  13.178  31.397  13.611
84653W        W56182  39.046  33.588  14.301
84654W        W56183  41.489   1.733   0.429
84655W        W56184  19.295  40.767  12.288
84656W        W56185  35.846   0.836   0.469
84657W        W56186   6.456  28.672   2.879
84658W        W56187  39.481  44.010   1.849
84659W        W56188   3.766  22.082  11.567
84660W        W56189  11.922  28.909   4.729
84661W        W56190  17.538   4.731  12.533
84662W        W56191   0.853  11.315   2.029
84663W        W56192  17.851  43.947   3.255
84664W        W56193   2.341   3.336  11.608
84665W        W56194  35.192  35.547  12.696
84666W        W56195  40.925  29.482  11.640
84667W        W56196   9.670  17.321   2.756
84668W        W56197   1.460   3.363   3.289
84669W        W56198  24.568   9.338   2.887
84670W        W56199   3.964  13.903  12.921
84671W        W56200   2.785  15.460  11.086
84672W        W56201  20.714  30.565  12.491
84673W        W56202  19.658   9.468  10.622
84674W        W56203  17.953  10.562  11.098
84675W        W56204   7.403  44.556   1.395
84676W        W56205  15.244  29.006  13.693
84677W        W56206  42.219  13.536  11.462
84678W        W56207  32.133  34.598  11.205
84679W        W56208  17.536  16.564   2.651
84680W        W56209  34.917  44.613  12.405
84681W        W56210  17.115   7.517   0.194
84682W        W56211  27.735  22.194  10.487
84683W        W56212  34.887  21.415   2.437
84684W        W56213  35.910  40.044  10.783
84685W        W56214  26.659  10.143  10.630
84686W        W56215  11.322  10.551   1.753
84687W        W56216  28.737  25.558  10.664
84688W        W56217  42.303   7.920  13.854
84689W        W56218   0.675  15.141   1.647
84690W        W56219  37.252   4.379   5.057
84691W        W56220  29.970  39.524   1.437
84692W        W56221   0.323  19.490  10.662
84693W        W56222  15.479  31.873   4.154
84694W        W56223  27.496  29.675   2.212
84695W        W56224  16.369   1.389  11.936
84696W        W56225  18.820  31.900   3.681
84697W        W56226  27.021   5.174  14.520
84698W        W56227  41.891  43.491   0.383
84699W        W56228   3.157   9.698  14.158
84700W        W56229   1.953  11.909  14.846
84701W        W56230  25.455  20.293   1.846
84702W        W56231  26.950  39.376   4.131
84703W        W56232  13.749  26.059  14.330
84704W        W56233   1.552   5.299   4.481
84705W        W56234  27.662  19.292  11.237
84706W        W56235  30.922  21.791  11.186
84707W        W56236  22.114  24.900  14.500
84708W        W56237  35.951  30.585  10.754
84709W        W56238  39.259  20.486   4.891
84710W        W56239   7.818  10.698   0.540
84711W        W56240  13.333  34.025   1.905
84712W        W56241  34.112  37.603   1.556
84713W        W56242  24.658   9.587  14.815
84714W        W56243  15.731   8.742   2.814
84715W        W56244   9.297  26.950  13.812
84716W        W56245  32.614  41.843   3.689
84717W        W56246  41.021  27.137   1.985
84718W        W56247  11.236   5.359   4.395
84719W        W56248  33.816  33.976   4.196
84720W        W56249  23.596  12.840  11.527
84721W        W56250  16.074   6.735  13.476
84722W        W56251  39.345  40.687  12.577
84723W        W56252   2.946  27.533   0.784
84724W        W56253  23.949  29.874   0.908
84725W        W56254  21.717  19.352  14.975
84726W        W56255  27.910   7.242  12.354
84727W        W56256  33.968   6.708   4.309
84728W        W56257  21.786   1.774  10.759
84729W        W56258   2.495  42.825  12.349
84730W        W56259  17.311   2.166   3.271
84731W        W56260  23.183  42.875   2.500
84732W        W56261  15.279   0.259   4.162
84733W        W56262  25.210  36.221  13.683
84734W        W56263  33.661  19.571  11.128
84735W        W56264   1.827   6.730   3.625
84736W        W56265  33.938  41.821   2.695
84737W        W56266  19.916  12.134   4.732
84738W        W56267  27.589  24.452   4.383
84739W        W56268   3.720   5.743   4.010
84740W        W56269   5.943   4.235   1.819
84741W        W56270  20.031  43.260   0.330
84742W        W56271  43.940  21.609   0.213
84743W        W56272  28.537  23.217  11.046
84744W        W56273  43.254  43.337   1.369
84745W        W56274   9.171  29.536  13.905
84746W        W56275  14.764   1.854   2.187
84747W        W56276  22.594  17.370  13.506
84748W        W56277  15.313  12.132  10.229
84749W        W56278  33.974  30.750   1.377
84750W        W56279  20.554  15.038  14.812
84751W        W56280  32.134  25.468   4.394
84752W        W56281   8.842  12.043  10.586
84753W        W56282  37.511   8.137   0.783
84754W        W56283   2.895  21.641   0.438
84755W        W56284  25.618  24.074   4.796
84756W        W56285  27.025  37.598  13.926
84757W        W56286   8.142  40.923   3.635
84758W        W56287  34.274   2.676   2.137
84759W        W56288  26.001  24.006   0.839
84760W        W56289  24.532  43.047  14.061
84761W        W56290  28.608  21.950   4.864
84762W        W56291  20.853   0.771  11.766
84763W        W56292  31.416  31.082   1.652
84764W        W56293  11.003  36.348  13.841
84765W        W56294   3.177  16.167  11.966
84766W        W56295  15.644   2.212  12.004
84767W        W56296  42.983   4.774  10.346
84768W        W56297   6.702  34.921   0.906
84769W        W56298   1.209   4.239   3.573
84770W        W56299  13.308  29.706   4.477
84771W        W56300   0.024  27.451  11.433
84772W        W56301  20.140   6.197   5.102
84773W        W56302  16.511  23.976   0.928
84774W        W56303   6.897  11.258  13.265
84775W        W56304  37.485  25.654  11.164
84776W        W56305  12.832  36.034  12.984
84777W        W56306  14.138   3.164  13.569
84778W        W56307   6.739  26.548  12.927
84779W        W56308   5.922  14.346   0.779
84780W        W56309   7.303  12.183   3.266
84781W        W56310  16.337  24.055   4.622
84782W        W56311   7.378  32.966  11.149
84783W        W56312  11.880   5.955   0.782
84784W        W56313  22.549   2.050  13.783
84785W        W56314  26.124  41.050   1.245
84786W        W56315  43.689   5.314  11.771
84787W        W56316   0.539  18.576  12.955
84788W        W56317  33.045  41.098  10.884
84789W        W56318  11.818  40.829   3.301
84790W        W56319   4.760   4.944  14.442
84791W        W56320  30.152  19.542   0.386
84792W        W56321  35.801  26.054  12.952
84793W        W56322  17.507  20.772   0.350
84794W        W56323  33.288   1.948   0.329
84795W        W56324  28.886  14.754  13.555
84796W        W56325  17.029  18.096   1.225
84797W        W56326  27.586  41.754  12.460
84798W        W56327  17.533  17.765  11.600
84799W        W56328  22.542   7.014   0.603
84800W        W56329   7.428   5.937   2.413
84801W        W56330  11.860   7.237  14.970
84802W        W56331  15.623  37.534   1.721
84803W        W56332  19.092  41.232   1.625
84804W        W56333  34.018   7.282  14.128
84805W        W56334  20.953  13.335   3.778
84806W        W56335   0.815  27.522  13.294
84807W        W56336  31.394  37.927  12.526
84808W        W56337   9.403   1.062  10.991
84809W        W56338  10.196  40.274  14.397
84810W        W56339  10.307  38.941   2.181
84811W        W56340  23.336  37.504  14.364
84812W        W56341  22.956   1.686  12.892
84813W        W56342  36.536  10.328  10.138
84814W        W56343  19.973  41.756  10.550
84815W        W56344   4.379  30.814   2.373
84816W        W56345  27.968  10.924   3.289
84817W        W56346  14.181  27.936   3.627
84818W        W56347  12.054  23.545  10.464
84819W        W56348  44.258  26.976  14.010
84820W        W56349  35.334  21.081  10.732
84821W        W56350  14.370  36.942  11.212
84822W        W56351  10.871  43.664   3.184
84823W        W56352  19.190  20.590   4.208
84824W        W56353  36.833   5.831   4.222
84825W        W56354   2.991  15.035  14.990
84826W        W56355  42.991  14.591  13.261
84827W        W56356  20.169  15.709   2.745
84828W        W56357   6.448  10.064  13.385
84829W        W56358   4.864  29.042  12.626
84830W        W56359  34.797  25.692   0.386
84831W        W56360   1.510  33.930   3.174
84832W        W56361  26.999  35.918  12.079
84833W        W56362  40.873   3.698  14.914
84834W        W56363  36.410  17.003  14.099
84835W        W56364  10.931  22.065   3.221
84836W        W56365  43.202  42.007   4.236
84837W        W56366  24.048   3.400  13.907
84838W        W56367   6.436  35.527   5.037
84839W        W56368  24.777   4.792   1.293
84840W        W56369  25.576  25.131  11.869
84841W        W56370  26.940  17.576   1.242
84842W        W56371  31.659  10.729  13.461
84843W        W56372   9.798  39.966  14.458
84844W        W56373  23.939  35.560  11.091
84845W        W56374  38.527  15.956  11.688
84846W        W56375   6.203  12.620  13.023
84847W        W56376  28.663   7.151  14.850
84848W        W56377  22.533   4.514   4.324
84849W        W56378  25.990  22.666   2.317
84850W        W56379  41.424  43.331  14.098
84851W        W56380   6.165  10.895   0.384
84852W        W56381  24.210  25.966  12.837
84853W        W56382  22.652  26.578  14.337
84854W        W56383  12.797  12.827  10.463
84855W        W56384   2.519   1.290   1.813
84856W        W56385   8.355   9.810   0.255
84857W        W56386  12.205  31.632   1.655
84858W        W56387  41.749  37.882   0.794
84859W        W56388  18.247  15.996   0.317
84860W        W56389  18.144  27.247  12.521
84861W        W56390  35.842   8.019   4.902
84862W        W56391   0.864  27.680  14.515
84863W        W56392  32.373  29.422   2.703
84864W        W56393  12.304  44.816   2.807
84865W        W56394   0.949  13.244   2.640
84866W        W56395  23.021   3.455  11.188
84867W        W56396  25.092  26.792   4.511
84868W        W56397  17.759  22.502  14.861
84869W        W56398  25.914  22.071  13.972
84870W        W56399  30.663  23.150  11.491
84871W        W56400  22.082   9.942   1.355
84872W        W56401  38.429   0.790   4.574
84873W        W56402  23.067  21.784   2.786
84874W        W56403   2.892   0.848   4.266
84875W        W56404  23.474  32.807   3.204
84876W        W56405  32.355  44.468   2.837
84877W        W56406  10.757  26.928   1.719
84878W        W56407  37.966  43.223   4.775
84879W        W56408  10.188  39.345  11.416
84880W        W56409  21.203  23.758  12.522
84881W        W56410  39.882  40.517  14.809
84882W        W56411  34.078  17.136  10.711
84883W        W56412  23.669  36.869   3.143
84884W        W56413  22.076   4.035   3.143
84885W        W56414   3.553  37.329  14.583
84886W        W56415  40.957   4.516   0.368
84887W        W56416   3.010   1.806   0.437
84888W        W56417  22.080  26.388   0.292
84889W        W56418  40.883   0.918  12.606
84890W        W56419  40.412   4.629   0.332
84891W        W56420   4.931   1.712   4.629
84892W        W56421  23.880   6.028  12.734
84893W        W56422   7.852  30.199   1.060
84894W        W56423  20.370  16.205  14.069
84895W        W56424  15.736   8.387   2.388
84896W        W56425  22.183  12.622   3.540
84897W        W56426  33.537  28.373   2.731
84898W        W56427  17.791   1.336  11.868
84899W        W56428   5.633  19.589   2.538
84900W        W56429  37.522  14.587   1.650
84901W        W56430  28.990  27.669   0.048
84902W        W56431  31.402  22.754  14.943
84903W        W56432  43.609  31.378  10.784
84904W        W56433  42.274   1.246   0.305
84905W        W56434   0.819  44.169  14.849
84906W        W56435   1.506  30.095  12.245
84907W        W56436  37.828   8.192  12.125
84908W        W56437  40.541  18.600   1.752
84909W        W56438  34.348   5.176   1.419
84910W        W56439  36.463  27.545   3.772
84911W        W56440  38.851  29.125  12.442
84912W        W56441   7.934  42.320  14.940
84913W        W56442  19.929  31.950   2.008
84914W        W56443  13.194  15.104   3.666
84915W        W56444  26.538  18.242  12.637
84916W        W56445  44.097   6.736   3.803
84917W        W56446  22.566  13.921  13.467
84918W        W56447  44.796   7.512  13.618
84919W        W56448  39.083  44.793   3.566
84920W        W56449   0.972  13.693   3.475
84921W        W56450   3.798  10.228   4.471
84922W        W56451  24.643   0.007   1.667
84923W        W56452   2.532  37.309  10.104
84924W        W56453  32.069   0.466  12.840
84925W        W56454  44.073  19.601   0.760
84926W        W56455  39.252  15.227  10.274
84927W        W56456  43.806  36.602   1.774
84928W        W56457  12.911  27.282  10.773
84929W        W56458  14.002  26.907  12.558
84930W        W56459  27.496   0.300   4.710
84931W        W56460  28.792   2.921   2.691
84932W        W56461  25.200  30.590  12.076
84933W        W56462  42.976  43.333  13.254
84934W        W56463  20.101  28.672   1.241
84935W        W56464  18.413  37.491   2.801
84936W        W56465  22.835  32.786   4.802
84937W        W56466  22.918  40.027  14.268
84938W        W56467  14.345  30.409   1.252
84939W        W56468  22.197  21.368   2.506
84940W        W56469  20.837  19.133   1.317
84941W        W56470  20.867   8.804  14.346
84942W        W56471  38.903   7.377   2.344
84943W        W56472   2.784   8.903  14.322
84944W        W56473  33.877  19.740  12.427
84945W        W56474   8.192  24.397  14.800
84946W        W56475   8.895   3.721   2.016
84947W        W56476  39.356   5.987   3.814
84948W        W56477  32.530  32.330  13.932
84949W        W56478  28.289   2.844   2.796
84950W        W56479  39.397  29.616  13.380
84951W        W56480  32.722   6.523   0.868
84952W        W56481  37.474  13.242   3.296
84953W        W56482  19.545  34.405   3.636
84954W        W56483  10.485  15.919   3.745
84955W        W56484  37.980  41.060  11.360
84956W        W56485  39.320  38.902  13.264
84957W        W56486  26.346  24.690  10.827
84958W        W56487  24.113   6.612   0.248
84959W        W56488   4.890  34.324  12.887
84960W        W56489  44.798   2.046   3.197
84961W        W56490  28.577  33.734  11.621
84962W        W56491   2.523  43.166  10.736
84963W        W56492   7.959  35.545  13.561
84964W        W56493  40.303  10.166   1.844
84965W        W56494  20.971  16.223  12.861
84966W        W56495  30.659  38.429   2.792
84967W        W56496  15.966  24.856  12.330
84968W        W56497   3.926  23.579  10.613
84969W        W56498  21.932  44.482  13.480
84970W        W56499  43.399  33.578   1.751
84971W        W56500   4.263   6.668   1.744
84972W        W56501  28.150  38.461  13.447
84973W        W56502  22.942   0.819   3.939
84974W        W56503  36.506  18.654   3.904
84975W        W56504  21.671  43.022  14.747
84976W        W56505  27.557  29.042  12.425
84977W        W56506  42.457  25.985  14.235
84978W        W56507  40.275  24.291   1.764
84979W        W56508  35.023  42.262  13.319
84980W        W56509  12.558  37.859   1.337
84981W        W56510  14.146  35.995   1.944
84982W        W56511  13.194  38.022   4.433
84983W        W56512  27.950   3.751  12.031
84984W        W56513  20.500   1.204   3.632
84985W        W56514   8.394  14.052   4.887
84986W        W56515  13.043  43.136  11.594
84987W        W56516  21.820  28.971  13.692
84988W        W56517   8.654   9.332  13.995
84989W        W56518  14.701  22.280   2.283
84990W        W56519  40.013  18.396  12.051
84991W        W56520   0.540  30.599  14.024
84992W        W56521  16.270  28.908  13.086
84993W        W56522  42.817  15.617  11.671
84994W        W56523  27.256   2.322   2.327
84995W        W56524  20.648  29.467  12.640
84996W        W56525  36.451  13.442   3.406
84997W        W56526  36.952  17.134  12.862
84998W        W56527  43.950  44.868   4.403
84999W        W56528  36.906  31.157  14.873
85000W        W56529  18.552   1.690  10.268
85001W        W56530  23.750  21.999   3.195
85002W        W56531   5.203  21.185  10.704
85003W        W56532  10.884  34.080   2.347
85004W        W56533   8.267   6.729  11.562
85005W        W56534  18.353  20.887  11.143
85006W        W56535  32.620   6.267   3.590
85007W        W56536  17.768  40.575   3.375
85008W        W56537  27.419  18.048   3.700
85009W        W56538   0.722  43.092  10.777
85010W        W56539   8.783  33.473   4.351
85011W        W56540  19.137  32.787  12.634
85012W        W56541   5.660  18.424  14.093
85013W        W56542   5.784  25.504  13.099
85014W        W56543   0.808  44.726   1.778
85015W        W56544  41.388  26.395  11.632
85016W        W56545  14.630  43.309  12.974
85017W        W56546   5.452  28.919  14.800
85018W        W56547  18.138  40.003   4.275
85019W        W56548   0.437  36.419   2.421
85020W        W56549  31.987  24.095   5.513
85021W        W56550  33.538  36.926  11.070
85022W        W56551  35.397  25.119   2.255
85023W        W56552   7.134  22.002   3.643
85024W        W56553  26.219  41.357   2.271
85025W        W56554  20.397  12.992  10.163
85026W        W56555   7.258   5.727   1.003
85027W        W56556  10.777   8.124  12.538
85028W        W56557  10.736  13.601  12.021
85029W        W56558  21.218  18.712   3.851
85030W        W56559  18.374  27.708  12.546
85031W        W56560  33.168  36.053  14.671
85032W        W56561  37.464  29.606   4.321
85033W        W56562  37.081  17.783   1.553
85034W        W56563   5.847  30.707   3.701
85035W        W56564  14.227   9.202  11.920
85036W        W56565   8.511  14.832   1.859
85037W        W56566  11.678   2.252  11.842
85038W        W56567   7.348  25.583  13.965
85039W        W56568  17.213  19.419   2.609
85040W        W56569  28.436   5.763   3.099
85041W        W56570  19.052  12.281   3.653
85042W        W56571  19.523   5.944  11.503
85043W        W56572  34.487  29.064   3.959
85044W        W56573  42.622  17.414  12.531
85045W        W56574  24.039  26.504   4.198
85046W        W56575  27.494  40.352  11.160
85047W        W56576  16.321  11.980   4.087
85048W        W56577  22.239  18.501  12.597
85049W        W56578  32.500  38.910   3.242
85050W        W56579   2.306  40.941   4.145
85051W        W56580  35.585  43.853  14.316
85052W        W56581   4.809  12.864   1.754
85053W        W56582  31.662  41.833   2.490
85054W        W56583  24.562  20.259   1.706
85055W        W56584   4.259  27.205  14.930
85056W        W56585   4.884  31.713   3.937
85057W        W56586  34.138  28.050   0.056
85058W        W56587   6.824  17.555   2.435
85059W        W56588  42.077  11.170   3.212
85060W        W56589   4.755  43.564   3.583
85061W        W56590  43.516  17.078   0.817
85062W        W56591  12.752  31.674   1.336
85063W        W56592  36.114  13.676  13.400
85064W        W56593  38.087  34.404   1.345
85065W        W56594  33.019  23.482   0.438
85066W        W56595  30.806  39.049  14.275
85067W        W56596  19.520  19.522  14.478
85068W        W56597  21.581  37.843  14.239
85069W        W56598  10.857  38.599  11.968
85070W        W56599  26.781  24.729   3.026
85071W        W56600  17.505  17.646  14.075
85072W        W56601  37.332   4.194  14.214
85073W        W56602   4.646  39.431   2.165
85074W        W56603  31.609  36.889  12.502
85075W        W56604  17.604  39.419  13.563
85076W        W56605   6.335  37.944   3.883
85077W        W56606  14.711  10.651   1.843
85078W        W56607  36.351  11.696  13.403
85079W        W56608  18.343  27.700   3.169
85080W        W56609  14.512  25.507  11.030
85081W        W56610  15.992  22.974  14.424
85082W        W56611  13.201  30.439  14.061
85083W        W56612  10.123  31.707  12.354
85084W        W56613   3.417  27.946   1.154
85085W        W56614  16.121  28.355   0.774
85086W        W56615   3.501   1.718   2.301
85087W        W56616  24.605  44.104  10.738
85088W        W56617  37.131  30.953   0.319
85089W        W56618   7.301  35.322  14.266
85090W        W56619  42.756  28.694   2.266
85091W        W56620  30.246  37.407   3.084
85092W        W56621   0.500  39.034   3.434
85093W        W56622  29.525  17.837  13.977
85094W        W56623  43.825  38.459   4.624
85095W        W56624  35.015  37.878  10.478
85096W        W56625   4.971  10.828   1.839
85097W        W56626   6.442  40.861  12.522
85098W        W56627  40.146   0.439  12.260
85099W        W56628  40.825  40.386  12.916
85100W        W56629   0.833  43.289   1.868
85101W        W56630   9.912  17.109   4.995
85102W        W56631  25.477  10.158   3.125
85103W        W56632  13.246  17.066  11.339
85104W        W56633  23.612   2.714   4.114
85105W        W56634  34.526  26.508   3.749
85106W        W56635  28.393  19.383  12.572
85107W        W56636   2.155  40.437  11.563
85108W        W56637   4.026  29.908   1.682
85109W        W56638  23.636  21.754   4.940
85110W        W56639  12.757  22.543  12.078
85111W        W56640  43.804  27.429  11.373
85112W        W56641  30.632  32.193  10.289
85113W        W56642  11.782  36.045   4.137
85114W        W56643  31.952  23.490  11.475
85115W        W56644  33.071   9.622   3.549
85116W        W56645  22.529  14.640  14.103
85117W        W56646  37.758  30.423   3.726
85118W        W56647  26.220  18.934   3.511
85119W        W56648   4.879  27.543   3.268
85120W        W56649  42.258  22.725   4.083
85121W        W56650  29.692  22.102  11.865
85122W        W56651  24.545  31.076  13.142
85123W        W56652  28.631  34.373   1.384
85124W        W56653  44.747   3.702   2.659
85125W        W56654  20.301   4.113  13.989
85126W        W56655  40.382   6.698   0.746
85127W        W56656  16.611   0.405   1.962
85128W        W56657  13.247   8.134   3.741
85129W        W56658  23.071  33.978  13.222
85130W        W56659   6.680  11.579   2.678
85131W        W56660  29.600   5.205   3.308
85132W        W56661   7.855  14.550   0.060
85133W        W56662  30.004  11.860  13.332
85134W        W56663  17.522  11.405  14.063
85135W        W56664   9.875   2.356   1.344
85136W        W56665  40.038  18.169  11.105
85137W        W56666   7.324   3.443   4.685
85138W        W56667  34.933  39.741  12.445
85139W        W56668  36.062  18.813  13.268
85140W        W56669   1.675  27.957   2.005
85141W        W56670  20.635  14.023  11.085
85142W        W56671  42.332   5.562  11.594
85143W        W56672  39.630  44.492   4.220
85144W        W56673  37.272  30.318   3.690
85145W        W56674  16.142  17.150   1.432
85146W        W56675  44.009  10.153  11.509
85147W        W56676  28.876  29.069   3.889
85148W        W56677  20.537   5.259  10.933
85149W        W56678   3.352  21.187  14.358
85150W        W56679  43.146  42.315  10.606
85151W        W56680  16.610  17.903   4.997
85152W        W56681  42.409  34.551  11.396
85153W        W56682  34.122  16.555   1.409
85154W        W56683  31.605  40.117  14.299
85155W        W56684   1.694  15.520  12.436
85156W        W56685  22.654  35.732  14.287
85157W        W56686  26.056   0.016   3.251
85158W        W56687  38.212  10.203  11.253
85159W        W56688  25.598  41.999  11.152
85160W        W56689  40.716  13.310  13.108
85161W        W56690  10.888  23.119  14.056
85162W        W56691   1.370   5.862  10.644
85163W        W56692   6.881  20.240   1.402
85164W        W56693  44.047  37.979  13.871
85165W        W56694  26.404  14.804  12.370
85166W        W56695  14.609  31.969  13.009
85167W        W56696   2.935  26.871   4.841
85168W        W56697  25.187  25.093  11.532
85169W        W56698  42.388  22.657   3.086
85170W        W56699  33.821  28.737   3.435
85171W        W56700  10.768   1.298  12.955
85172W        W56701  17.822  42.438   2.391
85173W        W56702  39.000  25.284   4.161
85174W        W56703  28.417  35.991  11.529
85175W        W56704   4.416  37.739   2.134
85176W        W56705  34.238  25.789   5.636
85177W        W56706   2.930  41.257  13.434
85178W        W56707  37.680  36.437   0.939
85179W        W56708  18.990  31.710   0.567
85180W        W56709  34.342  40.342  14.922
85181W        W56710  14.825  44.542   3.689
85182W        W56711   8.178  12.187   3.053
85183W        W56712   6.749   0.753  10.712
85184W        W56713  22.093  39.437   4.239
85185W        W56714   7.705  15.725  14.333
85186W        W56715  29.974  30.978   3.883
85187W        W56716   3.395  37.739  13.337
85188W        W56717  18.652  26.353   1.069
85189W        W56718  37.412  36.346   3.247
85190W        W56719  27.763  26.900  13.550
85191W        W56720   4.845  23.827  13.664
85192W        W56721  37.068  10.689   0.479
85193W        W56722  40.354  40.702  14.956
85194W        W56723  30.640  38.414   3.732
85195W        W56724  23.233   9.730  13.051
85196W        W56725   4.170  20.133   3.851
85197W        W56726  10.155  22.769  14.852
85198W        W56727  30.509  28.000   1.783
85199W        W56728   9.525   7.705   3.936
85200W        W56729   2.352  18.708   4.527
85201W        W56730  19.216  23.123  10.829
85202W        W56731  20.069  16.563   3.731
85203W        W56732  18.625   8.885   3.425
85204W        W56733   3.911  11.121   1.449
85205W        W56734  36.864  16.081   3.638
85206W        W56735  32.399  41.077  13.060
85207W        W56736  23.800  40.530   4.526
85208W        W56737  13.464   5.624   0.973
85209W        W56738   9.372  37.440   3.650
85210W        W56739  26.231  14.699   3.206
85211W        W56740   8.463   5.446  11.160
85212W        W56741  31.995   3.881  14.130
85213W        W56742  17.219  32.110   0.908
85214W        W56743  33.450   2.964   3.249
85215W        W56744  14.978  11.430   4.988
85216W        W56745  13.302  42.590  13.338
85217W        W56746  37.950   3.347   1.911
85218W        W56747  29.110  37.481  10.906
85219W        W56748   1.864  17.908   1.031
85220W        W56749  26.565  39.751  14.628
85221W        W56750  24.409  19.639   0.532
85222W        W56751  43.878   5.682   1.140
85223W        W56752   5.436  23.645   2.294
85224W        W56753  14.621  22.361   4.135
85225W        W56754  13.856  20.051   0.351
85226W        W56755  26.111  22.021   4.241
85227W        W56756  41.496  43.752  10.816
85228W        W56757  36.561  38.586  12.105
85229W        W56758   8.759  34.360   2.564
85230W        W56759  35.407  28.861  14.794
85231W        W56760  38.478  39.828  13.090
85232W        W56761   7.939  28.181   3.981
85233W        W56762  36.636  26.190  11.933
85234W        W56763  29.713  19.668  13.540
85235W        W56764   5.203  39.632  11.177
85236W        W56765  25.078  33.509   2.196
85237W        W56766  21.057  36.971   0.375
85238W        W56767  30.795  43.055  11.547
85239W        W56768  42.483  36.585   4.861
85240W        W56769  25.313  32.532   0.814
85241W        W56770  23.297  36.335   1.378
85242W        W56771  21.469   6.410  14.961
85243W        W56772   6.316  19.350   4.569
85244W        W56773  41.763   0.161  14.026
85245W        W56774  29.043  14.932  12.062
85246W        W56775  32.442  36.435  14.444
85247W        W56776   0.331  15.134   4.555
85248W        W56777  39.519  44.445  14.005
85249W        W56778   6.004  39.364   0.884
85250W        W56779  22.262  28.142   0.874
85251W        W56780  22.803  41.361  14.772
85252W        W56781  43.616  24.964   4.284
85253W        W56782  11.872  23.531   1.313
85254W        W56783  38.560  42.896  11.299
85255W        W56784  34.789   2.689   3.065
85256W        W56785   6.354  21.218   1.286
85257W        W56786  32.606  17.313  10.524
85258W        W56787  10.390  22.667  10.861
85259W        W56788  36.418  38.253   4.531
85260W        W56789  21.504  20.157   1.692
85261W        W56790  34.012  18.253  11.910
85262W        W56791  19.664  31.645  12.123
85263W        W56792  32.372   7.883  11.545
85264W        W56793  31.982   5.811   0.742
85265W        W56794   7.264   0.695  10.795
85266W        W56795  13.406  23.674   4.572
85267W        W56796  27.661  16.021  12.120
85268W        W56797  25.841  11.340  14.960
85269W        W56798  34.633  10.252  13.530
85270W        W56799   8.727  36.595   1.878
85271W        W56800   3.326  10.970  14.730
85272W        W56801  24.207  29.652   1.405
85273W        W56802  18.122  19.172  10.611
85274W        W56803   2.645  10.742  11.516
85275W        W56804  23.599  38.430   4.741
85276W        W56805   3.223  42.379  13.063
85277W        W56806   1.915  24.323   4.538
85278W        W56807  27.494  18.578  13.872
85279W        W56808  11.802   9.725  12.146
85280W        W56809  43.895  11.316  14.393
85281W        W56810  25.953  31.050  14.802
85282W        W56811  37.051  43.230   3.326
85283W        W56812  16.009   8.707  12.868
85284W        W56813   0.023  36.781   0.484
85285W        W56814  25.252  36.512  11.206
85286W        W56815  15.301  22.680   3.912
85287W        W56816  42.277  44.809   3.283
85288W        W56817  40.448  14.566  11.443
85289W        W56818  40.211  32.203   4.022
85290W        W56819  33.032  31.055  11.715
85291W        W56820   1.991   8.187   0.000
85292W        W56821   8.905  36.545  10.680
85293W        W56822  29.382   5.396  11.520
85294W        W56823   3.893  18.320   4.047
85295W        W56824   5.204  33.708   0.904
85296W        W56825  30.013  32.648   2.400
85297W        W56826  20.381  18.220  13.569
85298W        W56827  19.718  33.915   3.682
85299W        W56828   9.424  27.584  12.593
85300W        W56829  32.576  22.624  12.042
85301W        W56830  17.014  31.178   2.301
85302W        W56831  29.673  27.115   0.805
85303W        W56832  42.640  20.271  11.578
85304W        W56833  12.377  36.172  11.521
85305W        W56834  24.724  14.837  12.074
85306W        W56835  22.398  21.813   2.359
85307W        W56836  23.497  36.622   0.367
85308W        W56837  23.966  17.933   3.610
85309W        W56838  14.480  20.971  14.307
85310W        W56839  36.977  15.610  10.754
85311W        W56840  19.597  14.845   1.235
85312W        W56841   1.903  24.463  11.267
85313W        W56842  13.889   7.886  13.916
85314W        W56843  31.065  40.596   3.672
85315W        W56844   8.804  14.675  11.228
85316W        W56845  25.029  10.152   4.502
85317W        W56846  15.313  30.529  14.024
85318W        W56847  35.931  25.619  11.527
85319W        W56848  34.891  11.819  13.246
85320W        W56849  36.263   6.903   3.303
85321W        W56850  11.111  33.909   2.769
85322W        W56851  29.605  16.626   2.978
85323W        W56852  27.826  36.508   2.871
85324W        W56853  19.324  32.864  13.468
85325W        W56854  27.874  21.517  14.340
85326W        W56855  39.395   2.890  10.655
85327W        W56856  37.020   8.744  13.452
85328W        W56857  11.926  16.308  13.448
85329W        W56858  32.075  31.348   1.170
85330W        W56859  19.252  18.557   4.596
85331W        W56860  16.767  10.440  13.531
85332W        W56861  20.968   0.139  11.192
85333W        W56862  24.024  16.306   1.416
85334W        W56863  19.399   4.887   9.954
85335W        W56864  38.868  20.273  10.581
85336W        W56865  35.065  13.532   1.906
85337W        W56866  19.846  38.893  12.536
85338W        W56867  38.862  34.172   0.437
85339W        W56868  17.451   4.259  14.970
85340W        W56869  38.907   4.092  13.929
85341W        W56870  27.637  24.409  11.352
85342W        W56871  23.247   0.718  12.054
85343W        W56872  43.295  16.532   2.861
85344W        W56873  16.308  31.926  14.921
85345W        W56874  14.795   5.665   3.186
85346W        W56875  29.988  26.597  10.184
85347W        W56876  33.372  24.616  13.233
85348W        W56877  39.847  42.607  10.761
85349W        W56878   9.608  16.735   1.890
85350W        W56879  23.980   1.280   0.833
85351W        W56880  13.215  34.705  11.559
85352W        W56881  43.221  31.806   3.357
85353W        W56882  34.932   3.697  11.234
85354W        W56883  31.068  36.454  14.074
85355W        W56884  41.332  20.515  11.440
85356W        W56885  17.169  14.133   2.936
85357W        W56886   5.721  16.036   4.575
85358W        W56887   9.369  21.746   0.898
85359W        W56888  20.229   1.216  11.827
85360W        W56889  22.374  14.830   3.840
85361W        W56890  40.518  38.556  14.805
85362W        W56891   3.922  44.153  11.226
85363W        W56892  31.065  32.632  14.955
85364W        W56893  16.521  32.049  13.016
85365W        W56894  41.498  44.715   2.209
85366W        W56895  32.536   3.256   1.747
85367W        W56896  36.103  37.937   2.874
85368W        W56897   0.958   3.191  13.033
85369W        W56898   8.386  38.029   0.718
85370W        W56899  32.979   2.253  12.462
85371W        W56900  27.597   3.491   1.799
85372W        W56901  29.194  27.502   2.837
85373W        W56902  33.644  13.073  14.299
85374W        W56903  24.519   9.103   3.322
85375W        W56904  44.691  11.704  12.480
85376W        W56905   3.398  10.562   0.541
85377W        W56906  22.731  18.126   2.230
85378W        W56907  35.524  24.998   1.762
85379W        W56908  33.794   2.957  13.855
85380W        W56909   5.257   4.164  10.693
85381W        W56910  17.294   4.847   3.585
85382W        W56911  41.674  21.214   0.384
85383W        W56912  43.799  13.075  12.127
85384W        W56913  23.157   3.222  14.308
85385W        W56914  26.288  34.454  11.186
85386W        W56915  12.250  40.024  14.872
85387W        W56916  33.469   8.207  12.284
85388W        W56917  27.479  33.697  12.164
85389W        W56918  24.985  22.111   4.880
85390W        W56919   9.349  20.208   4.179
85391W        W56920  33.614  37.945  14.402
85392W        W56921  26.056  27.991   0.114
85393W        W56922  12.777  41.054   1.824
85394W        W56923  30.304  23.734   2.172
85395W        W56924   0.298  29.674   3.679
85396W        W56925  20.523   5.190  11.464
85397W        W56926  39.420  39.191   1.449
85398W        W56927   7.326   3.514   0.470
85399W        W56928  23.363   8.384   2.810
85400W        W56929   8.735  42.023   0.209
85401W        W56930  36.915  42.844  11.205
85402W        W56931  17.730  43.580   1.449
85403W        W56932  25.216  18.952  12.412
85404W        W56933  15.583  42.262   1.306
85405W        W56934  15.239  22.328   1.194
85406W        W56935  42.298  37.055  12.913
85407W        W56936   6.705  44.953   3.097
85408W        W56937   4.615  29.228   2.307
85409W        W56938   0.273  34.078  13.398
85410W        W56939  25.072  13.706  10.728
85411W        W56940  10.399  18.841   3.193
85412W        W56941   7.875  19.002   3.553
85413W        W56942  40.440  39.418  13.326
85414W        W56943  26.050  21.082   0.245
85415W        W56944  26.918  27.472  13.047
85416W        W56945  44.835  13.905   3.183
85417W        W56946  12.674  13.773   0.244
85418W        W56947   1.967  39.777   0.219
85419W        W56948   0.057  36.365   1.525
85420W        W56949  31.570  22.096  12.534
85421W        W56950   3.637  31.979   0.879
85422W        W56951  13.110   7.052   1.239
85423W        W56952  38.951  29.615   3.186
85424W        W56953  32.083   8.943  10.204
85425W        W56954  38.473  35.812   3.814
85426W        W56955  26.660  26.710  12.075
85427W        W56956  11.370  41.311  12.291
85428W        W56957  19.493   6.757  11.189
85429W        W56958  14.608  18.230  11.165
85430W        W56959   0.226  43.323  10.704
85431W        W56960   6.334  23.712   2.398
85432W        W56961  17.082  33.162   1.870
85433W        W56962  19.684  28.191  10.699
85434W        W56963  21.182  36.898   1.801
85435W        W56964  43.414   5.912   1.788
85436W        W56965  37.964  14.246  11.404
85437W        W56966   4.410   6.263   0.915
85438W        W56967  26.595  15.743   3.232
85439W        W56968   1.739  35.090   3.203
85440W        W56969  18.149  29.519   1.216
85441W        W56970   7.929  38.885  12.052
85442W        W56971  25.198  37.362   1.879
85443W        W56972  26.625  19.210   0.628
85444W        W56973  41.094   7.428   3.622
85445W        W56974  23.085   9.070  14.930
85446W        W56975   8.889  13.885  13.118
85447W        W56976  10.212  21.146  14.480
85448W        W56977  19.594   3.663   2.294
85449W        W56978  15.385  18.614   0.686
85450W        W56979  19.298  36.961  13.390
85451W        W56980  11.278  40.542  12.910
85452W        W56981  23.136   7.629   2.336
85453W        W56982  22.691  32.509   0.237
85454W        W56983   1.454   6.200   4.050
85455W        W56984  33.399  27.598   0.195
85456W        W56985  16.363   0.989   4.164
85457W        W56986   7.085   7.331   3.381
85458W        W56987   7.887  42.244   4.261
85459W        W56988  32.588  29.948  11.178
85460W        W56989  39.663  23.961   1.171
85461W        W56990   4.555  40.425  13.949
85462W        W56991  10.429  12.247  10.958
85463W        W56992  16.109  16.568  12.406
85464W        W56993   5.850  20.999  12.482
85465W        W56994   0.042  26.291  14.260
85466W        W56995  43.871  34.464   4.593
85467W        W56996  39.117   9.399   2.896
85468W        W56997  42.685   4.362  14.912
85469W        W56998  22.505  29.156   4.118
85470W        W56999  38.806   5.823   9.915
85471W        W57000  27.520  41.867   3.077
85472W        W57001  43.744  13.873  13.444
85473W        W57002  30.984   2.280   2.004
85474W        W57003  38.538   0.077  12.375
85475W        W57004   2.961   4.912  12.551
85476W        W57005   5.065  16.245  14.445
85477W        W57006  44.793  34.578  11.472
85478W        W57007  14.148  10.243  11.046
85479W        W57008  41.416  13.733   3.130
85480W        W57009  41.945  43.835   1.441
85481W        W57010  35.550  28.092   3.823
85482W        W57011  42.365  27.406  14.328
85483W        W57012  40.302  39.510  11.942
85484W        W57013  32.996  44.065   2.136
85485W        W57014  31.646  21.193   3.639
85486W        W57015  39.645   2.961  11.088
85487W        W57016  26.686   3.352  14.710
85488W        W57017   4.754  11.849  11.646
85489W        W57018  32.220  43.479  14.365
85490W        W57019  11.512   0.271  14.248
85491W        W57020  36.650  25.336   5.350
85492W        W57021  24.673  20.591   3.682
85493W        W57022  16.695   0.429   4.402
85494W        W57023  41.802  35.195  10.797
85495W        W57024   5.327   7.478  13.921
85496W        W57025  41.953  27.279  12.536
85497W        W57026  25.184  18.722  14.488
85498W        W57027   0.237  40.512  10.514
85499W        W57028  41.974   8.679   2.272
85500W        W57029  34.605   9.806  12.890
85501W        W57030  28.712  20.317   3.841
85502W        W57031  20.280  14.203   2.807
85503W        W57032  24.763  12.288   4.116
85504W        W57033  26.517  40.254  14.598
85505W        W57034  16.672  42.828   1.731
85506W        W57035  20.500  28.482  11.006
85507W        W57036  33.515   4.178   0.772
85508W        W57037  39.361  21.318  11.969
85509W        W57038  42.546  18.623   4.617
85510W        W57039  21.026  28.729   0.714
85511W        W57040   9.383  18.695   4.614
85512W        W57041   3.748   2.191  13.659
85513W        W57042  38.035  22.384  12.347
85514W        W57043  20.925  34.313  10.380
85515W        W57044  27.624  14.687   2.429
85516W        W57045  40.002  20.286   2.359
85517W        W57046  33.961  20.564   2.953
85518W        W57047  30.601   4.240   0.486
85519W        W57048  32.025  22.019   0.176
85520W        W57049   1.518  12.095  13.525
85521W        W57050  18.436  35.093   3.782
85522W        W57051  16.756  34.125  14.368
85523W        W57052   3.321  20.844   0.893
85524W        W57053   3.325   7.262   2.248
85525W        W57054   3.404  33.759   4.661
85526W        W57055  34.904  19.609  13.431
85527W        W57056  25.619   3.061   3.920
85528W        W57057   6.936  19.164   2.260
85529W        W57058   4.335  21.989  11.158
85530W        W57059   0.149  23.211  13.383
85531W        W57060  30.079  16.702  14.087
85532W        W57061  37.321  26.105   0.389
85533W        W57062  26.573  14.448  13.288
85534W        W57063   9.730   2.497   3.157
85535W        W57064  24.539  44.974   4.203
85536W        W57065  13.799  41.775   2.266
85537W        W57066  38.866   6.315  13.067
85538W        W57067  40.951  29.418   0.334
85539W        W57068   4.343  37.098  13.045
85540W        W57069  25.291  43.993  14.869
85541W        W57070   5.316  32.896  11.579
85542W        W57071  35.590  35.842  14.949
85543W        W57072   1.483  28.050   0.956
85544W        W57073  29.937  43.993  12.031
85545W        W57074   9.830  32.238  13.412
85546W        W57075  28.801  17.789   0.915
85547W        W57076  24.493  16.179  13.348
85548W        W57077  44.663  37.502  14.963
85549W        W57078  13.128  18.067   4.923
85550W        W57079  17.622  19.005   0.899
85551W        W57080   3.936  10.059   3.274
85552W        W57081  35.138  27.570  10.543
85553W        W57082   6.850  18.049   4.281
85554W        W57083  20.761   5.173   2.650
85555W        W57084  12.638   0.742  14.425
85556W        W57085  19.464  37.023   4.119
85557W        W57086  17.039  31.236   3.122
85558W        W57087  39.462  41.546  10.681
85559W        W57088  33.915  23.517   2.912
85560W        W57089  43.152  19.833  12.848
85561W        W57090  43.751  22.439   1.679
85562W        W57091  13.809  25.048   4.371
85563W        W57092  15.152  15.947   4.613
85564W        W57093   0.647  19.297   4.203
85565W        W57094  33.254  34.457  10.045
85566W        W57095   2.258  27.208  11.598
85567W        W57096   0.057  36.435   2.817
85568W        W57097  24.948  21.185   4.957
85569W        W57098  34.095  28.840  14.964
85570W        W57099  42.146   2.368   1.223
85571W        W57100  21.067  13.195  11.681
85572W        W57101  44.179  29.056   0.854
85573W        W57102   2.917  13.258   0.409
85574W        W57103  21.611  25.103  14.401
85575W        W57104  23.438   0.467   1.874
85576W        W57105   3.463   4.633   3.813
85577W        W57106  30.717  33.496   3.554
85578W        W57107   9.644   8.889   4.129
85579W        W57108   9.253  34.596  10.246
85580W        W57109  37.176  15.966   4.065
85581W        W57110   9.966  24.667  13.038
85582W        W57111  38.076  27.446   3.179
85583W        W57112   4.696   2.976  10.184
85584W        W57113  29.636   5.961   4.510
85585W        W57114   4.332   9.225  13.471
85586W        W57115  25.521  11.114   2.823
85587W        W57116  37.377  37.526   4.122
85588W        W57117   9.980  15.071   4.175
85589W        W57118  36.815  22.690   2.366
85590W        W57119  15.783  39.323   0.288
85591W        W57120  22.072  43.018  11.623
85592W        W57121  38.967   9.329   0.555
85593W        W57122  35.531  15.750   1.634
85594W        W57123  35.525  25.796  14.576
85595W        W57124  23.434   0.963   3.858
85596W        W57125  39.379  18.994   3.886
85597W        W57126  10.209   6.009  12.069
85598W        W57127  29.227  38.524   1.333
85599W        W57128  38.097  36.988  11.516
85600W        W57129   9.438   1.652  14.547
85601W        W57130  10.269  30.460  13.435
85602W        W57131  18.337  39.549  13.812
85603W        W57132  13.347  12.571   2.805
85604W        W57133  42.835  18.257  12.717
85605W        W57134  10.206  34.485   1.375
85606W        W57135  22.076  29.632   4.778
85607W        W57136  14.318  19.174   0.253
85608W        W57137  27.483   4.894   4.777
85609W        W57138  11.787  39.689   2.564
85610W        W57139  20.685   5.750  11.525
85611W        W57140  17.419  13.116  10.794
85612W        W57141  36.821  11.263  12.479
85613W        W57142   6.581  39.384  14.982
85614W        W57143  10.324  26.464  14.782
85615W        W57144  14.501  18.154  13.848
85616W        W57145  23.115  13.817   0.267
85617W        W57146  23.024   5.332  11.206
85618W        W57147   4.804  25.487   4.175
85619W        W57148  33.833  44.981  11.552
85620W        W57149  19.114   7.205   0.741
85621W        W57150  21.057  43.888   0.961
85622W        W57151  37.796  25.704  12.874
85623W        W57152  12.282   4.010  10.515
85624W        W57153  31.860  35.830   4.643
85625W        W57154  38.470  32.197  14.458
85626W        W57155  36.696   8.671   3.210
85627W        W57156   6.416  19.472   5.522
85628W        W57157  38.772   7.438  11.349
85629W        W57158  11.789  35.403  12.098
85630W        W57159  17.573  39.363  10.574
85631W        W57160  27.073  32.786  10.252
85632W        W57161  33.876   9.075  10.544
85633W        W57162  32.005  28.980  12.103
85634W        W57163   2.062  41.406  11.299
85635W        W57164  22.460  28.944  11.601
85636W        W57165   1.980   4.239   4.217
85637W        W57166  42.584   9.797  10.169
85638W        W57167   1.112  27.980   1.346
85639W        W57168  21.196  26.002  12.167
85640W        W57169  17.707  32.773   0.648
85641W        W57170  38.526  35.451  13.368
85642W        W57171  44.982  39.299   1.834
85643W        W57172  37.595  14.111   1.876
85644W        W57173   7.175  43.010   0.687
85645W        W57174  30.137   1.775  13.071
85646W        W57175  33.930  21.155  13.939
85647W        W57176  19.488  36.465   4.167
85648W        W57177  19.276   0.910  14.388
85649W        W57178  15.130  41.055  14.391
85650W        W57179  11.433  44.758   0.968
85651W        W57180   2.985  11.144   3.296
85652W        W57181  16.854   1.303  12.049
85653W        W57182  17.313   6.178  14.932
85654W        W57183  36.999  34.641   1.689
85655W        W57184  37.345   7.700   4.545
85656W        W57185   4.905  28.047   3.063
85657W        W57186   6.450  24.236  14.187
85658W        W57187  17.421   0.799  11.000
85659W        W57188   4.039   1.992  14.067
85660W        W57189   7.731  20.958  14.323
85661W        W57190  16.641  33.887  14.832
85662W        W57191  19.574  18.257  12.240
85663W        W57192   4.730  30.268   1.169
85664W        W57193  33.433  28.662   3.749
85665W        W57194  31.857  16.048  11.198
85666W        W57195   3.422  34.951  10.552
85667W        W57196   3.939   3.763   2.625
85668W        W57197  37.556  20.710   3.800
85669W        W57198   2.907  38.116   1.202
85670W        W57199  42.259   5.212  10.922
85671W        W57200  37.458   6.373   0.529
85672W        W57201  23.656   6.104   3.754
85673W        W57202  42.791  36.918  12.023
85674W        W57203  23.697   6.558  13.866
85675W        W57204  21.608  24.218   4.537
85676W        W57205  36.524  22.185   4.633
85677W        W57206  19.752  42.109  13.154
85678W        W57207  22.063  34.029   4.027
85679W        W57208   4.652  19.924  12.966
85680W        W57209  37.149   0.954  12.074
85681W        W57210  28.932   0.849  12.802
85682W        W57211   3.739   1.051   1.219
85683W        W57212   1.871  35.468   4.348
85684W        W57213  42.784  35.314   4.922
85685W        W57214  32.941  24.397  11.096
85686W        W57215  24.748  27.075  14.406
85687W        W57216  24.386  26.191  14.528
85688W        W57217   3.372   8.545   4.275
85689W        W57218  29.260  34.988  11.191
85690W        W57219  13.896  27.574  14.321
85691W        W57220   7.025  37.577   3.789
85692W        W57221  39.979  37.290   3.752
85693W        W57222  17.357  38.696  12.538
85694W        W57223  38.349  14.867   3.965
85695W        W57224  14.671  32.210  11.995
85696W        W57225  15.939  40.162   0.850
85697W        W57226  13.652  27.743  13.857
85698W        W57227   5.276  39.913   5.114
85699W        W57228   6.576  37.591  11.540
85700W        W57229  22.750   4.189   3.794
85701W        W57230  27.650  20.571  14.393
85702W        W57231   3.255  44.504   1.706
85703W        W57232  31.778  40.583  14.456
85704W        W57233   4.355  17.815   0.674
85705W        W57234  42.063  40.378  10.361
85706W        W57235   3.955  20.263   0.033
85707W        W57236   5.683   3.683   2.676
85708W        W57237  12.383  18.191  13.095
85709W        W57238  12.779  24.139  10.678
85710W        W57239   0.634  18.019   1.654
85711W        W57240   0.243   2.111   5.010
85712W        W57241  36.072  39.451   4.630
85713W        W57242  28.975  31.167   1.689
85714W        W57243  33.010   9.882  11.523
85715W        W57244  16.921   3.282  10.828
85716W        W57245   0.266  20.043   4.587
85717W        W57246  23.035  12.429   1.039
85718W        W57247  35.170  31.542  12.558
85719W        W57248   7.608   4.992   0.353
85720W        W57249  12.954  26.949   0.023
85721W        W57250  32.593  37.627  13.513
85722W        W57251  23.016  26.751  11.251
85723W        W57252  33.138  13.856  10.964
85724W        W57253  10.360  23.528   3.561
85725W        W57254   6.824   3.660   3.672
85726W        W57255  44.743  25.039  13.839
85727W        W57256  29.692  33.618   0.054
85728W        W57257   0.791  36.534  11.461
85729W        W57258   3.712   1.253  12.702
85730W        W57259  11.113  19.428   0.326
85731W        W57260  34.871  18.648  11.586
85732W        W57261  24.742  12.184  11.178
85733W        W57262   1.910  43.089   1.353
85734W        W57263  21.709   4.110  11.142
85735W        W57264  42.283  21.264  13.293
85736W        W57265  15.129  44.705  14.875
85737W        W57266  31.535  13.138   0.537
85738W        W57267  10.072  42.324   0.812
85739W        W57268  37.516   4.798   3.335
85740W        W57269  31.962   6.882   3.777
85741W        W57270  23.272   5.736   0.745
85742W        W57271  16.870  20.960   3.269
85743W        W57272  30.557  24.140  11.599
85744W        W57273   6.382  10.747   3.434
85745W        W57274   9.133   9.718   2.342
85746W        W57275   0.323  30.641   1.843
85747W        W57276  13.804  41.271  12.505
85748W        W57277  19.434  15.122   2.241
85749W        W57278   4.703   6.756   2.894
85750W        W57279  29.060   8.469  14.276
85751W        W57280  29.639   6.337  14.759
85752W        W57281  14.529  36.884  12.365
85753W        W57282  44.861  13.389  13.098
85754W        W57283  42.832  32.916  12.923
85755W        W57284  18.179  14.626   3.134
85756W        W57285  38.830   2.717  14.840
85757W        W57286  19.659  16.874  12.030
85758W        W57287  15.688  17.378   3.116
85759W        W57288   9.671  37.029   4.911
85760W        W57289  40.367  20.703   3.593
85761W        W57290  14.626  24.850   4.068
85762W        W57291  40.450  24.113  12.453
85763W        W57292  26.382  21.160  14.340
85764W        W57293  26.942  22.443  10.791
85765W        W57294   3.139  40.784   4.087
85766W        W57295  42.902  28.103   3.213
85767W        W57296  18.385  20.683  13.819
85768W        W57297   7.474  20.245   2.251
85769W        W57298  30.350  32.795   0.319
85770W        W57299  41.072  40.828   3.704
85771W        W57300  31.133   2.283  13.371
85772W        W57301   3.663  20.202   3.946
85773W        W57302  14.141   3.771  10.465
85774W        W57303  22.684  36.158   0.204
85775W        W57304  16.310  28.447  11.188
85776W        W57305  39.279  22.479   4.031
85777W        W57306  19.158   8.840   2.229
85778W        W57307  11.082  20.838   0.321
85779W        W57308  13.548  11.732   5.022
85780W        W57309   6.820   1.681  12.142
85781W        W57310  13.337  12.722   0.516
85782W        W57311   4.883  10.044   1.388
85783W        W57312  17.171  36.533   0.244
85784W        W57313  36.082  11.269  13.642
85785W        W57314  21.653  16.717   4.236
85786W        W57315  34.787  23.202   1.161
85787W        W57316  18.220  20.408  11.089
85788W        W57317  14.474  28.003  10.718
85789W        W57318  41.031  36.922   0.669
85790W        W57319   3.913  15.183   2.154
85791W        W57320  16.968  37.024   0.463
85792W        W57321  34.596  31.095   1.792
85793W        W57322  22.272   6.154   0.506
85794W        W57323  37.067  44.498  12.058
85795W        W57324   0.282  37.365  14.984
85796W        W57325  44.406   8.205  13.482
85797W        W57326  30.158  40.345  14.256
85798W        W57327  31.047  32.662  13.317
85799W        W57328  31.155  29.000  14.329
85800W        W57329   9.293  17.249  10.620
85801W        W57330  21.651  41.457  10.336
85802W        W57331   4.506   4.647   4.244
85803W        W57332  33.790  14.855  13.408
85804W        W57333  31.166  43.182   0.974
85805W        W57334   0.272   5.305   3.922
85806W        W57335  12.390   6.264  13.894
85807W        W57336  24.470  10.919  10.975
85808W        W57337  12.855   8.699   2.359
85809W        W57338  34.491  33.525   3.259
85810W        W57339  31.385  41.954  12.554
85811W        W57340  28.221  34.625  13.441
85812W        W57341  35.250   8.861  12.207
85813W        W57342   0.435  40.246   3.100
85814W        W57343   7.449   6.165   0.240
85815W        W57344  33.074  11.729   1.417
85816W        W57345  26.733  26.738   2.313
85817W        W57346  16.302  19.316   2.859
85818W        W57347   8.946  24.139   0.838
85819W        W57348  44.442  24.195   3.389
85820W        W57349  15.693  14.449  10.844
85821W        W57350  27.505   4.252   3.133
85822W        W57351  36.396  34.586  13.970
85823W        W57352  24.673   6.243  11.567
85824W        W57353   6.325  26.813  14.916
85825W        W57354  39.469  14.675  10.836
85826W        W57355  44.829  35.159  11.566
85827W        W57356  13.211  11.213   0.473
85828W        W57357  26.121   9.931  12.554
85829W        W57358  15.561  26.184   4.835
85830W        W57359  40.311  31.024   1.666
85831W        W57360  38.880  20.240  11.853
85832W        W57361  22.865  26.112   1.197
85833W        W57362  22.323  40.453   0.024
85834W        W57363  32.619  34.538   4.656
85835W        W57364  36.634  42.960  11.606
85836W        W57365  22.581  30.653   4.170
85837W        W57366  35.106  33.937   3.833
85838W        W57367   9.176  30.123   1.332
85839W        W57368  42.972  12.870  13.443
85840W        W57369  41.335   1.515   2.691
85841W        W57370  38.249  13.145   3.739
85842W        W57371  42.961  23.623  10.848
85843W        W57372  42.918  27.426  12.898
85844W        W57373  26.638  16.316   2.202
85845W        W57374  42.292   7.890   0.730
85846W        W57375  24.878  26.144  14.339
85847W        W57376  21.315  14.588  14.429
85848W        W57377   5.452  12.879  11.160
85849W        W57378  29.470  13.161  12.996
85850W        W57379  22.773   1.254  14.707
85851W        W57380  22.706   1.462   0.218
85852W        W57381  19.526  29.342  11.375
85853W        W57382  20.147  18.749   1.907
85854W        W57383  36.778  43.086   3.930
85855W        W57384   1.711   4.758   2.775
85856W        W57385  42.608   0.301   4.236
85857W        W57386   0.433   1.693   2.282
85858W        W57387  14.854  12.143   0.464
85859W        W57388  36.296  27.830   4.192
85860W        W57389  12.850  15.791   4.769
85861W        W57390   9.676  44.504   1.409
85862W        W57391   4.644  15.366  14.747
85863W        W57392  10.950  30.007  14.023
85864W        W57393  20.774  16.053  11.108
85865W        W57394  37.560  18.346  14.734
85866W        W57395  17.078  14.145   2.003
85867W        W57396  12.108  32.411  12.086
85868W        W57397  33.164  37.276   4.493
85869W        W57398   0.811  14.947   3.355
85870W        W57399  21.504  28.974   0.782
85871W        W57400  12.424  20.164   4.166
85872W        W57401  13.072   7.392   0.234
85873W        W57402  13.235  15.552   4.507
85874W        W57403  15.633  39.040  12.112
85875W        W57404  18.067   7.218  12.834
85876W        W57405  37.535   0.772  13.852
85877W        W57406   1.493   8.320  14.794
85878W        W57407  32.704  10.218   4.074
85879W        W57408   6.019  43.686   3.301
85880W        W57409  23.140  35.555   2.672
85881W        W57410  24.448   7.206  11.512
85882W        W57411  41.317   6.334   4.323
85883W        W57412  19.263  23.163  14.787
85884W        W57413  44.377  41.396  12.513
85885W        W57414   4.012  36.508  13.369
85886W        W57415  34.030  18.794   0.688
85887W        W57416  35.774   5.766   0.378
85888W        W57417  41.310  15.098   3.396
85889W        W57418  40.387  16.575  11.223
85890W        W57419  34.595   8.801   0.260
85891W        W57420  21.040   0.614   4.092
85892W        W57421   8.708  13.787  11.329
85893W        W57422  17.672   5.311  10.816
85894W        W57423  27.977  11.599  13.481
85895W        W57424  43.098  19.123  14.546
85896W        W57425  36.576  34.923  11.231
85897W        W57426  26.970  24.183  13.019
85898W        W57427  13.041  35.487  13.894
85899W        W57428  35.535  18.947  13.411
85900W        W57429  19.079  22.341   3.698
85901W        W57430  18.744  27.032  14.452
85902W        W57431  31.591   8.565   5.179
85903W        W57432  25.370  20.535   1.410
85904W        W57433  13.662  44.444   2.687
85905W        W57434  18.513  28.276   2.313
85906W        W57435  33.227   2.421   2.819
85907W        W57436  44.744  40.785  11.162
85908W        W57437  42.003   8.757  13.081
85909W        W57438   4.470   0.404  14.756
85910W        W57439  38.564   8.448  11.451
85911W        W57440  16.831   1.432  14.105
85912W        W57441  41.214  39.534  13.917
85913W        W57442  22.937   8.831   0.421
85914W        W57443  35.374   5.514  11.720
85915W        W57444   0.040  11.873   3.211
85916W        W57445  12.143   1.013   3.177
85917W        W57446  19.111  28.727   1.641
85918W        W57447  15.524   3.886  11.934
85919W        W57448  43.029  41.436  12.768
85920W        W57449  27.714  40.361   3.665
85921W        W57450  21.631  40.144  10.682
85922W        W57451  42.005  42.300  11.201
85923W        W57452   5.207  20.140  10.689
85924W        W57453  34.554  29.955   3.366
85925W        W57454   4.637  10.624   5.030
85926W        W57455  21.236  28.401  14.453
85927W        W57456  20.026  19.056   4.087
85928W        W57457  30.144  16.026  14.418
85929W        W57458   5.692  29.614  12.810
85930W        W57459  12.825  16.193  11.074
85931W        W57460  27.460  32.732  13.979
85932W        W57461  42.909  42.580   0.848
85933W        W57462   5.883  11.575  13.861
85934W        W57463  40.859  32.353  14.957
85935W        W57464  33.246  22.376  13.519
85936W        W57465   6.485   4.228   1.753
85937W        W57466   7.889  16.262  14.805
85938W        W57467   3.790  16.023  11.158
85939W        W57468  37.328   1.950  13.003
85940W        W57469   2.279  35.848  14.959
85941W        W57470  25.038  16.264  12.487
85942W        W57471  35.595  20.546   3.220
85943W        W57472  40.222  16.125  12.143
85944W        W57473   2.234  18.665   3.722
85945W        W57474   7.308  31.481  12.699
85946W        W57475  31.423  43.968  11.191
85947W        W57476  16.942  15.043   2.765
85948W        W57477  10.840   0.986   4.620
85949W        W57478  32.534  29.474  14.208
85950W        W57479  23.133  10.083  13.431
85951W        W57480   4.793  23.474   4.569
85952W        W57481  32.506  39.094  13.514
85953W        W57482   8.351  24.161  11.648
85954W        W57483  29.116  41.531  10.401
85955W        W57484  16.653  13.716  13.069
85956W        W57485  20.609   3.222   2.535
85957W        W57486  23.159  33.998  11.675
85958W        W57487  38.992  14.978   2.756
85959W        W57488   7.227  39.981   2.756
85960W        W57489  11.760  42.330   0.830
85961W        W57490  17.233  32.050   2.822
85962W        W57491   6.498  18.987   2.704
85963W        W57492   3.474  27.424   1.272
85964W        W57493  33.590  33.641   1.446
85965W        W57494  39.030  23.520  14.404
85966W        W57495  28.447   4.984  11.116
85967W        W57496  11.132  11.802   2.367
85968W        W57497  14.966  31.899  11.156
85969W        W57498  35.966  16.273   1.245
85970W        W57499  39.751  25.542  11.579
85971W        W57500  21.663  34.619   2.710
85972W        W57501   7.828  28.991  11.123
85973W        W57502  17.297  35.315  12.600
85974W        W57503   6.887  21.575   3.801
85975W        W57504  13.828   7.190   5.104
85976W        W57505  10.375  20.161  11.848
85977W        W57506  14.081  33.572   0.969
85978W        W57507  38.583  30.503   2.854
85979W        W57508   3.645  18.449  11.286
85980W        W57509  19.749   4.868   4.116
85981W        W57510  19.975  36.945  14.373
85982W        W57511  31.151  21.635  13.941
85983W        W57512  36.695  13.839   4.088
85984W        W57513  16.926  25.375   2.230
85985W        W57514  30.727   2.451  13.077
85986W        W57515  44.168  27.060   2.961
85987W        W57516  21.323  34.656  10.240
85988W        W57517  21.631   7.729   2.684
85989W        W57518  31.178   2.243  12.854
85990W        W57519  19.439   4.449  14.313
85991W        W57520  18.613  43.934  14.604
85992W        W57521  10.914  43.445   2.518
85993W        W57522  26.512   1.911   9.911
85994W        W57523  21.534   1.343  10.878
85995W        W57524  27.221  31.122   1.419
85996W        W57525  25.188   2.962   2.719
85997W        W57526   5.215  41.768  12.480
85998W        W57527   0.199  31.021  12.892
85999W        W57528   1.343  35.593   2.735
86000W        W57529  15.483   1.972  11.140
86001W        W57530  30.889  39.487   0.378
86002W        W57531  44.993  28.439  10.576
86003W        W57532  18.191  25.500   4.626
86004W        W57533  12.741  22.532   2.734
86005W        W57534  38.208  36.386   0.815
86006W        W57535  17.848   3.255  11.947
86007W        W57536  22.086  24.072  12.331
86008W        W57537  34.195  29.023  14.447
86009W        W57538  10.402  24.614   1.536
86010W        W57539  29.188   0.946   3.152
86011W        W57540  21.155  41.972  13.362
86012W        W57541   2.782  35.496   2.357
86013W        W57542   9.215  21.538  14.249
86014W        W57543  33.361   8.253  14.323
86015W        W57544  12.828   8.799  11.038
86016W        W57545  25.269  10.870   4.623
86017W        W57546  35.812   4.046   4.284
86018W        W57547  35.563   0.633   1.926
86019W        W57548   4.265  34.160   4.021
86020W        W57549  39.465   5.288  11.383
86021W        W57550  29.260   7.317   0.528
86022W        W57551   2.206  14.678  14.458
86023W        W57552  32.159  13.067   1.329
86024W        W57553  33.579  13.897   5.274
86025W        W57554  28.357  18.663   4.427
86026W        W57555   6.343  33.461   3.120
86027W        W57556   5.479  15.768   4.137
86028W        W57557   5.360  30.433  10.714
86029W        W57558   1.862  34.515   3.562
86030W        W57559   7.287  23.852   0.077
86031W        W57560  30.034  24.895  14.326
86032W        W57561   2.456  10.737   0.117
86033W        W57562  15.182  41.911   4.484
86034W        W57563  37.417  31.205  14.964
86035W        W57564  21.940  30.068  14.311
86036W        W57565  29.086  24.066   0.722
86037W        W57566  31.835  40.062   0.625
86038W        W57567  15.258  40.795   1.679
86039W        W57568  41.629  25.724   2.644
86040W        W57569  16.294  16.246  11.429
86041W        W57570  38.578   4.250   0.262
86042W        W57571  25.841  40.217  12.502
86043W        W57572  42.855  34.826   2.669
86044W        W57573  36.374  33.172  14.333
86045W        W57574  22.035  12.443  11.133
86046W        W57575   3.782  36.694  14.843
86047W        W57576  32.587  27.463   1.756
86048W        W57577  42.306  26.904  14.009
86049W        W57578  32.330   9.538   1.738
86050W        W57579  30.844  37.277   2.237
86051W        W57580  10.265  27.911  12.936
86052W        W57581  29.726  38.410   1.436
86053W        W57582  25.038   0.966   4.557
86054W        W57583  18.684  41.325   2.615
86055W        W57584  29.546  11.745  11.155
86056W        W57585  42.281  36.525  13.632
86057W        W57586  32.157   7.252   4.096
86058W        W57587  35.304   3.692   1.891
86059W        W57588  32.629  13.711  12.928
86060W        W57589  26.702   7.386  14.325
86061W        W57590   0.969  16.388  14.868
86062W        W57591  11.761  18.618  11.047
86063W        W57592  16.055  19.487   4.998
86064W        W57593  39.325  19.990  11.742
86065W        W57594  26.161  18.169   1.452
86066W        W57595  20.674  13.083  12.424
86067W        W57596   5.364  23.169  13.042
86068W        W57597  42.879  39.256  13.353
86069W        W57598   5.371  11.675   3.868
86070W        W57599  19.261   0.639  14.875
86071W        W57600   7.987   5.906  13.128
86072W        W57601   6.854   1.050  14.928
86073W        W57602  19.521  36.922   0.422
86074W        W57603  35.761  14.201   2.726
86075W        W57604  35.061  33.309  14.444
86076W        W57605  27.545  22.943  14.513
86077W        W57606  41.247  42.049   3.234
86078W        W57607   5.899  32.730   2.932
86079W        W57608  25.547  43.274  14.822
86080W        W57609  43.897  24.204   1.149
86081W        W57610   3.477  35.771  10.978
86082W        W57611  41.334   7.853   0.685
86083W        W57612   0.680  24.363  13.330
86084W        W57613   9.833  44.054  14.640
86085W        W57614  13.568  19.657   0.265
86086W        W57615  11.217  28.747  14.935
86087W        W57616  40.555  10.740   3.313
86088W        W57617  43.998  27.412   1.285
86089W        W57618  26.572  32.236   1.865
86090W        W57619  33.030  25.238  12.135
86091W        W57620  41.073  24.259  11.619
86092W        W57621   9.756   0.267  13.416
86093W        W57622  44.044   8.108  12.032
86094W        W57623  31.995   1.776   2.687
86095W        W57624  14.329  18.663  11.003
86096W        W57625  41.369   3.005  14.041
86097W        W57626  20.734  42.210  13.094
86098W        W57627  24.497   0.935   4.600
86099W        W57628  35.783  30.120  14.841
86100W        W57629  41.849   1.404   2.650
86101W        W57630   1.857  42.924  11.213
86102W        W57631  25.546   3.254  14.729
86103W        W57632  30.009  32.052  12.029
86104W        W57633   2.941  18.257   1.680
86105W        W57634  42.988  22.097  10.662
86106W        W57635   6.639   1.806   0.833
86107W        W57636   0.852  25.994  14.862
86108W        W57637  19.008   6.441   0.519
86109W        W57638  33.200  18.329  14.444
86110W        W57639  38.927   1.514   5.148
86111W        W57640  25.619   9.257  10.994
86112W        W57641   7.829  13.600  14.015
86113W        W57642  24.746  17.807  14.853
86114W        W57643  21.799  17.703   3.224
86115W        W57644  29.418  33.328  13.592
86116W        W57645  15.139  41.940  11.003
86117W        W57646  44.504  36.974  13.311
86118W        W57647   1.368  42.255  12.373
86119W        W57648  39.365   2.541  14.773
86120W        W57649  16.041  12.448  11.992
86121W        W57650  28.174  29.969  10.812
86122W        W57651  41.918  37.077  12.365
86123W        W57652  26.198   6.429   1.812
86124W        W57653  36.688  37.402   2.321
86125W        W57654   8.363  32.068  11.167
86126W        W57655  35.457  23.400   0.382
86127W        W57656  29.149  39.616   0.868
86128W        W57657  23.637  30.496  10.720
86129W        W57658  40.976  24.077  13.360
86130W        W57659   3.805  33.801  14.493
86131W        W57660  23.113  31.812   1.429
86132W        W57661  37.640  27.302  12.266
86133W        W57662   2.485  12.977   1.738
86134W        W57663  18.976  24.768   0.030
86135W        W57664  30.561  14.375   3.827
86136W        W57665  44.550  28.937  13.422
86137W        W57666  41.486  24.750  12.629
86138W        W57667  44.851  42.389   2.299
86139W        W57668   6.740  13.169  12.496
86140W        W57669  35.492   7.387  12.718
86141W        W57670   8.204   8.140   0.305
86142W        W57671  22.080  20.138   0.488
86143W        W57672  35.165  30.547  13.523
86144W        W57673  18.680   4.439   3.201
86145W        W57674  19.550  28.416   2.866
86146W        W57675  17.782  18.170   3.261
86147W        W57676  22.482  16.706  12.988
86148W        W57677  43.276  26.257  10.631
86149W        W57678  34.884  16.405  12.402
86150W        W57679  28.865   3.783   0.042
86151W        W57680  39.801  38.814   1.461
86152W        W57681  24.110  26.315  12.407
86153W        W57682  12.270  38.186  11.510
86154W        W57683  17.771  25.648   3.425
86155W        W57684  38.472  41.518  10.916
86156W        W57685  24.267  40.348  11.638
86157W        W57686   4.349  30.210   3.254
86158W        W57687  19.887  11.044   1.802
86159W        W57688  26.926  10.891  13.982
86160W        W57689  15.819   5.639  10.069
86161W        W57690  43.973  31.090   0.164
86162W        W57691  43.785  27.419  12.463
86163W        W57692  40.115  14.936  11.531
86164W        W57693  38.755   1.889  12.653
86165W        W57694  11.863   8.653  10.830
86166W        W57695   2.234  18.082  11.633
86167W        W57696  13.955  27.094  13.462
86168W        W57697  16.304   4.903  13.866
86169W        W57698   9.276  15.983  11.503
86170W        W57699   6.731   1.595  14.972
86171W        W57700  18.255   7.955   2.240
86172W        W57701  32.517  20.981  12.532
86173W        W57702  32.987  25.819  13.704
86174W        W57703  38.931  13.103   0.231
86175W        W57704  33.415   8.341  14.826
86176W        W57705  24.089  35.636   3.143
86177W        W57706  33.466   2.047   2.554
86178W        W57707  17.602  40.357  12.941
86179W        W57708  10.689  42.461  14.635
86180W        W57709  22.045  27.548   3.925
86181W        W57710   6.804   2.875  14.706
86182W        W57711  13.126  10.456  12.329
86183W        W57712  35.113  17.370  12.599
86184W        W57713   9.604  35.100   1.837
86185W        W57714  36.844  16.146  12.870
86186W        W57715  42.133  21.756   2.764
86187W        W57716  12.593  26.122  13.045
86188W        W57717  43.453  29.205   4.541
86189W        W57718  39.813   4.390   4.295
86190W        W57719  35.224  17.515   1.790
86191W        W57720  41.268  12.918  12.983
86192W        W57721   9.722  19.649   2.849
86193W        W57722  32.044  20.588  11.972
86194W        W57723  36.783  36.463  12.909
86195W        W57724  30.259  13.416   3.764
86196W        W57725  20.811  16.599   0.992
86197W        W57726  34.018  36.649  12.852
86198W        W57727  17.698  17.025   0.981
86199W        W57728   1.638  39.187   4.151
86200W        W57729  26.392  18.502  11.158
86201W        W57730  15.767  30.561  10.644
86202W        W57731   3.097  22.701   4.529
86203W        W57732  34.341   0.519   3.726
86204W        W57733  37.130  13.622   0.456
86205W        W57734   8.294   7.158  10.796
86206W        W57735   6.417  38.041  11.714
86207W        W57736  24.896   8.434  14.011
86208W        W57737  13.704  18.988  14.565
86209W        W57738   6.763   1.368  14.528
86210W        W57739  32.407  14.833  13.509
86211W        W57740  35.464  20.832   2.792
86212W        W57741  35.552  36.740  12.548
86213W        W57742  15.122   6.782  12.347
86214W        W57743  32.424  16.983  14.279
86215W        W57744   0.492  10.152  11.442
86216W        W57745  15.043  14.303   1.293
86217W        W57746  30.471  42.891  14.341
86218W        W57747   7.605  11.972  13.041
86219W        W57748  14.100   7.223   3.879
86220W        W57749  37.525  16.974   1.766
86221W        W57750   7.398  27.498   2.793
86222W        W57751  19.563  42.309   0.127
86223W        W57752  38.948  28.922  11.994
86224W        W57753   9.374  16.791  12.318
86225W        W57754  19.993  13.841  11.613
86226W        W57755  39.329  26.189  14.922
86227W        W57756  31.764   7.456  14.724
86228W        W57757  30.843   6.100  11.130
86229W        W57758  23.239  34.503  11.530
86230W        W57759  21.502  28.910  11.944
86231W        W57760  31.485  26.440   2.303
86232W        W57761  42.861  29.421   2.846
86233W        W57762  41.292   9.794   3.682
86234W        W57763  11.633   8.387   0.339
86235W        W57764  20.470  35.409   3.117
86236W        W57765  29.640   8.148   1.098
86237W        W57766  26.982  18.677   0.364
86238W        W57767   1.968  30.112  10.328
86239W        W57768  27.243  33.825  14.034
86240W        W57769   0.436  10.129  14.259
86241W        W57770  35.641  42.961   0.922
86242W        W57771   2.840  13.729  13.993
86243W        W57772  13.178  23.336   1.324
86244W        W57773  15.127  20.778   2.712
86245W        W57774  29.979  33.843  11.674
86246W        W57775   9.344   3.908   3.200
86247W        W57776  25.603   4.121   1.430
86248W        W57777  23.011   7.587   3.612
86249W        W57778   1.576  43.872   2.674
86250W        W57779  31.833  35.527  12.056
86251W        W57780   6.374  27.415  12.998
86252W        W57781   4.477  20.589  14.502
86253W        W57782  20.216  32.887  14.500
86254W        W57783  17.347  22.519   4.210
86255W        W57784  40.088  17.800   0.477
86256W        W57785  39.100  25.745   0.817
86257W        W57786  21.135  15.111   3.735
86258W        W57787   4.851   7.918  12.141
86259W        W57788  43.412  24.178   2.836
86260W        W57789  21.748   5.382  12.352
86261W        W57790   7.489  14.792  10.851
86262W        W57791  20.112  21.580   3.443
86263W        W57792  21.079  10.443   2.792
86264W        W57793  32.657  19.049   3.415
86265W        W57794  27.925  30.190   3.454
86266W        W57795  36.585   4.729  10.351
86267W        W57796  11.354  20.711  13.533
86268W        W57797  12.301   0.317  11.264
86269W        W57798   0.171  30.936  13.909
86270W        W57799   6.591  20.052   0.963
86271W        W57800  43.038   3.523   3.779
86272W        W57801  26.972  22.117   3.169
86273W        W57802   7.956  27.091   2.119
86274W        W57803  11.071  26.434  11.596
86275W        W57804  35.487  11.237   2.851
86276W        W57805  41.287  25.101  13.990
86277W        W57806   2.770  41.447  12.534
86278W        W57807   8.592   3.861  11.962
86279W        W57808  13.951  28.986  12.881
86280W        W57809  18.773   4.104   1.023
86281W        W57810  12.124  37.676   3.625
86282W        W57811  12.701  17.626  11.112
86283W        W57812  40.261  17.213   3.088
86284W        W57813   6.295   6.267  12.548
86285W        W57814  42.113  24.053  10.810
86286W        W57815  30.735  29.375  14.337
86287W        W57816  39.588   5.058   4.478
86288W        W57817  37.525  37.747   0.761
86289W        W57818   3.891  28.034   4.553
86290W        W57819  32.601  26.713   1.419
86291W        W57820  10.656  30.125  13.186
86292W        W57821   4.806  37.324  12.111
86293W        W57822   5.943  23.153   3.518
86294W        W57823  20.615  23.700   0.876
86295W        W57824   5.211  41.923   3.720
86296W        W57825   3.011  22.025   3.283
86297W        W57826  29.306  35.942   4.943
86298W        W57827  18.732   9.528  10.025
86299W        W57828  37.860  19.581  14.537
86300W        W57829  44.614  37.808  13.856
86301W        W57830   8.734  43.726  13.549
86302W        W57831  32.988  35.195  14.420
86303W        W57832  25.662  17.589   3.134
86304W        W57833  20.495  10.658  12.902
86305W        W57834  18.639  42.017   0.930
86306W        W57835  34.170  11.137   0.570
86307W        W57836  40.789  25.112  12.493
86308W        W57837  14.873  20.074  11.594
86309W        W57838  41.917  14.591   0.767
86310W        W57839  38.231  28.864  11.167
86311W        W57840   7.986  32.598   0.198
86312W        W57841  20.479  41.974  12.143
86313W        W57842   4.240  24.156   4.546
86314W        W57843  41.900  11.816  10.100
86315W        W57844   9.342  28.039  14.373
86316W        W57845   5.961  15.046   0.245
86317W        W57846  38.908  26.202   0.980
86318W        W57847  23.214  26.947   3.126
86319W        W57848   5.478  24.403  13.498
86320W        W57849  27.853  34.393   0.890
86321W        W57850  29.765  25.597  10.807
86322W        W57851   4.366  18.729   1.428
86323W        W57852  23.710   1.799   1.867
86324W        W57853  20.504  30.440   0.460
86325W        W57854   0.656   1.934   5.278
86326W        W57855  17.034  13.252  14.299
86327W        W57856  26.269  23.502   3.617
86328W        W57857  19.660  27.170  14.397
86329W        W57858  30.549   2.506   1.816
86330W        W57859  34.387  24.353   3.773
86331W        W57860  17.976  15.655   2.147
86332W        W57861  17.101  12.078   3.761
86333W        W57862  17.072   9.095   1.740
86334W        W57863  18.738   7.667   3.552
86335W        W57864  20.142   9.132   2.850
86336W        W57865  40.601  25.065  12.980
86337W        W57866  39.567  36.074  13.023
86338W        W57867  22.105  13.748   2.925
86339W        W57868   3.373  22.625  13.779
86340W        W57869  19.191  39.475  12.958
86341W        W57870   9.291  21.243  12.649
86342W        W57871  22.936  40.820  12.519
86343W        W57872  30.977  23.589   3.780
86344W        W57873   8.897  39.937   3.885
86345W        W57874   3.865  12.765  11.131
86346W        W57875  41.141   5.918   1.767
86347W        W57876  27.645  35.333   1.802
86348W        W57877  12.124  36.832   0.664
86349W        W57878   6.682  15.274   2.588
86350W        W57879  33.764  33.996   3.208
86351W        W57880  20.877  18.572   4.659
86352W        W57881  10.698  22.575  10.418
86353W        W57882  37.985   3.003  14.254
86354W        W57883  12.959  36.976  11.557
86355W        W57884   5.778  31.916   1.878
86356W        W57885  38.509   4.839   1.402
86357W        W57886  11.938  17.962  12.191
86358W        W57887  30.596  27.190  12.259
86359W        W57888  38.406  32.405   4.406
86360W        W57889  41.469  33.031  14.955
86361W        W57890  43.810  23.967  11.473
86362W        W57891   6.844  15.229  10.791
86363W        W57892  23.659   3.631   1.843
86364W        W57893   3.992  44.923   3.631
86365W        W57894   6.910  13.729   4.031
86366W        W57895  30.891  15.249  11.543
86367W        W57896  21.780  42.089   0.149
86368W        W57897  39.851  40.429   1.230
86369W        W57898  30.083  13.047   0.866
86370W        W57899  17.111  34.394  10.605
86371W        W57900  28.094  21.110  10.623
86372W        W57901  18.753  13.701  11.031
86373W        W57902   6.594   4.387  14.743
86374W        W57903  29.036  26.705  14.852
86375W        W57904  25.924  35.081   0.894
86376W        W57905  33.547   9.799  11.551
86377W        W57906  14.034  11.911   5.083
86378W        W57907  11.387   3.898   1.269
86379W        W57908  19.675  12.694  11.044
86380W        W57909   7.452  21.636   3.778
86381W        W57910   2.204  10.778  13.519
86382W        W57911   6.158   2.278   3.806
86383W        W57912  23.280  41.543   3.830
86384W        W57913  14.881  37.037   4.199
86385W        W57914  26.428  35.640   4.595
86386W        W57915  26.155  24.311  11.670
86387W        W57916   5.003   8.889  11.146
86388W        W57917  44.308  41.980  14.882
86389W        W57918   4.306  19.439   5.059
86390W        W57919  42.534   9.791   2.393
86391W        W57920  18.901  28.552   0.268
86392W        W57921  42.230  24.916   4.642
86393W        W57922  36.066  33.046   2.786
86394W        W57923  39.489  11.035   3.626
86395W        W57924  11.399   1.557  14.003
86396W        W57925  41.435  40.490  14.123
86397W        W57926  31.858   8.200   2.207
86398W        W57927  39.337  35.070   4.156
86399W        W57928  22.204  34.109   4.565
86400W        W57929   0.864   8.241  14.337
86401W        W57930  39.503  15.035   4.865
86402W        W57931  35.636  21.878  14.914
86403W        W57932  38.038  25.063  12.075
86404W        W57933  29.224  13.416   4.471
86405W        W57934  38.867  14.184  12.420
86406W        W57935   1.447  13.594   1.337
86407W        W57936  26.619  43.187   2.220
86408W        W57937  30.713  29.034   2.302
86409W        W57938   1.339  17.253  12.912
86410W        W57939  25.557  11.055   2.316
86411W        W57940   9.779  39.510   3.264
86412W        W57941   2.530  18.254  12.018
86413W        W57942   2.478  39.260  10.737
86414W        W57943   2.608  20.111  10.658
86415W        W57944  19.522  35.999   4.437
86416W        W57945   7.163  30.426   3.714
86417W        W57946  39.955  40.309  13.469
86418W        W57947  17.935  25.156  11.155
86419W        W57948   9.702  22.186   3.649
86420W        W57949   7.619  23.634   4.116
86421W        W57950  18.357  21.503  14.378
86422W        W57951   2.249  13.608   4.597
86423W        W57952   3.195  26.203   1.903
86424W        W57953   9.286  21.174  14.977
86425W        W57954   7.782  33.614   3.598
86426W        W57955  41.446  25.556  13.084
86427W        W57956  27.495  20.504   4.471
86428W        W57957  14.240  16.468  13.511
86429W        W57958  19.148  21.362   0.773
86430W        W57959  32.200  37.826  13.809
86431W        W57960  28.851  39.753   3.656
86432W        W57961   8.884  42.579  12.404
86433W        W57962   2.614   5.296  10.587
86434W        W57963   3.907  22.100   1.347
86435W        W57964  19.007  31.316  12.536
86436W        W57965  13.627  13.811   0.291
86437W        W57966  18.755   5.445  12.958
86438W        W57967  15.793  10.349   0.887
86439W        W57968  29.149  30.964  11.660
86440W        W57969  11.910  35.573  14.390
86441W        W57970  18.632  22.188  13.912
86442W        W57971  38.767  44.171  13.467
86443W        W57972  38.242  32.184  11.621
86444W        W57973  44.267  15.357  10.709
86445W        W57974  44.973  44.853   4.467
86446W        W57975  13.039   1.463   2.337
86447W        W57976   4.501  19.906   4.247
86448W        W57977   5.300   8.220   0.384
86449W        W57978  26.034  33.406  12.952
86450W        W57979  23.095  43.424  14.987
86451W        W57980  26.616  14.238  14.277
86452W        W57981  32.152  36.483   3.683
86453W        W57982  41.175   8.309  13.987
86454W        W57983  31.455  41.095  12.834
86455W        W57984  12.864  14.802   2.786
86456W        W57985  13.688  39.327   0.285
86457W        W57986  38.901   0.840  14.554
86458W        W57987  29.477   8.505  12.202
86459W        W57988  21.268  30.973   3.788
86460W        W57989  10.735  33.059   3.431
86461W        W57990  40.764   7.293   1.766
86462W        W57991   4.290   8.273  13.958
86463W        W57992  27.067  30.930   0.312
86464W        W57993  36.094   9.064   0.002
86465W        W57994  18.617  38.117   3.227
86466W        W57995   1.469  18.256   2.899
86467W        W57996  24.248   0.439   0.496
86468W        W57997   4.702  15.195   2.406
86469W        W57998  44.888  28.502   4.062
86470W        W57999  27.081   7.625   3.761
86471W        W58000  43.360  38.951   4.149
86472W        W58001   3.406  28.649  11.647
86473W        W58002  11.225   5.208   1.716
86474W        W58003  28.914   5.655   2.180
86475W        W58004  33.255  42.869  12.392
86476W        W58005  20.315   2.165  13.774
86477W        W58006  43.062  30.643  12.503
86478W        W58007  43.549  28.946   2.859
86479W        W58008   9.082  22.201  12.011
86480W        W58009   2.685  15.132   4.403
86481W        W58010  17.202   2.348   1.888
86482W        W58011  34.060  26.187  13.425
86483W        W58012   6.670   8.170   4.896
86484W        W58013   8.217  35.410  11.349
86485W        W58014  18.261  40.125  12.571
86486W        W58015  16.656  19.063  10.622
86487W        W58016  17.759  44.541  10.112
86488W        W58017  19.216  13.009  10.805
86489W        W58018  42.129  36.287  11.716
86490W        W58019   1.935  22.590  13.828
86491W        W58020  28.663  38.938   4.855
86492W        W58021   5.993  42.057  12.126
86493W        W58022   7.244  33.211  14.787
86494W        W58023   1.638   0.372  12.527
86495W        W58024   3.137  24.667   4.280
86496W        W58025  44.710  18.601   3.694
86497W        W58026   9.274  42.478  10.669
86498W        W58027  38.808   7.888  11.114
86499W        W58028   0.780  24.599   4.598
86500W        W58029  41.850  29.945   1.488
86501W        W58030  16.384  17.345   0.342
86502W        W58031   6.268   2.859  13.955
86503W        W58032  16.602  12.457  10.702
86504W        W58033  18.000  28.267  11.099
86505W        W58034   6.740  24.180   4.846
86506W        W58035  14.953  19.221   2.597
86507W        W58036  33.461  32.577  14.914
86508W        W58037  10.841   1.815  13.354
86509W        W58038  38.446  40.066   3.734
86510W        W58039  42.005  34.788   3.607
86511W        W58040  26.093  31.559  11.412
86512W        W58041  15.993  40.629  14.752
86513W        W58042  24.701  14.389   0.400
86514W        W58043  25.309  15.649   3.315
86515W        W58044  32.598  36.132   2.489
86516W        W58045  21.462   7.908   3.160
86517W        W58046  10.084  24.194   0.318
86518W        W58047  28.848  11.131   2.683
86519W        W58048  15.669   1.642   5.150
86520W        W58049  11.911  17.555  13.927
86521W        W58050  20.381  26.137  10.901
86522W        W58051  13.141  30.001  13.740
86523W        W58052  32.597  29.945   2.398
86524W        W58053  18.296  32.759  12.124
86525W        W58054  28.403  34.654  13.922
86526W        W58055  29.669  23.644   4.655
86527W        W58056  21.185  32.640   2.270
86528W        W58057  29.256  11.725   2.477
86529W        W58058  24.236  14.682   1.209
86530W        W58059  12.111   7.669   0.066
86531W        W58060  30.936  30.656   0.785
86532W        W58061  18.924   3.754   2.863
86533W        W58062  22.227  36.264  13.800
86534W        W58063  18.134  30.726  13.471
86535W        W58064   3.785   3.050  14.987
86536W        W58065   9.588  25.163   3.841
86537W        W58066   7.836  19.260  11.193
86538W        W58067   9.902   4.869   1.881
86539W        W58068  35.404  44.342   4.586
86540W        W58069  12.789  25.637  13.063
86541W        W58070   3.301  30.208  13.372
86542W        W58071  19.003  19.678  12.632
86543W        W58072  19.549  32.628  11.544
86544W        W58073  36.359  29.439  11.652
86545W        W58074   0.372  15.417  11.963
86546W        W58075  10.133  32.347   1.830
86547W        W58076  24.743   8.955   2.417
86548W        W58077   4.613  24.585  13.397
86549W        W58078  40.034  19.602  14.794
86550W        W58079  44.251  22.713   4.997
86551W        W58080  10.622  21.984   4.076
86552W        W58081  34.532   7.966   3.154
86553W        W58082  42.930   9.724  12.549
86554W        W58083  28.828  12.152  10.781
86555W        W58084  38.979  17.395  12.929
86556W        W58085  15.642  17.785   3.456
86557W        W58086   9.827   7.202   2.497
86558W        W58087  23.643  32.323   3.340
86559W        W58088   9.890  39.991   2.769
86560W        W58089  32.617  35.346   3.052
86561W        W58090  10.467   9.867   0.527
86562W        W58091  43.399  14.766   2.444
86563W        W58092  21.695   2.325  10.516
86564W        W58093  25.048  41.433  10.657
86565W        W58094  12.914  16.712  11.579
86566W        W58095  41.683  26.704   4.167
86567W        W58096   5.560  24.612  13.004
86568W        W58097  43.254  16.105  13.836
86569W        W58098  40.566  12.281   2.219
86570W        W58099  12.581   7.685   2.147
86571W        W58100   7.746  29.179   3.822
86572W        W58101   4.362  20.720   0.803
86573W        W58102  30.680  34.790  10.286
86574W        W58103  43.277  18.613  13.644
86575W        W58104  11.143   9.863  14.905
86576W        W58105  37.828  22.865  13.395
86577W        W58106  42.078  37.826  10.765
86578W        W58107  19.472  32.909  11.092
86579W        W58108  36.056  39.977   1.061
86580W        W58109  31.381  21.958  13.579
86581W        W58110  37.948  29.592  14.955
86582W        W58111  23.220   3.326   2.775
86583W        W58112  19.845   9.205   1.314
86584W        W58113  33.487  39.384   3.110
86585W        W58114  28.003  41.027  13.586
86586W        W58115  26.855  25.126  13.231
86587W        W58116  39.042  28.198   3.658
86588W        W58117   8.551  12.386   2.303
86589W        W58118  42.781  28.048   4.060
86590W        W58119  38.901   4.275   1.287
86591W        W58120   3.140  20.516   0.522
86592W        W58121  19.175  13.213   1.210
86593W        W58122  41.298   2.562  13.778
86594W        W58123  39.359  14.692  11.346
86595W        W58124  37.851  34.106   2.310
86596W        W58125  32.984  12.061  14.284
86597W        W58126  22.099  42.903   0.429
86598W        W58127  43.504  35.759  13.516
86599W        W58128  37.022  37.980  12.365
86600W        W58129  15.890  15.007  11.536
86601W        W58130   3.591  27.425  13.096
86602W        W58131  25.300  17.155  14.473
86603W        W58132  40.566   3.653  12.022
86604W        W58133  25.974  44.087   3.629
86605W        W58134  15.025  13.636  11.456
86606W        W58135   4.716  27.745  12.088
86607W        W58136  36.792   5.651   0.449
86608W        W58137  21.231  44.413   0.081
86609W        W58138  22.572  30.657   3.271
86610W        W58139  30.980  26.235  14.716
86611W        W58140   1.981  29.840  13.488
86612W        W58141   0.876  10.180  13.988
86613W        W58142   9.714   9.783   4.052
86614W        W58143  37.305  13.358  11.652
86615W        W58144  14.552  28.786   3.752
86616W        W58145  41.982  37.880   1.274
86617W        W58146  21.656  28.141  10.624
86618W        W58147   2.470  27.033   4.686
86619W        W58148  25.678  11.466   3.832
86620W        W58149   7.331   8.388   3.665
86621W        W58150  35.050  13.954   3.281
86622W        W58151  44.892   8.462  14.398
86623W        W58152   0.135  36.400  13.753
86624W        W58153  22.768  43.431  13.275
86625W        W58154  27.116  33.185   3.144
86626W        W58155  16.576  28.564  12.094
86627W        W58156   9.322  25.942   4.335
86628W        W58157  40.391  20.712   2.214
86629W        W58158   7.748   2.409   3.097
86630W        W58159  42.756   9.875  11.011
86631W        W58160   8.401   6.282   4.726
86632W        W58161  17.221  30.486   1.190
86633W        W58162   4.479  35.823  10.740
86634W        W58163  44.423   0.308  12.321
86635W        W58164  33.945   3.539   3.633
86636W        W58165  30.685  16.543   9.771
86637W        W58166   1.386  33.485  11.638
86638W        W58167   2.146  32.612  11.227
86639W        W58168   6.496  32.366  14.288
86640W        W58169   3.777  44.016   2.903
86641W        W58170  28.055  26.113   1.158
86642W        W58171  12.195  33.363   3.953
86643W        W58172  22.997  11.721  12.572
86644W        W58173  17.610  41.947   2.766
86645W        W58174  37.276  12.203   0.374
86646W        W58175  11.637   2.029  14.043
86647W        W58176  30.640  31.314   4.847
86648W        W58177  15.875  29.426  13.476
86649W        W58178   6.629  31.493   2.853
86650W        W58179  14.162  23.468  10.971
86651W        W58180  37.365  40.688   2.871
86652W        W58181   5.300  43.056   1.810
86653W        W58182  30.151  43.695   1.192
86654W        W58183  33.898  13.336  13.275
86655W        W58184  14.330  14.408   2.744
86656W        W58185  13.072  24.142  13.506
86657W        W58186  22.648  35.417  10.728
86658W        W58187  31.994  42.479   4.979
86659W        W58188  13.079   4.334   0.769
86660W        W58189  28.936  40.936   1.322
86661W        W58190  40.339  31.021   2.667
86662W        W58191  21.293  23.596   4.112
86663W        W58192  40.304  35.996   3.302
86664W        W58193  18.953  21.018  12.360
86665W        W58194  12.777  23.627   1.137
86666W        W58195   5.690  38.483   3.711
86667W        W58196  13.542  22.271  13.140
86668W        W58197  28.141  36.904   2.725
86669W        W58198  22.978  29.631   4.543
86670W        W58199  38.162  11.261  13.551
86671W        W58200   4.004  16.254  11.590
86672W        W58201  16.849  30.390   4.092
86673W        W58202  16.595  40.323  13.947
86674W        W58203  10.294   8.894   1.353
86675W        W58204  25.223  22.249   1.249
86676W        W58205   5.004  11.609   2.286
86677W        W58206  26.414  39.728   4.282
86678W        W58207  13.321  13.887  13.209
86679W        W58208   8.791  33.908   0.222
86680W        W58209  44.740  15.818   3.323
86681W        W58210  25.401   5.157  11.531
86682W        W58211  34.839   2.525  14.779
86683W        W58212  41.026  41.425  14.709
86684W        W58213  42.497   6.715  13.274
86685W        W58214  40.032  32.101  13.958
86686W        W58215   3.253  26.001   4.581
86687W        W58216  30.129  36.594  13.441
86688W        W58217  42.752  22.827   2.657
86689W        W58218  39.821   4.356   3.775
86690W        W58219   1.325  20.699   3.838
86691W        W58220   7.849   5.403  11.621
86692W        W58221  29.353  10.659  11.585
86693W        W58222  27.119  26.474  12.123
86694W        W58223  15.184  39.464   4.560
86695W        W58224  16.566  32.454  11.453
86696W        W58225  15.206  26.122   3.411
86697W        W58226   5.261   3.994   3.721
86698W        W58227   4.337   1.182   2.369
86699W        W58228  15.230  13.189   4.316
86700W        W58229   8.630  23.071   1.877
86701W        W58230  38.109  23.936  13.073
86702W        W58231  12.654   1.101   0.456
86703W        W58232   3.972   3.722   1.238
86704W        W58233   8.953   7.681   4.598
86705W        W58234  38.956  16.939   4.536
86706W        W58235  20.535  26.427  14.910
86707W        W58236  43.545  18.691  11.222
86708W        W58237  40.530  21.523   3.326
86709W        W58238  40.819   6.720  13.901
86710W        W58239  10.113   0.023   0.367
86711W        W58240  39.322   8.126   4.551
86712W        W58241   6.202  38.950   3.180
86713W        W58242  43.169  10.816  14.990
86714W        W58243   1.536  42.014   1.671
86715W        W58244  22.117  14.865   1.400
86716W        W58245  31.132   3.100   2.384
86717W        W58246  23.715   4.818  13.818
86718W        W58247  22.157  36.007  13.348
86719W        W58248  44.531  14.421   0.755
86720W        W58249  23.263  33.645   4.136
86721W        W58250   6.816  11.174  11.144
86722W        W58251  37.404  34.027   4.133
86723W        W58252  16.309  10.393  14.486
86724W        W58253   8.857   3.892  12.412
86725W        W58254   2.273  33.712  12.157
86726W        W58255  44.973  42.857  13.411
86727W        W58256  44.992   6.332   3.766
86728W        W58257  19.829  35.858   1.961
86729W        W58258  30.735  32.444   0.334
86730W        W58259   6.464   3.786  13.505
86731W        W58260  25.634  41.260   1.397
86732W        W58261   6.845  30.809  10.599
86733W        W58262  37.264  41.875  11.839
86734W        W58263  32.943  18.647  12.538
86735W        W58264  33.372   9.031   9.875
86736W        W58265   9.769  44.400   0.508
86737W        W58266  31.066  34.939  13.839
86738W        W58267   2.470  35.348  11.649
86739W        W58268  34.504  33.949  10.381
86740W        W58269  15.277   2.762   4.386
86741W        W58270  28.862  43.464   4.200
86742W        W58271  30.971  11.326  10.544
86743W        W58272  38.113  39.547  11.560
86744W        W58273   4.403  29.715   2.336
86745W        W58274  16.681  37.067  14.081
86746W        W58275  33.929  17.022   3.156
86747W        W58276  13.389  14.314   2.275
86748W        W58277  42.944  10.646   0.707
86749W        W58278  34.417   1.472  12.907
86750W        W58279  44.276  18.719   2.298
86751W        W58280  43.419  12.308   0.965
86752W        W58281  21.649  26.658   0.283
86753W        W58282  14.504  43.924  10.894
86754W        W58283   1.492  27.177   3.313
86755W        W58284  18.305  25.771  11.690
86756W        W58285  27.108   7.866   0.921
86757W        W58286  19.144  31.410  10.725
86758W        W58287  10.900  27.439  11.425
86759W        W58288  19.524  16.752  10.599
86760W        W58289   6.256  24.793   4.460
86761W        W58290  12.044  41.787   1.850
86762W        W58291  23.536  31.576  12.403
86763W        W58292   9.314  41.051  14.965
86764W        W58293  14.230  26.670  13.451
86765W        W58294  10.736  18.636   2.355
86766W        W58295  26.721  20.746   2.892
86767W        W58296  43.053  13.631   3.213
86768W        W58297  33.439  20.541   0.720
86769W        W58298   8.689  32.514   2.859
86770W        W58299  16.733   1.831  11.339
86771W        W58300  34.389  38.468  13.233
86772W        W58301  11.650   3.272  11.597
86773W        W58302  41.488  13.351   0.280
86774W        W58303  39.260  33.777   1.275
86775W        W58304   8.832  18.221   4.124
86776W        W58305   7.571  43.036  14.219
86777W        W58306  11.863  28.689   4.255
86778W        W58307  21.380  42.266  14.852
86779W        W58308  33.560   1.652  11.198
86780W        W58309  41.908  35.703   2.356
86781W        W58310  37.228  11.190   3.356
86782W        W58311  34.695  19.668   2.727
86783W        W58312  33.648  23.131  13.906
86784W        W58313  21.506  42.561   4.715
86785W        W58314  11.375  21.830   3.388
86786W        W58315  19.510  11.858  10.753
86787W        W58316  18.271  19.113  12.392
86788W        W58317  18.937  25.014  11.012
86789W        W58318  25.600  43.864  10.775
86790W        W58319   2.978  25.060  13.901
86791W        W58320  41.051  12.975  11.687
86792W        W58321   6.232  42.899   2.501
86793W        W58322   4.704  14.116  11.510
86794W        W58323   1.986   6.912  12.353
86795W        W58324  11.628  28.599   1.207
86796W        W58325  41.257   1.404  11.593
86797W        W58326  34.954  27.613   0.350
86798W        W58327  22.912  44.954   0.273
86799W        W58328  15.564  15.167   1.276
86800W        W58329   0.809  44.022  13.476
86801W        W58330   1.247  17.761  14.867
86802W        W58331  33.778   8.331   2.313
86803W        W58332  36.210  24.589  11.057
86804W        W58333   2.887  11.200  11.524
86805W        W58334  31.781  12.405   4.432
86806W        W58335  43.453  24.412   4.410
86807W        W58336   2.380  44.923  12.517
86808W        W58337  27.552  33.845  14.439
86809W        W58338  12.709  23.244   2.446
86810W        W58339  12.382  36.926   1.463
86811W        W58340  16.015  13.194   2.329
86812W        W58341   0.063   9.198   2.665
86813W        W58342  23.442  19.466  13.928
86814W        W58343  32.059   0.971  12.810
86815W        W58344  14.891  15.867  14.060
86816W        W58345  38.152  37.185   3.686
86817W        W58346  38.357   9.623  14.050
86818W        W58347  28.489  19.062   1.222
86819W        W58348  31.477   5.202  13.422
86820W        W58349  24.720  40.418   1.428
86821W        W58350  18.365  21.776   2.137
86822W        W58351  31.698  13.772   1.288
86823W        W58352  37.525  11.570  10.665
86824W        W58353  36.390   4.141   3.757
86825W        W58354   3.315  26.712  10.727
86826W        W58355  43.802  39.288  11.666
86827W        W58356  25.991   6.739   2.272
86828W        W58357  41.451  26.539  13.528
86829W        W58358  32.692  39.801   0.360
86830W        W58359  18.018   3.482  14.850
86831W        W58360   2.981  44.351   2.368
86832W        W58361  35.355  21.589   2.344
86833W        W58362  17.275   2.458  10.874
86834W        W58363  44.039  36.016  12.410
86835W        W58364   7.410  22.008   3.172
86836W        W58365  17.696  10.053   2.385
86837W        W58366  13.878   3.852   0.418
86838W        W58367  11.188   2.239  10.727
86839W        W58368  35.363  21.353   1.884
86840W        W58369  22.545   3.390  10.642
86841W        W58370   0.219  32.850  13.010
86842W        W58371  27.433  39.345   0.451
86843W        W58372   9.686  39.782  14.917
86844W        W58373  29.597  21.179   4.376
86845W        W58374   3.871  19.251   2.366
86846W        W58375  34.121  20.659  13.968
86847W        W58376  22.085  34.475   1.863
86848W        W58377  39.914  26.768  12.978
86849W        W58378   0.178  14.710   2.183
86850W        W58379  43.541  17.361  10.403
86851W        W58380  10.727  19.692   0.966
86852W        W58381  18.569  17.360   1.049
86853W        W58382  22.782  43.684   3.412
86854W        W58383  23.740  13.560  13.782
86855W        W58384  17.290  23.577  13.322
86856W        W58385  40.948  42.031   2.805
86857W        W58386  44.340  24.615   4.574
86858W        W58387  38.991  36.800  13.392
86859W        W58388   7.204  40.812  11.624
86860W        W58389  41.541  38.115  13.935
86861W        W58390  10.370  26.633   0.451
86862W        W58391   2.713  43.242  13.535
86863W        W58392  21.743  11.260   2.011
86864W        W58393  17.253  28.061   3.802
86865W        W58394  28.549  41.561  11.564
86866W        W58395  11.878  40.444  11.606
86867W        W58396  11.562  16.622  14.255
86868W        W58397  33.853  23.262   1.929
86869W        W58398  35.481  15.618  12.426
86870W        W58399   2.332  25.162  12.593
86871W        W58400  35.529  43.212  11.445
86872W        W58401  18.547   8.263   0.999
86873W        W58402  41.383   8.714  12.389
86874W        W58403  15.040  28.149  13.989
86875W        W58404  27.486  36.545  14.253
86876W        W58405  39.941  10.383   0.239
86877W        W58406  14.968   0.865  11.955
86878W        W58407  41.485   2.750   2.444
86879W        W58408   3.904   8.913   4.494
86880W        W58409   5.827  34.217  11.195
86881W        W58410  33.682  26.198   1.831
86882W        W58411  13.314  25.592   3.176
86883W        W58412  44.306  12.824   3.155
86884W        W58413  33.366  24.612  13.752
86885W        W58414  15.507  18.392   2.834
86886W        W58415  19.725  36.082   3.222
86887W        W58416  31.548  19.947   0.799
86888W        W58417  34.789  22.569   1.820
86889W        W58418  32.853   1.438   4.227
86890W        W58419  44.760  27.902  11.406
86891W        W58420  29.429  17.548   2.756
86892W        W58421  15.877   7.641   4.998
86893W        W58422  35.482   5.698   4.510
86894W        W58423   0.515  13.085   0.022
86895W        W58424  20.664  12.796   4.582
86896W        W58425  13.165  24.432  10.440
86897W        W58426  31.523  29.013   2.834
86898W        W58427  12.789   6.719  12.550
86899W        W58428  41.517   8.137   0.288
86900W        W58429   8.402  19.537  13.143
86901W        W58430   7.820  28.143   3.034
86902W        W58431   3.333  21.996  13.122
86903W        W58432  24.610   1.531  12.632
86904W        W58433  40.668  41.005  10.654
86905W        W58434  30.647  37.523   3.654
86906W        W58435  15.129   3.212  11.134
86907W        W58436  30.662  36.412  11.180
86908W        W58437  15.358  24.107   2.288
86909W        W58438  29.338  25.249  12.948
86910W        W58439  31.915  26.031   0.112
86911W        W58440  26.929  31.951   4.110
86912W        W58441  15.217  30.976   4.600
86913W        W58442  29.110   8.337  11.423
86914W        W58443  39.554   8.621   0.042
86915W        W58444  40.475  41.493   2.146
86916W        W58445  11.558  18.855  14.215
86917W        W58446   5.188  24.764   0.922
86918W        W58447   8.742  30.703   0.993
86919W        W58448  40.351  10.321   1.346
86920W        W58449  35.958  29.913  12.082
86921W        W58450   1.683  23.793   3.982
86922W        W58451  18.628  17.809   1.905
86923W        W58452  26.105  37.042   3.775
86924W        W58453   3.218  16.638  10.721
86925W        W58454  20.249   6.309  12.865
86926W        W58455  10.604  34.388   4.562
86927W        W58456  44.907  36.831   1.340
86928W        W58457  24.558  33.615   0.110
86929W        W58458  39.094  23.307   1.395
86930W        W58459  24.253  19.051   3.859
86931W        W58460  39.096  41.596   0.334
86932W        W58461  13.386  35.859   2.315
86933W        W58462  26.104  32.069  11.205
86934W        W58463  20.788   5.372  12.468
86935W        W58464  32.183  42.380  12.158
86936W        W58465  16.849  10.561  13.044
86937W        W58466  29.452  41.814  12.299
86938W        W58467  34.690  35.902  13.645
86939W        W58468  14.872   4.015   4.093
86940W        W58469  15.236  17.642   3.152
86941W        W58470  10.070  31.731   2.741
86942W        W58471  35.526  34.651  14.283
86943W        W58472   1.236  35.599  14.817
86944W        W58473   1.922  29.050   4.283
86945W        W58474  10.133  30.657  13.956
86946W        W58475   1.207  25.385   3.235
86947W        W58476  32.974   7.478  13.096
86948W        W58477  44.570  11.265  12.807
86949W        W58478  42.700  32.315   4.069
86950W        W58479  35.598  34.781   1.412
86951W        W58480  41.725   9.232  14.321
86952W        W58481   9.668  30.129   1.683
86953W        W58482  28.908  28.982  13.986
86954W        W58483  14.716  20.512   1.768
86955W        W58484  43.585  42.487  13.219
86956W        W58485  20.619  14.328  13.785
86957W        W58486   7.859  20.284   2.729
86958W        W58487  18.073  40.927   2.187
86959W        W58488   2.795  35.546   2.891
86960W        W58489  37.002  40.029   0.977
86961W        W58490   0.359  30.748  12.495
86962W        W58491  17.146  39.946   4.514
86963W        W58492  40.565  17.569  14.072
86964W        W58493  44.999  23.808  14.236
86965W        W58494  12.170  44.816   0.421
86966W        W58495   6.922  32.159  13.883
86967W        W58496  10.226  38.143   2.394
86968W        W58497  25.983  15.175  11.298
86969W        W58498   8.721  22.874  14.220
86970W        W58499  23.761   2.257   1.296
86971W        W58500  26.007  18.340  10.871
86972W        W58501  21.766  34.776  12.402
86973W        W58502  37.319   4.328  13.038
86974W        W58503   4.698  41.796  12.530
86975W        W58504   1.887  37.101   0.969
86976W        W58505  38.071   2.937   4.244
86977W        W58506  16.271   8.862   1.388
86978W        W58507  39.322  25.759   2.148
86979W        W58508  30.594   5.727   0.424
86980W        W58509  11.303  11.588   2.805
86981W        W58510  25.824  35.483  11.830
86982W        W58511   1.327  11.571  10.574
86983W        W58512  19.711  30.384   0.030
86984W        W58513  32.507  19.332   2.042
86985W        W58514   9.884  38.703  11.201
86986W        W58515  11.335  28.450   4.016
86987W        W58516  31.150  34.233   1.438
86988W        W58517  40.304   5.356   0.982
86989W        W58518  16.247   2.414  11.234
86990W        W58519  39.912  20.818  11.746
86991W        W58520  12.297  35.086  14.841
86992W        W58521  13.688  22.700  11.023
86993W        W58522  38.493  14.136  11.578
86994W        W58523  36.006  22.716  14.029
86995W        W58524   3.040  30.873   2.431
86996W        W58525  13.884  32.580   0.004
86997W        W58526  10.932  13.257  12.380
86998W        W58527   2.777  17.478   1.223
86999W        W58528  32.434   1.949   1.930
87000W        W58529   3.266   8.255   1.789
87001W        W58530   8.926   5.269  14.184
87002W        W58531  32.902  13.372   0.342
87003W        W58532  22.993  14.856  11.038
87004W        W58533   1.023  22.780   2.865
87005W        W58534  30.471  32.639  11.610
87006W        W58535  32.182  16.143   3.759
87007W        W58536  42.289  13.881   0.755
87008W        W58537  13.849  40.761  11.677
87009W        W58538   5.584  18.517   0.796
87010W        W58539  19.589  29.982  13.551
87011W        W58540  26.085  31.562   2.473
87012W        W58541  11.251  41.895   2.909
87013W        W58542   2.901  22.119  12.853
87014W        W58543  16.666  26.182   2.598
87015W        W58544   1.826  39.020   1.036
87016W        W58545   7.831  14.247  12.454
87017W        W58546   9.265  30.203   0.097
87018W        W58547  27.411  11.433   1.754
87019W        W58548  44.042  32.094   2.882
87020W        W58549   6.148  26.189   2.761
87021W        W58550  14.096   7.351   1.189
87022W        W58551  32.061  15.910   2.683
87023W        W58552  42.443   1.535  12.935
87024W        W58553  17.957  31.911  11.114
87025W        W58554  36.939  15.621   4.983
87026W        W58555  42.924  38.525  14.122
87027W        W58556  34.491  10.934  14.509
87028W        W58557   7.986  15.017   0.266
87029W        W58558  18.185   2.050  14.531
87030W        W58559  10.706  28.508  10.738
87031W        W58560  41.869  18.252  14.053
87032W        W58561   3.813   3.410  11.278
87033W        W58562  30.247   1.303   1.524
87034W        W58563  10.511  13.103   2.014
87035W        W58564  10.424   7.565   4.382
87036W        W58565  11.895  39.448   3.418
87037W        W58566  29.839   6.275   0.212
87038W        W58567  38.429   9.986   1.102
87039W        W58568  31.708  10.334   3.950
87040W        W58569  26.473  14.771   5.039
87041W        W58570  37.577  25.534   1.955
87042W        W58571  22.259  22.461   0.924
87043W        W58572   9.900  20.078  14.788
87044W        W58573  33.606  35.617  12.763
87045W        W58574  19.129   4.208   1.429
87046W        W58575  41.969   7.815   0.318
87047W        W58576  39.002  33.915   0.842
87048W        W58577  37.566  23.413  14.623
87049W        W58578   5.284  19.616   2.156
87050W        W58579   4.904  26.540  13.933
87051W        W58580  18.680  12.765  14.800
87052W        W58581  15.513  24.585  11.527
87053W        W58582  28.120  13.580   1.853
87054W        W58583  34.843  27.038   1.700
87055W        W58584  16.370  41.544  12.193
87056W        W58585  33.851  27.871  10.633
87057W        W58586  25.739  15.174  14.640
87058W        W58587  28.489  29.225   4.209
87059W        W58588  22.682   2.174  12.147
87060W        W58589  22.427  21.596  11.493
87061W        W58590   4.938  17.511  12.923
87062W        W58591  11.055  21.636  13.879
87063W        W58592  11.925  17.726   1.197
87064W        W58593  15.340  12.652   2.162
87065W        W58594  20.519  28.451  12.507
87066W        W58595  44.223  25.592   0.415
87067W        W58596  40.246  26.096  13.976
87068W        W58597  44.695   0.798   0.896
87069W        W58598   5.176  35.487   2.397
87070W        W58599  40.443  33.909  11.164
87071W        W58600  29.575  43.417   3.183
87072W        W58601  40.345  10.396   0.819
87073W        W58602   1.634   3.851   1.921
87074W        W58603  34.918  12.892   4.984
87075W        W58604  23.091   2.974  12.013
87076W        W58605  15.343  23.430   1.697
87077W        W58606   0.460  28.869  13.714
87078W        W58607  14.899  15.109  11.540
87079W        W58608  20.300   8.738  11.595
87080W        W58609  14.077  43.046   2.782
87081W        W58610  35.114  21.346   4.051
87082W        W58611   0.914  35.994  12.177
87083W        W58612  42.744  13.326  14.345
87084W        W58613  25.910   1.456   1.429
87085W        W58614  24.719  34.094   3.668
87086W        W58615  35.035  36.414  11.473
87087W        W58616  21.794  21.680  13.099
87088W        W58617  41.977  31.462  11.847
87089W        W58618  36.955  24.561  11.704
87090W        W58619  37.420  33.366  13.733
87091W        W58620  38.969  28.758   0.357
87092W        W58621  42.825  42.012   1.718
87093W        W58622  10.211  20.358   0.391
87094W        W58623   5.288   2.365  12.984
87095W        W58624  39.533   0.412   0.890
87096W        W58625  29.166  10.423  10.746
87097W        W58626   7.121  35.214  11.241
87098W        W58627  40.506   8.241  14.899
87099W        W58628  15.120  16.064   0.250
87100W        W58629  19.662  25.040  11.218
87101W        W58630  17.376  14.178   3.417
87102W        W58631  36.989  14.778   4.354
87103W        W58632  30.940  42.777  14.578
87104W        W58633   7.396   4.713  14.939
87105W        W58634   5.265  28.658  12.611
87106W        W58635  32.486   1.554   1.408
87107W        W58636  19.518  26.901  14.813
87108W        W58637  23.695  31.226  13.413
87109W        W58638  40.977  34.460  12.658
87110W        W58639  39.376  27.100  14.013
87111W        W58640   8.295  24.922   0.781
87112W        W58641  27.607  36.369   2.103
87113W        W58642  22.487  33.571  14.345
87114W        W58643  40.927   6.658   0.855
87115W        W58644  39.682  26.625   0.788
87116W        W58645  34.151  40.786   0.236
87117W        W58646  14.508  12.828  14.805
87118W        W58647  30.360  16.276  13.979
87119W        W58648  21.786   8.705   0.890
87120W        W58649  44.595  22.075  12.490
87121W        W58650  10.593  29.520  11.525
87122W        W58651  38.046  39.610   3.584
87123W        W58652   8.524   4.214   2.831
87124W        W58653  22.970  42.805   0.827
87125W        W58654  24.235  20.055  13.953
87126W        W58655  33.525  44.010   2.817
87127W        W58656  34.555  20.236  13.231
87128W        W58657  10.875  19.791   2.756
87129W        W58658  35.921  28.970   0.669
87130W        W58659  33.876   5.809  14.106
87131W        W58660  40.663   2.240   2.917
87132W        W58661  34.871  38.180  10.901
87133W        W58662   4.025  24.475  13.492
87134W        W58663  11.139  24.757  12.062
87135W        W58664  14.381  34.484  14.208
87136W        W58665  15.633  30.189  12.994
87137W        W58666  13.790  42.917   2.362
87138W        W58667   1.767  10.674   3.858
87139W        W58668  44.585   5.408   2.229
87140W        W58669  44.834  33.455   0.369
87141W        W58670  17.562   2.773  11.874
87142W        W58671  39.789  39.491   0.180
87143W        W58672  30.453  44.491  14.984
87144W        W58673  25.570  14.906   0.066
87145W        W58674  38.042   3.820  11.970
87146W        W58675  14.098  18.364  11.702
87147W        W58676   4.868  42.500   5.084
87148W        W58677  34.651  42.345   2.885
87149W        W58678  20.435  33.819  13.532
87150W        W58679  31.000   9.258   4.113
87151W        W58680  19.097  15.102   3.161
87152W        W58681  17.143  39.053   2.844
87153W        W58682  18.805   8.172   4.816
87154W        W58683  23.525  26.733   0.744
87155W        W58684  19.707  26.177  12.114
87156W        W58685  20.996   7.899   1.376
87157W        W58686   4.750  42.387  11.624
87158W        W58687  31.406  27.552  12.643
87159W        W58688   6.760  15.301   3.105
87160W        W58689  16.408  20.056  13.076
87161W        W58690  43.228  27.006  14.047
87162W        W58691  44.479  31.853  12.598
87163W        W58692  37.339  24.415   4.118
87164W        W58693   6.114  43.658  12.306
87165W        W58694  28.871  13.219   1.189
87166W        W58695  19.262  38.517   1.733
87167W        W58696  40.411  21.045   5.114
87168W        W58697  26.285  38.458   2.841
87169W        W58698  21.639  17.500   0.350
87170W        W58699  29.671   5.324   1.788
87171W        W58700  38.059  44.772   3.820
87172W        W58701  23.568  23.708   4.656
87173W        W58702  18.748  33.913  11.848
87174W        W58703  15.352  39.512   1.118
87175W        W58704  37.468  30.086   0.114
87176W        W58705   2.033  42.479  10.761
87177W        W58706  32.187  16.720   1.675
87178W        W58707  38.546  11.443  11.487
87179W        W58708  38.087  44.458  11.122
87180W        W58709  31.328   3.687  14.939
87181W        W58710  36.266  28.174  14.447
87182W        W58711  44.475  30.875   4.255
87183W        W58712  29.978  38.570  13.849
87184W        W58713  23.973  15.016  12.119
87185W        W58714  20.552  16.855  10.738
87186W        W58715  17.869  21.903  13.519
87187W        W58716  19.297  24.064  13.574
87188W        W58717  43.425  28.364  11.146
87189W        W58718  23.957  34.034  12.904
87190W        W58719  41.085  40.475  10.654
87191W        W58720  29.970  17.543   4.903
87192W        W58721  37.238  36.279  13.917
87193W        W58722  43.540   0.770   0.481
87194W        W58723  33.975  36.204  11.480
87195W        W58724  15.513  27.634   2.792
87196W        W58725  36.368  33.612  13.007
87197W        W58726  38.979  10.086  10.159
87198W        W58727   2.239  44.358   1.816
87199W        W58728  25.255   2.686  11.021
87200W        W58729  10.661  14.861   0.811
87201W        W58730  21.594  36.372   3.848
87202W        W58731  19.142   2.952  13.034
87203W        W58732  28.274   2.560  12.524
87204W        W58733  16.806  11.152   0.853
87205W        W58734  15.928  39.090  12.936
87206W        W58735  33.102  20.298  10.355
87207W        W58736   8.927  11.809  12.958
87208W        W58737  39.345  10.068   4.595
87209W        W58738  32.806   4.264  13.820
87210W        W58739   8.018   8.434  10.573
87211W        W58740   9.149  17.688  11.877
87212W        W58741  20.388  18.516  12.305
87213W        W58742  40.397   6.279   0.436
87214W        W58743   5.716  42.697   3.397
87215W        W58744  30.403  20.622  13.438
87216W        W58745  42.742  32.160   1.528
87217W        W58746  12.586   6.334  13.312
87218W        W58747  30.822  43.645  13.548
87219W        W58748  43.276  15.719  11.242
87220W        W58749  13.122  42.938   3.135
87221W        W58750  44.683   7.312   1.348
87222W        W58751   3.347  27.255  12.643
87223W        W58752   1.013   7.454  12.093
87224W        W58753  21.116  40.514   3.274
87225W        W58754  18.084  37.528  13.964
87226W        W58755  11.931   7.993  11.420
87227W        W58756  17.359  17.974   4.566
87228W        W58757  43.503  37.052  13.867
87229W        W58758  28.536   5.338  12.572
87230W        W58759  36.408  37.346  11.601
87231W        W58760   5.047  26.415  14.802
87232W        W58761  16.348  28.522  13.946
87233W        W58762   8.606   7.478  12.126
87234W        W58763  14.298  19.719   0.472
87235W        W58764  17.174  13.660   2.199
87236W        W58765  15.971   2.440   2.812
87237W        W58766  38.255   2.688   3.807
87238W        W58767   5.370   3.776  14.732
87239W        W58768  26.881  44.527  11.022
87240W        W58769  18.116   3.708   4.354
87241W        W58770   6.130  33.465  11.643
87242W        W58771  32.590  31.792  14.960
87243W        W58772  40.089  15.354  13.877
87244W        W58773  36.078  40.904   3.724
87245W        W58774  30.861  17.049   2.149
87246W        W58775  14.314  13.539  14.542
87247W        W58776  32.065  15.621   0.994
87248W        W58777  39.892  21.624   3.815
87249W        W58778  40.292  10.699  11.669
87250W        W58779  30.949  33.930  14.942
87251W        W58780  44.217  18.201   3.220
87252W        W58781  24.618  37.195  14.339
87253W        W58782  39.086  42.330  13.931
87254W        W58783   7.425   5.691   4.013
87255W        W58784   7.787  34.510   0.735
87256W        W58785  17.807  24.014  11.384
87257W        W58786  38.401   1.451  12.063
87258W        W58787  14.333  15.068  13.006
87259W        W58788  25.190  37.602  12.378
87260W        W58789   3.247  26.358  11.115
87261W        W58790  20.107  16.107  14.523
87262W        W58791  15.105  34.779   4.721
87263W        W58792  29.543  13.673  12.826
87264W        W58793   3.238  39.420  13.951
87265W        W58794   2.064   7.070   1.792
87266W        W58795   3.038  29.588   1.874
87267W        W58796  10.923   5.711   1.248
87268W        W58797  10.940  16.647   2.274
87269W        W58798   5.118  30.127  14.460
87270W        W58799  15.028  20.083   4.109
87271W        W58800  15.765   7.249  14.548
87272W        W58801   5.290  13.223  13.043
87273W        W58802   3.474  30.631   3.709
87274W        W58803  14.204  32.562  11.169
87275W        W58804  29.057   4.512  12.514
87276W        W58805  24.545  10.738   2.218
87277W        W58806  28.804  35.578  12.082
87278W        W58807  27.071  22.933  10.807
87279W        W58808   8.400  25.410  13.780
87280W        W58809  35.017  20.079   3.593
87281W        W58810  12.734   9.139   0.977
87282W        W58811  31.477  23.023  10.873
87283W        W58812   8.564  15.336  11.903
87284W        W58813   9.152  35.874  10.730
87285W        W58814  43.419  40.658  12.939
87286W        W58815  15.302  11.091  12.927
87287W        W58816  14.640  35.539  12.978
87288W        W58817  19.456  33.347   0.332
87289W        W58818  32.036  40.097   1.107
87290W        W58819  35.641  17.910  11.895
87291W        W58820  20.404  31.995   2.195
87292W        W58821  26.993  19.084   1.113
87293W        W58822  24.891  13.797   0.906
87294W        W58823  24.482  17.668   1.418
87295W        W58824   1.337   4.663   0.053
87296W        W58825  11.625  42.350  14.222
87297W        W58826  44.853  43.028  11.183
87298W        W58827  27.197   0.375  11.986
87299W        W58828  38.644   0.972   1.008
87300W        W58829  42.529  39.627   1.376
87301W        W58830   9.658  24.243  12.888
87302W        W58831   4.435   6.320  11.628
87303W        W58832  25.452  20.960  10.751
87304W        W58833  18.750  19.324   1.654
87305W        W58834  35.805  37.598   0.745
87306W        W58835  35.644  38.248  12.671
87307W        W58836  42.017  41.709  12.026
87308W        W58837  40.252  37.854   0.828
87309W        W58838   8.715  15.083  10.944
87310W        W58839  26.780  35.073  10.392
87311W        W58840  39.384  39.422  12.028
87312W        W58841  34.547  15.720  13.794
87313W        W58842   4.352  42.588  14.882
87314W        W58843  40.966  34.986  14.824
87315W        W58844   2.869  42.553   1.763
87316W        W58845   3.360  22.409  12.802
87317W        W58846  40.533   1.596  11.584
87318W        W58847  33.145   2.398   3.622
87319W        W58848  31.872  29.934   1.729
87320W        W58849  12.733  41.557   4.589
87321W        W58850  25.768  43.875   3.203
87322W        W58851  24.989   6.791  10.456
87323W        W58852  15.238  40.563  10.946
87324W        W58853  30.600   4.723   0.304
87325W        W58854  11.848   3.558   5.099
87326W        W58855  23.662  34.428   0.792
87327W        W58856   9.617  26.154  13.066
87328W        W58857  39.136  17.229  14.194
87329W        W58858  43.307   1.977   3.136
87330W        W58859  29.318  24.342  11.207
87331W        W58860   5.661   5.350  10.737
87332W        W58861  18.247  11.290   2.701
87333W        W58862  36.027  20.530  12.405
87334W        W58863  33.183  17.253  12.851
87335W        W58864  38.963  21.052   4.395
87336W        W58865  29.963   6.368   0.695
87337W        W58866   1.189  36.059   4.382
87338W        W58867  39.073  17.651  13.848
87339W        W58868   0.706  41.869   2.157
87340W        W58869  38.960  30.728  11.103
87341W        W58870  39.613   6.237  12.390
87342W        W58871  16.734   6.883   3.705
87343W        W58872  25.541   8.812   2.956
87344W        W58873  39.612  28.901   0.525
87345W        W58874  29.094  37.922   1.888
87346W        W58875  29.127   2.711   0.670
87347W        W58876  36.617   5.695   1.442
87348W        W58877  21.196   4.197   4.383
87349W        W58878  16.031  19.309  11.968
87350W        W58879   3.707   2.733   1.703
87351W        W58880  21.119  11.177   3.228
87352W        W58881  32.380  14.115   4.716
87353W        W58882   3.504   4.989   2.258
87354W        W58883  22.816  44.732  14.828
87355W        W58884  42.027  16.553  12.482
87356W        W58885  10.597  11.623   4.159
87357W        W58886  39.537  23.544  14.316
87358W        W58887  14.305  26.155   2.944
87359W        W58888  14.532  31.814   1.886
87360W        W58889  27.653  20.116   0.439
87361W        W58890   9.087  24.545   0.534
87362W        W58891  18.101  10.829  14.480
87363W        W58892  20.693   7.451   4.124
87364W        W58893  36.934  14.733  11.003
87365W        W58894  22.314  24.001  14.528
87366W        W58895   0.133  44.672   2.347
87367W        W58896   7.909  24.709  11.981
87368W        W58897  38.786  26.133  14.985
87369W        W58898  36.646   8.359  13.418
87370W        W58899  33.375  43.256  12.085
87371W        W58900  21.240  17.190  12.888
87372W        W58901  44.619  32.942   9.817
87373W        W58902  15.703  16.303   4.609
87374W        W58903  36.411  20.208   4.769
87375W        W58904  21.020   9.699   1.293
87376W        W58905  12.605  29.463   4.098
87377W        W58906  13.104  40.448   0.160
87378W        W58907  25.797   9.101   0.436
87379W        W58908  19.229  37.080   0.821
87380W        W58909  15.262   1.705   1.023
87381W        W58910   0.950  43.794   4.574
87382W        W58911  44.488  29.112   4.657
87383W        W58912  42.290   5.456   0.458
87384W        W58913  18.227  10.751   4.460
87385W        W58914  11.850  43.530   0.261
87386W        W58915   0.160   1.333   0.521
87387W        W58916   7.474   4.309  11.938
87388W        W58917   8.732   9.598   2.056
87389W        W58918  44.526  32.424  14.431
87390W        W58919  10.089  30.094   1.349
87391W        W58920  22.288  20.089   0.966
87392W        W58921   6.787  20.184  13.472
87393W        W58922  25.115   5.574  14.527
87394W        W58923  41.705  24.995   4.556
87395W        W58924   0.880  35.184   9.929
87396W        W58925  21.262  23.674   2.643
87397W        W58926  10.571  44.862  11.275
87398W        W58927   3.651  26.439   4.575
87399W        W58928  11.238   5.289   0.715
87400W        W58929  38.023  33.447   3.745
87401W        W58930  37.525  37.344   3.073
87402W        W58931  17.692  26.216   1.615
87403W        W58932  41.887   4.489  12.659
87404W        W58933   4.506  34.408   1.298
87405W        W58934   7.279  34.511   1.987
87406W        W58935  15.107  29.920  13.659
87407W        W58936   8.839  16.748   2.397
87408W        W58937   0.715  31.039  12.722
87409W        W58938   1.973   1.007   3.159
87410W        W58939  30.920  13.181  12.392
87411W        W58940  40.819  30.976   1.831
87412W        W58941  42.944  32.342  11.112
87413W        W58942  39.327  41.389  14.170
87414W        W58943  21.621  20.317   2.187
87415W        W58944  32.706  41.770   1.848
87416W        W58945  43.271  30.778   3.164
87417W        W58946  10.031   6.141   1.267
87418W        W58947  11.042  10.113   1.882
87419W        W58948  31.393  30.707  14.887
87420W        W58949  33.604   1.019   0.369
87421W        W58950  30.041  18.136  10.856
87422W        W58951  19.921  30.142   0.488
87423W        W58952   5.864  35.297  12.855
87424W        W58953  14.110  35.528  13.869
87425W        W58954   6.318   9.035  13.483
87426W        W58955  18.751  17.800   0.883
87427W        W58956  19.433   1.012  12.090
87428W        W58957  23.600  26.486  12.558
87429W        W58958  16.413  37.980  13.365
87430W        W58959  33.169   3.730   2.197
87431W        W58960  32.912  32.535   1.200
87432W        W58961   5.380   9.895  11.107
87433W        W58962   4.320  27.736  10.969
87434W        W58963   2.454  32.351   1.248
87435W        W58964  28.085  19.307  13.894
87436W        W58965  31.122   4.919   1.641
87437W        W58966  24.780  37.657   1.757
87438W        W58967  17.330  15.830  10.745
87439W        W58968  25.244   9.751   2.882
87440W        W58969   0.255  34.804  11.571
87441W        W58970   1.257  26.654  12.075
87442W        W58971  16.763  31.744   2.880
87443W        W58972  19.182  26.869   2.726
87444W        W58973   0.875   4.823  10.309
87445W        W58974  22.758   4.614   5.251
87446W        W58975   6.793   1.211  10.947
87447W        W58976   9.797  22.437  14.732
87448W        W58977  19.067   2.829   3.794
87449W        W58978  22.110  12.807   1.254
87450W        W58979   1.758  40.731   1.687
87451W        W58980   7.083   5.273  10.903
87452W        W58981  32.189  27.180  14.491
87453W        W58982  25.677  39.903   2.087
87454W        W58983   5.852  34.147  14.449
87455W        W58984  34.465   2.999  10.599
87456W        W58985  23.150   7.676  12.755
87457W        W58986  39.845  34.508   1.830
87458W        W58987   6.814  22.181  12.225
87459W        W58988   2.656  24.459   3.162
87460W        W58989   9.054  27.765   0.816
87461W        W58990   9.756  42.544  11.878
87462W        W58991  27.564  43.850  13.811
87463W        W58992  18.343  12.007  13.758
87464W        W58993   7.808  32.180   5.119
87465W        W58994  23.500   1.485   2.711
87466W        W58995  14.831  42.399  11.659
87467W        W58996   0.689  36.339   4.308
87468W        W58997  39.336  22.215  14.525
87469W        W58998  32.506  28.035  12.990
87470W        W58999   7.715  22.246  12.005
87471W        W59000  41.934  15.693   3.626
87472W        W59001  14.619  24.096  12.569
87473W        W59002   6.868  38.293  14.847
87474W        W59003  36.590  33.931   1.792
87475W        W59004  32.110  14.096   2.245
87476W        W59005  30.052  29.043   3.836
87477W        W59006  44.529  19.506   1.282
87478W        W59007  13.713  24.457  12.968
87479W        W59008  13.862  14.114  14.933
87480W        W59009  33.926   4.944  12.557
87481W        W59010   7.245   7.587  12.076
87482W        W59011  30.462  14.531  12.008
87483W        W59012   3.527  32.779  10.108
87484W        W59013  21.981  10.694  13.130
87485W        W59014  44.048  17.800  13.361
87486W        W59015   4.020  12.163   4.016
87487W        W59016  37.945  30.057  11.195
87488W        W59017  32.763   9.374   0.902
87489W        W59018  28.465  19.074  14.969
87490W        W59019  16.761  44.109   4.702
87491W        W59020  24.616  23.693  10.508
87492W        W59021  39.902  32.563  14.511
87493W        W59022  39.320  32.371   3.193
87494W        W59023   3.343  30.641  14.437
87495W        W59024  14.662  19.244   4.133
87496W        W59025  23.527  25.933  13.442
87497W        W59026   4.990   3.734   0.460
87498W        W59027  35.164   3.816   3.241
87499W        W59028  24.262  35.103  14.835
87500W        W59029  36.813  34.373  13.237
87501W        W59030  10.822   0.209   1.422
87502W        W59031  21.063  37.887   0.309
87503W        W59032  33.409  20.848  14.338
87504W        W59033  34.789  20.207   2.738
87505W        W59034  22.513   7.115   1.951
87506W        W59035   7.964   6.435  12.452
87507W        W59036  34.043  34.334   4.896
87508W        W59037   0.496  33.337  12.348
87509W        W59038   9.267  28.573   4.775
87510W        W59039  24.654  35.994  12.158
87511W        W59040  13.700  43.476  14.763
87512W        W59041  10.282  11.523   4.573
87513W        W59042  37.629  30.975  11.142
87514W        W59043  18.752  42.563   1.880
87515W        W59044   1.406  33.496   2.890
87516W        W59045   3.696  22.042   2.696
87517W        W59046  20.962  25.072   2.435
87518W        W59047  17.245  25.201  11.647
87519W        W59048  15.953  34.119  13.682
87520W        W59049  32.152  37.345  13.576
87521W        W59050  30.462   4.460  11.590
87522W        W59051  39.561  20.840  12.137
87523W        W59052  17.038  31.471  14.782
87524W        W59053  15.598  11.871   9.910
87525W        W59054   6.754   0.119  10.506
87526W        W59055  15.782  23.280  13.017
87527W        W59056  10.816  41.852  10.161
87528W        W59057  22.727  16.261  13.119
87529W        W59058   9.085   8.185  14.832
87530W        W59059  31.377  17.346   3.956
87531W        W59060  39.902   0.505   3.869
87532W        W59061  35.850   1.956   1.373
87533W        W59062  44.987  31.547  10.840
87534W        W59063   0.937  37.886  11.016
87535W        W59064  26.673  15.856  13.416
87536W        W59065  44.974  30.930   4.128
87537W        W59066  36.100  10.848  10.726
87538W        W59067  35.369  30.408  14.004
87539W        W59068  26.487  36.070  13.354
87540W        W59069  21.237  42.877   5.106
87541W        W59070   1.116  24.594   0.798
87542W        W59071  27.377  35.897  11.398
87543W        W59072  20.303  27.030   4.139
87544W        W59073  42.152   9.792   4.158
87545W        W59074   8.301  19.881   1.150
87546W        W59075  43.425  10.948  12.595
87547W        W59076  17.269  32.504   2.599
87548W        W59077  36.066  18.370   2.728
87549W        W59078  40.091  12.145   2.303
87550W        W59079  10.150  27.950  13.941
87551W        W59080  23.039  42.782  13.384
87552W        W59081  19.256  21.985  10.097
87553W        W59082  41.902  16.752   4.682
87554W        W59083  36.846   1.374  12.098
87555W        W59084  20.795   0.838  13.388
87556W        W59085   7.488  38.075  14.058
87557W        W59086  19.486  17.157  11.462
87558W        W59087   4.407   2.195  13.135
87559W        W59088  19.142  43.731  12.889
87560W        W59089   6.404  26.035   3.176
87561W        W59090  24.447  38.340   3.111
87562W        W59091  26.635  20.901   1.740
87563W        W59092  41.027  44.175  14.171
87564W        W59093  27.538  28.370   2.477
87565W        W59094   3.705  15.137   3.630
87566W        W59095  21.086   5.167   1.337
87567W        W59096  14.781  38.031   2.311
87568W        W59097  35.866  39.757   3.284
87569W        W59098  29.573  40.458  13.858
87570W        W59099  29.199  39.555  12.326
87571W        W59100  13.724  24.055   0.360
87572W        W59101  31.019   1.816   1.781
87573W        W59102  35.566  29.927   3.508
87574W        W59103   2.044   5.775   1.357
87575W        W59104  37.327  31.542   4.129
87576W        W59105  32.600   1.746  14.778
87577W        W59106  29.579  24.166   0.427
87578W        W59107  31.521  41.053  13.763
87579W        W59108  32.091  38.399   0.479
87580W        W59109  40.679  26.496  11.095
87581W        W59110  31.045   4.310  12.825
87582W        W59111  17.492  42.706  11.246
87583W        W59112  11.204   8.874   4.210
87584W        W59113  22.661  19.716  10.643
87585W        W59114  42.451  19.740  12.394
87586W        W59115  15.725  11.611   0.323
87587W        W59116  23.532  25.232  12.114
87588W        W59117  11.391  18.082   3.784
87589W        W59118  37.048  14.880  12.603
87590W        W59119  23.787  31.041   0.469
87591W        W59120   8.731  34.788   4.941
87592W        W59121  24.017  15.930  10.771
87593W        W59122  10.615  36.374  12.024
87594W        W59123   0.353  30.615  13.534
87595W        W59124  26.199  15.879  13.199
87596W        W59125  41.920   6.474  12.584
87597W        W59126  44.394  26.547   1.689
87598W        W59127   1.358  20.141   0.544
87599W        W59128  20.855  42.341  11.220
87600W        W59129  35.276  43.236  10.474
87601W        W59130   5.027  11.500   5.112
87602W        W59131  11.316  20.141   0.897
87603W        W59132  32.155  21.095   3.633
87604W        W59133  44.953  44.711  14.926
87605W        W59134   5.192  38.538   3.649
87606W        W59135  20.495  40.626   4.162
87607W        W59136   8.164  15.680   3.252
87608W        W59137  38.405  41.028   3.657
87609W        W59138  41.325  44.589  14.379
87610W        W59139   6.489  26.675   4.687
87611W        W59140   9.497  32.349   3.407
87612W        W59141  30.485  28.067  14.708
87613W        W59142  17.156  10.188   0.696
87614W        W59143  23.618  39.237   1.010
87615W        W59144   8.913  16.329  11.090
87616W        W59145   9.210  31.365  11.507
87617W        W59146  33.365  21.462   1.063
87618W        W59147  19.508  43.923   4.628
87619W        W59148  15.334   4.791   1.866
87620W        W59149  34.331  39.363   4.871
87621W        W59150   4.487  44.857   2.466
87622W        W59151  18.178  29.836   2.502
87623W        W59152   1.485  20.747  13.400
87624W        W59153  26.944  11.799  14.281
87625W        W59154   1.454  38.634  12.626
87626W        W59155  29.452   2.736  14.365
87627W        W59156  32.726  25.926  11.573
87628W        W59157  23.127   4.581   2.212
87629W        W59158   4.135   6.191  14.330
87630W        W59159  20.461  29.129  11.954
87631W        W59160  21.939  22.141  12.850
87632W        W59161  42.613  37.941  14.452
87633W        W59162  22.545  35.939  11.537
87634W        W59163  33.569  37.708  11.917
87635W        W59164  12.712   3.939   0.930
87636W        W59165  15.727  17.670   3.956
87637W        W59166   6.300   7.184   0.261
87638W        W59167  41.518  38.293   4.091
87639W        W59168  40.622  10.829  12.625
87640W        W59169  26.338  21.525   4.225
87641W        W59170  18.235  23.307  13.422
87642W        W59171  17.302   7.392  12.485
87643W        W59172   2.865  37.316   1.835
87644W        W59173  17.608  15.175  13.988
87645W        W59174   4.323  11.441   0.286
87646W        W59175  21.177   1.396   2.905
87647W        W59176  16.399  40.619   0.120
87648W        W59177  41.096   4.881   2.911
87649W        W59178  11.124  14.603   1.840
87650W        W59179  37.374  20.016   0.520
87651W        W59180   0.858  24.683  10.696
87652W        W59181   3.205  25.274   3.727
87653W        W59182  12.390  12.563  11.302
87654W        W59183   7.631   0.054   2.617
87655W        W59184  34.891  15.783  12.264
87656W        W59185  14.841  40.710  13.033
87657W        W59186  36.610  12.094  10.801
87658W        W59187  27.568  12.538  14.253
87659W        W59188  43.369  42.378   0.983
87660W        W59189  37.244  20.130  13.080
87661W        W59190  22.688  12.552  10.761
87662W        W59191   9.181  13.161   1.440
87663W        W59192  43.311  30.605  12.047
87664W        W59193  36.282  11.347   1.724
87665W        W59194  38.816  28.986   0.901
87666W        W59195  40.592   4.814   2.750
87667W        W59196  23.223  20.425  13.511
87668W        W59197  28.987  22.515  13.539
87669W        W59198   8.922   5.301   1.385
87670W        W59199  35.090   9.686  12.001
87671W        W59200  21.735   6.314  12.701
87672W        W59201  22.694   8.587   5.035
87673W        W59202  20.143  24.375  14.049
87674W        W59203  33.369  26.533  11.820
87675W        W59204   4.496  18.748  14.477
87676W        W59205   1.016  17.570   4.258
87677W        W59206  43.357  12.064  14.490
87678W        W59207  44.461  19.647   3.252
87679W        W59208  33.591  12.396   4.675
87680W        W59209  15.705   1.342   3.076
87681W        W59210  29.423  35.157   3.189
87682W        W59211  33.447  38.040   1.825
87683W        W59212  27.830   5.696  10.699
87684W        W59213  40.355  33.414  10.198
87685W        W59214  28.640  19.149   4.522
87686W        W59215  39.883  16.608  13.361
87687W        W59216  16.676  42.411  10.994
87688W        W59217  40.782  17.602  14.545
87689W        W59218  25.362  11.045  14.869
87690W        W59219  40.413  26.897  14.880
87691W        W59220  19.500   8.762  13.827
87692W        W59221   4.445  35.986  12.064
87693W        W59222  23.267  12.580  14.337
87694W        W59223  20.909   1.851   0.740
87695W        W59224  38.721   7.718  12.092
87696W        W59225  32.566  38.317  12.921
87697W        W59226  42.976  28.843   3.690
87698W        W59227   2.836  13.446   3.570
87699W        W59228  39.537  14.101   4.151
87700W        W59229  43.991  30.696  13.392
87701W        W59230   4.479  12.215  13.915
87702W        W59231  10.296  36.602   1.209
87703W        W59232  34.936  17.575   1.347
87704W        W59233  15.187   2.292  13.440
87705W        W59234  22.669  16.604   1.925
87706W        W59235   7.253  38.822  12.407
87707W        W59236  34.080  23.747   2.038
87708W        W59237  27.558  33.435  13.445
87709W        W59238  38.513  15.539   1.060
87710W        W59239   7.812  13.845   3.114
87711W        W59240   1.931   0.796   2.682
87712W        W59241  24.218  41.269   0.217
87713W        W59242  33.905   4.381   3.249
87714W        W59243  10.493  19.976   1.328
87715W        W59244  26.969  42.524  10.439
87716W        W59245  28.113   9.766  13.571
87717W        W59246  25.952  39.519   2.339
87718W        W59247   4.489  42.038  12.934
87719W        W59248  31.356  13.144   1.009
87720W        W59249  41.963  25.017  11.063
87721W        W59250  18.651  11.090  11.602
87722W        W59251  43.733  12.645  11.008
87723W        W59252  11.685  11.796   0.339
87724W        W59253  37.077  21.812   4.130
87725W        W59254  44.697  44.476   2.158
87726W        W59255  40.918  20.717   1.932
87727W        W59256  22.304  41.438  13.004
87728W        W59257  12.238   7.537  14.556
87729W        W59258   7.901   1.002  14.913
87730W        W59259  18.744  41.260   0.156
87731W        W59260  20.167   3.853   0.755
87732W        W59261  30.005  12.423  11.489
87733W        W59262  12.649  40.948  13.169
87734W        W59263  34.468  35.777   2.566
87735W        W59264  27.926  26.543  14.951
87736W        W59265   6.205  34.034  12.797
87737W        W59266  42.034  23.562  10.701
87738W        W59267  29.121  23.992  11.525
87739W        W59268   4.932  17.466   1.494
87740W        W59269  16.129  20.141  13.504
87741W        W59270  13.850  42.327  10.751
87742W        W59271  31.537  16.551   3.376
87743W        W59272  21.245   9.192  14.967
87744W        W59273  17.647  43.355  13.819
87745W        W59274  11.587  35.622  13.964
87746W        W59275  42.187  18.599  12.011
87747W        W59276   1.352  22.964  10.730
87748W        W59277  12.056  24.726  11.968
87749W        W59278   6.536  23.194  12.151
87750W        W59279   4.646   9.194   4.814
87751W        W59280  24.282  23.877  12.995
87752W        W59281  22.627  12.237  11.158
87753W        W59282  32.793  31.983  11.599
87754W        W59283  38.346  19.659   0.390
87755W        W59284  37.513   3.106  13.469
87756W        W59285  26.904  23.172  11.656
87757W        W59286  14.596  10.934   4.171
87758W        W59287  14.964  20.413  13.410
87759W        W59288   4.067  23.330   0.867
87760W        W59289  41.476  42.926  10.370
87761W        W59290  29.758  31.863   0.466
87762W        W59291  38.780  26.165  13.643
87763W        W59292  32.207  24.257   0.935
87764W        W59293   3.710  28.151   3.596
87765W        W59294  41.356  11.159  14.546
87766W        W59295  15.133   0.179  12.091
87767W        W59296  11.645   8.900   0.240
87768W        W59297  12.971  44.417   5.019
87769W        W59298  14.116  27.424  12.621
87770W        W59299  13.635  44.808   3.060
87771W        W59300  40.743   9.503   1.160
87772W        W59301  38.723  37.899  14.978
87773W        W59302   4.301  33.184  10.719
87774W        W59303  20.806  14.758  14.437
87775W        W59304  40.169  41.789   5.011
87776W        W59305  25.646  33.905   1.426
87777W        W59306  36.856  11.869   3.370
87778W        W59307  27.734  23.545  10.702
87779W        W59308  37.869  29.408   4.594
87780W        W59309  23.947   0.228   4.204
87781W        W59310  14.790   0.420   2.673
87782W        W59311  41.265  30.498   3.796
87783W        W59312  31.214  43.543   4.215
87784W        W59313  44.567  25.244  14.305
87785W        W59314  11.221  26.056   3.891
87786W        W59315   4.481  16.168   4.142
87787W        W59316  11.200  31.487   0.158
87788W        W59317   1.789  35.377   4.862
87789W        W59318   7.166   2.307  12.157
87790W        W59319   4.943  34.184  13.382
87791W        W59320  21.268  43.914   0.252
87792W        W59321  43.224  22.093   0.448
87793W        W59322  26.643   7.364   3.685
87794W        W59323  22.082   4.238   0.411
87795W        W59324  13.551  40.830  12.609
87796W        W59325  43.982   0.892   2.306
87797W        W59326   0.932  40.386   3.100
87798W        W59327   3.916  28.756   3.195
87799W        W59328  16.990  19.533   0.142
87800W        W59329   6.229  41.397  13.411
87801W        W59330  27.140  32.932  14.333
87802W        W59331   3.732  29.379   4.265
87803W        W59332  12.399  28.696   4.569
87804W        W59333  33.913  14.736  14.268
87805W        W59334  17.048   2.320  11.665
87806W        W59335  39.011  32.187   1.860
87807W        W59336   9.076   0.557  13.617
87808W        W59337  36.657  31.541  12.873
87809W        W59338  25.221   0.397  10.217
87810W        W59339  35.602  44.142  12.888
87811W        W59340  21.778  42.404  11.104
87812W        W59341  10.778  16.083  10.992
87813W        W59342  21.361  39.665   2.311
87814W        W59343  31.326  33.118   2.814
87815W        W59344   0.390  14.403   0.438
87816W        W59345   6.889  14.632  13.367
87817W        W59346   4.983  39.492  11.621
87818W        W59347  21.521  38.242  11.555
87819W        W59348  34.938  15.972  10.803
87820W        W59349  10.767  31.525   1.944
87821W        W59350   8.160  43.789   1.219
87822W        W59351  22.159   6.178   4.279
87823W        W59352  25.512  22.081  12.593
87824W        W59353  19.378  10.739  13.495
87825W        W59354  13.462  30.864  14.223
87826W        W59355   3.196  22.893  12.852
87827W        W59356   6.106  13.895  14.305
87828W        W59357  43.888  31.518   1.448
87829W        W59358  11.859  33.023  11.415
87830W        W59359  29.900  30.133  11.227
87831W        W59360  34.256  33.448  11.713
87832W        W59361   7.541   0.180  12.616
87833W        W59362   5.087  31.963   3.479
87834W        W59363  27.468   1.733  11.623
87835W        W59364   9.959   9.414  14.378
87836W        W59365  11.723  22.979   2.761
87837W        W59366  15.740  15.439   1.688
87838W        W59367   7.694   8.434  11.252
87839W        W59368  36.395  38.389  14.148
87840W        W59369  13.712   5.540  11.604
87841W        W59370  42.904  32.422  13.092
87842W        W59371   4.824   0.091  12.532
87843W        W59372   9.316  42.468  11.570
87844W        W59373  27.573  12.320  12.951
87845W        W59374  44.665  20.841   4.718
87846W        W59375  38.003  24.705   4.639
87847W        W59376   3.824  24.044   1.886
87848W        W59377  28.875  12.646  10.951
87849W        W59378  18.137  18.726   4.765
87850W        W59379  20.661  28.577   2.369
87851W        W59380  30.180  16.568  13.114
87852W        W59381  26.425   8.247  12.094
87853W        W59382  20.062  44.359   4.092
87854W        W59383  36.758  28.542   3.718
87855W        W59384   4.853  21.881  12.394
87856W        W59385  14.306  18.603   3.787
87857W        W59386  25.102  30.551  12.651
87858W        W59387  37.573   2.867  11.989
87859W        W59388  22.704  27.326   4.751
87860W        W59389   2.256  43.227  11.153
87861W        W59390  22.048  36.010  14.465
87862W        W59391  37.142  12.828   4.213
87863W        W59392  23.085  35.423  14.366
87864W        W59393  34.799   9.437  14.072
87865W        W59394  20.768   3.398  14.379
87866W        W59395  41.031  30.754   3.394
87867W        W59396  34.480  39.520   0.302
87868W        W59397  31.585  40.451  10.742
87869W        W59398  12.278  10.103   2.010
87870W        W59399   0.012  37.579   0.933
87871W        W59400  24.553  44.411  13.589
87872W        W59401  23.603  43.013  13.938
87873W        W59402  13.814  22.104  12.124
87874W        W59403  30.169   9.352  14.812
87875W        W59404  23.717  37.639   5.057
87876W        W59405  44.280   1.289   0.680
87877W        W59406  44.508  12.585   2.085
87878W        W59407  29.489  31.392  12.976
87879W        W59408  22.305  29.083   3.628
87880W        W59409  18.595  29.471  13.822
87881W        W59410  18.884  41.919  14.340
87882W        W59411   3.952  24.765  12.616
87883W        W59412  43.790  21.388  14.703
87884W        W59413   9.135  34.875   1.862
87885W        W59414  34.608  22.665   1.308
87886W        W59415  23.698  29.119   2.411
87887W        W59416  29.090  14.458  12.264
87888W        W59417   4.512  31.937  13.921
87889W        W59418   7.739  42.991   5.267
87890W        W59419  15.349  39.269  13.414
87891W        W59420  37.972  18.150   0.688
87892W        W59421  13.191  34.965   4.693
87893W        W59422  37.049  42.740  12.477
87894W        W59423  40.783  14.821  11.754
87895W        W59424  11.914  11.658  12.940
87896W        W59425   5.878   3.695   4.346
87897W        W59426  40.893   1.790  13.802
87898W        W59427  16.359   2.211  14.622
87899W        W59428   7.841  14.880   3.794
87900W        W59429  27.589  40.333   2.329
87901W        W59430  39.074  25.543   3.690
87902W        W59431  21.063   9.464  14.527
87903W        W59432  30.298  32.121   3.134
87904W        W59433  35.932  40.868   0.781
87905W        W59434  29.107   5.746  12.928
87906W        W59435   6.349  30.863   2.895
87907W        W59436   9.555  29.520   3.129
87908W        W59437  14.179   9.828  11.674
87909W        W59438  26.597  21.219   2.144
87910W        W59439  32.551  42.280   4.720
87911W        W59440  29.819   6.442  13.906
87912W        W59441  40.714  25.430  12.025
87913W        W59442   0.685   1.781   4.766
87914W        W59443   1.873  44.684   1.942
87915W        W59444  32.890  38.042   0.948
87916W        W59445  33.681  15.535  10.974
87917W        W59446  29.941   9.604  11.206
87918W        W59447  32.051  12.501  11.443
87919W        W59448  12.288   4.908   1.871
87920W        W59449  15.145  13.134  12.947
87921W        W59450  32.277  10.957   0.538
87922W        W59451   3.236  18.539   3.232
87923W        W59452  43.906   0.445   0.862
87924W        W59453  15.104  27.413   0.847
87925W        W59454  44.709   7.687   2.621
87926W        W59455  27.107   2.474   1.864
87927W        W59456  23.582  42.814   3.239
87928W        W59457   3.817  25.687  13.534
87929W        W59458   1.296   7.879  12.109
87930W        W59459   2.808  39.617  14.216
87931W        W59460  37.750  13.808   2.285
87932W        W59461  28.655  17.183  10.150
87933W        W59462  39.974   6.427   4.082
87934W        W59463  33.971  28.987  13.963
87935W        W59464  29.908  29.506  12.490
87936W        W59465   3.189  41.979   5.106
87937W        W59466  38.641  23.005  13.998
87938W        W59467  18.206   3.225   0.271
87939W        W59468  27.957   8.694  12.425
87940W        W59469  39.435   2.687   4.129
87941W        W59470   6.158  14.243   4.559
87942W        W59471  25.292  31.884   2.575
87943W        W59472  37.538  23.090   0.983
87944W        W59473  16.270  24.894   2.432
87945W        W59474   9.647  41.606  14.309
87946W        W59475  10.356  42.717  14.996
87947W        W59476  33.803  16.780  10.446
87948W        W59477  30.946  40.611   2.701
87949W        W59478   2.881  10.604   0.894
87950W        W59479  18.871  44.946   1.826
87951W        W59480  35.444  28.424   3.203
87952W        W59481  40.641  20.010   0.387
87953W        W59482  36.004  31.009  10.482
87954W        W59483  29.813  29.627   0.676
87955W        W59484  22.093  15.339  14.560
87956W        W59485  12.366  19.159   4.959
87957W        W59486  34.436  14.169  11.984
87958W        W59487  44.541  32.279  11.275
87959W        W59488  35.435  21.132   1.055
87960W        W59489  21.219  24.742  14.337
87961W        W59490  43.748   6.756   2.893
87962W        W59491  38.593  31.731  14.650
87963W        W59492  38.328  13.334  14.543
87964W        W59493  16.278  28.354  13.077
87965W        W59494  20.994  17.373   4.012
87966W        W59495  22.761  11.827  13.842
87967W        W59496   7.812  36.315   3.281
87968W        W59497   4.384  13.352  13.577
87969W        W59498  32.894   5.179   1.273
87970W        W59499  34.676  43.512   3.752
87971W        W59500  20.933  25.650   1.634
87972W        W59501  30.666  32.303  11.945
87973W        W59502  29.556  22.216  10.600
87974W        W59503  28.164  40.781  13.167
87975W        W59504  24.978  36.678  13.504
87976W        W59505   9.894   2.877  14.817
87977W        W59506  43.722   7.490   0.936
87978W        W59507   5.151  42.779  12.451
87979W        W59508   8.399   5.890  12.819
87980W        W59509  43.976  24.985  12.631
87981W        W59510  24.085  18.602   1.318
87982W        W59511  23.482  30.600   4.472
87983W        W59512  25.028   3.890   4.245
87984W        W59513   4.466  30.140  11.091
87985W        W59514   3.727  23.300   3.297
87986W        W59515  36.508  41.133   0.351
87987W        W59516  32.919   1.088   3.335
87988W        W59517   5.193   7.203   2.198
87989W        W59518  20.500  41.520   4.006
87990W        W59519  18.750   9.836  11.922
87991W        W59520  19.610  25.504  13.455
87992W        W59521  16.334  18.380  12.092
87993W        W59522  37.147  38.035   2.791
87994W        W59523  19.145  40.797   3.833
87995W        W59524  19.836  34.181  10.592
87996W        W59525   9.390  10.299   4.426
87997W        W59526  10.174  28.394  13.015
87998W        W59527   3.795  14.174   2.131
87999W        W59528  27.630  22.780  14.999
88000W        W59529  12.862  11.186  10.233
88001W        W59530  40.708  38.522   4.480
88002W        W59531   0.666  19.073   3.139
88003W        W59532  20.616  10.094  10.648
88004W        W59533  17.760  17.108   4.821
88005W        W59534   3.000   6.151   2.933
88006W        W59535  40.801  41.328   0.682
88007W        W59536   9.176  40.155   3.177
88008W        W59537  20.865  25.915  10.941
88009W        W59538   4.339   4.374   1.406
88010W        W59539  18.315  24.904   4.251
88011W        W59540  28.982  16.227   3.681
88012W        W59541   2.302  22.818   1.473
88013W        W59542   4.297  34.956  11.049
88014W        W59543  28.991  41.349  14.949
88015W        W59544  37.505  43.580   1.872
88016W        W59545  14.975  40.462  14.821
88017W        W59546  17.222  20.405   4.006
88018W        W59547  12.379  31.166   3.056
88019W        W59548   2.969  11.507   4.582
88020W        W59549  28.539   4.218  14.465
88021W        W59550  42.505   1.520   1.235
88022W        W59551  30.053   1.546  12.612
88023W        W59552  41.458  19.796   4.066
88024W        W59553  15.062  42.930  10.059
88025W        W59554  43.524   0.446  10.278
88026W        W59555   4.619   2.483  14.864
88027W        W59556  25.993  40.414  11.181
88028W        W59557  11.097  10.229  11.199
88029W        W59558  33.446  25.772   1.697
88030W        W59559  18.630  35.338  11.140
88031W        W59560  15.837   2.611   3.654
88032W        W59561   0.904  22.371  14.692
88033W        W59562  25.165   0.873  12.559
88034W        W59563   9.408  13.606   1.240
88035W        W59564  39.839  13.279   0.372
88036W        W59565   6.663  13.438   3.210
88037W        W59566  41.409  44.890  13.140
88038W        W59567   6.013  19.779  10.644
88039W        W59568  31.467  19.717  10.572
88040W        W59569  43.676  24.571  12.558
88041W        W59570  14.794   0.502  14.902
88042W        W59571  16.046   5.254  13.533
88043W        W59572  36.574   8.978   4.739
88044W        W59573  19.411  44.225   0.210
88045W        W59574  26.608  38.714  14.745
88046W        W59575  21.799  15.756  14.755
88047W        W59576  18.215  27.176   4.101
88048W        W59577   2.825  44.703   4.842
88049W        W59578  42.856   4.213  13.478
88050W        W59579  16.551  21.169   3.629
88051W        W59580  30.697  25.951   3.784
88052W        W59581   2.996  19.711  12.567
88053W        W59582   7.303   8.556   4.511
88054W        W59583  26.484  44.023   0.365
88055W        W59584  24.312   9.128   0.251
88056W        W59585   8.863  16.183   0.680
88057W        W59586  27.069   3.373  10.622
88058W        W59587  19.489  19.611  11.208
88059W        W59588  26.414  20.599   0.800
88060W        W59589  31.291  12.651  11.672
88061W        W59590  34.556   3.686   4.191
88062W        W59591   3.870  19.747   2.152
88063W        W59592  16.794  14.548  11.568
88064W        W59593   0.411  38.794  14.728
88065W        W59594  25.587  30.137  13.845
88066W        W59595  16.513  41.076  13.477
88067W        W59596  18.875   5.554   0.221
88068W        W59597   2.594  12.794  10.279
88069W        W59598  17.773  31.953   3.701
88070W        W59599  14.344   4.408   2.857
88071W        W59600  43.022  25.154   0.464
88072W        W59601  28.390  16.328   2.702
88073W        W59602  22.696   9.178   3.069
88074W        W59603  41.434  19.553   1.708
88075W        W59604  37.149  37.673   2.394
88076W        W59605   6.378   4.288   0.217
88077W        W59606  43.799  28.772   3.277
88078W        W59607  42.119  37.650  11.542
88079W        W59608  12.878   7.613  12.606
88080W        W59609  38.918  37.659  12.680
88081W        W59610  17.833   6.061  14.914
88082W        W59611  10.690  12.865  14.320
88083W        W59612  25.006  36.013  12.926
88084W        W59613  16.126  16.962   3.806
88085W        W59614   5.169  36.873   4.546
88086W        W59615  30.278  26.213   4.062
88087W        W59616   2.329   9.770   1.688
88088W        W59617   2.909  37.853   3.043
88089W        W59618  14.636  26.418   1.349
88090W        W59619   6.251  23.022   1.698
88091W        W59620  12.831   1.279  11.968
88092W        W59621  13.064  37.822  11.245
88093W        W59622  36.080  43.363  14.953
88094W        W59623  38.448  19.107   0.421
88095W        W59624  35.333  44.296   2.383
88096W        W59625   5.809  38.067  13.428
88097W        W59626  24.166  31.431   3.854
88098W        W59627  22.102  28.849   1.282
88099W        W59628  29.155  20.999   4.155
88100W        W59629   2.504  39.492  12.405
88101W        W59630  23.312  15.694  13.750
88102W        W59631  12.043  23.155  11.630
88103W        W59632  30.508  37.589  12.709
88104W        W59633  40.774  16.528  12.932
88105W        W59634  15.140  35.044   2.561
88106W        W59635  13.366  13.744  10.593
88107W        W59636  23.244  26.178   0.315
88108W        W59637   9.719  21.503  10.619
88109W        W59638  25.712   2.366   0.297
88110W        W59639  28.551   3.810   4.554
88111W        W59640  43.462  35.410   3.778
88112W        W59641  22.771  28.260   0.931
88113W        W59642  35.016  12.485   2.769
88114W        W59643  30.613  23.457  13.206
88115W        W59644  43.252  43.857   1.713
88116W        W59645  39.310  38.775  12.764
88117W        W59646  35.681  24.827  11.889
88118W        W59647   9.167  19.259   5.597
88119W        W59648  20.339   0.957  12.509
88120W        W59649  26.297  12.314  14.804
88121W        W59650  13.563   5.331   1.875
88122W        W59651  22.374   0.848  13.454
88123W        W59652  27.517  37.365  12.137
88124W        W59653  29.087  44.175  14.452
88125W        W59654  20.211  26.973  12.400
88126W        W59655  30.551  15.682  13.042
88127W        W59656  39.930  35.153  12.210
88128W        W59657  22.008  38.212   1.893
88129W        W59658  12.608  24.416  11.092
88130W        W59659  41.484  43.883  12.796
88131W        W59660  36.042  27.394  14.242
88132W        W59661   7.903  21.919   1.462
88133W        W59662  11.323  40.550   0.820
88134W        W59663  31.408  28.191   4.628
88135W        W59664  11.319  42.055  13.952
88136W        W59665  38.824  17.273   1.801
88137W        W59666   4.600   3.469   0.671
88138W        W59667  22.655  24.042   3.865
88139W        W59668  36.999  35.137   1.830
88140W        W59669  22.812   6.762   1.685
88141W        W59670  20.711  31.155   2.638
88142W        W59671  16.326  15.598   4.512
88143W        W59672  15.637   5.382   0.823
88144W        W59673  37.477  26.556  13.577
88145W        W59674  12.290  19.298   2.793
88146W        W59675  13.343   3.560   1.971
88147W        W59676  12.154   7.783   3.316
88148W        W59677  22.172  10.630   4.512
88149W        W59678   6.262   2.490  11.878
88150W        W59679   6.551  36.504   2.747
88151W        W59680  30.475  25.841  12.336
88152W        W59681  15.120   8.238   1.407
88153W        W59682   4.813  41.973   5.054
88154W        W59683  34.597  30.834  12.293
88155W        W59684   1.358  31.640  11.196
88156W        W59685  15.381  34.908  13.488
88157W        W59686  28.663   2.747  10.624
88158W        W59687   1.245  21.201  13.456
88159W        W59688  35.407  34.579   0.530
88160W        W59689  15.037  16.450  12.409
88161W        W59690  42.354  35.516   2.157
88162W        W59691  20.420   6.029  13.813
88163W        W59692  43.741  33.550   2.217
88164W        W59693  11.968  20.551   0.526
88165W        W59694  38.300   2.006  12.853
88166W        W59695  26.696  33.762   2.939
88167W        W59696  22.232  24.559  12.405
88168W        W59697  24.999  21.068  10.950
88169W        W59698  16.050   9.631  12.911
88170W        W59699   8.823  33.241  10.576
88171W        W59700  33.232  10.885   4.543
88172W        W59701  21.150   4.432   3.244
88173W        W59702   5.655   5.753   4.161
88174W        W59703  22.449  28.254  13.011
88175W        W59704  33.440  35.035  10.550
88176W        W59705  14.243   7.391  14.355
88177W        W59706  32.411  22.322   4.191
88178W        W59707  13.275   1.235  13.910
88179W        W59708  18.637   9.555   1.112
88180W        W59709  12.335  17.123  12.061
88181W        W59710  43.391  44.437  12.057
88182W        W59711  25.480  14.871  10.653
88183W        W59712  12.698  23.161   1.411
88184W        W59713   7.876  42.525   3.398
88185W        W59714  32.310  18.893  13.524
88186W        W59715  14.200  17.492  13.269
88187W        W59716   8.919  19.551  10.739
88188W        W59717  11.111  33.606   0.736
88189W        W59718   0.315  27.921   2.429
88190W        W59719  30.126   1.661  14.877
88191W        W59720  13.174   5.630   3.670
88192W        W59721  36.281  36.902   0.913
88193W        W59722  44.898  33.700   2.361
88194W        W59723   7.209   0.734  13.408
88195W        W59724  27.677  29.560  11.628
88196W        W59725  41.887  36.781   3.606
88197W        W59726  21.413  30.196  10.634
88198W        W59727  40.607  11.442   1.658
88199W        W59728   8.326   8.916   0.710
88200W        W59729  15.718  34.450   4.324
88201W        W59730  15.896  20.697   4.327
88202W        W59731  36.756   6.866   3.147
88203W        W59732  41.020  32.703  12.897
88204W        W59733  14.666  32.343  11.007
88205W        W59734  34.040  24.200  12.045
88206W        W59735  34.902  22.850  12.086
88207W        W59736  19.084  43.865   1.958
88208W        W59737  13.378   2.385  13.985
88209W        W59738  25.171  25.479  13.848
88210W        W59739   1.507  15.800   4.079
88211W        W59740  28.681  13.280  10.178
88212W        W59741  29.190  22.245  13.985
88213W        W59742  16.367   9.221   1.023
88214W        W59743  27.152   2.206   0.340
88215W        W59744  22.369  25.618   1.909
88216W        W59745  29.957  25.550   2.899
88217W        W59746  28.021  28.485   2.261
88218W        W59747  39.121   7.304   0.931
88219W        W59748   0.694  25.980  10.760
88220W        W59749  30.642  13.560   3.446
88221W        W59750   3.764  13.602   0.766
88222W        W59751   1.108  44.047  11.883
88223W        W59752  32.456  19.760  10.604
88224W        W59753  16.091  31.758  10.491
88225W        W59754  16.237   0.583   2.737
88226W        W59755  15.779  22.226  13.060
88227W        W59756  28.915  25.065   4.167
88228W        W59757  33.599  38.132  13.898
88229W        W59758   8.321  28.001  11.661
88230W        W59759  12.883  14.018   4.327
88231W        W59760  29.431  38.361   4.095
88232W        W59761   4.942  11.170   4.361
88233W        W59762  11.354   9.569  13.439
88234W        W59763   3.948  42.113  14.271
88235W        W59764  36.935  13.895  14.469
88236W        W59765  30.028  27.131  11.342
88237W        W59766  17.121  42.966  13.962
88238W        W59767  14.574  18.792  13.413
88239W        W59768  37.767  31.035  14.006
88240W        W59769  16.067  17.978   3.697
88241W        W59770   2.190  20.647   2.709
88242W        W59771  38.945  26.658  14.678
88243W        W59772  22.402  30.456   1.270
88244W        W59773  29.569  12.752  10.273
88245W        W59774  35.179  28.014   2.339
88246W        W59775  12.037  43.822  12.146
88247W        W59776   2.246   6.488  12.239
88248W        W59777  23.232  23.662   2.811
88249W        W59778  27.011  24.892  11.887
88250W        W59779  39.922  32.956  13.385
88251W        W59780  42.502  20.752  14.714
88252W        W59781   9.808  12.715  12.006
88253W        W59782  32.975   7.667   0.429
88254W        W59783   6.841  14.337   0.920
88255W        W59784  40.984  24.778  14.314
88256W        W59785  24.661  18.948   2.296
88257W        W59786   1.436  30.595   3.990
88258W        W59787   6.094  26.602   4.358
88259W        W59788  24.086  31.947   4.027
88260W        W59789  42.221  43.822  13.904
88261W        W59790  35.230  36.988  13.573
88262W        W59791   4.801   8.259   0.268
88263W        W59792  16.109   4.890   1.455
88264W        W59793  30.829  16.628   2.429
88265W        W59794  11.732  37.511   1.680
88266W        W59795  11.191  34.567  11.395
88267W        W59796  27.501  27.739  13.351
88268W        W59797  33.898  31.625   0.350
88269W        W59798  10.302   7.961   0.549
88270W        W59799  25.515   4.207   2.891
88271W        W59800  26.726  39.926  12.628
88272W        W59801  24.578  21.591   2.263
88273W        W59802   6.199  14.808  14.503
88274W        W59803  15.766   3.708   0.994
88275W        W59804  20.286  34.628   4.130
88276W        W59805  36.062  30.668  12.033
88277W        W59806   9.179   7.347  13.831
88278W        W59807  32.925  24.601   3.981
88279W        W59808  38.047  27.125  11.588
88280W        W59809  13.573  19.245  11.269
88281W        W59810  44.379   2.757  13.965
88282W        W59811  41.796  19.150   0.033
88283W        W59812   1.047   4.482   0.979
88284W        W59813  14.555  31.683   5.059
88285W        W59814  17.637   3.654   2.344
88286W        W59815  27.205  42.103   4.770
88287W        W59816   2.260  44.500  13.848
88288W        W59817  36.967  21.713   1.619
88289W        W59818  36.051  13.781   1.837
88290W        W59819  44.303  14.838  13.588
88291W        W59820  16.197  40.701   0.660
88292W        W59821   8.328  24.178   1.277
88293W        W59822  26.886  44.687   4.283
88294W        W59823  35.137  14.627  12.358
88295W        W59824  22.203  39.597   3.750
88296W        W59825   8.428   7.738   3.268
88297W        W59826  26.490  10.280   1.611
88298W        W59827  44.073  31.435   4.645
88299W        W59828   4.521  32.449   3.014
88300W        W59829  36.625  11.686  10.481
88301W        W59830  27.425   3.203   1.372
88302W        W59831   6.111   6.371  12.089
88303W        W59832  21.089  19.768   0.497
88304W        W59833  44.211  12.806   4.832
88305W        W59834  43.568  44.552  10.230
88306W        W59835   0.697  21.960  13.882
88307W        W59836  38.865  20.977   2.410
88308W        W59837  36.728  12.234   3.724
88309W        W59838  20.296   6.806   3.074
88310W        W59839  39.367  15.149   4.362
88311W        W59840  34.130   5.369  11.181
88312W        W59841  36.894  21.582  11.584
88313W        W59842  37.576  35.994   4.076
88314W        W59843  40.268   2.285  12.029
88315W        W59844  30.204  33.688   2.370
88316W        W59845  43.321  26.756   3.286
88317W        W59846  19.761  40.269   0.365
88318W        W59847   2.785  24.256  10.776
88319W        W59848   7.858  16.481   4.117
88320W        W59849  38.493  34.533  13.603
88321W        W59850  27.074  13.924   2.387
88322W        W59851  25.716  26.282  12.989
88323W        W59852  23.714   8.568  11.649
88324W        W59853  30.032  42.519   4.689
88325W        W59854  10.825   0.333  11.221
88326W        W59855  17.667  40.894   2.912
88327W        W59856  18.454  13.321  11.189
88328W        W59857  14.795  17.183  10.294
88329W        W59858  26.128  44.210   4.340
88330W        W59859  30.553  25.091  14.444
88331W        W59860   1.415  43.235  11.205
88332W        W59861  43.345  19.932  13.307
88333W        W59862  12.833  31.128   0.423
88334W        W59863  33.095  41.552  13.466
88335W        W59864  30.450  27.240   3.261
88336W        W59865  42.037  27.952  12.940
88337W        W59866  10.129  39.193   5.121
88338W        W59867  34.177  19.721   2.720
88339W        W59868  24.527  24.175  10.654
88340W        W59869  30.165  24.072   1.624
88341W        W59870  42.689  33.071  11.570
88342W        W59871  44.821  12.907   3.270
88343W        W59872   0.737  28.971   1.649
88344W        W59873  26.628  11.891   4.079
88345W        W59874  15.934  30.711   0.911
88346W        W59875   4.465  23.726  10.625
88347W        W59876   3.519  28.859   0.054
88348W        W59877  26.451  37.477   4.814
88349W        W59878  40.285  14.160   3.618
88350W        W59879  24.195  20.967   0.824
88351W        W59880  25.859  42.876   1.309
88352W        W59881  38.666  44.182  12.375
88353W        W59882  36.315  35.358   4.170
88354W        W59883  37.915  28.969  12.726
88355W        W59884  24.086   7.379   1.988
88356W        W59885   3.127  24.143   0.173
88357W        W59886  22.591  38.272  14.502
88358W        W59887  23.647  30.093   2.777
88359W        W59888  28.764  28.067  12.325
88360W        W59889   9.806   8.414   0.032
88361W        W59890  21.069   0.453  13.148
88362W        W59891  37.538   4.340   1.745
88363W        W59892   3.632  33.158  11.032
88364W        W59893  23.256  30.146   0.341
88365W        W59894  32.181  22.766   5.094
88366W        W59895  35.565   0.230  11.892
88367W        W59896  43.885  31.138   0.661
88368W        W59897  32.181  43.807  12.401
88369W        W59898  16.772  40.020  12.565
88370W        W59899  18.985  10.266  13.920
88371W        W59900  43.481  35.446  10.636
88372W        W59901  31.938  17.246   3.250
88373W        W59902  30.048  37.495   0.532
88374W        W59903  10.788  44.538   3.581
88375W        W59904  17.650  13.284   2.665
88376W        W59905  14.619  40.236   0.117
88377W        W59906  43.448  10.375  12.928
88378W        W59907  18.051  20.789   1.138
88379W        W59908  21.059   8.744  13.058
88380W        W59909   9.387  31.847  11.607
88381W        W59910  13.358  41.083  13.326
88382W        W59911  32.640   3.270  11.652
88383W        W59912   7.768  28.381   2.490
88384W        W59913   8.293   2.175  13.400
88385W        W59914  38.865  14.776  14.039
88386W        W59915  37.312  22.572  10.707
88387W        W59916   2.908  44.793  12.613
88388W        W59917   5.064   9.571   4.666
88389W        W59918  32.418  23.960   1.345
88390W        W59919  23.638   5.623  12.934
88391W        W59920  22.165   8.499   3.310
88392W        W59921  27.594  15.881   1.749
88393W        W59922  24.341   2.723  14.118
88394W        W59923  36.082  10.894   1.830
88395W        W59924  15.462  27.535  12.626
88396W        W59925   4.803   1.732   2.725
88397W        W59926  15.809   6.700  10.747
88398W        W59927  12.648  17.764  11.966
88399W        W59928  32.987  16.073   1.368
88400W        W59929  26.154  16.813  14.314
88401W        W59930  16.987  34.853  14.790
88402W        W59931   3.241   8.417  10.806
88403W        W59932  21.257  39.753  14.362
88404W        W59933  17.710  42.311  12.168
88405W        W59934  42.480   9.871  14.478
88406W        W59935  17.660   1.203   4.780
88407W        W59936  15.538  22.267   3.666
88408W        W59937  24.593  23.671  11.026
88409W        W59938  43.359   7.120  10.768
88410W        W59939  20.807  26.432  11.014
88411W        W59940  31.788  35.865   0.527
88412W        W59941  25.723  40.734   1.276
88413W        W59942  28.561  37.054   1.720
88414W        W59943  33.235  13.165  10.310
88415W        W59944  25.135  24.708   3.729
88416W        W59945  17.147  15.604   3.618
88417W        W59946   2.719   4.186  11.166
88418W        W59947  24.930   4.231  14.053
88419W        W59948  18.083  13.062   1.734
88420W        W59949  29.475  22.675  14.887
88421W        W59950  37.004   6.383   3.853
88422W        W59951  20.512   9.945   3.236
88423W        W59952  24.524   9.756  11.230
88424W        W59953  16.808  35.796  14.911
88425W        W59954  27.310  39.416  11.421
88426W        W59955  41.238   5.378   4.543
88427W        W59956  22.363   1.014  11.772
88428W        W59957   0.899   7.680   2.412
88429W        W59958   6.311  11.266   0.718
88430W        W59959  28.273  37.463   1.354
88431W        W59960  23.724  21.042  11.163
88432W        W59961   1.268  42.797   3.099
88433W        W59962  23.784  44.273   2.201
88434W        W59963   5.632  44.767  13.382
88435W        W59964  44.326  22.020   0.746
88436W        W59965  36.875  35.138   1.313
88437W        W59966  44.818  40.809   4.903
88438W        W59967  18.294   5.146   2.733
88439W        W59968  17.019   8.699  12.768
88440W        W59969  23.081  15.615  11.941
88441W        W59970   2.706  14.204   4.816
88442W        W59971  36.737  40.419   0.743
88443W        W59972  12.384  29.712   3.685
88444W        W59973  37.248  26.604   0.570
88445W        W59974  43.970  15.757   3.802
88446W        W59975  11.779  23.999  12.962
88447W        W59976  31.109  36.650  11.071
88448W        W59977   0.353  38.853   2.964
88449W        W59978  11.898  27.220  14.316
88450W        W59979  21.155  36.884  12.099
88451W        W59980  33.467  25.046  14.030
88452W        W59981  36.779  26.911  11.184
88453W        W59982  42.339  19.503   0.839
88454W        W59983  43.446  36.176   4.169
88455W        W59984  29.124  27.677  12.401
88456W        W59985  37.456  16.547  14.461
88457W        W59986  29.445  16.453   3.937
88458W        W59987  14.528  12.101  13.817
88459W        W59988  40.901   4.485  14.474
88460W        W59989  37.618  44.010   4.860
88461W        W59990  44.438  24.280  11.569
88462W        W59991  30.081  36.637  11.022
88463W        W59992  31.764  43.323  13.070
88464W        W59993  35.632   2.144  14.871
88465W        W59994  43.821  11.099  10.415
88466W        W59995  20.151  28.358  11.984
88467W        W59996  34.053  15.274   1.608
88468W        W59997   7.151  11.970  11.943
88469W        W59998  44.834  26.534   1.352
88470W        W59999  31.296  14.948   0.076
88471W        W60000  41.998  20.573  13.356
88472W        W60001  38.415  28.631  14.225
88473W        W60002   0.351  36.121  12.123
88474W        W60003  17.029  16.762  14.999
88475W        W60004  40.031  21.842  12.886
88476W        W60005  31.773   1.972  12.000
88477W        W60006  40.524   1.912   0.193
88478W        W60007   4.132  13.976  12.149
88479W        W60008  40.195  23.700   3.540
88480W        W60009   3.448  14.922   2.378
88481W        W60010  15.276  30.844  13.597
88482W        W60011  10.872  17.047  13.433
88483W        W60012  25.903   7.345  12.456
88484W        W60013   9.934  33.078   0.630
88485W        W60014  22.069  22.820   2.297
88486W        W60015   3.870  15.708   2.201
88487W        W60016  34.120   6.170   2.328
88488W        W60017  21.650   4.144  11.659
88489W        W60018   6.401  44.894  14.547
88490W        W60019   8.542   4.299  12.401
88491W        W60020   0.881  41.019   2.709
88492W        W60021  38.115  19.615   0.852
88493W        W60022   7.283  15.777   0.260
88494W        W60023   2.194  41.879  12.520
88495W        W60024  21.014  25.550   3.697
88496W        W60025  29.134  44.010  11.392
88497W        W60026  11.968   2.404  10.362
88498W        W60027  30.737  27.368   2.828
88499W        W60028  10.448  10.324   3.777
88500W        W60029  41.797  37.441   0.525
88501W        W60030  10.276  43.970  11.052
88502W        W60031  26.487   6.420  14.017
88503W        W60032  25.142  39.862  12.750
88504W        W60033  26.627  25.548   4.081
88505W        W60034  41.843  24.902  14.846
88506W        W60035  12.453  34.839   1.552
88507W        W60036  21.544  40.791  14.745
88508W        W60037  42.414  20.875   4.382
88509W        W60038  41.245   6.667   0.401
88510W        W60039  44.662  41.354  11.178
88511W        W60040   3.285  29.955   2.796
88512W        W60041   8.443   8.517  10.852
88513W        W60042  41.166  38.782   5.143
88514W        W60043   1.863  35.580   3.334
88515W        W60044  30.200  11.364   1.672
88516W        W60045  37.001   2.325   1.213
88517W        W60046  44.633   8.392  14.858
88518W        W60047  24.469   6.444  12.421
88519W        W60048   7.991  10.898   4.220
88520W        W60049  20.012  12.903   4.251
88521W        W60050  39.059  36.872   4.670
88522W        W60051  11.088  34.927   1.693
88523W        W60052  20.449  18.242  10.683
88524W        W60053  13.645  29.000   3.334
88525W        W60054  38.123  35.457   1.820
88526W        W60055   4.294  16.173  11.166
88527W        W60056  31.861  28.686  12.537
88528W        W60057  18.680   7.625  12.588
88529W        W60058  29.069  13.435   9.858
88530W        W60059  23.733   5.138  13.133
88531W        W60060  17.923  30.942   2.931
88532W        W60061  39.057  38.376  13.900
88533W        W60062   7.635  26.070  14.006
88534W        W60063   6.852  37.391   3.276
88535W        W60064  21.046  30.488  12.093
88536W        W60065  10.425  10.232  14.801
88537W        W60066  26.577  35.049   3.783
88538W        W60067   5.653  38.963   9.829
88539W        W60068  26.452  13.959  14.689
88540W        W60069   1.745  27.608  13.068
88541W        W60070  20.319  21.509   0.328
88542W        W60071  28.020  34.402   1.742
88543W        W60072  36.388  20.519   2.734
88544W        W60073  13.356  12.418   3.293
88545W        W60074  29.226  35.022  13.875
88546W        W60075  28.725  34.545  11.203
88547W        W60076   7.213  11.694  13.798
88548W        W60077  36.313   3.384  12.202
88549W        W60078  31.928  40.774   1.860
88550W        W60079   8.139  43.787   3.104
88551W        W60080  30.011  23.416   4.286
88552W        W60081  35.852  20.372  11.924
88553W        W60082   6.110  39.913   0.734
88554W        W60083  29.604  10.115  10.764
88555W        W60084  24.010  34.640  12.055
88556W        W60085  31.567  40.448  11.699
88557W        W60086  14.643  14.746  11.853
88558W        W60087  13.487   1.381   1.384
88559W        W60088   6.380  34.083  10.377
88560W        W60089   7.808  37.649   0.509
88561W        W60090  32.832  43.791  14.900
88562W        W60091  33.944  40.745  11.132
88563W        W60092   5.962   1.587   4.566
88564W        W60093  23.479   3.805   4.571
88565W        W60094  34.445  17.739  14.160
88566W        W60095   9.562  25.678   3.939
88567W        W60096  38.501   1.909  11.856
88568W        W60097  24.498   4.133  13.794
88569W        W60098  10.303  32.438  10.752
88570W        W60099  44.036  13.177   3.459
88571W        W60100  41.695  32.410   4.123
88572W        W60101  39.314  14.785  11.842
88573W        W60102   9.803  26.469   4.662
88574W        W60103   8.679  20.173  12.710
88575W        W60104  38.146  28.358  13.787
88576W        W60105  15.335  19.080  11.547
88577W        W60106  36.493  35.669  12.965
88578W        W60107  43.684  12.625  13.837
88579W        W60108  12.943   5.764   0.964
88580W        W60109   5.886  27.361  13.569
88581W        W60110   0.753  14.898  14.781
88582W        W60111  44.042   3.533  14.175
88583W        W60112   7.937   5.867   3.433
88584W        W60113  18.088   6.808   1.534
88585W        W60114   4.340   5.945   2.802
88586W        W60115  27.460  17.714   2.373
88587W        W60116  32.085   4.837   3.096
88588W        W60117  30.044  13.604  12.005
88589W        W60118  24.691  41.367  10.276
88590W        W60119  41.356  28.852   1.804
88591W        W60120  31.007  40.816   1.997
88592W        W60121   8.123  28.737  10.714
88593W        W60122  22.622  10.120  11.979
88594W        W60123  19.589  35.407   2.089
88595W        W60124  36.165  30.341   2.021
88596W        W60125  16.177  30.371   0.023
88597W        W60126  28.518  17.332  13.623
88598W        W60127  18.117   6.908   3.262
88599W        W60128  26.398   8.581   4.971
88600W        W60129  36.455  12.782  11.031
88601W        W60130  22.112  22.014   4.133
88602W        W60131  21.583  17.065   4.616
88603W        W60132  40.727   3.164   5.338
88604W        W60133  35.539  21.341   2.755
88605W        W60134   3.677  15.415   1.722
88606W        W60135  26.183  44.478   4.813
88607W        W60136  35.251  25.591  11.453
88608W        W60137  33.373   1.149  14.882
88609W        W60138  14.076  27.671  10.856
88610W        W60139  39.289   7.553   0.482
88611W        W60140  13.142  29.187   3.065
88612W        W60141  41.018   2.820  12.877
88613W        W60142  29.402  36.148  10.721
88614W        W60143   4.054  31.887   1.424
88615W        W60144  26.056  26.940  12.096
88616W        W60145  12.160  43.272   3.754
88617W        W60146  44.860  12.204  12.545
88618W        W60147  33.321   0.509   3.737
88619W        W60148   1.894  22.503  12.366
88620W        W60149  41.333  25.999  12.847
88621W        W60150  23.180  17.542   3.359
88622W        W60151   8.810  35.289   2.151
88623W        W60152   2.236  13.981   1.810
88624W        W60153  18.529  40.781   1.934
88625W        W60154  31.972   7.830   1.859
88626W        W60155  19.486  18.236  10.430
88627W        W60156  37.645   4.847   0.799
88628W        W60157  41.019   9.701   2.282
88629W        W60158  44.759  18.189   3.204
88630W        W60159  31.794  37.141  14.424
88631W        W60160  21.466  11.161  11.922
88632W        W60161   8.385   2.979  12.840
88633W        W60162   5.178  39.889  14.891
88634W        W60163  18.965  18.233  10.536
88635W        W60164   1.183  20.783  11.518
88636W        W60165  31.443   9.222   0.472
88637W        W60166  29.718  17.734  10.330
88638W        W60167  33.407  23.558   3.676
88639W        W60168  34.583   9.826   1.150
88640W        W60169  30.253   7.195   0.552
88641W        W60170  18.465  33.992   3.182
88642W        W60171  23.722   5.899   1.300
88643W        W60172  40.506  22.066   3.278
88644W        W60173  40.760   8.857  11.565
88645W        W60174  15.275  25.450  13.372
88646W        W60175  13.903  40.593  12.969
88647W        W60176  38.013  32.636   3.352
88648W        W60177  40.885   9.400   4.510
88649W        W60178   2.731  39.736  11.514
88650W        W60179   9.189  18.526   2.089
88651W        W60180  30.920  24.241  13.842
88652W        W60181  35.486  42.862   0.162
88653W        W60182   1.781  32.447  12.562
88654W        W60183  31.435  33.089  10.339
88655W        W60184  34.325   2.677   4.258
88656W        W60185  28.736  36.617   1.966
88657W        W60186  26.102  21.994  11.165
88658W        W60187  21.727  39.454   3.577
88659W        W60188   6.623  40.277   3.297
88660W        W60189  42.514  41.571  14.422
88661W        W60190  24.479  26.224   4.066
88662W        W60191  44.483  33.026  13.754
88663W        W60192  38.870  42.004  14.372
88664W        W60193  29.537  16.103   0.924
88665W        W60194  39.003   8.851   1.799
88666W        W60195  33.193  35.266   1.381
88667W        W60196  36.126  16.002   4.077
88668W        W60197  16.177  24.509   2.121
88669W        W60198   2.256  29.149   3.240
88670W        W60199  40.401  30.428  14.862
88671W        W60200  40.368   4.431  10.974
88672W        W60201   0.755  28.399  13.377
88673W        W60202   2.386  20.242  14.392
88674W        W60203  43.051  28.891  14.128
88675W        W60204  41.313  30.024  13.401
88676W        W60205   7.179  29.268   1.974
88677W        W60206  29.562   5.640   1.387
88678W        W60207  24.134   7.288  14.947
88679W        W60208  42.533  11.168  10.724
88680W        W60209  10.810  36.819  13.860
88681W        W60210  34.884   0.358   2.645
88682W        W60211  19.867  35.481  14.025
88683W        W60212   8.065  36.808   1.391
88684W        W60213  31.801  35.058  12.860
88685W        W60214  16.885  28.945  14.277
88686W        W60215  39.291  25.947   1.290
88687W        W60216  29.366   4.182  12.985
88688W        W60217  20.635  33.013   4.813
88689W        W60218  38.491  25.709   5.094
88690W        W60219  16.650  32.682   4.707
88691W        W60220  33.680  34.108   3.712
88692W        W60221  25.635  17.565  10.462
88693W        W60222  20.236  21.310  12.810
88694W        W60223  13.406   8.974   4.141
88695W        W60224  44.950  27.118   0.981
88696W        W60225  19.987   1.786   0.017
88697W        W60226  28.456  15.241   0.437
88698W        W60227  23.675  24.696   3.808
88699W        W60228  31.544  36.361   3.136
88700W        W60229  40.502   9.494  11.144
88701W        W60230   9.672  44.099  14.138
88702W        W60231  20.647  44.795   2.222
88703W        W60232  11.155  33.403   4.311
88704W        W60233   4.238  23.432   0.016
88705W        W60234  20.196  14.511  13.068
88706W        W60235  32.331  20.716   4.357
88707W        W60236  43.680  22.369  13.023
88708W        W60237  16.892   1.230  13.110
88709W        W60238  30.573  38.870   3.953
88710W        W60239  16.414  19.191   1.415
88711W        W60240  43.516  15.788   0.310
88712W        W60241  40.792  23.864  14.771
88713W        W60242  10.643  27.003   4.563
88714W        W60243  17.279  39.897   1.812
88715W        W60244  17.803  37.455   0.542
88716W        W60245  34.522  19.497   4.139
88717W        W60246  33.426  42.294  14.724
88718W        W60247  17.362  23.103  10.935
88719W        W60248  25.463  34.538   0.207
88720W        W60249  33.347   6.735   3.190
88721W        W60250  36.807  14.881   2.281
88722W        W60251   0.664  14.199   2.364
88723W        W60252  31.513  13.619   0.815
88724W        W60253   1.350  39.727  12.008
88725W        W60254   3.947  41.947   2.797
88726W        W60255  14.906  29.020   5.042
88727W        W60256  27.948  29.229  13.754
88728W        W60257  20.844  18.581   1.289
88729W        W60258  30.611  10.233  12.371
88730W        W60259  24.781  44.386  13.119
88731W        W60260  38.848  21.224   1.284
88732W        W60261  35.679  43.923   2.120
88733W        W60262  35.067  10.756   4.331
88734W        W60263  20.261  15.087   3.892
88735W        W60264  10.052  27.381  14.788
88736W        W60265  44.476  17.426   4.127
88737W        W60266  32.352   3.258  14.655
88738W        W60267   9.341  33.667   2.726
88739W        W60268  37.823  29.540  10.463
88740W        W60269  28.200  37.567  14.994
88741W        W60270  44.901  21.477  13.225
88742W        W60271  41.298  10.907  14.052
88743W        W60272  32.867  20.109  12.996
88744W        W60273  40.501  26.211   3.624
88745W        W60274   7.008  25.134   4.437
88746W        W60275  12.823   2.045  13.005
88747W        W60276   4.688  22.545  11.625
88748W        W60277  12.074   1.433   1.296
88749W        W60278  29.771  28.022   2.316
88750W        W60279  25.124  23.302   3.692
88751W        W60280  32.156  23.451   1.867
88752W        W60281  44.450  32.398  12.891
88753W        W60282  28.130  18.507   2.785
88754W        W60283  12.937  25.666  11.540
88755W        W60284  11.711   3.836   3.564
88756W        W60285  17.258   3.696  14.283
88757W        W60286   8.088  23.114   1.888
88758W        W60287  21.113  15.851  14.110
88759W        W60288  39.840  44.258  14.367
88760W        W60289  21.873  38.087  12.639
88761W        W60290  25.717  20.020  10.374
88762W        W60291   9.611  34.133   3.088
88763W        W60292  25.711  28.706  14.840
88764W        W60293  17.537  37.423   2.023
88765W        W60294  37.872  27.484   4.577
88766W        W60295  13.787  38.327  12.439
88767W        W60296  21.998   1.332  11.076
88768W        W60297  31.370  15.161  12.892
88769W        W60298  31.018   4.236   3.634
88770W        W60299   1.496   3.337  12.970
88771W        W60300  11.804  23.199  13.406
88772W        W60301  39.438  19.823   4.294
88773W        W60302   5.199   7.279  11.579
88774W        W60303  20.145  16.559   1.443
88775W        W60304  32.573  11.900   1.418
88776W        W60305   6.337  19.294  10.182
88777W        W60306  15.140  23.754  12.852
88778W        W60307   5.420  27.646  11.413
88779W        W60308  38.559  20.871   0.877
88780W        W60309   4.241  16.196  12.079
88781W        W60310   5.795  39.382  12.845
88782W        W60311  20.221   9.229  11.435
88783W        W60312  27.074  26.697   3.744
88784W        W60313  43.559  38.612  14.796
88785W        W60314  44.371  10.564   4.296
88786W        W60315  30.459  13.199  12.639
88787W        W60316  11.857  23.929  11.203
88788W        W60317  27.350  40.452  13.530
88789W        W60318  11.272  35.018   0.846
88790W        W60319   3.752   1.965  14.759
88791W        W60320  10.788   6.597   4.285
88792W        W60321  36.532  33.220  11.564
88793W        W60322   4.712  34.386  13.897
88794W        W60323  24.788   1.010   0.847
88795W        W60324  13.348  30.192   4.233
88796W        W60325   6.809  16.701   1.448
88797W        W60326  40.067   0.239   2.276
88798W        W60327  24.713  39.353  12.619
88799W        W60328  36.473  31.206  10.388
88800W        W60329  40.308  22.799   3.488
88801W        W60330  37.745  11.171   3.329
88802W        W60331  25.985  29.021  13.104
88803W        W60332  28.668  37.609   4.194
88804W        W60333  16.226   5.492  11.668
88805W        W60334  37.799   8.300  10.779
88806W        W60335   2.187  22.999  14.276
88807W        W60336  19.128  40.032  12.838
88808W        W60337   9.131  25.967   0.359
88809W        W60338  23.720  28.784  14.070
88810W        W60339  37.720   1.688  10.524
88811W        W60340   5.751  31.741  11.859
88812W        W60341  37.344   1.064  11.507
88813W        W60342   3.591  11.735  14.511
88814W        W60343  15.307  42.422   4.515
88815W        W60344  20.971  29.690   0.231
88816W        W60345  33.013  23.149   1.898
88817W        W60346  16.797  39.405  12.036
88818W        W60347  43.328  29.164  12.811
88819W        W60348  23.480   3.483  13.338
88820W        W60349  25.928   3.320   1.160
88821W        W60350  36.498   6.556   1.195
88822W        W60351   1.695  25.597   4.317
88823W        W60352   5.888  15.937  12.815
88824W        W60353  33.479   7.690   1.792
88825W        W60354   2.963  44.274   3.375
88826W        W60355  35.381   6.355  13.890
88827W        W60356  34.439   8.544  13.353
88828W        W60357   2.117  11.834   1.023
88829W        W60358  29.062   7.161   4.656
88830W        W60359  30.057  14.776  14.887
88831W        W60360   5.792  21.750  11.322
88832W        W60361   9.602   6.867   0.801
88833W        W60362  44.901  30.659  14.858
88834W        W60363  29.096  36.964   1.837
88835W        W60364  41.591  17.674  14.007
88836W        W60365   5.672  12.870   3.268
88837W        W60366   9.237  32.946   0.270
88838W        W60367  18.578  37.016  11.191
88839W        W60368   1.663   5.478   2.226
88840W        W60369  36.589  28.395   2.804
88841W        W60370   7.883  15.747   3.674
88842W        W60371  10.806  44.984  10.820
88843W        W60372   8.250  13.463  13.217
88844W        W60373  13.082  32.799   0.272
88845W        W60374  43.858   4.986  13.988
88846W        W60375   0.150  10.904  11.140
88847W        W60376  30.483  14.976   0.997
88848W        W60377  35.246   6.427  11.670
88849W        W60378   3.486  25.718   3.706
88850W        W60379  35.133  23.694  11.048
88851W        W60380  44.196  33.442   3.170
88852W        W60381  10.813  43.799   1.698
88853W        W60382  30.172  37.047   1.666
88854W        W60383  13.739  21.392  14.330
88855W        W60384  21.959  34.759   2.296
88856W        W60385  27.528  38.958   2.592
88857W        W60386  12.297  39.374   0.902
88858W        W60387  38.113  15.191   2.065
88859W        W60388   6.761  29.016  11.872
88860W        W60389   5.344  43.898  12.017
88861W        W60390  28.545  17.468   3.200
88862W        W60391  41.214   4.727   2.095
88863W        W60392  35.650  41.930   0.320
88864W        W60393  42.787  21.605  12.497
88865W        W60394   4.405  34.466  11.267
88866W        W60395  14.410  10.221  14.329
88867W        W60396  14.752  31.329   0.929
88868W        W60397  34.634   9.408  10.721
88869W        W60398   6.762   2.742  13.834
88870W        W60399   2.283  21.370  12.830
88871W        W60400  16.581  23.543   2.265
88872W        W60401  28.209   8.775   3.156
88873W        W60402  20.781  23.487  11.432
88874W        W60403  36.286  23.558   0.803
88875W        W60404   4.784  32.642  13.590
88876W        W60405   6.253   5.026   5.154
88877W        W60406  11.910  16.672  10.402
88878W        W60407  39.418  42.048  13.578
88879W        W60408  30.229  33.968   1.688
88880W        W60409  13.524  18.213   1.781
88881W        W60410  14.336  19.979   0.945
88882W        W60411  36.908  22.454  11.017
88883W        W60412  42.257   5.088  11.412
88884W        W60413  25.134  21.413   3.105
88885W        W60414  38.510   8.884  12.395
88886W        W60415  13.218   4.000  13.949
88887W        W60416  35.876  40.353  13.034
88888W        W60417  13.676  18.127   4.188
88889W        W60418  27.800  16.271  14.916
88890W        W60419  24.012  16.341  11.578
88891W        W60420  18.607   8.355  13.123
88892W        W60421  26.140  20.479   4.248
88893W        W60422  43.037   9.463   2.737
88894W        W60423  38.887  19.216  14.830
88895W        W60424  41.028  20.655  13.318
88896W        W60425  41.388  20.515   3.315
88897W        W60426  37.888   9.673   0.347
88898W        W60427  23.762  21.442  13.866
88899W        W60428  26.092  18.158  11.985
88900W        W60429  17.495  12.418   3.762
88901W        W60430  28.995  34.508   0.726
88902W        W60431  30.899  31.459   1.290
88903W        W60432  41.687  37.040   2.672
88904W        W60433   2.285  18.607  14.303
88905W        W60434   2.460  42.468   0.239
88906W        W60435   4.746  37.244   2.752
88907W        W60436   5.115  15.859  12.130
88908W        W60437  32.580  31.973   1.642
88909W        W60438  14.135  18.101   3.942
88910W        W60439  33.091   1.349   2.587
88911W        W60440  36.736  26.498  14.788
88912W        W60441   9.465  11.689   4.796
88913W        W60442  16.826  18.944   1.089
88914W        W60443  41.254  20.184  13.467
88915W        W60444  42.075  33.995   3.957
88916W        W60445   7.948   7.731  13.353
88917W        W60446  14.674   5.846   0.215
88918W        W60447  41.117  12.498   0.561
88919W        W60448  10.630  13.576  11.207
88920W        W60449   1.889  40.553  13.106
88921W        W60450  43.142  29.438  12.016
88922W        W60451  41.982  33.545  10.519
88923W        W60452  13.016   5.147   3.681
88924W        W60453   2.392  16.203  12.553
88925W        W60454  21.529  12.194  14.269
88926W        W60455  15.140  37.910   3.595
88927W        W60456  41.330  36.366   1.428
88928W        W60457  19.523  23.719  11.597
88929W        W60458   2.905   7.362   0.856
88930W        W60459  43.718  29.502  14.268
88931W        W60460   4.731  24.661   1.264
88932W        W60461   1.867   1.178  14.766
88933W        W60462  24.999  23.627   3.302
88934W        W60463  40.038   5.312   2.372
88935W        W60464  21.440  28.452   0.810
88936W        W60465  37.888  26.773  10.693
88937W        W60466   7.945  43.376  12.055
88938W        W60467  30.326   5.739   2.454
88939W        W60468  31.617  41.122   3.179
88940W        W60469  19.963  41.957   2.905
88941W        W60470  21.891   3.338  13.838
88942W        W60471  30.576  14.203   0.254
88943W        W60472  11.122   7.774  12.692
88944W        W60473   7.758  32.686  11.615
88945W        W60474  42.472  34.559  14.260
88946W        W60475  42.406   6.408  12.853
88947W        W60476  15.378  36.799   3.285
88948W        W60477   3.139   5.974  11.182
88949W        W60478   8.167  35.279   3.329
88950W        W60479  24.004  30.388   3.100
88951W        W60480   3.508   3.745  10.501
88952W        W60481  11.243  17.794  14.734
88953W        W60482   7.831  32.935  13.015
88954W        W60483   9.367  37.549   4.161
88955W        W60484   9.669  38.240  11.188
88956W        W60485  25.214  30.969   0.833
88957W        W60486  32.320   8.139  11.108
88958W        W60487   5.806  39.550   2.943
88959W        W60488  10.616  12.501   4.525
88960W        W60489   8.895  26.116  11.204
88961W        W60490  30.957  37.871  11.271
88962W        W60491  23.168   4.210   4.562
88963W        W60492  20.986  15.303  14.941
88964W        W60493   7.784  23.583   0.070
88965W        W60494  10.289  10.161  13.523
88966W        W60495  36.260  40.218  12.432
88967W        W60496  17.958  11.080   4.122
88968W        W60497  18.010  10.251  12.215
88969W        W60498   5.235  13.358  11.206
88970W        W60499   8.477  11.756  12.718
88971W        W60500  26.118  44.692  11.713
88972W        W60501  13.565   2.735  10.852
88973W        W60502  42.519  12.214   1.500
88974W        W60503   3.274  26.266  13.449
88975W        W60504  44.266  32.928   3.247
88976W        W60505  43.470  33.709  11.922
88977W        W60506  16.740  27.303  14.415
88978W        W60507  38.971  27.681  13.406
88979W        W60508  20.408  36.259  12.133
88980W        W60509  40.599  39.680  12.368
88981W        W60510  36.318   4.913  13.423
88982W        W60511  43.807  31.024   4.470
88983W        W60512  23.914  29.330  11.559
88984W        W60513   6.189  28.785   1.352
88985W        W60514  10.703  34.148   0.666
88986W        W60515  41.561  26.148   1.730
88987W        W60516  14.235   3.949   4.660
88988W        W60517  40.543  16.354  12.507
88989W        W60518  34.066  23.054  14.989
88990W        W60519  24.385  15.206  11.809
88991W        W60520   5.420  26.115  10.465
88992W        W60521  26.148  14.488  11.186
88993W        W60522  42.094   1.416   2.162
88994W        W60523  34.117  30.936  14.017
88995W        W60524  17.230   1.788  14.060
88996W        W60525  29.584  25.507  13.306
88997W        W60526  12.158  21.266   0.918
88998W        W60527  14.043  25.055  13.568
88999W        W60528   2.676  38.971   4.144
89000W        W60529  31.844  41.828   3.127
89001W        W60530  28.914  25.003   3.633
89002W        W60531  40.265  30.294   3.966
89003W        W60532  43.940  42.325  11.656
89004W        W60533  33.074  30.988  13.690
89005W        W60534  27.094   4.641  12.980
89006W        W60535  15.023  38.910  12.405
89007W        W60536   1.712  30.398   3.016
89008W        W60537  28.270  10.731  14.617
89009W        W60538   9.350  30.921   3.731
89010W        W60539  16.768   4.133   3.302
89011W        W60540  25.209  40.540   2.359
89012W        W60541  42.108  40.745   3.071
89013W        W60542   4.898  22.268   3.707
89014W        W60543  15.166  37.920  10.842
89015W        W60544  21.526   1.111   0.256
89016W        W60545  40.264   2.835   0.684
89017W        W60546   0.839  43.710   0.743
89018W        W60547  23.743  29.452  10.694
89019W        W60548  40.057  34.037   1.655
89020W        W60549   4.705  42.758  10.779
89021W        W60550   0.418  39.317  14.802
89022W        W60551  22.685  31.453   3.746
89023W        W60552  34.831  36.126   1.249
89024W        W60553  41.031  33.869  14.040
89025W        W60554   7.678  24.622   1.720
89026W        W60555   0.533  27.079  13.299
89027W        W60556   4.820  43.262  14.252
89028W        W60557   3.228   2.375   2.277
89029W        W60558  11.301  12.718  12.975
89030W        W60559  16.609   8.029  10.719
89031W        W60560  38.832  13.671  14.623
89032W        W60561  19.071  21.300   1.749
89033W        W60562  35.095  13.020  12.681
89034W        W60563   7.750  37.950  13.250
89035W        W60564  37.073  20.205  12.106
89036W        W60565   7.790  38.083  11.825
89037W        W60566  38.424  32.568   0.640
89038W        W60567  26.301  43.016  12.055
89039W        W60568  37.826  22.132  14.360
89040W        W60569  44.963  42.597  10.938
89041W        W60570  43.969  36.981   4.551
89042W        W60571  23.662  23.289  11.496
89043W        W60572  29.935  40.281   0.967
89044W        W60573  16.183  35.490   2.306
89045W        W60574  39.516  10.682  11.243
89046W        W60575  13.679   3.794  14.058
89047W        W60576   8.683  43.425   0.436
89048W        W60577  40.360  15.345  12.546
89049W        W60578   4.330   9.893   0.617
89050W        W60579  22.513  31.285  13.867
89051W        W60580  12.605  11.412   2.685
89052W        W60581  43.511  31.142   3.969
89053W        W60582  17.615  30.967  12.364
89054W        W60583  33.553  28.355   1.101
89055W        W60584  18.227  15.073  13.394
89056W        W60585   7.696  23.313   2.817
89057W        W60586   7.919  42.846   4.800
89058W        W60587   9.163  26.095  14.309
89059W        W60588   4.057  42.526  10.943
89060W        W60589   5.937  44.211   0.475
89061W        W60590  36.642  32.623   1.368
89062W        W60591  13.087   2.807  12.764
89063W        W60592  24.445  27.426   3.281
89064W        W60593   8.740  35.775   2.520
89065W        W60594  41.433  40.591  11.018
89066W        W60595   9.168  26.200  10.786
89067W        W60596  20.506  16.647   3.436
89068W        W60597   4.220   5.252   0.984
89069W        W60598  13.701  27.099   1.372
89070W        W60599  42.234  31.351  14.394
89071W        W60600   5.891   2.929   0.199
89072W        W60601  11.291  19.547  11.151
89073W        W60602  12.657  39.348  10.484
89074W        W60603   6.830   6.957   2.832
89075W        W60604   9.549   2.035  10.998
89076W        W60605  23.167  42.469  12.938
89077W        W60606  37.912  12.912  13.796
89078W        W60607  34.134  34.125  12.979
89079W        W60608   3.960  29.544   3.620
89080W        W60609  10.945  30.202   0.714
89081W        W60610  25.224  26.137   1.286
89082W        W60611  11.807  37.474   2.675
89083W        W60612  41.468  28.086  10.487
89084W        W60613  27.453  27.276  11.926
89085W        W60614  11.941  40.485  12.108
89086W        W60615   9.439  25.621   1.311
89087W        W60616  23.394   4.531  14.975
89088W        W60617  27.915   5.476   3.153
89089W        W60618  26.688  15.802   0.895
89090W        W60619  36.309  31.193  13.108
89091W        W60620  28.365  27.923  12.010
89092W        W60621  17.576  11.387  11.136
89093W        W60622  13.593  21.457  13.438
89094W        W60623   6.554  26.988  10.509
89095W        W60624   7.407  38.474  11.090
89096W        W60625  42.543  44.817  13.965
89097W        W60626  26.058  10.321   1.298
89098W        W60627  44.557  32.398  12.375
89099W        W60628  20.650  12.621  12.626
89100W        W60629   2.432  18.113   1.268
89101W        W60630  30.688  37.440  14.849
89102W        W60631  15.230  37.466   4.406
89103W        W60632  25.709  37.867  14.079
89104W        W60633   9.276   5.723   0.175
89105W        W60634   6.729  23.130  13.170
89106W        W60635  38.157  35.899   1.551
89107W        W60636  18.065  11.881  11.642
89108W        W60637  39.411  10.339  10.553
89109W        W60638  10.805  28.099   1.172
89110W        W60639   6.164  41.651  10.437
89111W        W60640   6.950  31.045  11.049
89112W        W60641  14.627  27.949   3.138
89113W        W60642  17.218  33.009   2.717
89114W        W60643  31.566  23.759  14.824
89115W        W60644  39.337  39.823   3.354
89116W        W60645   7.746  31.418  11.189
89117W        W60646  30.336   6.100  11.036
89118W        W60647  36.997  16.284   4.524
89119W        W60648  44.757  25.801  13.469
89120W        W60649  21.931  33.990   0.287
89121W        W60650  12.607  29.068   1.508
89122W        W60651   2.077  15.756   1.437
89123W        W60652  24.441   1.465   0.643
89124W        W60653   4.109   1.104  12.989
89125W        W60654   2.394  10.310  11.392
89126W        W60655  30.071  12.122   2.379
89127W        W60656   1.463  31.394  13.056
89128W        W60657   2.947  31.123  10.708
89129W        W60658  42.298  34.081   2.203
89130W        W60659  41.017  41.011  13.071
89131W        W60660  34.906  42.801   9.828
89132W        W60661  27.552  28.410   4.374
89133W        W60662  11.669  24.009   1.286
89134W        W60663  17.271  13.090   5.219
89135W        W60664   3.446   1.203   2.900
89136W        W60665  29.653  13.997   0.715
89137W        W60666   2.365  15.140  10.954
89138W        W60667  20.693  35.828  12.214
89139W        W60668  24.599   6.890   3.942
89140W        W60669  29.736  30.361   1.400
89141W        W60670  40.089  11.036  13.444
89142W        W60671  22.839  28.976  12.682
89143W        W60672   2.824  16.227   2.767
89144W        W60673   3.200  41.465  13.042
89145W        W60674  41.379  41.900  10.780
89146W        W60675  38.456   4.761  14.356
89147W        W60676  19.876  37.781   4.244
89148W        W60677   7.948  35.190  12.482
89149W        W60678  37.335  13.140   0.435
89150W        W60679  26.138  12.376  11.025
89151W        W60680   9.288   4.583   4.100
89152W        W60681  33.177  18.248   2.801
89153W        W60682  30.022  24.141  13.345
89154W        W60683  23.199  41.125   4.405
89155W        W60684  44.844  20.159  11.545
89156W        W60685  17.973  37.507   3.788
89157W        W60686   2.788  32.448   0.875
89158W        W60687  16.032  29.451   3.110
89159W        W60688   6.780  33.211  12.630
89160W        W60689  10.916   1.938   9.776
89161W        W60690  15.777  12.385   3.333
89162W        W60691  26.554  21.882   0.251
89163W        W60692  16.092  31.102   3.298
89164W        W60693  27.682  17.799   3.338
89165W        W60694  11.745  16.230   4.374
89166W        W60695  26.362  19.515   2.472
89167W        W60696   1.403  11.398   2.069
89168W        W60697   9.355   9.294   2.118
89169W        W60698  10.135  26.896   0.012
89170W        W60699  22.975  22.289   2.827
89171W        W60700  20.937   5.850  13.882
89172W        W60701  23.618  18.160   1.951
89173W        W60702  40.962  34.140   4.574
89174W        W60703   8.340  41.887  11.056
89175W        W60704   5.253  38.879   3.238
89176W        W60705  34.469  40.150  13.308
89177W        W60706  12.677  20.338   1.228
89178W        W60707   8.308  33.480   3.485
89179W        W60708  40.548  41.266  13.077
89180W        W60709  19.075  19.973  13.834
89181W        W60710   5.978  41.133  11.714
89182W        W60711  16.126  34.566  11.997
89183W        W60712  44.028  21.062   0.033
89184W        W60713  20.514   3.079  13.904
89185W        W60714  40.267  19.256   1.501
89186W        W60715  14.289  22.052  11.528
89187W        W60716  34.668  11.166  11.973
89188W        W60717  25.051  41.580   4.149
89189W        W60718   4.960  27.078  13.360
89190W        W60719  38.375   8.921  10.507
89191W        W60720   0.476  10.359  11.926
89192W        W60721  20.065  40.765  13.866
89193W        W60722  39.668  40.525   3.695
89194W        W60723  11.026   7.086   2.533
89195W        W60724   6.302  33.282  14.360
89196W        W60725  37.322  29.457   2.188
89197W        W60726   2.902  39.473   4.073
89198W        W60727   8.651   5.425  12.858
89199W        W60728   4.306   6.591  12.055
89200W        W60729   3.047  28.460  12.167
89201W        W60730  11.418   0.991   1.744
89202W        W60731  20.718  36.658   3.382
89203W        W60732  28.329   5.587   2.183
89204W        W60733   7.933  38.430  11.148
89205W        W60734  13.409   1.460   0.389
89206W        W60735   8.979  43.151   2.871
89207W        W60736  18.927  24.620  11.758
89208W        W60737  13.899  21.495   1.313
89209W        W60738  24.019  39.634   3.466
89210W        W60739  32.183  37.874   1.221
89211W        W60740  23.142  43.159  12.469
89212W        W60741  21.268   0.925  10.981
89213W        W60742  25.696  16.047  14.862
89214W        W60743  26.949  26.889   4.690
89215W        W60744  17.599   9.636  12.495
89216W        W60745   2.930  31.288   2.722
89217W        W60746  18.895   9.754   4.650
89218W        W60747  25.203  27.631  10.515
89219W        W60748  42.062  41.914  11.547
89220W        W60749   1.975   4.045   2.268
89221W        W60750   5.930  32.576   2.433
89222W        W60751  39.918  34.623   0.381
89223W        W60752  33.133  32.370   2.857
89224W        W60753   3.268  18.458  12.041
89225W        W60754   8.454  32.931  11.260
89226W        W60755   8.330  39.253   1.899
89227W        W60756  14.240  29.865   1.346
89228W        W60757   7.445  13.881   2.717
89229W        W60758   7.570  41.405   1.860
89230W        W60759   9.235  23.581  14.221
89231W        W60760   8.411   4.414   4.548
89232W        W60761  35.612  25.940   3.595
89233W        W60762  16.897  20.230  13.035
89234W        W60763  27.411  41.443  13.481
89235W        W60764  30.475  38.593  14.410
89236W        W60765  25.479   7.435  14.966
89237W        W60766  18.737   6.356  13.909
89238W        W60767  18.002  39.314   4.667
89239W        W60768   2.335  19.561   1.739
89240W        W60769  32.094  19.084   4.164
89241W        W60770  38.028  15.480  13.995
89242W        W60771  19.589  17.320  12.352
89243W        W60772  11.684  24.268  12.530
89244W        W60773  16.063  12.629  13.046
89245W        W60774  31.695  11.783   0.326
89246W        W60775  21.483  16.563  12.046
89247W        W60776  18.489  44.616   5.065
89248W        W60777   6.824  39.611  13.376
89249W        W60778   5.151  32.255  10.754
89250W        W60779  10.162  26.594  11.244
89251W        W60780   7.761  12.856   4.056
89252W        W60781  26.047  24.583   4.984
89253W        W60782   3.065  21.558  14.725
89254W        W60783  22.869   3.942  14.323
89255W        W60784   5.257  31.356  13.536
89256W        W60785  25.482  37.502   4.955
89257W        W60786   5.632  37.284  12.651
89258W        W60787  23.951  14.327   3.885
89259W        W60788  42.481  37.333  12.019
89260W        W60789  10.375  41.581  13.949
89261W        W60790  21.562   4.263   3.570
89262W        W60791  35.723  30.863   3.802
89263W        W60792  22.109  31.602  11.367
89264W        W60793   4.054  20.807  11.892
89265W        W60794  12.158  11.127   0.890
89266W        W60795  22.098  32.069   1.341
89267W        W60796  18.974   2.251  12.374
89268W        W60797  12.261   6.090  10.441
89269W        W60798  44.847   7.947  14.325
89270W        W60799  12.109  30.172  13.477
89271W        W60800  14.288  20.262   0.487
89272W        W60801  43.285  11.216   1.470
89273W        W60802   6.394  24.457  13.634
89274W        W60803  12.559  13.770  13.849
89275W        W60804   7.337   2.135   3.239
89276W        W60805   8.046  36.056   3.760
89277W        W60806  24.294  38.388   3.954
89278W        W60807   9.625   9.442  14.885
89279W        W60808   9.232  22.040   1.879
89280W        W60809  24.218   6.704  10.825
89281W        W60810  18.644  26.762   0.749
89282W        W60811  29.025  26.510   2.895
89283W        W60812  14.690  15.260  12.008
89284W        W60813   2.707  41.894   2.336
89285W        W60814  16.692  24.453  11.144
89286W        W60815  22.955  12.176   2.327
89287W        W60816   9.783  43.981   1.443
89288W        W60817  39.988  37.841   4.298
89289W        W60818  36.545   8.359   4.014
89290W        W60819   8.403  30.267   0.950
89291W        W60820  17.465  35.783   5.074
89292W        W60821   7.411   6.112  11.148
89293W        W60822  28.579  17.387  11.513
89294W        W60823  25.923  25.670  14.335
89295W        W60824  22.808  19.683   5.194
89296W        W60825   7.439  42.674   4.937
89297W        W60826  31.435  10.071   0.762
89298W        W60827   5.229   5.776   3.364
89299W        W60828  32.945  39.748   4.060
89300W        W60829  12.327   1.824   4.672
89301W        W60830   1.171  11.472   4.884
89302W        W60831  14.438  10.545   2.275
89303W        W60832  14.701  31.540  13.296
89304W        W60833  24.839   9.633  10.826
89305W        W60834  19.070  17.984   2.207
89306W        W60835  28.102  32.647   3.210
89307W        W60836  30.720  20.156   2.207
89308W        W60837  35.944  25.181   1.998
89309W        W60838  16.060  11.011  13.374
89310W        W60839  24.158   7.630   2.845
89311W        W60840  21.714  16.832   1.956
89312W        W60841  39.830  31.685   3.236
89313W        W60842  22.706  40.294  11.672
89314W        W60843   9.470  27.446  13.603
89315W        W60844  11.813  18.705   3.259
89316W        W60845  30.375  38.452   3.242
89317W        W60846   3.405  33.873   3.652
89318W        W60847   6.433  16.454  12.030
89319W        W60848   7.399  38.328  13.325
89320W        W60849  15.088  19.573  12.889
89321W        W60850   4.781  19.414  12.952
89322W        W60851   5.241   6.925   0.929
89323W        W60852  41.257  34.526  13.083
89324W        W60853   5.925  13.846   2.922
89325W        W60854  12.216  35.610  14.834
89326W        W60855  41.452  14.220   1.312
89327W        W60856  37.609  22.601   3.297
89328W        W60857  24.528  22.125   4.611
89329W        W60858  12.401  30.687   4.701
89330W        W60859  19.845  33.834   2.597
89331W        W60860  22.961  19.884   3.580
89332W        W60861  26.658  29.197   0.081
89333W        W60862  18.328  39.038  14.026
89334W        W60863   9.363   4.474   1.889
89335W        W60864  22.694  10.269   0.547
89336W        W60865  14.404  42.389   4.877
89337W        W60866  38.633  23.975  13.100
89338W        W60867  13.321  42.248  10.976
89339W        W60868  14.618  13.576  13.722
89340W        W60869  37.016   6.969  11.156
89341W        W60870  33.312   9.757  11.088
89342W        W60871  28.726  33.324   0.286
89343W        W60872  22.615   4.011   4.356
89344W        W60873  35.733  31.069  10.950
89345W        W60874  23.992  12.247   2.368
89346W        W60875  44.357  34.906   1.372
89347W        W60876  25.226  43.345   4.106
89348W        W60877  30.062  14.182  13.942
89349W        W60878  13.011   7.365   4.067
89350W        W60879  17.481  26.250  14.893
89351W        W60880  18.398  20.006  12.664
89352W        W60881  32.196  22.388   0.484
89353W        W60882  33.871  19.012  12.983
89354W        W60883   9.292   7.407  12.367
89355W        W60884  33.711  36.477   3.585
89356W        W60885   8.905  26.531   2.754
89357W        W60886  29.591  34.430   1.406
89358W        W60887  37.022  10.658  11.711
89359W        W60888   7.814  39.754  12.003
89360W        W60889  27.494   3.334   3.824
89361W        W60890  43.988  18.195  10.392
89362W        W60891  37.584  34.500  10.594
89363W        W60892  16.513  26.954  11.056
89364W        W60893  28.113  25.718  13.935
89365W        W60894  31.606  28.699  10.339
89366W        W60895  18.179   4.967   1.899
89367W        W60896  26.900  41.925  12.988
89368W        W60897  41.308  12.147  14.687
89369W        W60898  15.245  42.854   0.296
89370W        W60899   6.375  35.901  12.417
89371W        W60900  42.870  18.547  13.975
89372W        W60901  25.384  26.196   3.337
89373W        W60902  16.768   0.396  11.615
89374W        W60903  11.645  22.213   0.427
89375W        W60904  30.478  36.393   2.767
89376W        W60905  30.708  18.032  11.702
89377W        W60906  17.118   3.820  10.866
89378W        W60907  18.051  41.384   3.758
89379W        W60908  28.984  26.006  10.589
89380W        W60909  40.334  28.552   3.549
89381W        W60910  39.219  20.889  13.383
89382W        W60911  39.087  18.742  12.907
89383W        W60912   1.955   3.192  14.320
89384W        W60913  17.616  10.175   3.165
89385W        W60914   2.456  13.941  14.282
89386W        W60915  12.410   4.047  13.451
89387W        W60916   4.714  22.643   4.035
89388W        W60917  31.358  35.061   1.613
89389W        W60918  23.416  44.864   0.392
89390W        W60919  33.871   4.863  14.466
89391W        W60920  23.571  22.532   2.196
89392W        W60921  27.503  39.399   2.283
89393W        W60922  39.628  38.861  10.196
89394W        W60923   0.509  17.721  12.025
89395W        W60924  29.007  17.535  12.628
89396W        W60925  34.497  44.971  13.509
89397W        W60926  10.112  27.109  14.357
89398W        W60927  20.315  32.938  10.704
89399W        W60928  30.551  22.739  11.198
89400W        W60929  24.054  36.926   1.885
89401W        W60930   7.247  18.145  13.098
89402W        W60931   2.242   7.343  12.527
89403W        W60932  23.038   8.453   1.874
89404W        W60933  37.115  15.180   3.562
89405W        W60934   9.036   4.137   2.773
89406W        W60935  14.162  44.820  13.412
89407W        W60936  31.536  37.553   4.645
89408W        W60937  36.510  33.566   0.538
89409W        W60938  11.146  41.482   1.456
89410W        W60939   3.877   2.349   4.304
89411W        W60940  17.664  26.605  12.857
89412W        W60941  15.115  44.455  12.542
89413W        W60942   6.139   0.387  13.901
89414W        W60943  11.513   0.463   1.775
89415W        W60944  31.390  27.680   4.765
89416W        W60945  23.477  23.782  13.914
89417W        W60946  36.006  25.220  11.943
89418W        W60947   2.133  35.828   1.018
89419W        W60948  30.025  21.483   1.477
89420W        W60949   9.315  19.007   1.943
89421W        W60950  14.177  43.305   3.990
89422W        W60951  11.249  27.573  13.112
89423W        W60952  29.024   7.942   0.453
89424W        W60953  22.505  23.480   1.154
89425W        W60954  27.882  33.569   1.332
89426W        W60955  38.294  31.448  14.962
89427W        W60956  20.716   1.923  10.752
89428W        W60957  12.630   6.289   2.215
89429W        W60958  42.401  13.069  12.570
89430W        W60959  11.828  22.432   2.948
89431W        W60960   9.910  25.132   0.808
89432W        W60961  29.585   0.546   0.110
89433W        W60962  37.357  31.617   3.241
89434W        W60963  29.873  37.380   4.837
89435W        W60964   4.120  20.086   1.840
89436W        W60965  19.210   0.373   4.642
89437W        W60966  37.871  39.314   2.332
89438W        W60967  15.725  40.120  13.113
89439W        W60968   7.638  15.662   3.221
89440W        W60969  26.053  19.724  14.846
89441W        W60970  18.603  21.683  13.077
89442W        W60971  26.494  31.011   0.939
89443W        W60972  37.561  33.048  12.517
89444W        W60973  29.631  33.432  12.760
89445W        W60974   3.644  18.653  14.391
89446W        W60975  40.502   4.744  14.286
89447W        W60976  38.844  43.276  11.034
89448W        W60977  43.706  30.520   3.157
89449W        W60978  21.197  32.477  14.356
89450W        W60979  25.259  32.987   4.155
89451W        W60980   9.390   1.320   3.676
89452W        W60981  19.958  34.411   3.244
89453W        W60982  13.190   3.891  12.095
89454W        W60983   8.648   7.933   0.468
89455W        W60984  19.949   6.363  12.008
89456W        W60985  25.381  44.267  11.084
89457W        W60986  12.325  10.219  14.648
89458W        W60987   3.974   9.224   1.353
89459W        W60988  18.254  37.934   3.743
89460W        W60989  42.613   0.526  11.608
89461W        W60990  15.801  22.849   2.197
89462W        W60991  40.789  38.084  14.971
89463W        W60992  24.093  13.253   5.073
89464W        W60993  15.045  22.119  12.520
89465W        W60994   8.402  41.371   0.033
89466W        W60995  18.041  23.811   0.768
89467W        W60996   6.051  25.217   3.312
89468W        W60997   5.339  12.143   1.731
89469W        W60998  36.828  40.200  10.629
89470W        W60999  17.071  35.296   3.643
89471W        W61000  42.767  21.335   3.769
89472W        W61001  27.897  15.281  14.017
89473W        W61002  14.239  37.628   2.107
89474W        W61003  21.587  26.513   0.780
89475W        W61004  31.994  36.320  13.122
89476W        W61005  40.941   8.359  11.689
89477W        W61006   5.884  17.364   4.832
89478W        W61007  26.555  19.248  12.620
89479W        W61008  31.560   4.326  10.958
89480W        W61009  28.644  14.848   2.705
89481W        W61010  40.528   2.921   2.133
89482W        W61011  33.291  10.778   0.348
89483W        W61012  38.063  20.901  12.099
89484W        W61013   0.455  23.922  13.947
89485W        W61014  17.731  34.034  14.566
89486W        W61015  29.627  35.967  10.292
89487W        W61016   2.390  34.938  13.885
89488W        W61017   8.820  12.632   0.759
89489W        W61018  21.238  26.517   3.698
89490W        W61019  42.819  19.475  11.135
89491W        W61020   6.511  10.689   1.714
89492W        W61021  21.928  34.605   1.387
89493W        W61022  17.608  39.841  11.945
89494W        W61023  16.345   3.734  13.377
89495W        W61024  12.352   3.333  10.603
89496W        W61025  11.589  21.427  11.640
89497W        W61026  31.156  31.991   4.562
89498W        W61027   7.803  39.977   2.413
89499W        W61028  18.275   1.646   1.453
89500W        W61029  12.624  21.211  12.417
89501W        W61030  17.037  16.047  11.120
89502W        W61031  12.179  35.948   2.406
89503W        W61032  30.143  12.083  11.929
89504W        W61033  28.502   4.510   0.445
89505W        W61034  35.425  13.174   0.775
89506W        W61035  23.027  37.527   0.862
89507W        W61036  11.602  28.954  12.063
89508W        W61037  35.684  12.396  11.198
89509W        W61038  22.984  25.571   1.233
89510W        W61039  39.371   5.285  10.352
89511W        W61040  22.035  13.361  12.565
89512W        W61041   2.966  12.577  12.007
89513W        W61042  33.885  20.650   4.746
89514W        W61043  34.916   7.902   0.275
89515W        W61044  32.401  34.762   0.145
89516W        W61045  17.651   7.284  12.090
89517W        W61046  23.428  20.015   3.335
89518W        W61047   9.726  22.970  10.497
89519W        W61048  27.981   9.611  14.430
89520W        W61049  35.937  44.063   0.285
89521W        W61050  27.067   1.558   1.887
89522W        W61051  19.685  17.892   2.519
89523W        W61052  35.841   6.834   0.987
89524W        W61053  17.415   8.039   4.572
89525W        W61054  17.736  27.704   1.351
89526W        W61055   6.012  19.206   2.664
89527W        W61056  42.890   0.343  13.313
89528W        W61057  14.091   9.905  14.604
89529W        W61058   6.388  22.543   3.684
89530W        W61059   8.667   0.454   1.342
89531W        W61060  38.376  12.323   2.290
89532W        W61061  15.085   2.819   2.939
89533W        W61062  34.397  39.033  12.572
89534W        W61063  20.715  16.064  11.958
89535W        W61064  27.948  18.278   4.565
89536W        W61065  25.151  18.025   1.326
89537W        W61066  33.548  44.706  14.023
89538W        W61067  14.261  33.922   2.233
89539W        W61068   3.745  13.022  14.906
89540W        W61069  40.390  31.438  13.992
89541W        W61070  37.796   1.237  11.300
89542W        W61071  35.407  37.771  14.479
89543W        W61072  21.008  31.940   2.857
89544W        W61073  29.713   4.835   0.812
89545W        W61074  10.195  14.305   4.605
89546W        W61075  33.039  11.078  11.007
89547W        W61076  17.155   9.901  12.596
89548W        W61077  44.913  42.238  12.481
89549W        W61078   8.076  25.914   1.798
89550W        W61079   0.330  28.460   4.307
89551W        W61080  42.994  34.900   3.160
89552W        W61081   9.174  12.009   1.621
89553W        W61082  26.076   1.304  11.713
89554W        W61083  27.899  42.141  14.332
89555W        W61084  19.048  28.484   2.632
89556W        W61085  31.934  20.317   0.798
89557W        W61086   8.141  33.439  14.495
89558W        W61087  35.857   8.633   4.225
89559W        W61088  41.131  22.440   0.788
89560W        W61089  37.836   9.683  14.282
89561W        W61090   1.836  35.307  10.479
89562W        W61091  32.884  11.797  12.198
89563W        W61092  33.611   2.534  14.157
89564W        W61093  31.881  44.832  11.393
89565W        W61094  29.561  39.735   3.035
89566W        W61095  23.740  39.488  11.591
89567W        W61096  22.596   0.386  11.493
89568W        W61097  24.708  18.133   1.806
89569W        W61098  41.078  20.262   0.622
89570W        W61099  29.428   7.320  14.954
89571W        W61100  43.957  11.074  11.446
89572W        W61101  10.165  19.345   0.212
89573W        W61102  44.570  36.208   2.810
89574W        W61103  32.307  36.433  11.616
89575W        W61104  27.742  12.040  11.591
89576W        W61105  31.789  25.823   3.146
89577W        W61106  28.090  41.984   2.909
89578W        W61107  31.422  14.260   3.745
89579W        W61108   4.004  40.280   0.163
89580W        W61109   4.878  10.150  14.314
89581W        W61110  36.859  43.433   2.798
89582W        W61111  39.590  37.103  11.554
89583W        W61112  30.064  31.674  11.671
89584W        W61113  41.076  11.243  11.651
89585W        W61114  29.965  30.818   1.850
89586W        W61115  40.705  22.731   0.763
89587W        W61116   9.555   2.868  13.894
89588W        W61117  39.723  36.961   2.307
89589W        W61118  41.983   0.460  14.822
89590W        W61119  42.786  15.109  10.724
89591W        W61120  34.041   3.412   1.202
89592W        W61121  15.224   7.572   0.747
89593W        W61122  36.048  39.320  13.259
89594W        W61123  24.083  22.620  11.763
89595W        W61124  15.575  17.598  13.552
89596W        W61125  34.977   7.295   2.766
89597W        W61126   1.805  17.584   1.489
89598W        W61127   1.784  23.303   3.850
89599W        W61128  26.087  17.394   2.588
89600W        W61129  24.829   8.423   2.328
89601W        W61130  41.947   9.710  14.429
89602W        W61131  38.917  16.534  13.485
89603W        W61132  11.332  43.174   2.164
89604W        W61133  26.049  20.432   3.335
89605W        W61134   6.836  41.459   3.394
89606W        W61135  21.017  23.682  12.042
89607W        W61136  23.203  35.040  11.447
89608W        W61137   5.619  12.394  11.246
89609W        W61138  41.849  28.674  10.198
89610W        W61139  28.040  21.530  13.399
89611W        W61140  41.659  15.710   4.083
89612W        W61141  44.371  24.926   3.778
89613W        W61142  19.123  37.058   1.745
89614W        W61143  29.484  25.378  13.814
89615W        W61144  15.099  32.171  12.939
89616W        W61145   2.199  26.422   0.818
89617W        W61146  37.432  31.911  10.693
89618W        W61147  44.329  44.535  12.526
89619W        W61148   5.218  37.029   2.650
89620W        W61149  11.586  36.299  13.165
89621W        W61150  15.565  25.038  12.604
89622W        W61151  40.149  26.614   0.508
89623W        W61152  18.775   6.390   1.104
89624W        W61153  15.921  19.049  14.377
89625W        W61154  32.233  11.795   0.281
89626W        W61155  34.648   8.276   2.742
89627W        W61156  24.871   8.344  11.582
89628W        W61157  35.899   0.223   3.146
89629W        W61158  11.867  32.515   3.058
89630W        W61159   2.988  40.625   1.169
89631W        W61160   0.313  35.331  11.656
89632W        W61161   3.279  41.039   3.643
89633W        W61162  27.099  25.932  11.257
89634W        W61163  36.254  40.109  11.189
89635W        W61164  37.962  37.218   2.254
89636W        W61165   4.450  25.720  13.005
89637W        W61166  33.964  35.922   4.812
89638W        W61167  37.864   6.701  10.745
89639W        W61168  42.048  41.281  14.530
89640W        W61169  15.030  36.777  12.574
89641W        W61170   7.094   8.674   4.045
89642W        W61171   4.098  26.587   3.588
89643W        W61172   3.691  38.633   1.534
89644W        W61173  41.592   1.890  14.262
89645W        W61174  23.145  10.436   0.241
89646W        W61175  12.483   6.034  14.373
89647W        W61176  34.523  39.344   2.703
89648W        W61177   1.629  34.483  13.001
89649W        W61178  19.323  29.691   3.168
89650W        W61179  39.568  41.986  10.415
89651W        W61180  38.216  16.364  14.025
89652W        W61181  12.602  26.728   3.698
89653W        W61182  37.529  14.697  12.464
89654W        W61183  24.122  33.582  10.935
89655W        W61184  11.888   7.885   1.342
89656W        W61185  20.645  29.428   2.852
89657W        W61186  22.201   8.781  13.580
89658W        W61187  39.269   6.284   1.227
89659W        W61188  21.734  33.131  14.271
89660W        W61189  19.613  22.998   2.887
89661W        W61190  37.072   7.264   0.549
89662W        W61191  38.300  20.697  11.116
89663W        W61192   8.223  11.296   3.288
89664W        W61193  22.990  20.983   0.780
89665W        W61194  29.914   5.408  11.466
89666W        W61195  29.707   6.448   3.247
89667W        W61196  25.953  12.570  11.507
89668W        W61197  39.862  44.471   4.692
89669W        W61198  12.255  17.294   2.261
89670W        W61199  23.527   6.927  12.487
89671W        W61200  16.768  17.739  11.461
89672W        W61201   6.732   9.802  11.194
89673W        W61202   0.640  37.427  13.036
89674W        W61203   3.633  23.827   3.251
89675W        W61204  27.614  41.426  10.750
89676W        W61205  24.292  14.086  13.438
89677W        W61206  15.681  14.695   2.849
89678W        W61207  14.065  42.173  12.454
89679W        W61208  24.024   3.500   1.464
89680W        W61209   7.689   6.823  14.236
89681W        W61210   6.282  20.056   9.804
89682W        W61211  13.286   1.244   3.618
89683W        W61212  25.989  22.538   1.814
89684W        W61213  28.500  39.500  12.863
89685W        W61214  18.278  10.238   4.712
89686W        W61215  22.624  30.430   4.650
89687W        W61216  12.822   4.193  13.089
89688W        W61217  18.625  42.081  13.923
89689W        W61218  33.028  40.081   3.681
89690W        W61219   8.462  25.609  13.033
89691W        W61220  37.308  39.000  12.942
89692W        W61221   6.064  16.385  12.674
89693W        W61222  40.531  12.773  10.843
89694W        W61223  43.800   5.570  12.751
89695W        W61224   1.779  20.315  13.437
89696W        W61225  10.800  35.101   1.086
89697W        W61226  28.511   7.819   0.366
89698W        W61227  39.541  43.054   2.629
89699W        W61228  33.369  16.308  11.523
89700W        W61229  27.092  36.060   4.809
89701W        W61230   9.326   7.804  14.011
89702W        W61231  32.094   1.919   4.144
89703W        W61232  20.829   9.191   3.414
89704W        W61233  31.683  13.279   1.930
89705W        W61234  31.544  10.173  12.801
89706W        W61235  36.556  22.714   3.418
89707W        W61236  19.136  10.329  13.005
89708W        W61237  24.641  24.463   1.362
89709W        W61238   6.240  43.809   3.760
89710W        W61239   8.406  19.751  13.935
89711W        W61240  37.997  33.941  10.876
89712W        W61241  32.615  15.664  13.176
89713W        W61242  32.362  32.398   3.312
89714W        W61243  29.443  35.326   1.925
89715W        W61244  31.553  36.437  13.857
89716W        W61245   4.590  25.635   0.145
89717W        W61246  40.216  42.323   3.945
89718W        W61247  44.201  16.138   5.014
89719W        W61248   1.563  42.142   0.464
89720W        W61249  31.179  32.581   1.725
89721W        W61250  37.459  27.219   1.711
89722W        W61251   3.856  22.735   2.114
89723W        W61252  26.565  43.766  12.622
89724W        W61253  23.135   8.153  13.653
89725W        W61254  22.192  32.823   0.313
89726W        W61255  24.691  36.861  12.004
89727W        W61256  41.279   8.741  11.550
89728W        W61257  38.244  14.326  10.598
89729W        W61258  11.811  30.450  13.130
89730W        W61259  36.415  41.947  11.329
89731W        W61260  28.942  33.798   0.267
89732W        W61261  34.501  34.069   1.738
89733W        W61262   5.274  18.584  11.493
89734W        W61263  13.161  31.681   1.937
89735W        W61264  18.514  19.622   0.005
89736W        W61265  10.172  37.106  12.355
89737W        W61266  14.834  12.804  14.405
89738W        W61267  22.439  40.488   3.674
89739W        W61268  25.905   4.833  11.178
89740W        W61269  22.747   3.198   4.095
89741W        W61270  39.818  21.039   1.323
89742W        W61271  36.246  35.094  13.941
89743W        W61272   0.142  11.668   2.170
89744W        W61273  11.910  22.501  14.251
89745W        W61274  31.245  28.469  13.105
89746W        W61275  40.299   0.598   3.548
89747W        W61276   6.199  11.605  11.245
89748W        W61277  35.607  17.532  14.841
89749W        W61278  44.358  28.445  14.835
89750W        W61279  16.081  30.833   2.510
89751W        W61280  13.728  16.694  13.354
89752W        W61281  26.411  40.385  14.074
89753W        W61282  12.790  43.439   1.503
89754W        W61283  22.381  34.366   1.437
89755W        W61284   8.503  30.136   4.793
89756W        W61285  28.889  37.081   2.295
89757W        W61286  35.775  35.208  10.864
89758W        W61287  41.127  17.056  10.940
89759W        W61288  41.285   4.982   3.729
89760W        W61289  37.484   4.347   0.164
89761W        W61290  36.418   7.708  14.776
89762W        W61291  15.567   2.950  11.066
89763W        W61292   3.310  32.246   1.801
89764W        W61293  33.104   9.663   2.225
89765W        W61294   7.780   1.950   0.439
89766W        W61295  16.108  18.245  11.100
89767W        W61296   2.250  13.305   3.504
89768W        W61297  16.110   9.137   9.935
89769W        W61298  20.608  37.492  10.333
89770W        W61299  18.778  24.867   1.455
89771W        W61300  26.680  36.312   4.067
89772W        W61301  24.940  25.543  11.629
89773W        W61302  33.682  12.230   4.158
89774W        W61303  27.639  43.696   2.848
89775W        W61304  34.681   7.764  10.784
89776W        W61305  33.687   4.534   2.115
89777W        W61306  40.265  40.658  12.467
89778W        W61307  37.976  14.250  14.839
89779W        W61308  13.812  40.079  12.977
89780W        W61309  11.653  29.603   0.800
89781W        W61310  41.399   0.381   3.672
89782W        W61311  37.006  35.374   3.098
89783W        W61312   0.989  38.299   2.853
89784W        W61313  14.102  31.268  13.729
89785W        W61314   8.079   2.207  11.336
89786W        W61315  17.864  44.808  11.133
89787W        W61316  33.561   4.892   3.069
89788W        W61317   4.973   2.175   3.833
89789W        W61318  15.567  32.865   0.938
89790W        W61319  33.458   6.747   4.793
89791W        W61320  17.159  43.013   1.773
89792W        W61321  11.563  33.394  14.330
89793W        W61322  22.715   4.200   2.825
89794W        W61323  13.660  29.202  14.255
89795W        W61324  36.573  23.134   4.539
89796W        W61325  24.456   0.180  13.076
89797W        W61326  17.893  27.988  14.466
89798W        W61327  24.951  10.744  11.197
89799W        W61328  32.942   1.287  13.287
89800W        W61329   7.616   9.255  13.856
89801W        W61330  14.641   1.760   4.108
89802W        W61331  27.263   1.466  13.939
89803W        W61332  28.682  31.186   4.125
89804W        W61333   0.031  32.411  11.185
89805W        W61334  36.479  27.686  10.918
89806W        W61335   5.713  16.042  10.342
89807W        W61336  33.599  41.573  13.990
89808W        W61337  20.767   8.770   1.205
89809W        W61338  44.096  35.174   1.783
89810W        W61339  30.932  25.884   1.835
89811W        W61340   5.818  27.260   0.392
89812W        W61341  16.254  26.263   3.456
89813W        W61342  37.307  15.297  11.528
89814W        W61343  22.964  42.406   3.806
89815W        W61344  30.079  12.916   1.362
89816W        W61345  26.809  31.836   2.662
89817W        W61346  41.061  31.393   2.684
89818W        W61347  14.175  34.823  14.538
89819W        W61348   7.684  38.818  10.638
89820W        W61349  19.187   9.732  13.974
89821W        W61350   1.333  10.424  10.224
89822W        W61351  23.630  41.735   1.814
89823W        W61352  39.512  10.129  13.872
89824W        W61353  38.292  15.116  10.567
89825W        W61354  24.511  33.102  14.932
89826W        W61355  12.844   8.922   1.476
89827W        W61356  12.807  41.909  12.250
89828W        W61357   3.685  39.696  14.071
89829W        W61358  17.126  17.410  11.642
89830W        W61359  43.770   6.506  11.510
89831W        W61360  29.521   6.164   2.840
89832W        W61361  30.261   2.875  14.307
89833W        W61362  43.282  41.991  11.171
89834W        W61363  28.155  23.072   1.317
89835W        W61364   0.330  38.588  14.235
89836W        W61365  32.290   3.933   2.380
89837W        W61366  36.478  42.083  14.114
89838W        W61367  30.220  11.046  12.798
89839W        W61368  35.331   6.752   2.039
89840W        W61369   7.197  34.323  11.598
89841W        W61370  19.341  44.731   1.781
89842W        W61371  21.290  37.597   2.392
89843W        W61372  29.702  13.151  13.947
89844W        W61373  27.996  30.901  14.974
89845W        W61374  15.681  33.112   4.835
89846W        W61375  13.358   2.914  14.734
89847W        W61376  28.288  21.081   3.758
89848W        W61377  15.666  21.649   3.815
89849W        W61378  26.708  29.432   1.883
89850W        W61379  22.195  34.531  12.514
89851W        W61380  29.338  24.239   1.335
89852W        W61381   5.386  40.511   1.703
89853W        W61382   4.479   4.920  13.431
89854W        W61383  30.488   5.319  10.818
89855W        W61384  35.235  21.554  14.767
89856W        W61385   5.970  23.549   3.905
89857W        W61386  23.951   0.736   0.904
89858W        W61387  10.189  33.482  14.166
89859W        W61388  24.427  24.316   0.903
89860W        W61389  17.135  20.295   1.803
89861W        W61390  38.455  14.141   1.207
89862W        W61391  13.472  13.377  13.830
89863W        W61392  13.239  16.140   0.320
89864W        W61393  36.405  43.375  13.657
89865W        W61394  21.201  31.176   2.405
89866W        W61395  10.690  15.732  14.911
89867W        W61396  16.188   9.549   3.273
89868W        W61397  29.479   4.775  10.208
89869W        W61398  34.449  18.818  14.813
89870W        W61399  18.179  40.993  13.051
89871W        W61400  25.978   2.929   2.295
89872W        W61401  41.990  36.374   2.991
89873W        W61402  38.250  27.111   3.532
89874W        W61403  38.889  16.792   1.520
89875W        W61404  31.426  12.120   3.580
89876W        W61405  44.150  27.563  14.819
89877W        W61406  38.304  25.975   1.803
89878W        W61407   7.346  37.887  11.559
89879W        W61408  14.064  40.003  12.170
89880W        W61409  12.583  40.737  14.478
89881W        W61410  23.073  19.016  14.285
89882W        W61411   7.828  14.846   1.852
89883W        W61412  17.359  10.232   0.219
89884W        W61413   9.805  33.673  13.174
89885W        W61414  41.822  19.100   3.326
89886W        W61415  16.668  25.160  14.697
89887W        W61416  18.209  39.048  11.631
89888W        W61417  10.861   2.040   3.649
89889W        W61418  39.948  27.619  14.496
89890W        W61419  19.162  15.336  13.049
89891W        W61420  43.803  19.422   4.513
89892W        W61421   0.463  32.385  12.963
89893W        W61422   0.427  23.449  10.599
89894W        W61423  34.566   0.828  12.251
89895W        W61424  16.232  18.839  11.837
89896W        W61425  31.912  25.560   1.726
89897W        W61426  41.742  12.719  12.162
89898W        W61427  11.181  44.463  13.411
89899W        W61428   1.563   1.810   0.561
89900W        W61429   2.744  32.503   3.337
89901W        W61430  38.494  11.382  10.624
89902W        W61431  33.875   0.508  13.840
89903W        W61432  34.466  34.915  14.266
89904W        W61433   8.256  12.257  12.620
89905W        W61434  23.289  30.181  14.412
89906W        W61435  27.627   2.503   1.878
89907W        W61436  27.250  43.844  14.592
89908W        W61437  40.161  44.870   4.860
89909W        W61438  15.878  37.615   4.952
89910W        W61439  31.360  22.954  13.652
89911W        W61440  19.537   2.695   1.822
89912W        W61441  26.854  21.926  13.091
89913W        W61442   7.702  33.519  11.276
89914W        W61443  11.381  22.269   3.127
89915W        W61444  31.995   4.381   0.253
89916W        W61445  36.027  17.778  14.617
89917W        W61446  29.896  38.449  12.986
89918W        W61447  34.920  18.877   0.859
89919W        W61448  27.160   6.162   1.837
89920W        W61449  41.001  22.985  13.636
89921W        W61450  17.643  33.558  10.705
89922W        W61451  27.125  33.155  13.349
89923W        W61452   2.003  11.231  13.653
89924W        W61453  33.658  24.966   3.469
89925W        W61454  38.378  27.434   4.485
89926W        W61455   0.764  10.676  12.962
89927W        W61456  38.407  33.911  12.279
89928W        W61457  34.873  23.470  14.717
89929W        W61458   6.664  12.242   1.892
89930W        W61459   2.206  24.717   1.273
89931W        W61460  35.408  14.710  10.730
89932W        W61461   9.266  43.225  13.738
89933W        W61462   0.448  10.242   2.668
89934W        W61463  13.826  24.427  11.606
89935W        W61464  12.659  25.161  12.923
89936W        W61465  18.021  21.495   1.774
89937W        W61466  16.225  14.090   0.785
89938W        W61467  13.695  22.286   2.633
89939W        W61468  31.145  24.816   4.053
89940W        W61469   1.795  15.697   3.660
89941W        W61470  27.141  30.615   1.285
89942W        W61471  37.105  24.120  12.042
89943W        W61472  24.668  17.232  12.503
89944W        W61473  33.426  40.741  12.012
89945W        W61474  24.627  23.038  13.830
89946W        W61475  21.057  20.223   3.655
89947W        W61476   3.987  24.833  10.671
89948W        W61477  32.600  20.695   1.476
89949W        W61478  43.405  31.305   3.365
89950W        W61479   4.321  18.292   0.860
89951W        W61480  33.764  19.240  12.478
89952W        W61481   2.564   4.055  12.517
89953W        W61482  41.683  10.314   2.886
89954W        W61483  32.639  44.812  13.360
89955W        W61484  37.761  15.819   4.623
89956W        W61485  19.713  25.319   2.436
89957W        W61486  13.063  35.651   3.547
89958W        W61487  14.048   9.923   4.038
89959W        W61488  11.760  34.545   2.664
89960W        W61489  30.517  14.682  14.554
89961W        W61490   7.488  20.474   0.420
89962W        W61491  44.968  11.288   0.435
89963W        W61492  42.498  37.517  10.693
89964W        W61493  19.462  12.836   4.219
89965W        W61494  23.631   2.237  11.073
89966W        W61495  12.694  44.891   3.912
89967W        W61496  42.991   9.920  13.523
89968W        W61497  16.903   4.215   4.147
89969W        W61498  42.223  10.268  12.442
89970W        W61499   1.121   3.015   3.064
89971W        W61500  32.626  19.022  11.613
89972W        W61501  11.295   7.067  11.518
89973W        W61502  36.031   0.046  12.023
89974W        W61503  41.867  39.893   3.338
89975W        W61504  17.197  15.306  14.966
89976W        W61505  24.552  27.977  12.334
89977W        W61506  34.090  21.207   1.788
89978W        W61507  37.404   9.353  12.032
89979W        W61508  30.019  32.607  14.970
89980W        W61509   4.514  16.312   1.285
89981W        W61510  31.610  23.247   4.561
89982W        W61511   5.691  15.562  14.035
89983W        W61512   6.291   0.830  10.483
89984W        W61513  35.101  30.657  12.404
89985W        W61514  24.190  33.784  10.459
89986W        W61515   8.522  30.873   1.539
89987W        W61516  18.053  10.645  13.984
89988W        W61517  37.008  17.108  11.966
89989W        W61518  25.652  19.647   1.292
89990W        W61519   1.475  29.289   4.185
89991W        W61520  23.467  36.354  14.869
89992W        W61521  26.799  19.786  11.236
89993W        W61522   6.067  28.875  14.449
89994W        W61523  31.561   3.327   2.105
89995W        W61524  41.594  10.837  14.925
89996W        W61525  39.555   6.253   0.775
89997W        W61526   6.563  25.166  14.399
89998W        W61527  30.733  43.374   1.140
89999W        W61528  44.255   5.705   4.413
90000W        W61529  25.693  29.829  12.308
90001W        W61530  10.780   9.902  14.526
90002W        W61531  14.253   9.370   2.687
90003W        W61532  39.535  31.897  13.825
90004W        W61533   3.282  23.004   4.134
90005W        W61534  25.000   2.864   3.185
90006W        W61535   0.784  28.530  11.083
90007W        W61536  27.932  33.897   1.735
90008W        W61537  25.136   3.246   0.045
90009W        W61538  39.081  38.628   0.944
90010W        W61539  39.539  18.652   4.297
90011W        W61540   6.047  36.297  11.587
90012W        W61541  44.445   4.995   0.934
90013W        W61542   9.269  25.839  13.345
90014W        W61543  12.333  33.096   1.981
90015W        W61544  24.460   7.627   0.950
90016W        W61545  38.839  41.570  14.059
90017W        W61546   2.746  18.100  11.515
90018W        W61547  21.701  26.109  10.484
90019W        W61548  28.562   4.303   4.354
90020W        W61549  31.496  35.878   3.298
90021W        W61550   6.323   0.047   0.443
90022W        W61551  12.343  20.070   2.037
90023W        W61552  36.321  39.979   4.144
90024W        W61553   5.552   8.727  11.502
90025W        W61554   9.646  27.621   3.353
90026W        W61555  12.316  42.927   4.172
90027W        W61556  33.830  27.925   1.026
90028W        W61557  37.340  16.607  13.535
90029W        W61558   7.664  29.262   2.207
90030W        W61559  25.875  19.665  14.355
90031W        W61560   4.835  26.727   2.369
90032W        W61561   7.811  11.786  11.662
90033W        W61562   2.345   2.406   1.010
90034W        W61563  26.846  10.106   4.800
90035W        W61564  12.808  36.698   2.315
90036W        W61565  33.977  41.923   3.260
90037W        W61566  16.155  16.590   2.441
90038W        W61567  26.490  35.863  10.763
90039W        W61568   7.367   6.357   3.245
90040W        W61569  43.758  32.488  13.635
90041W        W61570  28.525  14.371  13.488
90042W        W61571  19.537   8.787  12.905
90043W        W61572   1.397  35.307   0.846
90044W        W61573  15.631   5.417   2.799
90045W        W61574   0.748  36.865   1.866
90046W        W61575   2.196  25.426  14.081
90047W        W61576  42.234   9.403  12.378
90048W        W61577  29.240  41.297   4.992
90049W        W61578   1.797  21.681   3.089
90050W        W61579   2.648  35.198  12.108
90051W        W61580  28.864   8.756   4.475
90052W        W61581   9.992  18.305  12.359
90053W        W61582  33.077   1.809   2.825
90054W        W61583  24.575  17.457   2.459
90055W        W61584   2.719  40.251   3.143
90056W        W61585   2.364  32.143   3.901
90057W        W61586  35.152   1.309   0.194
90058W        W61587  40.406  26.341   4.495
90059W        W61588   4.391   9.679  11.898
90060W        W61589  44.632  32.888  14.244
90061W        W61590  32.124  42.236   3.321
90062W        W61591  20.215  42.279  12.985
90063W        W61592  41.983  17.512   0.817
90064W        W61593  22.101  29.192  13.304
90065W        W61594  44.782  17.236   2.345
90066W        W61595  26.794  30.661   4.608
90067W        W61596  40.912  16.053   0.613
90068W        W61597  30.121  18.072   2.969
90069W        W61598  33.462  18.798  14.832
90070W        W61599  39.497  27.597  10.670
90071W        W61600  35.207  23.576  13.027
90072W        W61601  11.296  43.818  14.744
90073W        W61602  34.742   2.371  11.212
90074W        W61603  31.246  13.839  11.809
90075W        W61604  35.614  21.768  11.219
90076W        W61605  36.526  27.590   1.408
90077W        W61606  44.300  33.154  12.112
90078W        W61607  27.930  40.656  11.114
90079W        W61608   6.402   4.188   3.222
90080W        W61609  32.997  16.307  14.147
90081W        W61610  36.039  11.648   2.326
90082W        W61611  40.157  29.099  14.473
90083W        W61612  40.551  41.724  14.864
90084W        W61613  22.252  22.488  12.114
90085W        W61614  10.230  30.421   0.057
90086W        W61615  22.629   4.032  11.566
90087W        W61616  25.092  25.759   1.591
90088W        W61617  11.390  11.720  12.845
90089W        W61618  38.105   1.020   1.888
90090W        W61619  22.388  25.557  13.447
90091W        W61620   2.411   5.151   1.024
90092W        W61621   6.461   2.894   4.920
90093W        W61622   2.468  18.936   1.510
90094W        W61623  23.113  34.932   2.462
90095W        W61624  34.820  31.938   2.299
90096W        W61625  36.982   7.927  10.761
90097W        W61626  31.752  44.067   3.202
90098W        W61627  35.069   7.498  11.142
90099W        W61628  15.683  12.663  10.395
90100W        W61629   5.849  44.287   1.394
90101W        W61630  12.041   9.176   1.667
90102W        W61631  29.571  36.217   5.316
90103W        W61632   8.978  40.652   1.869
90104W        W61633  31.494  44.099  10.705
90105W        W61634  22.678   1.360   0.777
90106W        W61635  26.539  32.671   3.666
90107W        W61636  17.164  13.099   3.808
90108W        W61637  15.057  12.800   3.036
90109W        W61638  42.984   9.477   3.663
90110W        W61639  38.525   5.704   1.309
90111W        W61640  22.130  28.446  10.682
90112W        W61641  28.544  24.713   2.931
90113W        W61642  34.826   7.643   2.223
90114W        W61643   1.813  14.104  11.071
90115W        W61644   3.270  15.687  11.747
90116W        W61645  11.174  44.098  12.949
90117W        W61646  14.705   4.037  13.072
90118W        W61647  15.234  21.032   1.060
90119W        W61648   6.630  42.076  13.745
90120W        W61649  37.510  16.560   3.924
90121W        W61650  10.173  10.866   1.295
90122W        W61651  11.120  27.544  10.554
90123W        W61652  29.242  32.141   3.118
90124W        W61653  27.476   5.814   2.045
90125W        W61654  13.653   3.039   0.844
90126W        W61655   1.700  31.405   3.782
90127W        W61656  37.519  30.292   2.399
90128W        W61657  44.888  18.489   1.553
90129W        W61658   7.508   4.312   2.673
90130W        W61659  42.394  13.745   3.640
90131W        W61660  38.975  41.066   4.463
90132W        W61661   5.680  10.646   1.310
90133W        W61662  44.310  11.727   5.066
90134W        W61663  44.763   6.368   0.346
90135W        W61664  19.279  44.206  13.032
90136W        W61665  37.460  15.669   0.834
90137W        W61666  14.149  33.929  12.141
90138W        W61667   1.755  44.406   2.863
90139W        W61668   5.145   4.128  13.048
90140W        W61669  10.348  36.807   4.675
90141W        W61670  10.654  37.613   3.647
90142W        W61671  29.880  38.363   3.173
90143W        W61672  36.343   9.115  14.083
90144W        W61673  34.640  42.333  14.166
90145W        W61674  44.306  26.101   0.316
90146W        W61675  16.722  26.435  11.913
90147W        W61676  10.242  27.950   2.434
90148W        W61677  23.215  13.248   3.378
90149W        W61678  27.997  26.700  13.965
90150W        W61679   7.766   7.602  14.958
90151W        W61680  21.612  41.555   5.502
90152W        W61681   8.645  44.904   4.473
90153W        W61682  38.555  12.212  11.679
90154W        W61683  38.591   2.773   3.424
90155W        W61684  17.105  33.245   3.648
90156W        W61685  38.516  19.231   4.748
90157W        W61686  19.732   9.680   4.517
90158W        W61687  34.375   8.587   4.328
90159W        W61688  42.136  22.419  13.943
90160W        W61689  38.846  32.927  12.984
90161W        W61690  26.190  27.743   2.745
90162W        W61691   9.348  37.483   2.384
90163W        W61692  19.361  22.663  14.964
90164W        W61693  19.535  37.268   3.668
90165W        W61694  38.250  45.000  11.049
90166W        W61695  10.666   1.257  11.230
90167W        W61696  40.243  31.044   1.149
90168W        W61697  36.880  11.066   0.985
90169W        W61698  26.122   3.449  12.514
90170W        W61699  22.017   0.925   0.795
90171W        W61700  16.758  31.517  10.444
90172W        W61701  29.444  31.995  13.563
90173W        W61702   3.149  10.886  14.129
90174W        W61703   4.381  26.671  13.984
90175W        W61704  16.739  17.373   2.242
90176W        W61705  33.496   2.437   3.255
90177W        W61706   7.287  32.923  14.361
90178W        W61707  39.414  36.357  11.081
90179W        W61708  33.492  14.480   2.675
90180W        W61709  27.447  40.526  10.690
90181W        W61710  25.778  32.572   3.194
90182W        W61711  39.424  23.757   0.759
90183W        W61712  26.452   9.991   9.932
90184W        W61713   6.631  13.805  12.131
90185W        W61714  42.668  34.441   4.006
90186W        W61715  35.046  30.549   2.854
90187W        W61716  35.863  42.006   4.597
90188W        W61717   4.321  23.232  10.667
90189W        W61718  14.030  42.799  14.565
90190W        W61719  29.523  39.980  12.435
90191W        W61720   2.809  30.413   2.240
90192W        W61721  27.705  43.869  11.064
90193W        W61722  44.401  14.167   3.328
90194W        W61723   0.767   0.321  13.968
90195W        W61724  33.202  35.462   4.732
90196W        W61725  32.630   1.187   4.609
90197W        W61726   7.193  42.975   2.289
90198W        W61727  31.803   3.820   2.155
90199W        W61728  15.937  30.157   5.052
90200W        W61729  22.461  19.004  11.084
90201W        W61730  28.778  28.082   4.793
90202W        W61731  15.843  30.217   0.837
90203W        W61732   3.972  35.511  13.516
90204W        W61733  28.984   2.108   4.048
90205W        W61734   3.864  37.866  13.566
90206W        W61735  14.795  41.783   2.399
90207W        W61736  27.425  20.807  11.196
90208W        W61737  23.457  25.966  14.869
90209W        W61738  14.789  35.336  12.495
90210W        W61739  34.345   1.322   0.880
90211W        W61740   3.845  43.368  14.844
90212W        W61741  11.767  37.365   3.840
90213W        W61742  26.484  12.808  10.390
90214W        W61743  44.314  35.935  10.617
90215W        W61744   6.743  37.410  12.425
90216W        W61745  42.932  39.733  14.381
90217W        W61746  32.637   9.144   1.890
90218W        W61747  32.228   1.363   2.894
90219W        W61748  35.949  13.017   4.881
90220W        W61749  31.331  27.801   2.001
90221W        W61750   0.769  22.589   0.732
90222W        W61751  13.786  24.447   0.688
90223W        W61752  42.252  10.155  11.595
90224W        W61753  32.558  25.043  13.510
90225W        W61754  36.745  36.129  13.743
90226W        W61755  40.204   9.225  13.953
90227W        W61756  29.983  23.368   0.933
90228W        W61757  12.301   6.173   0.275
90229W        W61758   2.640  25.608   2.340
90230W        W61759  34.538  39.393  10.837
90231W        W61760  43.364  44.559  13.843
90232W        W61761  23.726  22.249  11.668
90233W        W61762  37.953  23.927   3.806
90234W        W61763  37.912  30.971   1.242
90235W        W61764  29.920  11.099  14.350
90236W        W61765  17.015  16.805   1.403
90237W        W61766  35.059  33.866   4.751
90238W        W61767  24.475   6.142  12.034
90239W        W61768  28.567  30.343   3.242
90240W        W61769  42.523  32.198   2.279
90241W        W61770  21.817   1.697   0.290
90242W        W61771   9.791   9.037   2.841
90243W        W61772  29.300  20.063   2.030
90244W        W61773  12.246   6.495  14.450
90245W        W61774  17.235   5.266   0.185
90246W        W61775   7.294  38.813   0.329
90247W        W61776  30.944  18.716  11.156
90248W        W61777  41.882   0.161  13.200
90249W        W61778  16.604  34.795  12.741
90250W        W61779  34.258  29.364   2.515
90251W        W61780  37.572  11.637  14.011
90252W        W61781  40.889  15.750   4.684
90253W        W61782   6.114   7.164   2.202
90254W        W61783  37.446  36.016  12.530
90255W        W61784  44.061  32.792   3.678
90256W        W61785  17.353  44.953   1.924
90257W        W61786  28.230   1.716  14.263
90258W        W61787  42.530  23.481  14.952
90259W        W61788  35.489  37.611  10.647
90260W        W61789   5.359  38.894  14.892
90261W        W61790   9.719  26.486  14.910
90262W        W61791   7.651  40.138  13.363
90263W        W61792  20.162  20.864  13.769
90264W        W61793  34.031  36.275   3.957
90265W        W61794  29.534  12.205  11.396
90266W        W61795  44.567  36.465  14.486
90267W        W61796  39.227  42.929  11.894
90268W        W61797   9.130  18.642   1.178
90269W        W61798  41.215  42.395  11.598
90270W        W61799   4.884   0.374   4.253
90271W        W61800   3.185   3.463   4.726
90272W        W61801  25.041   9.979  13.022
90273W        W61802   7.724  38.549   0.357
90274W        W61803  33.973   6.727  13.606
90275W        W61804  31.662  30.251   3.717
90276W        W61805  15.332  19.182  13.132
90277W        W61806  11.362  44.459  11.204
90278W        W61807   7.876   0.292   1.834
90279W        W61808  14.813  23.009  11.735
90280W        W61809  35.462  20.730  11.899
90281W        W61810  20.011  10.691  10.391
90282W        W61811  23.264  23.416   2.360
90283W        W61812  44.854  35.901   3.887
90284W        W61813   1.707  29.542   4.995
90285W        W61814  25.137  43.492   0.928
90286W        W61815  34.624   2.710  12.150
90287W        W61816  27.731   1.954  13.525
90288W        W61817  30.537  16.848  13.362
90289W        W61818  26.900  21.970  14.009
90290W        W61819  26.172  16.708   4.092
90291W        W61820  44.735  25.167  12.970
90292W        W61821  34.550  32.165  14.878
90293W        W61822  30.228  27.528   2.801
90294W        W61823  22.145   2.051  10.507
90295W        W61824  31.050  30.565   2.538
90296W        W61825  42.329  43.516   1.297
90297W        W61826   6.138  44.430   0.936
90298W        W61827   0.816  42.755  13.001
90299W        W61828   4.833   4.733   3.575
90300W        W61829  33.037   6.683  13.782
90301W        W61830   5.060  35.138  14.063
90302W        W61831  29.544  36.347  14.375
90303W        W61832  13.124  18.495   0.205
90304W        W61833  21.038  23.665  14.914
90305W        W61834  35.534  34.090   0.451
90306W        W61835  43.272  31.949  10.211
90307W        W61836  20.291  30.173   0.878
90308W        W61837  27.997  20.149   2.283
90309W        W61838  24.512  35.922  13.078
90310W        W61839  29.117  17.749   3.347
90311W        W61840  18.302  38.280  11.596
90312W        W61841  33.089   0.032   3.807
90313W        W61842  28.220  26.891  11.213
90314W        W61843  24.619  28.970  14.957
90315W        W61844   4.744  29.169  13.974
90316W        W61845  44.481  13.378  11.894
90317W        W61846  13.681  29.461  14.862
90318W        W61847  37.720  17.076   5.178
90319W        W61848  34.283   2.169  11.245
90320W        W61849   6.995  18.802  12.204
90321W        W61850  30.061   2.294  11.137
90322W        W61851  41.102  22.770  11.966
90323W        W61852   2.462   7.782   3.733
90324W        W61853  32.147  35.981   4.201
90325W        W61854  26.694  39.491   1.882
90326W        W61855  44.710  20.699  10.534
90327W        W61856  29.229  27.479  11.918
90328W        W61857  38.402  44.007  13.154
90329W        W61858  24.977  28.074   0.943
90330W        W61859  12.071  43.098  13.224
90331W        W61860  11.267  12.244  13.292
90332W        W61861   0.142   4.904   0.369
90333W        W61862  24.944  27.433   3.142
90334W        W61863  10.653   3.228   4.009
90335W        W61864  24.462  24.743   4.435
90336W        W61865   2.411   1.806   1.737
90337W        W61866  13.465   6.825  11.546
90338W        W61867  44.549  19.822  12.562
90339W        W61868  30.313  18.690   4.655
90340W        W61869  43.524  19.588   4.947
90341W        W61870  19.858  30.582   4.055
90342W        W61871  14.122  41.503  11.619
90343W        W61872  26.436   9.656   4.185
90344W        W61873  33.476   6.435   0.487
90345W        W61874  32.834   8.409   3.658
90346W        W61875  11.779  36.523   1.982
90347W        W61876  27.880  35.069  12.257
90348W        W61877  28.148  30.149   0.439
90349W        W61878   5.153  11.902   1.310
90350W        W61879   3.498  23.304   3.750
90351W        W61880  22.109   7.095  11.851
90352W        W61881  33.099  43.714   3.719
90353W        W61882  20.704   3.894  10.417
90354W        W61883  19.780  16.811   4.485
90355W        W61884   7.755  24.326  13.995
90356W        W61885  10.164  24.073  14.774
90357W        W61886  42.257  17.316   3.852
90358W        W61887   1.305  29.512   3.751
90359W        W61888  39.952   2.464   4.105
90360W        W61889  31.279  16.342   4.965
90361W        W61890  12.812  32.154  14.117
90362W        W61891   3.853   9.133   0.089
90363W        W61892   4.018  11.617  13.602
90364W        W61893  26.328  32.947  13.050
90365W        W61894   6.759  15.973   4.171
90366W        W61895  18.697  21.503  11.291
90367W        W61896  31.060  25.203   1.294
90368W        W61897  25.889  26.162   3.273
90369W        W61898  41.308  36.816   0.243
90370W        W61899  36.666  18.018   1.753
90371W        W61900  13.184  30.942  13.273
90372W        W61901  37.604  13.229   0.864
90373W        W61902  40.317  19.006   3.378
90374W        W61903  12.698  17.976   4.097
90375W        W61904  14.054  41.048   4.082
90376W        W61905  25.645  37.985  12.545
90377W        W61906  16.046  43.667   4.748
90378W        W61907  20.742   3.692   4.676
90379W        W61908  24.696  26.420   2.252
90380W        W61909   7.444  38.298   4.228
90381W        W61910  21.409   6.949  12.583
90382W        W61911   7.797   1.973  11.734
90383W        W61912   6.427  13.466   0.197
90384W        W61913   5.567  14.193   3.566
90385W        W61914  40.333  36.894  12.322
90386W        W61915  39.846  29.235   0.873
90387W        W61916  22.920  31.140  12.883
90388W        W61917  17.369  44.564   2.898
90389W        W61918  21.091  25.101  14.797
90390W        W61919  15.669  15.673  12.585
90391W        W61920  12.761  30.408   0.922
90392W        W61921   1.392  35.634   5.094
90393W        W61922  15.830  23.477  13.489
90394W        W61923  22.140   0.067   1.529
90395W        W61924  19.546  21.939  10.727
90396W        W61925  22.121  10.916   1.160
90397W        W61926   8.590  15.121   0.078
90398W        W61927  26.643  35.558   3.605
90399W        W61928  11.867  38.468  14.823
90400W        W61929  27.761  43.772   1.817
90401W        W61930  35.591   2.861   3.351
90402W        W61931  13.946  20.943  14.413
90403W        W61932  28.351   3.904   4.063
90404W        W61933  13.606  31.133  13.793
90405W        W61934  32.618  15.595  11.746
90406W        W61935  23.605  26.232   4.082
90407W        W61936  31.463  16.872   2.977
90408W        W61937   1.386  44.240  11.064
90409W        W61938  27.278  29.357   1.824
90410W        W61939  29.574  25.646  12.236
90411W        W61940  42.509  20.555   1.197
90412W        W61941  39.683   8.316  13.847
90413W        W61942  28.259  31.593  13.798
90414W        W61943  27.775   8.969  12.859
90415W        W61944   1.350  19.143  12.595
90416W        W61945  21.198  26.333  12.583
90417W        W61946  11.397  36.747   1.710
90418W        W61947  11.134   3.351  11.580
90419W        W61948  31.895   2.179   4.563
90420W        W61949  21.311   4.908   2.769
90421W        W61950   8.497  20.705   4.409
90422W        W61951   6.154  30.129   1.213
90423W        W61952  21.710  11.640  11.970
90424W        W61953  19.099  36.519  12.603
90425W        W61954  30.515  19.720  11.880
90426W        W61955  11.274  42.657   2.136
90427W        W61956  24.962  25.914   3.253
90428W        W61957  28.661  34.200  14.104
90429W        W61958   9.899  11.433   2.791
90430W        W61959  38.619  42.915   4.177
90431W        W61960   6.275  15.432  11.574
90432W        W61961  36.742  27.714   2.143
90433W        W61962  21.081  29.985  11.007
90434W        W61963  37.947   0.769  13.530
90435W        W61964  39.606  14.816   0.956
90436W        W61965   6.901  11.157   2.858
90437W        W61966  31.823  22.151  12.060
90438W        W61967  31.953  38.922  14.395
90439W        W61968  37.495   8.985   3.542
90440W        W61969  41.630  11.162  13.729
90441W        W61970  21.118   1.534   2.388
90442W        W61971  14.226  15.672  12.744
90443W        W61972  23.520   5.524  14.920
90444W        W61973  34.377  43.780   1.902
90445W        W61974  17.716  32.426   2.890
90446W        W61975  20.434   0.896  11.492
90447W        W61976  24.626  15.264  12.793
90448W        W61977   4.168  23.906  14.834
90449W        W61978  19.078  35.379  10.858
90450W        W61979  40.757  10.505   2.677
90451W        W61980  25.442   2.313  14.328
90452W        W61981   0.523   2.695   2.256
90453W        W61982   7.144  11.985  14.236
90454W        W61983  22.181  40.862   2.364
90455W        W61984  11.679  40.440   1.345
90456W        W61985   3.766  12.703  14.506
90457W        W61986  35.645  35.582  12.445
90458W        W61987  10.128  32.921  14.372
90459W        W61988  28.801  25.206  14.560
90460W        W61989  25.453  15.349   2.160
90461W        W61990  38.859  20.758   1.605
90462W        W61991  40.625  21.312   2.686
90463W        W61992  37.033  32.911   0.447
90464W        W61993  32.351  35.520  12.175
90465W        W61994  10.920   5.671  13.271
90466W        W61995  41.738  17.224  12.563
90467W        W61996  42.487  18.616   1.933
90468W        W61997  18.263   1.296  12.760
90469W        W61998   9.334  34.620   3.107
90470W        W61999  43.011  27.492   2.381
90471W        W62000  15.308   0.448   2.747
90472W        W62001  15.617  10.874  11.623
90473W        W62002  24.908  22.473  14.788
90474W        W62003  33.707   7.218   9.977
90475W        W62004  16.689  36.185  13.516
90476W        W62005   7.720  21.128  10.112
90477W        W62006   6.743  13.162  14.909
90478W        W62007  14.539  39.783   2.678
90479W        W62008  26.552   4.683   3.643
90480W        W62009  30.760  14.666  11.569
90481W        W62010  14.141   5.167  10.672
90482W        W62011  24.621  42.493  11.666
90483W        W62012  26.153  32.127  10.206
90484W        W62013   7.363  11.350   2.225
90485W        W62014   1.613   9.798  13.491
90486W        W62015  28.541  31.072  14.517
90487W        W62016   6.543  15.761  10.132
90488W        W62017  37.515  40.213  12.467
90489W        W62018  10.896  36.426  12.455
90490W        W62019  40.572  11.194   1.203
90491W        W62020  42.042  23.690  13.161
90492W        W62021  32.807  26.273  12.985
90493W        W62022  34.604   1.328  12.428
90494W        W62023   6.275   1.718  12.958
90495W        W62024   5.365  38.067   1.278
90496W        W62025  43.318  11.707  13.069
90497W        W62026  40.820  35.791  11.223
90498W        W62027  11.051   3.367   4.323
90499W        W62028  37.901   2.318  13.522
90500W        W62029  18.328   6.104   1.100
90501W        W62030  37.582  29.670   2.948
90502W        W62031   6.488   6.088  10.270
90503W        W62032  13.861  26.387  11.973
90504W        W62033  12.309  15.047   1.168
90505W        W62034  17.714  42.271   1.335
90506W        W62035  11.760  19.949  12.025
90507W        W62036  27.700  26.587   4.375
90508W        W62037  44.413  42.832   1.664
90509W        W62038  15.100  33.356  13.396
90510W        W62039   5.188  34.857  13.354
90511W        W62040  17.737  14.735  14.471
90512W        W62041  18.154  20.633  11.566
90513W        W62042  28.573  39.293   1.316
90514W        W62043  16.427  39.855   2.318
90515W        W62044  31.393  17.722   1.183
90516W        W62045   9.207  19.559   0.718
90517W        W62046  23.989  31.100   4.212
90518W        W62047  34.079  24.057  13.400
90519W        W62048   0.353  30.920  14.990
90520W        W62049  27.212  28.736   0.788
90521W        W62050  21.316   4.705  11.673
90522W        W62051  43.330  20.563   1.027
90523W        W62052  11.139  41.652   1.943
90524W        W62053   3.598  20.352  13.840
90525W        W62054   0.547   6.263   4.548
90526W        W62055  43.948  25.203   1.738
90527W        W62056  37.781  43.282   0.538
90528W        W62057  13.178  25.639  13.799
90529W        W62058  31.623  33.367  14.486
90530W        W62059   5.443  21.162   2.750
90531W        W62060  39.465  15.275   0.762
90532W        W62061   5.934  34.858   1.304
90533W        W62062   8.252  15.097  13.891
90534W        W62063   2.890   4.278   2.177
90535W        W62064  25.650  32.788  13.145
90536W        W62065  39.976  29.087  10.881
90537W        W62066  27.086  16.377   1.936
90538W        W62067  23.732  32.930   1.411
90539W        W62068  13.289  11.064   3.631
90540W        W62069   5.027  19.780   0.680
90541W        W62070   3.912   1.429   2.176
90542W        W62071  26.197  39.082   3.342
90543W        W62072  16.059  36.504  12.567
90544W        W62073  24.696  35.337  13.929
90545W        W62074   0.813  31.250  11.717
90546W        W62075  34.077   9.359  12.589
90547W        W62076  10.552  15.160  11.911
90548W        W62077  29.428  21.966   2.725
90549W        W62078  12.031  26.558   4.174
90550W        W62079  23.792  22.760   5.084
90551W        W62080  26.590  26.262  11.169
90552W        W62081  21.272  31.860  14.071
90553W        W62082  20.529  32.362  12.553
90554W        W62083  30.833   7.423  13.427
90555W        W62084  12.722  12.152  11.123
90556W        W62085  10.371   9.210  10.660
90557W        W62086  25.011  27.087   0.467
90558W        W62087   2.673  13.664  12.109
90559W        W62088   9.592  21.950  14.699
90560W        W62089  18.678  33.475  11.538
90561W        W62090  11.150  40.446  14.300
90562W        W62091  37.328   8.310  11.014
90563W        W62092  43.652   8.934   1.881
90564W        W62093  32.859  24.214  11.957
90565W        W62094  10.675  38.523   0.414
90566W        W62095  38.774  18.670   2.364
90567W        W62096   6.120  40.027   3.229
90568W        W62097  33.463   6.637  12.966
90569W        W62098   2.679  12.805   0.353
90570W        W62099  14.417  29.278  10.954
90571W        W62100  32.881   8.274   4.165
90572W        W62101  25.662  21.007  10.279
90573W        W62102  37.333   7.664  13.398
90574W        W62103  30.503  43.047   0.420
90575W        W62104  38.415  18.772  12.083
90576W        W62105  11.566   2.935  13.971
90577W        W62106   7.839  39.461  11.585
90578W        W62107  31.376   5.504  13.825
90579W        W62108  44.673   7.902   0.745
90580W        W62109  44.162  31.945   1.502
90581W        W62110  28.837  10.905  13.000
90582W        W62111  38.892  23.571  14.917
90583W        W62112  14.312  29.989   4.626
90584W        W62113  14.839  22.787  13.930
90585W        W62114  39.441  27.197  12.498
90586W        W62115   5.250  33.395   3.735
90587W        W62116   2.313  26.128   4.687
90588W        W62117  32.828  41.601  11.583
90589W        W62118  11.576  34.643  14.740
90590W        W62119  24.124  12.671  14.006
90591W        W62120  18.551   5.864  12.615
90592W        W62121  11.110  15.831  14.314
90593W        W62122  43.471  25.729  14.835
90594W        W62123  40.514   0.299  13.467
90595W        W62124  22.772   0.078  11.103
90596W        W62125  14.126  27.212  12.157
90597W        W62126  15.115  17.053  13.487
90598W        W62127   6.432  35.964   0.852
90599W        W62128  22.716   7.080  14.384
90600W        W62129  43.873  17.430  14.015
90601W        W62130  34.441  30.372   2.187
90602W        W62131   1.408  13.196  13.070
90603W        W62132  41.721  39.661  13.875
90604W        W62133   4.886  21.184   4.568
90605W        W62134  28.590  17.651   4.524
90606W        W62135  17.619   9.889  10.888
90607W        W62136  23.119  25.006   2.116
90608W        W62137  41.226  29.590   3.651
90609W        W62138  35.907  32.075   1.344
90610W        W62139  43.901  22.259  13.795
90611W        W62140  34.386  11.160   2.347
90612W        W62141  42.728  14.814  11.157
90613W        W62142  31.575  20.299  10.577
90614W        W62143   6.190   9.639   4.651
90615W        W62144  17.517  16.184   4.616
90616W        W62145  21.027  30.340   1.198
90617W        W62146   0.899  12.809   3.909
90618W        W62147  33.863  32.465   0.679
90619W        W62148  30.208  31.577   4.678
90620W        W62149  26.553  18.981  12.153
90621W        W62150  30.669  20.831   0.705
90622W        W62151   5.805  43.435   0.978
90623W        W62152  29.173   6.218   4.567
90624W        W62153  32.356   7.642   3.755
90625W        W62154   2.734  19.844  13.001
90626W        W62155  19.248  26.556  10.578
90627W        W62156  42.023  30.561  11.617
90628W        W62157   0.901  29.383  13.468
90629W        W62158   7.764  40.200   3.997
90630W        W62159  33.553  38.465   4.585
90631W        W62160  12.680  18.697  11.464
90632W        W62161  31.146  10.684   4.603
90633W        W62162  23.763  21.525   3.428
90634W        W62163  10.172  33.567  13.627
90635W        W62164  14.094  30.416  13.135
90636W        W62165  32.774  25.585   3.161
90637W        W62166  24.571  31.717  14.928
90638W        W62167  37.129  30.730  11.080
90639W        W62168  36.903  29.637  12.947
90640W        W62169  30.509  12.215  11.539
90641W        W62170  32.610  14.538  13.891
90642W        W62171  21.105   3.408   2.571
90643W        W62172  19.780  38.086  11.915
90644W        W62173  29.025  32.105  13.886
90645W        W62174  33.335  42.884  11.450
90646W        W62175  14.610  41.476  13.387
90647W        W62176  26.739  12.780   1.420
90648W        W62177  23.637  29.177  11.130
90649W        W62178  22.257  14.231   3.109
90650W        W62179  41.450  23.436  11.572
90651W        W62180  42.045  18.791   3.685
90652W        W62181  27.500  29.427  13.997
90653W        W62182  38.757   4.924  13.930
90654W        W62183  14.117  14.153   0.956
90655W        W62184  17.681  14.271   1.150
90656W        W62185  18.785  26.992  11.475
90657W        W62186  19.795  28.371  11.607
90658W        W62187   7.270   2.944  14.952
90659W        W62188  12.626  40.245   0.489
90660W        W62189  15.139   7.785   3.395
90661W        W62190  32.853  41.211   2.702
90662W        W62191  13.378  17.723   2.574
90663W        W62192   2.981   5.112  11.414
90664W        W62193  33.451   0.706  10.195
90665W        W62194  35.600   7.231   0.402
90666W        W62195   7.859  44.275  11.643
90667W        W62196   2.528   7.122   9.853
90668W        W62197  16.865  23.970   4.529
90669W        W62198  37.561  27.798  12.138
90670W        W62199  17.337  29.238   2.398
90671W        W62200  16.696  21.052  12.860
90672W        W62201   2.968   2.927  13.163
90673W        W62202  22.236  23.410   4.342
90674W        W62203   1.037  39.320   0.458
90675W        W62204  14.688  25.972  12.875
90676W        W62205  14.276   9.320  14.344
90677W        W62206  24.465  30.124  13.090
90678W        W62207  25.065  24.269   4.025
90679W        W62208   3.836  43.686   1.229
90680W        W62209   7.944  33.638   1.337
90681W        W62210  28.007   3.212   4.060
90682W        W62211  12.905   0.778  14.865
90683W        W62212  17.597  41.914  14.875
90684W        W62213  34.071   8.190  13.556
90685W        W62214  19.207  42.432   1.656
90686W        W62215  32.359  44.417  13.562
90687W        W62216  20.941  27.670   0.585
90688W        W62217  36.821  40.510   3.395
90689W        W62218  41.763  18.605   4.080
90690W        W62219  33.612   6.687   1.774
90691W        W62220   4.442  42.410   2.483
90692W        W62221   8.180  16.132   3.865
90693W        W62222  21.497   9.730  12.423
90694W        W62223   0.329  12.177  12.915
90695W        W62224  26.762  42.879   0.962
90696W        W62225  31.985  25.247   1.316
90697W        W62226  26.167  40.503  11.661
90698W        W62227   6.744  23.592  12.441
90699W        W62228   4.696  17.114  13.571
90700W        W62229  15.105  41.446   3.191
90701W        W62230   6.665  19.771   1.457
90702W        W62231  11.848   6.322  10.180
90703W        W62232  14.701  37.806  11.150
90704W        W62233  28.365   3.737  14.981
90705W        W62234  42.635  14.831   4.672
90706W        W62235  28.339  25.044   3.542
90707W        W62236  19.219  37.525  12.189
90708W        W62237   6.863  37.962  10.600
90709W        W62238  43.184   5.950  13.898
90710W        W62239  33.945  31.574   4.333
90711W        W62240  19.639  27.482  13.565
90712W        W62241  33.961   8.424  14.923
90713W        W62242  10.599  29.017   1.909
90714W        W62243  27.923   5.132   2.740
90715W        W62244  30.464  33.285   0.223
90716W        W62245   5.350  21.278   1.406
90717W        W62246  18.388  43.510   2.034
90718W        W62247  24.510  20.552   0.814
90719W        W62248  19.007  17.321  11.497
90720W        W62249   5.635  34.867  13.066
90721W        W62250  26.544  22.793  10.807
90722W        W62251  22.342  25.236   2.325
90723W        W62252  10.775  12.327   1.726
90724W        W62253  32.925   1.317  10.709
90725W        W62254   0.980   2.196  14.750
90726W        W62255  13.927  35.168  12.112
90727W        W62256   3.844  34.367  13.284
90728W        W62257   4.938  31.595  13.903
90729W        W62258  21.173  41.984  14.443
90730W        W62259  13.021  26.175  12.003
90731W        W62260  19.469  17.681  13.598
90732W        W62261  28.353  38.497  11.687
90733W        W62262  38.267  40.952  14.397
90734W        W62263   3.740  11.709   2.103
90735W        W62264  30.613  15.297   1.391
90736W        W62265  39.622  29.977  12.535
90737W        W62266  12.051  38.153   3.856
90738W        W62267   9.445  44.955  12.957
90739W        W62268  42.254  37.768   0.832
90740W        W62269  23.323  33.802  10.803
90741W        W62270  16.731  27.275   0.736
90742W        W62271  31.488  36.266   0.442
90743W        W62272   7.790  25.539   0.212
90744W        W62273  41.244  23.664   4.313
90745W        W62274  15.167  31.623  12.997
90746W        W62275  19.832  24.051  12.432
90747W        W62276  26.560   4.731  14.874
90748W        W62277  44.832  37.530   3.677
90749W        W62278  12.041   4.805   2.380
90750W        W62279  11.565  11.155   3.264
90751W        W62280  12.768  30.997  11.717
90752W        W62281  31.866   5.694   4.642
90753W        W62282  22.518  20.677  14.964
90754W        W62283  44.724  10.731  10.419
90755W        W62284   7.212   2.686  13.576
90756W        W62285  13.639  19.021   2.413
90757W        W62286  15.580  33.435   5.232
90758W        W62287   6.394  36.836   2.386
90759W        W62288  22.711  17.717  11.519
90760W        W62289  31.550  26.016  12.980
90761W        W62290  38.788  11.980  12.531
90762W        W62291  26.228  28.133   3.147
90763W        W62292  17.870  27.049   0.508
90764W        W62293  37.963  33.921  12.544
90765W        W62294  35.088   7.755  11.638
90766W        W62295  26.484   8.168   1.959
90767W        W62296  24.320  44.559  11.388
90768W        W62297  18.563   3.988  12.076
90769W        W62298  20.388  25.133   0.762
90770W        W62299   2.800  31.170   2.073
90771W        W62300  31.006  33.385  11.461
90772W        W62301   6.413  30.126   3.345
90773W        W62302  41.251  33.346   0.290
90774W        W62303  30.254   7.223  13.690
90775W        W62304   0.505   3.388  12.033
90776W        W62305  32.397  41.594  13.046
90777W        W62306  17.502  33.611  14.939
90778W        W62307  18.541   8.687   1.296
90779W        W62308  10.773  15.586  11.094
90780W        W62309  13.645  21.524  10.532
90781W        W62310  25.887  12.680  12.860
90782W        W62311  40.835   6.087  13.088
90783W        W62312  44.033  28.711   4.088
90784W        W62313  18.310  32.201   4.549
90785W        W62314  32.929  25.236   2.206
90786W        W62315  18.356  30.109  11.639
90787W        W62316  25.728  32.752  11.906
90788W        W62317  26.038  23.312  13.204
90789W        W62318   7.713  39.011   3.095
90790W        W62319  16.066  15.216  13.428
90791W        W62320  34.393  42.839   1.778
90792W        W62321  35.468  18.044  13.254
90793W        W62322  19.181  42.764  10.716
90794W        W62323  36.590  30.703  12.082
90795W        W62324  13.324  26.312   4.295
90796W        W62325   4.882   4.956   4.032
90797W        W62326  16.918   6.862   1.009
90798W        W62327  25.552   0.375  11.992
90799W        W62328  44.277   9.250   1.196
90800W        W62329  12.561  20.835   1.338
90801W        W62330  30.416  39.282   0.266
90802W        W62331   8.084   3.724  14.354
90803W        W62332   3.965  43.867   4.183
90804W        W62333  38.862  11.680  10.384
90805W        W62334  25.073   9.727  12.522
90806W        W62335  10.014   8.778  12.925
90807W        W62336  20.158  42.383   3.540
90808W        W62337  43.171  30.928   3.642
90809W        W62338  28.982   7.833  13.473
90810W        W62339  17.017  40.508  12.617
90811W        W62340  22.816  36.846  12.472
90812W        W62341  27.434   3.070  11.653
90813W        W62342   4.191  34.090   1.658
90814W        W62343  41.835  29.499   0.288
90815W        W62344  33.849  23.566   0.898
90816W        W62345  44.847  39.853  14.408
90817W        W62346  36.536  44.606  13.683
90818W        W62347  32.971  29.410  10.637
90819W        W62348  41.503   5.776   2.674
90820W        W62349  30.104   3.855  11.314
90821W        W62350  14.503  43.921   2.900
90822W        W62351  35.964  11.589   4.414
90823W        W62352  26.247   7.340   0.931
90824W        W62353   8.624  20.770   2.637
90825W        W62354  16.112   5.836  10.462
90826W        W62355  21.299   9.476   0.393
90827W        W62356  20.722   7.651   1.889
90828W        W62357  32.464   7.535  13.048
90829W        W62358  38.922   4.015  10.653
90830W        W62359  27.596  28.984   1.636
90831W        W62360  42.792  37.499  10.237
90832W        W62361  26.966  20.659   3.678
90833W        W62362  27.209  20.720  13.499
90834W        W62363   2.759  39.154  14.009
90835W        W62364  17.413  11.190  10.684
90836W        W62365  35.686   5.036   2.950
90837W        W62366  31.617  22.598  13.929
90838W        W62367  36.003  18.006   0.514
90839W        W62368  15.142  35.691  13.053
90840W        W62369  22.268   9.758  12.903
90841W        W62370  19.787  30.401  11.208
90842W        W62371  25.590  22.693  13.029
90843W        W62372  25.688  43.928   1.242
90844W        W62373  41.589  21.633   0.783
90845W        W62374  23.963  31.585  11.483
90846W        W62375  29.136  38.803  10.975
90847W        W62376  39.816  33.120  11.810
90848W        W62377  18.160  33.261   1.909
90849W        W62378   8.268  15.452   0.315
90850W        W62379  17.029  11.561  10.638
90851W        W62380  16.126  40.430  14.227
90852W        W62381   8.808   4.782   3.686
90853W        W62382  39.938  33.453   4.345
90854W        W62383  40.800  26.173  14.424
90855W        W62384  17.685  32.215  10.308
90856W        W62385  37.199  21.837  13.895
90857W        W62386  33.231   5.782  12.179
90858W        W62387  39.860  40.792  11.155
90859W        W62388  44.088  37.149  11.072
90860W        W62389  26.185  17.028   0.275
90861W        W62390  38.670  19.355  10.683
90862W        W62391  39.468  39.050   2.872
90863W        W62392  20.014  43.914   3.720
90864W        W62393  23.242  43.879   3.247
90865W        W62394  28.497  31.200  11.880
90866W        W62395  43.511  33.207  11.827
90867W        W62396  26.792  43.980   3.202
90868W        W62397  35.003  10.762  11.922
90869W        W62398  40.810  17.505  11.020
90870W        W62399  35.960   0.760   3.167
90871W        W62400  18.359  32.674  14.393
90872W        W62401  22.546  15.821  13.509
90873W        W62402  30.446  11.310   3.595
90874W        W62403   2.799  10.670   2.372
90875W        W62404   9.474  17.665  10.342
90876W        W62405  42.516  43.990   0.345
90877W        W62406  44.437  31.507   1.329
90878W        W62407  35.923  15.806   1.984
90879W        W62408  39.847  16.193  13.963
90880W        W62409  12.029  11.326   4.066
90881W        W62410  16.539  14.186   0.247
90882W        W62411  20.990  32.644  12.542
90883W        W62412  19.732  16.969  11.047
90884W        W62413  36.431  35.164  13.045
90885W        W62414   7.063   8.899  12.250
90886W        W62415  10.246  19.427  13.341
90887W        W62416  23.517  41.818  12.586
90888W        W62417  32.988  34.073   2.478
90889W        W62418  22.277  32.094  10.646
90890W        W62419   5.783  30.130   2.274
90891W        W62420   1.042  23.699  14.333
90892W        W62421  24.263  35.468   1.227
90893W        W62422   3.710   6.460   4.725
90894W        W62423   6.883  24.985   0.935
90895W        W62424  35.894  34.737   0.734
90896W        W62425  20.440  35.754  14.983
90897W        W62426  14.766  29.760  11.520
90898W        W62427  14.297  16.770   3.669
90899W        W62428  28.883  15.787   0.445
90900W        W62429  44.450   7.956  12.528
90901W        W62430  37.147  23.842  11.218
90902W        W62431  35.137  15.617   0.331
90903W        W62432   4.691  39.452  11.153
90904W        W62433  41.795  13.836   2.779
90905W        W62434  38.928  22.842   4.092
90906W        W62435  27.935   2.794   2.414
90907W        W62436  35.354  36.757   2.643
90908W        W62437  36.487   0.155  11.396
90909W        W62438  12.544  23.455  12.180
90910W        W62439  26.044  16.295   0.808
90911W        W62440  29.867  30.588  13.030
90912W        W62441  28.366  23.734  13.022
90913W        W62442  43.919   3.465  10.254
90914W        W62443  41.866   6.150   3.619
90915W        W62444   2.269  42.005  10.861
90916W        W62445  11.860  30.997   0.771
90917W        W62446  26.725  37.876  10.769
90918W        W62447  14.278  32.894   1.334
90919W        W62448  36.236  42.247  11.726
90920W        W62449   0.826  36.068  10.255
90921W        W62450  41.040  35.182  13.845
90922W        W62451   9.409   8.696  13.791
90923W        W62452  31.661  14.271   1.482
90924W        W62453   8.761   0.703  12.099
90925W        W62454   3.244  34.624   3.117
90926W        W62455  42.276  42.973   1.972
90927W        W62456   7.271  13.014  14.488
90928W        W62457  20.209  31.048  12.842
90929W        W62458  10.910  34.867  14.137
90930W        W62459  16.613  36.167  12.988
90931W        W62460  42.989  40.760  14.343
90932W        W62461  17.999  25.033  12.034
90933W        W62462  27.226  23.407  10.791
90934W        W62463  20.038  16.725  10.708
90935W        W62464  38.062  15.266  12.830
90936W        W62465  41.533  34.973  13.023
90937W        W62466  44.216  39.914  10.713
90938W        W62467  12.749   1.774   2.727
90939W        W62468  25.491  16.756   0.316
90940W        W62469  42.228  43.016   1.454
90941W        W62470  13.644  43.015  11.184
90942W        W62471  18.038   8.901   1.268
90943W        W62472  16.265  24.602  10.752
90944W        W62473   1.653  24.688   4.168
90945W        W62474  35.453   4.303   1.164
90946W        W62475  13.114  25.298   1.421
90947W        W62476  17.791  18.902  12.353
90948W        W62477  11.758  15.918  12.510
90949W        W62478  32.438  43.738  10.535
90950W        W62479  39.630  40.007   4.597
90951W        W62480  17.578  32.450   1.653
90952W        W62481  16.234   8.780  11.134
90953W        W62482  37.025  15.232  11.111
90954W        W62483  27.035   4.668   3.864
90955W        W62484  32.666  35.574   3.810
90956W        W62485  34.077  42.880   0.820
90957W        W62486  16.968  17.247  12.482
90958W        W62487  11.930  13.292  10.749
90959W        W62488  15.631  15.196   4.104
90960W        W62489  35.321  15.084  12.532
90961W        W62490  37.369  25.696  13.626
90962W        W62491  14.281  33.939  10.996
90963W        W62492  34.157  43.522  13.755
90964W        W62493  37.059   4.783  12.975
90965W        W62494  32.371   4.317  12.535
90966W        W62495  42.734  41.587   3.071
90967W        W62496  13.537  43.799   3.793
90968W        W62497  32.295  19.757  14.169
90969W        W62498  12.082  44.244  10.072
90970W        W62499   5.401   2.696   1.354
90971W        W62500  13.227  30.658   3.438
90972W        W62501   5.025  11.194   3.187
90973W        W62502   2.655  12.428   2.672
90974W        W62503  27.782  32.620   4.969
90975W        W62504  19.142  15.549   3.657
90976W        W62505  29.801  25.209  12.023
90977W        W62506   9.596  16.895  13.886
90978W        W62507  42.474  14.690   3.749
90979W        W62508  15.110   6.760   1.118
90980W        W62509  24.623  13.249   0.796
90981W        W62510  17.302  27.425   3.122
90982W        W62511   7.286  32.504   2.103
90983W        W62512  10.213  26.857   3.791
90984W        W62513  24.184  31.024   2.699
90985W        W62514  43.905  35.401  14.903
90986W        W62515  10.226  21.351   0.182
90987W        W62516   2.799   4.482  13.526
90988W        W62517  14.756  30.618   0.348
90989W        W62518  11.373  27.445   1.281
90990W        W62519  37.487  42.500  12.455
90991W        W62520  16.159  12.864   2.748
90992W        W62521  22.591  33.757   2.813
90993W        W62522   8.187  12.177   4.508
90994W        W62523  22.108  28.665   2.374
90995W        W62524  20.945  43.771  11.138
90996W        W62525   2.100  13.761   0.729
90997W        W62526  29.175   6.073  12.530
90998W        W62527  24.915  29.964   2.114
90999W        W62528  12.994  38.788   4.951
91000W        W62529  11.917  33.818   2.281
91001W        W62530  19.008   6.200  13.491
91002W        W62531  28.492  15.924   1.844
91003W        W62532  38.665  16.786  14.835
91004W        W62533  39.451  34.968  12.217
91005W        W62534  21.083  41.454   3.881
91006W        W62535   1.558  30.150  13.567
91007W        W62536  30.540  28.673   4.345
91008W        W62537  32.971   9.541   4.706
91009W        W62538  15.013  10.664   1.418
91010W        W62539  27.047  25.660   3.770
91011W        W62540   9.844  10.239   4.721
91012W        W62541  22.542  36.528   3.314
91013W        W62542  30.899  13.278   2.777
91014W        W62543  25.351   4.451  14.820
91015W        W62544  11.156   1.979  10.262
91016W        W62545  24.774  11.697   4.928
91017W        W62546  17.656  14.325   2.946
91018W        W62547  17.767  38.982  12.777
91019W        W62548  10.352   8.643  14.205
91020W        W62549  12.579  24.023   4.535
91021W        W62550  27.580  14.978   4.098
91022W        W62551  15.787  19.232  12.864
91023W        W62552   3.445  14.924  11.541
91024W        W62553  10.922   3.623   0.333
91025W        W62554  39.353   1.356   0.535
91026W        W62555  27.918  18.275   0.316
91027W        W62556  28.882   7.939  12.973
91028W        W62557  37.003  29.599   1.776
91029W        W62558  27.588   2.388  13.802
91030W        W62559  19.331   5.779  13.532
91031W        W62560  42.577  15.197  12.067
91032W        W62561  37.023   6.115   2.229
91033W        W62562   0.764   0.964  14.392
91034W        W62563  16.686   2.435  13.144
91035W        W62564  10.784  34.477   2.815
91036W        W62565  41.025   2.984  10.537
91037W        W62566  44.305  12.895  12.002
91038W        W62567  31.100   8.848  14.698
91039W        W62568  13.486  27.254   2.967
91040W        W62569  28.952  27.690  10.419
91041W        W62570   8.806  19.790  11.770
91042W        W62571  35.866   7.195  10.703
91043W        W62572  13.575   7.325   1.191
91044W        W62573   1.492  12.051  10.725
91045W        W62574  25.720  28.159   2.649
91046W        W62575  33.158  11.426  13.032
91047W        W62576   5.875  29.974  13.582
91048W        W62577  31.426  12.277  12.438
91049W        W62578  30.268  35.300   0.361
91050W        W62579  20.570  28.106  12.134
91051W        W62580   6.714  16.615   1.944
91052W        W62581  43.564   7.630   3.600
91053W        W62582  15.412   3.440  14.537
91054W        W62583  14.598   8.723  13.097
91055W        W62584  24.988  21.648   4.581
91056W        W62585  25.164  35.116   2.277
91057W        W62586  33.447  27.544   4.473
91058W        W62587  11.446  10.189   4.643
91059W        W62588  14.676   1.483  13.955
91060W        W62589  35.066  33.833  14.449
91061W        W62590   0.351   4.360  14.976
91062W        W62591  37.432  32.129   1.183
91063W        W62592  25.616  19.126  10.931
91064W        W62593  37.438  20.653   4.723
91065W        W62594   4.724  44.485  11.707
91066W        W62595  44.272  10.901  12.579
91067W        W62596   1.415   8.219  11.157
91068W        W62597  35.208  31.406   3.671
91069W        W62598  37.348  44.472   0.691
91070W        W62599  44.200  10.719  11.123
91071W        W62600  43.405  39.631   2.562
91072W        W62601  26.497  34.929  14.989
91073W        W62602  34.274  35.066  12.935
91074W        W62603   0.222   1.436   1.358
91075W        W62604   7.867  25.148  14.896
91076W        W62605  13.346  13.554  12.806
91077W        W62606  35.002  25.028  10.652
91078W        W62607  22.688  26.179   3.589
91079W        W62608  37.507   0.403   4.146
91080W        W62609   2.639  35.754  11.412
91081W        W62610  42.000   4.356   2.190
91082W        W62611  30.569  44.624   1.363
91083W        W62612  27.279  28.171  13.511
91084W        W62613  37.786   7.651  12.035
91085W        W62614   9.194  34.119   0.435
91086W        W62615  31.576   8.835   2.768
91087W        W62616  36.429  33.481   1.545
91088W        W62617  42.470  23.200   1.802
91089W        W62618  15.711  26.387  11.291
91090W        W62619  43.622   7.089  13.059
91091W        W62620  43.278  10.603   3.393
91092W        W62621   5.396  26.032  13.848
91093W        W62622   8.835  39.964  13.433
91094W        W62623  40.834  18.312  13.791
91095W        W62624  31.400  14.784   3.785
91096W        W62625  39.952  18.246   2.637
91097W        W62626   9.370  38.405   0.758
91098W        W62627   1.532  15.912  10.164
91099W        W62628  29.544   4.560  11.703
91100W        W62629   6.096  41.611   4.112
91101W        W62630  37.088  37.579   4.556
91102W        W62631  27.628  42.946  12.599
91103W        W62632   0.256  27.819  12.577
91104W        W62633  32.513   1.846   0.984
91105W        W62634  37.441  30.019   3.308
91106W        W62635  32.675  15.232   4.483
91107W        W62636   9.913  15.884  11.567
91108W        W62637  29.569  22.389  11.087
91109W        W62638  30.083  14.288   0.781
91110W        W62639  40.113  37.692   1.847
91111W        W62640  44.015  39.595   1.890
91112W        W62641  10.920  21.702   0.824
91113W        W62642   9.552  43.680   0.307
91114W        W62643  13.900  31.794  11.079
91115W        W62644   5.812   7.768  11.192
91116W        W62645  30.204  28.135  12.406
91117W        W62646   1.245  41.018   3.083
91118W        W62647  34.947   4.715  12.009
91119W        W62648  32.533  27.542  11.038
91120W        W62649   2.283  26.691  13.481
91121W        W62650  29.156   1.499   4.820
91122W        W62651  41.556  11.389  11.589
91123W        W62652  18.868  12.167  10.729
91124W        W62653  37.582  12.683   0.366
91125W        W62654  29.590  11.404   3.324
91126W        W62655   5.427  35.413  10.709
91127W        W62656  43.337  40.482   0.370
91128W        W62657  11.841  31.952  12.025
91129W        W62658  31.113  25.997   0.943
91130W        W62659  43.565   0.036  13.928
91131W        W62660   5.918  21.937  12.358
91132W        W62661  34.472  29.447  12.099
91133W        W62662   7.433  19.359   1.516
91134W        W62663  42.062  24.606  11.421
91135W        W62664  39.563  42.560   0.937
91136W        W62665  44.445  29.322   2.838
91137W        W62666  20.186  21.178  14.672
91138W        W62667  12.608  33.888   3.918
91139W        W62668  15.264  17.159   3.341
91140W        W62669  28.014   1.803   2.358
91141W        W62670  23.091  28.530  11.421
91142W        W62671  12.854  34.132   2.150
91143W        W62672  36.957  21.813  12.101
91144W        W62673   2.671   0.330   1.697
91145W        W62674  44.052  42.981  10.012
91146W        W62675  36.159   8.168  14.760
91147W        W62676   4.999  10.993  13.995
91148W        W62677  12.711  17.056   3.560
91149W        W62678   4.779  13.234  14.693
91150W        W62679  31.658  14.748  14.759
91151W        W62680  23.583  34.529   3.384
91152W        W62681  37.823  10.437  11.449
91153W        W62682  11.887   9.367   0.352
91154W        W62683  43.824  38.167  10.932
91155W        W62684  21.364  19.728  14.995
91156W        W62685  19.760   2.707  14.705
91157W        W62686   1.547  28.947  12.981
91158W        W62687  37.541  29.276   2.620
91159W        W62688  19.278   6.409  13.913
91160W        W62689   8.678   7.425   1.336
91161W        W62690   3.281  38.099   3.291
91162W        W62691  44.513  22.042   1.475
91163W        W62692  22.614  26.264   3.077
91164W        W62693  19.720  32.153  10.677
91165W        W62694  35.591  28.398  13.496
91166W        W62695  40.477   2.390  12.488
91167W        W62696  30.953   4.430  12.329
91168W        W62697  42.254  25.679   0.348
91169W        W62698   2.451   4.888  12.763
91170W        W62699  31.016  21.994   4.609
91171W        W62700  14.778  28.211   0.736
91172W        W62701  27.811  15.128   2.699
91173W        W62702  17.322  10.542   4.576
91174W        W62703  36.523  31.194   2.320
91175W        W62704  36.065  29.970  14.002
91176W        W62705  16.914  22.242  13.496
91177W        W62706   3.378   6.815  11.527
91178W        W62707  37.024  20.856  13.833
91179W        W62708  24.148  11.382  12.485
91180W        W62709  37.513   3.787  11.906
91181W        W62710  44.285  25.634   1.409
91182W        W62711  28.516   7.744  11.063
91183W        W62712  10.353  15.684   1.376
91184W        W62713   2.911   4.017  14.420
91185W        W62714  23.486  24.508   3.349
91186W        W62715  34.362  27.203  14.429
91187W        W62716  42.554  36.129  10.930
91188W        W62717   2.767  38.656   3.731
91189W        W62718  16.015  27.946   3.996
91190W        W62719  31.358  20.107  14.364
91191W        W62720  42.401   8.182  10.686
91192W        W62721  13.289  36.922  14.728
91193W        W62722  26.567  25.789   4.529
91194W        W62723  16.053  42.836  14.803
91195W        W62724  19.895  33.178  12.911
91196W        W62725  41.762  24.502   3.065
91197W        W62726  39.446  23.449   2.780
91198W        W62727  19.655  28.864   0.837
91199W        W62728  38.631   1.831   1.032
91200W        W62729  29.701  15.293  14.051
91201W        W62730   4.193  41.131   1.333
91202W        W62731  20.938  39.222   1.484
91203W        W62732  37.495  20.635  13.913
91204W        W62733  38.948   6.235  11.171
91205W        W62734  40.051  33.706   2.895
91206W        W62735  10.189  30.038  12.004
91207W        W62736  42.767  25.181  11.419
91208W        W62737   3.125  36.860   3.862
91209W        W62738   4.040  31.667  14.074
91210W        W62739  22.564  41.074   4.938
91211W        W62740  14.108  34.608  12.819
91212W        W62741  18.590   5.602   4.520
91213W        W62742   3.850   4.225   1.308
91214W        W62743   9.816  42.561   1.235
91215W        W62744  17.689  43.488   3.384
91216W        W62745  31.081  37.120   1.196
91217W        W62746   7.107  22.728   4.415
91218W        W62747   1.865  32.370  11.620
91219W        W62748  12.058  14.784  12.912
91220W        W62749  43.218  25.610   4.227
91221W        W62750   3.756  38.891   2.504
91222W        W62751   7.015   8.775   0.159
91223W        W62752  40.579  38.249  12.677
91224W        W62753  32.661  44.334   3.231
91225W        W62754  32.156   3.408  13.831
91226W        W62755   5.611  22.206   2.689
91227W        W62756  39.888  17.996   3.105
91228W        W62757  27.938  17.049  12.208
91229W        W62758  12.916  28.486   4.804
91230W        W62759  25.095  30.722   3.247
91231W        W62760   1.916   4.913  12.866
91232W        W62761  10.250  11.208  12.417
91233W        W62762  27.594   0.524   2.248
91234W        W62763  19.179   4.608  14.743
91235W        W62764   9.293  23.068  13.534
91236W        W62765  24.060  16.516   3.228
91237W        W62766  40.560  34.192   1.632
91238W        W62767  22.224  24.905   1.223
91239W        W62768  31.242  19.959   3.801
91240W        W62769   0.371   1.300   4.392
91241W        W62770  40.251  41.302   1.727
91242W        W62771   0.679  19.567   4.633
91243W        W62772  31.987  10.408  10.364
91244W        W62773  38.031  13.342   4.182
91245W        W62774  22.070   2.174   2.235
91246W        W62775  17.367  14.573  13.533
91247W        W62776  40.324  21.958   4.656
91248W        W62777  13.184  17.852  11.176
91249W        W62778  28.119  23.980   2.610
91250W        W62779  19.729   6.925  11.644
91251W        W62780  23.734  36.860  11.688
91252W        W62781  39.602  20.126  14.268
91253W        W62782   8.642  24.950  14.511
91254W        W62783  14.610   3.623   1.757
91255W        W62784   0.498   8.268   1.817
91256W        W62785  31.210   7.958  12.285
91257W        W62786   1.139  38.905  12.303
91258W        W62787  25.161   0.223  13.746
91259W        W62788  43.433   3.455   3.231
91260W        W62789  26.686   8.357   0.487
91261W        W62790  26.948  13.783  13.755
91262W        W62791   4.107   7.755  13.255
91263W        W62792   6.572  43.835   1.115
91264W        W62793   5.183   1.348   4.390
91265W        W62794  15.786  23.975   3.175
91266W        W62795  15.796  36.637  11.008
91267W        W62796  42.805  22.900  13.968
91268W        W62797  18.379  31.029   9.687
91269W        W62798  11.552  19.704  14.405
91270W        W62799  19.784  26.025  14.314
91271W        W62800  32.057  28.693  13.353
91272W        W62801  28.255  13.099   4.617
91273W        W62802  35.359  27.787   0.048
91274W        W62803  26.597  31.366  14.562
91275W        W62804  44.449  27.142  14.464
91276W        W62805  11.943  14.650   1.308
91277W        W62806  34.601  25.194  14.241
91278W        W62807  34.047  25.956  11.157
91279W        W62808  39.363  42.993   1.843
91280W        W62809  37.376  30.616  14.957
91281W        W62810  39.313  17.715   1.352
91282W        W62811   0.279  30.690   4.494
91283W        W62812  32.668  36.482   3.660
91284W        W62813  27.238  31.008   2.775
91285W        W62814  24.390   2.720   4.788
91286W        W62815  34.708  21.174  12.692
91287W        W62816  19.741   3.807  13.121
91288W        W62817  38.455  24.725   1.720
91289W        W62818  18.432   6.770  11.073
91290W        W62819  37.069  18.352   1.741
91291W        W62820   5.343  20.925  12.504
91292W        W62821  27.941  31.910  11.566
91293W        W62822  12.779   6.267  12.835
91294W        W62823  18.386  32.069  14.998
91295W        W62824  12.423   9.790   2.386
91296W        W62825  37.123  24.976  11.971
91297W        W62826  11.060   3.257  13.615
91298W        W62827  22.189  15.762   2.735
91299W        W62828  42.689  20.898   1.752
91300W        W62829  44.562  32.086  14.851
91301W        W62830   5.295  35.397   0.298
91302W        W62831  38.824  21.123   3.424
91303W        W62832  39.304   1.709   0.085
91304W        W62833  26.570  15.541   2.727
91305W        W62834  32.457  20.402   3.878
91306W        W62835  41.511   3.674   5.032
91307W        W62836   7.548  16.651   0.930
91308W        W62837  39.880   2.197   4.562
91309W        W62838  41.475  27.039   2.214
91310W        W62839  10.007   4.211  11.723
91311W        W62840  13.068   7.838   2.210
91312W        W62841  16.702  22.003   1.186
91313W        W62842  21.682  23.311  14.966
91314W        W62843  35.886   0.711  13.902
91315W        W62844   3.788  15.298  11.793
91316W        W62845  32.474  19.332  13.339
91317W        W62846  42.093   0.306  10.435
91318W        W62847   7.769  27.563  13.528
91319W        W62848  32.863  11.675  13.466
91320W        W62849  34.150  10.265   4.247
91321W        W62850   6.596  25.073   2.248
91322W        W62851  34.114   3.343   2.708
91323W        W62852  36.609  23.839  14.945
91324W        W62853  43.507  43.634   0.409
91325W        W62854  37.567  38.401  11.265
91326W        W62855  38.164  42.894   5.097
91327W        W62856   7.264  30.166  14.468
91328W        W62857  24.972   3.058  11.950
91329W        W62858  24.869  24.074   1.660
91330W        W62859  13.107  29.035  13.857
91331W        W62860  22.593   8.413   0.359
91332W        W62861  18.535  10.749  11.233
91333W        W62862  19.152  26.583  12.904
91334W        W62863  28.143  41.005  11.492
91335W        W62864   1.501   4.898   1.417
91336W        W62865  21.833   0.044   4.386
91337W        W62866  12.609  27.112  12.096
91338W        W62867  10.199  15.531  14.582
91339W        W62868  28.558  23.087  14.868
91340W        W62869  37.912   4.404   0.948
91341W        W62870   2.183   0.680  12.016
91342W        W62871   0.639   0.463  12.288
91343W        W62872  41.372  26.092   2.227
91344W        W62873   9.778  33.073   0.121
91345W        W62874   5.107  12.763   4.612
91346W        W62875   1.443  16.701   0.032
91347W        W62876  26.410  18.215   3.646
91348W        W62877   3.621  35.590  13.890
91349W        W62878   2.393  20.864  11.686
91350W        W62879  37.009  30.605   2.781
91351W        W62880  20.529  33.889   1.951
91352W        W62881  37.647  44.626   4.124
91353W        W62882  34.140   7.149   3.276
91354W        W62883  26.491   8.649  13.351
91355W        W62884  18.686   7.554   4.065
91356W        W62885  10.672  44.488   0.841
91357W        W62886  38.588  15.208  10.985
91358W        W62887   0.959  28.158  12.930
91359W        W62888  34.942   9.553   2.949
91360W        W62889  34.952  43.486  14.768
91361W        W62890   4.979  44.757  14.540
91362W        W62891  30.070  36.393   4.097
91363W        W62892  44.727  26.650  13.410
91364W        W62893   5.733  26.151  11.311
91365W        W62894   2.517  37.895  13.964
91366W        W62895  12.128  28.935  11.998
91367W        W62896   6.005   0.350  12.892
91368W        W62897  38.088   2.465  11.523
91369W        W62898  16.343  18.222   4.584
91370W        W62899   5.285  15.682   2.703
91371W        W62900  16.754  36.179   0.278
91372W        W62901  10.767  29.631   3.790
91373W        W62902  20.131  31.080   1.461
91374W        W62903  22.692  15.772   2.169
91375W        W62904  11.227  36.022  10.910
91376W        W62905   1.617   2.718  11.740
91377W        W62906  30.577  32.768  13.495
91378W        W62907   3.833  42.469   1.752
91379W        W62908  32.457  10.137   3.266
91380W        W62909  44.021  37.875  10.554
91381W        W62910  36.877   1.298  14.333
91382W        W62911  15.352  28.977   3.737
91383W        W62912   1.965  31.835  11.573
91384W        W62913  18.129  16.701   1.874
91385W        W62914   2.685   0.299   2.643
91386W        W62915  33.911  21.641  11.544
91387W        W62916  19.811  30.909   4.750
91388W        W62917  35.799  14.169  13.326
91389W        W62918   4.426   1.131  12.027
91390W        W62919  27.871  13.752   3.307
91391W        W62920   8.715   4.200  14.726
91392W        W62921  39.807  39.521  12.961
91393W        W62922  18.148  33.034   4.403
91394W        W62923  23.746   1.217   4.195
91395W        W62924  34.871  25.955  10.453
91396W        W62925  19.157  15.629  12.576
91397W        W62926  42.101   8.146  14.941
91398W        W62927  42.916   6.096   2.735
91399W        W62928   2.188   3.699  12.450
91400W        W62929   4.276  41.666  11.502
91401W        W62930  35.111  35.511   0.396
91402W        W62931  32.844  33.893   1.770
91403W        W62932  27.987  43.912  13.500
91404W        W62933   1.958  28.135   1.117
91405W        W62934  16.884  24.169  11.552
91406W        W62935  15.709   2.334  13.322
91407W        W62936  24.510  13.724  10.708
91408W        W62937  17.481  13.173   3.298
91409W        W62938  29.436  14.318   1.171
91410W        W62939  14.521  29.001   4.235
91411W        W62940   5.326  30.386  12.131
91412W        W62941   6.359  10.159   0.727
91413W        W62942  41.407   0.253   0.762
91414W        W62943  19.271  15.137  14.980
91415W        W62944  12.233  38.050   2.782
91416W        W62945  38.697  10.264  11.118
91417W        W62946  12.803   6.734   1.936
91418W        W62947  27.568  14.264   1.306
91419W        W62948   8.463  37.375   1.993
91420W        W62949  40.181  16.183   2.323
91421W        W62950  35.501  34.952   2.350
91422W        W62951  36.168   9.743  10.728
91423W        W62952  22.017   8.392  10.374
91424W        W62953  18.546  38.396   3.668
91425W        W62954  32.431  27.140  11.939
91426W        W62955   7.309  18.727  14.312
91427W        W62956   1.004  41.585   2.812
91428W        W62957  27.121  44.934   3.117
91429W        W62958  12.687  43.915  10.236
91430W        W62959  38.408   8.213   0.832
91431W        W62960  42.426  18.331  13.539
91432W        W62961  31.096   1.160  12.558
91433W        W62962  37.336  44.853   0.075
91434W        W62963  29.435   2.227  14.530
91435W        W62964  38.849  20.134  14.869
91436W        W62965  23.466  18.722  13.995
91437W        W62966  11.892   1.707   5.152
91438W        W62967  13.172  12.456  11.185
91439W        W62968   1.948  39.989   3.583
91440W        W62969  14.327   9.902   0.496
91441W        W62970  29.157   7.001  12.818
91442W        W62971   8.400  34.058   2.823
91443W        W62972   7.671  44.719  12.394
91444W        W62973  38.040   1.510  14.929
91445W        W62974   1.831  16.859  12.108
91446W        W62975   2.729  21.048   2.948
91447W        W62976  19.225  38.649   4.887
91448W        W62977  41.032   7.921  12.499
91449W        W62978  28.250  26.012   4.621
91450W        W62979  16.888  28.665  12.527
91451W        W62980   7.405  27.415  11.466
91452W        W62981  35.495  33.039  14.419
91453W        W62982   4.153  20.187  10.748
91454W        W62983  13.888  10.204  11.494
91455W        W62984  10.414  16.014  12.019
91456W        W62985  31.801  19.626   4.164
91457W        W62986  17.825   4.243  10.772
91458W        W62987  15.511  23.057  13.413
91459W        W62988  17.973   7.745  13.994
91460W        W62989  10.611  18.890   4.580
91461W        W62990   7.181  37.533  10.729
91462W        W62991  15.741  35.823   2.291
91463W        W62992  29.927  11.350  13.441
91464W        W62993  14.406  17.818   1.455
91465W        W62994  16.073   2.833  10.999
91466W        W62995   6.774  30.576  11.061
91467W        W62996  14.668  20.267   4.996
91468W        W62997   6.854  23.504  14.985
91469W        W62998  12.172  29.112   1.791
91470W        W62999  40.758  38.125   3.064
91471W        W63000  23.171  31.955  11.706
91472W        W63001   5.752   9.852  12.551
91473W        W63002   9.472  31.501  10.635
91474W        W63003  18.617  40.716  13.094
91475W        W63004  39.626  37.613   4.585
91476W        W63005  20.079   2.932   2.889
91477W        W63006  34.332   8.647   1.443
91478W        W63007  15.731  21.966   0.334
91479W        W63008  44.085  38.843   3.067
91480W        W63009  28.242  22.293   3.206
91481W        W63010  39.825   1.762   2.330
91482W        W63011  29.202  38.551  14.767
91483W        W63012   4.910  15.145   1.695
91484W        W63013  39.750  12.112  13.545
91485W        W63014   7.438  17.227  10.290
91486W        W63015  22.377  31.129  12.066
91487W        W63016  40.335   1.918   4.780
91488W        W63017  36.468  24.952   4.165
91489W        W63018   8.814  44.388   0.077
91490W        W63019  21.633  28.748   2.201
91491W        W63020  33.231  20.692  13.518
91492W        W63021  29.742  30.462   0.608
91493W        W63022  41.448  25.707  14.807
91494W        W63023  27.836  15.449  10.205
91495W        W63024  42.423  20.499   4.739
91496W        W63025  11.906  34.358   4.197
91497W        W63026  33.539  26.920  13.507
91498W        W63027   8.180  30.534   1.337
91499W        W63028   4.680   1.785   4.079
91500W        W63029  42.772  14.569  11.604
91501W        W63030  38.982  40.300  11.148
91502W        W63031  19.759  24.053   4.101
91503W        W63032  36.190  10.592  11.164
91504W        W63033   2.476  18.480   0.637
91505W        W63034  16.251  29.419   5.616
91506W        W63035  20.700  18.035  11.980
91507W        W63036  40.472  43.750  14.953
91508W        W63037  41.859   5.165   2.757
91509W        W63038  38.379   0.520  13.335
91510W        W63039  26.871  35.860   3.951
91511W        W63040  25.165  34.869   0.443
91512W        W63041  10.940  39.831   2.330
91513W        W63042  10.902   9.679   1.482
91514W        W63043  28.975  10.753   3.147
91515W        W63044   6.850  27.591   1.571
91516W        W63045  25.498   3.305   1.895
91517W        W63046  39.244  15.627  12.428
91518W        W63047  10.685   7.240   2.891
91519W        W63048   9.711  17.409  13.934
91520W        W63049  29.577  43.317  13.476
91521W        W63050  32.101   4.833  14.452
91522W        W63051  12.535  35.694  13.898
91523W        W63052  25.511  33.317   3.652
91524W        W63053  24.487  10.965  13.783
91525W        W63054  30.524  42.871   1.870
91526W        W63055  22.256  16.081  12.027
91527W        W63056  27.405   3.790   2.494
91528W        W63057  31.812   7.887  10.993
91529W        W63058  38.417  29.710  13.961
91530W        W63059  28.088   9.866   0.934
91531W        W63060  15.295  23.579   0.899
91532W        W63061  24.093  41.924   2.447
91533W        W63062  11.158  16.529  12.876
91534W        W63063  37.448  38.977   2.393
91535W        W63064  36.864  22.240  13.950
91536W        W63065  22.235   8.355  13.309
91537W        W63066  30.694  33.565   1.800
91538W        W63067  33.913  26.709   2.497
91539W        W63068  21.764   7.897  13.956
91540W        W63069  44.191  22.181   4.789
91541W        W63070  38.139  20.571   0.934
91542W        W63071  25.987   0.781  11.078
91543W        W63072  43.342  32.361   3.270
91544W        W63073  17.273   1.327  11.735
91545W        W63074   8.197   2.161   3.079
91546W        W63075   3.072  35.172   2.693
91547W        W63076  19.064  25.526  12.167
91548W        W63077  35.069   9.270  10.440
91549W        W63078  10.294  42.628  11.978
91550W        W63079  17.486  17.047  12.454
91551W        W63080  31.020  36.418   0.552
91552W        W63081  24.642   7.313   4.259
91553W        W63082   0.326  31.243  13.537
91554W        W63083   2.459  31.902  12.621
91555W        W63084  36.080  35.519  13.239
91556W        W63085  11.154   2.918  14.402
91557W        W63086  44.470  11.331  10.995
91558W        W63087  19.988  41.597   0.467
91559W        W63088  11.687  36.039  14.290
91560W        W63089  22.312   1.355   4.042
91561W        W63090  28.675  35.068  10.491
91562W        W63091   4.257  24.477   1.475
91563W        W63092   3.821   9.085  11.502
91564W        W63093  17.761   8.392  10.307
91565W        W63094  19.458   5.087   1.926
91566W        W63095  12.120  35.352   0.797
91567W        W63096  11.452  18.163  12.157
91568W        W63097   8.368  22.499   4.115
91569W        W63098   9.432  39.410   4.243
91570W        W63099   6.673  32.917   2.399
91571W        W63100  14.810   1.409  11.225
91572W        W63101  12.910  24.429  11.931
91573W        W63102  37.347  21.296  11.622
91574W        W63103  15.644  23.601  11.146
91575W        W63104  37.527  32.643   4.482
91576W        W63105  44.737  26.073  13.887
91577W        W63106  28.458  38.279   4.830
91578W        W63107  31.156  44.938   0.362
91579W        W63108  36.772  42.285   4.971
91580W        W63109  42.013  11.033   0.819
91581W        W63110  31.638  41.994  13.330
91582W        W63111  16.603  38.964   0.725
91583W        W63112   1.043  14.617   2.051
91584W        W63113   5.707  41.883   2.294
91585W        W63114  14.797  30.528   2.193
91586W        W63115   2.861   4.321   4.520
91587W        W63116  22.156  40.552   0.556
91588W        W63117  18.397   1.789   0.614
91589W        W63118  31.593  34.373  11.281
91590W        W63119  15.164  37.471  13.899
91591W        W63120  38.564   1.216   2.103
91592W        W63121   6.317  37.493   3.125
91593W        W63122   7.908  24.891   4.542
91594W        W63123   3.743  10.232   0.296
91595W        W63124  44.283  27.659   4.825
91596W        W63125   7.057  22.655  13.923
91597W        W63126   5.693   5.410   0.500
91598W        W63127  18.738  11.960  11.954
91599W        W63128   3.873   9.769  11.515
91600W        W63129   0.018   0.451  12.439
91601W        W63130   3.240  16.170   3.727
91602W        W63131  32.428  39.591  13.406
91603W        W63132  43.242  21.164   3.659
91604W        W63133   4.697  29.593   0.386
91605W        W63134  19.732  30.087   4.139
91606W        W63135   3.203   4.697  11.631
91607W        W63136   0.961   0.215  13.094
91608W        W63137   8.895  28.863  14.602
91609W        W63138   1.190  15.174  13.974
91610W        W63139  20.112  19.243  11.019
91611W        W63140  14.031  33.020  11.427
91612W        W63141  43.215  27.894  13.877
91613W        W63142   6.013   5.375   1.346
91614W        W63143  14.295   0.033  11.387
91615W        W63144  31.670   5.865   1.820
91616W        W63145  14.072  42.881   3.260
91617W        W63146  41.925   3.832   4.594
91618W        W63147  44.378  39.797   0.707
91619W        W63148  20.139  44.849  12.964
91620W        W63149  13.463  31.494   0.023
91621W        W63150   4.989  23.977   1.348
91622W        W63151  24.544  33.505  13.406
91623W        W63152  13.186  44.817  12.852
91624W        W63153  28.884  10.219   1.721
91625W        W63154   2.891  31.535   0.724
91626W        W63155  31.586  20.189  12.867
91627W        W63156  11.599   4.640  10.776
91628W        W63157  35.535  26.559  10.602
91629W        W63158  18.298  13.166  12.954
91630W        W63159   6.355  19.989   2.718
91631W        W63160  28.605  35.873  14.747
91632W        W63161  43.711  41.156  13.880
91633W        W63162  33.083  14.782  13.885
91634W        W63163   3.743  24.107   0.180
91635W        W63164  12.702   7.819   2.645
91636W        W63165  22.778  10.192   3.756
91637W        W63166  35.524  30.290   3.139
91638W        W63167   3.886  27.006   3.902
91639W        W63168  24.986  31.351  11.587
91640W        W63169  13.737  20.780   1.763
91641W        W63170  41.493  32.609   2.381
91642W        W63171  39.423   9.562  12.966
91643W        W63172  27.967  28.517   1.185
91644W        W63173  31.410  36.010  12.452
91645W        W63174  38.277  39.842  12.577
91646W        W63175  15.130  43.723  12.205
91647W        W63176  27.377  42.699   2.640
91648W        W63177  38.861   7.726   0.231
91649W        W63178   5.259  21.022  14.363
91650W        W63179  14.155  41.386   2.204
91651W        W63180  29.477   0.348  12.095
91652W        W63181  34.157   8.442   0.958
91653W        W63182  17.938  10.057  11.255
91654W        W63183  23.950  12.308   3.682
91655W        W63184  41.966  37.840   0.232
91656W        W63185  11.312  42.855  14.831
91657W        W63186  43.845  40.501   1.700
91658W        W63187   7.372  13.166   3.677
91659W        W63188  34.420   6.398  12.069
91660W        W63189  28.611   7.792  11.894
91661W        W63190  10.919  22.348   4.250
91662W        W63191  11.123  25.041  14.475
91663W        W63192  31.748  37.837   0.875
91664W        W63193   1.669  11.055  14.608
91665W        W63194  19.710  17.030  13.406
91666W        W63195  11.819  40.373  14.523
91667W        W63196  37.475  39.870   3.821
91668W        W63197  15.876  44.775   5.071
91669W        W63198  21.631  11.606  11.042
91670W        W63199  17.699  43.458   4.923
91671W        W63200  27.994   8.351  13.395
91672W        W63201  24.754  28.966   3.770
91673W        W63202  37.001   1.543  12.960
91674W        W63203  17.051  11.946   5.200
91675W        W63204   9.483   6.177   0.394
91676W        W63205  18.967  25.225  10.545
91677W        W63206  23.569  26.198  12.995
91678W        W63207   8.098  37.074  13.352
91679W        W63208   0.607  30.964  13.209
91680W        W63209  42.019  44.022  14.499
91681W        W63210   1.651  36.997   1.848
91682W        W63211  27.166  33.907  12.589
91683W        W63212  20.272   8.224  11.742
91684W        W63213  31.973   2.877  11.606
91685W        W63214   9.735  31.419   4.179
91686W        W63215  21.910  33.092  12.435
91687W        W63216  38.444  25.282   0.391
91688W        W63217   3.221  31.051   1.834
91689W        W63218  35.470  12.591   2.439
91690W        W63219   2.046  12.796  14.435
91691W        W63220  31.061  18.555  13.972
91692W        W63221  44.092  19.547  11.623
91693W        W63222   1.178  32.005  10.912
91694W        W63223  14.313  19.060  12.370
91695W        W63224  23.723   8.058   3.698
91696W        W63225  14.148  42.750   0.087
91697W        W63226   1.551  19.034  12.113
91698W        W63227  36.372  27.074   4.676
91699W        W63228  33.418  36.497  14.464
91700W        W63229  41.784  11.720  13.076
91701W        W63230  13.393  41.642   2.658
91702W        W63231  13.902  20.989   1.323
91703W        W63232  37.951  12.203   4.773
91704W        W63233  33.828  13.832  14.506
91705W        W63234  32.048  32.865   3.627
91706W        W63235   3.987  30.448   3.691
91707W        W63236  38.405  30.360   3.316
91708W        W63237  37.395  40.918   1.346
91709W        W63238  23.195  34.608   4.257
91710W        W63239   4.224  31.207   3.314
91711W        W63240   5.264  35.565  12.167
91712W        W63241  16.543   8.007  11.596
91713W        W63242  40.770  29.441  13.914
91714W        W63243  20.316  41.987   3.823
91715W        W63244  31.863  21.855  13.314
91716W        W63245  17.695  21.710  10.035
91717W        W63246  31.403  36.427   1.613
91718W        W63247  22.598  44.999  14.118
91719W        W63248  21.313   3.010  13.538
91720W        W63249   0.992  16.855  13.043
91721W        W63250  31.399  38.926  14.355
91722W        W63251  15.611  18.755  13.011
91723W        W63252  34.144   3.892   1.434
91724W        W63253  25.860   0.062   2.287
91725W        W63254  44.744  26.146  11.601
91726W        W63255  11.558  41.777  12.149
91727W        W63256  24.236  17.099   2.636
91728W        W63257  36.661   3.810  12.942
91729W        W63258   4.237  14.273  11.364
91730W        W63259  21.499  30.055   2.871
91731W        W63260  17.173  33.897  11.532
91732W        W63261  25.040  16.782  10.960
91733W        W63262  19.992  28.418  12.479
91734W        W63263  24.273  32.980   2.677
91735W        W63264  34.071  13.385   0.876
91736W        W63265   8.476  40.508   1.832
91737W        W63266  26.113  17.284   2.054
91738W        W63267  31.989  36.276   0.310
91739W        W63268  21.248   6.329  12.525
91740W        W63269  10.245  25.954  14.842
91741W        W63270  34.407  18.173  11.100
91742W        W63271  38.942  43.800  13.787
91743W        W63272  32.627  22.646  10.262
91744W        W63273  34.958  35.896  11.472
91745W        W63274  38.484  39.608   0.307
91746W        W63275  34.285   0.246   1.846
91747W        W63276  25.261  34.236   1.442
91748W        W63277  12.158  11.222  10.936
91749W        W63278  24.943   9.696  13.490
91750W        W63279  29.786   3.134   2.329
91751W        W63280  14.169  29.481   2.311
91752W        W63281  13.225  40.889   0.392
91753W        W63282  42.443  23.234  13.589
91754W        W63283  33.634  41.820   3.761
91755W        W63284  22.443   2.381   1.928
91756W        W63285  42.720  33.215   4.225
91757W        W63286   4.738  23.477  13.301
91758W        W63287  21.989  25.444  12.454
91759W        W63288  32.516  15.326  14.878
91760W        W63289  12.701  27.079   4.559
91761W        W63290  10.638  41.831   3.132
91762W        W63291   4.258  28.399  12.530
91763W        W63292  44.148  15.311   1.465
91764W        W63293  36.016  38.607  14.465
91765W        W63294   3.516  38.243  13.451
91766W        W63295  37.886  32.138   3.362
91767W        W63296  40.989  11.277   3.126
91768W        W63297  37.972   0.238  14.438
91769W        W63298  39.911  41.381   2.821
91770W        W63299  32.188  30.321   1.341
91771W        W63300  30.250  16.341   4.107
91772W        W63301  32.277  34.147   0.496
91773W        W63302  12.026  10.719  13.529
91774W        W63303  22.827   5.920   0.939
91775W        W63304  42.835  30.937  12.101
91776W        W63305  21.205  17.995  12.895
91777W        W63306   4.872  36.929  14.162
91778W        W63307  37.180  29.944   2.233
91779W        W63308  36.813  35.924   4.459
91780W        W63309  32.135  41.848  12.114
91781W        W63310  11.530  20.821   2.460
91782W        W63311  23.782   9.726  12.006
91783W        W63312  23.254  11.290  14.914
91784W        W63313  27.249  14.403   5.035
91785W        W63314  42.107  28.804  14.634
91786W        W63315  20.076  34.045  13.802
91787W        W63316  20.356  34.865  14.951
91788W        W63317  19.413  31.954   5.208
91789W        W63318  12.205   8.439  11.210
91790W        W63319  11.094  19.134  12.061
91791W        W63320  13.136  34.842   2.405
91792W        W63321   0.545   5.257   0.288
91793W        W63322  14.830   5.387   0.464
91794W        W63323  24.644  43.486   0.799
91795W        W63324  40.399  32.990   0.600
91796W        W63325  30.629   0.032  13.080
91797W        W63326  43.255  39.070  10.926
91798W        W63327  17.725  33.957  12.405
91799W        W63328  20.050  17.320  12.618
91800W        W63329  33.075  43.696   2.850
91801W        W63330  20.289  38.630   4.492
91802W        W63331  10.691  17.900  13.011
91803W        W63332  24.774  19.803   1.449
91804W        W63333   6.441  11.759   1.831
91805W        W63334   9.227  44.703   1.203
91806W        W63335   3.896  10.577   3.253
91807W        W63336  32.180  38.402   4.697
91808W        W63337  10.988   4.751   2.407
91809W        W63338  43.995  27.802  10.192
91810W        W63339   8.845  30.433  14.876
91811W        W63340  38.414  33.368   1.285
91812W        W63341  30.395  22.429  12.148
91813W        W63342  30.504   2.837   0.193
91814W        W63343  44.764   6.843   0.516
91815W        W63344  29.996  36.329  14.875
91816W        W63345  32.102  12.372   1.853
91817W        W63346  15.117   0.837  13.910
91818W        W63347   1.852  32.668   2.818
91819W        W63348  40.358  28.848  10.643
91820W        W63349  21.429  40.285  12.493
91821W        W63350  42.247  41.351  14.050
91822W        W63351  38.858  11.264  14.255
91823W        W63352  36.328   9.648   3.209
91824W        W63353  41.842  26.127   1.260
91825W        W63354  44.535  42.554   2.646
91826W        W63355  35.761  26.005   4.383
91827W        W63356  12.822  39.122  11.431
91828W        W63357  34.071   0.795  10.397
91829W        W63358  40.123  34.519   4.067
91830W        W63359  10.410  21.333   3.135
91831W        W63360   8.770  23.775  10.295
91832W        W63361  32.636  18.806   0.814
91833W        W63362  27.954  25.616   4.765
91834W        W63363  10.234  12.297   2.402
91835W        W63364  35.577  27.532   4.613
91836W        W63365  17.005  24.248   4.102
91837W        W63366  27.064  11.186   3.890
91838W        W63367   4.453  19.768   0.734
91839W        W63368   3.993   3.305   3.743
91840W        W63369  18.341  40.852   4.585
91841W        W63370   2.408  27.975   2.646
91842W        W63371  41.533  28.151   2.727
91843W        W63372  38.752  38.083   0.889
91844W        W63373  16.710  31.135   0.083
91845W        W63374  39.106  31.858   4.623
91846W        W63375  38.493  14.507  12.552
91847W        W63376  15.846  43.506  11.114
91848W        W63377  24.533  25.579   0.231
91849W        W63378  16.585  29.987  13.552
91850W        W63379  33.990  35.326   1.847
91851W        W63380  30.606  33.921  11.083
91852W        W63381  29.130  24.066   4.140
91853W        W63382   9.103  32.045   3.658
91854W        W63383  25.908  24.736  10.570
91855W        W63384  22.958  19.438   2.750
91856W        W63385  15.957  41.685   4.238
91857W        W63386   7.624  43.881   1.841
91858W        W63387   6.380   3.173   1.351
91859W        W63388  12.834  36.437  11.667
91860W        W63389  30.664   3.444   1.909
91861W        W63390  33.950  12.832   1.921
91862W        W63391   1.503  12.767  12.172
91863W        W63392   1.923  19.605   1.405
91864W        W63393  24.662  29.752  12.800
91865W        W63394  43.021   3.294   1.449
91866W        W63395  44.507  35.488  10.754
91867W        W63396  14.607  11.941   3.274
91868W        W63397  14.425  38.992  14.287
91869W        W63398  12.110  24.292   4.528
91870W        W63399   7.701   4.727   1.559
91871W        W63400  41.333  38.364  13.506
91872W        W63401   3.777  15.822  14.445
91873W        W63402  33.888  22.140   1.468
91874W        W63403   5.646   4.300  12.953
91875W        W63404  26.248  18.504   3.251
91876W        W63405  28.240   3.899  11.602
91877W        W63406  42.101  23.600   0.221
91878W        W63407  21.570  18.994  11.409
91879W        W63408   4.344  34.604   4.792
91880W        W63409  22.096   6.181  12.357
91881W        W63410  17.693  10.849  14.795
91882W        W63411   6.980  27.427   0.888
91883W        W63412   9.435  40.255   3.638
91884W        W63413   0.434  35.063  13.523
91885W        W63414  39.405  31.607  12.940
91886W        W63415  38.449  12.725   3.541
91887W        W63416  34.869  16.402   3.613
91888W        W63417   0.703  18.530   3.768
91889W        W63418  17.135  33.176  12.426
91890W        W63419  24.061  33.085  13.344
91891W        W63420  35.547  25.490   1.881
91892W        W63421  44.777   7.340   4.889
91893W        W63422  33.422  22.441  10.870
91894W        W63423  26.195  39.992   3.431
91895W        W63424  35.821  24.106  11.571
91896W        W63425  24.232  39.022   4.616
91897W        W63426  26.153   8.533  12.964
91898W        W63427  25.984  43.748  13.984
91899W        W63428  39.872  39.767   4.154
91900W        W63429  42.777  26.890  13.771
91901W        W63430   0.257  22.025   3.845
91902W        W63431  43.981  31.826   3.822
91903W        W63432  18.896   4.760  10.092
91904W        W63433  12.210  29.360   1.342
91905W        W63434  41.990  23.919   3.235
91906W        W63435  37.869  20.429  12.025
91907W        W63436  20.700   2.600  13.876
91908W        W63437  41.964  29.136  12.418
91909W        W63438   2.044  27.947  13.672
91910W        W63439  42.851   3.676  13.497
91911W        W63440   3.325  15.590  14.445
91912W        W63441   7.390  13.245   0.460
91913W        W63442  33.916  31.048   2.522
91914W        W63443  39.398   4.017  12.863
91915W        W63444   2.017  14.857  11.928
91916W        W63445   9.373  24.860  11.789
91917W        W63446  43.475  19.115   2.211
91918W        W63447  36.887  14.424   1.364
91919W        W63448   9.494  30.358   3.362
91920W        W63449  27.087  31.644  12.437
91921W        W63450  40.626  24.017   0.854
91922W        W63451  25.177  19.445   1.352
91923W        W63452   6.851  37.957  13.427
91924W        W63453  21.348  19.481  12.530
91925W        W63454  41.328  23.092  14.304
91926W        W63455  22.276  13.550  13.228
91927W        W63456  35.045  12.732  13.116
91928W        W63457  26.856   1.894   3.140
91929W        W63458   3.360  39.003   0.379
91930W        W63459  34.967  37.300  10.622
91931W        W63460  19.567  24.568   4.128
91932W        W63461  22.697  18.361   0.332
91933W        W63462  23.577  36.051  11.291
91934W        W63463  15.490   8.514   0.495
91935W        W63464  25.117   8.699  10.540
91936W        W63465  40.801   0.498   3.815
91937W        W63466  37.981  41.339   3.652
91938W        W63467  15.010  40.096  14.308
91939W        W63468   7.230  41.650   4.874
91940W        W63469   5.180  29.399  11.944
91941W        W63470  44.330  24.339   1.394
91942W        W63471   7.328  36.151  11.164
91943W        W63472  28.049  27.222  13.265
91944W        W63473  14.073  24.441  13.953
91945W        W63474  37.766  40.523   3.168
91946W        W63475  17.831  22.267   4.253
91947W        W63476   7.358  37.871  13.577
91948W        W63477  23.306   6.956   1.700
91949W        W63478  42.278  18.607   4.126
91950W        W63479   2.194   3.093  13.470
91951W        W63480   8.720  19.371   0.829
91952W        W63481  22.296  42.336  11.019
91953W        W63482  37.616   3.928  12.819
91954W        W63483  17.967  11.247  12.110
91955W        W63484  39.193  22.512  10.135
91956W        W63485  18.296  16.120  12.562
91957W        W63486  22.765  23.483  11.476
91958W        W63487  12.129  30.641   4.254
91959W        W63488   5.625  12.696  12.200
91960W        W63489  41.628  14.844  14.482
91961W        W63490  36.805  12.616  10.683
91962W        W63491  31.703  30.675   3.377
91963W        W63492  38.142  44.803   0.866
91964W        W63493   4.216  16.654  12.462
91965W        W63494   0.108  44.953  11.481
91966W        W63495   7.437  30.091   1.348
91967W        W63496  20.017  11.865  11.492
91968W        W63497  36.128   3.855  13.004
91969W        W63498  25.952  15.727   4.497
91970W        W63499  12.863  22.975   3.644
91971W        W63500  25.724   1.507   0.712
91972W        W63501  31.115   8.330  14.709
91973W        W63502  18.287   2.233   0.404
91974W        W63503  44.374  42.965   0.202
91975W        W63504  17.629   7.089  13.410
91976W        W63505  21.973  13.791   2.446
91977W        W63506  19.599   4.939  11.273
91978W        W63507  32.388  42.955   4.376
91979W        W63508  42.970  31.419  12.332
91980W        W63509  28.723  20.813   3.942
91981W        W63510  30.555   5.674  11.233
91982W        W63511  37.449  18.585   3.101
91983W        W63512   5.982  19.719   0.312
91984W        W63513  24.062  28.582  11.853
91985W        W63514  36.361   1.332   0.696
91986W        W63515   3.118   2.281   3.651
91987W        W63516  34.075  35.398   0.390
91988W        W63517   8.319  35.063   3.796
91989W        W63518  12.562  29.064   0.077
91990W        W63519  15.866  10.717   2.551
91991W        W63520  36.471  33.909  12.501
91992W        W63521  14.655  15.546   0.589
91993W        W63522  21.699  24.746   4.529
91994W        W63523   1.110  27.435  11.526
91995W        W63524  25.142  12.761  10.411
91996W        W63525  36.973   8.634   4.732
91997W        W63526  15.561  11.298   1.052
91998W        W63527  13.239  22.202  12.341
91999W        W63528  37.088  32.413  12.936
92000W        W63529  42.894  11.653  14.871
92001W        W63530   9.774  20.116   0.273
92002W        W63531  43.136  41.546  12.007
92003W        W63532   6.112  37.599  11.833
92004W        W63533  10.351   2.421   2.651
92005W        W63534  43.141  31.578  10.686
92006W        W63535  26.880   1.394   0.471
92007W        W63536  34.049  11.584  14.943
92008W        W63537  41.309  30.413   2.310
92009W        W63538  30.097  11.394  10.570
92010W        W63539  26.363  18.645   1.460
92011W        W63540  31.126  23.178   1.392
92012W        W63541   6.523  18.637   3.106
92013W        W63542  13.037  42.009   1.772
92014W        W63543  14.659  20.804  12.660
92015W        W63544  25.355  22.666  13.500
92016W        W63545   4.148   6.954  13.982
92017W        W63546  28.414  31.973   3.578
92018W        W63547  14.239   8.891   1.846
92019W        W63548   3.561   1.872  14.241
92020W        W63549  32.661  35.323  13.094
92021W        W63550  36.426   9.859   3.692
92022W        W63551  25.052  10.217   4.001
92023W        W63552  32.010   1.745   2.148
92024W        W63553  44.696  11.147  14.979
92025W        W63554  34.688   4.171  11.196
92026W        W63555  14.023   0.686   2.732
92027W        W63556   8.847  35.440  13.530
92028W        W63557  16.238  11.307   5.247
92029W        W63558  22.002   9.833  11.563
92030W        W63559  30.158  34.430   1.465
92031W        W63560   8.722  20.208  10.983
92032W        W63561  16.811  20.702   1.760
92033W        W63562  41.828   1.696   3.308
92034W        W63563  43.279   5.608  14.788
92035W        W63564  27.697  29.371   2.609
92036W        W63565  44.682  40.276  11.195
92037W        W63566  23.798  13.562  11.074
92038W        W63567  26.568  12.907  12.502
92039W        W63568   3.216  34.958  11.394
92040W        W63569   7.935  17.942  11.190
92041W        W63570   0.703   9.373   3.451
92042W        W63571   6.821  32.673  13.835
92043W        W63572   8.916  31.551   4.807
92044W        W63573  11.656  21.018   0.898
92045W        W63574   9.713  38.438   4.445
92046W        W63575  34.024  23.975   4.577
92047W        W63576  35.756  12.448  11.696
92048W        W63577  35.067  32.496   5.068
92049W        W63578  15.803   9.794   4.519
92050W        W63579   0.736  44.344  11.629
92051W        W63580  39.549   6.831   4.121
92052W        W63581  16.078  15.322   1.242
92053W        W63582  24.977  25.306   4.421
92054W        W63583   2.532  20.860   1.503
92055W        W63584  38.499  18.158   0.724
92056W        W63585  26.533  36.108  11.962
92057W        W63586  10.168  40.863  14.486
92058W        W63587  21.824  40.775   1.522
92059W        W63588  13.708  41.443  13.382
92060W        W63589   0.065   7.252   0.502
92061W        W63590  43.291  30.415   0.515
92062W        W63591  25.065  19.122   4.170
92063W        W63592  35.468  20.163   4.634
92064W        W63593  19.006  12.350   4.538
92065W        W63594  15.987  24.135   0.852
92066W        W63595  28.809  10.242   3.228
92067W        W63596  15.233  44.499   1.872
92068W        W63597  25.092  16.068  13.693
92069W        W63598  19.008  14.706  14.880
92070W        W63599  42.830  16.842   0.860
92071W        W63600   1.957  37.664   2.187
92072W        W63601  38.783  37.914  13.862
92073W        W63602   0.033  29.014   4.587
92074W        W63603  17.685  28.165  14.888
92075W        W63604  29.902  39.059   0.258
92076W        W63605  32.090  36.948   2.130
92077W        W63606  22.793  43.232   4.179
92078W        W63607  35.850  23.996   3.591
92079W        W63608  40.402  23.186   3.815
92080W        W63609  43.778  32.680   2.163
92081W        W63610  36.919   1.880  13.373
92082W        W63611   9.319  43.264  14.271
92083W        W63612  30.614   6.901  13.487
92084W        W63613  18.602   4.025   0.537
92085W        W63614  18.058   7.880  10.941
92086W        W63615  33.944  42.974  12.039
92087W        W63616  32.994   7.637   4.930
92088W        W63617  44.110   8.941   3.937
92089W        W63618  16.128  29.680   4.107
92090W        W63619   7.716  29.744  11.494
92091W        W63620   3.257  11.228  11.140
92092W        W63621  20.840  28.953   2.826
92093W        W63622  34.874  10.617  12.395
92094W        W63623  42.642   7.752  14.372
92095W        W63624  27.021  41.224  12.617
92096W        W63625  25.539  43.773   3.651
92097W        W63626  40.572  26.961   1.759
92098W        W63627  11.439  30.090  13.882
92099W        W63628  30.629  23.415   0.058
92100W        W63629   0.965  14.266   0.888
92101W        W63630   6.722  31.026   4.402
92102W        W63631  31.164   7.829  12.805
92103W        W63632  23.885  13.132  11.854
92104W        W63633   5.469  41.549   1.970
92105W        W63634  30.120   4.428  12.344
92106W        W63635   1.312  12.741   4.539
92107W        W63636  14.523  22.738  12.065
92108W        W63637  42.586  26.735  12.059
92109W        W63638  25.736  42.558   2.873
92110W        W63639   3.181  30.454  11.868
92111W        W63640  33.225   5.175  13.904
92112W        W63641  41.851  23.134   1.389
92113W        W63642   8.405  27.646  12.942
92114W        W63643  28.611  24.522   0.680
92115W        W63644  34.609   5.208  11.224
92116W        W63645   3.940  28.222  11.014
92117W        W63646  13.129   0.903  14.370
92118W        W63647  25.908  32.034   5.155
92119W        W63648  40.326  14.706  11.955
92120W        W63649  21.760   0.854  11.175
92121W        W63650   3.435  20.828  10.289
92122W        W63651   9.775  12.860   3.779
92123W        W63652   6.613  31.287  10.737
92124W        W63653  37.274  17.226  11.509
92125W        W63654   8.304   3.426   4.383
92126W        W63655  20.595   9.259  14.327
92127W        W63656   1.179  23.417   4.663
92128W        W63657  31.060  25.253  12.923
92129W        W63658  30.788   6.300   0.464
92130W        W63659   1.298   6.235   1.337
92131W        W63660   7.278  17.478   1.949
92132W        W63661  21.816  26.022   4.148
92133W        W63662  22.555  20.813   1.364
92134W        W63663  31.671  33.015   2.420
92135W        W63664  26.801  34.965  12.536
92136W        W63665  16.299  25.464   4.725
92137W        W63666  26.723  20.742  14.415
92138W        W63667  41.016  12.927   2.629
92139W        W63668  19.354  38.784  12.639
92140W        W63669  36.623  42.843  13.485
92141W        W63670  44.774  37.335  10.584
92142W        W63671  29.807   6.801   0.926
92143W        W63672  38.090   1.991   2.231
92144W        W63673  20.364  36.077  12.603
92145W        W63674  35.824   1.301   4.127
92146W        W63675  30.405  16.540  11.159
92147W        W63676  41.237  13.532   2.103
92148W        W63677  38.818  32.419  12.801
92149W        W63678  13.379  17.537  12.476
92150W        W63679   7.773  35.058  10.701
92151W        W63680  41.751  41.921  13.364
92152W        W63681  10.623  23.520   0.747
92153W        W63682   9.007   4.951   3.195
92154W        W63683  14.369  37.412  14.884
92155W        W63684  39.922  41.922   2.830
92156W        W63685   7.909  35.306   1.176
92157W        W63686  24.645  24.875  12.386
92158W        W63687  42.565  30.496  10.825
92159W        W63688   0.400  16.086  11.558
92160W        W63689  14.158  28.308  14.338
92161W        W63690  42.891  39.321  11.349
92162W        W63691  14.011   9.681   3.573
92163W        W63692  37.337  41.521  12.843
92164W        W63693  11.056  30.446   1.161
92165W        W63694  15.045   2.395   1.766
92166W        W63695   4.916  40.418   4.569
92167W        W63696  42.835  18.082   4.754
92168W        W63697  12.262   2.948  10.946
92169W        W63698   3.883   4.626   2.183
92170W        W63699  10.573  26.519  11.609
92171W        W63700   8.135  26.219   2.897
92172W        W63701   0.850  42.340  12.493
92173W        W63702  12.731  20.944   0.357
92174W        W63703   5.814  36.803  14.590
92175W        W63704  36.354  24.458   0.573
92176W        W63705   0.744  14.749   2.883
92177W        W63706  44.552  37.041   0.413
92178W        W63707  13.078  42.344  13.769
92179W        W63708   3.916   4.730   3.597
92180W        W63709   1.427   9.620  12.589
92181W        W63710  24.932  14.703  13.922
92182W        W63711  40.455  30.616  13.062
92183W        W63712  24.775   9.158   0.762
92184W        W63713  32.042  19.767  12.413
92185W        W63714   4.277  39.792   2.016
92186W        W63715  33.458  22.689   9.858
92187W        W63716  17.687  39.026   3.822
92188W        W63717  10.828  14.603  11.921
92189W        W63718  13.846  23.442  11.722
92190W        W63719  42.402   1.361   3.532
92191W        W63720  44.905   7.181  14.962
92192W        W63721  36.115  29.781   1.852
92193W        W63722  23.613   4.120  12.055
92194W        W63723   4.364  15.231  14.085
92195W        W63724   1.743   5.112  12.403
92196W        W63725  19.252  43.725   0.373
92197W        W63726   0.218  12.874  11.874
92198W        W63727  19.458  19.232  14.909
92199W        W63728  23.636  27.976   1.796
92200W        W63729   6.475  21.851  13.002
92201W        W63730  31.436   0.005  10.807
92202W        W63731   8.218  24.003   1.806
92203W        W63732  22.679  17.553  14.954
92204W        W63733  12.373   4.669   2.781
92205W        W63734  30.901  42.466  13.153
92206W        W63735  31.646   2.856  13.100
92207W        W63736  30.185  38.674   0.026
92208W        W63737  12.607   2.269  13.533
92209W        W63738  42.499   3.443  14.485
92210W        W63739  43.034   1.860   0.582
92211W        W63740  35.422  37.937  12.343
92212W        W63741  20.203  41.307  13.053
92213W        W63742  35.837  24.330  12.021
92214W        W63743   4.362  33.652   2.796
92215W        W63744  37.024  33.070  11.566
92216W        W63745   3.296  19.609  12.966
92217W        W63746  34.993  12.856   2.413
92218W        W63747  36.646  31.015   4.519
92219W        W63748  30.217  15.646  14.844
92220W        W63749  44.421  19.270  12.480
92221W        W63750  20.180  41.108  11.197
92222W        W63751  23.612  34.266   2.722
92223W        W63752  16.598  41.822   2.554
92224W        W63753  11.772  20.071   0.617
92225W        W63754  31.643   4.475   0.696
92226W        W63755  28.659  22.411  12.439
92227W        W63756  42.882  37.861   1.368
92228W        W63757   4.035  33.360  11.297
92229W        W63758  21.035  22.948   2.310
92230W        W63759  24.855  24.549   4.712
92231W        W63760  36.940  18.416  13.397
92232W        W63761  38.680  16.176   3.419
92233W        W63762  17.640  27.593   2.176
92234W        W63763  35.385  11.939  13.445
92235W        W63764  28.980  20.473   4.258
92236W        W63765  36.358  41.496   1.983
92237W        W63766   8.863  20.336  11.852
92238W        W63767  13.588   9.846   3.811
92239W        W63768  37.712  17.285  12.419
92240W        W63769   0.489  22.146   4.301
92241W        W63770  41.255  34.845  13.484
92242W        W63771  15.180  43.344  13.904
92243W        W63772  34.294  39.074  13.487
92244W        W63773  17.077   4.881  11.634
92245W        W63774  44.540  35.001  10.623
92246W        W63775   0.583   7.189   0.494
92247W        W63776  37.544  41.353  14.134
92248W        W63777  17.220  33.941   0.323
92249W        W63778  44.690  32.520   1.347
92250W        W63779  17.200  34.884  14.322
92251W        W63780  29.263  12.390  14.299
92252W        W63781   5.444  28.335  11.690
92253W        W63782  13.631  29.885  11.228
92254W        W63783  16.429   7.674  12.447
92255W        W63784  10.368  19.524  12.850
92256W        W63785  29.610  36.555  13.022
92257W        W63786  33.393  38.749  12.355
92258W        W63787  20.245  15.713  14.200
92259W        W63788  22.164  26.634  13.970
92260W        W63789  14.848  38.471  13.837
92261W        W63790  22.996  15.237   4.595
92262W        W63791  44.273   8.268  11.603
92263W        W63792  14.394  43.470   1.756
92264W        W63793  13.363  22.206  11.854
92265W        W63794  37.493  15.693  13.086
92266W        W63795  24.129  35.907  13.437
92267W        W63796  34.624   3.453   1.118
92268W        W63797   0.981  21.870  14.800
92269W        W63798  19.010  38.314  13.933
92270W        W63799  11.092  23.760   2.332
92271W        W63800   6.443  31.888  14.750
92272W        W63801  33.940  33.091  12.979
92273W        W63802  32.482   2.912   4.168
92274W        W63803  31.076  32.575  12.809
92275W        W63804   7.688  17.011   4.079
92276W        W63805  15.642  21.715  11.928
92277W        W63806  18.992  41.733  10.873
92278W        W63807   8.537  35.578   1.820
92279W        W63808   1.649  21.050  10.793
92280W        W63809  17.907  27.447  10.606
92281W        W63810  19.337  41.412   1.184
92282W        W63811  27.009  32.060  11.645
92283W        W63812  34.425  42.550  12.795
92284W        W63813  36.604   1.347   2.416
92285W        W63814  13.605  35.279  13.866
92286W        W63815  35.018  30.108   3.134
92287W        W63816  26.703  42.322  14.678
92288W        W63817  16.066  35.114  14.827
92289W        W63818  28.359  43.585  11.659
92290W        W63819  33.589  11.755   2.238
92291W        W63820   0.429   0.971   0.277
92292W        W63821   1.435  42.786  10.970
92293W        W63822  13.087  30.086   2.708
92294W        W63823   3.489   6.820   0.435
92295W        W63824   6.989   4.305  13.786
92296W        W63825  39.008  28.253  10.843
92297W        W63826   8.704  19.203  12.906
92298W        W63827  19.586   9.843  10.051
92299W        W63828   6.831  24.197   3.241
92300W        W63829  28.153  19.761   0.435
92301W        W63830  17.264  29.937   2.865
92302W        W63831  15.938  26.535   0.804
92303W        W63832  42.048  38.321   2.414
92304W        W63833  22.190  36.561   4.259
92305W        W63834  40.437  20.501   3.118
92306W        W63835  36.761   2.795  13.221
92307W        W63836  37.908   7.235   3.856
92308W        W63837  14.687   6.327  14.044
92309W        W63838   7.705  44.487  10.127
92310W        W63839  43.759  14.665   0.791
92311W        W63840  24.561  10.131   4.180
92312W        W63841  11.663  26.384   1.694
92313W        W63842  37.513   7.578   4.036
92314W        W63843  37.019   0.362   0.818
92315W        W63844   3.915  32.931   0.430
92316W        W63845  22.038   0.745  14.452
92317W        W63846  39.538  19.688  12.110
92318W        W63847  40.369  29.380   1.869
92319W        W63848  42.652  34.830   5.047
92320W        W63849  25.091   3.866  11.250
92321W        W63850   6.351  25.533   3.061
92322W        W63851  34.253   8.469  12.198
92323W        W63852  29.495  12.642  13.894
92324W        W63853  27.559   5.507  14.548
92325W        W63854   4.170   7.366  14.337
92326W        W63855  35.422  41.843  11.612
92327W        W63856  39.841   6.717   0.872
92328W        W63857  21.056  10.195   1.371
92329W        W63858  26.645  20.504  12.211
92330W        W63859  16.576  28.442  10.613
92331W        W63860   6.314  44.920   2.402
92332W        W63861  28.093  34.517   9.555
92333W        W63862  24.084  14.588   3.207
92334W        W63863  15.532  29.485  14.479
92335W        W63864  19.307  28.259  13.687
92336W        W63865  15.824   9.503  14.868
92337W        W63866   7.792   4.012  14.038
92338W        W63867  39.017  10.585   1.572
92339W        W63868   0.503   1.771   4.189
92340W        W63869  37.679  15.199   2.362
92341W        W63870   9.147   9.634  11.084
92342W        W63871  11.913   6.205  12.427
92343W        W63872  37.833  18.458  10.899
92344W        W63873   4.474  12.107  12.462
92345W        W63874  33.050   8.845  12.776
92346W        W63875  42.846  39.452   2.655
92347W        W63876   3.310  17.641   0.961
92348W        W63877  35.014  17.618   2.299
92349W        W63878  35.326  20.275  11.007
92350W        W63879  18.143  25.708  12.595
92351W        W63880  11.093  41.511  13.318
92352W        W63881  11.651  15.681  12.973
92353W        W63882  38.455   0.618   0.685
92354W        W63883  12.140  11.617  13.401
92355W        W63884  17.800  39.862  10.644
92356W        W63885  37.962  30.503  10.921
92357W        W63886  20.544  37.000   0.324
92358W        W63887  17.792  44.780  12.005
92359W        W63888  28.560  14.979  11.065
92360W        W63889   6.342   3.674  14.053
92361W        W63890  30.953  24.585   0.632
92362W        W63891  15.725  21.639   0.766
92363W        W63892  44.145  37.492   4.619
92364W        W63893  31.497   9.158  11.394
92365W        W63894  43.342  38.019  13.094
92366W        W63895  21.512  13.176  10.364
92367W        W63896  10.816  33.775   3.740
92368W        W63897  42.320   6.798  14.271
92369W        W63898  35.632  39.938   3.716
92370W        W63899  44.725  12.200   4.412
92371W        W63900  42.745  40.555  13.953
92372W        W63901  35.904  33.385  14.446
92373W        W63902  41.877  21.551  10.497
92374W        W63903   7.403  15.538   4.272
92375W        W63904  31.023  38.187  13.810
92376W        W63905  35.385  35.607  11.526
92377W        W63906  39.987  20.298  11.715
92378W        W63907  39.266   6.466   3.902
92379W        W63908  12.690  19.629  12.046
92380W        W63909  36.213  34.086  14.853
92381W        W63910   3.462  28.529   4.597
92382W        W63911   0.985  22.024   1.327
92383W        W63912  11.162   7.861   0.859
92384W        W63913  38.965  18.938   4.880
92385W        W63914  37.167   9.930   1.430
92386W        W63915   7.298   4.355  14.543
92387W        W63916  42.507  16.715  13.922
92388W        W63917  36.015   9.458   4.456
92389W        W63918  27.641   8.859  14.572
92390W        W63919   8.782   3.423   3.635
92391W        W63920  25.177   1.742   1.832
92392W        W63921  44.313  12.295   3.616
92393W        W63922  40.743  14.952  13.494
92394W        W63923   7.865  14.328  14.468
92395W        W63924   8.728   9.277   1.358
92396W        W63925  26.432   2.574   0.915
92397W        W63926   4.978  40.943  14.325
92398W        W63927  43.392  18.344   4.998
92399W        W63928  15.708  22.484   0.364
92400W        W63929  28.422  24.095  12.603
92401W        W63930  34.477  37.863   1.846
92402W        W63931   4.355  33.074   1.693
92403W        W63932   8.411  39.813  14.347
92404W        W63933  10.751   1.488  11.654
92405W        W63934  23.517  30.582   0.450
92406W        W63935  44.487  16.174   2.429
92407W        W63936   4.521  30.461   2.757
92408W        W63937  29.640  41.017  10.735
92409W        W63938  22.148  13.631   3.741
92410W        W63939  18.581  38.688  13.166
92411W        W63940   6.897  32.679  11.191
92412W        W63941  13.305  26.499  13.768
92413W        W63942  14.593  36.733  13.514
92414W        W63943  22.041  40.806  10.946
92415W        W63944   2.791  30.919  11.148
92416W        W63945  43.449   2.099   4.998
92417W        W63946  29.172  24.536   0.450
92418W        W63947  31.125  44.417   0.304
92419W        W63948  20.497  33.522   1.571
92420W        W63949  31.811  32.416   3.235
92421W        W63950  13.718  12.552   0.170
92422W        W63951  23.638   3.174   1.636
92423W        W63952   1.038  29.537  11.945
92424W        W63953  43.022  25.356  13.998
92425W        W63954  36.820  43.002   5.083
92426W        W63955  23.636  14.653  11.244
92427W        W63956  38.490  42.343  14.973
92428W        W63957  30.988   1.726   3.490
92429W        W63958  20.054  44.099   4.569
92430W        W63959   6.756  31.916   3.162
92431W        W63960  18.972  41.933  10.348
92432W        W63961   7.285  30.449   3.190
92433W        W63962  25.359  16.713   1.254
92434W        W63963  10.249  42.166  14.689
92435W        W63964  10.584  23.769  14.324
92436W        W63965  39.685  17.982   2.257
92437W        W63966  24.007  18.491   1.857
92438W        W63967  17.310  37.510   3.276
92439W        W63968  16.120  33.965   1.180
92440W        W63969  25.611  34.767  10.716
92441W        W63970   0.976  20.857   4.204
92442W        W63971  34.951  27.579  14.821
92443W        W63972   3.220  37.385   3.807
92444W        W63973   8.740   2.550   0.891
92445W        W63974  33.475   0.236  14.023
92446W        W63975  26.493  22.503  12.127
92447W        W63976  13.328  27.000   1.759
92448W        W63977  25.279  39.601   3.590
92449W        W63978  26.349  31.048   3.719
92450W        W63979  27.093  33.556  13.639
92451W        W63980   6.687   9.170  12.466
92452W        W63981   1.767   2.683  14.392
92453W        W63982  31.365  26.903   1.043
92454W        W63983  20.960  20.587  14.942
92455W        W63984  16.878   8.867   2.151
92456W        W63985  13.312  14.773   3.220
92457W        W63986  33.678  31.197  12.400
92458W        W63987   9.636  38.484   3.627
92459W        W63988  44.861   9.697  10.701
92460W        W63989  24.719  24.056   2.167
92461W        W63990  31.539  11.764  12.469
92462W        W63991  23.757  10.281   2.115
92463W        W63992  24.495  41.948  12.560
92464W        W63993   3.414  43.871  14.462
92465W        W63994  25.682  15.545  14.984
92466W        W63995  22.181  41.999   3.563
92467W        W63996  44.552  38.912   2.101
92468W        W63997  44.067  42.723  13.225
92469W        W63998  43.706  19.004  12.177
92470W        W63999  27.919  15.824  14.297
92471W        W64000   8.259  40.428  13.991
92472W        W64001   4.819  37.589   1.827
92473W        W64002   3.816  22.222   4.226
92474W        W64003  15.610  41.774  14.280
92475W        W64004  12.829  33.957   3.403
92476W        W64005  27.037  38.745   3.267
92477W        W64006  13.074  22.300   0.345
92478W        W64007   6.494  35.575   2.306
92479W        W64008  31.354  24.748   4.517
92480W        W64009  29.922  36.883   4.173
92481W        W64010   7.394  26.775  13.640
92482W        W64011  26.112  27.476  12.016
92483W        W64012   1.777   0.492  13.015
92484W        W64013  30.537  37.613   5.085
92485W        W64014  30.961  17.111   4.140
92486W        W64015  15.048   4.340   1.904
92487W        W64016  24.518   3.707   3.803
92488W        W64017  14.702  39.046   1.454
92489W        W64018  33.331  33.424   2.919
92490W        W64019  26.625   1.263  10.702
92491W        W64020  30.149   8.304  11.562
92492W        W64021  33.720  19.606  14.115
92493W        W64022  37.522  30.521  14.432
92494W        W64023  12.058  16.837  11.238
92495W        W64024  22.320   2.042  14.544
92496W        W64025  12.665  11.781  13.412
92497W        W64026  37.778  18.735  12.604
92498W        W64027  34.152   3.912  12.886
92499W        W64028  44.937  17.047   0.744
92500W        W64029  43.887  24.512   3.460
92501W        W64030  40.284  33.893   0.348
92502W        W64031  44.924  16.297   3.306
92503W        W64032  22.338  15.054   0.404
92504W        W64033  17.268   7.718   2.298
92505W        W64034  38.412  37.809   3.290
92506W        W64035  31.270   1.936   2.279
92507W        W64036  11.285  19.920   0.430
92508W        W64037  39.379  29.613  14.318
92509W        W64038  44.739  10.265   4.851
92510W        W64039  36.899  19.218   2.676
92511W        W64040  26.003  26.965   1.036
92512W        W64041  13.813  14.635  10.879
92513W        W64042  11.814   2.684  12.099
92514W        W64043  33.802  41.400   1.157
92515W        W64044  17.673   8.631  13.513
92516W        W64045  23.579  40.316   4.077
92517W        W64046  35.553  33.939   4.754
92518W        W64047  36.707  12.076  11.696
92519W        W64048  32.985  42.544  14.784
92520W        W64049  25.203  21.060  13.001
92521W        W64050  33.408  14.819  15.000
92522W        W64051   5.692  34.134  10.707
92523W        W64052  32.704  36.499   4.537
92524W        W64053  12.259   0.603  11.712
92525W        W64054  38.135  30.098   2.256
92526W        W64055  25.411  12.831  12.994
92527W        W64056   0.259  19.577  13.017
92528W        W64057  10.066  35.411   4.035
92529W        W64058  15.971  33.534   2.729
92530W        W64059  18.495  32.326  11.931
92531W        W64060   3.285  27.235  13.488
92532W        W64061  33.022  37.941  10.689
92533W        W64062  20.769  26.062  11.402
92534W        W64063  23.797   6.872  12.931
92535W        W64064  42.298  20.254   3.670
92536W        W64065   6.619  39.460  11.968
92537W        W64066  37.088   0.063  13.875
92538W        W64067  35.285  37.984   4.290
92539W        W64068  35.039  35.367   1.837
92540W        W64069   4.667  11.572  12.067
92541W        W64070   9.971  30.371   3.117
92542W        W64071  11.400  17.515  13.849
92543W        W64072  13.344  42.685   2.160
92544W        W64073  22.104   5.466   3.732
92545W        W64074  24.323  32.961   4.211
92546W        W64075  27.413  37.507   0.930
92547W        W64076  19.677   9.437   1.758
92548W        W64077  11.234  16.120   2.023
92549W        W64078  23.257  24.622   2.819
92550W        W64079  27.581   3.360  10.817
92551W        W64080  30.401  11.562  13.526
92552W        W64081  26.510  12.113  14.370
92553W        W64082   1.435  30.850   3.098
92554W        W64083  33.216  24.958  14.772
92555W        W64084   5.752  34.354   2.236
92556W        W64085   6.714  24.566   4.470
92557W        W64086  22.994  15.498   4.148
92558W        W64087  26.755  19.566  14.839
92559W        W64088  37.446  43.378   3.634
92560W        W64089  43.370   9.109  13.580
92561W        W64090  21.641   0.542   3.839
92562W        W64091  42.946  23.431   3.805
92563W        W64092  25.732  13.253  12.956
92564W        W64093   3.885  23.318  12.587
92565W        W64094  35.772   5.774   1.659
92566W        W64095   0.367  33.692   2.097
92567W        W64096  37.028  38.854  11.930
92568W        W64097   5.199  34.909   4.644
92569W        W64098   1.317  19.697  10.791
92570W        W64099  17.623  34.522  14.756
92571W        W64100  14.119  15.994  12.180
92572W        W64101  20.856   7.149   1.855
92573W        W64102   6.865  15.952   4.904
92574W        W64103  41.420  31.924  13.953
92575W        W64104  38.331   1.905  14.829
92576W        W64105  23.164   6.669   2.121
92577W        W64106  30.402  17.739   2.630
92578W        W64107  33.329  27.933   0.910
92579W        W64108  14.123  43.024   0.548
92580W        W64109  43.863  18.245   1.406
92581W        W64110  21.513  40.375   0.759
92582W        W64111  27.564  15.576  14.568
92583W        W64112  13.186  32.586  14.358
92584W        W64113  33.515  19.047  10.594
92585W        W64114  31.073  28.695   5.047
92586W        W64115  35.434  15.281   1.425
92587W        W64116  34.091  20.244  11.553
92588W        W64117  13.263  43.017   4.355
92589W        W64118  15.119  40.825  12.123
92590W        W64119  22.923   0.227  12.793
92591W        W64120   1.887  11.084   4.232
92592W        W64121   2.797  37.264   4.123
92593W        W64122  38.968  34.435   0.886
92594W        W64123  23.779  23.763   2.692
92595W        W64124  28.819   4.507  11.910
92596W        W64125   3.355   9.428  10.786
92597W        W64126   4.529  25.657   3.757
92598W        W64127  13.088  35.514   1.004
92599W        W64128   8.386  14.854   3.760
92600W        W64129   7.881  22.698   2.775
92601W        W64130  33.470  17.166  13.787
92602W        W64131  41.866  41.486   1.315
92603W        W64132   2.854  26.984  14.880
92604W        W64133  13.463  29.940  10.620
92605W        W64134  18.498  18.950   4.224
92606W        W64135  44.357  44.361  14.351
92607W        W64136  15.249   2.427  11.077
92608W        W64137  21.281  31.398  14.381
92609W        W64138  23.213  14.136  11.994
92610W        W64139   4.761   1.647  10.328
92611W        W64140  27.067   9.199   4.771
92612W        W64141  23.606  27.713   2.290
92613W        W64142  14.355  40.404  12.173
92614W        W64143  17.773  20.142   3.200
92615W        W64144  34.866  27.122   0.136
92616W        W64145  35.942  26.769  13.380
92617W        W64146  39.852   1.985  12.033
92618W        W64147  24.656  15.284  13.298
92619W        W64148   4.270  25.963  13.441
92620W        W64149  33.435  21.999  11.112
92621W        W64150  34.082   8.818   0.233
92622W        W64151  33.752  40.047  14.851
92623W        W64152  11.530  28.440  11.631
92624W        W64153  34.311  10.224  12.130
92625W        W64154  39.497  21.836   4.711
92626W        W64155  37.755  18.306  12.965
92627W        W64156   6.805  35.400   1.327
92628W        W64157  39.005  24.932  11.194
92629W        W64158  24.617   8.391   2.806
92630W        W64159  11.760   9.158   0.967
92631W        W64160  35.145  23.978   2.370
92632W        W64161  21.540  38.386  12.413
92633W        W64162  31.925  22.156  12.891
92634W        W64163  35.401  36.065  11.241
92635W        W64164  19.646  25.907   4.040
92636W        W64165  29.544   0.027   4.770
92637W        W64166   1.089   9.651  12.168
92638W        W64167   9.674  18.998   0.700
92639W        W64168  28.576   6.178   2.816
92640W        W64169  14.189  23.217   1.943
92641W        W64170   9.439  16.333  11.132
92642W        W64171  22.112  37.374  12.948
92643W        W64172  27.957   0.327   3.333
92644W        W64173  37.796  17.617   3.257
92645W        W64174  14.649  35.288   2.826
92646W        W64175  23.804  11.646   4.610
92647W        W64176  43.052  38.377   0.919
92648W        W64177  39.270  26.894   1.413
92649W        W64178  24.615  20.122   2.743
92650W        W64179   1.749  35.578  14.792
92651W        W64180  34.347  13.443   3.654
92652W        W64181  38.534  11.824   4.868
92653W        W64182  16.901  37.086  14.565
92654W        W64183  12.745  10.517  13.018
92655W        W64184  22.827   3.747   0.361
92656W        W64185  32.957   4.759   4.460
92657W        W64186   4.943  28.672  10.536
92658W        W64187  40.200  20.392   4.151
92659W        W64188  15.057  14.090  12.391
92660W        W64189  21.184  13.766   3.997
92661W        W64190   4.496  40.931   4.046
92662W        W64191  13.866  30.006  14.630
92663W        W64192  38.429  16.027  13.022
92664W        W64193  44.878  20.797  13.841
92665W        W64194   7.165  40.812   1.766
92666W        W64195  30.444  15.854   2.320
92667W        W64196  19.491   2.485  10.723
92668W        W64197  15.696  42.546   1.799
92669W        W64198   5.662  35.331   2.663
92670W        W64199  38.633  33.063  12.476
92671W        W64200  13.517  12.228   3.816
92672W        W64201   6.384  14.142   4.100
92673W        W64202  39.454  13.997   1.761
92674W        W64203  19.150   6.722  13.493
92675W        W64204  31.247  31.528   0.909
92676W        W64205  10.708  28.151   2.241
92677W        W64206  42.494  29.153  12.404
92678W        W64207   1.803  14.471  14.849
92679W        W64208  31.056  39.030  12.503
92680W        W64209   6.233  16.919   3.714
92681W        W64210  10.545   2.606  12.883
92682W        W64211  32.884   7.639  14.196
92683W        W64212   3.754  13.845   3.899
92684W        W64213  41.510  30.800   3.166
92685W        W64214  24.443  16.517  12.055
92686W        W64215  33.190  24.854  11.198
92687W        W64216  15.836   0.850   3.238
92688W        W64217  39.333  11.135  13.853
92689W        W64218  28.262  31.802  11.135
92690W        W64219  41.796   2.952  11.539
92691W        W64220   2.708  31.880  11.143
92692W        W64221  35.081  32.061   4.594
92693W        W64222  16.427  42.836   2.770
92694W        W64223  43.372  24.673  11.196
92695W        W64224  41.090  15.378   2.369
92696W        W64225  19.779  43.224   3.169
92697W        W64226   0.761  42.276   4.094
92698W        W64227  41.742   9.376  12.264
92699W        W64228  10.123  29.796   1.776
92700W        W64229  32.834   8.179  11.128
92701W        W64230  25.462   2.535   3.964
92702W        W64231  40.961   3.195  10.002
92703W        W64232  13.617  42.021   2.929
92704W        W64233  16.132  25.065   0.551
92705W        W64234   8.612  19.052  14.405
92706W        W64235  36.293   4.337  12.872
92707W        W64236  26.748  17.752   1.744
92708W        W64237  36.194  29.934   0.137
92709W        W64238  33.012  38.967  11.527
92710W        W64239   3.994  25.968  11.576
92711W        W64240   2.726   4.660  11.440
92712W        W64241   0.335  28.979   3.106
92713W        W64242  13.090   3.015   3.360
92714W        W64243  27.970  37.625   2.253
92715W        W64244  39.363  18.585  13.581
92716W        W64245  32.144  39.965  12.249
92717W        W64246  20.791  14.346   4.800
92718W        W64247  31.323  21.552  14.817
92719W        W64248  22.679   2.201   4.433
92720W        W64249  14.745  42.792  12.923
92721W        W64250  27.329  32.559   9.835
92722W        W64251  23.736  16.657  12.568
92723W        W64252  31.030  30.121  11.837
92724W        W64253  27.754  11.849  13.080
92725W        W64254  26.020  42.339   0.162
92726W        W64255   2.576  34.478   0.210
92727W        W64256  19.533  14.272   4.053
92728W        W64257  11.201  14.379  11.051
92729W        W64258  36.114  37.534   1.163
92730W        W64259  15.011  28.661   2.404
92731W        W64260  20.089   8.226   1.245
92732W        W64261   8.397  29.657   3.168
92733W        W64262  26.155   9.692   3.743
92734W        W64263  44.013  37.015  13.806
92735W        W64264  36.453   4.695   3.876
92736W        W64265   1.424  26.526   0.399
92737W        W64266  28.544  14.719  11.490
92738W        W64267  36.485  15.715  12.809
92739W        W64268  34.207  16.652  13.793
92740W        W64269  34.438  11.370   3.365
92741W        W64270   1.715  24.155   3.602
92742W        W64271  17.360  19.488  11.960
92743W        W64272   4.926  34.396  10.243
92744W        W64273  27.536  14.590  11.461
92745W        W64274   9.318  34.548  14.011
92746W        W64275  27.770  24.871   0.979
92747W        W64276  20.721  11.328   0.356
92748W        W64277  12.574  30.669   0.440
92749W        W64278  36.605  32.852   2.170
92750W        W64279  33.491   0.963  12.566
92751W        W64280   1.378   4.878   0.920
92752W        W64281  20.952  41.912  10.160
92753W        W64282   8.857  21.959   3.428
92754W        W64283  38.933  12.354  12.881
92755W        W64284  38.847  23.632  13.433
92756W        W64285  44.137  12.517   4.062
92757W        W64286  18.205  42.705  14.366
92758W        W64287  42.134   8.420  13.840
92759W        W64288  27.550  11.292   4.071
92760W        W64289   5.443  15.737  14.928
92761W        W64290  31.965  34.484   4.023
92762W        W64291  18.074  37.930   4.283
92763W        W64292  43.365  21.716   2.103
92764W        W64293  34.535  39.081  11.264
92765W        W64294  34.013  28.244   3.368
92766W        W64295  34.424  39.567   2.107
92767W        W64296  39.881  13.179   4.130
92768W        W64297  24.934  21.272  14.295
92769W        W64298  28.223   4.224   3.657
92770W        W64299  36.365  39.108  11.161
92771W        W64300  38.870  42.869   1.706
92772W        W64301  15.187  20.706   1.778
92773W        W64302  41.058  36.877   1.850
92774W        W64303  32.509   3.426   4.088
92775W        W64304  26.071  21.506  12.848
92776W        W64305   5.637  29.431  11.571
92777W        W64306  24.979  33.878  11.683
92778W        W64307  13.803  43.734  11.657
92779W        W64308  31.979   0.909   2.815
92780W        W64309  40.798  42.100   4.985
92781W        W64310  20.121  38.752   0.492
92782W        W64311  19.508  19.453   2.385
92783W        W64312  30.076   3.874   3.856
92784W        W64313  10.957  19.578   2.181
92785W        W64314   6.386  24.213   2.289
92786W        W64315  28.516  21.042   3.207
92787W        W64316  34.938   4.274   1.016
92788W        W64317  10.895   1.343  13.976
92789W        W64318  13.262  29.517  13.968
92790W        W64319  12.692   5.936   4.459
92791W        W64320  33.145  27.589  13.019
92792W        W64321  31.907  26.801   5.344
92793W        W64322   2.622  26.315  14.409
92794W        W64323   6.723  35.635   3.682
92795W        W64324  37.475   2.928   0.040
92796W        W64325  17.544  18.994   2.673
92797W        W64326   3.781  27.140  12.350
92798W        W64327  10.621  32.593  13.289
92799W        W64328   1.227  34.535   1.915
92800W        W64329  33.066  10.121   3.665
92801W        W64330   9.747   3.312  10.829
92802W        W64331  39.211  36.009   4.239
92803W        W64332  34.664   0.971  13.232
92804W        W64333  28.937  31.152  14.897
92805W        W64334  31.966  27.397  14.069
92806W        W64335  41.654   3.073   4.477
92807W        W64336  20.384  36.994  11.578
92808W        W64337  20.505  36.455   2.944
92809W        W64338   0.068  35.889  12.536
92810W        W64339  38.558   6.021  14.906
92811W        W64340  38.382  16.003   1.259
92812W        W64341   9.134  29.617   1.313
92813W        W64342  37.763  20.293   0.704
92814W        W64343   0.958  38.674   2.293
92815W        W64344  40.525  30.931   3.599
92816W        W64345  42.108  10.821   4.480
92817W        W64346  27.902  16.380   4.374
92818W        W64347  12.211  23.807  13.675
92819W        W64348  40.565  14.243   4.041
92820W        W64349  40.692  12.818  11.339
92821W        W64350  29.479  31.899  13.043
92822W        W64351  24.186  24.500   3.868
92823W        W64352  27.587   9.644  13.429
92824W        W64353  29.834  26.144  11.555
92825W        W64354  23.985  42.077   3.426
92826W        W64355   4.808  14.864   0.859
92827W        W64356   1.562   5.563   0.441
92828W        W64357  15.531   6.067  11.142
92829W        W64358  39.947   3.222   4.665
92830W        W64359  41.877   8.654   0.884
92831W        W64360  40.913  20.995  14.998
92832W        W64361  29.870  18.249  10.385
92833W        W64362  38.772   2.533   1.845
92834W        W64363  12.244  32.978  11.742
92835W        W64364   8.396   6.376  10.275
92836W        W64365  34.389  23.369  14.187
92837W        W64366  10.301   3.323   0.388
92838W        W64367  18.640  35.568   3.674
92839W        W64368  22.946   3.243  13.797
92840W        W64369  28.128  34.870  11.826
92841W        W64370   7.216  15.721  14.231
92842W        W64371  39.314  15.745  13.843
92843W        W64372   7.910   0.889   2.530
92844W        W64373  10.888  27.031  14.305
92845W        W64374  12.866  31.480  11.307
92846W        W64375   1.531  15.927  11.396
92847W        W64376   8.613  26.603  11.896
92848W        W64377  22.106  43.495   2.302
92849W        W64378  39.198  19.239  10.768
92850W        W64379  19.335   0.581  10.694
92851W        W64380   3.893   0.690   4.046
92852W        W64381  35.749  31.109   5.010
92853W        W64382   5.823  22.215   2.177
92854W        W64383  31.157   4.479   4.574
92855W        W64384  40.076  30.025  13.847
92856W        W64385  37.470  14.884   4.624
92857W        W64386   5.124  34.560   0.649
92858W        W64387  28.064  22.025   2.761
92859W        W64388  25.960  42.851   3.843
92860W        W64389   0.272  37.392  10.771
92861W        W64390  32.918  24.583  14.551
92862W        W64391   4.169  34.622  14.013
92863W        W64392  29.535   9.247  14.324
92864W        W64393  19.013   5.307  12.014
92865W        W64394  27.049   8.068  14.777
92866W        W64395  39.382  14.693  13.897
92867W        W64396  37.915  42.755  12.112
92868W        W64397  33.026   0.913   4.860
92869W        W64398  19.489  19.124  10.702
92870W        W64399  30.128   5.872   0.686
92871W        W64400  33.580  44.735  11.962
92872W        W64401  36.433  33.662   0.053
92873W        W64402  20.761   7.805   2.379
92874W        W64403   3.256  29.429   0.858
92875W        W64404  35.040  38.936  11.962
92876W        W64405  43.175   9.626  14.878
92877W        W64406  19.422  41.004   1.980
92878W        W64407  19.334  24.077  14.096
92879W        W64408  11.607   6.305  14.497
92880W        W64409  15.090  27.960   2.762
92881W        W64410  37.083  42.207  12.676
92882W        W64411   4.258   9.855  12.880
92883W        W64412  43.339  34.650   4.653
92884W        W64413  21.796  41.764   3.316
92885W        W64414  35.502   8.389   0.996
92886W        W64415  18.539  43.502   2.832
92887W        W64416   5.948  23.033   3.996
92888W        W64417  44.456  31.803   4.158
92889W        W64418  18.808  42.737   4.125
92890W        W64419  23.316   9.379   2.376
92891W        W64420  40.978  42.335   0.363
92892W        W64421  12.847  29.454   3.615
92893W        W64422  35.454  31.773  13.900
92894W        W64423   6.833  10.699   3.754
92895W        W64424   1.631   0.313   4.444
92896W        W64425  41.175  10.299   2.937
92897W        W64426  25.620   1.279   4.285
92898W        W64427   6.444   9.259   4.360
92899W        W64428  44.896   6.525  13.491
92900W        W64429   9.740  41.259   1.571
92901W        W64430  36.568   4.748   2.869
92902W        W64431  12.524   8.378  14.449
92903W        W64432  43.341  13.134   4.287
92904W        W64433  31.109  19.819   2.224
92905W        W64434  25.859   9.271   2.200
92906W        W64435   9.201  28.943   3.549
92907W        W64436  39.952  14.416  13.253
92908W        W64437  36.583  33.278  13.341
92909W        W64438  44.994  17.978  14.490
92910W        W64439  34.603  33.022   1.211
92911W        W64440  32.857  31.539  11.873
92912W        W64441   4.745  40.006   0.655
92913W        W64442  38.981  42.348  13.414
92914W        W64443  11.139  28.085   3.331
92915W        W64444  25.733  27.100  12.482
92916W        W64445  34.922  27.102  11.856
92917W        W64446  12.096  18.779   4.760
92918W        W64447  43.372  37.264  10.615
92919W        W64448   1.721  26.282  14.995
92920W        W64449  36.875  36.588   2.563
92921W        W64450   1.766   1.440   2.324
92922W        W64451  13.177  14.210  10.732
92923W        W64452  33.041  14.013  14.935
92924W        W64453  36.089  14.990  12.061
92925W        W64454   6.294  32.475   4.693
92926W        W64455  24.905  32.869   1.819
92927W        W64456  40.803  10.321  11.901
92928W        W64457  13.902  23.152   0.873
92929W        W64458   1.802  20.060  11.564
92930W        W64459  33.079  27.926   1.411
92931W        W64460   2.016  29.580   0.088
92932W        W64461  37.532  42.710  13.563
92933W        W64462  20.295  28.820  14.455
92934W        W64463  17.782  36.596   0.308
92935W        W64464  24.488   8.104   0.312
92936W        W64465  33.930   6.917   0.087
92937W        W64466   0.250  26.633  13.366
92938W        W64467  31.033  15.904  14.612
92939W        W64468  18.826  13.232   2.359
92940W        W64469  44.231  19.179  11.133
92941W        W64470   1.845  22.283   2.445
92942W        W64471   0.998   3.216  13.890
92943W        W64472  43.245  20.741  13.996
92944W        W64473  13.084  19.993  14.484
92945W        W64474   2.973  20.165   2.690
92946W        W64475  38.514  38.438  13.270
92947W        W64476   7.290  12.290   0.194
92948W        W64477  37.013  36.679   3.727
92949W        W64478  25.307  43.186  14.370
92950W        W64479   7.361  23.725   2.777
92951W        W64480  19.628  38.892   0.346
92952W        W64481  23.900  43.739  13.704
92953W        W64482  29.439  27.695  10.635
92954W        W64483  37.560  15.521   4.236
92955W        W64484  30.264  19.312  11.712
92956W        W64485  41.988   1.821   4.589
92957W        W64486   7.772  30.730  10.691
92958W        W64487   8.326   6.542  12.064
92959W        W64488  34.936  14.559   4.078
92960W        W64489  15.883  37.328  12.424
92961W        W64490  14.074  18.904  13.220
92962W        W64491   6.026  37.496   3.579
92963W        W64492   7.323  25.473  11.618
92964W        W64493   0.018  28.950   2.292
92965W        W64494  27.433  34.115  14.848
92966W        W64495  38.333   9.195  12.020
92967W        W64496  33.632  23.246   4.240
92968W        W64497  25.276  41.404   1.799
92969W        W64498   5.433   6.161  11.629
92970W        W64499  17.881   8.207  11.758
92971W        W64500  40.913  10.275   1.420
92972W        W64501  31.594   5.878  14.545
92973W        W64502  15.175  17.462  12.349
92974W        W64503  35.782   4.249  13.957
92975W        W64504   5.874  11.567   3.808
92976W        W64505  38.409  43.155   1.180
92977W        W64506  26.540   5.201  14.195
92978W        W64507  42.469   9.870   3.413
92979W        W64508   1.526  21.735  11.505
92980W        W64509  43.047  44.931  13.988
92981W        W64510  30.135   5.079   1.000
92982W        W64511  23.760  19.892  12.367
92983W        W64512  27.557  44.994   0.035
92984W        W64513   9.400  37.826   1.891
92985W        W64514   5.610   3.912  10.992
92986W        W64515  30.084  10.789   4.514
92987W        W64516   0.330   1.420  13.107
92988W        W64517  20.117  39.034  14.492
92989W        W64518  36.639  29.605   0.229
92990W        W64519  41.311  28.648  12.082
92991W        W64520  23.741  13.960   1.156
92992W        W64521  34.507  41.810   1.490
92993W        W64522   8.777  28.960   2.923
92994W        W64523  27.179  23.668   4.562
92995W        W64524  35.147   4.841   3.299
92996W        W64525  13.649  43.465  12.093
92997W        W64526  12.155  34.049   1.843
92998W        W64527  21.597  43.997   2.796
92999W        W64528   2.335  35.529   2.650
93000W        W64529  36.050   8.266   3.244
93001W        W64530   5.735   3.703   1.794
93002W        W64531   8.269  21.220  13.366
93003W        W64532  26.104  41.827  11.216
93004W        W64533  43.572  24.807  14.394
93005W        W64534  26.069  29.991   3.016
93006W        W64535  26.573  44.340   3.533
93007W        W64536  36.342   2.600   2.358
93008W        W64537  10.635  44.558  11.694
93009W        W64538  16.453  12.114  14.983
93010W        W64539  32.141  21.973  10.711
93011W        W64540  31.187   7.452   2.484
93012W        W64541   5.054  32.100  13.949
93013W        W64542  26.118  32.009  11.707
93014W        W64543  18.207   9.277  13.766
93015W        W64544  36.876  42.076   3.787
93016W        W64545  32.614   2.535  12.681
93017W        W64546   7.072   2.244  11.119
93018W        W64547  30.196  11.760   2.034
93019W        W64548  16.451  44.972  14.861
93020W        W64549  24.974   9.189   1.269
93021W        W64550  37.299  12.820  12.414
93022W        W64551  12.635  17.767  12.876
93023W        W64552  28.889  43.369  14.271
93024W        W64553  24.901  34.635   1.356
93025W        W64554  36.997   4.502  13.412
93026W        W64555  28.669  42.837   3.256
93027W        W64556  41.976  41.260  10.483
93028W        W64557  28.384   2.820  14.974
93029W        W64558  17.130   7.848  14.756
93030W        W64559  33.079  15.302  14.028
93031W        W64560   0.299   3.456   2.288
93032W        W64561  37.638   2.234   2.223
93033W        W64562  14.652  41.718   3.336
93034W        W64563  16.204  12.235   3.649
93035W        W64564  41.024  25.553   0.038
93036W        W64565   0.218  12.074   4.474
93037W        W64566  29.663  37.941  14.432
93038W        W64567   8.989   2.066  12.532
93039W        W64568  13.199   2.093  12.578
93040W        W64569  38.303   8.929   2.977
93041W        W64570  22.947   6.934  13.383
93042W        W64571  18.110  26.948   4.586
93043W        W64572  12.348  25.738  14.384
93044W        W64573  41.693   3.928  14.354
93045W        W64574   2.350  43.963   4.773
93046W        W64575  37.861  17.257   3.647
93047W        W64576  29.426  24.861   4.140
93048W        W64577  40.335   0.330   2.708
93049W        W64578  34.558   7.274   0.383
93050W        W64579   6.188   8.150   3.207
93051W        W64580  20.653  30.724  11.531
93052W        W64581  23.936  27.116   3.683
93053W        W64582  21.486   1.893  14.953
93054W        W64583  29.664  23.164  14.758
93055W        W64584  30.828  27.776  10.961
93056W        W64585   6.632  34.078  12.453
93057W        W64586  11.008  13.718  14.536
93058W        W64587  21.579  43.811  11.493
93059W        W64588  33.615  40.067  13.924
93060W        W64589  38.471  38.592   0.290
93061W        W64590  33.909  37.018   0.969
93062W        W64591  10.135   8.722  14.741
93063W        W64592   8.871  21.057   3.372
93064W        W64593  25.563  27.405   1.550
93065W        W64594  39.803  11.949   0.973
93066W        W64595  17.661  10.798   1.793
93067W        W64596   9.378  35.110  13.959
93068W        W64597   4.241  17.364   1.372
93069W        W64598  42.803  10.021  11.828
93070W        W64599  40.303   9.365   0.934
93071W        W64600  27.424  38.569   0.901
93072W        W64601   9.249  21.402   2.665
93073W        W64602  20.119  41.017  14.790
93074W        W64603  10.226   5.923  13.595
93075W        W64604  21.953  33.421   1.231
93076W        W64605   4.695  38.063  13.029
93077W        W64606   5.418  16.825  14.011
93078W        W64607  33.954  40.130  11.973
93079W        W64608  24.121  12.116  11.820
93080W        W64609   8.726  39.484  13.612
93081W        W64610  28.492   8.659   0.023
93082W        W64611  24.926  18.679  12.014
93083W        W64612   4.669  44.064  10.204
93084W        W64613   2.312  36.588  10.505
93085W        W64614  11.078  22.340  12.021
93086W        W64615  36.020  16.500   2.544
93087W        W64616  44.534   4.821   2.912
93088W        W64617  14.571   3.527  14.902
93089W        W64618  24.586  39.532  10.496
93090W        W64619  24.066   9.847  13.775
93091W        W64620  39.571  17.453  11.518
93092W        W64621  36.452  31.935  12.011
93093W        W64622  13.693  13.846  13.958
93094W        W64623   6.147  19.266   3.611
93095W        W64624  18.672   8.742   2.172
93096W        W64625  29.865  20.429   3.233
93097W        W64626   0.983   8.049   1.820
93098W        W64627  43.234   2.249  10.846
93099W        W64628  28.573   7.843  12.487
93100W        W64629   4.922  33.910   3.345
93101W        W64630  41.039   5.559   2.458
93102W        W64631  22.385  44.865  14.579
93103W        W64632  39.702  30.176   2.127
93104W        W64633  25.772  30.388   0.408
93105W        W64634  33.079   1.290  12.429
93106W        W64635  15.333  26.754  13.020
93107W        W64636   9.959  13.358  10.633
93108W        W64637   9.645  13.579   1.715
93109W        W64638  20.345  13.825  14.334
93110W        W64639   1.348  17.618   3.634
93111W        W64640  33.132  13.507  14.906
93112W        W64641  42.517   1.982   1.480
93113W        W64642  19.742  29.611   1.441
93114W        W64643   3.599  12.684   4.610
93115W        W64644  28.851  20.188   1.822
93116W        W64645  42.865  17.592   2.499
93117W        W64646  34.524  27.110   2.805
93118W        W64647  40.632  12.592   2.655
93119W        W64648   1.451   8.413  12.967
93120W        W64649   3.112  38.737  12.268
93121W        W64650   8.295  24.013   4.786
93122W        W64651  36.992  10.573   4.796
93123W        W64652  10.848  36.043  11.710
93124W        W64653  13.548  38.523  11.510
93125W        W64654  22.990  36.439  11.667
93126W        W64655  33.957  26.658   3.388
93127W        W64656   8.691  25.258   2.143
93128W        W64657  38.872   5.400   4.894
93129W        W64658  30.907  23.729   4.261
93130W        W64659  23.501  12.108  14.354
93131W        W64660   6.664  34.366  11.626
93132W        W64661   3.163   3.269   2.271
93133W        W64662   4.261   9.054   5.184
93134W        W64663  38.424  36.914   1.962
93135W        W64664   8.330   8.142   2.968
93136W        W64665  24.127  41.551   3.268
93137W        W64666  29.026   3.458   2.805
93138W        W64667  28.411   1.415  12.099
93139W        W64668  14.534  22.485   3.644
93140W        W64669  43.195  16.752  13.403
93141W        W64670   7.289  42.891  12.506
93142W        W64671  36.163   6.441   4.109
93143W        W64672   4.411  20.521   1.694
93144W        W64673  26.645  23.122  14.836
93145W        W64674  35.812  10.309  12.067
93146W        W64675  13.479  41.893   4.795
93147W        W64676  33.719  24.462   0.516
93148W        W64677  33.100  33.125  13.829
93149W        W64678  27.024  32.267  10.230
93150W        W64679  35.153   7.965  10.818
93151W        W64680  30.191   4.850   2.328
93152W        W64681  14.866  36.421   0.395
93153W        W64682  30.164   8.230   1.191
93154W        W64683  10.221  18.731  14.602
93155W        W64684  10.173  23.218  14.645
93156W        W64685  31.869  43.253   0.235
93157W        W64686   0.825  35.126   4.617
93158W        W64687  26.414   3.267  11.287
93159W        W64688  13.154  30.080  11.027
93160W        W64689  10.410  12.709   4.083
93161W        W64690  10.455  22.573  12.741
93162W        W64691   4.341   6.850  11.626
93163W        W64692   0.860  20.271   2.280
93164W        W64693   2.275  19.546  13.075
93165W        W64694   6.707  29.137   2.191
93166W        W64695  10.578  41.870  10.662
93167W        W64696  37.062  26.674  13.862
93168W        W64697  25.765   9.771   2.865
93169W        W64698  25.489  26.983   1.244
93170W        W64699  13.679  28.490  14.479
93171W        W64700  36.382   5.775   2.901
93172W        W64701  18.562  15.592   3.653
93173W        W64702  17.124  10.075   1.624
93174W        W64703  18.552  12.418  13.440
93175W        W64704  44.690  11.919   3.705
93176W        W64705  32.426  19.921   3.664
93177W        W64706  33.332  35.530  11.244
93178W        W64707  25.306  30.044  14.372
93179W        W64708  36.223  41.891  14.958
93180W        W64709  38.647  14.902  14.920
93181W        W64710  40.839   6.527   2.303
93182W        W64711  17.594  15.711   3.359
93183W        W64712  40.990   3.862   0.408
93184W        W64713  11.035  15.333   2.375
93185W        W64714  39.341  30.094  11.125
93186W        W64715  11.620   7.603  12.647
93187W        W64716  21.018  28.626   1.569
93188W        W64717  38.268  36.585  13.960
93189W        W64718   7.606  38.489  12.087
93190W        W64719  22.841  34.959   3.782
93191W        W64720  41.460  37.800  13.515
93192W        W64721  10.346  43.473  12.559
93193W        W64722  13.761  22.178   4.089
93194W        W64723  26.508  40.765   1.069
93195W        W64724  29.917  27.043  11.832
93196W        W64725   3.328  28.908   1.399
93197W        W64726  27.642  32.748   1.868
93198W        W64727  24.128  19.953  10.675
93199W        W64728  16.601  32.982   2.213
93200W        W64729   0.971  34.933  12.147
93201W        W64730   3.712  22.993  13.531
93202W        W64731  35.498   4.391   2.227
93203W        W64732  17.154  36.412  13.797
93204W        W64733  27.077  23.442  13.772
93205W        W64734  33.594  32.174   2.650
93206W        W64735  42.443  40.578  10.694
93207W        W64736  23.459  21.684  12.518
93208W        W64737  41.428  39.801  14.334
93209W        W64738  19.269  37.878   3.734
93210W        W64739  40.044  30.911   3.849
93211W        W64740  32.923   5.504   2.786
93212W        W64741  38.853  34.942  13.494
93213W        W64742  35.122  42.922   0.868
93214W        W64743   3.014  35.540  14.327
93215W        W64744  34.883  36.573   2.425
93216W        W64745  33.584   8.757   3.854
93217W        W64746  27.104  30.882   2.272
93218W        W64747   2.680  16.012   4.147
93219W        W64748   6.921   6.908   1.373
93220W        W64749  18.992  29.787  12.153
93221W        W64750   0.502  34.404   3.858
93222W        W64751  12.804  22.002   3.698
93223W        W64752  32.232  38.935   4.827
93224W        W64753  34.317   3.840   2.831
93225W        W64754  11.480  28.759   1.674
93226W        W64755  28.126  41.556   3.231
93227W        W64756  41.415  42.925   2.275
93228W        W64757  43.862  36.427   4.331
93229W        W64758  11.669  26.988   2.621
93230W        W64759  21.010  40.522   1.896
93231W        W64760   8.732   5.385  11.606
93232W        W64761  27.775   0.489   2.753
93233W        W64762  39.388   5.397   3.181
93234W        W64763  21.178   3.187   4.178
93235W        W64764  43.287  39.328   1.718
93236W        W64765   0.074  17.575  13.488
93237W        W64766  12.547   7.814  12.228
93238W        W64767   2.409  16.886   3.402
93239W        W64768  43.472   7.396   2.736
93240W        W64769  33.084  13.115   1.638
93241W        W64770  39.326   1.971  11.268
93242W        W64771  32.856  30.197  14.500
93243W        W64772  17.782  12.263  13.523
93244W        W64773  34.983  35.784   4.101
93245W        W64774   1.210   6.364  10.607
93246W        W64775  14.460  43.005  11.415
93247W        W64776  13.357  25.719  14.271
93248W        W64777  29.139  30.082  13.968
93249W        W64778  38.374  11.096  14.011
93250W        W64779  30.565   0.359   0.349
93251W        W64780  17.638   1.261   1.884
93252W        W64781  20.558  15.365   1.441
93253W        W64782   0.094  43.810   4.918
93254W        W64783  37.296  38.261  14.873
93255W        W64784  21.292  21.094  10.841
93256W        W64785  37.595  15.705  11.599
93257W        W64786  10.569  28.822   3.606
93258W        W64787  43.897  16.270   3.678
93259W        W64788  29.331  30.516   2.797
93260W        W64789  23.717  37.768   3.435
93261W        W64790  34.079  37.725   0.264
93262W        W64791  37.515   1.065  12.416
93263W        W64792  34.394  10.195   2.330
93264W        W64793  41.891   7.440  12.458
93265W        W64794   7.701  27.845   4.299
93266W        W64795   8.205  32.202  12.124
93267W        W64796  29.157  43.384  10.629
93268W        W64797  39.652  35.861   0.747
93269W        W64798   9.830  17.643  10.705
93270W        W64799  35.571   4.863  13.852
93271W        W64800  12.654  15.067   2.300
93272W        W64801   2.070  17.318  12.131
93273W        W64802   4.190  11.123  12.679
93274W        W64803  40.261  34.098  10.735
93275W        W64804  19.738  32.705  13.109
93276W        W64805  29.676   3.465  10.480
93277W        W64806  34.816  33.475   4.547
93278W        W64807  41.489  15.680  13.451
93279W        W64808  14.028   4.717  11.364
93280W        W64809  30.000  10.637   1.307
93281W        W64810  16.989  42.794  11.166
93282W        W64811  21.680  22.733   2.642
93283W        W64812   0.454  40.720   4.127
93284W        W64813  20.221   7.686   4.154
93285W        W64814  36.334  40.993   4.180
93286W        W64815  36.474  18.740  10.615
93287W        W64816   8.639   9.449  11.020
93288W        W64817  10.751  22.874  11.214
93289W        W64818  15.761  25.672   0.921
93290W        W64819  42.770  15.086  11.598
93291W        W64820  34.725  32.241   0.799
93292W        W64821  19.246   0.015   4.122
93293W        W64822  24.021  33.841   1.849
93294W        W64823  29.815  22.127   1.741
93295W        W64824  27.794  28.021   2.216
93296W        W64825   3.274  32.178   2.650
93297W        W64826  21.149  26.180   1.758
93298W        W64827  30.548  21.168  14.809
93299W        W64828  43.741   3.454  13.206
93300W        W64829   5.138  21.739   1.273
93301W        W64830  24.028  17.651  13.615
93302W        W64831  20.176   8.781  12.087
93303W        W64832  40.099  20.064   0.420
93304W        W64833   2.706  16.649  13.800
93305W        W64834  37.299  18.635  14.334
93306W        W64835  22.001  40.133   0.283
93307W        W64836  43.537  22.316  11.568
93308W        W64837  16.956   4.697   1.835
93309W        W64838  24.922  38.345  11.963
93310W        W64839  10.694  15.366   2.002
93311W        W64840  35.587  35.914  12.820
93312W        W64841  43.650  22.664  14.330
93313W        W64842  12.542  27.289  12.594
93314W        W64843   8.612  20.387   3.397
93315W        W64844   3.225  33.197  14.364
93316W        W64845   3.163  33.389   2.399
93317W        W64846  26.791  12.735  12.064
93318W        W64847   9.770  21.193   0.376
93319W        W64848  41.635   4.536  14.034
93320W        W64849  15.147   7.017  11.893
93321W        W64850  14.331   1.736   1.331
93322W        W64851  43.259   6.338  12.480
93323W        W64852  13.834  25.241  11.194
93324W        W64853  14.703   8.204  12.989
93325W        W64854  39.811  35.005  10.851
93326W        W64855  27.469  37.458  13.097
93327W        W64856  23.982  38.602   0.978
93328W        W64857  28.691  20.181   3.336
93329W        W64858   2.713  33.990  12.112
93330W        W64859  40.562  11.169   4.213
93331W        W64860  26.447   7.941   0.741
93332W        W64861  35.252   0.439  12.584
93333W        W64862   2.433  18.919  11.033
93334W        W64863  43.780  30.252   4.784
93335W        W64864  41.409   2.178   3.208
93336W        W64865  23.972   2.422  12.432
93337W        W64866  11.801  31.696   5.097
93338W        W64867  16.188  30.162   3.903
93339W        W64868   1.958   4.194  11.544
93340W        W64869   6.311  39.836  13.491
93341W        W64870  34.104  11.814   9.968
93342W        W64871  36.078   4.557   3.017
93343W        W64872   7.278  20.276  12.815
93344W        W64873  16.032  37.955  11.667
93345W        W64874   7.819  31.939  11.151
93346W        W64875   9.663  12.623  14.292
93347W        W64876  38.830  33.667  12.473
93348W        W64877  27.772  35.114  14.906
93349W        W64878  27.794   1.593  13.935
93350W        W64879  42.311   4.036   0.110
93351W        W64880  44.429   6.635  10.808
93352W        W64881   7.205  37.323   0.335
93353W        W64882  23.974  18.108  13.844
93354W        W64883  17.365   8.258  11.608
93355W        W64884  13.233   4.773   1.024
93356W        W64885  14.094  33.796  11.659
93357W        W64886  23.232  19.993  13.903
93358W        W64887  30.206  31.860  11.206
93359W        W64888  11.709  35.813  10.267
93360W        W64889  17.786   3.974  11.545
93361W        W64890  44.256   4.809  13.662
93362W        W64891  17.759  37.579   1.584
93363W        W64892   2.794  31.635   2.281
93364W        W64893   7.284  43.428   3.869
93365W        W64894  39.246  10.217   3.268
93366W        W64895   5.293  16.343   4.815
93367W        W64896  34.424  37.478  14.310
93368W        W64897  20.204   3.175  10.424
93369W        W64898  41.050  26.211   1.781
93370W        W64899  37.324  15.141   0.019
93371W        W64900  29.217  17.563   1.940
93372W        W64901  25.161  12.304   4.462
93373W        W64902  24.730  21.623   1.378
93374W        W64903  25.226  41.703  14.366
93375W        W64904  22.194   3.499  12.117
93376W        W64905  38.045  16.087  11.008
93377W        W64906  16.718  38.622   4.272
93378W        W64907  28.425  44.771  13.168
93379W        W64908  29.734  19.283   1.620
93380W        W64909  43.850  34.469   9.741
93381W        W64910   6.233   6.408   2.650
93382W        W64911   8.393  30.034  13.824
93383W        W64912  38.247  24.006   3.364
93384W        W64913  35.756   2.899   1.421
93385W        W64914  34.319  27.795   0.994
93386W        W64915   7.267  33.402   4.583
93387W        W64916  37.003  37.995  10.634
93388W        W64917   8.204   1.063   4.161
93389W        W64918  12.753  30.076   1.372
93390W        W64919  26.948   0.397   3.319
93391W        W64920  41.905  38.928   4.639
93392W        W64921  10.833  12.307  11.667
93393W        W64922  35.766  32.730  14.005
93394W        W64923  23.074  43.445  12.051
93395W        W64924   3.231  25.165  10.681
93396W        W64925  25.987  25.220  12.639
93397W        W64926  27.998  24.727  12.135
93398W        W64927   9.525  34.301  12.008
93399W        W64928  38.076  22.614  10.949
93400W        W64929   8.637   0.884   9.819
93401W        W64930  23.127  17.090  13.327
93402W        W64931  26.685   5.925  12.074
93403W        W64932  13.642   9.793  11.676
93404W        W64933   9.340  13.279  14.846
93405W        W64934  26.060  27.740  13.248
93406W        W64935  24.273   5.452   2.509
93407W        W64936  39.779   0.684  12.516
93408W        W64937   0.512  28.580   0.302
93409W        W64938   5.633  39.371  13.729
93410W        W64939   1.360  29.166   0.468
93411W        W64940  24.013  12.754  12.681
93412W        W64941  30.767  14.539   9.745
93413W        W64942  43.162   3.442   2.334
93414W        W64943  43.491  36.978  14.373
93415W        W64944   3.427  20.063   2.415
93416W        W64945  30.041  35.442   2.574
93417W        W64946  25.207  33.912  13.127
93418W        W64947   1.973  17.285   5.058
93419W        W64948   0.464  34.348  11.367
93420W        W64949   7.195   7.830   2.757
93421W        W64950  31.421  34.807  14.290
93422W        W64951  40.816  14.881   3.536
93423W        W64952  11.658   0.636  10.305
93424W        W64953  35.397  33.411   1.292
93425W        W64954  37.859  12.360  12.871
93426W        W64955   6.125  22.098   3.595
93427W        W64956  26.632  13.634   2.408
93428W        W64957  43.621   5.280   2.408
93429W        W64958  32.586  14.079   4.247
93430W        W64959  14.881  24.121  14.919
93431W        W64960  41.284  25.856   3.593
93432W        W64961  10.967   1.594   5.200
93433W        W64962  24.669  27.883   3.205
93434W        W64963  23.943  23.166  11.980
93435W        W64964  11.693  17.756   1.680
93436W        W64965  14.091  27.419   0.392
93437W        W64966   0.238  10.056   4.188
93438W        W64967  39.570  11.518   3.471
93439W        W64968  12.793   0.327   1.854
93440W        W64969  25.657  35.681   2.758
93441W        W64970  16.729  16.617  14.210
93442W        W64971  39.793  33.520  12.957
93443W        W64972   1.923  30.496  13.473
93444W        W64973  11.023  21.007  13.254
93445W        W64974  22.018  38.430   1.443
93446W        W64975  17.352   0.267  13.035
93447W        W64976  31.541   2.366  14.048
93448W        W64977  14.002  34.075  14.849
93449W        W64978  43.451   0.887  13.775
93450W        W64979  42.398  32.040  13.879
93451W        W64980   1.352  43.581  12.827
93452W        W64981   4.315   3.166  12.073
93453W        W64982   0.432   4.673   2.969
93454W        W64983   9.276   3.461   2.244
93455W        W64984  41.846  15.360  14.345
93456W        W64985  43.081  42.759  11.515
93457W        W64986   1.598  33.949   0.681
93458W        W64987  19.169  39.526   4.541
93459W        W64988  18.337  41.930   2.060
93460W        W64989  23.965  40.893   1.685
93461W        W64990  37.635   8.165   2.354
93462W        W64991   6.880  13.373  14.422
93463W        W64992  31.666  17.257   2.675
93464W        W64993  11.712  21.100  13.589
93465W        W64994  29.077  26.648   4.722
93466W        W64995  24.152   8.731  14.871
93467W        W64996  18.287  28.813   4.454
93468W        W64997  23.397  41.527   2.220
93469W        W64998   5.524  18.690   3.097
93470W        W64999   0.458  40.853  11.767
93471W        W65000  42.802  33.994   2.253
93472W        W65001  28.358   0.873   4.598
93473W        W65002   0.345  24.619   4.899
93474W        W65003   9.675  15.646  14.505
93475W        W65004  27.904  25.052   3.852
93476W        W65005   4.789  33.075   1.370
93477W        W65006   0.833   2.348  11.560
93478W        W65007  28.864  43.622  11.578
93479W        W65008  23.237  21.286   2.249
93480W        W65009  16.728  14.531  14.308
93481W        W65010  24.898  17.069  12.935
93482W        W65011  17.908  32.772   1.925
93483W        W65012  10.923   4.760  11.839
93484W        W65013  27.551  38.497   2.276
93485W        W65014  24.734  25.240  14.216
93486W        W65015  21.071   1.486  12.159
93487W        W65016   9.297   7.139  11.142
93488W        W65017  26.530  14.117   1.242
93489W        W65018  20.575  44.529  11.035
93490W        W65019  14.577  39.135   3.939
93491W        W65020  32.947  12.312   4.803
93492W        W65021  35.599  17.091  12.116
93493W        W65022  15.484   6.846  14.361
93494W        W65023  44.562  36.863  12.394
93495W        W65024   6.845   7.807   4.094
93496W        W65025   3.681  13.135  13.903
93497W        W65026  31.419  17.463   2.275
93498W        W65027  33.129  43.128   9.935
93499W        W65028   0.363   9.760  13.833
93500W        W65029  22.906  40.469  11.221
93501W        W65030  22.170  26.197  10.752
93502W        W65031  15.805   3.797   0.470
93503W        W65032   2.850  41.942   0.270
93504W        W65033  43.378  10.249  11.179
93505W        W65034  26.929  13.845  10.723
93506W        W65035   0.055  19.134   2.346
93507W        W65036  12.826  37.651   2.396
93508W        W65037  11.416  22.532   2.663
93509W        W65038  13.740  12.615  13.453
93510W        W65039  25.060  34.306   2.758
93511W        W65040  22.250  16.356   2.730
93512W        W65041  43.098  39.660  13.061
93513W        W65042  32.426  14.231  11.640
93514W        W65043   3.779  31.959  14.499
93515W        W65044  44.982  16.549   2.864
93516W        W65045  40.347  21.285   4.543
93517W        W65046   3.748  17.744   3.601
93518W        W65047  42.867   8.984  12.069
93519W        W65048  26.009  14.069   1.370
93520W        W65049  21.560  14.833   2.996
93521W        W65050  42.305  25.488   2.235
93522W        W65051  22.224  19.634  12.296
93523W        W65052  31.218  19.314   2.383
93524W        W65053  22.554   8.162   3.291
93525W        W65054   0.859   8.730   0.717
93526W        W65055  18.154  20.138  10.660
93527W        W65056  39.147  42.821   4.249
93528W        W65057   3.754   1.499   3.450
93529W        W65058   6.373  16.133  13.990
93530W        W65059  39.553  23.735  11.435
93531W        W65060  41.026  14.685   0.198
93532W        W65061  31.495  40.555  13.972
93533W        W65062   8.897  43.987  14.783
93534W        W65063   1.519   4.860  11.139
93535W        W65064  21.599  31.595   2.581
93536W        W65065  27.695  37.623  10.169
93537W        W65066  16.720  23.048  12.728
93538W        W65067  22.632  28.407  14.122
93539W        W65068  39.877  27.811  12.305
93540W        W65069  26.879  11.883   1.402
93541W        W65070  15.207  44.752   0.746
93542W        W65071   3.880   0.569   2.759
93543W        W65072   7.696   2.010  14.945
93544W        W65073  34.980  20.545  13.166
93545W        W65074  41.706   5.875  12.945
93546W        W65075  38.929  21.350   3.974
93547W        W65076  39.436  43.968  13.814
93548W        W65077   9.620  42.368   2.329
93549W        W65078  14.736  37.557   4.261
93550W        W65079  16.361  43.246   1.731
93551W        W65080  18.349  31.572   1.230
93552W        W65081   0.987  33.143   0.940
93553W        W65082  23.617  24.049  14.417
93554W        W65083  21.507  34.657  13.074
93555W        W65084  16.137  21.738  14.902
93556W        W65085  27.595  23.034  10.970
93557W        W65086   6.810   5.866  10.957
93558W        W65087  18.683  21.591   3.813
93559W        W65088  24.517  19.713   1.024
93560W        W65089  27.131   2.641   2.734
93561W        W65090  21.530  36.135  14.152
93562W        W65091   8.235   7.608   0.291
93563W        W65092  31.907  32.540   2.366
93564W        W65093   3.280  29.725  11.252
93565W        W65094   3.192   9.823  11.094
93566W        W65095  11.403   6.354   0.953
93567W        W65096  20.577   6.893  12.822
93568W        W65097  21.381  19.700   1.993
93569W        W65098  34.865  32.290   3.732
93570W        W65099   8.284  21.144  12.442
93571W        W65100  34.820  14.263   3.654
93572W        W65101  29.030   1.983  11.099
93573W        W65102  38.346  44.323   3.741
93574W        W65103  30.913  11.742  13.569
93575W        W65104  32.611   9.888   3.669
93576W        W65105  41.891  39.866  14.582
93577W        W65106  36.024  21.173  12.982
93578W        W65107  36.796   4.392   1.903
93579W        W65108   5.417  33.917   0.463
93580W        W65109  13.094  26.017  12.898
93581W        W65110  18.196  27.513   5.475
93582W        W65111  31.306  29.501   2.636
93583W        W65112   1.863   8.875  11.211
93584W        W65113  17.680  19.115   3.153
93585W        W65114  36.311  11.237  13.190
93586W        W65115  43.402   2.696   3.666
93587W        W65116  44.011  33.029  12.513
93588W        W65117  12.274  35.876  11.073
93589W        W65118  10.811   1.385   3.366
93590W        W65119  31.644  36.675  11.047
93591W        W65120  25.527  42.090  14.222
93592W        W65121   0.049  28.391   0.437
93593W        W65122  41.429  19.264  12.877
93594W        W65123  32.642  30.006   3.766
93595W        W65124  26.649  11.889   2.667
93596W        W65125  12.940   2.694   2.827
93597W        W65126  24.201   9.719   1.660
93598W        W65127  31.480  27.653   3.297
93599W        W65128  19.119  12.708  10.378
93600W        W65129  24.738  31.392  11.152
93601W        W65130  36.003  19.618  12.649
93602W        W65131   0.920  31.399  11.240
93603W        W65132  41.911   7.963  12.391
93604W        W65133  40.039  40.121   2.399
93605W        W65134  27.887  40.915  11.927
93606W        W65135  21.484  40.493   2.806
93607W        W65136  24.774  39.091   2.441
93608W        W65137  37.893   3.141  10.664
93609W        W65138   8.928  39.865   2.818
93610W        W65139  31.260   3.362  11.085
93611W        W65140  31.160   5.236  12.962
93612W        W65141  39.035   6.252   3.452
93613W        W65142  40.945   0.477   0.828
93614W        W65143  22.297  27.443   1.220
93615W        W65144   3.701   7.986   1.928
93616W        W65145  28.280  35.080  11.363
93617W        W65146  22.918   0.895   4.938
93618W        W65147  41.395   0.515  13.966
93619W        W65148  32.941  42.499  11.160
93620W        W65149  43.966   3.776  11.535
93621W        W65150  14.044  29.228   3.123
93622W        W65151   1.276   1.430   0.298
93623W        W65152  18.130  18.676  14.044
93624W        W65153  20.038   3.217  13.532
93625W        W65154  13.910   4.267   1.446
93626W        W65155   5.511   3.314   4.534
93627W        W65156  24.816  44.979   2.143
93628W        W65157  43.428  12.858  14.836
93629W        W65158  13.252  41.519   3.188
93630W        W65159  10.149  31.934   4.635
93631W        W65160  23.794   5.297   1.290
93632W        W65161  24.604  33.436  12.041
93633W        W65162  31.068  22.055   3.677
93634W        W65163  19.557  34.595  10.446
93635W        W65164  35.152  19.054  10.462
93636W        W65165  39.823  12.199  10.879
93637W        W65166  37.582  31.516  11.038
93638W        W65167  26.650  37.047   3.659
93639W        W65168  28.403  27.240   1.217
93640W        W65169   7.592  30.898   4.718
93641W        W65170  27.228  23.648   2.667
93642W        W65171  41.034  17.792  14.948
93643W        W65172  41.025  40.188  14.270
93644W        W65173  39.442  40.791   3.278
93645W        W65174  38.038  26.067   4.876
93646W        W65175  28.026  16.900   4.330
93647W        W65176  39.983   4.364   1.914
93648W        W65177  11.458  30.492  11.562
93649W        W65178  11.646  42.952  13.451
93650W        W65179  37.877  26.567   4.632
93651W        W65180  17.178  42.741  13.424
93652W        W65181  24.066  42.973   3.363
93653W        W65182  42.080  29.496  11.122
93654W        W65183  34.415  44.489  11.200
93655W        W65184  31.625  33.437  13.974
93656W        W65185  37.491  22.303  14.817
93657W        W65186  18.544  27.987  11.948
93658W        W65187  15.760  21.145  11.478
93659W        W65188  42.394  10.399  12.908
93660W        W65189  35.340  18.223   0.004
93661W        W65190   0.010  43.889   0.381
93662W        W65191  27.423  17.758  14.426
93663W        W65192  19.570  12.097   1.764
93664W        W65193  32.874  43.655   0.407
93665W        W65194  29.187   0.854   0.256
93666W        W65195  33.438  16.420  10.671
93667W        W65196  22.764  31.686  12.948
93668W        W65197  42.333  40.863  13.874
93669W        W65198  22.917  14.073   2.648
93670W        W65199  26.269  39.376   0.949
93671W        W65200  20.208   1.884  10.720
93672W        W65201  20.650  20.638   2.231
93673W        W65202  28.520  34.882   4.191
93674W        W65203  34.669  18.069   2.807
93675W        W65204  42.353   5.143  13.864
93676W        W65205   0.927  18.843  13.137
93677W        W65206  10.588  32.899  10.669
93678W        W65207  21.575  16.497   0.492
93679W        W65208   6.606  42.939   2.098
93680W        W65209  31.729   6.454   3.954
93681W        W65210  28.268  25.629  12.099
93682W        W65211  26.566  38.167   1.656
93683W        W65212   4.144  14.926  11.848
93684W        W65213  35.413  42.602   3.192
93685W        W65214  26.423  10.923  13.859
93686W        W65215  21.165  36.902   3.257
93687W        W65216  13.979  42.843  11.533
93688W        W65217  14.104  21.619  10.755
93689W        W65218   3.949  25.600  13.031
93690W        W65219   6.348  14.791   4.585
93691W        W65220  44.052  19.757   1.272
93692W        W65221   1.573  20.215  13.956
93693W        W65222  25.049   5.849   4.878
93694W        W65223  21.295   0.281  10.222
93695W        W65224  44.513  31.538  14.402
93696W        W65225  13.664   8.112   4.082
93697W        W65226  33.580  13.573  11.045
93698W        W65227  30.938  37.224  11.958
93699W        W65228  42.389   7.272   3.879
93700W        W65229  34.376   4.762  10.314
93701W        W65230  24.557  14.801   3.236
93702W        W65231  16.192  33.990  14.558
93703W        W65232   2.041  30.885  10.604
93704W        W65233  30.394   8.094  11.971
93705W        W65234  10.608  21.649  12.779
93706W        W65235  40.076  43.820  13.412
93707W        W65236   8.328  19.135   1.113
93708W        W65237  31.922  14.344   3.871
93709W        W65238  24.489  31.523  11.580
93710W        W65239  39.321  16.521  10.877
93711W        W65240  39.980  15.651  14.296
93712W        W65241  32.658   0.682   4.514
93713W        W65242  28.704  22.288  10.686
93714W        W65243  10.852  42.339   1.325
93715W        W65244  42.106   3.663  12.665
93716W        W65245  36.112   5.307   0.912
93717W        W65246  19.149  18.146  11.931
93718W        W65247  37.811   3.773  11.492
93719W        W65248  43.454  27.792   2.285
93720W        W65249  20.907  28.003  10.267
93721W        W65250  22.653   5.591  10.276
93722W        W65251  42.530  17.693   3.632
93723W        W65252  17.624   2.273   2.224
93724W        W65253  19.702  30.053   3.240
93725W        W65254  19.771  13.558  14.270
93726W        W65255  34.821  29.454   3.740
93727W        W65256  42.891  27.908  13.035
93728W        W65257  16.622  19.578  12.960
93729W        W65258  27.976  33.483   2.865
93730W        W65259  29.094  19.531   3.836
93731W        W65260  26.434  34.160   1.781
93732W        W65261  24.974  22.736  11.914
93733W        W65262  23.553   2.719  14.782
93734W        W65263  29.369  27.839   4.182
93735W        W65264   7.765   7.696   0.930
93736W        W65265  19.686  28.921  14.897
93737W        W65266  38.352  35.475   1.208
93738W        W65267  37.615  22.086   2.744
93739W        W65268   9.350   1.673   1.292
93740W        W65269   8.728  25.518   3.899
93741W        W65270  16.853  43.435   1.601
93742W        W65271  39.338  23.696   3.226
93743W        W65272  36.461  32.655   4.376
93744W        W65273   4.192  20.640   2.798
93745W        W65274  20.026   4.579   0.317
93746W        W65275  33.879   0.731   4.637
93747W        W65276   1.000  44.555  12.629
93748W        W65277   3.105  26.691   3.762
93749W        W65278   7.346  38.304   2.177
93750W        W65279   1.376  25.849   3.321
93751W        W65280  32.943  36.627  14.286
93752W        W65281   1.794  25.863  10.648
93753W        W65282  16.533  39.694   3.345
93754W        W65283   9.794  15.112   1.863
93755W        W65284  17.488  15.863   1.424
93756W        W65285  12.310   4.648  13.107
93757W        W65286  30.442  14.261   2.569
93758W        W65287  10.351   5.468   2.177
93759W        W65288  16.042  18.101   0.286
93760W        W65289   6.941  29.045   0.263
93761W        W65290  43.334  34.165  12.165
93762W        W65291  37.981  15.322   1.576
93763W        W65292  22.766  12.031  10.681
93764W        W65293  43.929  11.826   1.282
93765W        W65294  24.549   3.329  14.825
93766W        W65295   9.638  14.883  11.641
93767W        W65296  40.241  16.821  11.652
93768W        W65297  16.212   2.259   1.842
93769W        W65298  22.130  30.657  13.107
93770W        W65299   5.501  35.719   2.930
93771W        W65300  37.838  36.078   4.534
93772W        W65301  26.083   1.312   3.407
93773W        W65302  41.291  25.186  12.472
93774W        W65303  36.065  35.997  13.004
93775W        W65304  19.103   8.704   1.215
93776W        W65305  20.599  27.569   2.931
93777W        W65306  13.738  26.668  11.546
93778W        W65307  33.683  18.180   0.479
93779W        W65308  31.992  23.021   2.822
93780W        W65309  15.562   8.164   1.676
93781W        W65310  38.168  12.850   3.136
93782W        W65311  10.972  42.723  11.140
93783W        W65312  41.966  36.829  13.924
93784W        W65313  10.065  30.264   3.642
93785W        W65314   3.442  18.364   1.480
93786W        W65315   0.253  11.065   3.157
93787W        W65316  10.815  41.814   0.255
93788W        W65317  10.539   5.056  10.015
93789W        W65318  37.786  29.999  12.088
93790W        W65319  32.989  20.516  14.445
93791W        W65320  21.290  43.226  12.532
93792W        W65321  30.428  24.489  11.951
93793W        W65322   2.231   7.722   2.308
93794W        W65323   3.648   6.192   2.273
93795W        W65324   8.884   0.441   3.185
93796W        W65325   2.416  34.681   4.265
93797W        W65326   3.902  15.624   3.738
93798W        W65327  40.353  16.420  14.340
93799W        W65328  38.073  41.787  10.710
93800W        W65329   7.659  27.522   2.173
93801W        W65330  21.049  20.181  10.649
93802W        W65331  18.574  10.966   1.357
93803W        W65332  29.104  15.183  14.821
93804W        W65333  32.845  24.031   1.778
93805W        W65334  15.614  39.281  12.559
93806W        W65335  34.903  35.187  10.403
93807W        W65336  33.578  20.718  13.076
93808W        W65337  18.154  17.762   0.065
93809W        W65338  17.591   0.256   4.333
93810W        W65339   2.351  25.845  11.071
93811W        W65340  13.207  42.935  10.719
93812W        W65341  37.527   2.609  12.519
93813W        W65342  32.191  24.667  11.501
93814W        W65343  18.358  13.506   1.802
93815W        W65344   1.914   5.345   4.076
93816W        W65345  14.807  41.082   1.782
93817W        W65346  18.793  17.719   4.495
93818W        W65347   8.973  19.410   5.140
93819W        W65348  44.338  28.449  13.501
93820W        W65349  34.078   2.562   1.243
93821W        W65350  10.613  33.962   2.859
93822W        W65351  32.595   0.536  11.744
93823W        W65352  17.266   3.046  11.551
93824W        W65353  35.997   8.887  11.729
93825W        W65354  35.026  14.775   4.543
93826W        W65355  35.304  22.386   1.819
93827W        W65356   4.016  14.319   0.385
93828W        W65357  18.970  41.516  13.386
93829W        W65358   2.901  24.961  13.387
93830W        W65359   4.850  23.181  10.589
93831W        W65360  29.176  10.682   2.671
93832W        W65361  41.423  21.699   0.284
93833W        W65362  28.028  15.154  11.960
93834W        W65363  36.351  22.104  13.831
93835W        W65364  10.372   8.610   2.773
93836W        W65365   0.550  33.041  11.649
93837W        W65366   1.573   8.288  12.166
93838W        W65367  26.449  19.420  10.413
93839W        W65368  19.344  14.588  13.426
93840W        W65369  20.495   2.650   2.794
93841W        W65370  29.091  23.229  12.837
93842W        W65371  35.386  11.337   2.345
93843W        W65372  42.426  44.946   2.747
93844W        W65373  36.469  35.305  13.526
93845W        W65374  44.708  11.738  13.978
93846W        W65375  29.997  32.651  10.840
93847W        W65376  26.944  24.444  14.853
93848W        W65377  32.915  30.116  12.534
93849W        W65378  38.512  27.422  13.496
93850W        W65379  15.311  16.680   4.790
93851W        W65380   3.867  36.888  13.044
93852W        W65381  17.988   3.663  12.877
93853W        W65382  12.914  39.385   4.167
93854W        W65383  11.370  14.549  14.899
93855W        W65384   9.650  30.507   3.860
93856W        W65385  31.063  31.446   4.576
93857W        W65386  42.804  19.128  12.159
93858W        W65387  34.305   7.687   2.197
93859W        W65388  34.439  21.141   4.941
93860W        W65389  20.806  25.270   4.114
93861W        W65390  27.964  15.974  13.465
93862W        W65391  39.870  41.416  12.342
93863W        W65392  43.984  29.087   1.323
93864W        W65393   7.039  37.449  12.852
93865W        W65394  28.023  10.996  11.505
93866W        W65395   7.478  10.525  12.103
93867W        W65396   8.838  39.613  14.093
93868W        W65397  26.726  42.070  11.158
93869W        W65398   3.220   9.226   0.907
93870W        W65399  36.810  18.648   4.707
93871W        W65400   0.995  18.275  12.989
93872W        W65401   8.681   0.463  11.619
93873W        W65402  17.686  35.776   4.591
93874W        W65403   9.693  23.505   0.843
93875W        W65404  27.902   5.277  12.793
93876W        W65405  41.604  38.865  14.393
93877W        W65406  43.492   8.092  13.434
93878W        W65407  31.804   8.107  11.905
93879W        W65408  23.941  28.473  13.532
93880W        W65409  41.386  35.586  13.899
93881W        W65410  39.072  43.335   2.805
93882W        W65411  19.185  10.897   0.891
93883W        W65412  44.967   4.845  12.291
93884W        W65413  14.044  10.623  13.124
93885W        W65414  24.827   1.483   1.029
93886W        W65415  34.543   8.846  13.772
93887W        W65416  14.694  28.203  14.386
93888W        W65417   9.272   6.337   3.265
93889W        W65418   9.811  11.403  13.353
93890W        W65419  14.917  10.237   1.132
93891W        W65420  41.078  19.721  10.387
93892W        W65421  14.695  19.192   1.234
93893W        W65422  16.476  36.399  11.575
93894W        W65423  13.802   5.638   0.351
93895W        W65424  16.737  27.489  13.550
93896W        W65425  40.792   1.045   1.170
93897W        W65426   8.223  43.886  12.127
93898W        W65427  12.175   8.853  11.816
93899W        W65428  39.161  28.178   1.462
93900W        W65429  43.076  38.466   0.004
93901W        W65430  10.101  12.377   3.829
93902W        W65431  27.193  20.024  12.872
93903W        W65432  27.409  41.538   0.468
93904W        W65433  19.037  42.772   1.290
93905W        W65434  29.566  41.565  10.104
93906W        W65435  11.093  21.097   3.817
93907W        W65436  29.761  21.134   0.778
93908W        W65437  42.349   0.045   1.216
93909W        W65438   8.762  12.747  10.665
93910W        W65439  24.721   3.149  11.482
93911W        W65440  41.158  44.328   0.191
93912W        W65441  21.121  21.006  14.675
93913W        W65442  16.618  42.550  10.413
93914W        W65443  23.452   7.694  13.398
93915W        W65444  32.962  30.262   2.068
93916W        W65445  38.983   0.662   3.024
93917W        W65446   0.343   7.122  13.884
93918W        W65447  44.301  36.492  13.130
93919W        W65448  19.767   8.506  10.719
93920W        W65449   1.865  39.980  12.248
93921W        W65450  23.424  28.683   1.413
93922W        W65451  44.851  13.352   1.380
93923W        W65452  38.445  44.921  14.439
93924W        W65453  38.587   3.520  12.419
93925W        W65454   2.884  12.133  14.893
93926W        W65455  15.632  44.447   0.782
93927W        W65456   6.137  34.710  11.176
93928W        W65457   0.359  41.885   4.461
93929W        W65458  25.822  24.727  11.617
93930W        W65459  42.605  22.122  12.460
93931W        W65460  39.030  29.460  11.921
93932W        W65461  19.674   4.828   1.539
93933W        W65462  13.642   9.753   4.818
93934W        W65463  19.934  41.235  13.522
93935W        W65464  14.831  19.797  12.500
93936W        W65465  40.505  14.732   3.920
93937W        W65466   8.114  39.014  11.460
93938W        W65467  17.048  18.158   2.699
93939W        W65468  25.829  16.391  11.934
93940W        W65469  39.938  44.499  12.144
93941W        W65470  38.889  19.312   1.381
93942W        W65471  24.636   0.357   4.587
93943W        W65472   4.658  18.765  12.182
93944W        W65473   2.926  11.750   3.720
93945W        W65474  22.765  26.506   2.238
93946W        W65475   9.823  22.016  10.545
93947W        W65476  14.793  16.907   0.373
93948W        W65477  29.937  43.445  11.690
93949W        W65478  28.649  26.871   2.830
93950W        W65479  34.010  12.671  13.981
93951W        W65480  17.114  21.455   2.734
93952W        W65481  20.719  37.590   1.368
93953W        W65482   8.935  30.196  12.636
93954W        W65483  29.929  39.795  13.347
93955W        W65484   6.037  29.020  13.410
93956W        W65485  36.460  34.010  13.851
93957W        W65486   1.905  40.406   4.204
93958W        W65487  43.272  38.528  11.644
93959W        W65488  32.501   6.275   3.060
93960W        W65489  43.776  16.075  13.904
93961W        W65490  14.470  20.569  13.625
93962W        W65491  31.418  28.455  12.628
93963W        W65492  39.049  10.801  14.133
93964W        W65493  14.703  34.036  12.853
93965W        W65494  23.605  25.702   2.562
93966W        W65495  42.798  34.930   0.340
93967W        W65496  34.697  22.339   4.901
93968W        W65497  25.381  11.355   3.384
93969W        W65498  29.825  29.110   4.307
93970W        W65499   2.637  34.285  12.913
93971W        W65500  41.389  35.510   1.659
93972W        W65501  40.837  16.200   0.114
93973W        W65502  11.941  31.477   2.439
93974W        W65503  10.212  44.364   1.211
93975W        W65504  11.607  15.337  13.408
93976W        W65505  42.520  26.092   0.114
93977W        W65506  19.203  26.594  12.062
93978W        W65507  26.932  40.438  10.755
93979W        W65508   5.670   4.614   4.125
93980W        W65509  13.834  44.506  13.763
93981W        W65510   5.792   3.825  12.270
93982W        W65511  43.403  32.895   3.803
93983W        W65512   1.337  28.985   2.923
93984W        W65513  13.845  32.791  13.352
93985W        W65514  24.223  16.588  13.546
93986W        W65515   0.350  42.570  11.727
93987W        W65516  20.947   2.917   2.745
93988W        W65517  23.099  15.586   0.331
93989W        W65518  17.672  31.398   2.768
93990W        W65519  40.439  32.660  12.335
93991W        W65520   4.234  36.084   2.591
93992W        W65521  11.609  31.087   2.295
93993W        W65522  29.375   9.873   3.865
93994W        W65523  22.560  19.647  10.113
93995W        W65524  43.958  43.591   0.669
93996W        W65525  14.740  16.840   1.836
93997W        W65526   9.764  31.339  12.365
93998W        W65527  16.881  16.378   0.705
93999W        W65528  40.019  43.935   0.980
94000W        W65529  42.542  14.307   4.140
94001W        W65530  19.758  22.070   2.462
94002W        W65531  28.635  22.124  14.749
94003W        W65532  33.132  41.789  14.001
94004W        W65533   1.918   7.315   0.640
94005W        W65534  40.767   7.075   2.270
94006W        W65535   4.302   6.263  10.766
94007W        W65536  38.053  19.625   4.193
94008W        W65537   3.704  13.550   4.319
94009W        W65538  18.557  23.794   4.925
94010W        W65539  14.475   3.379   4.601
94011W        W65540  42.855  23.961   3.751
94012W        W65541  40.709  30.387  13.947
94013W        W65542   3.088  36.957  10.210
94014W        W65543  41.993   3.500  14.334
94015W        W65544   3.412  23.117  11.949
94016W        W65545  37.602  20.725   0.950
94017W        W65546   4.964  17.537  14.786
94018W        W65547  12.264   4.448  10.800
94019W        W65548  13.843  23.091   3.788
94020W        W65549  27.019   1.919  11.842
94021W        W65550  44.938  17.382  13.944
94022W        W65551   9.901  42.666   3.392
94023W        W65552  12.870  40.954  10.727
94024W        W65553  34.154  18.820   4.538
94025W        W65554  11.405  19.050  12.482
94026W        W65555   8.798  33.600  14.810
94027W        W65556  14.362  30.236   4.174
94028W        W65557  15.883  30.326  13.443
94029W        W65558  32.747  23.039   3.435
94030W        W65559  21.196  14.089   0.213
94031W        W65560  31.491  19.325  14.003
94032W        W65561  32.450   7.466   4.452
94033W        W65562  22.211   0.206  12.247
94034W        W65563  23.195   1.521  13.346
94035W        W65564   3.909   7.394  13.862
94036W        W65565  25.009  17.443  11.522
94037W        W65566  30.553  35.109  14.540
94038W        W65567  26.484   0.779   3.705
94039W        W65568  37.629  35.003   2.435
94040W        W65569   1.330   5.837   0.813
94041W        W65570   9.766   7.274   4.699
94042W        W65571  43.350  14.258   1.267
94043W        W65572  29.803  22.558  14.477
94044W        W65573  37.542  32.563  12.714
94045W        W65574  11.033  34.516  10.908
94046W        W65575  24.940  39.452  14.039
94047W        W65576  13.605   6.940   4.695
94048W        W65577  30.617  23.522  12.232
94049W        W65578  30.715  28.192  12.410
94050W        W65579   5.031   6.205   1.318
94051W        W65580  20.854  39.526   2.293
94052W        W65581  42.887  31.920   3.774
94053W        W65582  39.455   0.018   2.618
94054W        W65583  36.570  40.754   3.794
94055W        W65584   7.239  39.858  13.549
94056W        W65585  40.752   6.282  10.815
94057W        W65586   9.675  34.082  13.454
94058W        W65587  44.899  18.981   0.803
94059W        W65588  16.315  29.932  12.106
94060W        W65589  24.231  14.274   1.988
94061W        W65590  15.707   9.239   4.466
94062W        W65591  35.489  32.862   1.251
94063W        W65592  27.742   0.127   4.293
94064W        W65593  25.714  31.615   3.374
94065W        W65594  13.320  15.780  12.673
94066W        W65595  26.077  19.287   1.321
94067W        W65596  15.129  42.701   4.125
94068W        W65597  16.891  10.828   2.790
94069W        W65598  18.732  22.499  11.932
94070W        W65599  20.602   1.396  12.501
94071W        W65600  11.949  33.547   1.091
94072W        W65601  25.017   6.425  11.217
94073W        W65602  15.208  34.148   3.075
94074W        W65603   6.040  17.244   5.306
94075W        W65604  40.030  37.874  14.540
94076W        W65605  25.938  18.718  12.920
94077W        W65606  35.847  40.219   4.110
94078W        W65607   8.729  14.756   4.326
94079W        W65608   1.431  32.447   1.362
94080W        W65609  36.842  11.687  12.144
94081W        W65610  40.237  11.611  10.349
94082W        W65611  30.960  19.530   4.523
94083W        W65612  36.922  22.307  13.019
94084W        W65613  43.297  15.991  13.013
94085W        W65614   2.699  42.489  14.424
94086W        W65615  23.530  39.376  13.739
94087W        W65616  17.168  17.713   0.916
94088W        W65617  23.153  10.741  12.731
94089W        W65618  12.412  36.621  14.913
94090W        W65619  14.445  31.478   1.328
94091W        W65620  11.791  16.700   4.112
94092W        W65621  30.124  12.349  12.409
94093W        W65622  36.100  38.551   1.175
94094W        W65623  17.486  13.265  11.277
94095W        W65624   9.800  17.194  10.464
94096W        W65625  36.574   7.958   4.350
94097W        W65626  16.867  13.780  13.988
94098W        W65627  14.988   1.232   1.147
94099W        W65628  32.882   9.205   2.339
94100W        W65629  42.987  29.287  14.635
94101W        W65630  20.742  32.702   3.411
94102W        W65631  30.242   1.043  12.560
94103W        W65632  40.827  33.679   3.247
94104W        W65633  25.472   7.935  13.286
94105W        W65634   8.344  10.103   1.501
94106W        W65635   9.400  41.666   0.734
94107W        W65636   8.689  24.947  10.625
94108W        W65637  25.549  25.006   3.817
94109W        W65638  35.679  25.044   4.776
94110W        W65639  34.726   9.914   3.262
94111W        W65640  30.343  39.260  14.419
94112W        W65641  32.815   2.096  12.006
94113W        W65642   6.213   5.440  13.300
94114W        W65643  15.500  44.855   1.564
94115W        W65644  30.200  18.352  14.897
94116W        W65645   0.312  12.270  14.311
94117W        W65646  31.701   5.932  11.218
94118W        W65647  36.002  11.069   2.322
94119W        W65648   2.788  19.203  13.822
94120W        W65649  41.639  23.318   4.225
94121W        W65650  40.444  25.207   5.098
94122W        W65651   3.668  19.066  12.508
94123W        W65652   4.969  26.915  10.979
94124W        W65653   1.302   0.964   3.742
94125W        W65654  20.150  35.331   0.039
94126W        W65655  18.682  27.695   1.116
94127W        W65656  25.581  23.660   0.789
94128W        W65657  44.800  37.132   1.741
94129W        W65658  32.955  39.149  13.230
94130W        W65659   7.620  43.781   1.246
94131W        W65660  38.363  32.468  12.067
94132W        W65661  23.047  31.493  12.547
94133W        W65662  29.035   5.969  13.418
94134W        W65663  14.995  35.324   1.974
94135W        W65664  16.042   1.238  12.595
94136W        W65665  23.957  23.601   3.726
94137W        W65666  36.341   3.354  14.320
94138W        W65667  15.698   7.060  11.100
94139W        W65668  19.091  39.367   1.204
94140W        W65669  36.106   6.828   1.432
94141W        W65670   2.958  33.356  14.767
94142W        W65671   4.088   3.172   3.274
94143W        W65672   8.239  37.996  12.838
94144W        W65673  42.602  36.469   2.458
94145W        W65674   0.977  12.764   3.386
94146W        W65675  27.767  42.341  10.263
94147W        W65676  35.432  44.336  11.014
94148W        W65677   0.748  17.879  12.748
94149W        W65678  28.003   5.356  10.330
94150W        W65679  23.463  21.769  10.736
94151W        W65680   3.464  27.417  11.460
94152W        W65681  10.940  25.133  13.510
94153W        W65682  29.016  41.774   2.559
94154W        W65683   6.399   3.662  11.601
94155W        W65684  35.626  20.697  13.869
94156W        W65685  14.643  13.951  14.613
94157W        W65686  22.123  34.279   0.978
94158W        W65687  30.404  26.572   2.282
94159W        W65688  23.152  40.303  13.905
94160W        W65689  26.667  17.487  11.935
94161W        W65690  41.390  24.481   4.906
94162W        W65691  27.147  22.969  14.945
94163W        W65692  43.899  40.005   4.727
94164W        W65693  32.795  10.110   2.215
94165W        W65694  24.219  37.806  12.116
94166W        W65695  20.150  11.406   2.475
94167W        W65696  24.490  10.019  10.763
94168W        W65697   9.284  22.323   2.319
94169W        W65698  13.680  28.707   3.833
94170W        W65699  30.683  41.499   3.105
94171W        W65700  23.085  32.929  14.326
94172W        W65701  40.622  19.587  13.834
94173W        W65702  40.418   7.577   9.581
94174W        W65703   9.720  19.627  11.189
94175W        W65704   8.089  20.537   4.090
94176W        W65705  34.157  28.040   4.210
94177W        W65706  42.487  40.165   1.406
94178W        W65707  16.382  28.645  12.620
94179W        W65708  25.970  25.755  13.454
94180W        W65709  12.323  44.689  12.104
94181W        W65710   4.196  29.554   2.774
94182W        W65711  14.723   3.508   4.159
94183W        W65712   2.140  44.802  13.446
94184W        W65713  42.420  40.026   0.297
94185W        W65714  41.042   4.543   2.535
94186W        W65715  12.709  43.584  10.657
94187W        W65716   2.793   4.796   4.271
94188W        W65717  24.461  11.259  12.926
94189W        W65718   1.451  15.171   2.473
94190W        W65719  17.226  27.977   4.708
94191W        W65720  19.356   5.569  14.071
94192W        W65721  24.817   9.270   0.198
94193W        W65722  40.809  37.262   3.258
94194W        W65723   1.440  11.609  14.832
94195W        W65724  33.960   2.705  13.431
94196W        W65725  34.262  36.803  13.277
94197W        W65726  39.485  26.094   0.799
94198W        W65727  22.794  35.573   0.930
94199W        W65728  25.743  32.820  11.166
94200W        W65729  22.816  33.891  10.713
94201W        W65730  32.238  15.120   2.269
94202W        W65731   8.903   7.863   2.216
94203W        W65732  24.068  13.571   2.727
94204W        W65733   7.713  19.507   5.401
94205W        W65734  24.604  15.613  12.061
94206W        W65735  22.625  24.501   3.599
94207W        W65736   3.998  34.577   3.876
94208W        W65737  38.044  11.589   1.702
94209W        W65738   4.728  30.577   3.217
94210W        W65739  28.943  40.045  11.105
94211W        W65740   0.862  21.230   4.561
94212W        W65741  25.192  33.030  12.874
94213W        W65742  38.362  18.588   3.146
94214W        W65743  40.312  44.691   9.747
94215W        W65744  41.872  42.741   4.227
94216W        W65745  40.390   2.724   4.066
94217W        W65746  35.130  43.409   3.989
94218W        W65747  18.348  29.499   1.699
94219W        W65748  24.997  26.446   0.232
94220W        W65749  14.095  34.452   1.548
94221W        W65750  21.543  18.757   0.920
94222W        W65751  32.872   5.759   0.310
94223W        W65752  19.724   8.308  13.111
94224W        W65753  43.876  40.715  10.843
94225W        W65754  27.343   4.948   0.377
94226W        W65755  30.902  30.383  13.972
94227W        W65756  44.844  13.132  11.611
94228W        W65757  44.730  33.846  12.130
94229W        W65758  37.025  13.268  11.221
94230W        W65759   7.462  21.461   0.311
94231W        W65760  12.632  38.089   3.712
94232W        W65761  24.364  43.690  12.074
94233W        W65762  44.432  19.026   3.609
94234W        W65763  18.680  26.991   2.815
94235W        W65764   8.263  11.995   2.002
94236W        W65765   7.221  19.035   1.850
94237W        W65766  37.285  23.876  10.318
94238W        W65767  39.809   1.582   1.822
94239W        W65768  41.609  23.563   4.671
94240W        W65769  20.892  37.073  11.706
94241W        W65770  32.592  23.794   4.467
94242W        W65771   4.760  20.947   2.266
94243W        W65772  20.747   2.310   0.464
94244W        W65773  28.948  35.784  14.285
94245W        W65774  32.618   3.850  11.889
94246W        W65775  10.315  39.422  12.824
94247W        W65776   0.539  38.498   0.730
94248W        W65777  31.184  31.921   0.538
94249W        W65778  43.382  17.592   3.719
94250W        W65779  23.768  26.727   2.337
94251W        W65780  34.465  44.531   3.696
94252W        W65781  27.390  17.937  12.069
94253W        W65782   9.240   6.863  10.687
94254W        W65783   6.572  18.896   4.421
94255W        W65784  44.509  38.303  13.860
94256W        W65785   7.912   2.429   2.618
94257W        W65786  25.515  16.820   3.737
94258W        W65787  37.556  39.579  14.358
94259W        W65788  35.629  24.926  12.394
94260W        W65789  28.603  10.218   1.268
94261W        W65790  27.143   2.333   3.164
94262W        W65791  13.838  21.619  13.874
94263W        W65792  27.559  14.069  14.374
94264W        W65793  32.576  21.215  10.362
94265W        W65794  43.442   1.355   3.931
94266W        W65795  23.235   4.615  13.743
94267W        W65796  23.444  35.110  14.569
94268W        W65797  25.416  41.299   2.765
94269W        W65798  20.335  35.966   3.720
94270W        W65799  31.540  16.808  13.369
94271W        W65800  22.024  30.624   0.486
94272W        W65801  24.607  14.791  12.574
94273W        W65802   2.826   8.146  12.970
94274W        W65803  22.414  20.690  11.668
94275W        W65804  19.069  36.427   3.807
94276W        W65805  28.477  40.059   4.100
94277W        W65806  17.248  14.185  12.682
94278W        W65807  22.582   2.324   4.906
94279W        W65808   5.925  33.443   1.222
94280W        W65809  26.044  25.662   1.325
94281W        W65810  24.074  34.624   3.262
94282W        W65811   2.893  23.786   2.852
94283W        W65812  18.703  19.674   3.892
94284W        W65813  37.409  15.981  12.588
94285W        W65814  21.224  13.619  10.341
94286W        W65815  39.366  28.638  10.822
94287W        W65816  43.092  14.319   4.095
94288W        W65817  15.338  18.308  13.061
94289W        W65818  34.349  19.027   4.105
94290W        W65819  11.267  11.710  11.060
94291W        W65820  21.681  11.862  12.869
94292W        W65821  35.473  12.884  14.403
94293W        W65822   0.390  11.346   1.774
94294W        W65823  33.506   8.651   1.971
94295W        W65824  12.710   4.987  13.437
94296W        W65825  38.322   3.378  11.996
94297W        W65826   3.961   0.728  13.995
94298W        W65827  40.785  44.746   4.243
94299W        W65828  25.223  42.568  12.499
94300W        W65829   1.763  33.675   2.536
94301W        W65830  24.819  26.179   1.819
94302W        W65831  23.446   6.513  13.404
94303W        W65832  33.772  37.993   2.257
94304W        W65833   4.210   3.804  11.204
94305W        W65834  14.107  20.206  12.052
94306W        W65835  41.467  35.490  12.939
94307W        W65836  39.918  13.645  13.584
94308W        W65837   0.605  22.768  14.485
94309W        W65838   8.502  44.286   4.962
94310W        W65839  20.571  20.339   3.735
94311W        W65840  43.420  42.002  13.397
94312W        W65841  15.102  33.083  11.082
94313W        W65842  13.813   1.750   3.243
94314W        W65843  22.361  32.211  12.187
94315W        W65844  17.631  21.100  13.768
94316W        W65845  17.123  23.607  11.044
94317W        W65846  39.334  26.114  13.544
94318W        W65847  25.249   9.202   3.707
94319W        W65848  41.294  19.116   3.342
94320W        W65849  34.806   8.266  14.289
94321W        W65850   6.998   7.611  14.259
94322W        W65851  27.471   0.668   1.749
94323W        W65852  21.226   2.410   0.698
94324W        W65853   7.304   3.706   3.169
94325W        W65854  31.008  12.033   1.840
94326W        W65855  43.081  21.605  13.605
94327W        W65856  21.797  37.558   2.445
94328W        W65857  34.627  41.028  12.757
94329W        W65858  39.031   8.495  12.024
94330W        W65859  32.360  13.239  12.995
94331W        W65860  36.810  20.565   1.867
94332W        W65861  15.161  27.737   2.239
94333W        W65862  30.193  34.813   0.877
94334W        W65863   0.417  30.238  12.485
94335W        W65864   4.767  33.323  10.472
94336W        W65865  25.780  24.252   0.377
94337W        W65866   7.335  21.576   2.874
94338W        W65867  36.953   5.898   0.897
94339W        W65868  24.666  36.142   0.305
94340W        W65869  15.649  40.413  13.977
94341W        W65870  15.892  18.161   9.936
94342W        W65871  20.668  37.344  11.317
94343W        W65872  39.361  43.933  12.804
94344W        W65873  32.856  31.759   2.409
94345W        W65874   9.161  15.771   3.316
94346W        W65875  44.267  10.791  14.157
94347W        W65876  29.460  25.439   2.848
94348W        W65877  24.709  27.515  10.666
94349W        W65878  38.257  29.629  13.457
94350W        W65879  44.598   4.390  14.335
94351W        W65880  35.551  25.110   4.272
94352W        W65881  22.426  14.158   1.532
94353W        W65882  27.721  25.176   1.402
94354W        W65883  16.218  10.807   5.407
94355W        W65884  28.639   1.556   4.855
94356W        W65885  15.179  37.876  11.337
94357W        W65886  30.063   6.613  14.876
94358W        W65887  29.209   2.788  13.886
94359W        W65888  17.312  16.257  12.446
94360W        W65889  33.029  39.504  12.234
94361W        W65890  17.105  19.252  13.313
94362W        W65891  20.092  30.677   0.197
94363W        W65892   8.009  19.729   1.885
94364W        W65893  28.888  33.560   2.900
94365W        W65894  32.009  11.810   0.763
94366W        W65895   9.107   1.888  12.046
94367W        W65896   1.782   2.269  10.554
94368W        W65897  25.641   7.114   2.217
94369W        W65898  20.024  35.360   1.818
94370W        W65899  13.905   6.560  11.668
94371W        W65900  32.133  16.758  11.588
94372W        W65901  34.703  13.587  13.439
94373W        W65902  24.411  39.476   2.450
94374W        W65903  42.869  17.843  14.881
94375W        W65904  25.406   9.538  13.344
94376W        W65905  34.984  34.868   3.623
94377W        W65906  44.488  40.373  14.790
94378W        W65907  41.343   0.859   3.912
94379W        W65908   0.309  16.339   1.279
94380W        W65909  16.813   7.257   3.159
94381W        W65910  16.300   0.856   0.921
94382W        W65911  38.533  15.125   2.420
94383W        W65912   3.268  34.885  12.480
94384W        W65913  11.097   1.208  14.924
94385W        W65914   8.677  11.303  11.280
94386W        W65915  30.915   7.654  11.456
94387W        W65916   1.002  30.328   1.395
94388W        W65917   5.365  31.590  11.560
94389W        W65918  11.066  33.852  14.435
94390W        W65919  38.163  22.479  13.479
94391W        W65920  40.841  31.222  13.553
94392W        W65921  42.315  25.527   3.859
94393W        W65922  44.370  22.601  14.914
94394W        W65923  44.415  15.554  13.828
94395W        W65924  30.143  30.137   0.450
94396W        W65925  18.134  43.409   2.483
94397W        W65926  11.690  42.355   1.335
94398W        W65927  32.002  33.928   2.419
94399W        W65928  35.935   2.964  13.479
94400W        W65929  16.915  19.555  11.093
94401W        W65930  24.544  20.244  14.320
94402W        W65931  40.570  40.477  10.719
94403W        W65932  40.488  16.883   1.781
94404W        W65933  31.941  19.930  10.668
94405W        W65934  25.128  21.707  13.504
94406W        W65935  29.360  25.344  11.114
94407W        W65936  11.229   9.976  10.777
94408W        W65937  15.662   6.442   3.766
94409W        W65938  22.033   3.320  11.657
94410W        W65939  42.879  44.355  12.122
94411W        W65940   1.340   6.978  14.511
94412W        W65941  18.106  20.062   0.054
94413W        W65942  34.514  21.735   2.352
94414W        W65943  36.499  25.363  10.337
94415W        W65944  39.103  42.003  10.666
94416W        W65945  27.974  16.274   2.404
94417W        W65946  29.483  42.327   0.328
94418W        W65947  32.222  32.655  14.277
94419W        W65948   4.618  15.129   0.234
94420W        W65949   5.261  22.276  10.792
94421W        W65950  18.743  37.147   0.947
94422W        W65951   5.910   0.860  13.903
94423W        W65952  25.073   9.385   3.232
94424W        W65953   3.030  20.526   3.110
94425W        W65954  39.405  26.244   2.306
94426W        W65955   7.051  16.770   0.985
94427W        W65956   9.166  32.446  11.985
94428W        W65957  15.093   5.929   4.655
94429W        W65958   3.954  17.166  14.058
94430W        W65959  40.627  39.912  11.904
94431W        W65960  24.386   5.643   3.683
94432W        W65961   3.328  14.899  12.418
94433W        W65962  18.293   1.924   2.897
94434W        W65963  20.171  31.899   3.133
94435W        W65964  14.656  11.645   1.791
94436W        W65965  13.604  22.718   1.708
94437W        W65966  14.178  33.725   4.447
94438W        W65967  10.827  14.844  13.996
94439W        W65968  17.777  40.865  10.743
94440W        W65969  16.001   9.146   0.672
94441W        W65970  10.692  15.025   1.622
94442W        W65971   5.406  41.448  11.224
94443W        W65972  11.811   7.740  13.429
94444W        W65973  41.477  41.476   2.369
94445W        W65974  25.571   6.441   3.792
94446W        W65975   2.471  12.205   4.107
94447W        W65976  33.790  25.812   3.155
94448W        W65977  15.628  43.884  10.825
94449W        W65978  25.547  40.885  14.216
94450W        W65979  33.471  27.067  14.413
94451W        W65980   8.376  26.612   4.238
94452W        W65981  32.596  35.058  12.033
94453W        W65982  22.488   8.254  14.876
94454W        W65983  27.510  44.412   2.964
94455W        W65984  44.646  32.093   1.650
94456W        W65985  18.521  12.519   2.790
94457W        W65986  15.104  44.329  11.705
94458W        W65987  40.401  27.935  12.489
94459W        W65988  30.846   4.290  11.290
94460W        W65989  28.089  11.835   3.650
94461W        W65990  22.534  15.173   1.343
94462W        W65991   7.015  25.218   1.425
94463W        W65992  32.970  41.261   0.757
94464W        W65993  35.096  41.029   3.240
94465W        W65994  21.344  43.922   3.270
94466W        W65995  29.996   5.907   2.830
94467W        W65996  17.795  16.635  14.569
94468W        W65997  28.732   2.204  11.472
94469W        W65998  17.605  42.368  11.669
94470W        W65999  28.979  16.774   3.775
94471W        W66000   3.176  19.194  12.550
94472W        W66001  37.798  21.297   0.529
94473W        W66002  15.228   9.951   1.758
94474W        W66003  21.042  36.139  13.895
94475W        W66004  44.605   8.162   2.837
94476W        W66005  35.490  37.791   4.752
94477W        W66006  38.442  36.866  14.435
94478W        W66007  26.242  16.768   0.757
94479W        W66008   8.201   8.686  14.411
94480W        W66009  40.896  22.128  14.480
94481W        W66010   1.073  30.798   0.173
94482W        W66011  38.473   7.754   3.188
94483W        W66012  15.819  42.484  10.762
94484W        W66013  33.495  18.147  10.638
94485W        W66014  40.337  42.494  13.497
94486W        W66015   3.762  25.927   4.557
94487W        W66016  14.002  40.494  13.873
94488W        W66017   3.228  30.875  14.928
94489W        W66018  15.238  28.493  14.916
94490W        W66019  19.826  24.716  11.651
94491W        W66020  41.323  43.447  12.539
94492W        W66021  33.551   9.091   3.436
94493W        W66022   3.564  37.017   3.658
94494W        W66023   0.479  16.092  14.909
94495W        W66024  44.093  38.860  12.580
94496W        W66025  21.201   2.545  13.747
94497W        W66026  12.856  29.380  12.954
94498W        W66027   5.608  35.780   2.392
94499W        W66028  29.618  38.941  10.748
94500W        W66029  30.514   0.431  11.209
94501W        W66030  15.799   0.913  14.455
94502W        W66031  35.338  10.556  14.230
94503W        W66032  43.300   1.467  13.429
94504W        W66033   7.270   1.912  11.436
94505W        W66034  31.278  35.930   5.068
94506W        W66035   9.480   6.908  13.869
94507W        W66036  33.420  10.547   3.117
94508W        W66037  32.444  31.696   1.226
94509W        W66038  14.746  27.638  11.940
94510W        W66039  18.789  34.015   1.758
94511W        W66040  41.543   5.661  13.381
94512W        W66041  36.390   7.694  11.198
94513W        W66042  31.631   6.945  14.437
94514W        W66043  16.089  42.068   3.780
94515W        W66044  36.577  44.338  12.924
94516W        W66045   2.414  11.810  13.061
94517W        W66046   9.137   2.641   1.215
94518W        W66047   7.376  15.642   3.758
94519W        W66048  32.092   0.218  13.811
94520W        W66049  40.584   8.844   2.273
94521W        W66050  13.252  32.332   1.183
94522W        W66051  35.837   1.223   0.830
94523W        W66052   1.882  23.977  13.733
94524W        W66053  44.929   7.251   2.468
94525W        W66054  41.942   0.058  14.489
94526W        W66055   8.779  20.515   4.855
94527W        W66056  20.238   3.392  14.468
94528W        W66057   7.418  39.080   4.511
94529W        W66058  25.499  24.164   2.697
94530W        W66059   0.769  39.612  12.886
94531W        W66060  19.551  12.839   2.852
94532W        W66061  22.283  37.487   2.592
94533W        W66062  25.018  19.569  13.778
94534W        W66063  16.148  40.330  11.517
94535W        W66064   6.611  11.817  14.555
94536W        W66065  17.377  13.668   1.720
94537W        W66066  40.672  37.412  10.091
94538W        W66067  23.085  22.578  11.388
94539W        W66068  18.994   8.596  11.284
94540W        W66069  13.756  18.064   2.675
94541W        W66070  44.259  42.389   3.722
94542W        W66071  41.014   0.311  12.767
94543W        W66072  34.361  18.300  14.847
94544W        W66073  24.918  34.151  12.134
94545W        W66074  41.458  11.533  13.418
94546W        W66075  15.501  10.671   3.138
94547W        W66076  32.233  23.461   3.784
94548W        W66077  28.963   3.489   1.317
94549W        W66078  21.118  40.234   0.421
94550W        W66079  35.627   6.616   1.429
94551W        W66080  31.529   5.837   0.455
94552W        W66081   2.663   7.450   4.561
94553W        W66082  38.085  20.652  11.598
94554W        W66083  44.453  32.660  13.371
94555W        W66084  31.080  39.045   1.449
94556W        W66085  12.224  35.976  12.527
94557W        W66086  39.447   8.585   1.755
94558W        W66087  25.647  33.780  12.916
94559W        W66088  38.168   0.818  10.598
94560W        W66089  27.400  27.059   1.223
94561W        W66090  11.334  13.005  14.903
94562W        W66091  18.039  43.263   0.158
94563W        W66092  19.031  35.801   2.641
94564W        W66093   1.468  13.369   2.655
94565W        W66094  42.080  18.206  10.467
94566W        W66095   4.488  22.090   3.451
94567W        W66096  20.860   4.860   0.270
94568W        W66097  24.005  36.801   0.435
94569W        W66098  44.820   9.984   3.569
94570W        W66099  40.922  13.660   3.232
94571W        W66100  17.874  31.389   1.290
94572W        W66101  37.074  37.019   2.360
94573W        W66102  26.674   5.572   2.382
94574W        W66103   1.768   7.479  11.096
94575W        W66104  36.343  41.861  13.637
94576W        W66105  44.267  11.541   2.324
94577W        W66106  42.328  27.087  11.809
94578W        W66107   0.722   4.978  11.585
94579W        W66108  16.295  28.514   2.260
94580W        W66109  40.485  22.710   4.565
94581W        W66110  11.834  42.826  11.088
94582W        W66111  37.056  20.585   3.562
94583W        W66112  29.057  29.671   3.699
94584W        W66113  36.411  16.503  14.891
94585W        W66114  44.609  17.492  10.188
94586W        W66115  30.449  37.949  11.147
94587W        W66116  27.865  30.454  11.587
94588W        W66117  12.793  29.930   3.456
94589W        W66118  24.429  19.564   3.705
94590W        W66119  37.711  28.344   4.503
94591W        W66120   1.732   8.127   0.440
94592W        W66121  25.813  33.464  11.305
94593W        W66122  32.139  18.030   1.373
94594W        W66123  14.195   1.269  12.355
94595W        W66124  21.754  33.108   0.314
94596W        W66125   4.142  10.849  13.548
94597W        W66126   5.450   7.456  12.480
94598W        W66127  20.979  12.584   1.357
94599W        W66128  10.201  32.842  14.871
94600W        W66129   2.533  29.565   3.878
94601W        W66130  27.981   5.952   1.175
94602W        W66131  29.623  23.088   3.510
94603W        W66132   9.507  31.111   4.675
94604W        W66133  30.002   7.448   2.668
94605W        W66134  41.667   3.969   2.103
94606W        W66135   2.312  43.121   5.150
94607W        W66136  37.058   5.304  13.723
94608W        W66137  26.652   6.108   2.121
94609W        W66138  35.508  32.210  11.518
94610W        W66139  41.502  19.151  11.421
94611W        W66140  18.365  13.898   0.256
94612W        W66141   4.204  29.670  13.615
94613W        W66142   7.669  33.033   3.327
94614W        W66143  11.433   4.938  12.698
94615W        W66144  18.329   3.212  10.658
94616W        W66145  20.032  43.277  10.440
94617W        W66146  13.997  31.166   3.314
94618W        W66147  44.738  17.716   0.743
94619W        W66148   2.785  43.790   3.367
94620W        W66149  40.231  20.055   3.318
94621W        W66150  20.052  31.494   3.630
94622W        W66151  31.404  12.875  14.721
94623W        W66152   3.167  35.916  11.446
94624W        W66153  21.317  37.646  14.928
94625W        W66154   5.974  38.419   0.914
94626W        W66155  41.306   5.336  10.547
94627W        W66156  29.543   0.419   0.860
94628W        W66157  41.049  30.903   0.446
94629W        W66158  10.706  41.518   4.803
94630W        W66159   5.826   3.944   2.252
94631W        W66160  37.188   0.724   1.631
94632W        W66161  44.743  41.257   4.676
94633W        W66162  30.177   3.924   0.663
94634W        W66163  28.611  38.890  14.769
94635W        W66164  21.755  14.731   2.531
94636W        W66165  11.265  44.014   1.787
94637W        W66166  15.910   8.697  11.565
94638W        W66167   2.451  34.163   4.111
94639W        W66168  13.298  38.929   2.305
94640W        W66169  22.738  20.314   1.322
94641W        W66170  21.639  41.985  12.138
94642W        W66171  21.332  31.731  11.481
94643W        W66172   9.458  28.362  11.072
94644W        W66173  19.633  11.807  14.934
94645W        W66174  30.560  11.610  12.626
94646W        W66175  44.039  22.766  13.929
94647W        W66176  16.660  36.813  10.737
94648W        W66177  11.875  36.192   5.155
94649W        W66178  20.699  24.119  10.702
94650W        W66179  22.152  35.560   4.184
94651W        W66180  25.776  35.655  14.330
94652W        W66181  34.596  17.260  12.515
94653W        W66182   8.605  40.004   4.374
94654W        W66183  39.855  15.225   0.437
94655W        W66184  36.047  18.426   1.798
94656W        W66185   5.357  20.637  10.710
94657W        W66186  15.781  39.447   2.810
94658W        W66187  25.487   1.267  10.501
94659W        W66188  38.989  16.546   2.747
94660W        W66189  43.151   8.711   4.990
94661W        W66190  44.557  33.572   1.797
94662W        W66191  43.527   1.900   0.277
94663W        W66192  31.391   6.685  11.655
94664W        W66193  37.638  25.117  14.424
94665W        W66194  44.905  42.578  11.465
94666W        W66195  13.725  10.223  12.938
94667W        W66196  18.965  17.228   3.419
94668W        W66197  14.296  21.248   3.829
94669W        W66198   0.486  42.387  14.986
94670W        W66199  12.149   1.499  11.560
94671W        W66200   8.133  37.807   2.358
94672W        W66201  37.352  43.796   0.085
94673W        W66202   7.107  22.781  11.414
94674W        W66203  23.564   1.797  10.739
94675W        W66204  11.542   3.220  14.589
94676W        W66205  35.549   2.908  12.060
94677W        W66206   4.243  15.416   2.485
94678W        W66207   4.287  30.883  10.290
94679W        W66208  13.641  11.850  14.277
94680W        W66209  23.833  23.593  14.285
94681W        W66210  13.512  31.559   2.668
94682W        W66211  21.597   5.634  14.418
94683W        W66212  11.509  26.302  14.683
94684W        W66213  23.324  26.758  11.665
94685W        W66214  18.505  30.626  12.105
94686W        W66215  26.611   7.881   3.689
94687W        W66216   3.969  34.928   3.208
94688W        W66217  32.084  11.725   4.574
94689W        W66218  12.791  39.947  13.654
94690W        W66219   3.778  25.216   0.351
94691W        W66220   1.865   2.970  12.162
94692W        W66221   2.268  13.337  12.106
94693W        W66222   3.926   2.003   1.232
94694W        W66223   5.688  11.988   3.595
94695W        W66224  30.511  44.928  10.937
94696W        W66225  38.615  25.450  13.956
94697W        W66226  39.971  15.327   3.018
94698W        W66227   4.717   2.166  11.080
94699W        W66228  43.423  18.022   2.797
94700W        W66229  33.961  42.580   2.000
94701W        W66230  40.270  26.043  13.131
94702W        W66231  34.494  32.409  12.577
94703W        W66232  31.512  41.994  11.534
94704W        W66233  15.160  37.302  14.952
94705W        W66234   7.897  31.597   0.504
94706W        W66235  23.582  16.668   3.321
94707W        W66236   2.174  12.699   4.652
94708W        W66237   1.176  28.076   1.865
94709W        W66238  31.653   3.510  13.907
94710W        W66239  28.717   4.763  14.896
94711W        W66240  42.443  31.169  11.041
94712W        W66241   8.408  35.696   0.884
94713W        W66242  38.825  41.425  13.527
94714W        W66243  18.290  13.013   1.248
94715W        W66244   6.137  37.489   4.078
94716W        W66245   1.747  29.422  13.738
94717W        W66246   2.654  17.794   1.610
94718W        W66247  35.249   4.873  12.601
94719W        W66248   4.687  19.111   1.789
94720W        W66249  44.898  35.812  11.308
94721W        W66250  27.852   4.324  12.772
94722W        W66251   6.790  43.302   4.056
94723W        W66252   6.637  10.815  13.340
94724W        W66253  38.014  11.613  12.388
94725W        W66254  12.140  31.921  13.899
94726W        W66255  33.534  15.767   2.174
94727W        W66256   2.998   4.791   4.739
94728W        W66257  26.592  35.947  14.292
94729W        W66258  43.830  24.748  10.480
94730W        W66259  17.705   7.593  11.181
94731W        W66260  29.936  31.124  13.034
94732W        W66261  40.682  15.944   4.254
94733W        W66262  27.950  22.261   0.303
94734W        W66263  14.280  27.913  12.650
94735W        W66264  22.545  17.631   2.171
94736W        W66265   7.622  20.685   1.168
94737W        W66266  21.123  11.941   3.706
94738W        W66267  21.592  32.640  10.779
94739W        W66268  27.074  32.969   1.331
94740W        W66269  34.677  17.977  12.957
94741W        W66270  22.338  14.258  12.359
94742W        W66271  30.385  34.613  10.685
94743W        W66272  20.669  41.079  11.056
94744W        W66273  23.092  12.378   0.511
94745W        W66274   0.458  12.919   1.854
94746W        W66275  27.972  13.355  10.730
94747W        W66276  34.426  35.286  13.899
94748W        W66277   2.403  16.336  13.530
94749W        W66278   5.457  38.482   0.922
94750W        W66279  24.139  42.533  12.952
94751W        W66280  14.001  17.054   0.932
94752W        W66281  35.402  28.452   2.515
94753W        W66282   0.900   9.769  10.740
94754W        W66283  22.296   7.968  11.874
94755W        W66284  19.202  40.963   4.316
94756W        W66285   6.635  19.541  13.488
94757W        W66286  31.981   2.486  13.814
94758W        W66287   9.755   4.116   0.716
94759W        W66288   9.256  26.787   3.087
94760W        W66289   5.609   7.157   4.074
94761W        W66290  13.789  44.297  10.453
94762W        W66291   7.175  23.023  12.970
94763W        W66292   2.590  28.100   1.783
94764W        W66293  27.018   2.709   0.336
94765W        W66294   4.865  11.464  13.861
94766W        W66295  27.975  43.894  10.626
94767W        W66296  21.204  42.445   0.808
94768W        W66297  43.695   5.432   4.303
94769W        W66298  20.633  34.321   1.184
94770W        W66299  17.200  26.239  13.506
94771W        W66300  20.096  32.488  11.552
94772W        W66301  36.639  10.871  14.074
94773W        W66302  37.232   9.133   0.770
94774W        W66303  44.954   7.781  11.832
94775W        W66304  29.097  14.344   0.529
94776W        W66305  19.940  24.841  12.147
94777W        W66306  39.528  39.531   3.807
94778W        W66307  21.207   7.050  11.702
94779W        W66308   0.832   5.649  10.962
94780W        W66309  20.725   5.327  14.317
94781W        W66310  25.215  16.179   0.943
94782W        W66311  11.652  24.326  13.329
94783W        W66312   2.672  30.428  14.236
94784W        W66313  16.266  22.658   3.301
94785W        W66314   5.540  30.428  14.458
94786W        W66315   1.687  11.734   4.183
94787W        W66316   8.128  33.582  12.092
94788W        W66317  37.429  17.092   3.169
94789W        W66318  41.341  13.921  13.889
94790W        W66319  43.947  25.683   2.672
94791W        W66320  26.205   7.741  12.172
94792W        W66321  18.705   1.973  14.303
94793W        W66322  35.973  31.895  14.512
94794W        W66323   6.605  26.209  13.484
94795W        W66324  11.814  20.695   3.829
94796W        W66325  35.067  44.453   0.762
94797W        W66326  12.236  39.494  13.402
94798W        W66327  29.262  12.864   3.257
94799W        W66328   9.243  27.484  11.463
94800W        W66329  20.040  29.220  13.475
94801W        W66330   5.266   0.424   0.446
94802W        W66331  11.136  12.374   2.343
94803W        W66332  30.133   0.215  12.945
94804W        W66333  41.480  40.984  13.312
94805W        W66334   4.764  44.569  12.578
94806W        W66335  37.199  31.914   1.927
94807W        W66336  39.404  34.633   1.057
94808W        W66337   1.094  34.523  12.970
94809W        W66338   8.101  29.125  14.367
94810W        W66339  26.768  36.516   1.765
94811W        W66340  29.869  44.871   1.748
94812W        W66341   1.396   5.942  14.480
94813W        W66342   3.124   0.338  13.018
94814W        W66343   2.904   3.791   2.796
94815W        W66344   5.444   8.217   1.309
94816W        W66345  20.140  31.539   2.208
94817W        W66346  15.798  40.410   2.790
94818W        W66347  26.114  21.548   1.977
94819W        W66348  36.504   0.270  13.000
94820W        W66349  28.638   8.288  11.675
94821W        W66350  19.024  43.726   2.838
94822W        W66351  28.131  31.629  14.976
94823W        W66352  18.053  27.520  12.953
94824W        W66353   9.749  33.475  13.889
94825W        W66354  43.797  43.813   2.619
94826W        W66355  29.321   1.755  13.330
94827W        W66356  11.358  38.255   2.674
94828W        W66357   9.294   9.294  10.715
94829W        W66358  11.522   4.935  10.361
94830W        W66359  27.579  37.236   0.539
94831W        W66360  13.678  32.142   1.457
94832W        W66361  27.152  26.117   1.716
94833W        W66362  40.432  44.683  12.053
94834W        W66363  31.890   5.973   3.817
94835W        W66364  27.153  23.761   1.536
94836W        W66365  28.062   3.707  11.143
94837W        W66366  11.475  11.147   2.431
94838W        W66367  21.935  33.008  13.780
94839W        W66368  44.149  19.508   1.724
94840W        W66369   9.019   2.456   5.012
94841W        W66370  33.538  22.578   1.315
94842W        W66371  25.148   7.695   1.729
94843W        W66372  12.021   6.281  14.861
94844W        W66373  44.008   2.365  13.293
94845W        W66374  42.040  16.819  11.626
94846W        W66375  23.569  21.725   0.865
94847W        W66376   7.899  38.308  14.916
94848W        W66377  10.821  42.112   2.743
94849W        W66378  12.837  41.336  14.010
94850W        W66379  42.065   0.446   4.282
94851W        W66380  28.376  35.908   4.124
94852W        W66381  11.572  18.546  12.972
94853W        W66382   3.142  10.646   4.190
94854W        W66383  22.200  38.579  13.394
94855W        W66384  27.117   1.703  10.516
94856W        W66385  32.920  20.797  14.897
94857W        W66386  27.592   7.343   3.723
94858W        W66387  40.337  30.185  13.413
94859W        W66388   1.427  34.799   0.841
94860W        W66389  30.916  32.118   2.822
94861W        W66390  41.848  26.552   2.227
94862W        W66391  27.967  24.836   5.121
94863W        W66392  28.258   4.357  13.765
94864W        W66393  20.230  44.462   3.055
94865W        W66394  30.858   9.606  12.451
94866W        W66395  23.819  43.274   4.390
94867W        W66396  37.372  12.120  14.091
94868W        W66397  17.173  10.663  11.650
94869W        W66398   9.184  21.642  14.757
94870W        W66399  25.947  11.655  14.564
94871W        W66400  13.585  12.234  11.387
94872W        W66401  44.388  12.571  11.591
94873W        W66402   2.800  31.953   0.412
94874W        W66403  22.651  14.383  12.738
94875W        W66404  34.838  39.413   4.962
94876W        W66405   5.678  11.087   3.746
94877W        W66406  23.639  31.951   1.205
94878W        W66407  36.000  17.856   2.303
94879W        W66408  27.846   2.230  13.028
94880W        W66409  43.485  22.082   3.804
94881W        W66410  10.416   3.826   0.283
94882W        W66411   2.454  29.059   1.427
94883W        W66412  29.433  42.523  11.626
94884W        W66413  14.909   1.411   3.806
94885W        W66414  25.978  13.320  13.493
94886W        W66415  26.065  12.076  11.573
94887W        W66416  31.359  42.446  14.572
94888W        W66417  17.663  20.930  13.274
94889W        W66418  13.235   3.369  11.999
94890W        W66419  29.374   3.467   4.177
94891W        W66420  17.625  31.934   1.887
94892W        W66421  35.474  38.825   2.396
94893W        W66422  26.473   6.893   1.022
94894W        W66423  29.262  25.282  11.990
94895W        W66424  32.297  44.808  12.372
94896W        W66425  32.158  37.004   0.321
94897W        W66426  30.721  17.479  10.189
94898W        W66427  39.867  18.844   0.713
94899W        W66428  12.883  42.975   2.166
94900W        W66429  35.072  16.821  14.317
94901W        W66430  26.239   3.277   0.225
94902W        W66431  24.036  43.384   3.697
94903W        W66432   0.307   4.211  14.000
94904W        W66433  40.067  33.912  13.542
94905W        W66434  19.078  28.765   4.099
94906W        W66435  12.614  24.839   3.066
94907W        W66436  30.330  21.024  13.807
94908W        W66437  33.518  18.051   3.214
94909W        W66438  29.648  28.172  10.698
94910W        W66439  33.930  27.578   0.170
94911W        W66440   7.137  34.063   1.148
94912W        W66441  25.105  43.535  12.641
94913W        W66442  36.300   1.770  10.710
94914W        W66443  30.122   2.805   1.449
94915W        W66444   2.231   1.505   1.341
94916W        W66445  34.472  28.408  14.851
94917W        W66446  11.366  28.552   2.870
94918W        W66447  10.880  34.853   4.519
94919W        W66448  22.493  27.891  12.127
94920W        W66449  10.216  15.647  10.362
94921W        W66450  24.500   4.386   3.254
94922W        W66451  43.871  20.802   2.860
94923W        W66452  13.390  26.445  11.116
94924W        W66453  23.246   9.085  11.482
94925W        W66454  39.235  15.121   1.915
94926W        W66455   4.387  32.961  13.101
94927W        W66456  27.117  36.915   2.870
94928W        W66457  29.463  34.568  13.857
94929W        W66458  27.651  22.012   0.665
94930W        W66459  18.785  26.795  10.635
94931W        W66460  30.471  44.247   3.963
94932W        W66461  44.923   0.546  11.107
94933W        W66462  24.473   6.221   3.168
94934W        W66463   3.303  35.592   1.744
94935W        W66464   0.959  14.273   2.774
94936W        W66465  13.049  26.014   3.339
94937W        W66466  36.134  42.777   0.825
94938W        W66467  30.076  27.161   0.462
94939W        W66468  33.512  16.526   4.637
94940W        W66469  23.699   1.513   0.442
94941W        W66470  12.023  26.299  11.927
94942W        W66471  26.574  19.547  13.039
94943W        W66472  15.339  24.945   0.825
94944W        W66473  38.010   9.369  12.906
94945W        W66474  21.018   8.661  12.556
94946W        W66475   6.559  42.743   2.881
94947W        W66476  37.965   2.388   4.113
94948W        W66477  21.512   3.274  11.636
94949W        W66478  12.972  17.632   0.392
94950W        W66479  17.975  42.748   3.837
94951W        W66480  32.235  43.821   4.071
94952W        W66481  13.252  21.116   2.862
94953W        W66482   8.881  27.488  10.663
94954W        W66483  42.818  14.390   1.286
94955W        W66484  25.012   3.529   1.858
94956W        W66485   6.036  30.950   0.523
94957W        W66486  15.091   8.291   3.894
94958W        W66487   7.475  30.797  13.625
94959W        W66488   4.325  33.657  10.510
94960W        W66489  36.859  16.837   3.187
94961W        W66490  20.520  33.612  14.464
94962W        W66491   0.343   0.046  13.837
94963W        W66492  10.736  23.017  10.703
94964W        W66493  39.592  22.395   3.274
94965W        W66494  26.203   6.270   2.333
94966W        W66495  34.532   4.428   3.945
94967W        W66496  13.135  13.484  11.495
94968W        W66497  18.611   2.369  11.026
94969W        W66498  15.908  28.618   9.849
94970W        W66499  20.526  10.091   2.089
94971W        W66500   0.211  15.056  11.611
94972W        W66501  24.013  32.939  14.921
94973W        W66502  15.477  24.046   3.566
94974W        W66503  36.410  18.822   2.189
94975W        W66504  42.298  10.134   0.219
94976W        W66505  20.012  10.331  13.887
94977W        W66506  20.743  43.590   3.260
94978W        W66507   9.390  13.706   2.457
94979W        W66508  15.260   0.736  14.851
94980W        W66509   7.948  35.598   2.170
94981W        W66510  15.427   9.771   2.209
94982W        W66511  25.390  13.675   3.212
94983W        W66512   1.155  25.601   9.717
94984W        W66513   0.235  20.288  13.440
94985W        W66514  39.812  35.578   2.829
94986W        W66515  13.683   5.216  13.451
94987W        W66516  31.935  23.295  12.516
94988W        W66517  42.265  42.317   0.306
94989W        W66518  32.537   4.951   3.306
94990W        W66519   6.282  32.905   3.802
94991W        W66520  15.540  27.542  10.043
94992W        W66521   3.133   1.522  13.507
94993W        W66522  10.598  27.631   2.246
94994W        W66523   3.761  40.809   1.347
94995W        W66524  39.765  37.856  14.047
94996W        W66525  31.155  28.055  13.397
94997W        W66526   1.382   7.353  10.748
94998W        W66527  35.275   1.784  12.903
94999W        W66528  34.397  41.838   2.921
95000W        W66529  42.464  41.591   2.571
95001W        W66530   8.728   7.267  13.598
95002W        W66531  22.731  17.313   3.515
95003W        W66532  44.425  37.506  14.481
95004W        W66533   4.877   6.277  14.022
95005W        W66534   6.086  28.520  12.163
95006W        W66535  31.837  22.182  13.695
95007W        W66536  38.345  23.283   1.118
95008W        W66537  35.183  29.139  14.082
95009W        W66538   3.968  23.596   1.335
95010W        W66539  20.051  41.262  14.037
95011W        W66540  18.926  17.854  11.541
95012W        W66541  37.706  29.624  13.498
95013W        W66542   7.806   0.826   2.011
95014W        W66543  29.517  27.309  12.989
95015W        W66544  25.238  39.094   3.728
95016W        W66545  44.829  14.221  14.804
95017W        W66546  42.411  18.176   4.410
95018W        W66547  25.898   6.933   0.930
95019W        W66548   8.295  40.024   1.729
95020W        W66549   1.720  15.169   3.864
95021W        W66550  40.329  29.921  10.935
95022W        W66551   7.119  11.970  12.873
95023W        W66552  35.581  24.940  12.911
95024W        W66553  33.920  29.579   2.167
95025W        W66554   3.003   3.268  12.355
95026W        W66555  20.452   3.146   0.750
95027W        W66556  13.884  17.650   3.880
95028W        W66557   5.390  24.854  11.617
95029W        W66558  13.767   3.021  12.231
95030W        W66559  28.632  23.568  14.099
95031W        W66560  15.070  42.930  12.536
95032W        W66561  21.517   8.572   0.332
95033W        W66562   7.275  18.735   2.293
95034W        W66563   5.243  11.369  12.155
95035W        W66564  21.979   6.375  14.761
95036W        W66565  11.595  26.121  12.810
95037W        W66566  39.391  11.540  11.757
95038W        W66567   9.321  32.013   4.167
95039W        W66568  12.260   2.945  11.951
95040W        W66569  24.837   2.796  10.758
95041W        W66570  39.202  43.925  13.304
95042W        W66571   1.775  38.915  10.880
95043W        W66572  39.427   1.768   4.411
95044W        W66573  34.598  32.625  13.037
95045W        W66574   4.919   5.804   1.678
95046W        W66575  30.920  31.214   1.784
95047W        W66576  16.850  27.384   1.231
95048W        W66577  42.923  11.440   1.182
95049W        W66578   1.422  21.091   2.092
95050W        W66579  42.571  27.962  11.350
95051W        W66580   8.271  19.768  11.020
95052W        W66581   5.100   8.974   4.852
95053W        W66582   8.434  18.034  11.079
95054W        W66583   5.548   6.153   1.284
95055W        W66584  22.279   6.658  12.100
95056W        W66585   7.962   6.805  13.778
95057W        W66586  39.493   1.390   2.467
95058W        W66587  21.030  21.720  11.974
95059W        W66588  20.139  43.827   0.764
95060W        W66589  22.355  31.493  14.340
95061W        W66590  43.603  15.049  13.113
95062W        W66591  25.494  23.756  11.591
95063W        W66592  18.094   5.705  14.200
95064W        W66593   2.421   2.733  10.818
95065W        W66594   9.028  15.289   1.426
95066W        W66595  27.519  32.966  12.132
95067W        W66596  39.303  41.543  13.685
95068W        W66597  24.157  29.954  13.508
95069W        W66598   1.351   2.295  11.937
95070W        W66599  11.391  27.178  14.383
95071W        W66600  32.995  41.526  14.916
95072W        W66601  19.696  21.855   4.455
95073W        W66602  42.317  24.384   4.552
95074W        W66603  30.062  12.849   0.001
95075W        W66604  39.739  20.305  13.003
95076W        W66605   9.237  44.014   4.392
95077W        W66606  30.001  20.617  12.118
95078W        W66607  13.258  23.826   2.801
95079W        W66608  30.637  29.159   1.517
95080W        W66609  36.010  20.550  10.661
95081W        W66610  44.928  29.609   2.771
95082W        W66611  39.986  19.841   4.985
95083W        W66612  16.569  34.355   4.255
95084W        W66613  40.339  42.167  12.325
95085W        W66614   6.787  44.338  11.542
95086W        W66615  31.152  35.687   4.622
95087W        W66616   9.227  30.346  11.319
95088W        W66617  20.130  32.314   1.684
95089W        W66618  13.358  32.846   1.121
95090W        W66619  30.397  21.563   3.760
95091W        W66620  44.219  13.790  11.705
95092W        W66621  20.505  44.339   2.623
95093W        W66622  24.154   6.628   3.150
95094W        W66623  27.942  26.099  13.574
95095W        W66624  15.072   8.755  13.772
95096W        W66625  28.635  23.150   1.482
95097W        W66626  40.324  34.922   0.367
95098W        W66627  42.080  30.132  14.999
95099W        W66628  23.598  21.655  14.314
95100W        W66629  39.396   8.732   0.808
95101W        W66630  20.214  11.388   1.947
95102W        W66631  29.648  29.983   4.591
95103W        W66632   2.219  25.712  11.539
95104W        W66633  42.060  28.110   2.612
95105W        W66634   6.759   6.207   0.830
95106W        W66635   4.090  31.334   3.797
95107W        W66636  23.610  40.276   3.355
95108W        W66637   9.421  14.095  10.644
95109W        W66638  42.855  40.089   1.763
95110W        W66639  25.157  17.307   1.886
95111W        W66640  44.774  22.099  12.008
95112W        W66641   4.883   1.020   0.873
95113W        W66642  13.322  32.403   2.277
95114W        W66643  17.813  21.311   2.377
95115W        W66644   4.640  33.481   5.229
95116W        W66645  11.904   0.688   1.539
95117W        W66646  40.417   9.692   4.556
95118W        W66647  16.111   0.677  14.839
95119W        W66648  34.027  21.515  12.983
95120W        W66649  12.162   6.952  12.390
95121W        W66650  18.100  20.161  11.805
95122W        W66651  23.561  15.222   3.601
95123W        W66652   6.895  32.171   3.714
95124W        W66653  12.406  40.520  11.860
95125W        W66654  34.070  12.181  12.543
95126W        W66655  37.239  24.248   2.260
95127W        W66656   3.967  14.459  12.108
95128W        W66657  33.647  24.803   0.123
95129W        W66658  42.574  10.766  14.427
95130W        W66659  23.047  15.826   0.796
95131W        W66660   3.218  28.986   4.386
95132W        W66661   7.332  44.926  13.943
95133W        W66662  42.403  38.074  11.627
95134W        W66663  23.434  39.961  11.619
95135W        W66664  14.379  23.723  13.494
95136W        W66665   5.710  20.301   3.785
95137W        W66666  30.814  24.271   3.282
95138W        W66667   6.187  43.461  12.795
95139W        W66668   4.733  23.127  12.353
95140W        W66669  29.432  17.351   1.255
95141W        W66670  24.087  21.455   1.766
95142W        W66671  25.108  14.153   2.940
95143W        W66672  17.333  32.178  12.504
95144W        W66673  30.486   9.784  11.683
95145W        W66674   9.690  16.600   3.326
95146W        W66675   9.334  15.394   1.830
95147W        W66676  14.185  25.911  14.565
95148W        W66677   0.399  22.768  11.148
95149W        W66678   0.446  41.254   4.171
95150W        W66679   0.373  28.327  14.874
95151W        W66680  42.784  32.931  12.401
95152W        W66681  17.463  23.493  12.471
95153W        W66682  27.480  26.017  10.647
95154W        W66683  14.807  11.804   2.251
95155W        W66684   8.930  41.115   1.214
95156W        W66685  20.724  43.297  11.673
95157W        W66686  13.784  18.543   3.879
95158W        W66687  26.186   0.307  11.151
95159W        W66688  33.794  25.664   2.278
95160W        W66689  26.058  16.279  11.499
95161W        W66690   0.245  32.631  11.599
95162W        W66691  37.891  19.231  12.695
95163W        W66692  44.536   6.153  13.439
95164W        W66693   1.234  12.318  14.562
95165W        W66694  28.162  31.839   0.886
95166W        W66695  38.901  25.617   4.766
95167W        W66696  22.673   1.791   4.764
95168W        W66697   3.192  21.720  12.141
95169W        W66698  17.491  22.283  11.273
95170W        W66699  11.140  25.657   4.892
95171W        W66700  36.970  28.417  12.099
95172W        W66701   5.880  25.387  10.831
95173W        W66702  22.874  42.125  13.569
95174W        W66703  10.372   3.857   2.681
95175W        W66704  18.219  30.288   3.717
95176W        W66705  40.563  23.521  10.447
95177W        W66706  25.982   9.923   4.186
95178W        W66707  33.119  36.914   1.406
95179W        W66708   5.702  12.923   1.786
95180W        W66709  17.431  24.016   4.282
95181W        W66710   8.083  29.198   4.251
95182W        W66711  21.173  37.736   3.704
95183W        W66712  12.915  31.994   0.962
95184W        W66713  22.289  41.387  14.968
95185W        W66714  41.220  23.247   2.658
95186W        W66715  32.855  18.704  14.376
95187W        W66716  18.199   4.934  14.841
95188W        W66717  32.499  23.974  14.541
95189W        W66718  36.505  18.181  10.565
95190W        W66719   1.843  20.646   1.428
95191W        W66720  10.423  17.227   1.772
95192W        W66721   5.728  34.638  10.879
95193W        W66722  44.423  21.521   1.498
95194W        W66723  17.438  43.887  12.956
95195W        W66724  29.481  20.553   2.085
95196W        W66725   7.717   7.160   1.838
95197W        W66726  33.173  40.883   1.031
95198W        W66727  17.702  43.585  13.330
95199W        W66728   7.211  34.985   1.758
95200W        W66729  24.413  32.019   4.491
95201W        W66730  29.630   4.754  14.049
95202W        W66731  42.792  12.734   0.735
95203W        W66732  18.846  34.863   2.858
95204W        W66733  34.889  16.955  11.104
95205W        W66734  26.502   5.735  13.450
95206W        W66735  17.702  26.666   3.730
95207W        W66736  21.330  35.030  11.435
95208W        W66737   0.246  43.542   1.422
95209W        W66738   4.873  36.554  12.809
95210W        W66739  13.891   6.806  10.770
95211W        W66740  29.655  25.158  12.528
95212W        W66741  11.891  24.266   0.146
95213W        W66742  41.651  32.554  14.858
95214W        W66743  32.853  44.694   0.112
95215W        W66744   5.192  26.703   2.748
95216W        W66745  30.392  40.871   1.389
95217W        W66746  19.096  36.953   3.730
95218W        W66747  33.406  38.314   1.353
95219W        W66748  34.203  27.513  13.057
95220W        W66749  38.952  13.777  13.594
95221W        W66750  10.358  30.075  10.559
95222W        W66751  31.426  11.207  10.729
95223W        W66752  18.648   2.546   3.673
95224W        W66753  38.385  12.707   2.659
95225W        W66754  20.143  22.683   3.803
95226W        W66755   6.125  14.861  12.522
95227W        W66756   0.643   3.732  13.847
95228W        W66757   0.534  19.757  12.629
95229W        W66758  14.824  23.191  12.964
95230W        W66759  12.439  32.566  14.950
95231W        W66760  40.656   3.695  11.133
95232W        W66761  22.697  33.547   5.044
95233W        W66762  23.538  39.776   3.597
95234W        W66763  26.580   6.901  11.737
95235W        W66764  40.013   0.635   4.770
95236W        W66765   4.260  12.852  13.612
95237W        W66766  15.603  31.768  10.000
95238W        W66767   9.168   6.087   2.813
95239W        W66768  21.981   4.494   3.346
95240W        W66769   6.838  31.604  14.926
95241W        W66770   0.804  23.247  14.487
95242W        W66771  36.661  19.482   4.709
95243W        W66772   2.990  29.318  11.100
95244W        W66773  15.263  40.360   2.743
95245W        W66774   6.674  23.295  14.508
95246W        W66775  36.907  32.941   3.140
95247W        W66776  11.397  41.546  14.018
95248W        W66777   4.648  26.447   3.805
95249W        W66778  36.452  12.253   0.857
95250W        W66779  14.277  18.708   1.271
95251W        W66780  15.231  28.125  14.478
95252W        W66781  28.952  32.501   2.866
95253W        W66782  35.931  30.579  14.266
95254W        W66783  28.091  29.059  12.398
95255W        W66784   3.489  31.370  12.338
95256W        W66785  14.069   5.165  11.616
95257W        W66786  37.500  42.762   2.666
95258W        W66787  33.745  13.222   4.288
95259W        W66788  29.961   8.352  10.901
95260W        W66789  33.376  22.776   1.784
95261W        W66790   2.797  28.208   4.106
95262W        W66791  17.820   0.855  13.805
95263W        W66792  31.075  37.775  14.784
95264W        W66793   2.929  30.605  12.546
95265W        W66794  28.188  26.032   2.851
95266W        W66795   2.542  11.561   1.190
95267W        W66796   3.290  18.715  14.033
95268W        W66797  26.626   9.212  14.026
95269W        W66798   2.907   1.947  11.108
95270W        W66799   1.163  33.914   0.390
95271W        W66800  15.068   7.450   2.694
95272W        W66801  42.962   7.497  10.794
95273W        W66802  11.703  22.579   3.936
95274W        W66803  27.457   6.852  11.073
95275W        W66804  43.901  25.144   2.692
95276W        W66805  24.460  42.024  13.466
95277W        W66806   4.083  19.912  10.317
95278W        W66807  39.800  35.954   3.202
95279W        W66808  44.238   6.424  11.735
95280W        W66809   7.667  24.501  11.548
95281W        W66810  33.187  23.131   4.451
95282W        W66811  23.375  30.870   3.820
95283W        W66812  41.437  19.073   1.480
95284W        W66813  18.098  22.006   1.759
95285W        W66814   0.404  37.231  14.042
95286W        W66815  42.593  19.341   0.412
95287W        W66816  10.027  33.632   3.500
95288W        W66817  32.438  14.722   1.967
95289W        W66818  18.293  30.573  13.955
95290W        W66819   1.605  28.266  14.558
95291W        W66820  38.342  22.119   3.145
95292W        W66821  37.938  38.908  13.471
95293W        W66822  20.168  32.497  13.981
95294W        W66823  21.156  23.505   3.156
95295W        W66824   0.342   7.249  14.421
95296W        W66825  26.641  32.527  12.906
95297W        W66826  29.632  33.979  10.802
95298W        W66827  42.285  24.511   3.716
95299W        W66828   5.332  39.385   3.162
95300W        W66829  11.215  24.628   2.652
95301W        W66830  40.888  21.735  13.798
95302W        W66831   4.756  33.075   0.369
95303W        W66832  19.014  43.693   3.724
95304W        W66833  36.044  25.692  13.217
95305W        W66834  35.940   9.970  14.967
95306W        W66835  37.348  30.460   0.471
95307W        W66836  24.090  39.069   3.371
95308W        W66837   0.734  13.627  12.475
95309W        W66838  27.477  10.950  12.959
95310W        W66839  22.312  12.183  11.556
95311W        W66840  38.437   6.499  14.735
95312W        W66841  41.837  31.166   2.849
95313W        W66842  34.075  18.715   3.831
95314W        W66843  22.107  10.275   2.671
95315W        W66844  39.574  29.898  13.939
95316W        W66845  14.084  30.135  11.214
95317W        W66846  41.217  19.650   5.093
95318W        W66847  33.106  13.098   2.160
95319W        W66848  16.368  11.604  14.479
95320W        W66849  41.743  40.570   1.833
95321W        W66850  12.258   7.470  13.552
95322W        W66851  16.612  35.010  11.608
95323W        W66852   1.594  25.174  12.952
95324W        W66853   3.670  36.606  11.099
95325W        W66854   4.688  36.553   4.941
95326W        W66855  41.537  34.532   1.372
95327W        W66856  19.738  16.994   3.650
95328W        W66857  41.528  24.996   3.561
95329W        W66858  16.557  44.850  12.984
95330W        W66859  28.123   9.227  14.095
95331W        W66860  20.255  25.974  14.518
95332W        W66861  19.497  33.461  12.186
95333W        W66862  35.017  13.023   4.018
95334W        W66863  23.496  13.616   4.380
95335W        W66864  41.962  21.017  13.621
95336W        W66865  27.623  29.901   1.245
95337W        W66866  28.475  11.838  13.490
95338W        W66867   6.246  27.961  10.588
95339W        W66868  40.934   5.009  14.441
95340W        W66869  18.576   7.272  12.980
95341W        W66870  37.583   9.385   2.746
95342W        W66871  16.622  14.625  12.481
95343W        W66872  22.669  12.515   1.395
95344W        W66873   1.345  16.206  10.564
95345W        W66874   5.035  29.217   1.297
95346W        W66875  10.423  28.648   4.062
95347W        W66876  11.167   3.740  13.837
95348W        W66877   2.242  14.554  13.123
95349W        W66878  16.711  13.630   0.877
95350W        W66879   9.066  43.762   0.230
95351W        W66880  21.652  10.373  14.781
95352W        W66881  42.220  22.658   3.582
95353W        W66882  41.685  11.339  10.559
95354W        W66883  34.415  33.481  14.987
95355W        W66884  15.307   3.171   1.706
95356W        W66885  33.969  27.367   3.741
95357W        W66886  43.732  29.152   4.111
95358W        W66887   1.671  42.411   2.669
95359W        W66888  19.742  20.519   2.340
95360W        W66889  19.008   4.402  12.098
95361W        W66890  26.730  17.664   3.187
95362W        W66891  27.180  10.638  13.610
95363W        W66892   8.657  13.438   4.035
95364W        W66893  14.958   7.632  10.252
95365W        W66894   4.039  14.411  12.977
95366W        W66895  26.103  42.517   1.598
95367W        W66896  27.388  30.554   2.582
95368W        W66897  13.136   8.610   1.032
95369W        W66898   1.221  44.361   1.817
95370W        W66899   1.554   8.431   2.785
95371W        W66900  31.097  23.103   1.908
95372W        W66901  15.754   7.659   0.356
95373W        W66902  34.975  28.516   2.831
95374W        W66903  15.046   2.204   2.679
95375W        W66904  35.512  35.996   4.374
95376W        W66905  24.457  11.755  11.066
95377W        W66906  16.837  25.093  14.238
95378W        W66907  41.115   6.156   0.959
95379W        W66908  15.504  36.442   2.650
95380W        W66909  43.754  33.888  10.719
95381W        W66910   5.587   9.064   4.682
95382W        W66911  16.333  26.622   3.831
95383W        W66912  12.938   9.174  13.965
95384W        W66913  29.410   1.807  12.040
95385W        W66914  22.422  26.724   2.868
95386W        W66915  43.041  26.108   0.907
95387W        W66916  20.289  36.668  10.662
95388W        W66917  33.027   3.288  14.263
95389W        W66918   8.829  17.652   2.613
95390W        W66919  31.476   8.231   3.591
95391W        W66920  18.594  26.549  12.820
95392W        W66921  39.323  13.849   3.751
95393W        W66922  13.206  26.583   2.312
95394W        W66923   9.760  40.758  13.925
95395W        W66924  39.657  21.742  11.905
95396W        W66925  19.550  13.357  13.846
95397W        W66926  30.504  24.689   0.896
95398W        W66927  40.788  17.803   3.428
95399W        W66928  19.658   8.993  10.848
95400W        W66929  25.581  26.042  12.521
95401W        W66930  22.946  28.841   0.911
95402W        W66931  19.934  30.281  10.732
95403W        W66932  26.732  21.035   0.793
95404W        W66933  11.243  30.569   2.793
95405W        W66934   8.604   8.352   1.291
95406W        W66935  38.819   0.779   4.032
95407W        W66936  21.284  34.696   0.002
95408W        W66937  33.543   5.329   0.810
95409W        W66938   3.880  37.461  11.438
95410W        W66939   9.273  20.798   0.950
95411W        W66940   2.462   8.881   3.339
95412W        W66941   1.426  30.038   1.382
95413W        W66942  10.810  36.924   0.632
95414W        W66943  20.489  36.944  14.414
95415W        W66944  15.364  26.705  11.104
95416W        W66945  21.788  14.364   2.131
95417W        W66946   0.354  24.943  13.238
95418W        W66947  30.626  32.458  13.023
95419W        W66948   4.125  33.532   5.139
95420W        W66949  44.851  31.070  10.993
95421W        W66950  26.096  26.734   3.696
95422W        W66951  33.745  27.913  11.547
95423W        W66952  11.807  25.258   3.163
95424W        W66953  11.254   8.723  10.624
95425W        W66954  30.711  29.201  10.498
95426W        W66955   7.999   4.493   0.826
95427W        W66956  22.137  21.012  10.678
95428W        W66957  40.037   6.213  12.680
95429W        W66958  35.100  14.857  14.752
95430W        W66959  21.166  33.374  13.055
95431W        W66960  15.425  15.248  12.804
95432W        W66961  41.083  23.990   2.869
95433W        W66962  18.763   3.395  14.456
95434W        W66963   1.200   5.306   1.299
95435W        W66964   7.741   4.922  11.578
95436W        W66965   5.432  43.888  12.899
95437W        W66966   6.190   5.214  10.678
95438W        W66967  14.206   8.895   0.244
95439W        W66968  33.790  33.613   3.793
95440W        W66969  34.094   0.602   2.204
95441W        W66970  19.810  34.388  12.618
95442W        W66971  30.879   6.269   1.864
95443W        W66972  33.544   8.447   1.209
95444W        W66973   4.343   4.015  13.533
95445W        W66974  39.069  13.853   1.123
95446W        W66975  25.583  12.297  13.070
95447W        W66976  18.789  18.824   3.749
95448W        W66977  20.668  41.476  14.024
95449W        W66978  28.072  29.448   3.308
95450W        W66979  42.212   6.375   3.919
95451W        W66980   0.507  24.748  11.130
95452W        W66981  23.499  16.316   1.670
95453W        W66982  33.966  10.639  12.092
95454W        W66983  30.155  44.971   2.820
95455W        W66984   1.008  40.486  11.604
95456W        W66985  14.331  42.803   1.868
95457W        W66986  38.471  12.572   4.185
95458W        W66987  36.935  37.001   1.620
95459W        W66988  24.515   1.466  10.620
95460W        W66989  43.863  16.150  10.627
95461W        W66990  25.803  12.657  13.408
95462W        W66991  18.532  35.977  11.941
95463W        W66992  16.548  11.007   4.223
95464W        W66993  18.848  23.283  11.195
95465W        W66994  43.221   1.256   1.753
95466W        W66995  29.757   1.678   2.570
95467W        W66996  37.145  42.935  10.719
95468W        W66997   2.517  28.801   2.948
95469W        W66998  36.392   3.632   4.675
95470W        W66999  16.791  32.571  12.433
95471W        W67000  31.422  44.472   2.192
95472W        W67001  34.049   1.695   0.066
95473W        W67002  37.598  28.408  11.181
95474W        W67003  34.355  26.580   0.295
95475W        W67004  27.547   0.016   0.576
95476W        W67005  36.234  35.136  11.556
95477W        W67006  11.896   0.964   3.706
95478W        W67007  30.932   3.861   1.744
95479W        W67008  12.394  27.101  14.335
95480W        W67009  25.959   6.819  13.370
95481W        W67010  44.666   3.131  14.793
95482W        W67011  44.342  42.866   4.108
95483W        W67012  37.424  16.036  14.460
95484W        W67013  17.149  33.786  10.651
95485W        W67014  43.919  19.002   2.750
95486W        W67015   4.467  25.675  13.830
95487W        W67016  15.583   7.743  12.884
95488W        W67017  15.663  44.847   2.923
95489W        W67018  35.116   6.187   3.336
95490W        W67019   8.190  18.292   2.133
95491W        W67020  11.649   8.026  13.920
95492W        W67021  14.806  37.884  13.404
95493W        W67022  43.325  42.494   2.373
95494W        W67023   3.036  14.778   1.812
95495W        W67024  14.580  23.181   1.162
95496W        W67025  14.441   5.809   2.257
95497W        W67026  38.934   5.226  13.135
95498W        W67027  12.649  36.595   1.806
95499W        W67028  22.334  26.668  12.006
95500W        W67029  23.069   9.086   3.780
95501W        W67030   1.028  29.295  10.812
95502W        W67031  25.233  13.668   1.282
95503W        W67032  26.692   3.537  10.967
95504W        W67033  25.020  35.318  13.508
95505W        W67034  23.608  23.811   0.716
95506W        W67035  16.317  41.328   3.129
95507W        W67036  26.892  14.366  10.756
95508W        W67037   9.364   5.390  10.774
95509W        W67038   0.949  19.023   2.708
95510W        W67039  31.811  44.123   4.111
95511W        W67040   2.296  27.107  12.419
95512W        W67041  15.625  16.785   3.247
95513W        W67042  23.731  27.656   2.831
95514W        W67043  20.716  21.735  13.566
95515W        W67044  15.993   8.043   2.035
95516W        W67045  10.750   2.657   4.516
95517W        W67046  42.356  16.673   0.830
95518W        W67047  19.186   1.358  12.383
95519W        W67048   4.513  24.697   2.373
95520W        W67049  14.106  16.258  12.614
95521W        W67050   6.749   5.540   3.249
95522W        W67051  29.020  32.556   3.378
95523W        W67052  23.265  30.029  11.661
95524W        W67053  20.227  17.121   4.573
95525W        W67054  43.026  16.228  13.378
95526W        W67055  11.129   1.417  14.426
95527W        W67056  43.730   2.803  11.453
95528W        W67057  42.480  21.174   0.049
95529W        W67058   9.585  33.550   4.782
95530W        W67059  18.753  24.619   3.741
95531W        W67060   7.025  15.304   3.550
95532W        W67061  27.194  15.826  12.311
95533W        W67062  43.573   4.304  11.728
95534W        W67063   7.328  28.784  13.489
95535W        W67064  40.914   3.456  14.367
95536W        W67065  21.645   1.921   2.382
95537W        W67066  14.338  23.041  13.021
95538W        W67067  43.357   3.912  14.432
95539W        W67068   1.693  31.942   2.225
95540W        W67069  28.624  32.319  12.617
95541W        W67070  12.123  11.821   4.142
95542W        W67071  32.563  40.660  12.239
95543W        W67072  32.778  20.979  11.241
95544W        W67073   9.569  32.801  10.672
95545W        W67074  22.041  38.078  13.559
95546W        W67075  18.420  25.655   2.108
95547W        W67076  31.934  15.170   0.731
95548W        W67077  40.517  32.056  13.791
95549W        W67078   9.955  25.086  13.834
95550W        W67079  13.625  29.538   3.171
95551W        W67080  34.112   6.684  14.658
95552W        W67081  27.615  10.130  11.931
95553W        W67082  39.553  27.253  13.090
95554W        W67083  24.465   4.409  14.782
95555W        W67084   9.828  15.696   1.403
95556W        W67085   3.215   5.720   4.092
95557W        W67086  29.905  10.817  13.916
95558W        W67087  18.338  22.664  14.937
95559W        W67088  27.619  25.722  12.843
95560W        W67089  31.163  41.785   0.819
95561W        W67090  42.879  11.374  11.964
95562W        W67091  40.167  39.956  12.155
95563W        W67092  36.566   2.027  13.713
95564W        W67093  30.455  19.340  14.997
95565W        W67094   0.625  40.733  13.590
95566W        W67095  20.213  27.409   1.746
95567W        W67096  37.084  26.222   3.567
95568W        W67097   1.521  28.176  12.951
95569W        W67098   5.858  14.131   1.234
95570W        W67099  17.808   7.610   1.738
95571W        W67100   7.122  13.832  14.332
95572W        W67101  38.824  26.593   4.419
95573W        W67102  21.144   5.847  11.268
95574W        W67103  41.408  32.995   0.995
95575W        W67104   8.005   8.900   0.286
95576W        W67105   6.328  27.443  10.629
95577W        W67106  43.374  36.786   3.096
95578W        W67107   4.361  34.300  12.742
95579W        W67108  19.641  33.455   0.832
95580W        W67109  38.308  34.687  11.607
95581W        W67110   5.083  39.129   2.778
95582W        W67111  18.536   2.281  10.457
95583W        W67112   3.439   6.822  10.993
95584W        W67113   1.190  41.492   0.943
95585W        W67114   9.406  26.190  11.782
95586W        W67115  23.656  25.736  13.921
95587W        W67116  18.026   8.102   1.780
95588W        W67117  17.812  30.155   2.285
95589W        W67118  39.119  23.599   3.693
95590W        W67119  11.385   0.235   0.728
95591W        W67120  33.251  37.951   2.309
95592W        W67121   8.339  23.413   0.943
95593W        W67122  43.296  19.608  11.917
95594W        W67123   9.261   0.726  12.373
95595W        W67124  28.573  38.760  13.377
95596W        W67125  34.625  18.540   0.220
95597W        W67126  15.715  37.610  10.214
95598W        W67127  36.666  17.586   0.812
95599W        W67128  30.681  37.402   1.366
95600W        W67129  11.826  39.269  10.743
95601W        W67130  32.804   4.115   2.249
95602W        W67131  28.090  15.241  11.057
95603W        W67132  21.993  37.497  10.789
95604W        W67133  11.081  27.055  11.062
95605W        W67134  43.975  29.043   4.563
95606W        W67135  17.636  26.905   2.497
95607W        W67136  32.021  19.054   1.393
95608W        W67137   2.326  24.598   2.492
95609W        W67138  12.851  37.570   4.513
95610W        W67139  12.338  14.000   2.204
95611W        W67140  33.946  25.821   3.679
95612W        W67141  43.452  20.734  13.500
95613W        W67142   1.546  16.126  13.606
95614W        W67143  34.100  36.344   1.749
95615W        W67144  35.594   7.543  12.249
95616W        W67145  27.517  13.780   1.151
95617W        W67146  32.572  30.310   1.703
95618W        W67147  27.559   5.269  10.594
95619W        W67148  39.897  24.465   3.189
95620W        W67149  32.292   7.324  14.841
95621W        W67150  41.050   3.729   1.332
95622W        W67151  20.182  15.297  14.516
95623W        W67152  14.207  17.042  11.521
95624W        W67153  29.023  23.785  14.382
95625W        W67154  32.993  36.926  14.989
95626W        W67155  34.866  19.601   2.242
95627W        W67156   1.951   0.806  14.376
95628W        W67157   5.008  36.655  10.646
95629W        W67158  27.474  36.482  14.778
95630W        W67159  21.705  36.314  11.110
95631W        W67160  18.017  28.286  11.962
95632W        W67161  17.627  12.733   2.440
95633W        W67162  16.972  11.103  11.914
95634W        W67163   2.815  12.353   1.262
95635W        W67164  32.077   4.862   4.169
95636W        W67165  15.648  27.886   0.412
95637W        W67166   2.583  44.441  12.324
95638W        W67167  15.252  30.573  11.871
95639W        W67168   4.388  14.655   1.752
95640W        W67169  17.908   2.467  13.777
95641W        W67170  37.834  32.490   0.434
95642W        W67171  21.194   9.898  14.190
95643W        W67172  34.589  30.060   4.384
95644W        W67173  22.709   7.946   0.554
95645W        W67174  18.262   0.998  10.747
95646W        W67175  35.527  36.581  14.378
95647W        W67176  44.510  41.629   4.371
95648W        W67177   9.834  21.692   4.838
95649W        W67178  11.133  36.092  13.375
95650W        W67179  18.879  28.494  10.976
95651W        W67180  15.109  17.530  10.527
95652W        W67181  22.197   3.334  14.265
95653W        W67182  21.680  21.940  13.542
95654W        W67183  10.581  27.484   4.384
95655W        W67184  28.889  35.051  12.080
95656W        W67185  27.986  19.613   1.904
95657W        W67186  11.178  17.066  12.986
95658W        W67187  40.324  18.171  12.909
95659W        W67188  19.613   7.702   4.631
95660W        W67189  27.058  43.335   4.147
95661W        W67190   8.757  41.324  13.550
95662W        W67191   0.365  23.623  12.006
95663W        W67192  16.714  13.704  11.046
95664W        W67193  30.516  36.644   4.162
95665W        W67194  41.316  19.137  14.884
95666W        W67195  11.880  33.535  10.615
95667W        W67196  17.647  19.879  14.871
95668W        W67197   3.214  21.057  12.755
95669W        W67198  39.290  25.766  11.329
95670W        W67199  23.978   6.877   0.852
95671W        W67200  15.675  31.587   2.780
95672W        W67201   5.404   3.126  14.117
95673W        W67202   5.330  14.832  14.714
95674W        W67203  23.389  21.971  13.942
95675W        W67204   0.529  18.757  13.474
95676W        W67205  37.577   9.759   4.387
95677W        W67206  11.209  15.719  14.805
95678W        W67207  23.991   6.939   1.672
95679W        W67208  14.828  31.951   2.767
95680W        W67209  42.355   6.064  11.546
95681W        W67210  16.642  15.361   2.083
95682W        W67211   6.330  10.218   5.067
95683W        W67212  19.035   4.497   4.091
95684W        W67213  13.522  11.270  10.879
95685W        W67214  21.712  39.847   3.206
95686W        W67215  41.311  15.718   0.496
95687W        W67216  44.764  12.658  11.949
95688W        W67217  27.455  43.355  14.732
95689W        W67218  30.534   9.569   1.934
95690W        W67219  32.773  25.007   0.065
95691W        W67220  24.616  15.510   1.199
95692W        W67221  20.083   6.894  13.057
95693W        W67222   9.814  36.843   1.361
95694W        W67223  21.012  28.656  12.616
95695W        W67224  12.857  33.634   1.225
95696W        W67225  37.390  30.860   0.803
95697W        W67226  27.138  18.277  10.958
95698W        W67227  11.934  20.531   3.321
95699W        W67228  24.149  22.969  13.106
95700W        W67229  24.932  21.237  12.298
95701W        W67230  35.398  26.213   4.032
95702W        W67231   9.866  10.683   4.461
95703W        W67232   0.631  41.145  11.186
95704W        W67233  41.351  29.167  10.761
95705W        W67234  44.831  29.026   3.261
95706W        W67235  32.769  13.028   0.754
95707W        W67236  26.596  33.083  11.556
95708W        W67237  10.368  36.306   9.827
95709W        W67238  22.986  30.139  12.075
95710W        W67239  22.940   9.149  12.857
95711W        W67240  35.906  30.994   3.343
95712W        W67241  22.508  10.259  14.022
95713W        W67242  10.059  21.951  13.482
95714W        W67243   1.424  32.195   0.766
95715W        W67244  12.844  25.238  13.989
95716W        W67245  39.073   7.179  11.686
95717W        W67246  42.715  21.587   2.307
95718W        W67247   6.327   2.989  13.285
95719W        W67248  41.229  26.936   4.143
95720W        W67249  44.530  31.429   3.235
95721W        W67250  22.044  32.563  10.539
95722W        W67251   0.993  29.912   3.761
95723W        W67252  43.710   9.140  11.673
95724W        W67253  35.894  19.935   3.886
95725W        W67254  39.124  44.397   4.181
95726W        W67255  13.134  22.150  11.413
95727W        W67256   5.433   6.692   4.603
95728W        W67257  12.179  41.012   1.159
95729W        W67258  37.905   7.852   0.927
95730W        W67259  27.002  27.106  14.158
95731W        W67260  44.886  12.350   2.358
95732W        W67261   6.058  44.369  13.011
95733W        W67262   4.957  17.593   4.436
95734W        W67263  38.939  25.242  11.608
95735W        W67264   8.099  32.666   4.241
95736W        W67265   4.796  23.032   1.403
95737W        W67266  25.817  38.856   9.772
95738W        W67267  22.781  37.415   0.273
95739W        W67268  18.285  27.041  11.590
95740W        W67269   8.620  40.928   4.902
95741W        W67270  42.505  41.886   0.477
95742W        W67271  36.001  12.105   4.010
95743W        W67272  33.070  34.794  12.003
95744W        W67273  37.115  17.033  11.064
95745W        W67274  12.353  12.644   4.483
95746W        W67275  43.789  15.268   2.645
95747W        W67276  31.405  22.963   3.291
95748W        W67277  10.404  36.847   2.021
95749W        W67278  38.129  25.244  14.472
95750W        W67279  43.411   6.003   0.942
95751W        W67280  29.231  27.340  10.164
95752W        W67281  29.486  11.540   0.368
95753W        W67282  19.003  32.171   1.239
95754W        W67283  25.153  16.757  14.797
95755W        W67284  19.975  43.321  12.311
95756W        W67285   8.862  23.842  14.474
95757W        W67286  41.730  31.150  14.851
95758W        W67287  28.392  40.927  12.022
95759W        W67288  43.602  14.100   4.025
95760W        W67289   1.008   6.539   4.003
95761W        W67290  13.081  12.093  11.563
95762W        W67291  40.577  14.869   0.461
95763W        W67292  42.895   3.732  14.294
95764W        W67293  44.372  35.057  12.688
95765W        W67294  26.704  31.417   4.180
95766W        W67295  43.374  36.637   0.307
95767W        W67296   6.267  15.842   2.386
95768W        W67297   4.281   2.892   1.799
95769W        W67298  17.545  22.221   0.295
95770W        W67299   5.855  23.091   4.494
95771W        W67300  23.117  10.344  12.405
95772W        W67301  31.247   9.012   0.957
95773W        W67302  14.664  43.415  11.695
95774W        W67303  35.606  12.296   2.046
95775W        W67304  36.794  15.339  12.546
95776W        W67305  28.607  12.090   0.449
95777W        W67306  36.166  12.159  11.089
95778W        W67307   1.871  13.429  13.816
95779W        W67308  36.491  15.193  13.992
95780W        W67309  42.275  44.841  11.088
95781W        W67310  25.654  25.573   0.985
95782W        W67311  36.002   0.997   4.506
95783W        W67312  36.083  24.909  14.403
95784W        W67313  13.151  36.256  10.690
95785W        W67314  14.687   4.046   0.832
95786W        W67315  38.573  42.566   3.773
95787W        W67316  25.949   4.821   2.325
95788W        W67317  17.838  20.249  14.060
95789W        W67318  14.371  28.616   0.715
95790W        W67319  41.568  35.400  11.546
95791W        W67320  20.310  28.092  14.890
95792W        W67321  11.673  41.991  12.602
95793W        W67322  11.649   8.758  11.685
95794W        W67323  23.956   1.249  11.983
95795W        W67324   8.365  43.957   4.578
95796W        W67325  11.110  26.587   2.254
95797W        W67326   0.256  11.725  13.867
95798W        W67327   5.395   1.812  14.854
95799W        W67328  25.552   3.829   4.094
95800W        W67329  24.029  32.371  10.437
95801W        W67330  24.082  40.129   3.188
95802W        W67331  15.188  27.929   0.880
95803W        W67332  39.457  22.681   2.360
95804W        W67333  23.143  34.405  13.485
95805W        W67334  20.299   5.927  11.994
95806W        W67335  23.703  27.182   1.389
95807W        W67336   3.140  30.747   1.394
95808W        W67337  27.055  43.561   3.659
95809W        W67338  26.202  12.606   0.314
95810W        W67339   0.685  14.695   0.789
95811W        W67340  43.307   8.478   2.776
95812W        W67341  26.490  42.386   1.149
95813W        W67342  10.708  29.988  11.680
95814W        W67343   5.846   2.979  14.680
95815W        W67344  12.823   6.734   2.943
95816W        W67345  42.094  10.682  12.091
95817W        W67346   9.425  19.816  13.817
95818W        W67347   2.861  16.681   0.241
95819W        W67348  11.924   8.805  12.892
95820W        W67349  19.290  21.077  12.775
95821W        W67350  26.010  16.984  13.823
95822W        W67351  42.599  17.707  14.290
95823W        W67352  17.817  25.601  13.512
95824W        W67353  39.938  29.725   2.690
95825W        W67354  11.078  22.270   1.906
95826W        W67355  21.731   2.230  11.024
95827W        W67356  37.919  38.089   3.386
95828W        W67357  39.288   1.055   1.404
95829W        W67358  36.685  30.999  11.144
95830W        W67359  19.270  14.577  11.565
95831W        W67360  27.159  42.361   2.976
95832W        W67361  42.298  24.462  12.727
95833W        W67362  34.863  11.725  14.885
95834W        W67363  15.835  26.966   2.202
95835W        W67364   9.710  42.723   0.731
95836W        W67365  10.221   3.956  10.982
95837W        W67366  19.675   0.897   4.154
95838W        W67367  29.096  24.280  14.329
95839W        W67368   7.317   6.087   1.441
95840W        W67369  28.041  39.406   0.519
95841W        W67370  31.358  39.597   3.198
95842W        W67371  15.621  24.142  13.472
95843W        W67372   5.285  27.115  10.614
95844W        W67373  20.668  23.654   3.221
95845W        W67374  37.080  33.828   1.890
95846W        W67375  16.273   6.047   1.775
95847W        W67376  31.968  14.293  14.133
95848W        W67377  30.214  29.924  12.489
95849W        W67378  32.015  32.944  11.042
95850W        W67379  39.091  29.036   1.345
95851W        W67380   2.709   9.349   3.318
95852W        W67381  43.380  38.331   1.942
95853W        W67382  13.092  19.569   4.652
95854W        W67383  24.080   0.788  13.916
95855W        W67384  17.068  17.295   2.691
95856W        W67385  26.503  30.404   4.246
95857W        W67386  36.521  25.546   0.755
95858W        W67387   6.439  21.085   5.110
95859W        W67388  39.598  17.769  11.085
95860W        W67389  20.289  40.796  12.114
95861W        W67390  16.316  19.780  13.856
95862W        W67391  33.007  35.912   0.666
95863W        W67392   3.395   1.812  11.261
95864W        W67393  35.281  42.260   1.459
95865W        W67394  22.347   0.842   4.610
95866W        W67395  35.236  21.225  12.574
95867W        W67396  19.976  19.602   2.154
95868W        W67397  17.897  25.815   4.085
95869W        W67398  29.513  19.365   2.553
95870W        W67399  30.661   8.415  11.622
95871W        W67400  39.956   3.945   4.040
95872W        W67401  22.142  27.407  14.474
95873W        W67402  44.504  15.266   3.355
95874W        W67403  14.767  37.852  12.607
95875W        W67404   7.857  20.591   2.130
95876W        W67405  20.308  43.182   1.814
95877W        W67406  38.132  29.252  13.091
95878W        W67407   4.127  29.061   4.405
95879W        W67408  26.633  36.859  12.968
95880W        W67409  27.544   0.619   4.301
95881W        W67410  16.619  19.049   4.172
95882W        W67411  41.831  13.273   4.660
95883W        W67412   2.106  19.575   3.637
95884W        W67413   8.808   9.899  10.799
95885W        W67414  31.365  29.512   3.954
95886W        W67415  44.046   6.443  13.903
95887W        W67416  14.480   2.813   3.699
95888W        W67417  25.275  10.208  12.442
95889W        W67418  35.774  23.978  14.388
95890W        W67419  37.879   7.422  13.152
95891W        W67420   3.017  42.205  11.541
95892W        W67421  14.544  19.120   3.148
95893W        W67422   6.572  36.071  11.582
95894W        W67423  20.995  18.046   2.308
95895W        W67424  25.574   6.137  10.451
95896W        W67425  30.341  40.828   2.793
95897W        W67426  29.613  37.836   4.210
95898W        W67427  15.364  35.532   4.573
95899W        W67428  20.102   2.163   3.682
95900W        W67429  32.505  10.924   2.185
95901W        W67430  15.393  43.100  14.383
95902W        W67431   6.912  31.640  12.389
95903W        W67432  19.315  29.597   1.751
95904W        W67433   0.918  18.438   4.232
95905W        W67434  14.134  35.421   1.871
95906W        W67435  42.132  14.141   1.887
95907W        W67436  11.597   1.963   4.176
95908W        W67437  19.091  24.226   1.301
95909W        W67438  41.890  20.763   3.208
95910W        W67439  35.842  20.470   2.736
95911W        W67440   8.662  30.482  10.662
95912W        W67441  39.873  22.202   2.455
95913W        W67442  12.422  40.058  10.705
95914W        W67443  38.444  14.647  11.661
95915W        W67444   8.164  31.646   2.657
95916W        W67445  36.548   9.965  12.054
95917W        W67446   9.344  24.141  12.494
95918W        W67447  33.651  16.217   0.945
95919W        W67448  19.536  10.615   0.608
95920W        W67449  13.262  21.263  13.065
95921W        W67450  35.854  10.413  10.799
95922W        W67451  41.059  31.545  10.642
95923W        W67452  43.341  12.760  12.100
95924W        W67453  32.631   7.810  12.024
95925W        W67454  12.623  22.485   3.631
95926W        W67455  27.450  15.682   2.297
95927W        W67456  33.835   5.103  10.787
95928W        W67457  29.923  41.445   0.857
95929W        W67458  42.335  21.193  11.924
95930W        W67459  10.757  34.897   0.070
95931W        W67460  39.509  34.025   4.900
95932W        W67461  17.113   8.957   2.608
95933W        W67462  29.523   4.429   0.377
95934W        W67463   0.886  31.427   0.616
95935W        W67464  10.292   7.499  12.397
95936W        W67465   9.647  42.044   0.048
95937W        W67466   6.248  34.013   2.393
95938W        W67467  34.082  43.527   1.245
95939W        W67468  11.380  31.140   0.930
95940W        W67469  28.637  34.737   1.008
95941W        W67470  15.132  32.447  10.545
95942W        W67471  20.297  43.889   4.154
95943W        W67472   9.823  22.397  14.225
95944W        W67473  43.225  12.708  11.005
95945W        W67474  12.240   9.606   3.680
95946W        W67475   7.763  26.332  13.042
95947W        W67476  39.365  30.840   1.577
95948W        W67477  36.230  37.935  13.963
95949W        W67478   1.268  38.503  14.251
95950W        W67479  10.586  14.831  11.518
95951W        W67480  36.969  27.863   4.824
95952W        W67481  13.715   8.253   1.198
95953W        W67482  16.225  40.990   2.458
95954W        W67483  38.064  43.717   4.799
95955W        W67484  27.962  13.794  12.660
95956W        W67485  34.539   7.545  11.230
95957W        W67486  26.152  10.083   1.955
95958W        W67487  21.429  15.596   0.537
95959W        W67488  32.224   7.604  11.126
95960W        W67489  26.637  14.324  10.309
95961W        W67490  24.517  14.750   1.965
95962W        W67491  24.538  42.958  13.544
95963W        W67492  21.340  20.079   2.568
95964W        W67493  14.036   3.486  11.537
95965W        W67494   0.085   2.195  14.986
95966W        W67495  25.045  24.834   1.341
95967W        W67496  25.968   5.218  14.848
95968W        W67497   7.193  40.155  13.995
95969W        W67498  35.601  22.036  11.661
95970W        W67499  44.279   6.945   0.665
95971W        W67500  14.654  13.839   1.265
95972W        W67501  15.778  12.626  10.902
95973W        W67502   7.851  40.430   0.775
95974W        W67503  31.896  35.015  10.645
95975W        W67504  24.246   9.371   4.560
95976W        W67505  40.593   3.593   4.595
95977W        W67506   9.206  44.553  13.351
95978W        W67507   7.812  13.239  13.398
95979W        W67508  40.409  44.458   2.581
95980W        W67509  19.179  23.901   0.270
95981W        W67510  42.889  35.829   4.788
95982W        W67511   3.804  24.742  13.102
95983W        W67512  28.007  12.106  11.129
95984W        W67513  12.813  40.123  11.011
95985W        W67514   7.960  23.520  13.148
95986W        W67515  10.894  38.318   0.883
95987W        W67516  42.923  26.255   0.397
95988W        W67517  36.081  43.861  10.718
95989W        W67518  27.209  25.132   4.591
95990W        W67519  21.641  37.110  12.013
95991W        W67520   0.333  26.794  12.468
95992W        W67521   4.553   6.413   1.395
95993W        W67522  38.360   2.901   1.034
95994W        W67523  38.522  19.050  11.609
95995W        W67524  22.937  32.439  13.413
95996W        W67525  19.783  22.738  13.108
95997W        W67526  37.592  42.307  11.976
95998W        W67527  38.885  36.625  11.249
95999W        W67528   8.732  33.510  12.439
96000W        W67529  22.578  20.244  10.742
96001W        W67530  38.950  19.307  11.616
96002W        W67531   8.971  31.379  10.654
96003W        W67532  42.434  23.626   3.258
96004W        W67533  35.861   2.460  13.404
96005W        W67534  33.548  36.886  12.541
96006W        W67535  40.408  33.402  11.130
96007W        W67536  27.209  10.294  14.258
96008W        W67537  26.560  21.693  13.442
96009W        W67538   4.938  41.795   1.457
96010W        W67539  39.045  24.181  10.779
96011W        W67540  22.896  25.681   1.794
96012W        W67541   2.541   5.867   3.119
96013W        W67542  31.635   7.331  11.512
96014W        W67543  31.676  26.685  12.550
96015W        W67544  31.588  20.045   4.864
96016W        W67545  11.648  27.125   4.598
96017W        W67546  13.369  20.445   4.497
96018W        W67547   1.510   7.409  14.231
96019W        W67548   1.162   7.204  10.311
96020W        W67549  40.774  10.977   1.822
96021W        W67550   2.883  23.197  10.702
96022W        W67551  27.328  30.193   2.203
96023W        W67552  43.714   4.520   0.780
96024W        W67553  36.734   3.332  13.980
96025W        W67554  13.138  23.422   3.649
96026W        W67555  30.596   3.723   0.421
96027W        W67556   4.700  30.196  11.965
96028W        W67557  11.102   3.186   1.082
96029W        W67558  34.931  42.909   1.853
96030W        W67559  42.489  28.183  12.821
96031W        W67560  44.276   7.471  11.901
96032W        W67561  43.872  30.455   1.941
96033W        W67562  18.256  17.317  11.963
96034W        W67563  32.347   8.830  11.608
96035W        W67564  31.177  43.829  12.303
96036W        W67565   7.145   2.449  11.614
96037W        W67566  39.315   5.214   0.058
96038W        W67567   6.920  36.624  14.047
96039W        W67568   5.605  16.520  11.012
96040W        W67569  18.066  43.265  13.509
96041W        W67570  21.228   2.828  11.660
96042W        W67571  20.556  17.346  10.581
96043W        W67572  40.322  33.932   1.221
96044W        W67573  22.050   2.873  11.204
96045W        W67574   6.042  28.465   1.753
96046W        W67575  35.043  27.659   1.989
96047W        W67576  39.997   5.335  13.904
96048W        W67577  27.503  12.388  12.047
96049W        W67578  28.956   4.735   4.891
96050W        W67579  21.313   0.208  14.596
96051W        W67580  18.831  39.469  12.088
96052W        W67581   9.573  22.314  12.917
96053W        W67582  13.860  29.299   0.941
96054W        W67583  11.389   0.986  13.546
96055W        W67584   0.507   0.470  10.765
96056W        W67585  20.656  40.315  14.497
96057W        W67586  15.750  34.614  12.346
96058W        W67587  37.529   5.129   0.168
96059W        W67588  32.183  33.265  11.401
96060W        W67589  37.997  16.630  10.728
96061W        W67590  13.223  33.994   1.135
96062W        W67591   9.118   3.295  14.992
96063W        W67592  44.676   1.750   4.526
96064W        W67593   9.187  23.963  14.852
96065W        W67594  41.881  19.706   1.021
96066W        W67595  38.786  34.806   2.442
96067W        W67596  44.509  40.595  11.576
96068W        W67597   1.235  28.080  10.666
96069W        W67598  23.799  35.916  14.823
96070W        W67599   6.830  35.573  11.502
96071W        W67600   9.201  23.661  12.381
96072W        W67601  27.643  22.090   1.187
96073W        W67602  12.090  36.987  13.458
96074W        W67603  34.119  25.667  12.616
96075W        W67604  39.852  33.124   3.522
96076W        W67605  25.098  19.815   4.968
96077W        W67606  30.744  21.643  12.825
96078W        W67607  31.130  31.064   2.745
96079W        W67608   9.042  35.353   1.694
96080W        W67609  22.010  19.062  10.811
96081W        W67610  10.467   3.974  11.782
96082W        W67611  15.584  20.338  14.257
96083W        W67612  12.216  11.486   1.877
96084W        W67613  29.571  35.992   0.680
96085W        W67614  12.456  17.779   2.714
96086W        W67615   3.295  22.974  14.990
96087W        W67616  22.705  16.267   2.319
96088W        W67617  33.513  37.913  10.505
96089W        W67618   5.072  40.291   3.388
96090W        W67619   3.070  33.082  12.422
96091W        W67620  19.804  22.472   4.159
96092W        W67621   4.644  17.587  13.360
96093W        W67622  23.641  35.362   0.799
96094W        W67623  18.847   4.190  11.653
96095W        W67624   1.778  26.606  13.424
96096W        W67625  32.175  37.953  12.942
96097W        W67626  10.372  42.007   0.484
96098W        W67627  25.082  15.183   0.806
96099W        W67628  19.053  36.956  11.417
96100W        W67629   1.356  15.024  14.424
96101W        W67630  14.293  44.210  11.280
96102W        W67631  36.366  31.493   4.499
96103W        W67632  18.450   8.947   1.741
96104W        W67633  22.182  37.813  11.974
96105W        W67634  28.060  38.397  10.724
96106W        W67635  40.268  22.922   2.971
96107W        W67636  44.820  22.807   0.089
96108W        W67637  32.962   5.462  12.518
96109W        W67638   3.848  37.978  14.061
96110W        W67639   2.598  29.061  11.502
96111W        W67640  14.250  43.568   1.243
96112W        W67641  19.802  23.136  11.594
96113W        W67642  11.080   7.062   3.722
96114W        W67643   8.934  41.577   0.948
96115W        W67644  10.864  23.866  11.016
96116W        W67645   9.736  40.427   2.189
96117W        W67646  31.394  25.073  11.252
96118W        W67647  23.798  17.359  10.853
96119W        W67648  34.379  21.316  14.609
96120W        W67649  13.245  19.563  13.520
96121W        W67650   4.933  11.976  13.916
96122W        W67651  44.758  34.598   4.654
96123W        W67652  34.426  12.620  10.659
96124W        W67653  14.188  22.186   4.915
96125W        W67654   1.837  23.155  12.935
96126W        W67655   3.179   7.609  13.522
96127W        W67656  36.868   3.855  11.660
96128W        W67657  16.579  19.504   4.993
96129W        W67658   0.429  43.771   2.319
96130W        W67659  39.298   3.097  13.863
96131W        W67660  41.037  25.031  12.042
96132W        W67661  13.295  28.185   4.575
96133W        W67662  14.103  27.935  14.005
96134W        W67663  41.495  27.578  14.703
96135W        W67664  22.119  37.900  13.054
96136W        W67665  23.651  32.093  11.484
96137W        W67666  10.273  32.921   3.717
96138W        W67667  23.712  13.465   1.048
96139W        W67668  14.614  15.166  13.428
96140W        W67669  13.189   2.445  11.006
96141W        W67670   8.650  35.591  11.123
96142W        W67671  42.919  43.543  14.299
96143W        W67672   7.282  18.639   3.069
96144W        W67673  33.786  31.797   2.338
96145W        W67674  37.133  38.101   3.661
96146W        W67675  30.523   9.653   4.121
96147W        W67676  27.721  16.082  12.999
96148W        W67677   4.705  21.129  13.077
96149W        W67678  28.077  39.974  10.375
96150W        W67679  25.415  42.523   4.364
96151W        W67680  36.918  39.240   1.314
96152W        W67681  40.367  24.466  12.071
96153W        W67682   8.923  38.118   4.070
96154W        W67683   1.944  24.448   2.831
96155W        W67684   0.600  41.303   1.947
96156W        W67685   5.698  14.819  14.359
96157W        W67686   5.978  26.666   2.964
96158W        W67687  10.561  36.904  13.436
96159W        W67688  22.958  13.504  13.523
96160W        W67689  44.469  35.827  11.623
96161W        W67690  43.051  28.181   2.426
96162W        W67691  35.857  30.969  12.950
96163W        W67692  10.400  16.071  10.116
96164W        W67693   2.283   9.759  12.854
96165W        W67694  38.840   5.486   2.463
96166W        W67695   2.650  39.782  14.690
96167W        W67696  32.063   9.165   5.023
96168W        W67697  32.787  31.323  13.948
96169W        W67698   0.259  21.730  14.878
96170W        W67699  40.727  38.460  10.465
96171W        W67700   3.237  43.419  13.300
96172W        W67701  16.210  17.564   2.319
96173W        W67702   9.822  10.689   3.931
96174W        W67703  42.367  39.967  13.388
96175W        W67704   0.386   3.225  14.315
96176W        W67705  34.495  38.502   0.206
96177W        W67706  20.248  22.350  12.020
96178W        W67707  27.455  28.485   0.396
96179W        W67708   5.294   3.669  12.896
96180W        W67709  18.562  33.023   2.665
96181W        W67710  17.666   3.317   3.729
96182W        W67711  18.440   6.352  12.982
96183W        W67712  30.774  24.672   2.256
96184W        W67713  37.003  31.629  11.975
96185W        W67714   1.592  38.972  13.062
96186W        W67715   5.770  44.804   0.822
96187W        W67716   8.823  25.722   4.376
96188W        W67717  21.117  12.330   1.779
96189W        W67718   2.292  44.801  11.060
96190W        W67719  39.865  27.467  14.001
96191W        W67720  35.603   7.870  14.529
96192W        W67721  10.090  43.348  14.468
96193W        W67722  24.673  16.336   2.644
96194W        W67723  28.557  24.598  10.865
96195W        W67724  12.861  40.521   3.747
96196W        W67725   3.734  23.985   2.774
96197W        W67726   8.920  27.826   3.920
96198W        W67727  18.260  31.072   1.456
96199W        W67728   2.861  43.912  11.146
96200W        W67729  14.099  10.667  11.331
96201W        W67730   1.256  26.655  14.291
96202W        W67731  28.568  14.440  11.058
96203W        W67732  41.839   0.723   3.779
96204W        W67733   2.521  21.364   1.656
96205W        W67734  19.192  33.529   4.657
96206W        W67735   1.233  29.119  12.590
96207W        W67736  20.624   0.019   3.248
96208W        W67737   0.755  40.127  12.834
96209W        W67738   8.579   8.238  14.951
96210W        W67739   8.348  17.132  14.574
96211W        W67740  32.571  16.691   4.461
96212W        W67741  39.957  28.580   2.038
96213W        W67742   2.316   5.262   3.745
96214W        W67743  13.610  30.114   2.777
96215W        W67744   6.963  31.418   3.238
96216W        W67745  10.491  22.606   2.588
96217W        W67746  34.161  35.008   1.191
96218W        W67747  13.788   7.400   2.198
96219W        W67748  38.619  38.041  12.451
96220W        W67749  11.211  15.771  11.426
96221W        W67750  33.969  43.823   4.882
96222W        W67751  38.712   2.565   0.707
96223W        W67752  15.864   2.487   5.018
96224W        W67753  36.845   2.606   2.206
96225W        W67754  33.974  16.351   4.231
96226W        W67755  17.261  23.697  11.992
96227W        W67756  27.553  31.329   4.188
96228W        W67757  44.423  41.412   2.822
96229W        W67758  44.654  39.391  11.370
96230W        W67759  29.822   5.526   0.944
96231W        W67760  14.247  31.627  12.580
96232W        W67761   6.392  32.121  13.845
96233W        W67762   5.669   6.442  12.940
96234W        W67763  30.658  44.230   0.396
96235W        W67764  34.505  31.142  13.721
96236W        W67765  15.235   6.146   0.378
96237W        W67766  29.720  23.403  11.177
96238W        W67767  23.239   8.612   3.647
96239W        W67768  10.360  18.658   1.136
96240W        W67769  28.211  42.081   3.810
96241W        W67770  23.467  17.384  13.028
96242W        W67771  39.766  40.805  13.493
96243W        W67772  24.137  25.822  13.773
96244W        W67773  32.423  39.560  13.942
96245W        W67774  28.492  39.280   0.318
96246W        W67775  37.922  38.855  14.435
96247W        W67776  23.189  23.747   1.962
96248W        W67777   1.891  25.961  11.237
96249W        W67778  17.625  29.694   2.412
96250W        W67779  30.883  31.157  12.906
96251W        W67780  28.494   0.729  13.098
96252W        W67781   8.679  21.548   3.187
96253W        W67782  28.621  34.037  12.066
96254W        W67783  18.054   9.602  11.042
96255W        W67784  23.638  33.619  13.611
96256W        W67785  10.611  32.030  14.681
96257W        W67786   4.432  36.493  11.536
96258W        W67787  28.895   4.258  11.097
96259W        W67788  31.515  24.477   1.321
96260W        W67789  37.362  18.194  10.941
96261W        W67790   7.648  41.158  11.548
96262W        W67791  40.712  18.933  12.282
96263W        W67792  38.122  13.620  13.612
96264W        W67793   9.216  35.568   2.472
96265W        W67794  23.487  43.456  11.692
96266W        W67795  29.013  13.716  13.489
96267W        W67796  30.560  28.892   3.839
96268W        W67797  23.730  15.142   1.634
96269W        W67798  36.298   9.879   4.542
96270W        W67799  44.387   7.403  13.905
96271W        W67800   7.089   7.992   4.614
96272W        W67801  21.578  13.558   3.270
96273W        W67802  14.230  34.807  10.720
96274W        W67803   0.225  11.825  12.499
96275W        W67804  37.049  40.998   2.586
96276W        W67805  24.284  13.032  11.389
96277W        W67806  23.404  40.780  14.790
96278W        W67807  34.776  11.216  13.879
96279W        W67808  25.544  10.418   4.528
96280W        W67809  18.688  43.560  12.509
96281W        W67810  17.149  28.936  13.025
96282W        W67811  32.048  19.791   0.892
96283W        W67812  25.236   2.821  13.104
96284W        W67813  34.985   9.502   3.477
96285W        W67814  14.329   0.470  11.665
96286W        W67815   7.829   0.473   2.873
96287W        W67816  36.679  21.305  11.181
96288W        W67817  42.262   6.810   4.683
96289W        W67818  41.842  30.640  14.729
96290W        W67819  42.612  38.013  10.716
96291W        W67820  42.395  29.762   1.289
96292W        W67821  28.848  17.089  12.851
96293W        W67822  12.608  42.418  14.956
96294W        W67823  39.658   8.278  12.502
96295W        W67824  41.568  38.534  14.896
96296W        W67825  40.825   8.377  14.492
96297W        W67826  26.260   8.525   0.249
96298W        W67827  35.935   9.134  14.507
96299W        W67828  32.988  15.336  13.011
96300W        W67829  25.496   1.001   2.232
96301W        W67830  28.892  28.974   2.456
96302W        W67831  12.909   9.812   0.374
96303W        W67832   7.853  44.014  14.877
96304W        W67833   6.979  34.636  14.773
96305W        W67834  12.667   9.289  11.103
96306W        W67835   5.306  39.640   0.375
96307W        W67836   7.848  39.002  13.371
96308W        W67837  15.891   3.259  10.811
96309W        W67838  21.601  22.073   3.927
96310W        W67839  43.598  42.383   4.557
96311W        W67840   0.003  16.747  12.907
96312W        W67841   3.251  38.880   1.308
96313W        W67842   3.018   6.819   2.184
96314W        W67843   6.244  25.646  12.953
96315W        W67844  31.069  39.798  14.779
96316W        W67845  42.415  40.459   3.836
96317W        W67846  26.141  14.995  12.903
96318W        W67847   0.575   7.801   0.122
96319W        W67848  37.232  23.938   1.814
96320W        W67849   1.506  40.152   0.956
96321W        W67850  32.422  18.176   4.397
96322W        W67851  10.319  38.848  11.481
96323W        W67852  19.799  17.337  11.834
96324W        W67853  18.234  22.206  10.830
96325W        W67854  31.103  16.268  10.656
96326W        W67855  16.967  26.541   1.878
96327W        W67856   1.676  20.677   1.911
96328W        W67857   3.683  43.704  12.678
96329W        W67858   1.244   0.796   1.840
96330W        W67859   7.282  33.439  14.307
96331W        W67860  37.985  36.989  10.957
96332W        W67861   5.693  10.679   0.359
96333W        W67862  43.718  16.461  11.902
96334W        W67863   7.915  26.839   4.077
96335W        W67864  22.943  27.102  10.866
96336W        W67865  38.645   4.486  12.514
96337W        W67866  41.281   6.452  11.444
96338W        W67867   6.916  34.573   2.703
96339W        W67868  17.199   9.585   1.758
96340W        W67869  19.761  39.036  13.868
96341W        W67870  35.325  42.394  10.790
96342W        W67871  12.768  38.574  14.256
96343W        W67872  24.560  28.151   2.759
96344W        W67873   8.155   5.579   1.191
96345W        W67874  14.789  24.756  14.414
96346W        W67875   4.768  11.106   1.424
96347W        W67876  34.343   8.881   0.734
96348W        W67877  31.327  11.657   3.952
96349W        W67878  13.386  32.328   3.763
96350W        W67879  27.435   0.741   1.168
96351W        W67880   7.811  43.438   4.075
96352W        W67881  16.387  43.133   3.306
96353W        W67882  28.263  17.151  10.721
96354W        W67883  26.256   6.602  11.462
96355W        W67884  29.441   2.074   2.667
96356W        W67885  43.372  12.745   3.652
96357W        W67886  34.674  17.524  14.969
96358W        W67887   2.383  42.344  12.638
96359W        W67888  21.960  24.924   2.152
96360W        W67889  18.591  32.533  14.869
96361W        W67890  31.458  28.731   4.624
96362W        W67891  16.495  31.424   0.758
96363W        W67892  23.732  11.363  11.578
96364W        W67893  36.663  30.137   0.243
96365W        W67894  28.134  44.891   3.128
96366W        W67895  23.220  27.122   4.393
96367W        W67896  41.447  25.541   1.000
96368W        W67897  41.531  19.472   4.491
96369W        W67898   5.315  28.227   3.303
96370W        W67899  13.326  35.444  10.484
96371W        W67900  40.309  23.442   2.808
96372W        W67901  36.466  15.147   0.401
96373W        W67902   1.980  41.569  10.811
96374W        W67903  39.450  25.722  14.094
96375W        W67904  31.971  10.378  12.551
96376W        W67905   8.661  25.824   5.093
96377W        W67906   6.437  19.577   1.882
96378W        W67907  12.368  24.442   2.813
96379W        W67908  26.095  32.131   3.211
96380W        W67909   8.093  11.853  13.085
96381W        W67910  29.506  25.484   1.966
96382W        W67911  44.186   5.154   3.118
96383W        W67912  42.307  19.636   1.345
96384W        W67913  41.693  10.196  13.412
96385W        W67914  10.786   1.704   2.948
96386W        W67915   6.275  34.880  14.913
96387W        W67916   1.246  41.822  11.579
96388W        W67917  12.806  32.018  14.609
96389W        W67918   1.748  22.867   4.117
96390W        W67919   3.992   8.749  11.160
96391W        W67920   6.877  14.669   4.589
96392W        W67921  19.521  38.118   3.362
96393W        W67922   1.603  35.133   4.016
96394W        W67923   0.030  39.296   4.218
96395W        W67924  27.508   1.540  14.863
96396W        W67925  11.706  24.281  10.772
96397W        W67926  38.505  12.445   3.116
96398W        W67927  34.421  31.981   3.744
96399W        W67928   0.526  12.227   4.062
96400W        W67929  42.482  18.156   3.889
96401W        W67930   5.227  22.284  14.100
96402W        W67931  15.035   9.385   0.886
96403W        W67932  41.915   3.940  13.421
96404W        W67933  32.300  41.434   3.772
96405W        W67934  18.006   5.896   2.438
96406W        W67935  35.125  29.507   4.987
96407W        W67936  38.716  31.985  11.561
96408W        W67937  21.417  39.260  14.448
96409W        W67938  28.784   7.148   0.676
96410W        W67939  11.896  15.170  10.444
96411W        W67940  27.042  34.518  12.369
96412W        W67941   9.430  22.812   2.207
96413W        W67942  25.087   1.522  11.941
96414W        W67943  28.400   0.361   4.762
96415W        W67944  16.076  42.797   2.358
96416W        W67945  13.265  36.359   1.626
96417W        W67946  27.540  24.499  14.291
96418W        W67947  28.551  20.347   0.950
96419W        W67948   8.835  38.308  10.692
96420W        W67949  15.605  38.182   0.886
96421W        W67950  24.571  12.375  13.937
96422W        W67951  16.971  21.544   1.275
96423W        W67952  25.340  28.104  11.200
96424W        W67953  22.291  40.046  12.463
96425W        W67954  44.581  39.503  12.153
96426W        W67955  43.264  44.351   1.039
96427W        W67956   1.572  27.940  13.449
96428W        W67957   7.304  28.144  12.050
96429W        W67958  23.593  23.168   3.910
96430W        W67959  39.035  16.757  13.958
96431W        W67960  11.311  23.411  13.321
96432W        W67961  14.336   0.342   1.837
96433W        W67962   7.210  38.542  14.510
96434W        W67963  28.029   3.317   4.562
96435W        W67964   3.835  19.309   3.934
96436W        W67965  32.919  21.985   0.516
96437W        W67966  26.741  14.539   2.452
96438W        W67967  43.484  12.608   0.314
96439W        W67968  36.603  12.215  13.511
96440W        W67969   1.477  10.341  12.942
96441W        W67970  36.793  33.173  12.006
96442W        W67971  19.062  14.859  11.172
96443W        W67972  20.458   7.021  12.340
96444W        W67973  17.204   5.349   0.762
96445W        W67974  22.045  21.713  12.412
96446W        W67975  15.862  11.338  11.687
96447W        W67976  13.116  35.474  11.806
96448W        W67977  44.320  40.823  10.537
96449W        W67978  13.833  31.102  10.631
96450W        W67979   3.979  12.207   4.526
96451W        W67980   6.560  29.034   4.220
96452W        W67981  39.765  38.250   4.096
96453W        W67982   2.834  18.775   4.708
96454W        W67983  19.996  33.563  12.003
96455W        W67984  24.576  39.103  14.903
96456W        W67985   3.415  43.110  12.022
96457W        W67986  13.621  33.966  11.613
96458W        W67987  29.749  21.595  12.626
96459W        W67988  29.237  16.879   0.684
96460W        W67989   4.624  19.950   3.153
96461W        W67990  10.148  23.457  11.522
96462W        W67991  32.573  35.374  10.831
96463W        W67992  41.058  42.750  13.419
96464W        W67993  19.756  38.758   4.839
96465W        W67994  44.493  16.745  12.816
96466W        W67995   3.243  43.523  11.133
96467W        W67996  41.475  38.561  11.137
96468W        W67997  43.398  10.098  13.846
96469W        W67998   6.632  22.128  10.724
96470W        W67999   5.522   6.704   1.310
96471W        W68000  25.925  12.137   0.367
96472W        W68001   6.324  38.970   1.215
96473W        W68002  42.743  17.370  11.306
96474W        W68003  34.364   0.339  13.846
96475W        W68004  10.094   7.957   5.109
96476W        W68005  43.116  36.703  11.610
96477W        W68006   7.842  27.979   0.291
96478W        W68007  22.227  12.576   0.175
96479W        W68008  24.248  28.515   0.854
96480W        W68009   7.426  21.515  11.670
96481W        W68010  26.880  35.039  11.182
96482W        W68011  35.613   3.111  11.202
96483W        W68012  20.140  15.957   4.536
96484W        W68013  43.667  31.172  13.381
96485W        W68014   0.863  11.185  12.141
96486W        W68015  22.336  25.556  12.849
96487W        W68016  13.709  11.014  13.317
96488W        W68017  24.609   3.896   0.948
96489W        W68018  20.824  28.461   0.314
96490W        W68019  12.088  33.538   1.871
96491W        W68020   3.454   5.615  14.138
96492W        W68021  19.490  29.081  14.074
96493W        W68022   1.178   6.423   2.279
96494W        W68023  15.081  28.500  12.369
96495W        W68024  43.034  22.835   4.449
96496W        W68025  11.714  38.485   1.222
96497W        W68026  16.718  35.879   4.718
96498W        W68027  25.420  41.780  12.028
96499W        W68028  30.609  21.979  11.627
96500W        W68029   9.765  24.359  13.395
96501W        W68030  38.971  26.318   1.503
96502W        W68031  17.587   0.741  14.848
96503W        W68032  40.806   4.955  13.923
96504W        W68033  20.028  30.991   3.440
96505W        W68034  43.473   5.657  10.744
96506W        W68035   4.007  27.804  13.061
96507W        W68036  30.687  15.187   2.258
96508W        W68037   6.955  23.514  12.921
96509W        W68038  11.214  36.068   0.029
96510W        W68039  17.017  20.025  14.379
96511W        W68040  42.139  42.961   3.857
96512W        W68041  10.812   7.884   3.824
96513W        W68042  11.390  38.788  14.428
96514W        W68043  29.208  39.403   2.872
96515W        W68044  37.775  15.263  13.259
96516W        W68045  27.116  24.278  13.506
96517W        W68046  37.270  34.653   2.725
96518W        W68047  14.582  29.541   4.150
96519W        W68048   0.262  18.298   1.869
96520W        W68049  13.636  14.341   0.370
96521W        W68050  38.544  44.519   4.178
96522W        W68051  11.175  20.494   2.276
96523W        W68052   9.989  30.880  12.351
96524W        W68053  21.586   5.443   2.259
96525W        W68054  31.865  38.419  13.679
96526W        W68055  23.145  43.477  12.889
96527W        W68056   4.350   0.348  14.177
96528W        W68057  41.391   9.254   3.972
96529W        W68058  33.881  29.854  14.791
96530W        W68059  38.420  11.940   3.186
96531W        W68060   7.510  23.398  12.197
96532W        W68061  27.844  31.114   4.539
96533W        W68062  44.747  33.332  11.259
96534W        W68063  16.641  21.651   0.157
96535W        W68064  21.213  12.681   4.658
96536W        W68065  33.511  42.301   1.193
96537W        W68066  34.311  15.091  11.365
96538W        W68067  41.742  13.471   3.430
96539W        W68068  32.395   7.145   3.646
96540W        W68069  29.865  16.161  13.988
96541W        W68070   9.063   5.391   2.264
96542W        W68071  28.730  31.616  12.042
96543W        W68072  20.186  41.197   2.235
96544W        W68073  17.563  25.987   2.582
96545W        W68074  43.380  18.059   1.237
96546W        W68075  13.864  40.930   2.126
96547W        W68076  29.173  26.953  12.905
96548W        W68077  31.194  21.749  10.741
96549W        W68078   2.928  31.617  11.552
96550W        W68079  29.395  14.052  13.429
96551W        W68080  38.513  43.963   1.028
96552W        W68081  10.843  23.298   4.804
96553W        W68082  25.596  35.046  11.709
96554W        W68083  25.078  11.279   1.693
96555W        W68084  25.192   4.038   1.154
96556W        W68085  15.958  29.379  14.852
96557W        W68086  40.070  37.436  14.833
96558W        W68087   1.870  21.811  11.128
96559W        W68088  13.582  10.720  12.926
96560W        W68089  44.003   4.942   2.661
96561W        W68090  29.516  20.679  13.069
96562W        W68091  22.221  10.717  10.739
96563W        W68092  24.164   4.254  13.353
96564W        W68093  16.049  19.193   4.173
96565W        W68094  23.564  26.449  14.380
96566W        W68095  15.814   4.942   2.792
96567W        W68096   6.778   1.434  13.047
96568W        W68097  38.373  37.338   4.125
96569W        W68098   2.347  21.611  11.076
96570W        W68099   1.448  34.838   3.566
96571W        W68100  44.763  25.267  11.417
96572W        W68101  15.121  44.001   1.943
96573W        W68102   3.784   4.380  12.998
96574W        W68103   8.216   1.023  10.589
96575W        W68104   0.745  32.891  12.134
96576W        W68105  13.121   3.719  14.973
96577W        W68106  31.925  11.301  10.805
96578W        W68107   0.202  44.780   0.783
96579W        W68108  29.043  11.338  12.045
96580W        W68109  26.229  31.631   3.315
96581W        W68110  19.340  43.758   0.987
96582W        W68111   7.553  41.423   2.374
96583W        W68112  29.968  16.686  12.275
96584W        W68113  32.460  28.762   3.893
96585W        W68114   0.102  37.204   3.999
96586W        W68115   9.510  20.758  14.709
96587W        W68116   7.202  36.429  10.733
96588W        W68117  33.776  10.342  14.702
96589W        W68118  19.258  19.646   0.790
96590W        W68119  38.877   9.659  10.640
96591W        W68120  36.822  17.244   0.248
96592W        W68121  15.521  44.909  12.971
96593W        W68122   1.585  26.185   4.482
96594W        W68123  16.072   2.168   3.638
96595W        W68124  22.436  37.980   4.664
96596W        W68125  24.026  26.986  12.994
96597W        W68126  42.759  25.637   0.276
96598W        W68127   8.152  28.031   0.694
96599W        W68128  20.495  27.097   3.633
96600W        W68129  11.258  14.853   0.297
96601W        W68130  18.638  19.796   9.964
96602W        W68131  38.579   9.720   1.964
96603W        W68132  13.259  18.059  11.648
96604W        W68133   1.308  36.117   2.709
96605W        W68134  31.461   1.938   0.844
96606W        W68135  21.649   2.724   0.880
96607W        W68136  17.806   0.858  13.255
96608W        W68137  27.119  26.800   0.798
96609W        W68138  27.768  26.478  13.259
96610W        W68139  25.915  44.979  12.093
96611W        W68140  26.975  36.029   2.915
96612W        W68141  34.238  22.523   2.769
96613W        W68142  26.240   5.661   3.662
96614W        W68143  18.631  34.899  12.017
96615W        W68144   9.755  42.403  11.353
96616W        W68145  31.654  39.316  14.591
96617W        W68146   3.731  21.488   1.445
96618W        W68147  41.456  20.275  13.954
96619W        W68148   2.782   8.344  14.302
96620W        W68149  31.692  11.676   3.583
96621W        W68150  40.916  27.185  12.102
96622W        W68151  38.838  39.215  14.174
96623W        W68152  33.566  15.652  13.880
96624W        W68153  10.721  44.312  13.067
96625W        W68154  37.422  20.957   0.362
96626W        W68155  19.136  28.972  11.002
96627W        W68156  44.699   4.425   4.676
96628W        W68157  36.901   2.544   4.314
96629W        W68158  19.515  35.373  12.843
96630W        W68159  17.193  10.587   1.680
96631W        W68160  25.618  36.161  14.375
96632W        W68161   4.480   7.847   0.200
96633W        W68162  27.678  41.854   4.555
96634W        W68163  44.967   9.700  11.586
96635W        W68164  41.947  12.727  13.314
96636W        W68165  33.620  21.202  12.835
96637W        W68166   0.744  10.160   0.548
96638W        W68167  22.839  38.958   4.532
96639W        W68168  10.930  10.907  14.396
96640W        W68169  11.298  16.840   0.455
96641W        W68170  20.738  13.404   3.309
96642W        W68171  30.458  28.423  11.565
96643W        W68172  20.645   4.308  11.344
96644W        W68173  15.048  35.413   0.973
96645W        W68174   8.133   0.783   9.768
96646W        W68175  22.687  40.250   1.332
96647W        W68176  34.848  25.536   3.163
96648W        W68177  22.480  12.412  14.291
96649W        W68178  19.122  35.415   0.318
96650W        W68179   0.501  16.999  10.245
96651W        W68180  40.146  23.761  13.971
96652W        W68181  28.574   4.749  13.051
96653W        W68182   8.709  33.489   0.932
96654W        W68183  38.430  30.125   4.628
96655W        W68184   4.853  43.830  13.401
96656W        W68185  40.166   4.618  12.101
96657W        W68186  40.572  13.104  11.876
96658W        W68187   2.305  23.728  12.968
96659W        W68188  39.980  26.753  14.631
96660W        W68189  26.924  37.483   3.643
96661W        W68190   5.675  25.483   4.529
96662W        W68191  38.983  14.410  11.589
96663W        W68192  20.171   3.795  14.847
96664W        W68193  42.965  19.650  12.381
96665W        W68194  18.638  34.101   0.389
96666W        W68195  39.969   1.412   4.216
96667W        W68196  12.115  24.071   1.031
96668W        W68197   0.773  37.457   1.734
96669W        W68198  34.246  34.399   1.410
96670W        W68199  41.692  30.455   1.410
96671W        W68200  14.363   1.278  10.949
96672W        W68201  42.606   2.234   3.656
96673W        W68202  21.533  44.692   0.426
96674W        W68203  42.560  33.980   4.828
96675W        W68204   3.400  26.948  13.054
96676W        W68205  40.462   5.637   1.389
96677W        W68206  18.074  41.699   2.904
96678W        W68207   9.782  22.699   0.250
96679W        W68208  13.859   7.287   3.240
96680W        W68209  27.403  22.522   2.153
96681W        W68210  25.649  30.494   4.132
96682W        W68211   7.006  31.525   4.542
96683W        W68212  27.369  33.664  13.023
96684W        W68213  26.958   4.916   1.274
96685W        W68214  19.834  14.806   4.609
96686W        W68215  36.792   1.391   0.994
96687W        W68216  35.580  33.394  12.459
96688W        W68217  31.688  13.797  11.534
96689W        W68218   2.625  31.840  14.885
96690W        W68219  44.982  14.101  12.458
96691W        W68220  19.551  12.877   1.397
96692W        W68221  13.357  44.276   3.743
96693W        W68222  20.208  30.679  14.125
96694W        W68223   9.061   4.366  12.400
96695W        W68224  32.410   6.690   2.299
96696W        W68225  29.397  10.274   1.712
96697W        W68226   0.024  34.459  13.692
96698W        W68227  11.337  28.324  13.494
96699W        W68228  34.572   8.666   1.928
96700W        W68229  43.456   1.921   2.214
96701W        W68230  23.582  42.317  14.777
96702W        W68231   9.878  29.826   5.005
96703W        W68232  21.101   3.664   2.022
96704W        W68233  21.187  37.662  12.737
96705W        W68234  12.449  28.073  10.787
96706W        W68235   6.476  28.151   2.855
96707W        W68236   7.727  33.950  12.092
96708W        W68237  14.732   7.146  10.274
96709W        W68238   3.523  22.131  12.040
96710W        W68239  14.221  42.044   1.356
96711W        W68240  20.394  33.779   1.119
96712W        W68241  31.049  25.143  11.642
96713W        W68242  36.852  20.679  11.939
96714W        W68243  23.124  43.268  10.709
96715W        W68244  11.683   2.651   3.118
96716W        W68245  37.243  40.332   0.663
96717W        W68246  40.543  10.167  13.827
96718W        W68247  41.394  16.926   3.805
96719W        W68248  16.334  22.126  12.046
96720W        W68249  44.486  21.229  10.755
96721W        W68250  15.123  12.523   2.608
96722W        W68251  41.269  39.578   2.229
96723W        W68252  40.700  12.599   4.112
96724W        W68253  38.145  15.191  11.874
96725W        W68254   9.609  42.097  14.536
96726W        W68255   8.691  15.271   3.671
96727W        W68256  33.439  34.290  13.081
96728W        W68257  31.326   9.144  13.488
96729W        W68258  28.358  15.226   5.166
96730W        W68259  10.780  34.335  14.343
96731W        W68260   7.647  14.943   4.296
96732W        W68261  12.264  30.209   2.772
96733W        W68262  33.483  39.291  12.339
96734W        W68263   5.848  14.344  13.138
96735W        W68264   9.748  31.503  14.793
96736W        W68265  15.768   8.588   1.908
96737W        W68266  30.144  39.218   3.687
96738W        W68267   0.785  40.961  14.578
96739W        W68268  25.623  24.178  11.857
96740W        W68269  26.981  15.342   0.980
96741W        W68270  24.569  44.721  12.779
96742W        W68271  13.846   3.353  10.675
96743W        W68272  10.148   1.282   4.185
96744W        W68273  15.295  23.838  11.431
96745W        W68274  41.935  15.118   2.126
96746W        W68275  19.514  11.764   2.237
96747W        W68276   7.973  35.563  14.421
96748W        W68277  15.326  43.552   2.684
96749W        W68278  14.308   7.187  11.421
96750W        W68279  23.044  15.995   4.158
96751W        W68280  32.594  38.427   3.431
96752W        W68281  17.234  44.934   4.586
96753W        W68282   9.430  40.405  13.163
96754W        W68283   4.789   6.891   3.885
96755W        W68284  22.415   3.015  11.530
96756W        W68285  21.849  11.163   0.133
96757W        W68286   7.715  34.586   2.279
96758W        W68287  30.412   2.744   0.705
96759W        W68288  40.572  27.462  12.888
96760W        W68289   6.042  16.084   1.685
96761W        W68290  41.522  15.565   1.479
96762W        W68291  39.063  38.939  10.766
96763W        W68292  24.848  40.525  12.512
96764W        W68293  12.851  13.898   1.730
96765W        W68294  14.614   8.186   2.717
96766W        W68295  15.770  21.822   1.662
96767W        W68296   7.579   8.333   2.362
96768W        W68297  24.876  39.051  11.164
96769W        W68298  20.847   6.607  10.843
96770W        W68299  14.033  29.378  10.631
96771W        W68300  19.345   9.127   3.424
96772W        W68301  36.501  43.847   0.303
96773W        W68302  42.579  13.117   0.428
96774W        W68303  12.908   9.938   2.287
96775W        W68304  44.747  14.908   1.996
96776W        W68305  41.034  30.958  12.584
96777W        W68306  24.506  25.911   2.219
96778W        W68307  27.161  42.067   3.820
96779W        W68308  18.620  41.270  14.351
96780W        W68309  31.385  30.049   1.942
96781W        W68310  27.454  30.990  14.756
96782W        W68311   8.453  42.509  14.077
96783W        W68312   4.931  16.911   3.908
96784W        W68313  12.722  11.908   0.225
96785W        W68314  28.054  43.589   3.141
96786W        W68315  12.659   2.888  10.575
96787W        W68316   1.500  25.112   4.420
96788W        W68317  16.822   1.813  14.713
96789W        W68318  24.063  24.921   2.296
96790W        W68319  26.211   7.989  10.754
96791W        W68320   0.740  30.957  14.619
96792W        W68321  14.156   7.369   1.702
96793W        W68322  22.498  44.671   3.626
96794W        W68323  31.713  11.239  13.922
96795W        W68324  33.414  14.513   4.562
96796W        W68325  31.958   2.670   0.279
96797W        W68326   7.435  20.663   3.330
96798W        W68327  25.914  29.108  10.634
96799W        W68328  38.094  31.311  10.310
96800W        W68329  20.997  16.083   3.629
96801W        W68330   1.970  41.767  12.067
96802W        W68331   2.535  34.731   9.789
96803W        W68332  28.051   0.146   0.571
96804W        W68333  39.184  24.202   0.669
96805W        W68334   5.372  24.550   0.002
96806W        W68335  42.758  43.503   0.497
96807W        W68336  19.937  40.060  14.893
96808W        W68337  25.402   4.345  11.539
96809W        W68338   7.640  15.688  10.989
96810W        W68339  27.593  19.508  13.840
96811W        W68340  20.042  14.263   2.331
96812W        W68341  33.664  44.238  13.807
96813W        W68342  42.367  18.017  11.244
96814W        W68343  20.653   8.002   4.088
96815W        W68344  34.423  31.631  13.933
96816W        W68345  24.282  32.489   0.757
96817W        W68346   1.445  25.655  12.826
96818W        W68347  37.075  25.456   0.792
96819W        W68348   4.431  10.348  14.526
96820W        W68349  22.070  36.528   3.716
96821W        W68350   4.949  33.731  12.293
96822W        W68351  11.205   0.038  13.370
96823W        W68352  24.004  21.056   4.600
96824W        W68353   0.534  29.573  14.962
96825W        W68354   2.792  22.584  13.073
96826W        W68355  12.748  21.246   5.277
96827W        W68356  11.158  16.553   3.740
96828W        W68357   3.708   0.542   1.270
96829W        W68358  25.935   1.909   3.047
96830W        W68359  22.115  33.257  11.087
96831W        W68360  19.780  28.953  11.003
96832W        W68361   5.457  30.551   0.824
96833W        W68362  31.263  17.085   0.042
96834W        W68363  36.194  16.848   2.137
96835W        W68364  29.114  19.244  10.730
96836W        W68365  33.866  34.595   2.688
96837W        W68366  25.600   0.361  13.990
96838W        W68367  22.600  18.117  11.153
96839W        W68368  43.122  42.848  13.589
96840W        W68369  27.119  18.362   1.829
96841W        W68370  19.642  36.215   1.647
96842W        W68371  17.794  40.153  12.329
96843W        W68372  29.575  37.384  11.120
96844W        W68373  38.902   1.920   4.648
96845W        W68374  20.958  40.069  11.854
96846W        W68375  23.552  21.073   3.240
96847W        W68376  16.329  19.259  11.530
96848W        W68377   9.223  31.337   3.379
96849W        W68378  32.536  18.747  10.542
96850W        W68379  19.171  32.389  10.768
96851W        W68380  33.588  15.122  12.667
96852W        W68381  17.735  34.056   1.841
96853W        W68382  36.872  23.984   4.760
96854W        W68383  33.324  20.590  12.578
96855W        W68384   3.409  40.211  11.139
96856W        W68385   9.766  43.287  13.968
96857W        W68386  41.545  27.847  13.016
96858W        W68387   0.517  38.270  11.021
96859W        W68388  18.765  26.124  14.130
96860W        W68389  17.116  24.661   1.248
96861W        W68390  34.859  35.394  13.636
96862W        W68391   0.053  38.791   3.403
96863W        W68392  17.726   8.843  12.220
96864W        W68393  27.379  10.164   3.240
96865W        W68394  16.722  13.894   4.403
96866W        W68395  37.270  28.004  11.170
96867W        W68396  36.156  36.228   0.726
96868W        W68397  32.662   1.488   0.209
96869W        W68398  18.713  30.544   5.358
96870W        W68399   0.722  22.961  11.503
96871W        W68400  43.399  38.834   3.643
96872W        W68401  36.611  30.500  11.127
96873W        W68402  34.249  37.405  10.635
96874W        W68403  11.887  41.352  11.112
96875W        W68404  29.874   8.815   4.759
96876W        W68405   4.693  32.830  14.317
96877W        W68406  31.182  37.658   2.256
96878W        W68407  23.650  20.801   4.132
96879W        W68408  44.836   0.322   3.074
96880W        W68409  37.572  22.144   3.646
96881W        W68410  38.331  12.463   5.028
96882W        W68411  13.328  38.225   1.890
96883W        W68412  10.535   3.174  13.487
96884W        W68413  37.440   6.773  12.087
96885W        W68414  16.164  30.110   1.374
96886W        W68415  19.965  40.308   0.840
96887W        W68416  12.210  32.107   3.009
96888W        W68417   7.446  23.014  13.940
96889W        W68418   1.961  26.265   1.273
96890W        W68419   7.407  43.605   4.353
96891W        W68420   0.366  44.006   2.777
96892W        W68421  22.569  37.013  14.012
96893W        W68422  36.920  39.680  10.577
96894W        W68423  14.040  20.214  14.873
96895W        W68424  37.543  19.035   0.370
96896W        W68425  21.108  10.742  12.414
96897W        W68426   7.879   3.817  14.847
96898W        W68427  16.054  15.284   2.798
96899W        W68428  33.340  30.924  12.118
96900W        W68429  31.713   8.796  13.379
96901W        W68430  42.777  13.366   1.381
96902W        W68431   5.143  20.694   4.424
96903W        W68432  34.551  15.604  10.640
96904W        W68433  27.564  40.082  13.255
96905W        W68434   7.802  42.018  14.319
96906W        W68435  27.578   4.447  13.196
96907W        W68436  27.764  21.797  12.430
96908W        W68437  31.693  43.013  12.340
96909W        W68438  20.819  40.256  11.384
96910W        W68439  29.588  35.516   0.916
96911W        W68440  31.811  12.006  13.002
96912W        W68441  10.281  23.089  11.168
96913W        W68442  29.954   9.744   3.874
96914W        W68443   7.829  21.040   3.315
96915W        W68444  43.991  18.107   3.683
96916W        W68445  11.630  29.713   4.107
96917W        W68446   3.651  20.637   2.859
96918W        W68447  17.792  28.052   3.833
96919W        W68448   6.700  14.488   0.397
96920W        W68449  29.036  20.472  13.366
96921W        W68450  34.697  26.163   2.895
96922W        W68451  22.008  14.084   0.738
96923W        W68452  12.349  27.491  13.979
96924W        W68453  15.748  11.415   5.161
96925W        W68454  22.131  17.860  11.990
96926W        W68455   4.125  35.635  13.987
96927W        W68456  12.641   7.601  13.115
96928W        W68457  27.730  31.607  11.965
96929W        W68458   8.536  11.522  14.901
96930W        W68459  11.711  12.808  11.313
96931W        W68460  32.969  10.611  10.775
96932W        W68461  19.914  33.178   4.210
96933W        W68462  20.390  30.650   4.099
96934W        W68463  31.942  23.604   3.389
96935W        W68464  13.846  24.175   4.325
96936W        W68465  10.125  40.407  11.215
96937W        W68466  37.916   9.057  11.784
96938W        W68467  13.733   3.326  13.867
96939W        W68468  35.671  19.986   2.759
96940W        W68469   1.394  29.079   0.972
96941W        W68470   6.766  40.861  14.970
96942W        W68471  31.948  40.389  13.394
96943W        W68472  36.017  10.534  12.501
96944W        W68473  43.672  33.103  11.318
96945W        W68474  43.934  39.813  14.409
96946W        W68475  31.632  15.923  13.787
96947W        W68476  27.227  10.179  11.534
96948W        W68477   3.885  19.078  10.573
96949W        W68478   1.290   2.539  11.360
96950W        W68479  19.248  39.762   2.610
96951W        W68480  13.508  20.505  12.547
96952W        W68481  21.156  10.542  12.966
96953W        W68482  32.625  13.303   1.176
96954W        W68483  11.061  30.491  13.888
96955W        W68484  19.241  43.826  10.588
96956W        W68485  33.561  33.490   4.228
96957W        W68486  44.436   0.916   0.247
96958W        W68487  11.993  41.259  10.627
96959W        W68488  21.884  17.047  13.939
96960W        W68489  44.539  32.626   3.608
96961W        W68490  10.635   9.789   0.031
96962W        W68491  19.632  18.836   4.944
96963W        W68492   3.949  28.874   0.370
96964W        W68493  38.801   4.709   0.381
96965W        W68494  16.647  18.654  14.742
96966W        W68495   4.890  40.385  14.945
96967W        W68496   8.136  25.188   0.363
96968W        W68497  29.971   0.409   1.613
96969W        W68498  34.100  44.500  12.949
96970W        W68499  16.705  16.128  14.019
96971W        W68500  23.389  35.931  10.432
96972W        W68501  39.399  33.158  10.592
96973W        W68502  17.199  34.449   0.079
96974W        W68503  33.169   1.708  10.437
96975W        W68504   8.807  37.089   2.710
96976W        W68505  39.858  11.536  14.477
96977W        W68506  44.378   7.112   4.529
96978W        W68507   4.697  21.062  10.485
96979W        W68508  40.233   3.886   1.713
96980W        W68509  40.471  39.066  11.737
96981W        W68510   6.258  37.651   1.299
96982W        W68511  18.891  38.876   0.928
96983W        W68512  32.938  10.756  14.974
96984W        W68513  21.078  34.611   2.364
96985W        W68514  33.683  40.803  14.460
96986W        W68515  41.343  34.436  14.882
96987W        W68516   8.101  24.913  14.500
96988W        W68517  16.670  42.802   4.090
96989W        W68518  41.743  23.350  13.397
96990W        W68519  13.751   2.860   4.290
96991W        W68520  43.558  25.986   4.134
96992W        W68521   9.671  14.707   0.994
96993W        W68522  11.086  14.332   3.781
96994W        W68523  23.198   3.774  10.838
96995W        W68524  19.942  20.531   0.224
96996W        W68525  30.897  15.639  12.380
96997W        W68526  43.978   3.242   0.372
96998W        W68527  40.485  29.101  12.418
96999W        W68528  44.250  27.629  14.305
97000W        W68529   4.697  12.686  11.853
97001W        W68530  41.723  17.530   5.077
97002W        W68531  14.320  15.947  13.509
97003W        W68532  28.841  43.893   0.485
97004W        W68533   0.875  35.502  12.367
97005W        W68534  20.975  14.291  14.726
97006W        W68535  25.048  41.989  12.370
97007W        W68536   7.695  32.036   3.102
97008W        W68537  40.455  12.665   3.196
97009W        W68538  12.832  28.144  13.521
97010W        W68539  16.974   8.923   0.433
97011W        W68540   0.845  31.604  10.777
97012W        W68541  21.115  41.180   1.300
97013W        W68542  31.686  10.875   2.706
97014W        W68543  33.523  26.660   1.701
97015W        W68544  21.596   8.908   4.183
97016W        W68545  37.358  27.884  14.845
97017W        W68546  14.542  37.852  14.386
97018W        W68547  23.752   5.300   2.671
97019W        W68548  26.745  13.588   0.030
97020W        W68549   0.474  16.094   2.292
97021W        W68550  16.070  19.382   3.705
97022W        W68551  37.515   4.191  11.544
97023W        W68552  40.379  30.564  12.551
97024W        W68553  26.493  17.615  10.683
97025W        W68554  22.095   2.868   3.676
97026W        W68555  38.030  44.271   4.163
97027W        W68556  37.545  39.384   3.611
97028W        W68557  44.029   6.996  13.952
97029W        W68558  12.324  33.122  11.244
97030W        W68559  33.223  40.868   2.778
97031W        W68560  30.774  43.741   3.371
97032W        W68561  20.288   8.190  11.242
97033W        W68562  13.310  31.887  13.397
97034W        W68563  30.009  17.837  14.821
97035W        W68564  41.460   0.521  11.565
97036W        W68565  16.281  11.309  10.186
97037W        W68566  17.335  41.021  13.126
97038W        W68567  34.698  21.559   3.787
97039W        W68568  21.227  39.787  13.329
97040W        W68569  21.731  21.757  10.683
97041W        W68570  14.420   4.932   3.723
97042W        W68571  35.507   5.320   1.742
97043W        W68572  31.160  30.550  12.537
97044W        W68573  26.737   4.846  10.728
97045W        W68574   6.344  21.133   4.588
97046W        W68575  16.559  22.622  12.005
97047W        W68576  20.154  35.354   3.521
97048W        W68577  36.821   5.386  14.960
97049W        W68578  44.581  17.352  11.538
97050W        W68579  30.999   5.619  10.978
97051W        W68580  24.615  20.729   0.334
97052W        W68581  40.397  31.596  13.490
97053W        W68582   9.672  23.783  12.199
97054W        W68583  43.738  41.527   3.217
97055W        W68584  15.273  25.242  13.920
97056W        W68585  21.226   4.292   0.892
97057W        W68586  30.939  44.963  10.648
97058W        W68587  43.091   1.897   4.639
97059W        W68588  13.999  15.828   1.174
97060W        W68589  26.438  38.344  13.863
97061W        W68590  31.117   1.572   0.783
97062W        W68591  25.347  33.950   0.545
97063W        W68592  24.118  36.395  14.346
97064W        W68593   0.066   4.189  13.489
97065W        W68594  26.155   2.629  12.932
97066W        W68595   0.470  37.041   0.375
97067W        W68596  31.027   0.123   4.766
97068W        W68597   6.082  16.183  13.557
97069W        W68598  39.318  38.444   4.283
97070W        W68599  31.090  14.530  10.162
97071W        W68600  35.376  43.702  13.096
97072W        W68601  40.563  18.334   1.286
97073W        W68602  27.741   2.551  12.623
97074W        W68603  28.946   8.759  14.726
97075W        W68604   4.517  39.321   2.682
97076W        W68605   6.151  20.039   3.610
97077W        W68606  41.510  13.056  14.326
97078W        W68607  34.624   5.698  12.970
97079W        W68608  43.059  35.042  14.895
97080W        W68609  27.970  12.779  14.059
97081W        W68610  36.012  22.245   2.379
97082W        W68611  15.184   7.426  12.785
97083W        W68612  38.865  42.389   4.158
97084W        W68613  34.580  28.674   0.735
97085W        W68614  37.161  36.791  14.857
97086W        W68615  17.015  41.783  11.031
97087W        W68616  12.917  39.074   1.933
97088W        W68617   6.237  37.380  13.839
97089W        W68618  12.654  43.921   2.136
97090W        W68619  22.057  16.054   3.139
97091W        W68620  24.777  41.983   4.301
97092W        W68621  28.130  20.080   1.744
97093W        W68622  38.156  32.368   1.317
97094W        W68623  43.384  27.267   3.232
97095W        W68624  33.093  10.277   1.810
97096W        W68625  27.657  10.362   2.331
97097W        W68626  11.586  20.271   3.606
97098W        W68627   4.297   4.301   3.632
97099W        W68628  43.586  30.568  11.621
97100W        W68629  34.844  11.401   2.332
97101W        W68630  39.984  20.093   2.853
97102W        W68631   1.798  35.585   0.668
97103W        W68632  28.095  30.876  13.338
97104W        W68633  29.985  20.039   0.420
97105W        W68634  25.099  44.293  13.526
97106W        W68635  30.685   4.264  13.167
97107W        W68636  23.776  34.986   3.594
97108W        W68637  27.007  27.151   3.490
97109W        W68638  34.356  27.082   3.323
97110W        W68639  25.294   8.661   4.310
97111W        W68640  17.226   8.897   1.314
97112W        W68641  20.032  19.665  14.277
97113W        W68642  33.086   1.979   0.858
97114W        W68643  24.430  23.640   0.368
97115W        W68644  20.275  19.066   0.380
97116W        W68645  10.701   5.683  13.740
97117W        W68646  32.676  10.899   1.179
97118W        W68647  29.501  42.471   4.216
97119W        W68648  23.699  40.390   0.297
97120W        W68649  39.358  37.585  11.924
97121W        W68650  36.353   0.885  11.769
97122W        W68651  14.835   1.568   4.594
97123W        W68652  44.545  23.548  12.010
97124W        W68653  38.610  37.151   0.974
97125W        W68654  35.078  18.754  12.587
97126W        W68655   5.116  15.522  10.188
97127W        W68656  44.348  10.450  10.635
97128W        W68657  15.635  36.018  14.494
97129W        W68658  22.137  25.928   1.165
97130W        W68659  25.718  39.773  14.009
97131W        W68660   7.740   1.732   1.428
97132W        W68661  38.034  39.366   0.248
97133W        W68662   6.593  17.856  11.562
97134W        W68663  26.575   3.868  11.694
97135W        W68664  31.992   4.455   3.862
97136W        W68665   1.193  18.806  11.775
97137W        W68666  19.729  41.412  12.653
97138W        W68667  19.681  26.667  11.949
97139W        W68668  30.496  30.290  12.741
97140W        W68669  19.542   9.679   1.295
97141W        W68670  23.242  37.994   3.344
97142W        W68671  32.211   2.726   3.749
97143W        W68672  29.020  21.276   0.421
97144W        W68673  25.611  14.090   2.298
97145W        W68674  31.899  44.211   1.223
97146W        W68675  41.864  38.412   4.455
97147W        W68676  13.171  13.264  12.325
97148W        W68677  28.382  36.890   2.213
97149W        W68678  30.133   3.943  12.518
97150W        W68679  20.151   7.690  14.972
97151W        W68680  23.405  34.928   9.995
97152W        W68681  26.069  37.810  11.768
97153W        W68682  38.245  26.181   0.039
97154W        W68683  13.379  42.848   1.130
97155W        W68684  25.980  44.065   1.850
97156W        W68685  38.167  40.534   2.798
97157W        W68686   3.955  41.258  13.945
97158W        W68687   5.980   7.463   0.575
97159W        W68688   3.372  42.780   2.637
97160W        W68689  25.676  21.608   5.010
97161W        W68690  17.755  42.959   0.834
97162W        W68691  23.204  30.526   0.861
97163W        W68692  22.982  30.541  12.388
97164W        W68693  20.745  24.494   1.520
97165W        W68694  43.949  10.150  13.890
97166W        W68695   7.431  14.573   3.723
97167W        W68696  25.474  26.128   4.272
97168W        W68697  42.973  36.620   0.635
97169W        W68698  33.584  20.785   1.173
97170W        W68699  21.254  26.160  10.212
97171W        W68700  25.763   8.691  13.784
97172W        W68701  38.336  44.870  12.806
97173W        W68702  21.744   9.285  12.381
97174W        W68703  20.125  17.281  13.603
97175W        W68704  14.663  11.848  12.605
97176W        W68705  41.479  35.016   1.537
97177W        W68706  30.679   2.404   3.793
97178W        W68707   3.287  39.600  14.456
97179W        W68708   6.282  39.582  13.037
97180W        W68709  16.108  13.774  12.333
97181W        W68710  12.420  15.613  13.910
97182W        W68711  31.572  20.584   4.765
97183W        W68712  19.519   6.523  14.743
97184W        W68713  32.402   1.056  14.045
97185W        W68714  18.245  22.078   4.603
97186W        W68715  13.714  42.394  14.435
97187W        W68716  42.167  43.369  14.314
97188W        W68717  14.359  11.825   4.697
97189W        W68718  23.969   0.948  11.546
97190W        W68719  15.560  32.795  11.151
97191W        W68720  25.813   8.201   1.482
97192W        W68721   8.332  44.388  13.453
97193W        W68722  32.082  34.034  14.613
97194W        W68723  19.075  32.715  13.974
97195W        W68724  34.886  12.544  13.984
97196W        W68725  17.040  13.229  10.456
97197W        W68726  30.038   9.847   0.810
97198W        W68727  38.806  20.644  13.086
97199W        W68728  35.443   1.457  13.784
97200W        W68729  31.312  40.966   2.812
97201W        W68730  24.078  39.776   2.150
97202W        W68731  24.189  16.543   1.900
97203W        W68732  44.659   6.341   1.282
97204W        W68733  15.293   7.117  14.780
97205W        W68734  23.685   2.039   0.457
97206W        W68735  10.960  19.738  12.915
97207W        W68736  37.034  36.647   1.194
97208W        W68737  13.502  25.044  14.552
97209W        W68738  33.970  11.573  13.965
97210W        W68739  13.461  38.735   1.859
97211W        W68740  33.074  20.617   1.172
97212W        W68741  20.535  23.678  13.555
97213W        W68742  39.745  41.240  14.430
97214W        W68743   5.312   6.197   0.449
97215W        W68744   5.939  18.325   3.333
97216W        W68745  28.917   2.901   2.155
97217W        W68746  20.701  34.968  13.376
97218W        W68747   1.034  10.424  12.597
97219W        W68748  19.575  34.695  12.292
97220W        W68749  42.896   1.738  11.198
97221W        W68750  22.516  23.642  14.836
97222W        W68751   4.663  38.471   4.623
97223W        W68752  37.832  36.318   2.302
97224W        W68753   9.316   4.076  12.733
97225W        W68754  31.458  26.591  13.538
97226W        W68755   6.879  36.824  14.983
97227W        W68756  12.670  21.943  11.494
97228W        W68757  37.625  37.085  11.301
97229W        W68758  27.906  44.665   2.718
97230W        W68759   7.698  23.638   2.400
97231W        W68760  16.473  17.332  12.336
97232W        W68761  27.902  18.710  11.141
97233W        W68762   2.742  13.100   2.188
97234W        W68763  24.353  30.944  12.661
97235W        W68764  44.724  18.537   1.060
97236W        W68765  10.395  36.322   2.537
97237W        W68766  16.811  27.582  10.702
97238W        W68767  14.779   2.293   1.340
97239W        W68768  29.911  27.141   1.272
97240W        W68769  31.056   7.018  12.646
97241W        W68770  24.501   5.644   4.191
97242W        W68771   5.955   5.693  12.884
97243W        W68772  18.326  39.464  14.307
97244W        W68773  14.648  29.548   1.195
97245W        W68774   2.328  35.251  12.956
97246W        W68775  44.964  17.900  11.102
97247W        W68776  31.616   5.770   3.206
97248W        W68777  20.886  26.232   4.612
97249W        W68778  17.085  13.707  12.045
97250W        W68779  17.087  25.616   1.220
97251W        W68780  23.680   0.933   1.928
97252W        W68781  27.477   6.399  10.870
97253W        W68782  44.972  10.728  13.356
97254W        W68783  14.633  20.204  12.042
97255W        W68784   0.339   6.848  14.740
97256W        W68785  43.892   4.320  12.673
97257W        W68786  43.784  20.740   0.840
97258W        W68787  17.613  40.906   1.350
97259W        W68788  17.527  17.014   3.836
97260W        W68789  36.338  22.364   1.491
97261W        W68790  38.430  23.489  13.081
97262W        W68791  17.510  28.033   2.400
97263W        W68792  42.045   1.831   0.446
97264W        W68793  15.066  27.143   1.304
97265W        W68794  19.663  31.129   0.711
97266W        W68795  40.134  25.004  10.769
97267W        W68796  20.692  35.972   2.827
97268W        W68797  31.502  40.996  14.279
97269W        W68798  23.780   9.517  12.509
97270W        W68799   8.199   4.733   1.824
97271W        W68800  10.764  39.922  14.994
97272W        W68801  16.619  26.138   3.109
97273W        W68802   6.917  31.664   3.697
97274W        W68803  42.453  24.825  11.165
97275W        W68804  10.698  28.874  12.590
97276W        W68805  38.012  33.154   3.309
97277W        W68806  25.780  43.858   4.558
97278W        W68807  13.738  36.988   1.469
97279W        W68808   2.068  43.574   1.313
97280W        W68809  37.475  34.120  12.467
97281W        W68810  17.911  36.595   2.192
97282W        W68811  44.362   0.492   1.258
97283W        W68812   9.682  30.411  13.877
97284W        W68813   1.458  32.675   5.217
97285W        W68814  24.810  42.879  12.328
97286W        W68815  22.151  40.274   2.362
97287W        W68816  36.355  36.437  13.916
97288W        W68817   6.977  13.193   0.814
97289W        W68818   4.234  34.979   3.669
97290W        W68819   1.268  29.642  12.421
97291W        W68820  13.514  14.288  11.135
97292W        W68821  27.104  13.800  14.247
97293W        W68822  44.392  43.051   2.659
97294W        W68823  29.692  29.984  12.544
97295W        W68824  31.315  35.554  12.127
97296W        W68825  20.739  27.738  13.881
97297W        W68826  31.103  16.815   3.359
97298W        W68827  18.092  13.405   0.237
97299W        W68828  12.612  37.190   2.396
97300W        W68829  28.436  36.485  11.676
97301W        W68830  12.241  35.481  12.357
97302W        W68831  18.827  20.083   4.150
97303W        W68832  17.134  35.055   5.037
97304W        W68833   8.761   4.976   2.415
97305W        W68834  34.491  35.007   4.370
97306W        W68835  10.105  21.967  12.108
97307W        W68836  39.942  16.162  14.486
97308W        W68837  11.771  15.777   0.988
97309W        W68838  11.347  42.665   3.951
97310W        W68839  43.399  32.940   2.996
97311W        W68840  37.951   7.044  13.516
97312W        W68841  25.247  10.304  14.011
97313W        W68842   4.791   7.385  10.747
97314W        W68843  36.958  42.330   4.304
97315W        W68844  13.792  39.392   1.149
97316W        W68845  30.881  13.233  12.918
97317W        W68846  40.361  21.010  13.828
97318W        W68847  21.154   9.164  11.531
97319W        W68848  37.693  42.541   3.082
97320W        W68849  36.365  36.052   4.835
97321W        W68850  43.934  26.485   3.111
97322W        W68851  30.918   4.425  11.811
97323W        W68852  38.305  12.778  12.429
97324W        W68853  22.605  21.551   2.778
97325W        W68854   6.610  27.747   0.627
97326W        W68855  19.308  11.015   2.422
97327W        W68856  12.288  38.901   2.406
97328W        W68857  14.683  34.465  13.770
97329W        W68858   8.392  34.565   2.884
97330W        W68859  30.883  24.986  11.177
97331W        W68860  37.471  28.095   3.880
97332W        W68861   7.393   8.894   3.650
97333W        W68862  13.384  15.755  10.317
97334W        W68863  11.267  40.961   1.400
97335W        W68864  17.189  31.155  12.618
97336W        W68865  26.678  29.927  14.302
97337W        W68866  36.553  21.552  14.959
97338W        W68867  20.803  20.989  11.048
97339W        W68868  31.058   9.213  11.617
97340W        W68869  40.825  25.907  12.158
97341W        W68870  17.155   6.167   4.943
97342W        W68871   2.843  16.351   0.671
97343W        W68872  20.548  41.273   2.685
97344W        W68873   7.227  18.423   0.326
97345W        W68874  41.563  32.506   1.238
97346W        W68875  41.518  37.777  10.710
97347W        W68876   2.359   6.269   3.695
97348W        W68877  19.574  22.767  12.131
97349W        W68878  23.089  29.667   1.296
97350W        W68879   1.560   3.366  11.048
97351W        W68880  31.011  39.050  11.959
97352W        W68881  39.963  37.423  10.854
97353W        W68882   9.116   1.661  14.992
97354W        W68883  11.060  20.904  10.807
97355W        W68884  37.565  16.753  10.445
97356W        W68885   2.239  29.873   2.272
97357W        W68886   8.270  12.870  11.927
97358W        W68887  44.853   3.098   4.906
97359W        W68888  41.933  26.211   4.143
97360W        W68889   7.891  41.106  11.062
97361W        W68890  18.835  25.992  14.616
97362W        W68891  44.403  27.952   2.417
97363W        W68892  37.038  39.350  12.151
97364W        W68893   9.668  37.963  10.741
97365W        W68894   9.911  24.744   1.671
97366W        W68895  35.302  36.293  12.593
97367W        W68896  31.883  17.166  13.426
97368W        W68897  13.746   4.200  14.412
97369W        W68898  37.814  30.921   3.651
97370W        W68899  43.598   7.458  14.556
97371W        W68900  28.612  40.270  11.997
97372W        W68901  32.262  12.767  14.443
97373W        W68902   6.435  19.064  13.606
97374W        W68903  16.457  27.039  11.907
97375W        W68904  44.820   1.744   0.746
97376W        W68905  19.293  30.318  11.644
97377W        W68906  24.666   8.708  11.869
97378W        W68907  35.942  38.983   0.940
97379W        W68908   6.875  25.696  12.310
97380W        W68909   1.020  12.284   0.063
97381W        W68910  10.255  23.420   1.520
97382W        W68911  28.870  15.305   2.740
97383W        W68912  27.922  30.275   3.991
97384W        W68913  37.707  19.036  11.396
97385W        W68914  31.016   6.227  12.980
97386W        W68915  30.997  21.756   4.154
97387W        W68916  11.861  19.555   2.664
97388W        W68917  32.540  28.921   2.680
97389W        W68918   1.363  25.188  12.347
97390W        W68919  13.474  35.995  14.829
97391W        W68920  33.356  31.420  13.755
97392W        W68921   5.001   3.868  11.678
97393W        W68922  35.432  31.897   1.437
97394W        W68923   3.935   3.431  14.359
97395W        W68924  39.941  38.528   1.916
97396W        W68925  30.799  16.800   3.755
97397W        W68926  15.712   3.193  12.074
97398W        W68927  16.215  19.645  13.368
97399W        W68928  20.024   1.891   4.118
97400W        W68929  23.139  34.897  13.296
97401W        W68930  15.220  26.358  14.306
97402W        W68931  23.515  39.765   4.122
97403W        W68932  42.869  35.615   2.182
97404W        W68933   8.002  22.787  11.138
97405W        W68934  42.411   7.687  14.841
97406W        W68935  25.672  18.153  13.442
97407W        W68936  15.669  34.611  10.589
97408W        W68937   8.136  26.202   0.465
97409W        W68938  43.294  28.668   2.460
97410W        W68939  22.437  10.347   2.303
97411W        W68940  37.579  29.874   3.786
97412W        W68941  31.861  12.003  14.885
97413W        W68942  12.601  31.403   3.533
97414W        W68943  35.129  38.396  12.747
97415W        W68944  22.461  21.593   4.648
97416W        W68945  32.034   5.395   2.155
97417W        W68946  10.728   5.620   4.806
97418W        W68947   6.829  18.378  14.066
97419W        W68948   9.427  35.495  12.596
97420W        W68949   8.860  13.569  12.318
97421W        W68950  42.350  20.047   0.761
97422W        W68951   9.433  28.132   3.326
97423W        W68952  41.326  16.800  12.103
97424W        W68953  30.524  26.989   1.955
97425W        W68954  44.455  13.813  12.180
97426W        W68955   7.837  36.336   0.802
97427W        W68956  17.783  41.953   4.599
97428W        W68957   4.220  26.803  11.168
97429W        W68958  24.048  25.002   3.070
97430W        W68959   4.780  25.838  12.106
97431W        W68960  16.195  32.174   1.730
97432W        W68961  33.988   3.138   4.079
97433W        W68962   7.040   3.343   1.485
97434W        W68963  26.521  41.884   1.328
97435W        W68964   7.478   2.803  12.857
97436W        W68965  31.039  30.151   0.706
97437W        W68966  43.659  33.121   1.903
97438W        W68967  21.548  27.508   1.821
97439W        W68968  32.712  27.973   4.011
97440W        W68969   8.827  37.337  14.387
97441W        W68970   6.722  20.795  14.762
97442W        W68971  24.621  37.951  12.963
97443W        W68972  16.519   8.698  12.806
97444W        W68973  32.040  22.064   3.384
97445W        W68974  17.553   2.839  13.976
97446W        W68975   2.036  33.059   0.859
97447W        W68976  12.739  13.309   0.942
97448W        W68977  12.807  13.439   2.638
97449W        W68978  22.123  44.641   3.042
97450W        W68979  27.084  23.176   4.676
97451W        W68980  10.235  38.441  14.483
97452W        W68981   4.166  18.580  12.988
97453W        W68982  27.021  23.769  13.375
97454W        W68983  35.014  30.013   4.715
97455W        W68984  43.204  27.582   0.981
97456W        W68985   2.661  17.163   0.334
97457W        W68986  26.163  28.438  14.815
97458W        W68987  40.308   9.323   3.126
97459W        W68988  18.549  43.000  14.014
97460W        W68989  36.771  23.334  14.903
97461W        W68990  32.727  32.967   0.864
97462W        W68991  24.295  28.182  14.931
97463W        W68992   4.729   1.850  12.929
97464W        W68993   2.368   8.093  14.557
97465W        W68994  12.762  30.101  10.691
97466W        W68995   1.320  13.871   2.696
97467W        W68996  31.591  11.735  13.787
97468W        W68997  30.487  35.645   0.714
97469W        W68998  40.048  20.683  13.516
97470W        W68999   9.238  33.538  13.995
97471W        W69000  12.571   5.355   1.784
97472W        W69001  43.558   3.593  11.107
97473W        W69002  33.514  23.461  11.728
97474W        W69003  16.543   0.002  14.003
97475W        W69004   9.234   3.163   5.091
97476W        W69005  11.690  44.366  13.647
97477W        W69006  35.898  30.323  12.399
97478W        W69007  33.216  13.314  10.818
97479W        W69008  32.670  26.612  11.129
97480W        W69009  22.959   3.736   4.640
97481W        W69010  32.924  44.792   1.611
97482W        W69011  43.439  42.070  12.886
97483W        W69012   8.186  11.238  11.391
97484W        W69013  21.312  43.128   3.691
97485W        W69014  32.123   3.438   2.329
97486W        W69015  42.510  11.698  10.707
97487W        W69016  21.711   8.805  13.792
97488W        W69017   1.251  17.180  10.791
97489W        W69018  23.969  16.194  13.324
97490W        W69019   9.609   5.870  10.780
97491W        W69020  14.137  42.401   3.847
97492W        W69021   4.255  31.306   0.386
97493W        W69022  33.994   2.405  13.020
97494W        W69023   7.598  36.028  11.601
97495W        W69024   9.383  33.967  12.974
97496W        W69025  13.238  12.204  14.323
97497W        W69026  40.815   4.984   1.831
97498W        W69027  18.270   9.623   4.071
97499W        W69028  14.607   8.930   4.042
97500W        W69029  27.202  12.705  11.438
97501W        W69030   8.781   2.715  12.050
97502W        W69031  10.380  26.870  12.034
97503W        W69032  30.417  30.599  12.316
97504W        W69033   2.605  29.366  12.357
97505W        W69034  23.567  35.117   2.115
97506W        W69035  36.766  28.177  14.675
97507W        W69036  22.267  41.917   0.218
97508W        W69037  18.036  40.246   0.873
97509W        W69038  41.776  23.237   0.409
97510W        W69039  35.829  43.914   1.140
97511W        W69040   4.465  16.694  11.989
97512W        W69041  31.811  13.656  13.565
97513W        W69042  16.633  10.162  12.159
97514W        W69043  31.989   9.648   2.292
97515W        W69044   5.181  27.160  11.419
97516W        W69045   4.467  24.574   4.794
97517W        W69046  28.440  20.506   4.331
97518W        W69047  44.312  17.295  12.605
97519W        W69048  16.279  23.526   0.719
97520W        W69049   0.789  27.394  14.940
97521W        W69050  38.448   3.228  13.435
97522W        W69051  15.593  25.467  12.875
97523W        W69052   8.639  25.157  12.871
97524W        W69053  32.118  31.397  11.281
97525W        W69054  36.443   7.329   3.081
97526W        W69055  39.460  17.340  14.967
97527W        W69056  19.553   9.244  14.510
97528W        W69057  16.175  10.016  11.443
97529W        W69058  26.905   5.071   3.571
97530W        W69059   2.056  21.561  11.542
97531W        W69060   4.579  28.007  11.631
97532W        W69061   8.173   8.743  13.040
97533W        W69062   0.216  26.671   1.019
97534W        W69063   6.896  25.553  14.243
97535W        W69064  34.612  26.094   3.402
97536W        W69065   5.266   9.475  14.842
97537W        W69066   2.835  15.653   4.500
97538W        W69067   4.256  44.111  14.868
97539W        W69068   8.022  39.055  10.125
97540W        W69069  11.425  17.785   1.225
97541W        W69070  19.581   9.673   0.271
97542W        W69071  22.260  27.597  11.029
97543W        W69072   8.948  42.738   1.819
97544W        W69073  27.610  26.116   1.407
97545W        W69074  13.092   8.794  10.339
97546W        W69075   9.165  16.805   4.340
97547W        W69076  36.680  40.638   2.456
97548W        W69077  20.572  29.520  10.645
97549W        W69078  20.155  15.166   1.931
97550W        W69079  19.030  21.479   2.868
97551W        W69080  24.651  12.659  10.637
97552W        W69081   7.832  13.734   1.749
97553W        W69082  24.062  42.167   4.632
97554W        W69083   6.229   4.630   1.572
97555W        W69084  32.153  44.001  14.403
97556W        W69085  35.538  18.301   0.484
97557W        W69086   1.767  16.617   1.412
97558W        W69087  42.575  42.375  12.544
97559W        W69088   0.784  13.213   3.619
97560W        W69089  16.339  16.193   1.470
97561W        W69090  11.251  15.182   4.190
97562W        W69091  44.887   3.755   2.140
97563W        W69092   4.866  20.689  11.837
97564W        W69093  17.593  41.478   0.292
97565W        W69094  37.045   7.441   1.899
97566W        W69095   5.428  17.483   3.680
97567W        W69096  38.925   9.321   1.970
97568W        W69097  14.129  39.151  13.845
97569W        W69098   4.917  35.991  13.508
97570W        W69099   6.905   6.898   2.254
97571W        W69100   6.268  19.189  12.690
97572W        W69101   0.120   8.008   2.631
97573W        W69102  18.075  17.316  14.699
97574W        W69103  20.522  24.912   2.718
97575W        W69104  14.496   3.032   4.160
97576W        W69105  21.027  25.826  12.628
97577W        W69106  25.568  36.122  13.316
97578W        W69107   3.280   3.598  12.100
97579W        W69108  34.941  13.395   0.882
97580W        W69109  38.825   1.748  14.854
97581W        W69110   6.417  21.104  11.393
97582W        W69111  13.863  33.994   1.857
97583W        W69112  27.500  16.033   3.600
97584W        W69113  31.583   0.990   3.164
97585W        W69114  13.720   1.503  13.961
97586W        W69115  24.504  27.219  13.023
97587W        W69116  20.620   3.596   2.177
97588W        W69117  35.539  40.229   4.539
97589W        W69118  29.572   0.791   4.152
97590W        W69119  21.573  44.807   3.256
97591W        W69120  37.468   7.159  13.367
97592W        W69121  21.988  12.115   3.572
97593W        W69122  24.187  24.700   1.691
97594W        W69123  20.582  20.988  11.549
97595W        W69124  36.838   8.431  11.268
97596W        W69125  12.789  37.527   3.659
97597W        W69126  22.100   1.292   4.673
97598W        W69127  40.817  12.382  14.651
97599W        W69128   2.386  36.650   3.695
97600W        W69129   8.159  14.274   1.289
97601W        W69130  33.790  42.579  13.807
97602W        W69131  14.891  25.088   2.730
97603W        W69132  35.083  22.504   3.122
97604W        W69133   5.122  12.789  11.528
97605W        W69134   8.387  44.260   1.247
97606W        W69135   7.285  13.850  14.840
97607W        W69136  13.567  28.955  14.725
97608W        W69137  28.225  17.738   1.861
97609W        W69138   0.335  33.583   3.518
97610W        W69139  18.149   6.953  11.455
97611W        W69140  12.632   0.610   0.291
97612W        W69141  39.557   4.777   4.049
97613W        W69142  41.627  24.252  10.780
97614W        W69143   3.879  36.111   0.192
97615W        W69144  25.392  10.820  10.872
97616W        W69145  12.612  36.929  13.436
97617W        W69146  26.432  28.375   3.570
97618W        W69147  15.451   8.283   0.953
97619W        W69148   5.310  13.685  13.962
97620W        W69149  12.124  23.986  10.741
97621W        W69150   1.456  25.985  11.910
97622W        W69151   2.211  32.967  14.348
97623W        W69152  14.154  40.207  12.619
97624W        W69153  22.444   0.464  14.318
97625W        W69154   0.598   7.959  13.902
97626W        W69155  13.769  13.631  14.416
97627W        W69156   1.061   3.417   9.757
97628W        W69157  35.425  44.225   3.748
97629W        W69158   4.378  34.139   2.546
97630W        W69159  34.850  24.189  11.220
97631W        W69160  12.864  29.937  14.984
97632W        W69161  37.747  11.211   1.891
97633W        W69162  16.485  32.873  14.937
97634W        W69163  16.813  40.109  11.645
97635W        W69164  16.251  21.861   0.903
97636W        W69165  25.508  40.796   2.800
97637W        W69166  42.099  37.954  14.337
97638W        W69167  23.223   9.995  11.147
97639W        W69168  25.911  13.365   4.970
97640W        W69169   7.709  39.685   3.807
97641W        W69170  22.015  44.284   2.667
97642W        W69171  39.444  38.484  11.851
97643W        W69172  34.220  24.565   4.201
97644W        W69173  12.915  15.707  10.946
97645W        W69174  14.823  41.220  12.992
97646W        W69175  21.946  34.362  14.152
97647W        W69176  35.205  32.339   4.147
97648W        W69177   3.739   9.642  14.994
97649W        W69178  42.353  42.913  10.908
97650W        W69179  32.407   4.567  11.149
97651W        W69180  31.616  19.560  12.594
97652W        W69181  38.475   9.823  13.580
97653W        W69182  17.872  25.149   0.303
97654W        W69183  21.775  39.371  12.398
97655W        W69184  42.789  18.723  13.480
97656W        W69185  44.885  20.506   3.271
97657W        W69186  36.983   1.422  14.954
97658W        W69187  24.836  20.176  11.378
97659W        W69188  38.449  24.135   3.802
97660W        W69189  42.693  31.760   0.596
97661W        W69190   6.726  39.324   3.332
97662W        W69191  35.277  18.696  14.387
97663W        W69192  31.173  19.080   4.422
97664W        W69193  42.228   5.912  12.929
97665W        W69194  21.673  32.647  14.506
97666W        W69195   3.908  36.099   1.292
97667W        W69196  23.896  23.619  13.655
97668W        W69197  11.431  14.826   1.269
97669W        W69198  18.780  25.065   4.130
97670W        W69199  25.963   7.831  11.163
97671W        W69200  10.851  37.322  12.376
97672W        W69201  10.942  20.509  13.281
97673W        W69202  18.739  39.526   3.183
97674W        W69203  22.939  22.148  14.105
97675W        W69204  26.416  28.381  11.125
97676W        W69205  12.757  25.674  10.657
97677W        W69206  21.601  38.071   5.377
97678W        W69207  34.044   9.570  10.656
97679W        W69208  13.847  40.469  12.097
97680W        W69209  40.103  11.262   0.963
97681W        W69210  21.802  40.854   3.207
97682W        W69211  12.891  14.167   2.232
97683W        W69212  28.469  26.521  12.626
97684W        W69213  32.100   3.161  10.938
97685W        W69214  18.268   8.303  11.168
97686W        W69215  38.650  32.149  14.956
97687W        W69216  30.059  29.502   4.555
97688W        W69217   3.540  14.305  12.953
97689W        W69218  35.660  21.735   4.871
97690W        W69219  23.109   8.427  14.090
97691W        W69220  44.103  23.031  14.987
97692W        W69221  35.351  11.013   1.616
97693W        W69222  15.121  34.142   1.311
97694W        W69223   7.524  22.021  11.219
97695W        W69224  24.463  14.282  11.360
97696W        W69225   7.462  19.123  13.720
97697W        W69226  10.284  24.469  11.498
97698W        W69227  43.291  38.511  13.375
97699W        W69228  14.827   1.475   3.276
97700W        W69229  19.957  15.737   3.240
97701W        W69230  33.102   7.940   0.905
97702W        W69231   5.285  19.226  14.252
97703W        W69232  32.753  25.034   2.992
97704W        W69233  24.725  43.041   1.452
97705W        W69234  28.946   3.398  11.190
97706W        W69235  19.777  27.979   4.539
97707W        W69236  28.941  23.402   1.815
97708W        W69237  17.039   2.705  12.867
97709W        W69238  43.911  21.672   0.755
97710W        W69239  21.690  33.950  11.993
97711W        W69240  41.970  30.048  14.096
97712W        W69241  16.332  14.063  11.042
97713W        W69242   7.203  33.943  14.346
97714W        W69243  33.653  18.025   4.134
97715W        W69244  31.348  35.486  14.846
97716W        W69245  42.437   8.824  11.675
97717W        W69246  14.787  42.743   4.930
97718W        W69247  18.742  44.816   2.366
97719W        W69248  27.194  37.539   9.932
97720W        W69249  22.773  15.009  14.363
97721W        W69250   1.339  23.718  11.159
97722W        W69251  12.215  10.333  14.164
97723W        W69252  39.571  17.835  13.095
97724W        W69253   3.724   4.030   0.857
97725W        W69254   1.849  28.557  11.460
97726W        W69255  40.983   9.357   3.632
97727W        W69256  28.803  23.106   4.103
97728W        W69257   1.317  31.385  10.206
97729W        W69258   4.941   3.969   4.289
97730W        W69259  29.863  14.036   1.195
97731W        W69260   0.705  22.131  11.992
97732W        W69261   4.270  41.767   0.289
97733W        W69262  23.582  19.738   1.160
97734W        W69263  20.021   0.805   1.666
97735W        W69264  17.040  13.108   4.320
97736W        W69265  42.841  14.668  12.748
97737W        W69266  28.031  38.403   3.150
97738W        W69267  21.050  42.698   2.814
97739W        W69268  12.903  42.994   1.243
97740W        W69269  16.113  17.269  14.848
97741W        W69270   6.364  21.698   3.821
97742W        W69271  31.172  11.412  14.760
97743W        W69272  38.011  31.327  12.855
97744W        W69273   8.783  16.090   1.751
97745W        W69274  41.502  38.314   2.799
97746W        W69275  28.719  36.893  11.534
97747W        W69276   6.891   5.777  10.452
97748W        W69277  17.110  40.921   2.822
97749W        W69278   0.974  37.908  11.537
97750W        W69279  34.664  18.167  11.948
97751W        W69280  32.925   2.820   2.256
97752W        W69281   2.115  19.249   3.252
97753W        W69282  42.890  21.715   4.701
97754W        W69283  33.866   5.891  12.709
97755W        W69284  11.721  10.826   0.755
97756W        W69285  27.942  12.224   2.166
97757W        W69286  38.601   6.800   2.769
97758W        W69287   9.861   9.542   2.721
97759W        W69288  21.182  27.929   3.428
97760W        W69289  34.019  36.820  12.383
97761W        W69290  33.699  14.870   1.458
97762W        W69291   2.918  21.109  14.913
97763W        W69292  15.624   8.718   0.022
97764W        W69293  17.166  11.803  13.997
97765W        W69294   1.332  37.184   2.668
97766W        W69295   1.721  32.530   0.021
97767W        W69296  29.278  31.498   4.618
97768W        W69297  23.471  12.289   2.371
97769W        W69298  37.540  33.815  11.097
97770W        W69299  44.690  19.037  12.023
97771W        W69300  28.091  40.262   4.403
97772W        W69301  26.430   7.295   2.778
97773W        W69302  43.764  42.053  14.870
97774W        W69303  42.017  31.534  12.732
97775W        W69304  13.470  25.104   3.195
97776W        W69305   9.604   1.462   4.127
97777W        W69306  37.453  42.233   2.747
97778W        W69307  31.655  24.738  11.532
97779W        W69308   2.382  31.369  14.888
97780W        W69309  20.047  22.906   0.330
97781W        W69310  15.390  28.491  12.842
97782W        W69311  30.438   9.649  12.167
97783W        W69312  23.897  16.304   4.363
97784W        W69313  31.527   4.692  13.490
97785W        W69314  13.173  30.160   4.721
97786W        W69315  14.183  35.082   2.813
97787W        W69316  14.327  43.787  14.267
97788W        W69317  17.556  21.499  11.506
97789W        W69318  15.140  37.475  13.360
97790W        W69319  40.742  17.177  13.743
97791W        W69320  26.091   3.384   2.602
97792W        W69321  38.018  43.345   1.770
97793W        W69322   2.382   5.667   0.014
97794W        W69323  17.130  43.429   0.824
97795W        W69324  43.612  27.865  11.166
97796W        W69325  34.218  44.066   2.856
97797W        W69326   8.178   6.928  12.406
97798W        W69327  24.985  26.112  12.056
97799W        W69328  16.267  17.781  14.888
97800W        W69329  15.056  19.636   1.821
97801W        W69330  34.133  31.388  13.402
97802W        W69331  44.619  16.690   2.484
97803W        W69332  29.338  20.403   3.325
97804W        W69333  17.324  31.700  14.366
97805W        W69334  26.017  28.230   4.297
97806W        W69335   2.874  21.200  12.411
97807W        W69336  12.714  44.570   3.466
97808W        W69337  30.178  43.872  12.477
97809W        W69338   5.610  25.048   2.221
97810W        W69339  33.645  10.591   1.252
97811W        W69340   3.444  18.453   2.396
97812W        W69341  26.473  32.129   3.569
97813W        W69342   9.642  14.746  12.505
97814W        W69343  16.743  10.166   3.865
97815W        W69344  11.625  29.702   0.198
97816W        W69345  37.036   9.140   4.573
97817W        W69346  24.230  16.603  12.553
97818W        W69347  32.966  34.406   1.072
97819W        W69348  32.546  21.561   1.925
97820W        W69349  26.055  27.482   4.442
97821W        W69350  11.646  26.220   0.286
97822W        W69351   3.770   9.467  11.120
97823W        W69352  23.233   5.325   2.641
97824W        W69353   2.639   5.792   0.451
97825W        W69354  29.923  14.138   4.490
97826W        W69355   5.969  22.971   2.118
97827W        W69356   6.427   6.407  14.304
97828W        W69357  37.125  19.079   1.176
97829W        W69358  29.545  25.990   2.182
97830W        W69359  22.438  30.905   2.803
97831W        W69360  44.337  40.821   4.673
97832W        W69361  42.582  32.665  14.459
97833W        W69362   4.107  37.892   1.698
97834W        W69363  17.971  13.637  14.773
97835W        W69364  32.576  10.457   1.837
97836W        W69365  43.051  32.495   3.740
97837W        W69366  28.766  13.390  13.835
97838W        W69367  38.514  15.672  14.726
97839W        W69368  37.955   2.787  12.794
97840W        W69369  22.166  26.891   0.319
97841W        W69370   2.236  43.500  11.578
97842W        W69371  32.032  42.015  11.489
97843W        W69372  37.584  12.309   0.772
97844W        W69373  29.755  12.376   4.540
97845W        W69374  44.403   4.026   1.262
97846W        W69375  16.131   5.978   2.647
97847W        W69376  40.025  41.634  10.571
97848W        W69377  12.545  25.354  11.901
97849W        W69378  34.001  11.867   1.930
97850W        W69379  39.302  42.930   4.749
97851W        W69380  21.596  37.307   1.744
97852W        W69381  28.711  30.787   1.432
97853W        W69382  31.989   1.700   3.680
97854W        W69383  30.546  25.339  12.405
97855W        W69384  30.080  11.822  10.283
97856W        W69385  25.985   2.908   0.792
97857W        W69386   0.807   2.174  13.903
97858W        W69387   6.746  36.126  14.032
97859W        W69388  37.854  44.445   4.671
97860W        W69389  20.983  19.224  11.255
97861W        W69390  27.621  14.774   1.361
97862W        W69391  37.989  22.114   0.717
97863W        W69392   9.861  22.677   3.733
97864W        W69393  11.876  21.298  12.048
97865W        W69394  23.598   1.793  14.991
97866W        W69395  27.956  14.149   4.585
97867W        W69396  15.161  23.269   0.302
97868W        W69397  18.527   2.902   1.965
97869W        W69398   1.979  12.875   3.313
97870W        W69399   3.049  43.363   1.353
97871W        W69400  19.087  27.654   5.051
97872W        W69401  41.775  20.265  14.384
97873W        W69402   1.892  24.479   0.923
97874W        W69403  33.093  44.870  13.779
97875W        W69404  30.550  11.280  11.334
97876W        W69405  30.382  27.534  10.867
97877W        W69406   8.470  41.368   1.376
97878W        W69407  42.864  40.868  10.621
97879W        W69408   9.643   8.055   2.877
97880W        W69409  29.115   9.396   1.339
97881W        W69410  41.317  23.064  13.256
97882W        W69411  18.531   2.947  14.946
97883W        W69412  30.969  36.385   2.502
97884W        W69413  31.329  34.542  10.868
97885W        W69414  15.324  20.454   2.215
97886W        W69415   7.473  41.781  11.427
97887W        W69416  26.643  20.716  12.674
97888W        W69417  36.428  43.447   4.073
97889W        W69418  15.087  29.701   2.137
97890W        W69419  25.674  16.606   3.304
97891W        W69420  12.129  20.381   1.207
97892W        W69421  23.573   0.207   3.422
97893W        W69422  16.643  24.272   1.949
97894W        W69423  16.809  16.204  12.506
97895W        W69424  22.270  14.128   3.670
97896W        W69425  30.479  11.858  13.073
97897W        W69426  32.950  17.650  11.645
97898W        W69427  35.949  17.027  13.851
97899W        W69428  35.689  16.758   2.190
97900W        W69429  11.730  18.660   1.266
97901W        W69430   6.646  26.107   2.277
97902W        W69431   2.009  27.498  14.033
97903W        W69432  37.010  15.158  13.983
97904W        W69433  27.129   5.440   2.143
97905W        W69434   0.401  20.037  10.667
97906W        W69435  36.612  44.102  13.821
97907W        W69436  12.967  22.752   1.230
97908W        W69437  26.186  25.235   0.510
97909W        W69438  29.254  25.189  10.267
97910W        W69439   7.940  16.680   4.602
97911W        W69440  32.994  33.114  11.938
97912W        W69441  16.740  44.800  14.442
97913W        W69442  12.955   4.871   0.052
97914W        W69443  27.682  30.255   0.260
97915W        W69444  44.192  16.819  13.249
97916W        W69445  15.764  28.913   0.523
97917W        W69446  33.381   3.325  14.649
97918W        W69447  24.768  11.175  13.364
97919W        W69448   5.666  36.532   4.088
97920W        W69449   7.456  17.790   1.243
97921W        W69450  37.696  27.628  13.095
97922W        W69451  16.112  37.268   1.700
97923W        W69452  24.492  42.515  14.946
97924W        W69453   5.051   7.155  12.624
97925W        W69454   1.454  29.239  11.610
97926W        W69455  17.265  10.328  10.350
97927W        W69456   8.266  24.640  11.439
97928W        W69457  29.271  35.692   2.278
97929W        W69458  12.613  18.543  11.942
97930W        W69459  13.376  11.410  14.012
97931W        W69460  44.587  22.169   2.854
97932W        W69461  43.885  35.779  14.516
97933W        W69462  39.745  33.135  10.981
97934W        W69463   2.247  10.199   3.415
97935W        W69464  32.649  40.854   1.168
97936W        W69465  25.521  37.496  11.168
97937W        W69466   4.828  33.829  12.789
97938W        W69467  20.542   2.669   4.500
97939W        W69468   6.756  19.145  12.515
97940W        W69469   1.962  34.079   2.282
97941W        W69470   4.319  39.180   4.893
97942W        W69471  41.359  42.422  12.486
97943W        W69472  10.409   1.069   3.769
97944W        W69473  27.046  28.918   0.326
97945W        W69474  13.803   1.328  13.457
97946W        W69475  30.147  19.511   1.350
97947W        W69476   6.670   4.946   4.093
97948W        W69477  21.301  39.722  10.655
97949W        W69478  22.597  18.860  14.423
97950W        W69479  29.623  10.308  12.497
97951W        W69480  17.668   4.996   0.354
97952W        W69481  22.604  33.693   1.923
97953W        W69482  32.733  32.298  14.904
97954W        W69483   6.890   2.937   1.205
97955W        W69484  35.894   1.074  11.999
97956W        W69485  13.166  16.786   4.011
97957W        W69486  11.727  22.458  12.824
97958W        W69487  39.550  36.401   3.298
97959W        W69488  40.340  21.772   0.293
97960W        W69489  29.345  39.695   3.786
97961W        W69490  25.793  10.333  12.488
97962W        W69491  29.710  32.956   2.702
97963W        W69492  12.055  31.481  11.938
97964W        W69493  16.928   6.559   1.423
97965W        W69494  32.481   0.066   3.755
97966W        W69495  26.097  20.728  10.375
97967W        W69496  27.402  36.046  12.366
97968W        W69497  29.783  40.320   3.700
97969W        W69498  15.714  24.752   3.818
97970W        W69499  16.163   2.665   3.239
97971W        W69500  13.764   0.041   9.887
97972W        W69501  33.298  28.965   3.367
97973W        W69502  32.090  13.589   2.211
97974W        W69503  25.708  26.483  10.867
97975W        W69504  22.302  40.062   1.019
97976W        W69505  32.449   8.356  13.542
97977W        W69506  40.971   1.044  14.362
97978W        W69507  29.818  41.216   4.242
97979W        W69508  20.188  22.329  13.852
97980W        W69509  16.077  37.205  10.343
97981W        W69510   7.425  34.889   4.828
97982W        W69511  24.734  12.744  14.431
97983W        W69512  32.980  25.704  11.187
97984W        W69513  30.868  17.764   1.173
97985W        W69514   1.494  15.206  13.195
97986W        W69515  34.877  27.918   4.515
97987W        W69516   2.136  24.358  10.447
97988W        W69517  10.733  22.146  12.963
97989W        W69518  37.947   6.343  14.867
97990W        W69519  13.651   8.212   0.356
97991W        W69520  31.875  43.429   4.571
97992W        W69521  16.552   6.888  14.479
97993W        W69522  31.608   4.601   4.334
97994W        W69523  17.638  41.318   1.648
97995W        W69524  13.726  17.753  13.254
97996W        W69525   7.687  23.943  12.937
97997W        W69526  43.989  14.214   0.869
97998W        W69527  14.187  43.829  13.762
97999W        W69528  19.309   8.024   4.961
98000W        W69529  36.010  22.026  11.036
98001W        W69530  29.180   4.516  13.358
98002W        W69531  40.374  13.608  13.352
98003W        W69532  22.957  20.698   0.266
98004W        W69533  41.756  16.079  14.729
98005W        W69534  11.198  21.135  13.767
98006W        W69535   8.731  27.417  11.154
98007W        W69536  35.984  39.365   1.282
98008W        W69537  39.811  31.482   0.385
98009W        W69538  13.171  40.550   1.222
98010W        W69539  13.813  26.530   4.471
98011W        W69540  22.954  25.020  13.941
98012W        W69541  15.720  14.545  14.061
98013W        W69542  37.212   5.336  11.991
98014W        W69543  11.234   0.677  14.418
98015W        W69544   9.147  40.539  15.000
98016W        W69545   4.664  41.360   1.336
98017W        W69546  21.358  26.965   3.237
98018W        W69547  30.646  44.753   4.047
98019W        W69548  43.032  27.741  12.053
98020W        W69549  20.769   9.746   1.747
98021W        W69550  32.529  25.749  12.483
98022W        W69551  43.281  37.475  11.072
98023W        W69552   3.403   7.395  13.106
98024W        W69553  38.298  42.058  12.884
98025W        W69554  36.582  28.035  13.656
98026W        W69555  17.838  41.371   1.174
98027W        W69556  11.270  42.272   2.532
98028W        W69557  33.896  24.487   1.417
98029W        W69558  16.616  40.223   3.354
98030W        W69559  37.081  10.580  14.058
98031W        W69560  28.588   5.010   4.217
98032W        W69561   4.402  35.438   3.843
98033W        W69562   8.183  13.161   4.046
98034W        W69563  17.235  32.926   0.489
98035W        W69564  31.676   8.648   4.575
98036W        W69565   1.910  22.006  14.582
98037W        W69566  27.014  40.187  11.196
98038W        W69567  31.437  10.577   3.091
98039W        W69568  32.972  27.560   4.792
98040W        W69569  44.784  34.789  13.981
98041W        W69570  31.754  33.116   4.160
98042W        W69571   0.828   5.719   4.470
98043W        W69572   0.658  26.962   2.786
98044W        W69573   8.816   5.323   4.657
98045W        W69574  44.440   5.241   1.766
98046W        W69575  33.060   0.879   2.375
98047W        W69576   8.744   8.764   0.981
98048W        W69577  19.065  21.398  13.110
98049W        W69578   4.724  34.096   1.675
98050W        W69579  25.981  39.349   4.198
98051W        W69580  24.762  32.238  14.490
98052W        W69581  15.257  41.900   1.432
98053W        W69582  29.950   5.134  11.018
98054W        W69583  23.645  10.801   1.242
98055W        W69584   7.469  16.977   0.082
98056W        W69585  13.230  15.040   4.553
98057W        W69586  27.462   7.921  14.493
98058W        W69587  24.573   5.459  13.427
98059W        W69588   3.861  44.696   2.388
98060W        W69589  34.317   8.301  14.536
98061W        W69590  28.439  44.506   4.866
98062W        W69591  16.335   6.544   9.790
98063W        W69592   4.024  36.357   2.163
98064W        W69593  32.928  23.697   2.217
98065W        W69594  12.984  37.397  10.219
98066W        W69595  32.508  13.658   3.871
98067W        W69596  44.333  14.688  12.677
98068W        W69597  43.615   1.706  11.914
98069W        W69598  12.270  24.116   1.502
98070W        W69599  39.098  42.495   3.678
98071W        W69600  21.784   3.252   3.207
98072W        W69601  29.152  34.678   3.160
98073W        W69602  44.708  34.888  10.147
98074W        W69603  24.265  38.084  14.664
98075W        W69604  22.814   8.672  13.008
98076W        W69605  14.746  31.656   3.625
98077W        W69606  38.612  10.445   1.275
98078W        W69607   9.509  14.725  14.230
98079W        W69608  20.245  16.058   1.538
98080W        W69609   7.191  34.563  12.454
98081W        W69610   6.869  35.585  12.413
98082W        W69611  18.123   7.111  11.949
98083W        W69612  31.956  33.836  12.445
98084W        W69613   8.939   5.849   3.223
98085W        W69614   3.864  24.606   0.769
98086W        W69615  27.152  40.215  12.511
98087W        W69616  12.317   2.004  12.390
98088W        W69617  15.235  13.173   0.850
98089W        W69618  33.987  28.561   2.961
98090W        W69619  13.672  19.457   1.446
98091W        W69620   7.732  14.311   2.705
98092W        W69621  28.083  29.132   2.897
98093W        W69622   4.646  16.278  14.754
98094W        W69623  12.523   9.881  14.310
98095W        W69624  30.990  16.570   1.529
98096W        W69625   0.069  26.249  11.133
98097W        W69626  39.969  17.587   4.091
98098W        W69627  29.043  38.059   3.302
98099W        W69628  21.071  23.073  11.272
98100W        W69629  18.298   8.963   2.447
98101W        W69630  13.830  33.173   1.186
98102W        W69631  25.207  21.603  14.012
98103W        W69632  18.350  27.891  14.650
98104W        W69633  36.121  22.968  10.645
98105W        W69634   3.231   7.386  12.633
98106W        W69635  28.391   2.606  11.518
98107W        W69636  14.171  10.713   3.644
98108W        W69637  28.691  16.557  11.877
98109W        W69638  32.949  10.607  12.085
98110W        W69639  17.702   5.115  14.808
98111W        W69640  14.764  17.700   2.941
98112W        W69641  15.865  39.512  12.128
98113W        W69642  42.458   9.332   4.803
98114W        W69643   7.228  23.276   4.148
98115W        W69644  12.087  17.190  11.605
98116W        W69645  23.607  12.149  11.990
98117W        W69646   7.846  44.365  14.440
98118W        W69647  11.676  18.135  10.803
98119W        W69648  10.130  41.543   2.842
98120W        W69649  19.059  17.776  12.633
98121W        W69650  41.881  17.044  14.835
98122W        W69651  33.351  21.314   3.914
98123W        W69652  29.024  11.758   0.544
98124W        W69653   7.425   5.845   1.905
98125W        W69654  28.576   4.337   2.246
98126W        W69655  41.435  37.363  14.452
98127W        W69656  38.303  14.431  13.920
98128W        W69657   7.173  30.367  13.585
98129W        W69658  43.730  18.712   4.120
98130W        W69659  37.020  36.758  13.265
98131W        W69660  33.000  42.025  14.779
98132W        W69661  30.376  41.956   4.790
98133W        W69662  35.087  18.737   3.682
98134W        W69663  21.344  41.813   3.085
98135W        W69664  24.390  34.597   1.428
98136W        W69665   0.922   7.295   0.090
98137W        W69666  23.464   4.236  13.070
98138W        W69667  33.184  26.475  12.677
98139W        W69668  40.787  27.911  13.740
98140W        W69669  31.504  43.843  12.689
98141W        W69670  15.502  38.712   0.890
98142W        W69671  33.479   9.842  13.926
98143W        W69672  28.436  27.566  13.449
98144W        W69673  18.080  23.567   3.694
98145W        W69674  34.066  37.543  11.957
98146W        W69675  18.168  37.574   4.659
98147W        W69676  21.054  28.413  12.143
98148W        W69677  29.482  13.092   9.809
98149W        W69678  29.940   9.286   2.617
98150W        W69679  10.387  15.303   0.719
98151W        W69680  27.118  32.985   0.444
98152W        W69681   6.597  24.120   2.762
98153W        W69682  40.459  14.102  11.216
98154W        W69683  12.946  18.025   0.064
98155W        W69684  38.720  19.603  12.404
98156W        W69685  39.815  32.549   4.207
98157W        W69686  44.148  44.822  14.481
98158W        W69687   7.177  24.531  11.376
98159W        W69688   1.825  21.098  12.184
98160W        W69689  16.898  40.513   1.045
98161W        W69690  20.954  38.954  10.750
98162W        W69691  24.506  41.093  14.791
98163W        W69692  32.377  42.309   3.766
98164W        W69693  39.461  38.529   2.828
98165W        W69694   5.573  39.355  10.914
98166W        W69695   8.164  15.795   0.868
98167W        W69696   3.403   9.135  11.200
98168W        W69697  42.200  27.287   0.709
98169W        W69698   4.818  18.075  12.520
98170W        W69699  28.134   1.595   3.723
98171W        W69700  34.165   5.649   2.200
98172W        W69701  26.522  28.238   5.022
98173W        W69702   4.986  27.906   1.392
98174W        W69703  15.077  44.197  14.931
98175W        W69704   7.377  11.785   0.382
98176W        W69705  15.986  27.442  10.345
98177W        W69706   6.073  15.747   3.321
98178W        W69707  22.971  16.259   3.735
98179W        W69708  11.828   2.506  14.972
98180W        W69709  30.024  42.789  14.587
98181W        W69710  16.589  42.304   2.737
98182W        W69711   3.039  18.908  12.122
98183W        W69712  28.446  18.241   3.584
98184W        W69713  37.591  35.900  13.985
98185W        W69714  39.460  15.307   2.786
98186W        W69715  37.006   3.413   0.837
98187W        W69716  15.941  10.972   4.975
98188W        W69717  23.731  23.151  12.873
98189W        W69718  33.157   6.755  14.681
98190W        W69719  15.695  15.964  13.972
98191W        W69720  17.713  11.527  11.601
98192W        W69721  17.248  10.274   3.534
98193W        W69722  37.987   7.680  10.694
98194W        W69723  26.277  29.605  14.277
98195W        W69724  13.923  25.633   5.140
98196W        W69725  21.282  32.386  12.882
98197W        W69726  37.005  16.101  12.041
98198W        W69727   3.655  37.217   3.194
98199W        W69728  37.551  20.310  13.477
98200W        W69729  38.466  36.906  11.134
98201W        W69730   7.832  27.140  12.747
98202W        W69731  44.707  16.652  13.317
98203W        W69732  38.759  35.534   2.693
98204W        W69733  38.867  29.499  14.117
98205W        W69734  44.447   6.324   2.896
98206W        W69735  20.276  41.298   4.951
98207W        W69736  34.107  40.876  12.480
98208W        W69737  30.908  36.886  13.812
98209W        W69738  35.785  12.116   0.280
98210W        W69739  37.764  36.026  11.634
98211W        W69740  43.413  15.162   4.233
98212W        W69741  37.111  37.274   0.610
98213W        W69742   0.297  42.298  11.224
98214W        W69743   4.792  35.125  13.084
98215W        W69744  22.587   6.292   1.779
98216W        W69745  28.298  28.920  14.630
98217W        W69746  17.142   3.546  11.697
98218W        W69747  23.563  18.282  13.063
98219W        W69748  31.537  25.589  11.149
98220W        W69749  24.394  40.273   3.597
98221W        W69750  29.142  44.872  13.817
98222W        W69751  18.115  21.074  14.546
98223W        W69752  35.097  16.974   1.606
98224W        W69753  33.542  36.979  10.564
98225W        W69754   7.659  27.237   1.740
98226W        W69755  20.846  24.348  14.281
98227W        W69756  29.643  10.481   4.525
98228W        W69757   7.540  13.621  13.599
98229W        W69758  41.237  10.158  14.507
98230W        W69759  14.484  38.014  13.024
98231W        W69760   4.525  20.484   2.208
98232W        W69761  34.516  20.724  13.025
98233W        W69762   1.866  36.639   0.688
98234W        W69763  10.796  13.096   4.207
98235W        W69764   4.774  39.943   2.189
98236W        W69765  28.986  18.072  11.931
98237W        W69766  15.983  41.887   0.890
98238W        W69767  35.374  28.934  10.879
98239W        W69768   4.310  15.846  10.774
98240W        W69769   3.374  24.780   0.837
98241W        W69770  10.043  29.676  10.692
98242W        W69771  14.775  13.673   4.292
98243W        W69772  32.386  40.981   2.749
98244W        W69773  17.049  14.184  10.338
98245W        W69774  15.570  40.310   2.320
98246W        W69775  39.042   6.063  13.487
98247W        W69776   8.593  10.126   1.968
98248W        W69777   1.937  32.310  10.836
98249W        W69778  33.525   5.674   1.812
98250W        W69779  42.805  39.298  10.828
98251W        W69780  34.508   8.249  10.808
98252W        W69781   6.225  22.776   2.830
98253W        W69782  17.158  41.035   1.917
98254W        W69783  22.288   7.166   3.248
98255W        W69784  30.611   7.330   1.934
98256W        W69785  28.441  38.601   4.341
98257W        W69786  23.678   5.271  12.153
98258W        W69787  11.359  21.999  12.300
98259W        W69788   4.354   2.559   1.416
98260W        W69789  30.708  22.985  13.428
98261W        W69790  35.546  19.816   1.708
98262W        W69791  29.819   1.524   9.956
98263W        W69792  27.348   9.721  12.565
98264W        W69793  28.669  25.473   1.780
98265W        W69794  37.957  14.021   0.490
98266W        W69795  17.108  40.543  13.141
98267W        W69796   7.208  11.233   4.700
98268W        W69797  35.978  27.511   0.623
98269W        W69798   0.089  10.824  13.851
98270W        W69799   4.237  17.144  14.478
98271W        W69800   0.329   3.993  12.857
98272W        W69801  39.342  34.464   1.795
98273W        W69802  27.780  18.580  14.877
98274W        W69803   9.192  16.516   2.776
98275W        W69804  19.009  19.036   2.564
98276W        W69805   6.362  40.620  13.001
98277W        W69806  39.476  22.341   4.611
98278W        W69807  32.471   2.464  12.205
98279W        W69808  16.670  36.659  14.453
98280W        W69809  28.935   1.773  13.670
98281W        W69810  24.465  11.116  10.496
98282W        W69811  20.520  35.514   1.797
98283W        W69812  40.974   7.832  11.585
98284W        W69813  16.167  44.480  10.260
98285W        W69814  10.381  13.844   0.346
98286W        W69815  20.795  37.401  13.467
98287W        W69816  41.501   2.233   0.639
98288W        W69817  10.401  39.612   1.446
98289W        W69818  24.732   1.472   3.906
98290W        W69819   5.654   7.290  11.081
98291W        W69820  29.719   4.642  11.011
98292W        W69821   0.196   0.805  14.374
98293W        W69822  41.994  40.261  14.936
98294W        W69823  31.097   7.415   0.659
98295W        W69824   3.095  41.171  12.204
98296W        W69825   3.402  26.880   5.067
98297W        W69826   5.398  32.421  14.810
98298W        W69827   1.445  34.057  13.898
98299W        W69828  26.705  25.250   4.488
98300W        W69829  33.327   9.493  12.821
98301W        W69830  44.358  10.206   2.708
98302W        W69831   4.383  44.793  11.394
98303W        W69832  26.876  30.433   2.433
98304W        W69833  27.075  11.205  14.402
98305W        W69834  43.999  41.088  14.977
98306W        W69835  40.527  10.751  12.125
98307W        W69836  40.915  40.421  11.132
98308W        W69837  18.454  13.721   3.637
98309W        W69838  23.468  26.662   2.775
98310W        W69839  27.436   5.488   1.651
98311W        W69840   8.477  40.094   2.641
98312W        W69841   0.769  11.413   4.385
98313W        W69842  12.135  41.740   2.728
98314W        W69843  38.147   0.066  11.544
98315W        W69844  23.136  19.551   0.980
98316W        W69845   1.955  13.215   2.641
98317W        W69846  14.995   1.641  12.141
98318W        W69847  11.127  31.931  10.704
98319W        W69848  18.553  18.713   0.392
98320W        W69849  27.946  14.235  14.778
98321W        W69850  14.517  16.658  14.513
98322W        W69851   1.176  40.318   1.804
98323W        W69852  23.098  25.670   2.665
98324W        W69853  21.255  21.576  10.606
98325W        W69854  16.197  19.707  12.349
98326W        W69855  37.874  23.949  13.522
98327W        W69856  38.849  41.643  12.751
98328W        W69857  13.178  40.263   4.612
98329W        W69858  10.170  16.525   2.815
98330W        W69859  12.635   3.005   3.139
98331W        W69860  41.526   7.429   3.354
98332W        W69861  39.929   8.580   0.891
98333W        W69862  21.796  25.518   4.176
98334W        W69863  25.026  34.638  11.211
98335W        W69864  42.070  43.320  11.957
98336W        W69865  14.593   2.654   1.810
98337W        W69866  26.560  22.386   1.767
98338W        W69867  44.754  17.123   9.836
98339W        W69868  29.542  38.306   0.971
98340W        W69869  38.945   1.654   3.625
98341W        W69870  43.360   6.199  11.553
98342W        W69871  37.434  13.326  12.529
98343W        W69872   0.780   7.324  13.644
98344W        W69873  34.039  16.157  12.078
98345W        W69874  19.663  17.206  12.922
98346W        W69875   0.444  25.240  14.714
98347W        W69876   2.742   5.814   3.886
98348W        W69877   6.893  44.939  13.682
98349W        W69878  18.229  37.003  12.017
98350W        W69879  29.105  23.269  14.330
98351W        W69880   3.758  42.937   4.662
98352W        W69881  25.071  18.205   2.291
98353W        W69882  27.431  31.669   0.444
98354W        W69883   6.927  20.525   1.839
98355W        W69884  42.221  33.151   2.132
98356W        W69885  32.611   4.120  14.542
98357W        W69886  36.777  13.374   1.302
98358W        W69887   1.528  18.198  10.757
98359W        W69888  17.949  11.347  10.772
98360W        W69889  23.752  11.870  11.579
98361W        W69890  14.388  23.084   0.699
98362W        W69891  34.405  26.881  14.869
98363W        W69892   6.856   3.413   3.217
98364W        W69893  35.949  26.667   0.434
98365W        W69894  19.940   5.230   1.769
98366W        W69895  15.730  20.456  12.575
98367W        W69896  10.181  38.628   2.558
98368W        W69897  11.780   9.368   3.613
98369W        W69898   3.872  16.158  14.049
98370W        W69899  36.480   3.351  14.825
98371W        W69900  16.115  25.972  13.487
98372W        W69901  32.870  31.443   4.604
98373W        W69902  22.400  42.011  11.409
98374W        W69903  36.424  37.877  10.682
98375W        W69904  11.704  10.881   2.820
98376W        W69905  32.382  18.681   3.641
98377W        W69906  33.431  11.490   3.401
98378W        W69907  36.188  17.129  10.744
98379W        W69908   3.957   0.714   0.847
98380W        W69909  29.540  21.061   2.214
98381W        W69910   7.903  35.819   0.808
98382W        W69911  15.397   3.754   3.228
98383W        W69912  27.189  18.187  13.746
98384W        W69913  19.314   2.595   0.519
98385W        W69914  25.631   3.750   0.514
98386W        W69915   8.228  38.683  10.443
98387W        W69916  16.575  32.944   0.744
98388W        W69917  20.693  42.252   3.583
98389W        W69918  33.442  35.478   4.265
98390W        W69919  40.527  11.941   3.757
98391W        W69920  30.925  40.933  12.019
98392W        W69921  19.729   1.704  10.738
98393W        W69922  39.372   6.997  12.104
98394W        W69923   2.366  23.293   1.259
98395W        W69924  11.894   2.870   3.557
98396W        W69925  29.805  30.151   3.348
98397W        W69926  32.392  35.804  10.603
98398W        W69927  23.167  25.341  10.794
98399W        W69928  44.283  34.887   3.625
98400W        W69929  32.676  23.210   2.269
98401W        W69930  27.562  13.063  14.216
98402W        W69931  22.583  15.496  14.354
98403W        W69932  38.409  35.955  10.713
98404W        W69933  41.043  16.639  12.507
98405W        W69934  29.619  37.540   1.456
98406W        W69935  18.079   2.338   4.144
98407W        W69936  30.192  23.304  12.510
98408W        W69937   9.357   9.815   1.870
98409W        W69938  13.682   2.144  14.539
98410W        W69939   7.906  33.877  13.701
98411W        W69940   8.178  17.371   1.920
98412W        W69941  30.601  13.553   4.142
98413W        W69942  17.154   9.342  13.382
98414W        W69943   0.472  30.428  14.874
98415W        W69944   9.014  16.330   2.157
98416W        W69945  17.099  38.087  14.867
98417W        W69946  25.583  38.756  11.476
98418W        W69947  25.105   4.476   2.626
98419W        W69948  28.318  15.793  11.570
98420W        W69949  13.684  25.503   4.615
98421W        W69950  30.225  43.296  14.521
98422W        W69951  15.257  16.049   1.230
98423W        W69952   2.875  42.690  11.539
98424W        W69953  13.824  21.611   0.441
98425W        W69954   8.075  43.025  14.559
98426W        W69955  24.021  23.275   2.945
98427W        W69956  36.787  22.303  12.052
98428W        W69957  29.376  15.770   4.031
98429W        W69958  25.902  27.713  11.602
98430W        W69959  27.167   0.421  10.672
98431W        W69960  32.634   5.981   4.194
98432W        W69961  38.473   6.590  12.141
98433W        W69962  28.487  35.375  12.982
98434W        W69963   1.471   4.788  12.010
98435W        W69964  15.804  44.089  11.575
98436W        W69965  12.992  27.460  14.834
98437W        W69966  20.705  34.008   2.943
98438W        W69967   8.410  16.576  12.922
98439W        W69968  38.442  11.697  14.858
98440W        W69969   6.422  14.538  11.610
98441W        W69970  20.798  41.575   1.424
98442W        W69971  41.825  33.942  13.072
98443W        W69972  29.135  28.959   3.451
98444W        W69973  37.641  26.422  12.071
98445W        W69974   8.853  42.435   0.484
98446W        W69975  42.267  16.706   1.735
98447W        W69976  35.686  26.463   3.686
98448W        W69977  13.363  28.948  10.042
98449W        W69978  21.907  23.027  13.314
98450W        W69979  38.041  23.629  14.837
98451W        W69980  10.085   4.664  11.463
98452W        W69981  32.057  19.432  10.587
98453W        W69982  25.281  40.892   0.306
98454W        W69983  36.727  25.109   4.593
98455W        W69984  28.508  23.085  12.964
98456W        W69985  22.993  43.661  10.378
98457W        W69986   9.216  25.197   2.209
98458W        W69987  27.113  41.213  11.250
98459W        W69988  35.637  32.083   1.895
98460W        W69989  12.245  19.605  12.592
98461W        W69990  40.501   8.772   4.395
98462W        W69991   9.862   5.497  11.622
98463W        W69992   3.127  25.962   3.221
98464W        W69993  30.674  26.354   3.120
98465W        W69994  19.329  10.815  14.905
98466W        W69995  24.492  28.052   0.748
98467W        W69996  42.138  23.982  14.876
98468W        W69997  15.888  25.442   3.159
98469W        W69998  30.951  44.252   4.616
98470W        W69999  16.294   9.325   2.717
98471W        W70000   5.647  27.250  14.008
98472W        W70001   7.803  26.933  11.124
98473W        W70002  17.994  26.450  14.895
98474W        W70003  32.209  40.099   2.450
98475W        W70004  10.303   8.228   3.742
98476W        W70005  24.821  31.785  14.255
98477W        W70006   6.499  39.834   1.640
98478W        W70007   8.359  11.249   2.740
98479W        W70008  29.441  25.915  11.062
98480W        W70009  28.946  42.360   1.319
98481W        W70010  23.350  38.129   1.973
98482W        W70011  24.289  15.894  14.735
98483W        W70012   9.364  43.539  10.416
98484W        W70013  16.189  30.120   0.458
98485W        W70014   0.403   3.977   2.186
98486W        W70015  22.223   8.231   3.757
98487W        W70016  17.196  43.304  14.900
98488W        W70017   4.254  10.252   1.801
98489W        W70018   0.717  37.490   1.198
98490W        W70019  29.040   1.794   2.449
98491W        W70020  10.782  10.549   4.124
98492W        W70021  41.379  13.776  14.990
98493W        W70022  14.148   8.410   9.953
98494W        W70023  17.358  42.531  14.093
98495W        W70024  33.252  37.487   4.976
98496W        W70025  21.928  29.609   3.462
98497W        W70026   0.336  14.640  12.517
98498W        W70027   5.253  13.202   2.898
98499W        W70028  29.902  43.470  12.229
98500W        W70029  20.908  41.546   4.351
98501W        W70030  18.448  32.193   1.316
98502W        W70031  27.232  26.038  13.875
98503W        W70032  42.015  22.922  13.535
98504W        W70033  23.555  41.890  11.104
98505W        W70034  23.810  32.883  10.752
98506W        W70035  37.585  26.761   1.495
98507W        W70036  30.145  17.687  10.647
98508W        W70037  30.447  17.728  13.025
98509W        W70038  24.186  22.910  14.076
98510W        W70039   4.054   2.934  11.174
98511W        W70040  34.286  15.837  12.421
98512W        W70041  44.419  34.529  10.437
98513W        W70042  36.371  26.467  13.458
98514W        W70043  40.827   8.731  14.926
98515W        W70044  33.616  13.855  11.995
98516W        W70045   0.743  18.623  11.653
98517W        W70046  39.083  18.875   4.379
98518W        W70047  20.244   0.544   1.295
98519W        W70048  39.405  18.093  10.729
98520W        W70049   1.464  22.595  11.999
98521W        W70050  26.892  36.491   3.625
98522W        W70051  36.302   2.913   1.394
98523W        W70052   7.949   1.863  12.607
98524W        W70053   4.224   9.253  11.203
98525W        W70054  41.247   4.227   1.284
98526W        W70055  18.560  19.558  12.888
98527W        W70056  34.749  42.254   1.533
98528W        W70057  25.826  20.060   3.044
98529W        W70058  26.417  33.064   5.298
98530W        W70059  37.447  40.991   3.760
98531W        W70060  30.238  22.748  11.652
98532W        W70061  27.894  32.443  10.504
98533W        W70062  30.186  36.458  12.047
98534W        W70063  28.971  31.435   0.333
98535W        W70064  17.005  41.215  13.507
98536W        W70065  16.180  21.042  14.546
98537W        W70066  15.789  36.780   2.368
98538W        W70067  29.286  29.715   0.862
98539W        W70068  35.864  13.562   4.066
98540W        W70069   2.979   4.071   3.208
98541W        W70070  16.069   6.003   1.312
98542W        W70071  42.842  18.363  14.941
98543W        W70072  31.098  40.276  10.793
98544W        W70073  20.780   2.868   4.086
98545W        W70074  14.512   4.655   3.295
98546W        W70075   4.367  12.919  11.143
98547W        W70076  22.028  42.223   2.278
98548W        W70077  35.099   8.066   1.180
98549W        W70078   1.518  42.503   1.843
98550W        W70079  31.254   9.477   3.706
98551W        W70080  44.826  39.287   0.291
98552W        W70081   0.922  44.484  14.430
98553W        W70082  14.348  19.802  14.948
98554W        W70083  35.516  25.422   3.602
98555W        W70084  24.418  19.215  12.517
98556W        W70085   4.906  21.233  11.115
98557W        W70086   5.400   9.358   1.545
98558W        W70087  27.672   7.326   2.201
98559W        W70088  12.014  39.239  12.301
98560W        W70089   2.820  42.569   3.566
98561W        W70090  21.416   5.422  13.450
98562W        W70091   7.428  36.796  12.564
98563W        W70092  42.785  37.144   0.522
98564W        W70093  30.526  18.320  12.115
98565W        W70094  29.390  26.663   4.041
98566W        W70095  34.131  28.562  11.132
98567W        W70096  30.670  30.024  13.637
98568W        W70097  17.660  31.768   0.936
98569W        W70098  34.126  13.219   4.628
98570W        W70099  41.737  43.320  10.607
98571W        W70100  43.961  26.308   4.113
98572W        W70101   5.412  31.964   1.216
98573W        W70102  37.881  13.796  11.055
98574W        W70103  34.784  29.170  13.378
98575W        W70104  18.058  12.428   4.434
98576W        W70105  18.547  21.184  13.785
98577W        W70106  43.972  33.545  11.958
98578W        W70107  17.588  13.167   0.903
98579W        W70108  27.941  43.299   2.688
98580W        W70109  19.475  32.695   0.291
98581W        W70110   1.681  18.909   1.698
98582W        W70111  16.221  26.629  14.471
98583W        W70112  38.424   6.988   3.783
98584W        W70113   0.803   6.190  12.606
98585W        W70114   6.362  38.971   0.257
98586W        W70115   3.270   1.977  12.518
98587W        W70116  11.869   2.946   0.760
98588W        W70117  16.163  10.234  11.922
98589W        W70118  13.787  15.812   2.267
98590W        W70119   1.883  40.856   4.469
98591W        W70120  37.998  29.739  13.012
98592W        W70121  16.839  43.249  14.280
98593W        W70122  37.479  15.175  12.852
98594W        W70123  21.036  30.472   4.927
98595W        W70124  43.548   0.384   1.662
98596W        W70125   4.658  38.512   0.509
98597W        W70126  39.318  29.160   0.880
98598W        W70127  14.149   7.695  10.685
98599W        W70128  39.308  13.813  10.970
98600W        W70129  42.001  15.637  14.813
98601W        W70130   3.340  15.251  12.042
98602W        W70131  42.539  40.260   4.926
98603W        W70132  42.851  34.340  12.056
98604W        W70133  16.739  12.150  11.100
98605W        W70134   4.755  19.336   3.611
98606W        W70135  27.016  32.916   4.531
98607W        W70136  37.165   2.257   0.268
98608W        W70137  31.082  12.649  11.194
98609W        W70138  35.846  19.328  11.098
98610W        W70139  18.259  34.385  11.129
98611W        W70140  19.717  37.676  13.876
98612W        W70141  28.977  28.474   2.632
98613W        W70142  34.824   6.196  14.808
98614W        W70143  35.525   5.616  12.216
98615W        W70144  11.630  22.620   0.111
98616W        W70145  23.606  16.320   2.215
98617W        W70146  42.514  37.248   1.729
98618W        W70147  13.811  42.356  11.673
98619W        W70148   1.860   3.676  11.614
98620W        W70149   3.053   5.875   2.231
98621W        W70150  10.171  10.301  12.012
98622W        W70151  22.029  12.086  11.991
98623W        W70152  19.716  10.193   0.252
98624W        W70153  43.728   7.959  11.161
98625W        W70154  15.200  16.544   3.849
98626W        W70155  23.429  36.491  11.976
98627W        W70156  25.673  27.675   2.771
98628W        W70157  42.709   1.183   1.621
98629W        W70158  35.270  39.018   4.063
98630W        W70159  35.790   5.039  13.406
98631W        W70160  32.049   9.842  12.847
98632W        W70161  16.287  32.051   4.375
98633W        W70162  35.042  44.585  12.892
98634W        W70163  19.613  39.727  10.972
98635W        W70164  35.443   6.107  12.073
98636W        W70165  39.580   4.350   0.554
98637W        W70166  35.001  22.478   2.303
98638W        W70167   5.558   0.873  11.155
98639W        W70168  42.287  33.135   0.364
98640W        W70169  37.999  33.059   2.390
98641W        W70170  33.610  27.169   4.825
98642W        W70171  12.205  10.116   2.777
98643W        W70172  40.309  11.681   2.095
98644W        W70173  44.687  17.096  10.522
98645W        W70174  27.801  40.803  14.011
98646W        W70175  44.884  11.770   1.181
98647W        W70176   0.773  23.477  13.966
98648W        W70177   9.512  40.538   3.209
98649W        W70178  23.262  44.970  13.472
98650W        W70179  43.570  20.034   2.267
98651W        W70180  17.464   4.886   4.819
98652W        W70181  16.410  10.925  10.526
98653W        W70182  18.306  12.208   0.977
98654W        W70183  16.531  22.597   5.263
98655W        W70184  37.364  28.186   4.883
98656W        W70185   7.751  28.933   1.752
98657W        W70186  44.755   0.692   1.620
98658W        W70187  32.133  14.637  14.491
98659W        W70188  43.850  29.111  10.629
98660W        W70189  36.320  39.328  13.977
98661W        W70190  38.468  10.850  13.526
98662W        W70191   9.154  14.455   4.571
98663W        W70192   9.858  25.215  12.412
98664W        W70193  31.376  27.095  11.392
98665W        W70194   6.650  42.421   2.228
98666W        W70195  30.331  35.424  11.967
98667W        W70196   3.176  43.947  13.997
98668W        W70197   0.226   4.393   3.836
98669W        W70198  16.363  17.761  11.138
98670W        W70199  17.663  38.418   2.008
98671W        W70200  36.928  42.836  14.348
98672W        W70201   6.323  41.704   1.243
98673W        W70202  32.610  36.370  11.178
98674W        W70203  23.237  44.347  12.126
98675W        W70204  18.208  17.547   3.757
98676W        W70205   6.838  22.786   3.665
98677W        W70206  15.981  33.681  13.026
98678W        W70207  43.572   4.673   3.859
98679W        W70208   6.705   4.770   2.800
98680W        W70209  19.679  39.532   2.931
98681W        W70210  14.781  22.536   3.159
98682W        W70211  27.280  26.486   4.636
98683W        W70212  13.211  29.013  12.902
98684W        W70213  21.283  34.901  14.465
98685W        W70214  23.984   9.244   1.763
98686W        W70215  29.883  17.598   1.386
98687W        W70216  24.035  26.602   4.752
98688W        W70217  22.798  43.538  12.520
98689W        W70218   4.192  32.643  14.902
98690W        W70219  12.360  36.337   0.764
98691W        W70220  42.377  42.494   3.655
98692W        W70221  28.986  12.245  11.259
98693W        W70222  22.004  37.625  12.435
98694W        W70223  16.160  38.026  10.651
98695W        W70224   3.137   0.533   1.698
98696W        W70225  19.834  14.232   3.626
98697W        W70226  24.952  16.475  11.368
98698W        W70227  27.544  23.517  11.172
98699W        W70228  39.022  35.729   1.852
98700W        W70229   0.908  22.175  12.868
98701W        W70230  15.103  19.576  11.531
98702W        W70231   7.982  39.351  11.108
98703W        W70232  43.050  17.022  11.099
98704W        W70233  20.600  19.498  12.043
98705W        W70234   0.252   6.452  10.887
98706W        W70235   1.338  44.057   2.255
98707W        W70236  22.218  21.178   0.208
98708W        W70237  27.946  28.002  11.665
98709W        W70238  35.001  37.909  12.697
98710W        W70239   3.312  23.819   4.523
98711W        W70240  19.660   5.296  10.915
98712W        W70241   4.435  15.361  10.709
98713W        W70242  28.213  35.442  10.980
98714W        W70243   4.952  10.653   3.642
98715W        W70244  26.794  11.345  12.361
98716W        W70245  11.849  27.679   2.897
98717W        W70246  10.711  43.166  13.030
98718W        W70247  35.282  12.316  10.880
98719W        W70248  24.212  39.482  11.392
98720W        W70249  25.550  31.393   0.357
98721W        W70250  36.869   6.186   1.326
98722W        W70251  41.540  42.470   4.558
98723W        W70252  17.821   6.792  13.008
98724W        W70253  25.100   3.969   2.700
98725W        W70254  40.006  30.356  13.060
98726W        W70255   9.574  13.146   4.170
98727W        W70256  44.032   4.874   0.434
98728W        W70257  41.356  13.358   4.471
98729W        W70258  13.079  33.099   3.063
98730W        W70259  17.600  35.932  10.594
98731W        W70260  17.413  28.401  13.702
98732W        W70261  30.760  19.728   2.600
98733W        W70262   5.198  24.235   1.746
98734W        W70263  11.626  42.836   0.827
98735W        W70264  29.785  44.482  10.948
98736W        W70265  27.324  39.555   3.262
98737W        W70266  17.506  13.520  13.242
98738W        W70267  34.468  24.634   2.915
98739W        W70268  38.000   6.603   1.945
98740W        W70269  41.871  44.972  10.782
98741W        W70270  21.201   5.232   4.564
98742W        W70271  32.593  28.954   2.161
98743W        W70272  26.055  34.955   3.082
98744W        W70273  32.789  30.750   1.980
98745W        W70274  34.477  36.823   2.587
98746W        W70275   5.361  16.555  13.382
98747W        W70276  40.313  37.199   0.212
98748W        W70277  23.176  41.002  14.370
98749W        W70278   1.077  28.566   3.122
98750W        W70279  15.545   3.246  13.429
98751W        W70280   3.853  21.090  14.544
98752W        W70281   9.203   1.459  13.903
98753W        W70282  20.204  12.279  13.154
98754W        W70283  10.271  44.475   3.105
98755W        W70284  39.033   7.479  13.940
98756W        W70285  19.120   7.135   3.141
98757W        W70286  14.648   5.310   2.726
98758W        W70287  22.035  44.594   1.693
98759W        W70288   6.604  14.613   4.161
98760W        W70289  35.409   0.193   1.098
98761W        W70290  40.056  15.441  11.474
98762W        W70291  20.016  39.242   3.709
98763W        W70292   8.875  31.806  14.633
98764W        W70293  41.918  37.993   2.790
98765W        W70294  41.311  27.392  13.245
98766W        W70295  27.589  35.693  12.686
98767W        W70296  39.213  12.423   1.195
98768W        W70297   9.168   9.358   1.638
98769W        W70298  17.684   7.092   1.407
98770W        W70299  39.864  16.226   0.018
98771W        W70300  24.188  22.287   3.234
98772W        W70301   7.736  24.118   0.035
98773W        W70302  30.218  14.283  14.854
98774W        W70303   8.775  12.852   2.352
98775W        W70304  39.925  11.689  10.770
98776W        W70305  23.004  36.832  12.954
98777W        W70306  18.615  44.019   2.733
98778W        W70307  40.008   8.775   4.648
98779W        W70308  13.009  20.036   0.832
98780W        W70309  12.639  28.377   2.690
98781W        W70310  29.071  21.066  11.983
98782W        W70311   3.165  20.418   4.861
98783W        W70312   4.337  29.629   4.580
98784W        W70313  21.654  32.555   2.975
98785W        W70314  16.033  29.454  14.335
98786W        W70315  30.697  21.975  10.767
98787W        W70316  35.921  35.102   0.325
98788W        W70317  42.109  24.118  11.661
98789W        W70318   2.138  23.062   1.898
98790W        W70319  20.606  39.349  11.795
98791W        W70320  23.564   0.310  12.133
98792W        W70321  24.174   5.297  10.539
98793W        W70322  42.470   0.287   3.198
98794W        W70323  30.383  15.253   4.496
98795W        W70324  34.797  25.507   2.214
98796W        W70325  24.539   3.253  14.304
98797W        W70326  25.529  15.456   1.655
98798W        W70327  41.231  14.588   3.438
98799W        W70328  13.843   6.997  14.917
98800W        W70329  31.335  20.054   1.261
98801W        W70330  28.626  41.804   3.792
98802W        W70331  16.321  39.262  13.533
98803W        W70332  19.242   4.959  14.310
98804W        W70333  17.972   9.678   3.149
98805W        W70334   6.972   1.970  12.992
98806W        W70335  22.088   5.667  12.632
98807W        W70336   2.212   3.568   2.229
98808W        W70337  14.572  23.004   1.647
98809W        W70338  37.474  31.824   3.707
98810W        W70339  29.753  17.017   3.368
98811W        W70340  38.083  43.888   3.793
98812W        W70341  14.922  38.508   0.084
98813W        W70342   5.665  42.827   2.693
98814W        W70343  33.984  28.636  12.020
98815W        W70344  37.560  37.368  11.992
98816W        W70345  28.445   4.177  10.740
98817W        W70346  34.746  22.820  11.122
98818W        W70347  29.271  37.773  11.951
98819W        W70348  22.752   9.593   4.517
98820W        W70349  37.410  31.362   0.467
98821W        W70350   1.805  39.455   3.517
98822W        W70351  36.346   1.720   2.183
98823W        W70352  14.820  41.460   0.232
98824W        W70353  39.745  42.032  14.010
98825W        W70354  41.246  20.780  13.992
98826W        W70355  18.725  27.219  10.154
98827W        W70356  16.048  25.620   1.332
98828W        W70357  25.553  42.473   0.322
98829W        W70358  21.003  42.340  10.711
98830W        W70359  39.352  42.463   1.857
98831W        W70360  37.643  37.241   0.636
98832W        W70361  18.792  16.137  10.603
98833W        W70362  37.619  40.469  14.360
98834W        W70363  34.543  35.096   3.849
98835W        W70364  30.010   0.803  11.627
98836W        W70365  14.230  17.950   0.694
98837W        W70366  41.423  25.025   4.084
98838W        W70367  18.092  11.812   4.465
98839W        W70368  12.772  41.239   3.279
98840W        W70369  33.644   9.795   2.383
98841W        W70370   4.979  40.715  10.338
98842W        W70371  37.799  41.984  11.096
98843W        W70372  28.877   7.076  12.384
98844W        W70373  27.392   3.718   1.372
98845W        W70374  24.970  15.421   1.916
98846W        W70375   1.841  31.484   3.261
98847W        W70376   8.113  34.156   1.956
98848W        W70377  40.240  25.199  13.875
98849W        W70378  28.453  12.572   1.795
98850W        W70379   2.543   2.739   1.363
98851W        W70380  15.163  41.886  10.500
98852W        W70381  43.758   1.686   3.380
98853W        W70382  19.984  17.764   2.930
98854W        W70383  17.438   0.688  12.309
98855W        W70384  38.722  24.672  14.433
98856W        W70385   0.482  27.025   4.559
98857W        W70386  28.948  39.547   0.401
98858W        W70387   9.663   2.908   4.848
98859W        W70388   2.987  14.280   2.652
98860W        W70389  22.802  38.717  10.914
98861W        W70390  37.996  35.518   3.164
98862W        W70391   4.696  18.156   0.426
98863W        W70392  35.085   8.490  13.901
98864W        W70393   7.131   1.821   2.871
98865W        W70394  30.909   1.334   4.784
98866W        W70395  10.615  32.417   1.659
98867W        W70396  37.041  20.956   2.121
98868W        W70397  41.778  10.458  11.613
98869W        W70398  16.377  10.751   2.661
98870W        W70399   6.361  42.212   1.201
98871W        W70400  41.307  19.729   2.751
98872W        W70401  18.066   9.389   2.288
98873W        W70402  15.379  13.896  11.066
98874W        W70403  43.643  34.985  10.412
98875W        W70404   5.731  12.241  14.967
98876W        W70405  20.514  29.802  13.776
98877W        W70406  18.029  26.064   2.817
98878W        W70407  30.005  12.587   4.948
98879W        W70408  20.201   6.684   1.212
98880W        W70409  25.648   6.929   3.942
98881W        W70410  11.514  10.799  13.526
98882W        W70411  24.188  36.973  11.882
98883W        W70412  36.400  35.965  14.095
98884W        W70413  20.166  14.201  14.022
98885W        W70414  38.981   8.701  14.433
98886W        W70415  43.372  42.053  12.033
98887W        W70416  38.133  41.557   4.168
98888W        W70417  42.841  31.361   1.848
98889W        W70418  26.414   3.973  10.802
98890W        W70419  20.988  29.216  11.518
98891W        W70420  12.629  28.228   1.690
98892W        W70421   5.552  28.043  10.414
98893W        W70422  17.309   7.942  13.403
98894W        W70423  31.664  28.067   2.525
98895W        W70424  27.928  16.310   2.911
98896W        W70425   5.010  16.138  13.418
98897W        W70426  11.687  15.328   4.824
98898W        W70427  29.600   0.068  14.908
98899W        W70428  32.363  29.270   1.415
98900W        W70429  24.529  27.364   2.334
98901W        W70430  33.825   2.912  12.955
98902W        W70431  24.706  44.567   2.454
98903W        W70432  28.960  15.237   1.606
98904W        W70433  33.549  42.344  13.403
98905W        W70434  19.785  11.588  11.123
98906W        W70435   1.107  37.706  13.002
98907W        W70436  22.471  36.963  14.529
98908W        W70437  34.993   5.460   1.890
98909W        W70438  31.883  25.932  12.157
98910W        W70439   8.309   3.636  11.035
98911W        W70440  35.000   7.163  13.891
98912W        W70441  44.946  14.303  11.197
98913W        W70442  35.546  19.486  12.864
98914W        W70443  28.507  23.981  14.387
98915W        W70444   5.445  17.348   1.419
98916W        W70445   3.922  32.428   0.260
98917W        W70446   3.009  23.464  14.259
98918W        W70447  33.042  20.597   1.707
98919W        W70448   6.294  21.748  10.592
98920W        W70449   8.653  44.166   2.044
98921W        W70450  15.884  10.338   4.507
98922W        W70451  24.569  26.019   4.589
98923W        W70452  37.129   6.352  13.442
98924W        W70453   3.373  11.148   4.222
98925W        W70454   0.297  31.911  14.270
98926W        W70455  44.205  38.063   2.448
98927W        W70456  18.821   6.292   1.622
98928W        W70457  22.721  25.221   0.307
98929W        W70458  20.802  21.512   2.177
98930W        W70459  12.637  35.880   2.753
98931W        W70460  21.342  11.198  14.392
98932W        W70461  38.124  43.786  14.312
98933W        W70462  26.468  36.469  14.303
98934W        W70463   4.448  25.065  10.561
98935W        W70464  37.652  25.327   0.755
98936W        W70465  41.038  32.155   2.305
98937W        W70466  32.609  11.873   2.450
98938W        W70467  24.073   9.524  11.258
98939W        W70468  23.102  38.294   4.598
98940W        W70469  31.452  28.593   0.023
98941W        W70470  31.668   9.415  13.765
98942W        W70471  24.541  13.900   0.517
98943W        W70472  31.858  36.995   4.082
98944W        W70473  44.019  36.099  11.583
98945W        W70474   1.766  16.804  14.270
98946W        W70475   8.057  25.455  13.371
98947W        W70476  42.520   9.237  10.368
98948W        W70477   8.823  27.922  12.894
98949W        W70478  16.328  10.252   1.195
98950W        W70479  23.710  42.726  11.702
98951W        W70480   2.369   7.283   0.197
98952W        W70481  18.263   2.815   3.447
98953W        W70482  23.085  25.235   1.629
98954W        W70483  17.256   1.598   1.159
98955W        W70484   7.851  34.309   3.446
98956W        W70485  30.930  35.491  13.361
98957W        W70486  12.387   1.068  12.209
98958W        W70487   0.314   2.221  14.017
98959W        W70488  17.738  38.259   1.494
98960W        W70489   3.270  35.499  14.807
98961W        W70490  20.586   6.005   3.174
98962W        W70491  43.257  33.868   1.248
98963W        W70492  10.640  18.178  11.779
98964W        W70493  28.073  21.832  12.022
98965W        W70494   0.775  38.216   3.848
98966W        W70495  24.747  40.232  11.751
98967W        W70496   7.195  19.182  14.590
98968W        W70497   3.867  37.075   0.511
98969W        W70498  31.202  39.536  12.596
98970W        W70499   6.958  23.735   3.490
98971W        W70500  11.346  19.984  10.535
98972W        W70501  33.402  10.344  10.748
98973W        W70502   2.772  22.072   2.818
98974W        W70503  19.072  18.810   3.306
98975W        W70504  10.530  19.614   4.124
98976W        W70505  34.485  23.593   1.391
98977W        W70506  38.420  18.671  13.480
98978W        W70507  19.652  12.360   2.703
98979W        W70508  28.746  22.920  12.528
98980W        W70509  19.251  31.239  10.231
98981W        W70510  34.610  35.381   0.416
98982W        W70511   6.848  24.303  11.728
98983W        W70512   3.961  18.816  11.035
98984W        W70513  23.664   1.658  14.481
98985W        W70514  25.382  17.771   3.539
98986W        W70515  16.365  29.557  12.446
98987W        W70516  42.594   1.043  13.033
98988W        W70517   2.926  42.738   0.854
98989W        W70518  29.467  30.208   2.301
98990W        W70519   7.894  25.171   4.099
98991W        W70520  42.127  31.306   3.597
98992W        W70521   9.665  20.038  13.423
98993W        W70522  19.006  36.900   0.359
98994W        W70523  37.060  43.226  10.285
98995W        W70524   9.900  26.074   0.671
98996W        W70525  11.243   0.749  12.857
98997W        W70526  37.868  14.808  12.085
98998W        W70527   7.815  37.121   1.713
98999W        W70528   2.051  40.437  12.132
99000W        W70529  35.577  33.025   4.545
99001W        W70530   4.328   3.216  13.019
99002W        W70531   1.086  35.650  13.397
99003W        W70532  26.191   2.427   2.481
99004W        W70533  32.120  18.023  10.910
99005W        W70534  15.181  20.084   5.008
99006W        W70535  36.065  27.728   5.001
99007W        W70536  31.013   3.483   3.241
99008W        W70537  18.821  21.012  11.288
99009W        W70538  28.603  29.417  11.953
99010W        W70539   8.371  38.329  13.670
99011W        W70540  15.699  11.229  11.171
99012W        W70541   2.094   2.286   3.825
99013W        W70542  28.837  30.876  14.138
99014W        W70543  28.216  28.725  12.855
99015W        W70544  20.815  31.000  13.207
99016W        W70545  22.904  21.465   3.245
99017W        W70546   4.275  25.594   3.280
99018W        W70547  30.240  21.239   4.540
99019W        W70548  20.958  32.847  13.950
99020W        W70549  25.654  21.230  11.603
99021W        W70550  34.702  44.797  14.486
99022W        W70551  35.417  15.323   4.382
99023W        W70552  26.195  42.364  14.691
99024W        W70553  21.541  43.417  13.025
99025W        W70554  44.490  39.797   3.043
99026W        W70555  26.036   9.097  12.923
99027W        W70556  18.616  28.457  11.412
99028W        W70557  17.889  28.377  13.497
99029W        W70558  38.712   7.308   3.292
99030W        W70559  16.137  34.285   3.961
99031W        W70560  29.002  42.373   4.391
99032W        W70561  42.858  20.711   0.814
99033W        W70562   0.796   6.384  11.613
99034W        W70563   8.791   8.413  11.594
99035W        W70564   0.482  32.443  14.000
99036W        W70565  30.868  39.779   3.300
99037W        W70566  43.530  21.168  13.800
99038W        W70567   2.834  26.816  10.424
99039W        W70568   6.698   6.638   4.705
99040W        W70569   7.899   0.711   1.522
99041W        W70570  21.178  22.688  12.921
99042W        W70571  41.363  44.468  11.965
99043W        W70572  40.435  25.807   2.465
99044W        W70573  27.148   2.922   0.952
99045W        W70574  15.248  17.070   3.835
99046W        W70575  17.872  16.692  13.154
99047W        W70576   1.894   2.371   4.288
99048W        W70577  41.807  44.519   4.231
99049W        W70578   2.898   7.084  13.889
99050W        W70579  34.226  29.815   1.759
99051W        W70580  41.613  27.997   2.229
99052W        W70581  17.886  32.526  12.353
99053W        W70582  12.639  24.778   2.156
99054W        W70583  43.727  14.002   3.521
99055W        W70584  21.569   8.108  11.119
99056W        W70585   8.759   2.982  11.586
99057W        W70586  11.826  42.726   4.181
99058W        W70587  17.443   8.675  14.465
99059W        W70588  31.254  13.139  13.830
99060W        W70589  33.084   3.399  11.404
99061W        W70590   3.968  32.798   3.710
99062W        W70591  10.865  33.745   1.448
99063W        W70592  16.076  12.347   2.717
99064W        W70593  38.408  33.697   3.545
99065W        W70594  10.900  31.042   0.049
99066W        W70595  23.233  30.111  12.536
99067W        W70596  35.600  33.974  13.406
99068W        W70597   6.901  29.427   1.327
99069W        W70598  43.900   4.754  11.621
99070W        W70599   2.166  10.744  11.623
99071W        W70600  40.554  32.126   0.340
99072W        W70601  15.184  32.748   5.082
99073W        W70602   4.135  27.342   0.412
99074W        W70603   3.736  21.751  12.890
99075W        W70604  28.459  32.925  13.431
99076W        W70605   0.249  14.215  12.890
99077W        W70606  38.349   9.188  13.756
99078W        W70607  21.562  12.625  13.966
99079W        W70608  12.531  10.177   5.047
99080W        W70609   3.971  34.715  11.407
99081W        W70610  22.761  24.714  13.362
99082W        W70611  25.539  38.327   1.785
99083W        W70612  28.724  20.590  12.635
99084W        W70613  23.004  44.495   0.490
99085W        W70614  35.889  24.133  14.878
99086W        W70615  22.190  27.396   0.409
99087W        W70616  12.429  36.749  12.606
99088W        W70617  27.439  32.593   1.431
99089W        W70618   0.694  31.098  10.882
99090W        W70619  43.518  28.084  13.488
99091W        W70620  41.315  40.271  11.423
99092W        W70621  22.631  11.657  12.975
99093W        W70622  30.496  12.066  13.540
99094W        W70623  29.520  23.993  14.247
99095W        W70624  18.658  35.572   4.519
99096W        W70625  19.625  43.469  13.538
99097W        W70626   3.133  32.038   0.798
99098W        W70627  19.129  35.911   3.656
99099W        W70628  19.881  43.692  14.526
99100W        W70629  32.575  36.877  11.398
99101W        W70630   5.791  22.710  14.470
99102W        W70631  13.129  28.380   1.758
99103W        W70632  25.873  42.547   4.684
99104W        W70633   0.674  10.937  11.177
99105W        W70634  37.064  10.915  11.031
99106W        W70635   8.984  20.423  12.350
99107W        W70636   4.253  29.872  12.160
99108W        W70637  34.114  28.804  13.428
99109W        W70638   0.290  27.964  10.592
99110W        W70639  22.866   6.749   3.818
99111W        W70640  18.106   2.878   4.959
99112W        W70641  35.391  18.892  12.171
99113W        W70642  34.432  29.339  12.618
99114W        W70643  23.764  27.778  12.285
99115W        W70644  15.897   8.090  11.079
99116W        W70645  20.292  38.546  14.398
99117W        W70646  31.236  31.423  10.504
99118W        W70647  41.265  38.541   1.539
99119W        W70648   2.821  26.633   1.211
99120W        W70649  21.993  34.783  11.100
99121W        W70650  43.771  29.167   1.815
99122W        W70651  22.505  19.871  14.470
99123W        W70652  16.362  33.353  11.471
99124W        W70653  17.838  19.613   3.221
99125W        W70654  20.662  15.695   3.639
99126W        W70655  15.656  43.406  14.951
99127W        W70656   6.742  42.337  11.474
99128W        W70657  31.156  29.897   0.274
99129W        W70658  37.517  37.907   4.667
99130W        W70659  25.694  40.050  14.440
99131W        W70660  13.462  23.909  10.322
99132W        W70661  24.942  38.868  12.844
99133W        W70662   4.909  29.486  12.374
99134W        W70663   3.235  12.531  11.519
99135W        W70664  11.863  29.555   3.653
99136W        W70665  44.540  29.844  14.787
99137W        W70666  14.867   9.878   0.768
99138W        W70667  13.754  28.549  13.058
99139W        W70668   2.887   7.770  12.540
99140W        W70669   6.914  12.500   0.482
99141W        W70670  43.863   7.898   2.484
99142W        W70671  16.014  25.518   2.284
99143W        W70672  38.862  38.537   4.992
99144W        W70673  23.487  30.514   3.037
99145W        W70674  21.621   1.353   1.626
99146W        W70675  12.335  41.357   1.933
99147W        W70676   7.010   5.382   4.107
99148W        W70677  13.316  14.336   5.044
99149W        W70678   0.309  21.464   0.977
99150W        W70679  36.432  36.620   0.480
99151W        W70680  24.879  26.426  13.887
99152W        W70681  25.922  39.523   3.248
99153W        W70682   3.190  13.037  11.309
99154W        W70683  36.404  24.214   4.682
99155W        W70684  14.882  15.127   1.866
99156W        W70685  24.428  22.995  11.903
99157W        W70686  12.391  24.066   3.172
99158W        W70687  28.015   6.820  13.436
99159W        W70688   8.792  38.883   2.285
99160W        W70689   1.870  33.341   1.344
99161W        W70690  35.953   1.420  13.483
99162W        W70691   6.714   6.863   0.487
99163W        W70692  35.637  11.420   1.472
99164W        W70693  32.184   7.249  10.335
99165W        W70694  29.501  10.893   3.199
99166W        W70695  38.952  23.998  12.126
99167W        W70696  20.684   3.854  13.567
99168W        W70697  41.520  29.412   3.229
99169W        W70698   2.980  39.258  10.637
99170W        W70699  16.650   6.184  13.791
99171W        W70700   4.920  23.333  11.907
99172W        W70701   2.399  15.315   1.427
99173W        W70702  20.833   0.839  14.960
99174W        W70703  31.091   2.710  14.815
99175W        W70704  16.770  43.447   3.899
99176W        W70705  42.016   3.773  11.379
99177W        W70706  25.626  37.146  12.086
99178W        W70707  36.821  37.561  10.851
99179W        W70708  11.750  36.366   4.644
99180W        W70709   1.675  33.043  13.078
99181W        W70710  23.076  33.951   2.862
99182W        W70711  13.726  35.314   0.508
99183W        W70712  20.141   3.589  12.315
99184W        W70713  31.175   6.696  14.441
99185W        W70714  42.797   4.279  12.126
99186W        W70715  17.008  33.004   4.876
99187W        W70716  14.604   8.036  12.494
99188W        W70717  22.015  31.396  13.938
99189W        W70718  22.354   9.528   3.208
99190W        W70719  36.597  43.794  13.422
99191W        W70720  17.477  15.805  11.533
99192W        W70721  29.089  21.720  13.898
99193W        W70722  37.485  13.462   4.645
99194W        W70723  41.996   0.413   3.384
99195W        W70724  26.023  18.833  11.008
99196W        W70725  28.200  43.739   2.666
99197W        W70726  37.575   5.806  14.872
99198W        W70727   5.324  10.654  10.671
99199W        W70728  36.104  13.114  12.274
99200W        W70729  37.957   4.392  14.953
99201W        W70730  38.910  29.611  12.597
99202W        W70731  42.041  25.948   1.742
99203W        W70732  19.623  13.115   0.923
99204W        W70733  24.212  40.646   3.315
99205W        W70734  12.356  23.600   1.454
99206W        W70735  36.041  40.071  14.004
99207W        W70736   2.900  28.021  14.913
99208W        W70737  13.851   8.296  13.382
99209W        W70738  38.972   1.841   3.146
99210W        W70739   6.828   0.811  13.745
99211W        W70740  16.476   5.460  13.307
99212W        W70741  10.316   6.311   1.765
99213W        W70742   2.484  38.401  10.250
99214W        W70743  18.232  10.358   1.532
99215W        W70744   8.519  26.531   1.391
99216W        W70745  21.964  38.060  14.503
99217W        W70746   7.733  34.331  10.358
99218W        W70747  13.532   0.701   0.379
99219W        W70748  30.245  26.583  10.646
99220W        W70749   4.293  23.778  14.349
99221W        W70750  31.930   2.885  12.125
99222W        W70751   0.834   5.162  10.700
99223W        W70752  11.586  21.729   4.348
99224W        W70753  11.582   3.438  13.671
99225W        W70754   2.897   2.354  11.424
99226W        W70755  34.916  37.895  13.597
99227W        W70756   4.384  33.852   2.083
99228W        W70757   0.391   7.110   3.119
99229W        W70758  23.843  38.174   0.690
99230W        W70759  36.385   2.603   3.708
99231W        W70760  15.840  29.657  12.497
99232W        W70761  35.301  12.324   0.303
99233W        W70762  43.040  32.569   2.904
99234W        W70763  10.914   6.180   0.999
99235W        W70764   4.392  33.988  11.483
99236W        W70765  14.908  20.576   3.972
99237W        W70766  38.089  17.622   0.680
99238W        W70767  41.859  27.230  11.670
99239W        W70768  35.873  40.201   1.933
99240W        W70769  37.469  21.081   1.855
99241W        W70770  38.748  10.810   1.955
99242W        W70771  29.817  14.044  13.108
99243W        W70772  15.020  44.271   4.939
99244W        W70773  14.638  42.327   1.333
99245W        W70774  34.751  15.954   1.800
99246W        W70775  21.944  17.058  14.815
99247W        W70776  10.255   4.268   1.292
99248W        W70777  15.399  11.406   3.236
99249W        W70778  12.318  40.974   3.079
99250W        W70779  42.906  38.553   1.964
99251W        W70780  11.165  24.065   1.389
99252W        W70781  30.086  12.369   2.846
99253W        W70782  30.129  16.022  13.527
99254W        W70783   4.392  13.650   2.792
99255W        W70784  37.544  11.481   5.054
99256W        W70785  38.530  42.916  10.791
99257W        W70786  32.765  25.373  11.552
99258W        W70787  35.368  36.620   4.193
99259W        W70788   6.854  27.618  12.925
99260W        W70789  22.064  29.656  14.751
99261W        W70790  19.291  27.846  12.456
99262W        W70791   9.430  15.292   0.433
99263W        W70792  21.951   0.284   2.461
99264W        W70793  29.232  10.667  12.462
99265W        W70794  33.980  30.540   5.081
99266W        W70795  11.371  40.606  11.534
99267W        W70796  22.068   2.480   0.199
99268W        W70797  23.797  24.665  10.429
99269W        W70798  35.567   3.190  10.678
99270W        W70799  25.871  13.060   2.350
99271W        W70800  20.514   3.885   1.191
99272W        W70801  10.402  19.643   4.675
99273W        W70802  27.948   2.482   2.962
99274W        W70803  11.921  11.607  12.097
99275W        W70804  15.867  40.997  13.901
99276W        W70805  12.748   6.453   4.265
99277W        W70806  11.406  35.477   2.263
99278W        W70807   7.067  30.400  14.891
99279W        W70808  16.939  34.684  11.928
99280W        W70809  27.539  20.175   4.885
99281W        W70810  10.649  35.692   1.868
99282W        W70811   2.705  13.438  13.392
99283W        W70812   7.210   1.296   3.677
99284W        W70813  27.180  43.462  13.796
99285W        W70814  20.782  35.072   1.761
99286W        W70815  20.251  12.391   0.007
99287W        W70816  15.224  10.140   2.550
99288W        W70817  23.856  38.895   4.972
99289W        W70818   8.576   2.164  11.230
99290W        W70819   0.640  10.362   3.956
99291W        W70820  28.051  31.514  10.739
99292W        W70821   0.927  18.227   9.745
99293W        W70822   6.754  16.733   0.486
99294W        W70823  17.307  25.730  13.478
99295W        W70824  12.827  10.007   4.584
99296W        W70825  14.234  15.819   4.666
99297W        W70826   2.911  31.018   3.202
99298W        W70827  22.668  29.085   3.261
99299W        W70828  22.073   4.927   3.085
99300W        W70829  31.518  26.085  10.984
99301W        W70830  17.370  19.600   4.031
99302W        W70831  28.531  32.787   1.562
99303W        W70832  40.276  40.096  13.864
99304W        W70833  18.985  38.391  14.857
99305W        W70834  13.224  10.127   1.308
99306W        W70835  23.043   7.415   4.832
99307W        W70836  21.489  10.931  14.837
99308W        W70837  23.645  22.288   4.901
99309W        W70838  20.198  21.556  12.355
99310W        W70839  19.723  10.781  13.930
99311W        W70840  36.361  43.224   3.622
99312W        W70841  10.689  29.036  13.129
99313W        W70842  15.072   8.698   4.200
99314W        W70843  15.563   2.182   3.749
99315W        W70844  21.063  27.585   1.129
99316W        W70845  31.764  40.088  12.570
99317W        W70846  19.353  38.277  12.648
99318W        W70847  12.112  27.325  13.439
99319W        W70848  38.785  22.313   4.054
99320W        W70849   4.856  32.077   2.350
99321W        W70850  30.675  39.133   0.703
99322W        W70851  23.975   4.189  12.885
99323W        W70852  11.576  39.924   4.792
99324W        W70853  32.581   7.893   1.181
99325W        W70854  43.450  44.781  10.718
99326W        W70855   8.434  32.069  11.674
99327W        W70856  25.122   4.891   4.493
99328W        W70857  34.840  30.024   2.133
99329W        W70858  42.364   3.781  13.655
99330W        W70859  34.077   7.643  11.881
99331W        W70860  14.902  21.767   2.276
99332W        W70861  11.794  36.866   3.805
99333W        W70862  27.109  27.590  14.031
99334W        W70863   0.759  19.015   1.877
99335W        W70864   8.339   7.156  11.301
99336W        W70865  19.016  26.049   4.870
99337W        W70866  14.155  36.553  11.545
99338W        W70867   3.606  20.953  12.448
99339W        W70868  14.127  29.950  12.853
99340W        W70869  44.528   3.492   4.777
99341W        W70870  41.994  24.167   0.363
99342W        W70871  21.124   7.860   4.648
99343W        W70872  40.834  36.398   1.851
99344W        W70873  11.081  16.191   2.495
99345W        W70874  44.385  12.335  12.055
99346W        W70875  32.080   5.926  12.372
99347W        W70876  20.927   3.018  12.045
99348W        W70877  23.089  26.559   1.840
99349W        W70878  15.200  21.978  12.036
99350W        W70879  19.749  10.239  13.426
99351W        W70880  12.886   5.648   1.465
99352W        W70881  10.139  21.316  10.851
99353W        W70882  33.505  18.057  12.133
99354W        W70883   5.733  29.276   2.575
99355W        W70884  35.067  44.083  12.938
99356W        W70885  29.575  27.438   4.554
99357W        W70886  33.081  34.581   3.373
99358W        W70887  27.099  16.352   2.463
99359W        W70888  33.915  25.989  10.659
99360W        W70889  30.082  24.487  11.557
99361W        W70890   0.683  34.838   0.337
99362W        W70891   2.856  11.106  12.052
99363W        W70892  12.349  40.424  13.016
99364W        W70893  36.983  29.072   1.514
99365W        W70894   9.688   2.855  11.552
99366W        W70895  30.174   2.360   3.122
99367W        W70896   8.391   7.903   2.325
99368W        W70897  43.504  31.315   2.347
99369W        W70898  11.390   4.217   3.683
99370W        W70899   9.071  33.521   2.290
99371W        W70900  36.516  19.666  13.543
99372W        W70901  28.496  11.772   4.514
99373W        W70902  20.740  39.830  14.382
99374W        W70903  19.802  27.171   3.299
99375W        W70904  13.378  39.867   1.814
99376W        W70905  15.050  17.888   0.261
99377W        W70906  14.760  17.063   3.205
99378W        W70907  28.363  35.129   1.196
99379W        W70908  28.774  35.916   3.080
99380W        W70909  17.790   8.410   4.521
99381W        W70910  21.017   6.057  14.981
99382W        W70911  39.191   0.263  11.231
99383W        W70912  11.837   7.553   2.199
99384W        W70913   6.232   9.876   1.168
99385W        W70914  24.166   4.994   2.714
99386W        W70915  28.917  17.287   3.559
99387W        W70916  37.388  13.252  13.049
99388W        W70917  10.873  18.209   4.917
99389W        W70918  26.939  21.754   2.779
99390W        W70919   6.380  35.132   1.288
99391W        W70920  13.182   5.248   1.253
99392W        W70921  10.860   1.202  12.077
99393W        W70922  40.471  22.634  13.398
99394W        W70923  36.360  17.308  13.692
99395W        W70924  40.771  40.983  14.517
99396W        W70925  21.358   1.652  14.515
99397W        W70926  38.556   6.332  13.518
99398W        W70927  39.006  27.761  10.727
99399W        W70928  26.950  38.095   2.441
99400W        W70929  15.866  39.454  14.812
99401W        W70930  18.366   7.167   2.872
99402W        W70931  29.015  43.713   3.761
99403W        W70932  17.782  44.463  11.585
99404W        W70933  36.931   3.268  10.748
99405W        W70934  15.721  15.064   2.073
99406W        W70935  11.753  38.278  11.424
99407W        W70936   5.890  43.204  10.710
99408W        W70937  36.186  36.911   0.043
99409W        W70938  38.327  11.012   4.828
99410W        W70939  21.231  10.769  13.549
99411W        W70940  15.256  21.780   0.438
99412W        W70941   1.286  10.091  11.499
99413W        W70942   8.099   9.383  11.087
99414W        W70943  11.751  32.557   4.621
99415W        W70944  44.430   7.033   1.721
99416W        W70945   1.440   8.327   1.854
99417W        W70946  39.807  36.981  12.447
99418W        W70947  20.618  42.348  13.929
99419W        W70948   6.202   1.199  14.327
99420W        W70949  42.062  18.817  14.258
99421W        W70950   4.326  27.431  12.336
99422W        W70951  31.498  32.505   3.639
99423W        W70952   1.373  11.044   4.243
99424W        W70953  32.583  37.323  12.029
99425W        W70954  10.681  25.173   2.212
99426W        W70955   3.344  28.276  13.254
99427W        W70956   1.260  25.721   0.124
99428W        W70957   4.323  35.150  12.825
99429W        W70958  39.074  26.943   4.721
99430W        W70959  15.679   4.517   4.558
99431W        W70960   1.808  25.915   3.649
99432W        W70961  34.941  32.124  14.446
99433W        W70962  19.507  18.827   2.472
99434W        W70963  31.906  19.691  13.833
99435W        W70964  34.864  24.614  12.316
99436W        W70965   8.856  13.676   2.150
99437W        W70966  31.028  17.068  10.319
99438W        W70967  24.607   7.679  11.668
99439W        W70968  13.278  18.669   3.129
99440W        W70969  40.295  26.140  14.511
99441W        W70970  36.634  31.053   0.476
99442W        W70971  12.167  17.524   1.718
99443W        W70972  10.005  20.133   3.568
99444W        W70973  21.868  26.362   1.188
99445W        W70974  41.294   8.741   3.773
99446W        W70975   9.686  35.008   2.791
99447W        W70976  27.557   7.196  14.362
99448W        W70977  11.407  37.016   4.096
99449W        W70978   2.304  36.181  11.983
99450W        W70979  36.976  33.525   4.641
99451W        W70980   7.913   6.799  11.984
99452W        W70981  39.869  17.526  10.495
99453W        W70982  28.705  43.550   2.221
99454W        W70983  29.865  28.895  11.994
99455W        W70984  34.880  30.669  10.715
99456W        W70985  13.244  43.206  14.777
99457W        W70986  13.921  29.495  13.447
99458W        W70987  42.937  14.891   1.236
99459W        W70988  34.378  26.168   4.698
99460W        W70989  12.827  25.732  14.944
99461W        W70990  39.213  19.989   2.232
99462W        W70991  33.602  38.098  13.025
99463W        W70992   2.024  36.818   0.204
99464W        W70993   8.010   3.812   1.852
99465W        W70994  12.651  32.209   4.684
99466W        W70995   0.898  35.832   2.846
99467W        W70996  23.167  18.261  14.874
99468W        W70997  34.694  22.021  11.502
99469W        W70998  40.080  16.143  13.458
99470W        W70999  37.905  43.520   2.240
99471W        W71000   0.906  17.140  11.175
99472W        W71001  44.373   7.752  12.985
99473W        W71002   4.421   1.240   0.990
99474W        W71003  32.965   0.487  12.866
99475W        W71004  24.217   4.698   3.627
99476W        W71005  34.071  41.652   4.017
99477W        W71006  18.329  43.596  13.891
99478W        W71007   7.286  19.707  14.718
99479W        W71008  26.090  44.803  11.200
99480W        W71009  28.933   2.164  11.940
99481W        W71010  16.341  20.713   4.019
99482W        W71011  41.325   3.468   2.927
99483W        W71012   2.701  11.851   0.345
99484W        W71013  14.258  34.161  13.604
99485W        W71014  26.801  21.880   4.536
99486W        W71015  20.663  31.986  11.754
99487W        W71016  19.082   7.105  12.018
99488W        W71017  41.004  36.567   3.133
99489W        W71018  12.659   1.064   3.209
99490W        W71019  22.582  23.346  12.344
99491W        W71020  28.499   6.464   0.617
99492W        W71021  31.429   1.870  13.933
99493W        W71022  17.226   1.731   0.032
99494W        W71023  32.018  36.152  14.454
99495W        W71024  15.633  42.822   4.404
99496W        W71025  31.131  10.303   2.722
99497W        W71026  15.639  34.503   2.249
99498W        W71027  27.757  37.711   1.792
99499W        W71028  28.402  30.364   2.743
99500W        W71029   3.218  36.861  13.858
99501W        W71030  21.346  25.857   1.352
99502W        W71031  10.862  22.898   4.418
99503W        W71032  11.720  15.552  14.864
99504W        W71033  12.702   7.509  10.424
99505W        W71034   4.365  17.568  12.075
99506W        W71035   1.712  23.477  13.702
99507W        W71036  13.532  15.255   4.139
99508W        W71037  16.737  29.081  13.313
99509W        W71038   0.689  25.232  11.947
99510W        W71039  11.927   9.625   2.324
99511W        W71040  23.478  24.720   0.552
99512W        W71041  13.741  37.348  12.689
99513W        W71042   1.481  43.794   0.334
99514W        W71043   9.206  28.069   1.383
99515W        W71044  27.126  27.479  14.550
99516W        W71045  35.857  39.737  11.182
99517W        W71046  33.451  41.841   0.020
99518W        W71047  26.097   8.627   3.648
99519W        W71048   7.310  11.241  13.570
99520W        W71049  26.998  32.797   3.454
99521W        W71050  12.891  17.323   1.240
99522W        W71051  30.641  21.868  14.088
99523W        W71052  30.188  18.095  11.356
99524W        W71053  27.919  20.584  14.823
99525W        W71054  33.451  15.757  14.750
99526W        W71055   6.346   5.161  11.520
99527W        W71056  16.144  28.851   4.820
99528W        W71057  35.576  15.801   4.557
99529W        W71058  34.358  39.859   4.608
99530W        W71059   1.899  43.676  12.533
99531W        W71060  19.885  35.827  11.594
99532W        W71061  11.216  33.042  12.589
99533W        W71062  21.792  36.946   0.916
99534W        W71063   2.872  14.238   0.725
99535W        W71064  18.742  23.073  13.428
99536W        W71065   1.642  11.286   1.609
99537W        W71066  13.294  20.206   0.403
99538W        W71067  42.468  29.577   2.144
99539W        W71068  33.107  29.958  12.038
99540W        W71069  34.807  22.217   0.775
99541W        W71070  41.319  26.720   2.918
99542W        W71071   6.094   1.755   5.043
99543W        W71072  10.609  42.360   4.135
99544W        W71073  12.700  10.758  12.519
99545W        W71074  40.661   7.906  14.295
99546W        W71075   3.717  26.182  14.338
99547W        W71076  19.323  34.506  11.292
99548W        W71077  31.958  40.444   3.300
99549W        W71078   9.147  11.068  12.952
99550W        W71079  28.075   7.685   0.044
99551W        W71080  24.503  24.504   3.470
99552W        W71081  36.380  39.007   1.331
99553W        W71082  27.883  30.217  12.058
99554W        W71083  27.740  29.485   4.477
99555W        W71084  33.357  10.283  11.603
99556W        W71085  43.031  10.389  12.079
99557W        W71086   2.936  17.938   3.987
99558W        W71087  19.965  15.107  13.638
99559W        W71088  16.085  36.368  14.497
99560W        W71089  30.567   8.076   2.293
99561W        W71090  27.618  14.686   2.956
99562W        W71091  31.052   3.872  14.439
99563W        W71092  30.927  16.737  10.721
99564W        W71093  44.517  13.330   3.092
99565W        W71094  33.075  37.936  12.090
99566W        W71095  27.438  35.337   3.291
99567W        W71096  11.312  18.646  12.028
99568W        W71097  15.216   1.329   0.692
99569W        W71098  16.121  38.276   1.684
99570W        W71099   4.891  26.167   2.387
99571W        W71100  14.688   3.368  12.453
99572W        W71101  13.693  18.516   3.357
99573W        W71102  17.355  41.522   0.755
99574W        W71103   6.907   6.395   1.322
99575W        W71104  13.407   2.407  12.932
99576W        W71105  13.861  38.545  11.935
99577W        W71106  27.009   5.644  13.344
99578W        W71107  12.321  13.095  14.065
99579W        W71108  37.524   4.194   1.219
99580W        W71109  21.643  20.939   0.404
99581W        W71110   6.616  22.632  10.606
99582W        W71111   0.574  29.536  11.062
99583W        W71112  44.710  17.820   4.362
99584W        W71113  21.143  31.404  11.141
99585W        W71114  42.251  35.929   3.109
99586W        W71115  29.878   5.342  12.928
99587W        W71116  25.098   6.950  12.087
99588W        W71117   5.167  44.763  11.905
99589W        W71118   9.325  44.197   0.291
99590W        W71119  18.787   5.797  14.783
99591W        W71120  12.103  36.964   0.166
99592W        W71121  24.204  44.856  14.902
99593W        W71122  30.328  28.045  13.771
99594W        W71123  21.745   7.371  12.186
99595W        W71124  39.597  39.632  12.481
99596W        W71125  41.093  17.442   2.140
99597W        W71126   0.668  28.280   1.219
99598W        W71127  40.803  11.375  11.207
99599W        W71128  40.552   8.974  11.095
99600W        W71129  35.438  10.811   2.570
99601W        W71130  15.951  13.075  10.190
99602W        W71131  15.198  23.928   1.829
99603W        W71132   0.989   0.482  14.414
99604W        W71133  42.072  21.340   3.225
99605W        W71134   0.775   7.161  14.151
99606W        W71135  40.455  28.347   4.609
99607W        W71136  15.192  13.626   4.608
99608W        W71137  30.231  27.521  12.099
99609W        W71138  27.283  29.078  11.090
99610W        W71139  31.991  18.534   1.413
99611W        W71140   5.287   4.718   0.864
99612W        W71141   5.459  29.694  11.155
99613W        W71142  11.417  38.765   1.645
99614W        W71143  22.267  15.255  12.028
99615W        W71144   8.607  31.432   2.775
99616W        W71145  15.567   0.074  13.790
99617W        W71146  16.078  25.753  12.939
99618W        W71147   3.089  24.768   1.855
99619W        W71148   4.681  40.966  11.133
99620W        W71149  43.875   9.263   0.360
99621W        W71150  18.199  42.359  10.658
99622W        W71151  20.230  25.270  12.003
99623W        W71152  25.408  10.890   1.844
99624W        W71153   3.752   8.355  10.896
99625W        W71154   1.946   4.727  13.387
99626W        W71155  25.719  20.270   4.500
99627W        W71156  22.141  26.820  13.176
99628W        W71157  35.871  17.395  14.226
99629W        W71158  21.096  24.192  12.048
99630W        W71159   2.860  40.477  12.720
99631W        W71160   4.455  37.396  14.949
99632W        W71161  22.685  37.777   4.266
99633W        W71162  15.241  33.878   2.149
99634W        W71163  27.499  27.219  13.240
99635W        W71164  35.264  35.880  12.273
99636W        W71165  34.899  12.414  11.611
99637W        W71166  34.254  22.681  11.046
99638W        W71167  11.908  38.434  10.948
99639W        W71168  17.742  34.719   2.918
99640W        W71169  12.458  37.351   3.319
99641W        W71170   0.665  27.580   9.878
99642W        W71171  21.490  41.742  12.578
99643W        W71172  25.044   7.192   3.905
99644W        W71173  31.723   0.829   1.670
99645W        W71174  23.215   6.147   3.033
99646W        W71175  27.110  22.454  13.902
99647W        W71176   7.225  43.743   3.472
99648W        W71177  16.798  22.244  10.791
99649W        W71178  31.562  44.873   3.601
99650W        W71179  19.469  23.959   3.635
99651W        W71180  15.852  18.654   4.074
99652W        W71181  27.539  36.825   3.171
99653W        W71182  44.075  14.687   0.286
99654W        W71183   0.778  41.721  13.892
99655W        W71184   0.108  43.937  12.259
99656W        W71185  10.619  44.027  10.242
99657W        W71186   1.765  28.532  12.001
99658W        W71187  17.634   3.771   0.759
99659W        W71188   5.723   7.878   2.739
99660W        W71189  11.318   1.693   2.209
99661W        W71190  22.602  37.304  13.575
99662W        W71191   0.966  26.144  11.610
99663W        W71192   7.269  22.923   0.226
99664W        W71193  28.963  23.981   2.822
99665W        W71194  22.036   6.725  12.565
99666W        W71195  13.206  37.824  14.515
99667W        W71196  20.509  29.914   0.438
99668W        W71197  43.404  29.553   4.102
99669W        W71198   7.890  23.202  10.181
99670W        W71199   0.856   6.889  14.734
99671W        W71200  21.766   1.815   1.815
99672W        W71201  33.666  43.872   0.894
99673W        W71202  44.765  28.189  10.978
99674W        W71203  15.064  37.453  11.043
99675W        W71204   4.326  24.304  14.455
99676W        W71205  19.491   6.897   1.405
99677W        W71206   5.849  42.483  11.375
99678W        W71207  27.723   5.842  12.757
99679W        W71208  20.148   5.597  11.634
99680W        W71209  39.040   5.804   1.320
99681W        W71210  33.981  38.040   1.776
99682W        W71211  12.909  33.100   1.215
99683W        W71212  14.290  19.216  11.531
99684W        W71213  16.611  16.656   0.296
99685W        W71214  32.393  27.476   3.186
99686W        W71215  23.293  34.013   2.381
99687W        W71216  27.184  35.480  10.361
99688W        W71217  11.666  37.835   0.486
99689W        W71218   4.718  23.042   1.914
99690W        W71219  32.452  30.507  14.369
99691W        W71220  24.624  40.996  14.278
99692W        W71221   8.109  24.105   0.409
99693W        W71222  31.359  15.483  12.486
99694W        W71223   0.554  40.345  13.295
99695W        W71224  19.149  32.529   4.475
99696W        W71225   4.379  34.586   2.876
99697W        W71226  20.104   6.312   3.136
99698W        W71227  13.321  44.483  10.556
99699W        W71228   7.892  35.100   2.337
99700W        W71229  19.162  11.739   3.574
99701W        W71230  34.062  32.996   4.564
99702W        W71231   5.857  12.607  14.168
99703W        W71232  28.947  32.012   3.510
99704W        W71233  23.601  30.124   4.201
99705W        W71234  30.476   1.479   1.959
99706W        W71235   6.248  42.621   3.283
99707W        W71236  12.289  30.430   3.269
99708W        W71237  12.408  44.685   0.003
99709W        W71238  41.536  25.022  13.063
99710W        W71239  39.645  43.549  13.622
99711W        W71240  29.480  12.911  12.131
99712W        W71241   7.558  18.097   3.139
99713W        W71242  11.116  34.540   2.427
99714W        W71243  23.554  26.722  13.926
99715W        W71244  40.441  30.167   1.422
99716W        W71245   4.344  28.747  13.568
99717W        W71246   4.888  36.151  10.685
99718W        W71247  43.525   5.900  14.363
99719W        W71248  17.827  31.654   3.294
99720W        W71249  39.498  39.568  13.407
99721W        W71250  18.797  28.906   4.513
99722W        W71251  31.034  44.042  13.262
99723W        W71252  12.346  40.874  10.555
99724W        W71253   5.673  33.606   1.676
99725W        W71254  38.463  29.175  14.059
99726W        W71255  11.419  19.409  13.970
99727W        W71256  11.596  41.553   1.738
99728W        W71257  23.282  13.575  14.806
99729W        W71258   0.949  26.612  13.847
99730W        W71259   1.024  29.284   1.361
99731W        W71260  19.900   4.335   3.171
99732W        W71261  15.610  33.910   2.840
99733W        W71262   1.983  37.969   1.149
99734W        W71263  39.568  25.565   3.535
99735W        W71264   7.810  29.922  11.981
99736W        W71265   8.820  14.640  14.855
99737W        W71266  14.546   6.455  13.520
99738W        W71267  20.563  11.328   4.438
99739W        W71268  39.077  26.460  10.228
99740W        W71269  36.363   0.764   2.715
99741W        W71270  43.098  42.293  12.448
99742W        W71271  31.782  15.851  10.240
99743W        W71272  22.981  18.539   3.587
99744W        W71273  35.342  33.960   3.369
99745W        W71274  35.332  11.043  14.393
99746W        W71275  32.720  11.661   0.472
99747W        W71276  40.968  20.253  13.016
99748W        W71277  13.150   2.538  12.324
99749W        W71278  13.894  18.236  12.146
99750W        W71279  14.029  19.293  11.969
99751W        W71280  36.320  23.131   3.197
99752W        W71281   5.484  34.918   0.431
99753W        W71282  43.820  30.031  14.234
99754W        W71283  18.105  15.469  10.891
99755W        W71284  10.366   6.564   1.268
99756W        W71285  42.355  38.043  12.975
99757W        W71286   3.201  12.269  13.896
99758W        W71287  20.028   7.466   0.428
99759W        W71288  27.012   9.866   2.281
99760W        W71289  11.433  14.675  13.680
99761W        W71290  32.821  36.903  13.832
99762W        W71291  12.108  30.143   3.660
99763W        W71292  21.228  15.725   1.284
99764W        W71293   4.929  36.962   2.194
99765W        W71294  39.802  18.672   0.202
99766W        W71295   4.990  41.579  12.899
99767W        W71296  20.807  22.260  14.494
99768W        W71297  31.153  16.980  12.782
99769W        W71298  43.494  27.023   3.698
99770W        W71299  28.300   5.653   0.867
99771W        W71300  30.641   1.730   0.980
99772W        W71301   6.046  42.969   2.982
99773W        W71302  19.048  13.928   4.705
99774W        W71303  10.733  32.864   4.845
99775W        W71304  17.526  11.707  10.732
99776W        W71305  43.013  17.090   4.799
99777W        W71306  25.264  35.203  13.058
99778W        W71307  21.655   2.635  14.480
99779W        W71308   2.803  25.104  11.305
99780W        W71309  25.113  28.678   4.534
99781W        W71310  28.220  19.329   4.795
99782W        W71311  35.991  14.702  13.340
99783W        W71312  24.548  38.841  12.521
99784W        W71313  41.843  18.335   2.151
99785W        W71314   8.276   9.789   2.189
99786W        W71315   0.019   6.126   4.247
99787W        W71316  33.125  24.996   1.794
99788W        W71317  23.235  19.308   2.335
99789W        W71318  23.585  16.396   1.152
99790W        W71319  10.514  27.020  14.660
99791W        W71320  24.320  15.724  11.631
99792W        W71321  44.167  19.174  12.014
99793W        W71322  27.214  38.539   2.662
99794W        W71323   0.238  28.571  14.091
99795W        W71324   9.148  41.254  11.321
99796W        W71325  38.357  24.419  14.162
99797W        W71326  18.104  33.309  10.767
99798W        W71327  13.188   7.156  13.957
99799W        W71328  18.161  22.476  13.035
99800W        W71329  34.606  16.635   2.681
99801W        W71330  13.952  16.580  11.521
99802W        W71331  40.023   5.779   1.125
99803W        W71332  38.342  20.231   1.957
99804W        W71333  33.608  30.112  13.330
99805W        W71334  44.355  44.367  13.024
99806W        W71335  33.856  11.286  10.771
99807W        W71336  34.856   7.911  12.098
99808W        W71337  26.488  36.036   1.733
99809W        W71338  44.690  28.586   2.812
99810W        W71339  21.903  23.285   2.140
99811W        W71340   2.609  15.065  11.393
99812W        W71341  33.651  44.495  11.496
99813W        W71342  12.233   9.236   1.203
99814W        W71343  34.594  11.901  12.456
99815W        W71344   5.710  37.130   0.456
99816W        W71345  15.887  39.174  11.670
99817W        W71346  29.492  41.187   2.795
99818W        W71347  36.100  20.154   1.259
99819W        W71348  25.905  33.189   0.238
99820W        W71349  26.486  42.952  13.965
99821W        W71350  43.054  29.863  14.735
99822W        W71351   2.722  29.577   1.419
99823W        W71352  32.067  35.068  11.994
99824W        W71353  15.759   2.660  14.096
99825W        W71354  29.610  28.018   0.276
99826W        W71355  14.644   5.917  10.560
99827W        W71356   0.259  30.943   1.003
99828W        W71357  40.773  22.955  13.082
99829W        W71358  39.057  13.657   4.584
99830W        W71359  38.652  13.153  11.245
99831W        W71360  40.346  11.609  12.902
99832W        W71361   4.049  21.529  13.738
99833W        W71362  36.568  29.362   4.022
99834W        W71363  31.885   6.888  11.614
99835W        W71364  19.356  20.444  11.873
99836W        W71365  29.440  23.404   0.899
99837W        W71366  17.189   9.156   4.151
99838W        W71367  44.158  27.309   4.136
99839W        W71368  22.641  41.670  13.404
99840W        W71369  24.027  30.707  10.990
99841W        W71370   3.272  40.826   4.579
99842W        W71371  18.601  31.478   4.993
99843W        W71372   7.482  23.457  12.905
99844W        W71373   9.820  31.755   0.282
99845W        W71374  25.242  40.911  11.005
99846W        W71375  24.489  29.097  10.930
99847W        W71376   7.873   6.399  10.237
99848W        W71377   1.025  40.223  11.136
99849W        W71378  43.904  27.259   1.817
99850W        W71379   6.158   7.692   2.935
99851W        W71380   3.163   1.936  12.994
99852W        W71381   6.645  41.497  11.715
99853W        W71382  34.072  22.774  11.566
99854W        W71383   2.409   2.756   2.239
99855W        W71384   7.124  42.887   3.749
99856W        W71385  40.927  38.817   1.831
99857W        W71386   7.654  25.417  12.981
99858W        W71387  26.705  35.001   4.297
99859W        W71388   2.284   5.654   1.888
99860W        W71389  29.382  34.334   1.868
99861W        W71390  10.380  16.792  11.342
99862W        W71391  36.934   3.002  12.788
99863W        W71392  38.172  38.065  13.046
99864W        W71393   3.483  29.190  11.216
99865W        W71394   7.362  34.430  14.273
99866W        W71395  19.764  42.787   0.298
99867W        W71396   2.148  32.293  10.361
99868W        W71397  16.642   0.873  11.274
99869W        W71398  34.600   8.243   1.638
99870W        W71399  29.545  44.990   3.425
99871W        W71400  29.372  18.138   0.288
99872W        W71401  14.372  29.127  12.085
99873W        W71402  35.870  19.615  10.666
99874W        W71403   3.555   5.672   2.188
99875W        W71404  16.039  11.764   5.412
99876W        W71405  27.112  14.724   4.287
99877W        W71406  12.634  10.915   1.179
99878W        W71407  23.210  13.148   4.337
99879W        W71408  15.679  22.738   3.083
99880W        W71409   0.455  28.645   2.230
99881W        W71410  25.741  10.897   4.420
99882W        W71411  38.750  27.173   3.665
99883W        W71412   6.462  34.630   0.533
99884W        W71413  13.140  12.484  13.886
99885W        W71414  29.007  17.549   4.865
99886W        W71415  36.014  34.843  14.324
99887W        W71416  41.972  24.705   1.237
99888W        W71417  10.736  20.023   3.206
99889W        W71418  16.125  25.370  11.982
99890W        W71419   0.317  43.207   1.825
99891W        W71420   3.657  35.489   4.155
99892W        W71421  24.464  36.573  13.545
99893W        W71422  15.107  27.438  12.260
99894W        W71423  24.188  40.860   4.593
99895W        W71424  20.797  12.307  11.543
99896W        W71425  36.937  38.555   0.757
99897W        W71426  44.302  17.370  11.103
99898W        W71427  31.527  34.486   0.889
99899W        W71428  32.412  44.793   3.267
99900W        W71429  28.613  27.561  12.444
99901W        W71430  22.234  36.081  12.474
99902W        W71431  43.253  42.431   3.225
99903W        W71432  43.972   9.379   1.891
99904W        W71433  21.530  29.458   4.255
99905W        W71434  20.512   6.921  13.330
99906W        W71435  31.541  27.196   4.592
99907W        W71436  35.329  11.115  13.009
99908W        W71437  24.643   6.925  12.357
99909W        W71438  17.512  10.447   2.132
99910W        W71439  25.155   0.034   0.882
99911W        W71440  29.615  10.283   1.242
99912W        W71441   5.352   3.139   5.012
99913W        W71442  23.044  36.411  11.140
99914W        W71443   8.828   0.523  10.659
99915W        W71444  37.620   2.932  11.050
99916W        W71445   7.260  33.877   2.198
99917W        W71446   0.368  20.951  10.676
99918W        W71447  36.652   9.099   1.767
99919W        W71448  16.624  44.918  13.497
99920W        W71449  36.390   5.970   5.073
99921W        W71450  31.591  40.498   0.436
99922W        W71451  15.950  29.243  10.755
99923W        W71452  15.544  40.274   5.058
99924W        W71453  41.330  23.214  12.033
99925W        W71454  35.447   3.223  11.676
99926W        W71455  11.075  23.140   1.357
99927W        W71456   2.133  15.798   5.263
99928W        W71457  42.565   7.889   4.614
99929W        W71458  25.358  25.309   1.479
99930W        W71459   7.923  38.552  11.642
99931W        W71460   9.787  26.969   0.898
99932W        W71461  24.451   6.446   4.448
99933W        W71462  43.750  27.670  14.509
99934W        W71463  14.877   9.144  14.954
99935W        W71464  27.922  41.692   1.174
99936W        W71465  25.677  25.018   2.397
99937W        W71466  16.330  31.086   3.736
99938W        W71467   6.376  25.503  11.554
99939W        W71468   4.497   9.376   1.354
99940W        W71469  42.671   4.451  12.987
99941W        W71470  17.630  32.159  14.174
99942W        W71471   2.702  16.827  14.296
99943W        W71472   8.395  26.433  14.561
99944W        W71473  31.447  43.379   3.777
99945W        W71474  37.268  23.253  11.139
99946W        W71475  39.280  17.061  11.688
99947W        W71476   3.830  20.707   0.844
99948W        W71477  14.121  41.991   3.069
99949W        W71478  28.153  42.839  11.978
99950W        W71479  30.043  12.393  14.733
99951W        W71480  12.880  19.033   4.868
99952W        W71481  26.416  27.537   1.770
99953W        W71482  12.216  16.888   3.688
99954W        W71483   0.435  33.422   2.557
99955W        W71484  11.179  25.069   2.953
99956W        W71485  17.120   7.759  12.959
99957W        W71486  20.485  35.244   2.241
99958W        W71487  21.448  26.600  10.444
99959W        W71488  25.628   9.850  12.350
99960W        W71489  31.632  38.438   1.441
99961W        W71490  40.746  21.084   3.635
99962W        W71491   6.595  40.258  14.861
99963W        W71492  28.240  43.578  12.531
99964W        W71493  44.714   7.842  14.816
99965W        W71494  29.444  43.892   0.914
99966W        W71495   3.226  34.402  13.697
99967W        W71496  39.479  21.766  14.839
99968W        W71497  20.491  43.715  14.453
99969W        W71498   8.303  30.974   1.053
99970W        W71499  30.289   8.859  10.701
99971W        W71500  13.680  10.115   2.690
99972W        W71501  38.946  15.926  14.812
99973W        W71502  12.395  21.919   3.166
99974W        W71503   7.419  29.936   3.178
99975W        W71504  30.569  25.570   2.061
99976W        W71505  44.302  29.329  10.722
99977W        W71506  24.036  35.153  12.089
99978W        W71507   9.853  37.473  12.087
99979W        W71508  21.155   0.267   1.832
99980W        W71509   9.023  10.236  14.159
99981W        W71510   2.532  31.388  13.498
99982W        W71511  31.434  43.797  11.712
99983W        W71512   1.032  26.009   2.424
99984W        W71513  13.230  30.774   5.181
99985W        W71514  38.649  44.684  10.306
99986W        W71515   0.799  26.177   4.151
99987W        W71516  39.469  26.743   2.307
99988W        W71517  15.306   0.504  13.552
99989W        W71518   4.173   3.855  14.892
99990W        W71519  43.277   7.168   2.225
99991W        W71520  36.067  12.113  13.567
99992W        W71521  23.576  13.124  14.853
99993W        W71522   6.466  26.507  11.540
99994W        W71523  38.411  34.951  13.250
99995W        W71524  30.573  19.775  14.755
99996W        W71525  29.932  28.030   2.844
99997W        W71526  17.015  23.729  13.751
99998W        W71527  26.555  26.949  14.372
99999W        W71528  41.545   1.280  11.162
    0W        W71529  22.611  38.535  14.056
    1W        W71530  38.420  32.178   2.642
    2W        W71531   8.023  25.082  10.359
    3W        W71532  14.200   8.308   2.416
    4W        W71533  20.118  21.261   2.771
    5W        W71534  10.405  37.933  14.970
    6W        W71535  21.761  38.740   4.771
    7W        W71536   0.971  33.580  12.377
    8W        W71537  35.072  20.103   1.235
    9W        W71538  35.573  19.969  13.484
   10W        W71539  13.380   1.863   2.306
   11W        W71540  10.706  44.012  10.761
   12W        W71541   3.850  35.739  12.772
   13W        W71542  10.420  43.563  13.973
   14W        W71543  31.045   2.222  13.889
   15W        W71544  33.652  44.393   1.130
   16W        W71545  18.576  19.545  13.403
   17W        W71546   8.772  14.913   2.865
   18W        W71547  40.595  10.841  14.920
   19W        W71548  26.630  16.788   0.431
   20W        W71549  19.216  37.917  14.860
   21W        W71550  42.620  32.888   2.708
   22W        W71551  37.658   1.671   0.236
   23W        W71552   6.700  31.827  13.530
   24W        W71553   3.084  23.214   0.433
   25W        W71554  14.845   7.769  14.003
   26W        W71555  10.659   0.435  11.697
   27W        W71556   8.172  30.490   2.838
   28W        W71557  30.369  13.602  13.608
   29W        W71558   1.054   6.209   4.403
   30W        W71559  28.670  11.657   0.172
   31W        W71560   1.260   2.207   0.719
   32W        W71561   1.256  26.986   4.185
   33W        W71562   1.911  41.317   4.187
   34W        W71563   0.280   8.959  12.041
   35W        W71564  30.389  20.558  11.299
   36W        W71565  17.703  10.654  13.319
   37W        W71566  34.239  23.103  12.853
   38W        W71567  33.653  22.240   4.684
   39W        W71568   3.660  16.619   1.838
   40W        W71569  28.193  10.548   4.449
   41W        W71570  40.881  28.952  11.521
   42W        W71571   5.527  21.170   0.472
   43W        W71572   9.580   2.009   3.143
   44W        W71573   9.711  16.747   0.060
   45W        W71574  10.769  25.711  14.019
   46W        W71575   6.991   2.994  12.129
   47W        W71576  21.408   4.270  13.007
   48W        W71577  26.262  27.093   0.540
   49W        W71578  21.347  28.131   2.959
   50W        W71579   2.338  27.167   2.262
   51W        W71580  39.003  39.392   2.836
   52W        W71581  30.941  16.775   2.883
   53W        W71582   3.899  28.784  11.632
   54W        W71583  31.977  16.746   3.135
   55W        W71584  32.027  38.751   1.323
   56W        W71585  38.428  15.276   4.430
   57W        W71586  18.565   8.682   4.728
   58W        W71587  36.009  17.084  12.440
   59W        W71588   1.217  43.290   3.266
   60W        W71589  27.900  35.037  10.967
   61W        W71590  28.183  24.781   2.222
   62W        W71591  25.774   4.636  14.522
   63W        W71592  38.923  40.102   1.669
   64W        W71593  10.186  33.068   5.083
   65W        W71594  33.423  33.965   0.265
   66W        W71595   9.395  30.053   0.815
   67W        W71596  34.897  23.753  11.496
   68W        W71597  35.542   5.569  14.269
   69W        W71598  23.838   8.643  10.787
   70W        W71599  12.246  30.734   2.785
   71W        W71600   3.868  24.577   1.796
   72W        W71601  36.452  35.596   1.960
   73W        W71602   7.417  41.902   4.469
   74W        W71603   2.823  28.238   0.365
   75W        W71604  27.177  19.991   1.182
   76W        W71605  33.683  29.793   1.696
   77W        W71606  21.098   5.599   0.970
   78W        W71607  28.712  21.290   4.151
   79W        W71608  14.770  12.447   0.864
   80W        W71609  14.126  30.996   2.375
   81W        W71610   1.032   9.696   2.214
   82W        W71611  18.886   3.976   3.344
   83W        W71612  41.008  40.122  13.370
   84W        W71613  32.265  27.077   4.131
   85W        W71614  13.454  44.348  10.046
   86W        W71615   1.704  14.615   0.830
   87W        W71616  33.949  13.027   3.337
   88W        W71617  37.455  25.572   5.217
   89W        W71618  34.664  13.734  12.937
   90W        W71619  26.937  38.853   4.148
   91W        W71620  20.000  16.879   2.056
   92W        W71621  13.933  21.224  12.489
   93W        W71622  40.452   1.541   3.346
   94W        W71623  31.558  37.288   3.606
   95W        W71624  20.282  12.687   3.110
   96W        W71625  13.779  14.987   3.237
   97W        W71626   7.858  31.261   2.825
   98W        W71627   7.377   3.726  14.977
   99W        W71628   9.766  44.859   4.115
  100W        W71629  20.845  42.950  13.513
  101W        W71630  37.557  26.319  12.565
  102W        W71631   7.313  44.316  12.510
  103W        W71632  24.055  24.865  13.933
  104W        W71633  26.429  29.074  10.619
  105W        W71634   2.358  26.885   0.974
  106W        W71635  15.583   9.021   0.419
  107W        W71636  17.324  43.826  14.909
  108W        W71637   5.303  25.031  14.035
  109W        W71638  30.580  24.088   4.478
  110W        W71639   4.374   1.784   0.998
  111W        W71640  39.290   4.986   3.654
  112W        W71641  30.440  15.773  12.546
  113W        W71642  34.088  12.380   1.015
  114W        W71643  17.945  31.450   3.751
  115W        W71644  26.226   8.853  13.971
  116W        W71645  20.200  43.299   0.823
  117W        W71646  38.078  27.880  11.995
  118W        W71647  38.532  43.267   1.664
  119W        W71648  15.044   4.855  11.483
  120W        W71649  17.391  17.752   2.402
  121W        W71650   7.406  20.408  12.326
  122W        W71651  23.473   9.427   0.865
  123W        W71652   5.541  44.365  13.015
  124W        W71653   6.173  27.178  13.971
  125W        W71654  13.591  41.253   3.491
  126W        W71655  10.910   1.018  10.503
  127W        W71656  41.747  33.621   4.851
  128W        W71657  11.299  37.609  10.760
  129W        W71658  24.696  30.956   2.121
  130W        W71659  29.446  31.917   4.935
  131W        W71660  15.498  25.453  14.332
  132W        W71661  39.397  32.628  14.430
  133W        W71662  38.510  18.047   3.601
  134W        W71663  14.190   8.868   2.762
  135W        W71664   5.733  16.252   2.655
  136W        W71665  22.484  14.622  10.938
  137W        W71666   4.484   8.254   0.985
  138W        W71667  10.641  28.600   1.265
  139W        W71668  11.072   1.938   4.148
  140W        W71669  24.210   0.063  11.515
  141W        W71670  15.697  19.529  14.341
  142W        W71671  37.061  35.383  11.479
  143W        W71672  24.826  32.662  10.802
  144W        W71673  31.562  27.423  11.027
  145W        W71674  10.655  38.321  11.554
  146W        W71675   2.772  10.367   1.740
  147W        W71676  39.656   3.454   1.154
  148W        W71677  13.108   0.008   4.203
  149W        W71678  40.960  24.309  14.576
  150W        W71679  10.170  32.521  11.676
  151W        W71680  42.374  14.323  10.761
  152W        W71681  17.343  21.688   2.289
  153W        W71682  30.031  12.705   0.492
  154W        W71683  24.242   0.308  13.913
  155W        W71684  10.205  11.297   2.332
  156W        W71685  19.129  43.267   2.600
  157W        W71686  30.875  11.280   0.184
  158W        W71687  14.148  15.377  10.181
  159W        W71688  12.264  25.093  11.532
  160W        W71689  30.655  19.061   4.521
  161W        W71690  43.673  29.187   0.881
  162W        W71691  33.459  17.002  10.117
  163W        W71692  21.464  35.867   5.101
  164W        W71693  26.903  40.029  12.066
  165W        W71694  42.354   3.488   3.311
  166W        W71695   1.339  22.099  13.294
  167W        W71696  13.558  37.056   1.964
  168W        W71697  12.774  33.031   1.715
  169W        W71698  11.186  36.637  12.051
  170W        W71699   2.078   7.113   2.885
  171W        W71700   0.758  34.224   1.659
  172W        W71701  44.510  11.052  11.409
  173W        W71702   8.415  21.288   2.566
  174W        W71703  43.833  14.024  11.937
  175W        W71704   6.974  22.528  11.873
  176W        W71705  30.954  20.084  13.981
  177W        W71706  29.761  13.845  12.357
  178W        W71707  29.604  44.986   2.391
  179W        W71708  44.599  12.094   9.963
  180W        W71709  19.537  12.096  14.511
  181W        W71710  34.079  23.162   0.496
  182W        W71711  12.378  40.013  11.676
  183W        W71712  26.994  35.866  13.150
  184W        W71713  29.441   8.711   5.064
  185W        W71714  12.725   9.374   3.710
  186W        W71715   0.075   4.440  14.520
  187W        W71716   4.192   2.774  14.829
  188W        W71717  44.939  34.587   2.630
  189W        W71718  42.503  10.361  14.767
  190W        W71719  34.922  38.531   2.835
  191W        W71720  40.343  16.765  13.551
  192W        W71721  26.234  26.739  12.573
  193W        W71722  33.793  34.673  13.802
  194W        W71723  29.214  22.971  13.458
  195W        W71724  40.801  32.063  10.724
  196W        W71725  12.323  20.396   2.997
  197W        W71726  10.460  36.423  13.834
  198W        W71727   8.854  18.934   2.147
  199W        W71728  34.481  15.629  11.974
  200W        W71729  14.318  13.847   0.008
  201W        W71730   4.117  21.122  11.468
  202W        W71731   5.294  20.136   4.676
  203W        W71732  26.047   6.182  12.654
  204W        W71733   6.280  43.535   0.802
  205W        W71734  28.585  42.364   3.020
  206W        W71735  36.940   1.162   1.434
  207W        W71736  19.502  40.503  10.320
  208W        W71737  37.932  23.539  13.833
  209W        W71738  24.098  10.383  10.718
  210W        W71739  37.347  29.503   3.384
  211W        W71740   2.543   1.584  13.428
  212W        W71741  22.688  14.536   4.122
  213W        W71742   8.623  20.723  12.097
  214W        W71743   0.703  29.032  11.079
  215W        W71744  44.900  34.098   2.818
  216W        W71745  40.510  30.339   0.762
  217W        W71746  18.530  35.755   1.935
  218W        W71747  11.237  37.459  14.361
  219W        W71748  39.032   9.695   1.648
  220W        W71749  11.175  28.189   0.810
  221W        W71750  18.697  30.356  11.254
  222W        W71751  20.250  18.831  14.916
  223W        W71752  20.555  21.127   1.894
  224W        W71753  28.810   1.035   1.013
  225W        W71754   6.012  23.055   0.699
  226W        W71755  28.071  27.714  10.687
  227W        W71756  39.747   9.465  11.209
  228W        W71757   6.903  14.225   4.073
  229W        W71758  16.862  25.189  12.913
  230W        W71759   6.631  18.874  14.053
  231W        W71760  31.672  23.823   4.378
  232W        W71761  36.491  22.679   4.811
  233W        W71762   6.386  27.524  14.325
  234W        W71763  24.587   8.859   3.763
  235W        W71764  22.236  32.389   0.029
  236W        W71765  44.597  30.069   5.188
  237W        W71766   1.939   3.476  14.786
  238W        W71767  42.498  10.694  12.471
  239W        W71768  13.616  43.630  12.925
  240W        W71769  36.012  11.908   0.733
  241W        W71770  25.809  12.871   3.624
  242W        W71771  14.926  26.958   2.850
  243W        W71772  36.531  23.507  14.470
  244W        W71773  14.515  44.083   3.780
  245W        W71774  15.794  41.065   0.618
  246W        W71775  21.066  43.800  14.788
  247W        W71776  19.528  27.125  12.130
  248W        W71777   3.651  13.594  13.604
  249W        W71778  24.713  34.309   2.336
  250W        W71779  21.906   3.745  12.466
  251W        W71780  43.995  41.718   1.397
  252W        W71781  20.030  39.562   0.823
  253W        W71782  37.956   4.862  13.472
  254W        W71783   4.799   3.413  14.618
  255W        W71784  33.559  12.250  13.497
  256W        W71785  21.734  22.089  11.069
  257W        W71786  21.060   9.522   2.641
  258W        W71787   8.642  42.760  14.520
  259W        W71788  36.329  11.289  12.677
  260W        W71789  12.713  15.872   1.252
  261W        W71790  11.078  37.544  13.838
  262W        W71791  38.732   3.956   3.111
  263W        W71792  30.059  12.359   3.370
  264W        W71793  11.177  12.697   4.529
  265W        W71794  17.630  27.594  12.033
  266W        W71795  26.508   5.388   4.914
  267W        W71796  10.779  10.300  13.574
  268W        W71797  14.543   7.699   5.044
  269W        W71798   4.934  28.049   4.519
  270W        W71799  13.565  18.583   2.702
  271W        W71800  30.712  39.371  13.481
  272W        W71801  43.980  27.501  12.946
  273W        W71802   6.642  30.661   1.207
  274W        W71803   8.278  43.122   2.211
  275W        W71804  44.460   0.764   2.133
  276W        W71805  14.112  28.705   3.161
  277W        W71806   7.156  13.215  11.617
  278W        W71807   6.417  28.918  13.058
  279W        W71808  38.474   3.282   3.291
  280W        W71809  24.409  31.030   3.615
  281W        W71810   0.939   9.902  14.424
  282W        W71811  12.690  17.173  11.681
  283W        W71812  27.712   7.460  11.715
  284W        W71813  27.706  40.851  12.438
  285W        W71814  43.253  24.888  13.967
  286W        W71815  42.443  21.729   3.190
  287W        W71816  19.913  27.437   0.372
  288W        W71817  27.166  37.318  13.505
  289W        W71818  21.296   1.549   0.335
  290W        W71819  40.425  33.938   4.868
  291W        W71820   8.915  20.006  14.483
  292W        W71821  17.059  30.234   0.369
  293W        W71822   5.796   5.691  13.786
  294W        W71823  16.254  13.894  13.918
  295W        W71824  43.914  43.910   0.240
  296W        W71825  27.230  14.672  13.682
  297W        W71826  36.460  19.818   3.238
  298W        W71827  20.297  13.342   4.291
  299W        W71828   3.217  38.689  11.234
  300W        W71829  38.415  21.276  12.007
  301W        W71830  19.586  22.573   3.167
  302W        W71831   3.458  28.464  10.740
  303W        W71832  20.085  19.249   1.776
  304W        W71833   9.717   8.964  14.499
  305W        W71834  40.826   5.223   1.080
  306W        W71835  30.688  37.634  10.818
  307W        W71836  43.809   3.176   4.116
  308W        W71837  27.328  10.452  13.135
  309W        W71838  25.365  26.438  12.160
  310W        W71839   8.903  30.095  10.951
  311W        W71840  36.045  23.669   1.291
  312W        W71841  30.640   6.827   1.786
  313W        W71842  41.457  19.307  10.938
  314W        W71843  20.674  11.450   3.157
  315W        W71844   9.358  38.011   4.389
  316W        W71845  15.618  26.485   2.209
  317W        W71846  10.590  10.847   2.161
  318W        W71847  41.882  42.222  11.964
  319W        W71848  12.481  33.542  13.579
  320W        W71849  22.725  31.150  14.466
  321W        W71850  15.312  44.493  13.255
  322W        W71851  18.329   0.945   0.881
  323W        W71852  10.995  12.255   0.817
  324W        W71853  24.616  13.150   4.306
  325W        W71854  29.429   8.628  11.712
  326W        W71855  19.574  39.150  14.349
  327W        W71856  22.932   7.700  13.504
  328W        W71857  39.941  14.501  12.399
  329W        W71858  26.710  11.138   3.013
  330W        W71859  30.862  28.881  13.930
  331W        W71860  30.335  22.865  10.741
  332W        W71861  14.078  12.182   3.880
  333W        W71862   9.870  39.095   2.955
  334W        W71863   8.790  42.287  10.762
  335W        W71864  24.273  32.025   5.048
  336W        W71865  34.866  23.396   4.686
  337W        W71866   2.707  12.915  11.130
  338W        W71867   6.264  22.576  13.396
  339W        W71868  22.142  39.932  13.106
  340W        W71869   0.946  40.012   2.147
  341W        W71870  12.896   1.970  11.668
  342W        W71871  29.229  42.706   3.718
  343W        W71872  27.939   5.185   3.576
  344W        W71873  44.140  39.413  11.274
  345W        W71874  32.668  29.066  14.544
  346W        W71875  13.849   8.952  14.858
  347W        W71876  23.089   2.774  14.574
  348W        W71877  30.454  23.051   1.795
  349W        W71878  11.188  27.928   2.263
  350W        W71879  10.613  25.078  14.593
  351W        W71880  30.047   3.203  11.987
  352W        W71881  19.008  32.940   0.282
  353W        W71882  27.667   6.150  11.741
  354W        W71883  10.290  40.214   3.538
  355W        W71884  11.759  31.654   4.574
  356W        W71885  26.081  12.193  12.960
  357W        W71886   1.753  30.022  14.395
  358W        W71887  29.987  14.225  11.656
  359W        W71888   8.842  25.755   3.317
  360W        W71889  18.250  42.829   1.013
  361W        W71890  29.039  20.172   0.759
  362W        W71891   0.992  30.919   3.872
  363W        W71892   8.247  31.669   1.784
  364W        W71893  33.332  40.493   3.802
  365W        W71894  43.985  40.972   4.277
  366W        W71895  13.156  44.372  12.554
  367W        W71896  12.329  29.210   3.655
  368W        W71897  29.701  11.187   1.923
  369W        W71898  23.598  26.464   1.921
  370W        W71899   0.439  23.009   4.114
  371W        W71900  33.586  36.489  13.944
  372W        W71901  13.638   6.072   4.081
  373W        W71902  42.003  26.014  11.196
  374W        W71903   1.222  22.121  11.987
  375W        W71904  20.132  27.588  13.607
  376W        W71905  22.720  35.837  12.451
  377W        W71906  43.171  35.933  14.909
  378W        W71907  14.428   1.713  12.152
  379W        W71908  33.765  37.602   5.067
  380W        W71909  40.466  33.058  14.901
  381W        W71910  43.812  43.539   3.266
  382W        W71911  26.543  28.356   1.147
  383W        W71912  34.095  20.228   2.184
  384W        W71913   2.939  40.991  12.955
  385W        W71914  11.789  11.154   1.344
  386W        W71915  26.620  16.104  12.955
  387W        W71916  40.139   0.851   2.907
  388W        W71917   9.923  10.440  14.382
  389W        W71918  25.238  38.805   4.616
  390W        W71919  22.339  42.256   1.807
  391W        W71920   6.685  19.505   1.010
  392W        W71921  21.893  37.384  11.582
  393W        W71922   2.829  35.846   1.616
  394W        W71923  21.807  30.305  13.862
  395W        W71924   8.348  33.400  11.673
  396W        W71925  40.912  16.129  11.612
  397W        W71926  11.148   5.263   4.897
  398W        W71927  11.613  43.806   1.430
  399W        W71928  15.208   4.722   0.423
  400W        W71929  16.167  40.263   3.657
  401W        W71930  29.477   0.197   1.810
  402W        W71931  32.372  17.676  13.043
  403W        W71932  41.316   3.390  10.351
  404W        W71933  42.977  27.428  13.885
  405W        W71934   2.884  33.052   3.531
  406W        W71935  28.972  23.566   0.157
  407W        W71936  15.715  32.402   3.262
  408W        W71937  41.022  30.161   4.581
  409W        W71938  30.983  17.636  13.974
  410W        W71939  27.107  10.166   3.862
  411W        W71940  28.514  17.281   2.725
  412W        W71941  44.935  40.096  14.866
  413W        W71942  37.585  10.721  14.022
  414W        W71943  35.470  22.128  12.344
  415W        W71944  37.584  31.670   0.999
  416W        W71945   9.336  37.573  12.073
  417W        W71946  27.025  36.293  14.982
  418W        W71947  17.671  38.482  12.923
  419W        W71948   7.679  40.915   4.596
  420W        W71949  19.655  35.042   0.797
  421W        W71950   6.253  30.347   4.582
  422W        W71951  35.014  10.310   4.086
  423W        W71952  16.190  14.901  14.258
  424W        W71953  18.968  10.226   1.786
  425W        W71954   2.390  29.890   4.361
  426W        W71955  22.296  44.323   1.288
  427W        W71956   5.753   0.028  14.994
  428W        W71957  27.919  44.285   1.869
  429W        W71958  23.998  25.922   2.285
  430W        W71959  10.741  17.572  11.164
  431W        W71960  39.494  30.026   3.717
  432W        W71961  29.818  26.597   4.783
  433W        W71962  43.795   5.936  11.060
  434W        W71963   0.840  15.513  14.149
  435W        W71964  19.218  40.851   3.117
  436W        W71965   2.331  10.394  12.407
  437W        W71966  35.901   4.223  14.470
  438W        W71967   8.323  33.006   0.357
  439W        W71968  17.686  30.978  13.337
  440W        W71969  39.283  31.336  11.650
  441W        W71970  14.760   7.220  11.120
  442W        W71971  15.809   8.924  10.705
  443W        W71972  41.542  40.599  10.463
  444W        W71973   9.861  38.522  13.407
  445W        W71974   9.599  29.878   0.340
  446W        W71975  17.190   5.939  12.886
  447W        W71976   6.977  24.283  13.519
  448W        W71977  24.981  36.410  10.763
  449W        W71978  10.223   9.622   4.419
  450W        W71979  10.933  16.523  13.362
  451W        W71980   8.500  19.577   1.853
  452W        W71981  10.251   7.412  11.013
  453W        W71982   3.939  24.246   4.102
  454W        W71983  36.115  37.953   1.492
  455W        W71984   6.934   8.838  13.838
  456W        W71985  25.926  20.105   1.758
  457W        W71986   7.440  23.483  11.665
  458W        W71987   5.702  20.566  14.810
  459W        W71988  37.099   1.979  11.108
  460W        W71989  44.031   2.265   1.411
  461W        W71990  29.233  20.669  12.519
  462W        W71991  32.314  16.081  11.474
  463W        W71992  16.077  15.145   3.326
  464W        W71993   9.060  10.437   0.441
  465W        W71994  38.326  10.709   3.988
  466W        W71995  14.609  26.942   1.448
  467W        W71996   0.878  36.860  13.853
  468W        W71997  42.808   2.527  10.723
  469W        W71998   7.184  21.305  12.597
  470W        W71999  41.747  10.728   1.222
  471W        W72000   2.484  19.793  11.191
  472W        W72001  23.109  40.372   5.042
  473W        W72002  29.429  39.846  11.186
  474W        W72003   0.743  20.351   3.319
  475W        W72004  25.079  16.044   3.881
  476W        W72005  43.346  11.253  12.196
  477W        W72006  13.211  31.889   1.452
  478W        W72007  15.597   2.901   0.473
  479W        W72008  13.306  30.652   1.873
  480W        W72009  43.647  37.640   4.579
  481W        W72010  27.634   2.146   3.263
  482W        W72011  21.679  13.592  13.994
  483W        W72012  21.740   2.351  11.518
  484W        W72013  38.254  27.434  14.811
  485W        W72014  11.695  38.340   0.320
  486W        W72015  28.136  14.098   1.746
  487W        W72016  22.626  29.968   2.127
  488W        W72017   8.129  38.005   0.273
  489W        W72018  13.326  11.059  11.700
  490W        W72019  19.237  40.391  10.761
  491W        W72020  38.296  37.303  14.795
  492W        W72021  17.204  21.814  13.167
  493W        W72022   9.994  36.645   2.264
  494W        W72023  24.980  16.676   0.302
  495W        W72024  42.800   1.240   0.368
  496W        W72025  38.776  40.877   3.324
  497W        W72026  12.343  25.035   3.824
  498W        W72027  34.932  41.748  13.286
  499W        W72028  26.943  36.221  12.495
  500W        W72029  44.465  22.229   4.209
  501W        W72030  32.107   0.735  12.362
  502W        W72031  23.061  16.565   3.326
  503W        W72032  34.624  38.549   2.369
  504W        W72033  18.136  36.432  10.635
  505W        W72034   9.827  44.811   1.794
  506W        W72035   9.663  39.910   1.768
  507W        W72036  29.186  27.673   1.476
  508W        W72037   2.802  30.263  12.149
  509W        W72038  24.241   1.509   3.169
  510W        W72039  29.414   9.309  13.485
  511W        W72040  35.925  23.773  10.711
  512W        W72041  43.473  33.643   4.828
  513W        W72042   9.269  29.360  12.527
  514W        W72043  17.195  31.421  10.748
  515W        W72044  33.439  32.345   1.095
  516W        W72045  15.222  40.411  11.716
  517W        W72046   8.322  28.411  13.407
  518W        W72047  44.191  43.528  12.493
  519W        W72048  15.469  20.071  14.662
  520W        W72049  32.538  14.342   1.162
  521W        W72050   9.620  22.718  13.756
  522W        W72051   0.760  29.074  14.905
  523W        W72052  31.804  36.193   1.833
  524W        W72053  33.652  32.482  14.394
  525W        W72054  24.222   8.347   5.133
  526W        W72055   5.826  15.044  12.044
  527W        W72056  35.387   8.451  14.917
  528W        W72057  38.026  34.797  11.039
  529W        W72058  43.285  18.334   4.143
  530W        W72059   2.858  15.395  14.505
  531W        W72060  19.096  30.043   3.938
  532W        W72061  38.908  26.239  10.687
  533W        W72062   1.394   5.613  12.631
  534W        W72063   7.282  17.957   1.706
  535W        W72064  22.280  25.134   4.238
  536W        W72065  25.577  19.098   1.302
  537W        W72066  39.795  10.758  10.795
  538W        W72067  43.844  24.983   3.731
  539W        W72068  16.848  25.456  12.482
  540W        W72069   9.897  44.681   2.296
  541W        W72070  12.088   5.174   0.395
  542W        W72071  12.621  11.856   4.089
  543W        W72072  11.687  25.408   4.664
  544W        W72073  38.482  12.791   2.124
  545W        W72074  38.339  44.226   4.584
  546W        W72075   6.975   1.294  12.471
  547W        W72076   8.739  18.952   4.971
  548W        W72077   0.928  26.635   0.327
  549W        W72078  20.182  21.343  11.894
  550W        W72079  17.133   8.366   3.678
  551W        W72080  24.208  24.235   3.044
  552W        W72081   0.352  31.816  12.525
  553W        W72082   4.821   4.238   3.691
  554W        W72083  43.401  18.759  14.154
  555W        W72084  41.970  34.249  13.917
  556W        W72085  24.238  23.400  10.252
  557W        W72086  13.729  38.769   4.192
  558W        W72087  17.521  29.116   1.315
  559W        W72088   0.311  32.385  10.732
  560W        W72089  31.887  15.542   1.467
  561W        W72090   9.555  34.782  13.602
  562W        W72091  22.739  20.804   1.902
  563W        W72092  28.371  21.444   2.895
  564W        W72093  33.389  32.590  12.473
  565W        W72094   9.736  42.033   3.565
  566W        W72095  32.983  10.772   1.765
  567W        W72096  21.506   8.351  13.945
  568W        W72097  30.948  41.268   0.854
  569W        W72098  33.626   3.833  12.807
  570W        W72099  44.801  31.854   3.109
  571W        W72100  27.642  40.517   1.256
  572W        W72101  32.427   8.600   0.007
  573W        W72102  44.250  42.112  12.490
  574W        W72103  23.236   3.318   4.160
  575W        W72104  39.513  36.750  13.392
  576W        W72105  18.604  33.994  11.367
  577W        W72106  14.170  42.565   1.414
  578W        W72107  40.840  27.593  10.377
  579W        W72108  43.587  42.917   2.180
  580W        W72109  21.555   6.413  10.798
  581W        W72110  31.556   2.423  12.124
  582W        W72111  35.132  29.374   0.823
  583W        W72112  12.230   1.949   2.061
  584W        W72113   6.159   8.944   4.072
  585W        W72114  34.846   3.966   1.937
  586W        W72115  16.067  23.011   4.211
  587W        W72116  32.018  30.636   2.353
  588W        W72117  41.402   6.978   3.599
  589W        W72118  22.684   4.699  10.663
  590W        W72119   5.688  22.226  14.328
  591W        W72120   8.914   9.224   3.324
  592W        W72121  28.674  17.775   3.599
  593W        W72122  11.661  27.091  12.499
  594W        W72123  43.407  40.978  10.919
  595W        W72124  36.687  15.891   4.618
  596W        W72125  22.601  30.462  10.960
  597W        W72126  40.936  43.526   1.827
  598W        W72127   2.534  41.214  10.554
  599W        W72128  25.800  14.290  10.358
  600W        W72129  41.076  43.901   0.491
  601W        W72130  33.498   5.731  14.530
  602W        W72131  29.878  42.199   3.405
  603W        W72132  44.698  12.126  10.662
  604W        W72133  27.679  14.050   4.118
  605W        W72134  21.696  34.824   1.834
  606W        W72135  15.294  10.218   0.733
  607W        W72136  29.065   9.596   4.166
  608W        W72137  35.832  26.301   1.411
  609W        W72138  28.921  19.663   0.617
  610W        W72139  36.203  21.577  13.834
  611W        W72140  20.680  23.090  12.759
  612W        W72141  22.503  26.627  11.532
  613W        W72142  36.920   7.650   2.399
  614W        W72143  38.577  22.143  10.629
  615W        W72144  16.325  36.859  13.745
  616W        W72145   0.774  35.626   3.729
  617W        W72146   8.423   7.993  10.702
  618W        W72147  44.847  12.173  13.077
  619W        W72148  31.901  15.249  13.035
  620W        W72149  40.118  12.729   1.385
  621W        W72150  27.085  40.336   0.430
  622W        W72151  43.800  12.460   4.739
  623W        W72152  17.286  16.250   0.351
  624W        W72153  15.718  12.436   3.845
  625W        W72154  39.858  42.074   4.230
  626W        W72155  35.443  38.455   4.133
  627W        W72156  10.294  24.905   1.990
  628W        W72157  12.294   6.144  10.967
  629W        W72158  18.165   3.475  12.400
  630W        W72159  34.549  43.534   1.463
  631W        W72160  38.023  26.051   0.740
  632W        W72161  22.241   8.731  12.184
  633W        W72162  40.492  43.461  13.478
  634W        W72163  35.910   0.981   1.305
  635W        W72164  35.480  22.076   4.514
  636W        W72165   6.975  33.132  14.012
  637W        W72166  12.112  27.605   2.139
  638W        W72167  26.008   7.164   4.771
  639W        W72168  37.856  24.261   3.129
  640W        W72169  10.632  16.837   2.862
  641W        W72170   5.396  10.553  11.560
  642W        W72171  29.685  18.346  14.818
  643W        W72172  19.773  29.386   0.967
  644W        W72173   0.262   7.704  14.680
  645W        W72174  35.080  29.577   2.793
  646W        W72175   8.581  28.286   1.929
  647W        W72176  29.467   6.304  11.000
  648W        W72177   5.922  10.941   0.866
  649W        W72178  41.448  20.992   1.791
  650W        W72179  20.565  39.045   3.097
  651W        W72180  18.385   8.041  14.933
  652W        W72181  31.044  27.516  12.250
  653W        W72182  28.860  25.569   4.131
  654W        W72183  14.159  24.671   4.249
  655W        W72184  11.252  12.306   1.484
  656W        W72185  13.137  40.414   3.305
  657W        W72186   3.016   1.103   1.737
  658W        W72187   6.341   6.336   4.432
  659W        W72188  35.578  11.219  13.463
  660W        W72189   2.653  10.686  13.276
  661W        W72190  27.619  23.391   3.730
  662W        W72191  13.738  33.281  11.076
  663W        W72192  38.277  30.159  12.138
  664W        W72193   2.311  22.072  13.307
  665W        W72194  16.390  19.550  11.083
  666W        W72195  14.708  17.676  13.948
  667W        W72196  41.730  38.200  12.293
  668W        W72197  18.078  17.811   4.196
  669W        W72198   8.906  30.200   0.887
  670W        W72199  43.464  20.168  11.689
  671W        W72200  33.588   7.692  12.138
  672W        W72201   9.808  26.833   4.224
  673W        W72202  38.189  24.214   1.664
  674W        W72203   7.827  25.452  11.514
  675W        W72204  37.480   1.942   4.731
  676W        W72205  27.431  14.485   3.957
  677W        W72206  25.172   5.845  10.654
  678W        W72207  11.445   4.846   4.649
  679W        W72208  20.081  40.941   1.402
  680W        W72209  19.144  13.819   2.867
  681W        W72210  10.815  19.558  12.058
  682W        W72211  35.885  41.976   3.654
  683W        W72212  24.274  18.121  11.841
  684W        W72213  36.502  40.381  11.645
  685W        W72214  22.630  13.826  11.910
  686W        W72215  12.752   3.689  13.969
  687W        W72216  24.600  33.672  10.749
  688W        W72217  43.920  32.064   1.068
  689W        W72218  43.351  41.869   0.800
  690W        W72219  31.545  24.441   9.841
  691W        W72220  41.997  27.519   1.497
  692W        W72221   3.330  30.959  14.033
  693W        W72222  29.464  25.470   5.069
  694W        W72223  16.219  22.371   5.581
  695W        W72224  35.129  21.985   0.054
  696W        W72225  13.226  13.846  13.722
  697W        W72226   4.316   8.468   2.463
  698W        W72227   4.006   1.489   1.215
  699W        W72228  14.671  17.025  11.755
  700W        W72229   2.198  18.383   4.176
  701W        W72230  31.097  24.996   0.339
  702W        W72231  26.238  21.562  10.753
  703W        W72232  19.508  16.979   2.191
  704W        W72233  44.007  31.553   0.951
  705W        W72234  23.303  15.596   2.352
  706W        W72235  20.980  39.640  11.583
  707W        W72236  39.241   1.181  12.547
  708W        W72237  20.273  11.811  13.361
  709W        W72238  24.363  10.205  10.291
  710W        W72239  41.130  20.270   1.162
  711W        W72240  44.351   9.687   2.766
  712W        W72241  30.148  23.568  12.953
  713W        W72242  19.075  32.657  11.775
  714W        W72243  44.522   5.514   0.022
  715W        W72244   9.756  12.207   0.327
  716W        W72245  39.066  15.788   3.296
  717W        W72246  34.601   6.132  11.029
  718W        W72247  28.436  42.413   0.224
  719W        W72248  17.068   2.769  12.000
  720W        W72249  35.131  16.282   2.581
  721W        W72250   5.503  15.039  13.394
  722W        W72251  13.765  23.213   2.381
  723W        W72252  35.212  41.765  14.707
  724W        W72253   6.732  11.335  12.496
  725W        W72254   3.438  38.715   0.843
  726W        W72255  21.012  41.384   2.376
  727W        W72256  15.279  44.474   2.841
  728W        W72257   2.421  25.214   0.850
  729W        W72258  44.008  28.708   1.708
  730W        W72259  10.661  24.677   2.286
  731W        W72260  41.253  43.150   3.139
  732W        W72261  29.381   1.325   4.394
  733W        W72262  26.940  26.138  10.813
  734W        W72263  36.617  13.183   2.969
  735W        W72264  11.577   3.338   0.929
  736W        W72265  36.408  31.823  11.526
  737W        W72266  21.357  28.271  14.933
  738W        W72267  38.500  40.733  13.060
  739W        W72268  40.124   4.125  13.173
  740W        W72269  31.446  26.529  12.992
  741W        W72270   7.752  43.029   2.241
  742W        W72271  14.325  39.538   3.708
  743W        W72272  25.538  24.107  12.850
  744W        W72273  19.353  40.267   1.746
  745W        W72274  23.016  34.424  14.462
  746W        W72275  28.112  21.916  14.932
  747W        W72276  16.526  12.393   1.706
  748W        W72277  43.801  43.835   1.696
  749W        W72278  16.682  32.393   1.742
  750W        W72279  33.483  42.759  11.924
  751W        W72280  42.090  20.784   5.103
  752W        W72281   3.972  20.745   3.254
  753W        W72282  10.549  37.940  10.182
  754W        W72283  16.791   4.296  10.661
  755W        W72284   8.870  18.608  14.454
  756W        W72285   6.092  21.747   2.818
  757W        W72286   4.640  28.466   4.353
  758W        W72287   1.318  44.754  11.120
  759W        W72288  14.564  31.981   1.401
  760W        W72289  32.969  23.008   0.662
  761W        W72290  44.596   0.314  13.956
  762W        W72291  30.155  32.986  12.252
  763W        W72292   9.316   6.702  14.735
  764W        W72293  30.587   9.883   4.639
  765W        W72294  32.748  27.672  12.713
  766W        W72295  18.076  27.765  11.179
  767W        W72296  10.715  12.116   2.227
  768W        W72297  20.456  15.530  11.973
  769W        W72298  19.942  37.606   2.207
  770W        W72299   9.259   0.598   2.303
  771W        W72300  39.073  27.451  12.001
  772W        W72301  33.962  23.846  12.421
  773W        W72302   5.698   6.262   2.877
  774W        W72303  44.379  17.098   4.546
  775W        W72304  38.014  19.244   1.180
  776W        W72305  29.476  31.916  10.289
  777W        W72306  35.854   1.320   3.200
  778W        W72307  20.691  13.524  11.015
  779W        W72308  35.575  25.909   2.640
  780W        W72309  35.547  39.711   4.592
  781W        W72310   6.440   6.196   1.277
  782W        W72311   3.413   3.575  10.973
  783W        W72312  35.399  34.096   1.884
  784W        W72313  39.441  41.100   0.876
  785W        W72314  37.542  17.321  14.905
  786W        W72315  27.424  23.218  14.088
  787W        W72316   2.335  44.076   0.085
  788W        W72317   8.147  41.363  13.006
  789W        W72318  43.184   4.223  14.894
  790W        W72319  31.212  38.786   3.296
  791W        W72320  41.469  13.026  14.867
  792W        W72321   7.356  20.560  11.439
  793W        W72322   6.483  23.732  12.870
  794W        W72323  34.340  27.892   1.798
  795W        W72324  43.824   5.566   1.625
  796W        W72325   6.458  17.293  10.290
  797W        W72326   2.098  32.855   4.507
  798W        W72327  38.404   4.400   1.149
  799W        W72328  12.287  43.818   2.837
  800W        W72329   3.632  18.653  10.687
  801W        W72330  38.571  29.617   2.838
  802W        W72331  14.160  32.761  12.957
  803W        W72332   7.389  37.953  12.094
  804W        W72333  21.950  30.715   1.386
  805W        W72334  19.051   3.943  10.972
  806W        W72335  40.055  38.367   1.283
  807W        W72336  15.560  21.995  12.447
  808W        W72337  16.041  38.132  12.168
  809W        W72338  10.627  40.362  13.401
  810W        W72339  27.145  20.837   0.264
  811W        W72340  10.685  15.712   4.170
  812W        W72341  44.235  30.556   3.174
  813W        W72342   2.908   8.923   3.094
  814W        W72343  17.053  40.357  10.484
  815W        W72344  29.413  15.944  11.280
  816W        W72345   8.064   1.416   5.189
  817W        W72346  31.161   5.049   0.770
  818W        W72347  34.121  18.863   0.200
  819W        W72348   9.911  29.520  13.331
  820W        W72349   5.352  18.143  13.356
  821W        W72350   8.891  27.027   3.685
  822W        W72351  37.692  11.241  12.550
  823W        W72352  37.123  44.430   3.436
  824W        W72353  25.934  18.322   2.883
  825W        W72354  21.834   6.400   0.328
  826W        W72355  33.922   7.010   4.741
  827W        W72356  19.479  13.107  13.399
  828W        W72357  29.980  39.533   3.288
  829W        W72358  11.860   6.639   2.418
  830W        W72359   5.813   2.800  14.200
  831W        W72360  41.332   8.797  14.868
  832W        W72361  31.922  38.851  12.355
  833W        W72362   8.935   4.864   0.759
  834W        W72363  26.215  13.414   2.209
  835W        W72364   4.753   9.312  11.399
  836W        W72365  26.109  41.548   1.341
  837W        W72366   8.133  20.378   4.573
  838W        W72367  17.852  43.497   1.957
  839W        W72368   5.861  34.634   4.219
  840W        W72369  20.732  28.419   4.732
  841W        W72370  35.637  18.235  11.429
  842W        W72371   5.355  11.346  12.719
  843W        W72372  28.453  33.439  13.405
  844W        W72373   4.813   1.264  13.449
  845W        W72374  23.547   4.172  10.749
  846W        W72375  15.825  32.684   1.349
  847W        W72376  40.363   8.302   3.071
  848W        W72377  29.100  29.893   0.398
  849W        W72378   7.344   8.111  12.064
  850W        W72379  32.216  44.329   3.878
  851W        W72380  39.768  28.735   0.999
  852W        W72381  20.293  17.173  14.078
  853W        W72382  39.521   1.807   3.313
  854W        W72383  23.112  39.870  12.964
  855W        W72384   4.324  31.130  12.868
  856W        W72385  25.593   8.630   1.203
  857W        W72386  11.285  22.697  11.494
  858W        W72387   9.814  15.701  13.045
  859W        W72388  12.997  40.767  13.515
  860W        W72389  20.007  38.939  13.444
  861W        W72390  14.319   6.878   1.201
  862W        W72391  19.744  11.201  13.611
  863W        W72392  25.463  34.551   1.809
  864W        W72393  44.909  35.445   0.212
  865W        W72394  17.959  28.610  14.884
  866W        W72395  18.640   4.338  12.481
  867W        W72396  40.286   3.584   3.770
  868W        W72397  37.651  10.749   2.707
  869W        W72398  27.750  16.701  11.014
  870W        W72399   9.840   9.904  13.535
  871W        W72400  24.138   2.776   0.608
  872W        W72401  38.325  17.064  12.559
  873W        W72402  25.764  42.090  13.429
  874W        W72403  42.364  26.686   2.948
  875W        W72404  32.016  31.963   4.551
  876W        W72405   6.797  26.022  13.958
  877W        W72406   8.958  27.145   1.751
  878W        W72407  31.968  32.740   1.488
  879W        W72408   6.527  26.731  13.371
  880W        W72409   1.423  16.111   2.295
  881W        W72410  37.900  32.097   0.835
  882W        W72411   4.121   8.483  13.140
  883W        W72412  20.080  28.399   2.772
  884W        W72413  29.820  22.791   2.271
  885W        W72414  32.813   0.140  14.805
  886W        W72415  18.262  41.231  10.527
  887W        W72416  30.105   8.650   1.905
  888W        W72417  21.286  24.265  12.570
  889W        W72418  38.371  13.266   1.365
  890W        W72419  42.565  42.229   4.560
  891W        W72420  18.028  23.529  10.756
  892W        W72421  33.954  11.039  14.051
  893W        W72422   9.926   3.815   3.193
  894W        W72423  32.025  18.280   0.917
  895W        W72424  24.072  28.067   1.059
  896W        W72425  42.822  44.898  14.972
  897W        W72426   1.592  38.187   0.889
  898W        W72427  25.236  31.489   3.552
  899W        W72428  36.388   0.664  14.842
  900W        W72429  35.637  25.532   4.580
  901W        W72430   3.673  29.088  10.574
  902W        W72431  11.991  10.626   4.584
  903W        W72432  28.866  37.305  11.821
  904W        W72433  34.896  22.052   1.763
  905W        W72434  36.824  27.051   3.077
  906W        W72435  19.146  31.223   0.794
  907W        W72436  21.079  34.156   3.282
  908W        W72437  15.829   4.811  12.082
  909W        W72438  43.268  11.040   0.454
  910W        W72439  36.198  21.236   3.234
  911W        W72440   1.069  16.243   1.680
  912W        W72441  41.569   0.733   2.199
  913W        W72442  38.309  12.556  14.882
  914W        W72443  23.978   8.355   4.091
  915W        W72444   9.271   1.158   1.368
  916W        W72445  43.469  22.850  12.841
  917W        W72446   4.902  16.330   3.180
  918W        W72447  27.933  43.975  12.524
  919W        W72448  14.236  20.276   4.627
  920W        W72449  24.693   5.756  11.772
  921W        W72450   3.844  33.513  13.474
  922W        W72451  37.817   4.706   0.341
  923W        W72452  40.882  18.231  14.689
  924W        W72453  11.841  23.791  12.489
  925W        W72454  14.704  23.425   3.743
  926W        W72455  28.093   9.196   2.857
  927W        W72456  37.166  31.089   4.727
  928W        W72457  25.117  16.614  12.863
  929W        W72458  37.825  11.395  14.401
  930W        W72459   6.055   5.179  12.374
  931W        W72460  26.131  44.180   0.793
  932W        W72461   5.284  12.297   4.505
  933W        W72462  40.351  10.676   0.344
  934W        W72463  21.678   7.713   3.586
  935W        W72464  16.718   8.551   0.725
  936W        W72465  37.078  18.293   2.880
  937W        W72466  35.530  21.208  12.050
  938W        W72467  39.745  12.238   1.909
  939W        W72468   3.929  36.738   4.508
  940W        W72469  22.546   6.958  11.551
  941W        W72470   6.909  22.616   1.206
  942W        W72471  41.803  28.972   2.210
  943W        W72472   1.674  32.972  14.354
  944W        W72473  33.732  43.214   9.876
  945W        W72474  11.177  38.389   0.428
  946W        W72475  33.001  21.454   2.775
  947W        W72476  29.660  36.987   3.631
  948W        W72477   8.891  40.820   4.117
  949W        W72478  17.775   0.813  11.945
  950W        W72479  29.030  30.563   3.344
  951W        W72480  36.052  13.155   4.349
  952W        W72481  15.346  14.303   0.873
  953W        W72482  39.829  27.818  11.040
  954W        W72483  24.459  13.284  14.281
  955W        W72484  12.800  31.696  13.336
  956W        W72485  20.487  22.630  10.636
  957W        W72486  23.218  27.280  13.513
  958W        W72487   5.813  11.139   3.177
  959W        W72488  29.314  22.195   1.563
  960W        W72489  33.924  26.657  13.270
  961W        W72490   9.639  32.911  14.635
  962W        W72491  12.860  34.668  12.111
  963W        W72492  32.853  32.350  12.005
  964W        W72493  39.089  39.822   0.859
  965W        W72494  27.232  20.971  13.064
  966W        W72495   4.256   8.785   3.811
  967W        W72496  33.140  41.530   1.654
  968W        W72497  40.954  41.757   0.408
  969W        W72498  32.261  10.798   4.530
  970W        W72499  30.531  19.128   1.332
  971W        W72500  14.499  36.016  12.182
  972W        W72501  35.993  15.995   2.471
  973W        W72502   6.848  15.175  13.485
  974W        W72503  17.091  12.690  12.137
  975W        W72504  27.598  43.375   4.967
  976W        W72505  42.304  25.363  11.188
  977W        W72506  37.754   3.851   1.855
  978W        W72507  24.116  28.926  11.289
  979W        W72508   8.354  17.329  14.055
  980W        W72509  10.340  27.988  10.659
  981W        W72510   8.879  27.905  14.576
  982W        W72511  11.667  37.553  11.975
  983W        W72512   0.157   2.816  11.392
  984W        W72513  10.059  38.233   3.445
  985W        W72514  11.787  23.164   0.880
  986W        W72515  24.015  33.367   0.719
  987W        W72516  10.343  37.313   3.300
  988W        W72517  34.000  22.002  14.543
  989W        W72518  40.961  39.676  11.149
  990W        W72519  36.557  35.100  14.369
  991W        W72520  24.437   1.278   1.565
  992W        W72521  42.142  17.319   4.844
  993W        W72522  14.301   2.143   2.209
  994W        W72523  39.111   0.006  14.738
  995W        W72524  37.150   5.659   1.347
  996W        W72525  42.456  30.077   2.311
  997W        W72526  13.618  40.438   4.810
  998W        W72527  22.938   9.391   1.534
  999W        W72528  11.269  26.667  14.323
 1000W        W72529   8.373  18.203   0.649
 1001W        W72530  11.687  14.951   4.419
 1002W        W72531   4.694   1.503  13.884
 1003W        W72532   3.783   0.468   3.256
 1004W        W72533  33.718  32.207  13.455
 1005W        W72534   2.434   9.352   1.286
 1006W        W72535  29.125  30.897  11.142
 1007W        W72536   2.983   0.919   0.488
 1008W        W72537  43.901  17.267   4.708
 1009W        W72538  24.218  19.224   2.306
 1010W        W72539  32.016  19.629   1.845
 1011W        W72540  14.682  35.030   2.326
 1012W        W72541  11.368  17.115  14.497
 1013W        W72542  43.706  38.358  11.404
 1014W        W72543  38.485  29.907   1.866
 1015W        W72544  29.908  28.644   3.513
 1016W        W72545   5.723  35.460  11.955
 1017W        W72546  23.912  23.069   4.457
 1018W        W72547  22.392  19.187   3.649
 1019W        W72548  41.761   8.723  13.545
 1020W        W72549  39.379  39.300   3.358
 1021W        W72550  26.762  23.520  14.189
 1022W        W72551  23.918  18.147  10.602
 1023W        W72552  37.788  11.555  11.108
 1024W        W72553  35.421  38.805   4.520
 1025W        W72554  33.182  35.812   2.006
 1026W        W72555   2.808  38.334   3.312
 1027W        W72556  30.438  11.024   0.016
 1028W        W72557  27.045  44.453   3.320
 1029W        W72558  43.427  18.484  13.138
 1030W        W72559   6.332  34.831   2.911
 1031W        W72560   9.149  16.648  13.881
 1032W        W72561  13.510  41.718   0.734
 1033W        W72562  19.825   6.897   4.129
 1034W        W72563  13.147  35.898   1.856
 1035W        W72564  28.923  11.739   2.078
 1036W        W72565   9.361   2.966  13.419
 1037W        W72566  27.188  34.984  12.913
 1038W        W72567  18.728   0.997   3.795
 1039W        W72568  44.840  20.423   0.183
 1040W        W72569  28.538   0.851   3.610
 1041W        W72570  39.818  15.766  14.772
 1042W        W72571  44.245   9.905  10.173
 1043W        W72572  21.274  15.264   2.870
 1044W        W72573  33.470  40.564  11.162
 1045W        W72574   8.840  15.518  10.701
 1046W        W72575  43.044  17.256  10.636
 1047W        W72576  39.101  13.534   2.589
 1048W        W72577  42.506  35.734   2.650
 1049W        W72578  19.289  18.700   3.744
 1050W        W72579  17.448  43.266  14.303
 1051W        W72580  24.945  28.666  11.911
 1052W        W72581  13.275   1.297  13.106
 1053W        W72582  41.219  31.513   0.778
 1054W        W72583  33.665  19.711   2.764
 1055W        W72584  38.632  22.744   4.774
 1056W        W72585  28.093  28.705  10.954
 1057W        W72586   3.357   0.754   3.152
 1058W        W72587   5.453  30.200   0.423
 1059W        W72588  24.891  21.175   4.394
 1060W        W72589   1.010   8.698  13.505
 1061W        W72590  12.105  38.436   2.236
 1062W        W72591  40.424   0.297   4.767
 1063W        W72592  11.172  34.426   1.533
 1064W        W72593  29.111  18.972  13.590
 1065W        W72594  28.407  41.075   0.400
 1066W        W72595  43.428   9.934  11.635
 1067W        W72596  14.550  17.968   4.514
 1068W        W72597  17.316  34.968  13.423
 1069W        W72598  27.601   3.339  14.734
 1070W        W72599  14.030  12.552  11.054
 1071W        W72600  21.703   6.451   1.312
 1072W        W72601  33.049  12.674  14.875
 1073W        W72602   9.317  43.475   1.716
 1074W        W72603  20.791   4.819  14.406
 1075W        W72604   8.210   6.909   3.307
 1076W        W72605   1.290   6.486   0.450
 1077W        W72606  39.872  34.132   2.640
 1078W        W72607  15.229   8.248  13.073
 1079W        W72608  26.648  13.927  12.516
 1080W        W72609  36.104  33.961  13.303
 1081W        W72610  41.533  26.955  12.499
 1082W        W72611  40.983  11.871  13.996
 1083W        W72612  10.356  41.093   1.445
 1084W        W72613  35.443  37.641   1.719
 1085W        W72614  10.685  26.009  13.279
 1086W        W72615  44.830   9.185  10.764
 1087W        W72616  35.031   2.486  12.451
 1088W        W72617  18.722   0.354   2.420
 1089W        W72618  21.987  16.392   1.765
 1090W        W72619  35.927  23.492   2.789
 1091W        W72620  19.065  43.003  14.804
 1092W        W72621  40.410  34.407   0.331
 1093W        W72622   7.136  27.707   0.453
 1094W        W72623  18.465  29.860  14.115
 1095W        W72624   5.407  10.833   2.334
 1096W        W72625   4.939  37.835  11.227
 1097W        W72626  44.728  34.536   3.124
 1098W        W72627  34.733   1.445   1.585
 1099W        W72628  27.082  19.702  12.035
 1100W        W72629   1.708  41.604  12.933
 1101W        W72630   0.190  17.096  10.660
 1102W        W72631  40.844  29.772   2.732
 1103W        W72632  28.906   0.098   3.532
 1104W        W72633  37.261  42.705   5.057
 1105W        W72634  32.547  11.839  14.078
 1106W        W72635  15.425  27.091   2.783
 1107W        W72636  38.249  37.974   1.031
 1108W        W72637  38.479   8.949   4.606
 1109W        W72638  22.517   2.133  10.123
 1110W        W72639  33.582  19.032   0.536
 1111W        W72640  30.602   3.338   2.961
 1112W        W72641  19.488  14.613  12.047
 1113W        W72642   7.051  20.281   4.071
 1114W        W72643   3.651   6.425  12.019
 1115W        W72644  21.021  36.946  11.241
 1116W        W72645   2.762  15.266  10.621
 1117W        W72646   9.273  41.831   3.935
 1118W        W72647  39.966   3.714   0.346
 1119W        W72648  36.164  38.289  11.935
 1120W        W72649  42.332   0.733   3.948
 1121W        W72650  11.982  10.109  12.441
 1122W        W72651  23.738  36.418  13.117
 1123W        W72652  32.640   4.657   0.985
 1124W        W72653   2.486   5.148  11.076
 1125W        W72654   7.115  41.316   2.616
 1126W        W72655  37.044  44.214  11.093
 1127W        W72656  32.930  44.859   1.081
 1128W        W72657  10.129  44.152   4.609
 1129W        W72658  25.073  25.189   3.930
 1130W        W72659   0.310  22.725  14.913
 1131W        W72660  30.547  20.247   3.213
 1132W        W72661  26.037  35.479  14.761
 1133W        W72662  26.392  16.539  10.650
 1134W        W72663  28.454   8.459  13.585
 1135W        W72664  38.001  32.350   2.906
 1136W        W72665  37.335   2.269   0.816
 1137W        W72666  33.874  32.831  14.719
 1138W        W72667  43.265  36.562  12.555
 1139W        W72668  29.681  22.058   2.253
 1140W        W72669  11.729  22.276  10.580
 1141W        W72670   0.727  38.460   1.240
 1142W        W72671   1.501  17.636   4.132
 1143W        W72672   0.819   7.885   3.589
 1144W        W72673  43.247  10.394   1.177
 1145W        W72674  12.866  26.411  11.132
 1146W        W72675  44.664   1.946  14.406
 1147W        W72676  23.461   1.805   3.703
 1148W        W72677  15.252  12.089  12.008
 1149W        W72678  35.435  42.188  14.922
 1150W        W72679  17.701   2.174  14.761
 1151W        W72680  33.319  17.610  11.987
 1152W        W72681   3.265   0.880   4.621
 1153W        W72682  33.393  26.148   1.351
 1154W        W72683  19.764  23.974   0.968
 1155W        W72684  44.746  16.811  11.998
 1156W        W72685  27.650  36.073  11.017
 1157W        W72686  32.469   1.206  13.027
 1158W        W72687  42.989  22.026   2.332
 1159W        W72688  43.049  38.399  12.891
 1160W        W72689  12.248   2.928   2.257
 1161W        W72690  34.609  15.373   3.526
 1162W        W72691  24.711   2.707   2.788
 1163W        W72692  25.027  38.092   3.798
 1164W        W72693   4.818  31.663   2.637
 1165W        W72694  15.274  11.778  10.645
 1166W        W72695  30.684  22.940   3.752
 1167W        W72696  12.626   6.120   1.349
 1168W        W72697  23.006   2.429   2.635
 1169W        W72698  30.878  13.766  13.606
 1170W        W72699  40.360  21.755   2.431
 1171W        W72700   6.053  26.356  14.904
 1172W        W72701   1.759   5.798  11.415
 1173W        W72702  31.051  29.179  11.372
 1174W        W72703  43.546  31.346   0.297
 1175W        W72704  13.915   0.459  11.347
 1176W        W72705   1.687   5.177  13.297
 1177W        W72706   1.453  14.160   0.156
 1178W        W72707   3.277  38.339   4.629
 1179W        W72708  25.059  33.064   0.690
 1180W        W72709  23.611  20.105  13.372
 1181W        W72710  38.699  23.932  13.847
 1182W        W72711  19.209  30.391   4.902
 1183W        W72712  18.660  28.940  11.264
 1184W        W72713   9.684  29.154  14.289
 1185W        W72714   5.795  18.336   2.329
 1186W        W72715  11.473  18.212  14.948
 1187W        W72716   6.936   4.012  13.370
 1188W        W72717  22.283  10.338  11.650
 1189W        W72718   8.256  36.897  11.915
 1190W        W72719   7.328  11.171  11.327
 1191W        W72720  35.002  26.007  10.952
 1192W        W72721  31.969  32.478   1.048
 1193W        W72722  30.964  12.162  14.198
 1194W        W72723  40.062  39.026  13.855
 1195W        W72724  31.870  20.922   4.507
 1196W        W72725  12.908  41.898  12.882
 1197W        W72726  36.857  35.665   1.265
 1198W        W72727  28.247  15.451   1.248
 1199W        W72728  15.498  15.679   4.216
 1200W        W72729  24.191  40.342   0.450
 1201W        W72730  33.503  24.633   4.767
 1202W        W72731  39.840  42.725  14.470
 1203W        W72732  33.301   4.222   2.204
 1204W        W72733   0.396  42.541  13.211
 1205W        W72734  33.013   3.948  11.560
 1206W        W72735  40.190  31.364   3.647
 1207W        W72736  30.470  39.523   1.314
 1208W        W72737  21.243  10.180   0.041
 1209W        W72738  10.243   6.390  13.348
 1210W        W72739  13.104  39.308  10.758
 1211W        W72740  42.041  34.856  13.939
 1212W        W72741  10.871  31.412   4.437
 1213W        W72742  12.620  40.384  11.410
 1214W        W72743   9.738  18.145   3.212
 1215W        W72744  17.405  44.427  11.967
 1216W        W72745  38.059   3.914  14.741
 1217W        W72746   4.191  19.845   3.431
 1218W        W72747  14.893  29.705  12.774
 1219W        W72748  13.785  31.740  11.964
 1220W        W72749   4.004  41.054   2.802
 1221W        W72750   4.240  18.028   0.203
 1222W        W72751  38.395  10.588   4.490
 1223W        W72752  38.940   1.321   3.193
 1224W        W72753  17.653  18.835  13.869
 1225W        W72754  39.399  19.039   1.294
 1226W        W72755  18.822  16.719  12.220
 1227W        W72756  39.544   9.380  14.426
 1228W        W72757  26.278  24.608   2.889
 1229W        W72758  37.020  37.817  14.599
 1230W        W72759  41.799  32.702   4.533
 1231W        W72760  29.777  38.078  12.663
 1232W        W72761  21.039  39.333   4.931
 1233W        W72762  16.891  12.259  13.757
 1234W        W72763   8.669  41.548  12.118
 1235W        W72764   6.325  14.543  11.098
 1236W        W72765  33.316  44.766  12.446
 1237W        W72766  33.088  40.972   4.671
 1238W        W72767  16.362   9.378   3.808
 1239W        W72768  26.130  32.672  14.446
 1240W        W72769   7.907  19.570   0.973
 1241W        W72770  38.603   5.824   2.875
 1242W        W72771  10.612  31.818  12.425
 1243W        W72772  15.195  26.079   2.889
 1244W        W72773  13.633   1.476   0.884
 1245W        W72774  42.826  38.815  13.104
 1246W        W72775  40.562  40.804  11.124
 1247W        W72776  37.479  37.479   1.621
 1248W        W72777   9.432  38.814   2.931
 1249W        W72778  20.541  37.170  12.631
 1250W        W72779  28.639  14.359   1.800
 1251W        W72780  16.463  24.295   2.842
 1252W        W72781   4.523  31.564   3.594
 1253W        W72782  11.729  20.508  14.307
 1254W        W72783  42.062  34.130   0.694
 1255W        W72784  22.406  11.163  12.960
 1256W        W72785   6.307  30.907   3.747
 1257W        W72786   6.053  33.246   0.759
 1258W        W72787  30.202  17.250   5.339
 1259W        W72788   9.755  19.907   4.368
 1260W        W72789  14.067  22.696   4.203
 1261W        W72790  13.338  14.769  13.779
 1262W        W72791  20.969  14.830   0.948
 1263W        W72792  36.239   0.252   4.239
 1264W        W72793  25.664  26.531   1.968
 1265W        W72794   4.168   0.735  14.491
 1266W        W72795  20.043   7.986   0.370
 1267W        W72796  19.609  39.788   0.215
 1268W        W72797  23.272  14.737   4.796
 1269W        W72798  16.793  42.944  10.714
 1270W        W72799  39.321   5.957   4.708
 1271W        W72800  40.879  26.592   2.154
 1272W        W72801   0.488  14.511   3.637
 1273W        W72802  21.617  39.288   4.065
 1274W        W72803   5.385  17.794  12.970
 1275W        W72804   2.092  31.840   1.386
 1276W        W72805  20.063  26.633  10.085
 1277W        W72806   0.388  23.135  14.184
 1278W        W72807   0.806  40.215  12.000
 1279W        W72808  10.661   8.052  13.902
 1280W        W72809  16.529  10.792   1.236
 1281W        W72810   2.748  35.521   3.406
 1282W        W72811  25.238  15.412   2.825
 1283W        W72812  29.904   3.673   2.340
 1284W        W72813  35.332  15.258  14.987
 1285W        W72814  13.853   4.871  12.254
 1286W        W72815  26.310  14.929  10.976
 1287W        W72816  23.707  12.789   3.618
 1288W        W72817  24.527   3.284  12.457
 1289W        W72818   7.833  32.225  12.507
 1290W        W72819  18.748  32.896   0.726
 1291W        W72820  20.560  15.616   0.734
 1292W        W72821   4.408  19.223  13.323
 1293W        W72822   5.511   4.430  11.065
 1294W        W72823   2.127  17.204  10.352
 1295W        W72824  19.336  34.040   4.674
 1296W        W72825  39.971  26.471  12.433
 1297W        W72826  27.181  33.061   2.372
 1298W        W72827  31.116  24.297  10.475
 1299W        W72828  40.006  18.619   4.041
 1300W        W72829  37.922  42.835   1.825
 1301W        W72830  32.495  43.345  14.793
 1302W        W72831  40.307  17.906   2.428
 1303W        W72832   7.776   8.421   0.322
 1304W        W72833  23.425  31.437   2.621
 1305W        W72834  40.190  38.099   2.248
 1306W        W72835  10.910  31.350  14.123
 1307W        W72836  18.593  39.296   2.149
 1308W        W72837  39.930   6.469   2.259
 1309W        W72838  30.881  38.232  11.638
 1310W        W72839  42.563  38.516   0.202
 1311W        W72840  41.118  10.625  12.688
 1312W        W72841  31.898  18.023  14.909
 1313W        W72842  38.530  10.063  13.122
 1314W        W72843  24.207   6.457   1.795
 1315W        W72844  22.458  31.055   1.853
 1316W        W72845  19.097  14.655   1.373
 1317W        W72846   0.763   2.018   3.196
 1318W        W72847  27.284  42.800  11.778
 1319W        W72848  28.559   2.704  14.277
 1320W        W72849   9.029  30.171   4.708
 1321W        W72850  12.377   6.669  14.949
 1322W        W72851  19.592  33.436  11.698
 1323W        W72852  43.841  21.480   1.963
 1324W        W72853   7.395  30.603  13.171
 1325W        W72854  16.022  23.528   0.250
 1326W        W72855  30.907  34.804  10.740
 1327W        W72856  35.063   8.392  11.505
 1328W        W72857  36.315   4.113   0.563
 1329W        W72858  10.590  42.925  11.672
 1330W        W72859  28.134  32.112  14.454
 1331W        W72860  10.412  30.932   0.216
 1332W        W72861  24.967   3.736  14.302
 1333W        W72862  38.337  25.598  11.645
 1334W        W72863   7.247  28.066  10.714
 1335W        W72864   5.283  31.821  11.076
 1336W        W72865  40.404  33.401   3.127
 1337W        W72866  20.205  10.693  11.067
 1338W        W72867  10.203  26.995  12.493
 1339W        W72868  13.890  10.222   3.625
 1340W        W72869  28.503   1.521  13.469
 1341W        W72870   1.934  11.623   2.703
 1342W        W72871  11.433   0.236   3.652
 1343W        W72872  21.303  24.239  14.544
 1344W        W72873  32.897   0.461  14.413
 1345W        W72874  28.211  18.788  10.724
 1346W        W72875  18.013   9.939  12.613
 1347W        W72876  25.942  40.911  12.001
 1348W        W72877  32.615  28.220   0.566
 1349W        W72878  27.862  18.646   4.221
 1350W        W72879  41.716  36.078   3.300
 1351W        W72880  16.984  11.661   0.823
 1352W        W72881  24.537  40.797   4.235
 1353W        W72882  10.121  21.175  10.360
 1354W        W72883  40.878   3.713   2.321
 1355W        W72884  32.944  40.070   2.663
 1356W        W72885  13.326  15.255   0.651
 1357W        W72886  42.017  14.344   4.118
 1358W        W72887  26.450  32.436  14.853
 1359W        W72888   7.977   2.446  14.844
 1360W        W72889   4.447  11.802  14.903
 1361W        W72890  17.164  30.579   1.711
 1362W        W72891   5.695   2.671   2.724
 1363W        W72892  42.889  28.415  13.065
 1364W        W72893   1.328   3.619   0.971
 1365W        W72894   1.105  29.957   4.963
 1366W        W72895   2.435  14.056   0.331
 1367W        W72896  21.584   1.255   4.519
 1368W        W72897  36.485  13.411   4.269
 1369W        W72898  21.967   9.759  13.773
 1370W        W72899  26.485  13.175  11.982
 1371W        W72900  34.817  38.331  11.902
 1372W        W72901   9.305   3.508   4.072
 1373W        W72902  23.656  21.197  12.557
 1374W        W72903  37.192  13.885   4.007
 1375W        W72904  23.951  11.166   3.141
 1376W        W72905  21.311  10.262   4.989
 1377W        W72906   2.975  12.770  13.883
 1378W        W72907  38.925  39.917   2.973
 1379W        W72908  33.863  40.367   1.297
 1380W        W72909   2.598  21.530   0.005
 1381W        W72910  36.026  11.602   3.889
 1382W        W72911  28.521   0.377   0.401
 1383W        W72912  29.429  15.214   3.033
 1384W        W72913  41.813  21.524  14.974
 1385W        W72914  16.661  37.489   2.220
 1386W        W72915  39.808  43.945   4.609
 1387W        W72916  21.510   9.886   1.303
 1388W        W72917  35.302  29.608   4.517
 1389W        W72918  33.499  10.643   2.226
 1390W        W72919   6.254  37.048   0.577
 1391W        W72920  35.332  39.468   2.049
 1392W        W72921  39.450  22.820   4.424
 1393W        W72922  32.936  16.154   3.219
 1394W        W72923   4.562  18.263   1.320
 1395W        W72924  11.444   6.318   2.728
 1396W        W72925  43.452  30.157   1.950
 1397W        W72926   8.636  18.789  11.119
 1398W        W72927  18.301   3.180  14.529
 1399W        W72928   7.152  12.313  13.829
 1400W        W72929  18.586  29.454   3.928
 1401W        W72930   9.842  39.458   1.644
 1402W        W72931  23.005  15.909  11.534
 1403W        W72932  30.547   0.232  13.556
 1404W        W72933  17.004  15.339   4.041
 1405W        W72934  40.862   3.006  12.415
 1406W        W72935  12.024  30.834   9.984
 1407W        W72936  26.435  13.980  10.655
 1408W        W72937  36.436  20.336   3.230
 1409W        W72938  28.207  26.951   0.123
 1410W        W72939  15.195  11.698  14.784
 1411W        W72940  15.532   6.748   2.355
 1412W        W72941  22.014  20.235   1.797
 1413W        W72942   7.628  42.409  12.870
 1414W        W72943  17.971   3.183   3.211
 1415W        W72944  17.153  44.022  12.511
 1416W        W72945   2.283  17.605  13.048
 1417W        W72946   0.223  32.391   2.223
 1418W        W72947  22.795  35.670   1.780
 1419W        W72948  42.060  36.050  10.986
 1420W        W72949  21.063   9.067   2.948
 1421W        W72950  24.254  36.382  13.110
 1422W        W72951  12.028  37.947  12.025
 1423W        W72952   7.701  16.133   0.266
 1424W        W72953  28.354  36.006   0.180
 1425W        W72954  14.340  41.399  10.734
 1426W        W72955  14.186   8.909  12.835
 1427W        W72956  34.849   3.363  10.842
 1428W        W72957   3.845  37.157   4.811
 1429W        W72958   5.010   6.961   0.263
 1430W        W72959  16.300  43.233   4.551
 1431W        W72960  12.859  38.077   2.110
 1432W        W72961  32.174  39.861  10.320
 1433W        W72962  10.838  24.142  13.094
 1434W        W72963  26.113   5.687   1.335
 1435W        W72964   9.262  37.980  12.381
 1436W        W72965  17.946  14.159   3.332
 1437W        W72966  13.166   5.884  14.011
 1438W        W72967  42.411  36.917   2.329
 1439W        W72968   0.718  43.450  14.340
 1440W        W72969  26.637  33.493  10.215
 1441W        W72970  19.546  23.506  10.829
 1442W        W72971  38.481  36.539  14.845
 1443W        W72972   6.985  21.660   0.351
 1444W        W72973  39.866  36.807   1.549
 1445W        W72974  39.471   3.262   2.281
 1446W        W72975  41.738  25.750  14.390
 1447W        W72976  31.524  39.373  13.863
 1448W        W72977  32.503  22.738  11.520
 1449W        W72978   5.001  26.313  12.588
 1450W        W72979  23.124  41.043   3.904
 1451W        W72980  37.767   1.264  13.570
 1452W        W72981  39.464  25.266   2.261
 1453W        W72982  29.493  17.269  11.634
 1454W        W72983  22.137  44.103   1.767
 1455W        W72984  33.328  32.090  12.561
 1456W        W72985   8.939  21.117   1.386
 1457W        W72986   1.882  27.557   1.680
 1458W        W72987  29.431  38.948  13.413
 1459W        W72988   8.742   6.808  11.327
 1460W        W72989  20.967  26.075   3.780
 1461W        W72990  16.816  25.651  11.591
 1462W        W72991  17.278  18.208   0.771
 1463W        W72992  16.046  31.187   0.794
 1464W        W72993   8.595  34.849  14.260
 1465W        W72994  42.824  44.070  10.359
 1466W        W72995  11.725  14.144   1.370
 1467W        W72996  26.563   5.345   1.714
 1468W        W72997  41.865  44.345   2.295
 1469W        W72998  20.054  10.660  14.332
 1470W        W72999  37.639  12.758   3.201
 1471W        W73000  34.330  41.512   3.328
 1472W        W73001  35.572   9.866  12.032
 1473W        W73002  30.960  39.971  12.141
 1474W        W73003  21.822   5.467  14.871
 1475W        W73004  27.950  36.864   4.111
 1476W        W73005  12.152  42.550   2.322
 1477W        W73006  41.933  18.959  11.635
 1478W        W73007   9.704  44.433  14.999
 1479W        W73008  23.668  33.597   0.349
 1480W        W73009  43.860  11.156  12.424
 1481W        W73010  19.955  22.629  10.390
 1482W        W73011  28.181   7.181  12.805
 1483W        W73012  44.846  42.996   2.390
 1484W        W73013  21.305  20.220   3.160
 1485W        W73014   6.173  20.187   4.916
 1486W        W73015  19.786   1.850   2.712
 1487W        W73016  33.211  13.250  14.048
 1488W        W73017  25.112  35.158  11.201
 1489W        W73018  12.922  34.498   4.224
 1490W        W73019  17.677   3.420  14.468
 1491W        W73020  32.826  44.666  14.606
 1492W        W73021  25.901  29.469  12.850
 1493W        W73022  13.618   9.245  12.035
 1494W        W73023   3.663  29.072   0.760
 1495W        W73024  26.186  40.463  10.687
 1496W        W73025  30.729  13.998  12.325
 1497W        W73026  36.456  25.322   3.746
 1498W        W73027  22.726  38.199   5.026
 1499W        W73028  32.927  39.037  10.668
 1500W        W73029   5.914  35.950  11.239
 1501W        W73030  12.723  30.229   3.036
 1502W        W73031  19.586  40.645   3.628
 1503W        W73032  22.729  26.993  13.482
 1504W        W73033  27.857  29.099  12.866
 1505W        W73034   6.726   4.695   0.139
 1506W        W73035  43.194  40.068  13.458
 1507W        W73036  33.953  13.641   1.336
 1508W        W73037  30.778   2.933   2.724
 1509W        W73038  29.502  21.561   2.373
 1510W        W73039  41.542  15.792  14.351
 1511W        W73040  27.789  39.086   0.815
 1512W        W73041  15.472  29.538   5.304
 1513W        W73042   5.020  40.420   5.071
 1514W        W73043  11.309  24.469   0.871
 1515W        W73044  12.195   4.893  12.173
 1516W        W73045   1.408  24.548   3.733
 1517W        W73046   5.196  19.627  14.910
 1518W        W73047   3.812  33.935   3.963
 1519W        W73048  15.360  37.538   4.906
 1520W        W73049  27.610  31.497  13.612
 1521W        W73050  26.985  16.399   3.350
 1522W        W73051  21.346  33.585  13.540
 1523W        W73052  18.052  34.625   0.747
 1524W        W73053   5.300  38.660  14.013
 1525W        W73054   0.693  37.872   0.806
 1526W        W73055   4.782  27.672   0.988
 1527W        W73056  44.705  40.156  13.936
 1528W        W73057  11.826  22.989  14.360
 1529W        W73058   9.575  25.508  11.548
 1530W        W73059  44.812  22.047   3.362
 1531W        W73060  13.090   1.770   1.900
 1532W        W73061   6.389   3.527  10.987
 1533W        W73062  42.499  36.569  14.948
 1534W        W73063  17.265  43.006  12.442
 1535W        W73064  22.034  39.819  13.906
 1536W        W73065   7.775  30.646   0.351
 1537W        W73066  29.090  40.858   1.840
 1538W        W73067  39.988  39.302   3.745
 1539W        W73068   4.768  38.997   4.684
 1540W        W73069   8.815  40.668   0.971
 1541W        W73070  22.993  29.993  14.911
 1542W        W73071  26.845   1.789   4.556
 1543W        W73072  26.188   4.378  11.067
 1544W        W73073  21.119   5.753   4.348
 1545W        W73074  39.981   1.340  13.828
 1546W        W73075  16.586  14.984  12.044
 1547W        W73076  43.783  14.320   2.673
 1548W        W73077   5.499  26.935  11.047
 1549W        W73078   5.403   9.897   4.398
 1550W        W73079  24.541  10.418  11.081
 1551W        W73080   6.622  42.818   3.647
 1552W        W73081  38.915   8.275  14.987
 1553W        W73082  18.177  25.508  12.107
 1554W        W73083  26.573  31.416   2.352
 1555W        W73084   3.637  15.885   0.495
 1556W        W73085  36.560  25.717   2.963
 1557W        W73086  41.971  43.899   3.323
 1558W        W73087  14.297   4.670  12.037
 1559W        W73088  12.166  10.374   4.121
 1560W        W73089  13.529   9.570   1.532
 1561W        W73090   2.417  25.420  12.009
 1562W        W73091  12.258  15.473   2.636
 1563W        W73092  25.728  38.807   3.871
 1564W        W73093  26.736   7.436   3.182
 1565W        W73094  38.249  27.637  13.087
 1566W        W73095  26.046  31.201   0.280
 1567W        W73096  35.765  21.437  14.570
 1568W        W73097  43.909  11.418  13.448
 1569W        W73098  19.793  11.832  13.972
 1570W        W73099   5.429  17.808  12.110
 1571W        W73100  41.861   1.437  10.748
 1572W        W73101  18.568  37.020  14.577
 1573W        W73102   3.803  10.149  13.878
 1574W        W73103  24.567  42.442  14.423
 1575W        W73104  13.792   8.897   4.527
 1576W        W73105  21.691   3.249  11.169
 1577W        W73106  26.521  36.124   2.697
 1578W        W73107  18.332  19.967   1.400
 1579W        W73108  22.124  31.616   0.750
 1580W        W73109  28.033  29.965  11.637
 1581W        W73110  18.281   4.682  13.854
 1582W        W73111  40.071  14.171   4.112
 1583W        W73112  20.143  26.540  11.115
 1584W        W73113  29.378  29.161   1.731
 1585W        W73114  38.819  34.197  12.402
 1586W        W73115  15.853   9.159  13.966
 1587W        W73116  37.932   9.739  13.766
 1588W        W73117  26.594   6.206   0.684
 1589W        W73118  42.282   1.900  13.305
 1590W        W73119  25.008  38.831   0.748
 1591W        W73120  22.814  11.165   0.591
 1592W        W73121  21.041  34.952   4.041
 1593W        W73122  41.238   6.857   2.211
 1594W        W73123  29.163  19.594   4.881
 1595W        W73124  31.107  16.720  13.666
 1596W        W73125  15.521   7.204   1.500
 1597W        W73126   5.690   4.721   2.683
 1598W        W73127   1.929  22.014   2.030
 1599W        W73128   0.983  42.737  13.891
 1600W        W73129  13.059  27.979  13.035
 1601W        W73130  23.531  17.806   1.011
 1602W        W73131  14.824   7.098  12.596
 1603W        W73132  24.939  24.661  11.866
 1604W        W73133  17.356  18.163  12.153
 1605W        W73134   9.733  14.616   4.232
 1606W        W73135   0.051  24.192  10.406
 1607W        W73136  14.075  20.052  11.198
 1608W        W73137  22.420  23.164  11.189
 1609W        W73138  41.283   2.756  13.306
 1610W        W73139  25.197  14.518   0.304
 1611W        W73140  38.800   9.728   0.255
 1612W        W73141  17.180  22.340   0.664
 1613W        W73142  40.233  10.796   1.186
 1614W        W73143  37.342  36.864   0.359
 1615W        W73144  17.045  32.355   1.365
 1616W        W73145  22.249  29.592   2.057
 1617W        W73146   9.249  19.473   2.712
 1618W        W73147   9.763  19.155   2.646
 1619W        W73148   8.323  32.126   5.246
 1620W        W73149  16.354  37.891   3.884
 1621W        W73150  43.300  43.249  14.542
 1622W        W73151  14.073  32.995  12.363
 1623W        W73152  11.228  39.993   3.385
 1624W        W73153   1.533  27.302  12.712
 1625W        W73154   0.365  29.388  13.500
 1626W        W73155  11.742  35.395  14.876
 1627W        W73156  14.556  18.217  12.556
 1628W        W73157   2.142   9.789   4.170
 1629W        W73158  36.942  31.520   2.260
 1630W        W73159  21.123   1.984   3.640
 1631W        W73160  39.515  19.301  11.176
 1632W        W73161  33.130  31.929  12.068
 1633W        W73162  18.416  41.761  14.492
 1634W        W73163  43.914  43.217   4.028
 1635W        W73164  28.059  18.473   3.308
 1636W        W73165  25.361  19.615  14.522
 1637W        W73166   1.313  21.172   3.589
 1638W        W73167  16.733   8.353  13.742
 1639W        W73168  27.455  31.839   4.130
 1640W        W73169  41.490  39.031   3.602
 1641W        W73170  12.880   0.454  13.920
 1642W        W73171  32.486  38.078  11.317
 1643W        W73172   3.434  31.619   4.941
 1644W        W73173  30.833  27.251  10.942
 1645W        W73174  15.113  18.803  12.826
 1646W        W73175  13.128  11.963  14.844
 1647W        W73176  28.035   0.765   2.380
 1648W        W73177  15.615   7.944   3.271
 1649W        W73178  39.489  12.668   4.478
 1650W        W73179  34.012  34.199  14.578
 1651W        W73180   5.592   2.881  12.456
 1652W        W73181  35.549  41.482   2.816
 1653W        W73182  25.071  44.298   3.023
 1654W        W73183   9.354   8.185  14.371
 1655W        W73184  18.751   8.135  11.289
 1656W        W73185  38.432  42.252   1.949
 1657W        W73186  21.815  16.229  10.719
 1658W        W73187   5.480  14.068   3.052
 1659W        W73188  22.515  36.057  12.931
 1660W        W73189  17.329   6.823  12.912
 1661W        W73190  17.754   1.287   2.882
 1662W        W73191   6.118  25.672   2.633
 1663W        W73192   6.410   3.474  10.471
 1664W        W73193  41.982   5.555   4.609
 1665W        W73194  26.849  36.713  12.516
 1666W        W73195  42.934  22.329   4.516
 1667W        W73196  32.639  27.087   1.050
 1668W        W73197   4.256  11.536  13.077
 1669W        W73198  42.807   3.270   0.475
 1670W        W73199   9.554   1.194  13.136
 1671W        W73200   5.320  27.432   4.049
 1672W        W73201  27.148  42.374  13.092
 1673W        W73202  13.671  42.834   4.700
 1674W        W73203  17.067  41.450   0.301
 1675W        W73204  12.238  18.940  10.909
 1676W        W73205  13.743   6.112  14.352
 1677W        W73206  44.930   1.116  12.960
 1678W        W73207   3.430   4.766  14.435
 1679W        W73208  11.226  20.282   1.795
 1680W        W73209  17.641  18.736   2.250
 1681W        W73210  15.540  41.302   4.065
 1682W        W73211  42.229  27.607   2.836
 1683W        W73212  19.080  41.328  12.200
 1684W        W73213   0.665   1.233  11.601
 1685W        W73214  28.223  25.645  13.425
 1686W        W73215   8.107  22.215   2.796
 1687W        W73216  36.447  17.101  12.707
 1688W        W73217  36.425  23.540   2.714
 1689W        W73218   9.621  40.576   0.233
 1690W        W73219  21.586   5.686   0.878
 1691W        W73220  41.822   6.454   3.177
 1692W        W73221  40.963   2.681   2.318
 1693W        W73222   2.262  43.938   2.170
 1694W        W73223  34.585  40.818   3.886
 1695W        W73224   2.281  27.435   0.406
 1696W        W73225  43.566   4.348  14.542
 1697W        W73226   8.653  20.177  13.729
 1698W        W73227  18.703  40.258   3.792
 1699W        W73228  30.011  33.361  11.425
 1700W        W73229  17.069  34.463   4.203
 1701W        W73230  22.294  30.392  14.094
 1702W        W73231  35.613  38.866   0.256
 1703W        W73232  37.164  26.176   0.884
 1704W        W73233  40.305  31.957   2.181
 1705W        W73234   7.838  22.499  12.425
 1706W        W73235  11.679  12.105   1.233
 1707W        W73236   6.626  19.311  11.060
 1708W        W73237  42.347  16.517  13.046
 1709W        W73238   6.277  24.779  12.076
 1710W        W73239  15.092  26.638   4.218
 1711W        W73240   3.705  24.194   3.631
 1712W        W73241  39.587  42.552  12.173
 1713W        W73242  13.338  17.210  14.456
 1714W        W73243  29.159  30.166   1.760
 1715W        W73244  39.835  15.542  12.313
 1716W        W73245  33.629  19.305  13.342
 1717W        W73246  26.068  32.222   0.417
 1718W        W73247  12.188  44.813   1.846
 1719W        W73248  13.176  38.347  10.570
 1720W        W73249  40.074  28.195   3.805
 1721W        W73250  13.718  33.360  12.519
 1722W        W73251  10.304   9.438   0.244
 1723W        W73252  18.189  10.830   0.017
 1724W        W73253  26.167  27.753  12.494
 1725W        W73254  40.894  10.741   0.425
 1726W        W73255  29.557  36.605  14.813
 1727W        W73256  15.710  41.176  10.523
 1728W        W73257  25.503  32.855  12.411
 1729W        W73258  17.312   5.358  13.863
 1730W        W73259   0.245   5.133  13.328
 1731W        W73260   5.053  29.607  13.997
 1732W        W73261   2.848  14.381   3.954
 1733W        W73262   2.280  18.696   1.082
 1734W        W73263   2.931  10.689  12.860
 1735W        W73264  13.578  13.292   0.355
 1736W        W73265  29.928  35.794  14.020
 1737W        W73266  44.621  43.203  13.786
 1738W        W73267  19.762  25.722  13.004
 1739W        W73268  28.391  37.239  13.368
 1740W        W73269  42.320  35.175  10.610
 1741W        W73270  19.139  26.287   1.276
 1742W        W73271  11.154  29.502  14.052
 1743W        W73272  41.067  12.034   0.824
 1744W        W73273  19.734  10.903  10.767
 1745W        W73274   3.293  34.446   1.629
 1746W        W73275  41.435  36.598  13.877
 1747W        W73276   8.922  27.446   2.674
 1748W        W73277  20.202  27.704   4.638
 1749W        W73278  37.514  16.781  13.059
 1750W        W73279  13.265   9.499   4.096
 1751W        W73280  35.392  11.232   3.893
 1752W        W73281  12.244   9.037   4.853
 1753W        W73282  25.601  15.210   3.665
 1754W        W73283  26.112  27.396  11.134
 1755W        W73284   9.333  21.538   1.764
 1756W        W73285  16.861  16.801   3.621
 1757W        W73286  42.436  24.516  14.084
 1758W        W73287   4.068  21.131   0.604
 1759W        W73288  36.064   0.099  14.405
 1760W        W73289  30.674  17.793  10.651
 1761W        W73290  27.594   2.831  13.567
 1762W        W73291  18.075  14.335   0.363
 1763W        W73292   0.818  29.881  11.613
 1764W        W73293  17.539  16.189  11.105
 1765W        W73294  30.818  28.569  14.358
 1766W        W73295  12.251  16.902   1.940
 1767W        W73296   1.764  37.882  14.394
 1768W        W73297  12.127  22.034   0.274
 1769W        W73298  30.394  33.613   3.951
 1770W        W73299  20.267  34.059   2.372
 1771W        W73300  15.334  15.718  10.739
 1772W        W73301  31.961  37.123  11.987
 1773W        W73302  44.766  41.023   2.964
 1774W        W73303  26.728  37.185  14.798
 1775W        W73304  43.292   3.183  14.906
 1776W        W73305  27.897  26.989  14.683
 1777W        W73306  33.511  27.037  12.006
 1778W        W73307  39.045  15.655  14.377
 1779W        W73308  43.543  27.208   0.939
 1780W        W73309  22.489   6.175  12.004
 1781W        W73310  13.788  14.319  13.053
 1782W        W73311  33.162  25.487  14.040
 1783W        W73312  32.849   9.439  12.996
 1784W        W73313  10.824   3.337  13.089
 1785W        W73314  42.349  31.087  11.943
 1786W        W73315   1.270  22.759   4.036
 1787W        W73316   2.388   0.826  13.490
 1788W        W73317  38.528  39.310   1.777
 1789W        W73318  30.924  41.758  12.699
 1790W        W73319  43.744  21.219   3.670
 1791W        W73320  10.191  34.508   5.003
 1792W        W73321  16.011   2.329  11.676
 1793W        W73322   2.201  12.003   1.897
 1794W        W73323  22.813  21.009  12.445
 1795W        W73324  21.420   9.768   3.296
 1796W        W73325  26.482  23.175  12.940
 1797W        W73326  18.218  10.149   0.736
 1798W        W73327   4.457  44.101  13.629
 1799W        W73328  37.671  19.260   2.137
 1800W        W73329  31.012  41.625  13.224
 1801W        W73330  36.013  18.332  11.037
 1802W        W73331  39.650   4.271   2.314
 1803W        W73332  30.146   3.684   1.272
 1804W        W73333  36.573  36.560  12.430
 1805W        W73334  30.975  36.126   1.512
 1806W        W73335  35.450  28.484  12.239
 1807W        W73336   6.652  11.087   0.330
 1808W        W73337   6.890   4.977   2.285
 1809W        W73338  17.618  35.470  11.340
 1810W        W73339   6.466  14.382  14.278
 1811W        W73340  32.049  20.303   3.579
 1812W        W73341  19.779  13.843  13.810
 1813W        W73342  10.731   3.474   2.629
 1814W        W73343  21.179  36.193  14.939
 1815W        W73344  25.631  18.986   2.188
 1816W        W73345  43.491  14.069   0.783
 1817W        W73346  19.791  44.445   0.488
 1818W        W73347  30.012  28.115  12.869
 1819W        W73348  23.479  19.344   2.802
 1820W        W73349   0.114   1.506  10.775
 1821W        W73350  33.311  19.500   4.939
 1822W        W73351  19.741   8.362   4.055
 1823W        W73352   2.364   7.674  11.834
 1824W        W73353  42.478  18.092   1.344
 1825W        W73354  11.907  34.054   3.231
 1826W        W73355  23.252  14.719   0.239
 1827W        W73356  13.637   8.736  12.093
 1828W        W73357  23.024  11.665   2.234
 1829W        W73358  13.715  25.937  14.810
 1830W        W73359  12.049  12.211   1.598
 1831W        W73360  38.014  42.360   2.695
 1832W        W73361  26.913  14.663  14.102
 1833W        W73362   6.436  16.999   2.662
 1834W        W73363   5.351  16.297   2.295
 1835W        W73364  36.988  28.073   3.622
 1836W        W73365  16.772  24.935   3.366
 1837W        W73366   8.410   1.765   4.775
 1838W        W73367   4.491  39.848  13.076
 1839W        W73368  21.158  21.022  12.731
 1840W        W73369  42.609   2.994   1.213
 1841W        W73370  27.696   6.770  12.415
 1842W        W73371   4.178  42.926   2.855
 1843W        W73372  23.692  17.781   4.590
 1844W        W73373   9.364  29.045  12.930
 1845W        W73374  44.238   2.755  11.527
 1846W        W73375  27.360  11.895  11.945
 1847W        W73376  17.643  24.335   0.157
 1848W        W73377  39.858  34.449   3.619
 1849W        W73378   7.940   6.803  12.856
 1850W        W73379  35.171  20.268  14.881
 1851W        W73380  17.175  15.027  14.500
 1852W        W73381  40.800  38.988  14.956
 1853W        W73382  31.081  22.697  13.157
 1854W        W73383  15.656  17.869   2.930
 1855W        W73384  32.037  26.603   4.118
 1856W        W73385  23.607  25.674  10.669
 1857W        W73386  36.181  29.741   4.073
 1858W        W73387  11.626  19.635  12.440
 1859W        W73388  40.341   6.001  13.917
 1860W        W73389  43.151   9.001   1.754
 1861W        W73390   8.750  13.933   0.806
 1862W        W73391   5.283  36.945  11.525
 1863W        W73392   5.791  20.881  10.846
 1864W        W73393  34.940  42.612  12.071
 1865W        W73394  42.891  13.278   5.143
 1866W        W73395  36.429  37.128   0.470
 1867W        W73396  20.789  32.144  12.975
 1868W        W73397  16.426   1.657   2.294
 1869W        W73398   3.355  23.803   3.690
 1870W        W73399   0.843  18.872  12.623
 1871W        W73400  12.615  13.251   4.003
 1872W        W73401  29.055  22.649   4.457
 1873W        W73402  18.257   7.331  12.380
 1874W        W73403  16.200  12.553  14.828
 1875W        W73404   2.717  16.435  11.279
 1876W        W73405   1.367   4.429   1.576
 1877W        W73406  31.974  20.706  14.819
 1878W        W73407  11.884   1.810   2.870
 1879W        W73408  42.052  35.301   3.637
 1880W        W73409  43.582  16.261   0.478
 1881W        W73410  14.898   2.769  11.080
 1882W        W73411  23.994  20.772  12.908
 1883W        W73412  12.093   6.651   0.364
 1884W        W73413  15.080  32.132   1.336
 1885W        W73414   2.729   1.889   4.297
 1886W        W73415  40.356  18.773  11.663
 1887W        W73416  35.988  19.608   3.095
 1888W        W73417   4.506  24.032   3.258
 1889W        W73418  37.628  43.869  14.105
 1890W        W73419   1.455  22.929   2.556
 1891W        W73420   9.319  37.869   0.929
 1892W        W73421  20.034  29.503  13.903
 1893W        W73422  32.855  33.547   1.370
 1894W        W73423  34.097  13.132  11.445
 1895W        W73424  14.254  12.682  13.872
 1896W        W73425  16.712   6.206   4.051
 1897W        W73426  22.964   6.194  14.959
 1898W        W73427  10.059  16.382   4.219
 1899W        W73428   6.940  10.343   4.656
 1900W        W73429  14.176  34.561   2.869
 1901W        W73430  15.503  28.176   1.873
 1902W        W73431  37.376  34.620   3.249
 1903W        W73432  34.892  14.268   4.976
 1904W        W73433  28.097  19.503  13.402
 1905W        W73434  30.576  16.333   1.288
 1906W        W73435  16.191  40.316  13.218
 1907W        W73436  15.820  36.181  12.263
 1908W        W73437   5.257   8.463   1.740
 1909W        W73438   0.369  16.814   1.487
 1910W        W73439  35.180   5.467   4.147
 1911W        W73440  31.058  40.889   4.122
 1912W        W73441  31.747  27.026   4.149
 1913W        W73442  34.410  16.748   4.787
 1914W        W73443  31.181  10.880  13.474
 1915W        W73444  18.176   0.935   0.369
 1916W        W73445  13.666  32.135   3.355
 1917W        W73446  30.934  44.674  11.134
 1918W        W73447   5.965   7.311  13.429
 1919W        W73448  20.564  11.729  10.685
 1920W        W73449  15.997   5.471   3.967
 1921W        W73450  11.936  31.062  14.857
 1922W        W73451  12.731   2.981   4.140
 1923W        W73452  28.899  44.790  13.383
 1924W        W73453  36.375  26.051  10.914
 1925W        W73454  33.830  14.154  12.876
 1926W        W73455   0.070   6.382   4.712
 1927W        W73456  10.863   8.198  13.454
 1928W        W73457  18.564  16.502   3.177
 1929W        W73458   2.537  33.883   3.174
 1930W        W73459  16.527  39.003   3.161
 1931W        W73460  19.691  41.707   2.155
 1932W        W73461  10.939  11.861   3.850
 1933W        W73462  26.333  39.803   4.854
 1934W        W73463  13.047   1.535  13.498
 1935W        W73464   7.428  36.056  12.074
 1936W        W73465  12.260  39.794   3.788
 1937W        W73466  35.079   2.158   0.031
 1938W        W73467  43.940   9.368  11.176
 1939W        W73468  41.071  34.362  13.538
 1940W        W73469   1.009   5.832   1.209
 1941W        W73470  24.955  33.650  14.349
 1942W        W73471  40.519   4.847  13.317
 1943W        W73472  10.252  35.328   5.055
 1944W        W73473  26.565  35.456   4.131
 1945W        W73474   6.243   8.396   3.672
 1946W        W73475  33.886   1.400   1.478
 1947W        W73476  42.128  35.420   2.776
 1948W        W73477  24.247  22.134   0.354
 1949W        W73478  22.021  15.151   2.364
 1950W        W73479  10.184   8.917   0.257
 1951W        W73480  39.599  15.645   5.036
 1952W        W73481  43.009  10.329   1.843
 1953W        W73482   5.160  34.585   3.090
 1954W        W73483  12.155   7.994   4.518
 1955W        W73484  32.451  27.144  14.049
 1956W        W73485   4.151  16.220  12.895
 1957W        W73486  19.119   0.814   0.797
 1958W        W73487  44.876  25.128  12.406
 1959W        W73488  27.206  31.906   3.173
 1960W        W73489   5.923  17.783  11.976
 1961W        W73490  31.395  36.848   0.798
 1962W        W73491  32.702  27.263  14.495
 1963W        W73492  44.743   8.373  12.517
 1964W        W73493  35.958  21.585  10.786
 1965W        W73494   3.762  14.074  14.808
 1966W        W73495   7.382  35.852   2.228
 1967W        W73496  27.625  33.352   4.151
 1968W        W73497   2.556   5.051  12.257
 1969W        W73498  30.255   0.901  11.159
 1970W        W73499   6.860  40.032  11.897
 1971W        W73500  41.188  36.820  10.753
 1972W        W73501  12.176  33.135   1.503
 1973W        W73502   7.545  23.945   3.684
 1974W        W73503  22.991  32.447   4.453
 1975W        W73504   4.653  29.060  10.199
 1976W        W73505   8.423  31.452   2.237
 1977W        W73506  24.128  20.954   1.696
 1978W        W73507   6.164  34.237   4.110
 1979W        W73508  14.800  12.283   2.935
 1980W        W73509  11.835  19.413  14.740
 1981W        W73510  12.763  33.116   2.241
 1982W        W73511  24.584  18.820  11.641
 1983W        W73512  38.575  12.886   1.639
 1984W        W73513  26.113  15.698  12.212
 1985W        W73514  21.907  30.002  10.728
 1986W        W73515  20.183   6.183   1.386
 1987W        W73516   0.338  22.939  10.673
 1988W        W73517  26.089  34.392   3.965
 1989W        W73518  39.566  27.022  10.703
 1990W        W73519  31.518   5.346   2.768
 1991W        W73520  37.215  18.197  13.013
 1992W        W73521  31.534  25.501   1.333
 1993W        W73522  42.403  12.848   3.602
 1994W        W73523  33.534  27.637   3.503
 1995W        W73524  16.026  14.580  11.239
 1996W        W73525  20.526  39.477  12.306
 1997W        W73526   7.964  30.935  11.187
 1998W        W73527  17.996  34.639   4.395
 1999W        W73528   3.819   7.015   0.791
 2000W        W73529  21.611  37.116  12.888
 2001W        W73530   4.854  24.835  13.841
 2002W        W73531  14.526  27.899   4.986
 2003W        W73532  37.836  32.950  12.960
 2004W        W73533  26.263   1.872   3.852
 2005W        W73534  13.338  44.044   4.211
 2006W        W73535  33.445   5.220  12.449
 2007W        W73536   0.946   0.593   1.438
 2008W        W73537  21.246  22.132  12.210
 2009W        W73538  37.767  27.508   0.800
 2010W        W73539  11.485  31.637   2.266
 2011W        W73540  32.281  16.552   4.054
 2012W        W73541  29.907  40.988   2.540
 2013W        W73542  44.262  21.768   4.117
 2014W        W73543  34.136   7.932  14.898
 2015W        W73544  15.650  38.787  11.163
 2016W        W73545   5.678   3.342  12.996
 2017W        W73546  28.156  10.583  10.385
 2018W        W73547  18.306  38.268  13.412
 2019W        W73548  38.139  24.033   2.209
 2020W        W73549  44.324  13.101  11.498
 2021W        W73550  24.735  24.503  13.527
 2022W        W73551  27.691  33.843  12.636
 2023W        W73552  24.246  41.439  12.482
 2024W        W73553  25.608  17.056  10.310
 2025W        W73554  34.652  42.633  14.750
 2026W        W73555  11.569  35.062   1.810
 2027W        W73556  17.269  11.278   3.408
 2028W        W73557  17.528  12.579  14.652
 2029W        W73558  16.168  26.068   0.204
 2030W        W73559   5.917  21.464  12.148
 2031W        W73560  11.691  10.703   4.165
 2032W        W73561  38.968   9.296  13.115
 2033W        W73562  40.545  32.461  12.816
 2034W        W73563   6.800  29.795  11.472
 2035W        W73564  22.582   7.587   3.264
 2036W        W73565  38.993  10.691   0.480
 2037W        W73566  41.892  17.761   0.381
 2038W        W73567  15.052  18.413   0.308
 2039W        W73568  32.412  27.572   4.590
 2040W        W73569  23.689  25.227   3.842
 2041W        W73570  44.143  23.932   5.103
 2042W        W73571  19.686  40.242   2.145
 2043W        W73572  39.016   2.625   3.694
 2044W        W73573   7.798  10.910  11.362
 2045W        W73574  39.054  13.079  10.947
 2046W        W73575  32.583  39.985   1.726
 2047W        W73576  18.474  10.440  14.792
 2048W        W73577  28.594  42.084   4.223
 2049W        W73578  33.921  42.489  11.909
 2050W        W73579   4.832  10.311   5.439
 2051W        W73580  33.498   7.471   0.407
 2052W        W73581  29.706  30.057   0.948
 2053W        W73582  18.492  27.099   3.669
 2054W        W73583  25.433  28.900  10.685
 2055W        W73584  43.438  40.256   4.631
 2056W        W73585  40.365  41.851  10.925
 2057W        W73586   3.836  13.072  11.535
 2058W        W73587  11.539  12.125   0.712
 2059W        W73588  16.311  38.620   2.824
 2060W        W73589   9.543   4.515  12.521
 2061W        W73590  18.579   0.509   3.789
 2062W        W73591   4.212  41.169  11.331
 2063W        W73592  16.839  15.540   0.783
 2064W        W73593  28.832  44.244   2.643
 2065W        W73594  16.732  34.664  14.217
 2066W        W73595   2.335  19.530  14.524
 2067W        W73596  25.047  18.649  10.683
 2068W        W73597   3.865  17.534   2.224
 2069W        W73598  34.403  14.043  10.627
 2070W        W73599   9.638   1.205  14.341
 2071W        W73600  32.718  22.521  14.552
 2072W        W73601  29.556  37.080  12.989
 2073W        W73602   1.007  32.338   2.878
 2074W        W73603   6.242  11.561   4.482
 2075W        W73604  40.367   8.979   3.503
 2076W        W73605   9.880  20.663   1.874
 2077W        W73606   8.197  26.650   2.218
 2078W        W73607   1.380  22.035  11.124
 2079W        W73608  13.117  37.694   2.813
 2080W        W73609   2.280  16.611   2.346
 2081W        W73610  15.292  35.806   0.763
 2082W        W73611  28.297   8.874  11.912
 2083W        W73612  35.936  33.014   4.109
 2084W        W73613  16.270  21.062  13.244
 2085W        W73614  40.416   4.857  11.226
 2086W        W73615  36.887  31.391   3.319
 2087W        W73616  25.093  34.894  10.750
 2088W        W73617   4.663  13.386  11.089
 2089W        W73618  29.000  25.386  12.578
 2090W        W73619  38.425   1.046   0.297
 2091W        W73620  32.529  19.120   3.900
 2092W        W73621  44.252  43.928   2.811
 2093W        W73622  18.287   8.900   3.819
 2094W        W73623  16.060   9.035   4.131
 2095W        W73624  12.306  11.173  14.479
 2096W        W73625  14.171  36.349   4.016
 2097W        W73626  11.697  42.825  14.022
 2098W        W73627  15.706   9.088   1.691
 2099W        W73628  25.662  19.589  11.165
 2100W        W73629  11.342  24.981   0.047
 2101W        W73630  37.575  38.022   2.211
 2102W        W73631   1.875  29.079   0.773
 2103W        W73632   5.329   5.480  13.678
 2104W        W73633  22.791  42.878  10.543
 2105W        W73634  43.970  33.649   5.233
 2106W        W73635  37.570  37.535   2.122
 2107W        W73636   1.185  30.969  10.941
 2108W        W73637  43.039   0.790   0.421
 2109W        W73638  26.932  14.067  14.905
 2110W        W73639  33.897  19.208  11.993
 2111W        W73640  18.084  36.833   3.552
 2112W        W73641  36.131  43.959  12.996
 2113W        W73642  20.261  26.135  11.930
 2114W        W73643  25.706  40.377   2.349
 2115W        W73644  41.542  36.446  14.382
 2116W        W73645   0.952  18.063  10.965
 2117W        W73646  30.928  36.445   4.399
 2118W        W73647  26.243  44.460   2.626
 2119W        W73648  37.998   3.030  13.733
 2120W        W73649   4.216  43.432   4.553
 2121W        W73650   4.907  16.557   2.723
 2122W        W73651  36.737  23.635  14.001
 2123W        W73652  25.978  34.495   4.454
 2124W        W73653  33.896  17.781  12.821
 2125W        W73654  10.915  25.552  11.645
 2126W        W73655  12.583  10.918   4.531
 2127W        W73656  12.730  36.185  12.111
 2128W        W73657  23.531  19.004  14.989
 2129W        W73658  27.710  41.304   3.414
 2130W        W73659   6.233  10.259  13.859
 2131W        W73660  30.885   9.796   0.416
 2132W        W73661  24.877  43.042   0.578
 2133W        W73662  24.751  31.290  14.442
 2134W        W73663   8.747  13.600  10.853
 2135W        W73664  41.763  25.239   1.335
 2136W        W73665  36.292  22.751   2.358
 2137W        W73666  22.215  30.215  13.445
 2138W        W73667   0.289  21.072  11.595
 2139W        W73668  25.038   0.086  11.044
 2140W        W73669  32.868  30.374   4.869
 2141W        W73670   0.926   8.839   2.222
 2142W        W73671  10.665   7.936  11.520
 2143W        W73672  22.050  19.330  11.891
 2144W        W73673  20.411   4.436  12.338
 2145W        W73674  38.581  40.281   4.509
 2146W        W73675  15.843  41.090  11.677
 2147W        W73676  16.588  35.108   3.779
 2148W        W73677  25.878  30.117  11.097
 2149W        W73678  36.973  39.747   1.383
 2150W        W73679   8.504   2.334   4.092
 2151W        W73680   4.236  16.525   5.062
 2152W        W73681  30.044  19.275  10.572
 2153W        W73682  14.173  38.787   3.274
 2154W        W73683  20.264   4.363   0.735
 2155W        W73684  26.166  28.951  14.950
 2156W        W73685  30.424   0.281   3.250
 2157W        W73686   2.919  15.769  10.688
 2158W        W73687  23.079  33.121  14.815
 2159W        W73688   0.295  35.508  13.809
 2160W        W73689  41.750  23.967   2.266
 2161W        W73690  27.946  39.984   1.743
 2162W        W73691   9.200  19.190  13.048
 2163W        W73692  11.287   4.760  14.069
 2164W        W73693  13.549  21.813   1.856
 2165W        W73694   1.993  30.812  13.886
 2166W        W73695  34.448  28.399   1.693
 2167W        W73696  22.026  24.596  11.114
 2168W        W73697   7.351  17.114  11.118
 2169W        W73698  11.667  23.983   4.168
 2170W        W73699  30.742   8.886  11.422
 2171W        W73700  37.647  32.498  13.221
 2172W        W73701  14.428  29.536  12.952
 2173W        W73702  42.104   9.177   3.589
 2174W        W73703  41.887   9.044  11.572
 2175W        W73704  31.619   8.183   4.830
 2176W        W73705  35.345  32.606  10.740
 2177W        W73706   3.926   1.778   0.758
 2178W        W73707   3.224  13.690   4.314
 2179W        W73708  37.896  29.089  14.823
 2180W        W73709  40.186  38.121  11.526
 2181W        W73710  15.555   1.404  11.612
 2182W        W73711   4.779  24.218   4.571
 2183W        W73712   6.710  15.017  13.977
 2184W        W73713  33.919   6.156   0.361
 2185W        W73714  14.359  21.018  12.287
 2186W        W73715  32.900  23.149   5.427
 2187W        W73716  44.248  18.448   2.746
 2188W        W73717  40.983  42.973   0.977
 2189W        W73718  38.658  30.619   0.423
 2190W        W73719  23.991  18.645  13.094
 2191W        W73720   8.289  44.491   4.533
 2192W        W73721   9.960  19.151  11.152
 2193W        W73722  37.942  40.042   3.857
 2194W        W73723  43.909   2.157   4.167
 2195W        W73724  42.823   4.757   3.144
 2196W        W73725  39.058  39.727   3.800
 2197W        W73726  21.416  43.479  12.000
 2198W        W73727  42.428  40.431  12.072
 2199W        W73728  25.884  38.336  11.596
 2200W        W73729  20.453  23.634   0.377
 2201W        W73730   9.197  25.415   4.175
 2202W        W73731  16.607  31.076  13.516
 2203W        W73732  24.233  18.253   3.309
 2204W        W73733  27.633  20.287   1.483
 2205W        W73734  28.590  18.579   1.438
 2206W        W73735  36.082  44.277   1.933
 2207W        W73736  29.268  25.059  14.740
 2208W        W73737  30.198  28.614   0.312
 2209W        W73738   6.277  22.454  14.408
 2210W        W73739   7.618  15.237  11.730
 2211W        W73740  20.569  11.836   0.344
 2212W        W73741   8.357  36.564   4.604
 2213W        W73742  13.374   1.197  11.168
 2214W        W73743  19.748  36.562   5.168
 2215W        W73744  10.630  23.596   2.160
 2216W        W73745  37.826  34.053  10.415
 2217W        W73746  23.620  19.856   2.740
 2218W        W73747   2.121  40.358   1.653
 2219W        W73748  32.407  24.578  13.290
 2220W        W73749   7.671  37.810   3.043
 2221W        W73750  41.090  37.604  14.939
 2222W        W73751  16.800  36.576  11.174
 2223W        W73752   7.654  42.976  13.470
 2224W        W73753  19.766  25.175   0.424
 2225W        W73754  27.258  15.118   4.582
 2226W        W73755   7.780  40.234  10.739
 2227W        W73756  39.284  43.359  12.213
 2228W        W73757   9.975  26.973   1.449
 2229W        W73758  17.595   6.757   3.139
 2230W        W73759  10.235  20.033  12.811
 2231W        W73760   5.888   4.991   0.262
 2232W        W73761  13.573  17.365  12.023
 2233W        W73762  17.434  31.597   4.535
 2234W        W73763  16.156  19.596   1.666
 2235W        W73764  23.027  17.622   2.381
 2236W        W73765  15.823  44.211   2.250
 2237W        W73766  40.074  22.660  12.031
 2238W        W73767   0.960  19.942   1.883
 2239W        W73768  18.570  15.984   3.247
 2240W        W73769  31.600   7.535  12.993
 2241W        W73770  11.238  23.044   0.830
 2242W        W73771  39.838  26.249  14.751
 2243W        W73772  35.591  34.675  12.910
 2244W        W73773   0.690  27.672  12.824
 2245W        W73774  31.861   6.393   1.657
 2246W        W73775  20.844   7.393   1.382
 2247W        W73776  22.137  13.662  10.595
 2248W        W73777  41.577  10.834   4.521
 2249W        W73778  37.734  38.509   1.527
 2250W        W73779  19.166  10.877  12.959
 2251W        W73780  16.504   7.368  11.998
 2252W        W73781  23.276  20.649  14.391
 2253W        W73782  18.663  34.724   4.135
 2254W        W73783  22.918  41.513   2.860
 2255W        W73784  15.343  11.312  11.581
 2256W        W73785  39.375  15.043  14.841
 2257W        W73786  44.855  33.921   0.104
 2258W        W73787  31.174   8.293  14.003
 2259W        W73788  26.555  32.347  14.328
 2260W        W73789   5.197  41.029  11.033
 2261W        W73790  25.749   8.356  11.094
 2262W        W73791   8.841   4.912  14.897
 2263W        W73792  13.186   6.947  12.800
 2264W        W73793  27.264   5.962  12.971
 2265W        W73794  35.636  40.185  11.285
 2266W        W73795  29.040  21.565  12.113
 2267W        W73796  14.179  26.710  10.728
 2268W        W73797  16.119  13.587   1.588
 2269W        W73798   7.456  39.006   3.540
 2270W        W73799  20.053  22.770   0.846
 2271W        W73800   1.925   9.700   4.665
 2272W        W73801  17.930  38.628  13.354
 2273W        W73802  18.906  43.827  10.982
 2274W        W73803  42.954  28.191   4.519
 2275W        W73804  31.361   8.249   2.027
 2276W        W73805  23.645  36.963   2.630
 2277W        W73806  42.649  14.270  13.583
 2278W        W73807   5.872  37.551  13.489
 2279W        W73808  44.780  34.017  13.568
 2280W        W73809  12.281  36.333  10.831
 2281W        W73810  26.446   7.829  14.189
 2282W        W73811  31.866  16.480  12.496
 2283W        W73812  23.261   5.170   1.372
 2284W        W73813  24.236  28.489   4.196
 2285W        W73814  35.095  28.534  13.409
 2286W        W73815  28.656  30.273  13.060
 2287W        W73816  38.844  44.698  13.522
 2288W        W73817  21.817   8.905   2.330
 2289W        W73818  34.125  15.621   0.296
 2290W        W73819  20.006   5.792  12.417
 2291W        W73820   6.872  16.807  13.214
 2292W        W73821  19.495   9.202   4.653
 2293W        W73822  40.443  31.987  14.844
 2294W        W73823  15.528   1.473  12.487
 2295W        W73824  11.752   8.295   2.715
 2296W        W73825  17.593  27.826   9.849
 2297W        W73826  33.070   4.460   1.814
 2298W        W73827  38.541  13.436   0.012
 2299W        W73828  38.873  32.700  10.704
 2300W        W73829  40.414  17.842  11.082
 2301W        W73830   6.870  27.978   4.565
 2302W        W73831  17.763   2.667   3.296
 2303W        W73832  36.035  22.306  12.677
 2304W        W73833  22.999  33.843  11.197
 2305W        W73834  42.720  32.871   1.727
 2306W        W73835  18.222  34.601  12.033
 2307W        W73836  14.077  41.641   2.679
 2308W        W73837   3.953   1.242   0.766
 2309W        W73838  25.654  13.329   3.798
 2310W        W73839  28.841  38.495  12.968
 2311W        W73840   4.815  15.309   3.255
 2312W        W73841  22.067  22.924  10.906
 2313W        W73842  27.100   2.253   1.364
 2314W        W73843   6.673  16.251   0.332
 2315W        W73844  21.282  19.141  14.720
 2316W        W73845   1.482  27.574  13.985
 2317W        W73846  20.151  28.474  13.749
 2318W        W73847  27.602  34.712   5.012
 2319W        W73848  26.305  14.564   3.708
 2320W        W73849  23.962  37.331  10.549
 2321W        W73850  30.411  10.204   0.727
 2322W        W73851  32.135  22.096  14.658
 2323W        W73852  10.387  16.448  10.960
 2324W        W73853  13.677  19.716  13.292
 2325W        W73854  30.684   3.019  11.540
 2326W        W73855  39.559  33.870  13.626
 2327W        W73856  42.912  10.850  14.027
 2328W        W73857   3.962  37.555   4.517
 2329W        W73858  19.484   6.132  10.822
 2330W        W73859  25.302  29.475   4.169
 2331W        W73860  44.442   5.807   0.530
 2332W        W73861  36.920   4.658   2.330
 2333W        W73862   3.365   1.669   3.105
 2334W        W73863  22.617  33.118   3.737
 2335W        W73864  28.690  19.084  12.885
 2336W        W73865  11.832  43.319   3.327
 2337W        W73866   0.352  17.268  12.318
 2338W        W73867  34.175  17.065   3.602
 2339W        W73868  35.546  32.147   0.054
 2340W        W73869  42.077  22.639   4.608
 2341W        W73870  10.645   2.956   1.180
 2342W        W73871   5.433  26.463   0.175
 2343W        W73872  35.501   8.381   2.402
 2344W        W73873   8.814  18.844   0.774
 2345W        W73874  27.598  11.740   3.828
 2346W        W73875   1.371  27.806  14.471
 2347W        W73876   5.699   8.308   0.005
 2348W        W73877  12.370  32.048  10.350
 2349W        W73878  11.431  14.193   4.170
 2350W        W73879  27.708   6.370   3.392
 2351W        W73880  21.268  39.965   1.008
 2352W        W73881  33.305   5.341  14.883
 2353W        W73882  28.324  29.892   3.269
 2354W        W73883  21.283  31.740  13.570
 2355W        W73884  20.996  19.710   2.391
 2356W        W73885  27.996  23.136   2.272
 2357W        W73886  30.381  11.712  11.626
 2358W        W73887  31.592  35.516  13.955
 2359W        W73888  15.038   3.320   0.763
 2360W        W73889  31.033  30.087   4.248
 2361W        W73890  42.789   8.872   0.044
 2362W        W73891  27.258  24.368   2.146
 2363W        W73892  16.923  28.167   0.536
 2364W        W73893   9.279  27.533  14.490
 2365W        W73894  39.569   7.345  11.017
 2366W        W73895   9.793  27.972   3.002
 2367W        W73896  41.673   8.846   4.172
 2368W        W73897  25.737   5.318  13.834
 2369W        W73898  26.910  38.095  13.865
 2370W        W73899  28.212  19.188  13.019
 2371W        W73900  23.668  12.666  11.991
 2372W        W73901  43.319  23.733  13.080
 2373W        W73902  21.218  43.049  11.208
 2374W        W73903  41.562  14.222   3.218
 2375W        W73904  10.733   5.291   1.471
 2376W        W73905  18.621  41.763   0.234
 2377W        W73906   4.194  29.259  13.963
 2378W        W73907  13.716   8.174  12.909
 2379W        W73908  18.155  33.000   2.349
 2380W        W73909  39.267  17.541  13.369
 2381W        W73910   1.152  29.020   3.860
 2382W        W73911  29.987  39.057  12.544
 2383W        W73912  44.838  20.806  14.760
 2384W        W73913   6.908  25.463   0.251
 2385W        W73914   2.362  32.887   4.049
 2386W        W73915  29.441  20.071   4.868
 2387W        W73916  20.208  28.634   3.228
 2388W        W73917  37.834   9.193   0.005
 2389W        W73918  28.218   0.383   4.236
 2390W        W73919   4.878   6.190  14.851
 2391W        W73920  38.597  11.067   2.373
 2392W        W73921   1.699  43.998  12.881
 2393W        W73922  35.036  23.634   1.352
 2394W        W73923   2.765  43.293  14.041
 2395W        W73924  13.459  11.338  12.109
 2396W        W73925  22.200  38.245  14.008
 2397W        W73926   3.663   3.321   2.397
 2398W        W73927   6.549  24.616   5.052
 2399W        W73928   0.319  23.300   3.160
 2400W        W73929  33.462  27.400   3.955
 2401W        W73930  34.025  37.676  14.588
 2402W        W73931  20.789  22.614   1.250
 2403W        W73932   8.455  38.799   1.702
 2404W        W73933  20.362   8.766  14.381
 2405W        W73934  14.190  39.926   2.288
 2406W        W73935  36.887   3.507   4.829
 2407W        W73936  31.711  27.524  13.610
 2408W        W73937  14.712  10.413  13.053
 2409W        W73938  30.002  21.642  14.467
 2410W        W73939  12.389  17.524  13.545
 2411W        W73940  41.331  10.168  12.784
 2412W        W73941   6.757  21.158   2.385
 2413W        W73942   9.075  25.897   4.812
 2414W        W73943  27.984  34.734  12.630
 2415W        W73944   4.828  28.581   0.608
 2416W        W73945  42.811  30.028   4.551
 2417W        W73946  28.034   0.075   3.831
 2418W        W73947  22.193  28.497  12.617
 2419W        W73948  22.442  34.190   3.720
 2420W        W73949  19.019  16.082  13.968
 2421W        W73950  33.261  41.446   1.169
 2422W        W73951  29.654  20.155   2.389
 2423W        W73952  23.513  43.104   2.828
 2424W        W73953  41.314  32.728   2.870
 2425W        W73954  41.352  23.741   2.506
 2426W        W73955  38.281  35.350  12.903
 2427W        W73956  35.327   5.805  13.857
 2428W        W73957  41.053  37.421   1.917
 2429W        W73958  16.803  28.511  11.061
 2430W        W73959  37.094  33.219   2.732
 2431W        W73960  36.418  30.941  14.721
 2432W        W73961  11.919   4.825   3.702
 2433W        W73962  28.512  30.874  12.292
 2434W        W73963  27.035  33.444  12.191
 2435W        W73964  34.570  28.925  14.800
 2436W        W73965  15.121  10.908   4.517
 2437W        W73966   6.743  38.379   2.775
 2438W        W73967   4.985  21.290   5.094
 2439W        W73968   1.090  35.871  12.650
 2440W        W73969  36.931  24.245  14.905
 2441W        W73970  33.895  21.368  10.672
 2442W        W73971   2.009  12.892   1.941
 2443W        W73972  25.424  14.745  13.852
 2444W        W73973  10.756  31.779  13.709
 2445W        W73974  24.842  15.990  11.217
 2446W        W73975  21.264   2.394   3.323
 2447W        W73976  17.420   4.268   4.218
 2448W        W73977   2.786  11.705   2.469
 2449W        W73978  25.737  15.981   1.643
 2450W        W73979  36.178  22.999  13.642
 2451W        W73980  20.633  40.935   5.063
 2452W        W73981  32.672  27.948   3.140
 2453W        W73982  40.946  19.680   1.861
 2454W        W73983  40.771   7.898  12.061
 2455W        W73984  25.438   1.998   3.742
 2456W        W73985  25.137  27.677   1.734
 2457W        W73986  23.652   1.327  13.589
 2458W        W73987  34.486  26.678   4.627
 2459W        W73988  38.501  27.730  14.401
 2460W        W73989  12.406   2.210   1.206
 2461W        W73990   4.071   0.216  10.506
 2462W        W73991   7.191  38.544  12.917
 2463W        W73992  33.648  34.929  14.949
 2464W        W73993  29.661  44.504   3.672
 2465W        W73994  11.913  25.469  11.506
 2466W        W73995  11.700  34.937  10.752
 2467W        W73996  22.471  10.784  14.854
 2468W        W73997  29.195  11.293   2.211
 2469W        W73998  19.135   3.330   3.736
 2470W        W73999  13.237  27.846  11.529
 2471W        W74000  26.558  30.513   0.805
 2472W        W74001  37.525   2.313   1.355
 2473W        W74002  25.879   3.021   5.130
 2474W        W74003  21.709  27.057  12.932
 2475W        W74004   0.864  40.178   0.777
 2476W        W74005  13.942  29.850  10.818
 2477W        W74006  16.695  34.873   4.311
 2478W        W74007  43.846  26.824  10.758
 2479W        W74008  15.062  43.468  14.418
 2480W        W74009  43.903  12.568  12.126
 2481W        W74010  11.342  28.890   2.170
 2482W        W74011  22.127  32.132   4.098
 2483W        W74012  22.214  26.839   1.231
 2484W        W74013   6.161  30.684  13.824
 2485W        W74014   3.248   2.745   3.880
 2486W        W74015  16.146  41.776  10.622
 2487W        W74016   2.538   6.670   0.309
 2488W        W74017  37.939  43.977  12.944
 2489W        W74018  19.795  42.974   0.795
 2490W        W74019  34.163  21.232   3.144
 2491W        W74020  16.080  42.425   2.713
 2492W        W74021  41.740  18.094  11.779
 2493W        W74022  18.219  16.078   2.310
 2494W        W74023  25.451  38.459  12.895
 2495W        W74024  23.937  31.958   4.665
 2496W        W74025  10.781   6.214   0.509
 2497W        W74026  41.393  37.558  13.056
 2498W        W74027   9.383  29.720  14.886
 2499W        W74028   5.390   0.977  13.884
 2500W        W74029  19.033  39.068   3.195
 2501W        W74030   4.958  39.492   4.552
 2502W        W74031  22.302   1.066  14.837
 2503W        W74032  14.849  31.519   4.645
 2504W        W74033  18.704  10.612  12.973
 2505W        W74034  23.948  43.793  11.296
 2506W        W74035  10.909   3.692  10.802
 2507W        W74036  18.083  30.131   0.288
 2508W        W74037  17.078   4.715   2.366
 2509W        W74038  19.034  43.974  14.948
 2510W        W74039  40.871  24.660  14.946
 2511W        W74040  29.017  29.204  13.542
 2512W        W74041  15.161  19.400   1.353
 2513W        W74042  36.643  20.023  11.836
 2514W        W74043  19.805  20.036   3.153
 2515W        W74044  28.743   8.733   1.941
 2516W        W74045  14.102  34.421   2.056
 2517W        W74046  37.757  42.967   3.752
 2518W        W74047   3.643   3.228   4.635
 2519W        W74048  36.564   6.721   3.685
 2520W        W74049  41.419  24.243  12.568
 2521W        W74050  13.969   4.401   0.934
 2522W        W74051  14.653  16.538  13.196
 2523W        W74052  42.544  44.555   1.253
 2524W        W74053  30.964  33.446   0.212
 2525W        W74054  25.293  32.392  13.863
 2526W        W74055  19.302  18.310  10.918
 2527W        W74056  40.671  15.122   2.222
 2528W        W74057  44.334  33.326  12.789
 2529W        W74058  23.438   4.277   1.322
 2530W        W74059  39.988   7.740  12.448
 2531W        W74060   8.347  39.426  14.997
 2532W        W74061  15.895  25.203   2.702
 2533W        W74062  36.413  42.257  14.648
 2534W        W74063  29.384  31.177  12.485
 2535W        W74064   1.275  22.709  14.872
 2536W        W74065  23.587  38.299  10.950
 2537W        W74066  14.572  40.244  14.567
 2538W        W74067   7.355  43.198   3.399
 2539W        W74068  30.921  15.610   4.028
 2540W        W74069  36.747  13.980   2.236
 2541W        W74070   7.384  34.782   2.767
 2542W        W74071   4.605  28.864  14.606
 2543W        W74072  15.053  24.582  11.163
 2544W        W74073  22.533  41.978   4.852
 2545W        W74074  13.754  17.991   2.170
 2546W        W74075  22.449   3.397  13.250
 2547W        W74076  32.131  24.052  12.648
 2548W        W74077  16.294  35.172  12.971
 2549W        W74078  44.808  19.789  13.940
 2550W        W74079   3.494  12.171   3.985
 2551W        W74080  16.655  38.959   1.244
 2552W        W74081  44.213  42.561   0.514
 2553W        W74082  37.202  26.151  13.366
 2554W        W74083   7.681   6.379  13.888
 2555W        W74084  21.197  20.678   0.382
 2556W        W74085   1.696   9.351   2.546
 2557W        W74086  40.295  38.417  13.505
 2558W        W74087   8.659  26.092   0.544
 2559W        W74088  34.684  43.830   4.238
 2560W        W74089   3.479  11.585   4.583
 2561W        W74090  13.595  32.934   2.065
 2562W        W74091  35.197  40.366   0.852
 2563W        W74092   4.387  22.206  14.420
 2564W        W74093   4.131  23.038  11.113
 2565W        W74094  12.439  23.268   3.807
 2566W        W74095  20.181   8.754   2.005
 2567W        W74096  12.755  19.556   2.674
 2568W        W74097  34.562  14.718   0.982
 2569W        W74098   2.536  15.790  12.987
 2570W        W74099  25.947  12.084  10.651
 2571W        W74100   5.633   5.206   1.644
 2572W        W74101   0.052   9.379   4.820
 2573W        W74102  40.389   6.899   1.646
 2574W        W74103  35.611  25.277  11.036
 2575W        W74104  38.426  39.454   1.227
 2576W        W74105  12.468  13.816  12.921
 2577W        W74106  43.466   3.991   0.731
 2578W        W74107  26.097   2.604  13.847
 2579W        W74108  10.172  41.731   2.326
 2580W        W74109  28.033  40.045  11.701
 2581W        W74110   7.285   0.632  12.542
 2582W        W74111  31.970  43.156   4.151
 2583W        W74112  42.300   9.035   2.474
 2584W        W74113   3.957  39.885  14.474
 2585W        W74114   0.141  43.487   3.637
 2586W        W74115  26.684  33.213  11.059
 2587W        W74116  34.826  16.332   3.073
 2588W        W74117  29.563  43.025  11.621
 2589W        W74118  28.589  25.893  13.998
 2590W        W74119  16.532  12.699   1.265
 2591W        W74120  36.063  16.360  11.097
 2592W        W74121  13.336  35.519   4.639
 2593W        W74122   2.914   0.001   2.994
 2594W        W74123  21.550   9.571   2.840
 2595W        W74124  23.865   7.290  11.127
 2596W        W74125  13.675  34.225   2.276
 2597W        W74126  20.950  17.801   1.448
 2598W        W74127   8.662  39.938   1.373
 2599W        W74128  12.867  27.972   2.057
 2600W        W74129  21.718  31.660  10.514
 2601W        W74130  36.010  32.884  11.956
 2602W        W74131   6.191  10.146   1.628
 2603W        W74132  42.996   7.127   3.288
 2604W        W74133   5.012   7.837  10.731
 2605W        W74134  16.319  36.633   4.241
 2606W        W74135  18.841  27.070   1.763
 2607W        W74136  27.219  40.885   4.501
 2608W        W74137   0.385   7.644   0.616
 2609W        W74138  32.912  17.715  10.634
 2610W        W74139  44.165   3.995   1.721
 2611W        W74140  12.378  24.726   4.670
 2612W        W74141  15.100  41.255  13.426
 2613W        W74142   0.498  26.985  10.769
 2614W        W74143  41.240  15.129  14.885
 2615W        W74144  42.799  25.508  13.073
 2616W        W74145  29.886  44.282   9.769
 2617W        W74146  32.525  10.196  14.357
 2618W        W74147   8.869  20.573   1.638
 2619W        W74148  29.317  28.257   4.946
 2620W        W74149  35.994   4.936   2.165
 2621W        W74150  33.951  23.080  11.144
 2622W        W74151  32.075  42.632   1.434
 2623W        W74152  34.855  10.234  13.034
 2624W        W74153  16.728  26.435  11.121
 2625W        W74154   3.022  23.920  12.921
 2626W        W74155  13.353  40.380  12.093
 2627W        W74156  32.416  23.343   4.339
 2628W        W74157  42.055  24.278   2.708
 2629W        W74158  44.982  17.398   0.379
 2630W        W74159  34.851  19.587   3.576
 2631W        W74160  43.853  18.087   4.780
 2632W        W74161  10.770   7.316  13.115
 2633W        W74162   5.297  25.648  12.030
 2634W        W74163  16.685  26.970   1.606
 2635W        W74164  23.415  18.672   4.971
 2636W        W74165   5.210  41.384   4.585
 2637W        W74166  21.667  41.258  11.680
 2638W        W74167   0.973   8.027  11.367
 2639W        W74168  42.442  23.471  14.060
 2640W        W74169  33.422  12.872  10.699
 2641W        W74170   3.361  34.982  14.914
 2642W        W74171   8.821  20.670   0.651
 2643W        W74172   2.440   7.935   4.793
 2644W        W74173  14.839  18.675  11.032
 2645W        W74174  39.528  43.089  13.261
 2646W        W74175  24.769  14.594  14.477
 2647W        W74176  30.079  21.150  14.257
 2648W        W74177  28.303  22.822   3.228
 2649W        W74178  44.359   6.142   0.154
 2650W        W74179  10.745  19.126   4.119
 2651W        W74180  40.022  23.039  12.581
 2652W        W74181   0.204  25.627   2.529
 2653W        W74182  41.004  17.948   2.132
 2654W        W74183  26.392  37.493   3.812
 2655W        W74184  30.610  18.256   3.738
 2656W        W74185  30.509  34.547   1.849
 2657W        W74186  26.479   3.932   1.481
 2658W        W74187   2.768  15.859  11.991
 2659W        W74188  37.918  16.072  12.391
 2660W        W74189  22.175   9.683   1.873
 2661W        W74190  27.392  14.274   4.519
 2662W        W74191   8.394  39.504  10.867
 2663W        W74192  35.874  26.898   3.944
 2664W        W74193  21.568  43.487   2.429
 2665W        W74194   5.137  37.293  13.432
 2666W        W74195  29.576  24.131   2.474
 2667W        W74196  42.564  41.822  11.506
 2668W        W74197  21.688  36.845   4.596
 2669W        W74198  13.278  28.444  11.964
 2670W        W74199   7.346   3.143   2.448
 2671W        W74200  12.447  17.991  14.954
 2672W        W74201  27.058  13.737  12.918
 2673W        W74202   7.184  15.214   2.552
 2674W        W74203  25.419  17.167  14.999
 2675W        W74204  27.614  40.496  12.053
 2676W        W74205   9.326  24.372  10.636
 2677W        W74206  13.292  26.904  11.574
 2678W        W74207  10.170   9.856   2.317
 2679W        W74208  25.496  14.513   2.018
 2680W        W74209  34.078  13.178  14.059
 2681W        W74210   3.229  17.584  14.592
 2682W        W74211  33.357   2.741  11.132
 2683W        W74212  17.453  33.909   1.424
 2684W        W74213  23.738  20.610  12.021
 2685W        W74214  17.091   9.794   3.726
 2686W        W74215   3.754   3.397  12.294
 2687W        W74216   8.378  41.038  13.332
 2688W        W74217  31.143  44.276  11.499
 2689W        W74218  20.659  13.875   4.603
 2690W        W74219  39.522  42.776   3.865
 2691W        W74220  11.420  17.088  13.514
 2692W        W74221  34.630  21.572   2.849
 2693W        W74222  38.052  41.275  10.722
 2694W        W74223  16.168  41.117   0.993
 2695W        W74224  16.798  37.605  14.059
 2696W        W74225  17.200  11.924   1.308
 2697W        W74226  18.148  18.135  12.356
 2698W        W74227   4.133  17.095  12.209
 2699W        W74228  38.505  10.246   0.296
 2700W        W74229  37.842   1.427   0.941
 2701W        W74230  36.156  25.784  10.505
 2702W        W74231  40.021  30.564  14.482
 2703W        W74232  41.106  16.903   0.907
 2704W        W74233   1.258  30.669  11.512
 2705W        W74234   9.853  34.967   4.959
 2706W        W74235  25.025   1.338  14.957
 2707W        W74236   4.387   5.174   1.990
 2708W        W74237  10.566  21.987  14.561
 2709W        W74238  16.298   7.518   4.116
 2710W        W74239  31.846  17.750  13.089
 2711W        W74240  18.159  24.531  13.968
 2712W        W74241   7.424  33.989   0.174
 2713W        W74242  40.331  10.187  14.299
 2714W        W74243  23.434  31.612  11.421
 2715W        W74244  30.911  27.242  14.793
 2716W        W74245  11.474  10.412   0.947
 2717W        W74246  31.370   9.034   1.487
 2718W        W74247  36.112  16.706   0.365
 2719W        W74248  21.160  11.669  14.484
 2720W        W74249  28.974   5.217  14.789
 2721W        W74250  38.365   2.656   1.490
 2722W        W74251   1.249  40.860  14.840
 2723W        W74252  30.034  41.388   1.731
 2724W        W74253  12.194  37.057  10.430
 2725W        W74254   6.275  19.164   0.921
 2726W        W74255  14.328  20.759   3.058
 2727W        W74256  26.878  31.623   4.952
 2728W        W74257   0.018  36.338   3.664
 2729W        W74258  40.860   9.829   0.261
 2730W        W74259   9.952   4.181   0.227
 2731W        W74260  29.541  43.678  11.955
 2732W        W74261   5.565  43.858   1.277
 2733W        W74262  21.002  22.666  13.402
 2734W        W74263  13.292  41.805   2.174
 2735W        W74264  10.593  39.572  12.102
 2736W        W74265  20.532  31.671   4.426
 2737W        W74266   8.010  37.577   1.892
 2738W        W74267  34.967   1.809   3.295
 2739W        W74268   5.511  26.622  14.202
 2740W        W74269  43.725  39.133   0.754
 2741W        W74270  15.158  44.845  11.537
 2742W        W74271  21.948  14.105   1.669
 2743W        W74272  35.016  44.850   0.423
 2744W        W74273  40.109  37.630   2.798
 2745W        W74274  43.828  20.934  11.404
 2746W        W74275  19.027  12.246  13.369
 2747W        W74276   3.490   6.211   4.178
 2748W        W74277  26.730  36.946  14.324
 2749W        W74278  23.109  40.479  14.453
 2750W        W74279  22.141  10.316   3.160
 2751W        W74280  17.551   1.654  11.441
 2752W        W74281  12.773  41.775  13.519
 2753W        W74282  14.004  34.198  11.343
 2754W        W74283  24.056  34.329  13.343
 2755W        W74284  39.571  43.218   5.109
 2756W        W74285  31.478  22.113  14.073
 2757W        W74286  22.615  11.122  10.210
 2758W        W74287  10.554  43.927   4.420
 2759W        W74288  11.905  30.285  13.961
 2760W        W74289  39.147  21.644   0.906
 2761W        W74290  11.348  27.961  10.799
 2762W        W74291  32.937   8.794  12.266
 2763W        W74292  17.381   0.737   4.233
 2764W        W74293   6.434  41.402   3.729
 2765W        W74294  39.027   4.538   2.238
 2766W        W74295  22.611   5.217  10.643
 2767W        W74296  34.435  16.300  12.628
 2768W        W74297  34.512  18.129   4.609
 2769W        W74298  33.912  18.718  10.698
 2770W        W74299  33.303  20.022   2.925
 2771W        W74300   2.466   6.773   3.045
 2772W        W74301   2.398  41.993   0.510
 2773W        W74302  18.016  39.347  12.457
 2774W        W74303  43.441  38.833  10.495
 2775W        W74304   9.271   2.719   3.697
 2776W        W74305  37.288   3.744  11.402
 2777W        W74306  37.692  36.891   2.852
 2778W        W74307  19.863  32.472  14.372
 2779W        W74308  12.811   6.030  11.053
 2780W        W74309  17.747  44.424   1.284
 2781W        W74310   6.290  44.745   2.868
 2782W        W74311   6.440  30.514  12.929
 2783W        W74312  39.885   7.567   0.964
 2784W        W74313   0.116  39.278  11.139
 2785W        W74314  27.681  38.390  13.986
 2786W        W74315  15.678  37.108  10.777
 2787W        W74316  30.144  30.643   4.246
 2788W        W74317  36.336   5.215   1.372
 2789W        W74318  26.150   1.616   1.006
 2790W        W74319  41.899  30.875  11.999
 2791W        W74320  30.662  12.476   2.124
 2792W        W74321  19.703  44.862   1.437
 2793W        W74322  37.947  30.114  14.913
 2794W        W74323  10.141  28.102   0.437
 2795W        W74324  40.999  42.845   4.088
 2796W        W74325  43.974  37.181  14.287
 2797W        W74326  30.776  29.539   2.457
 2798W        W74327  16.748  42.442  13.052
 2799W        W74328   7.732   3.293   2.761
 2800W        W74329  35.812   9.927  11.536
 2801W        W74330  18.138  44.950  12.371
 2802W        W74331  19.094   1.927   1.176
 2803W        W74332  14.271  12.603   2.333
 2804W        W74333  10.704  24.451  12.116
 2805W        W74334  43.610  35.083   0.847
 2806W        W74335  39.483  40.993   2.129
 2807W        W74336  28.205   1.513  11.100
 2808W        W74337  41.942  14.677  12.172
 2809W        W74338   6.407   5.168   3.301
 2810W        W74339  40.540  21.351   4.064
 2811W        W74340  11.617  42.250   4.194
 2812W        W74341  36.943  35.424   4.646
 2813W        W74342  30.539  37.343   2.668
 2814W        W74343  30.564  21.284  14.223
 2815W        W74344  30.909  34.414  13.956
 2816W        W74345  10.387  13.997   4.229
 2817W        W74346   0.342  25.710  12.659
 2818W        W74347  44.534  37.471   3.232
 2819W        W74348  14.318  15.862  14.864
 2820W        W74349  37.967  26.151   3.388
 2821W        W74350  20.637  35.540   3.611
 2822W        W74351  13.832  19.271  13.530
 2823W        W74352  27.078  20.639   4.195
 2824W        W74353  23.658  24.826  12.427
 2825W        W74354   7.342  23.711  10.696
 2826W        W74355  40.040   3.847   1.217
 2827W        W74356  37.299  15.672  11.167
 2828W        W74357  27.751  43.412  10.798
 2829W        W74358  43.417  35.410   1.323
 2830W        W74359   4.395   7.654  12.035
 2831W        W74360  23.765  19.641   3.183
 2832W        W74361  38.327  29.055  12.425
 2833W        W74362  25.749  20.714   1.757
 2834W        W74363  27.579  23.295   2.857
 2835W        W74364  11.100   0.978   3.206
 2836W        W74365  27.913  16.013   3.307
 2837W        W74366  10.492   4.757  14.743
 2838W        W74367  33.955  35.797  12.395
 2839W        W74368  27.137  16.187   0.047
 2840W        W74369  22.197   4.386   1.836
 2841W        W74370  26.464   4.530   2.886
 2842W        W74371  23.554  37.855   2.936
 2843W        W74372  19.539  20.987   3.620
 2844W        W74373   8.751   3.679   2.691
 2845W        W74374  11.421   3.705   0.390
 2846W        W74375   4.794   8.943  13.060
 2847W        W74376  37.529  10.839   0.015
 2848W        W74377   1.202  16.584   2.127
 2849W        W74378   2.966  19.320   2.361
 2850W        W74379  42.557  23.131  12.232
 2851W        W74380  43.913  26.968  14.440
 2852W        W74381  43.587  33.523  10.168
 2853W        W74382  22.859  44.050  10.035
 2854W        W74383  34.135  13.703  12.715
 2855W        W74384  24.421  34.926   0.865
 2856W        W74385  31.864  20.425  11.521
 2857W        W74386  40.068  23.174   2.292
 2858W        W74387  33.976  42.024  11.589
 2859W        W74388  10.183  25.409   4.770
 2860W        W74389  38.861  22.501  12.215
 2861W        W74390   0.920   9.364  14.387
 2862W        W74391  42.036  16.086  10.964
 2863W        W74392  12.764   5.707  14.944
 2864W        W74393   5.142  42.593   3.174
 2865W        W74394  12.069  16.145  10.540
 2866W        W74395  40.547  44.279  14.885
 2867W        W74396  30.208  29.879   0.917
 2868W        W74397  44.478  21.183  10.209
 2869W        W74398  12.587  20.656  12.047
 2870W        W74399   2.513   6.267   2.747
 2871W        W74400  35.001  10.571   2.687
 2872W        W74401  43.080  39.864   2.900
 2873W        W74402  15.062  41.771  13.422
 2874W        W74403  23.631   1.905  11.556
 2875W        W74404  16.650  39.109   2.675
 2876W        W74405  22.213  29.946  12.465
 2877W        W74406  34.221  18.221  14.029
 2878W        W74407  22.844  18.179  10.698
 2879W        W74408  14.366  11.227  12.535
 2880W        W74409  19.806  36.591   3.321
 2881W        W74410  27.446  28.055  12.394
 2882W        W74411  17.533  12.638   4.221
 2883W        W74412  12.622   9.204  12.197
 2884W        W74413  30.061   0.816  13.778
 2885W        W74414  16.277  36.615   2.303
 2886W        W74415  28.208  35.897   0.711
 2887W        W74416  43.596  41.413   0.020
 2888W        W74417  20.921  23.260   0.473
 2889W        W74418  18.237   8.300   0.400
 2890W        W74419   8.985  11.580   3.856
 2891W        W74420  10.773   7.394   4.733
 2892W        W74421  28.502  13.632   0.385
 2893W        W74422  24.865  39.870   4.113
 2894W        W74423   1.323  39.106   2.889
 2895W        W74424  31.960   1.771  12.446
 2896W        W74425  36.649  41.907   3.335
 2897W        W74426  18.204  25.935  13.506
 2898W        W74427  25.010   1.343  10.677
 2899W        W74428  33.129  31.595  11.460
 2900W        W74429  16.933  23.154  10.647
 2901W        W74430  25.470  21.653   4.329
 2902W        W74431  24.080  44.002   0.233
 2903W        W74432  29.070  42.249  13.970
 2904W        W74433  17.539   3.905  12.948
 2905W        W74434   1.933  44.681   3.701
 2906W        W74435  16.348  24.149  12.867
 2907W        W74436  13.750  24.715  14.229
 2908W        W74437  16.151  28.921  12.005
 2909W        W74438  42.831  37.253   4.520
 2910W        W74439  22.982   3.977   0.822
 2911W        W74440  10.465  24.576   4.825
 2912W        W74441   7.179  30.175   0.873
 2913W        W74442  23.526  14.042   4.088
 2914W        W74443  33.194  30.993   0.759
 2915W        W74444   9.173  32.453  10.836
 2916W        W74445   7.827  36.086   0.357
 2917W        W74446  21.659  40.303   1.357
 2918W        W74447   4.976  35.065   4.189
 2919W        W74448  10.863  17.033  14.462
 2920W        W74449  36.566  11.429   0.177
 2921W        W74450   0.958   1.906  13.453
 2922W        W74451  11.201  42.257  12.645
 2923W        W74452  28.604  19.502   0.260
 2924W        W74453  37.561  42.519   3.573
 2925W        W74454  29.027  25.259   2.140
 2926W        W74455  38.916  42.350   2.750
 2927W        W74456  32.584  24.285   3.178
 2928W        W74457  30.713  31.282   2.297
 2929W        W74458  38.080   6.798   2.806
 2930W        W74459  31.052  35.340  11.611
 2931W        W74460  41.847  25.894  12.977
 2932W        W74461   5.837  33.350   2.098
 2933W        W74462  42.948  21.625   3.311
 2934W        W74463  33.470   3.210  12.135
 2935W        W74464  39.892   8.560  14.471
 2936W        W74465  40.007  12.197  11.877
 2937W        W74466   4.841  30.537   9.771
 2938W        W74467  24.532  28.870   2.417
 2939W        W74468  34.762  40.025  12.010
 2940W        W74469   2.791  10.480   4.541
 2941W        W74470  40.026  29.944  10.512
 2942W        W74471  18.870  27.719  14.756
 2943W        W74472   2.030  44.188   3.848
 2944W        W74473  15.915  14.176   1.771
 2945W        W74474  21.594  44.782  14.548
 2946W        W74475  13.735  27.210  11.465
 2947W        W74476  29.664  43.187  10.635
 2948W        W74477  44.474  37.056   4.580
 2949W        W74478  21.218  18.999  12.826
 2950W        W74479  23.789  44.742   4.877
 2951W        W74480  23.033  14.899   0.961
 2952W        W74481  12.317  39.403  10.863
 2953W        W74482  41.067  10.670  13.636
 2954W        W74483   6.888  13.984   0.527
 2955W        W74484  25.561  16.976   4.985
 2956W        W74485   5.397   9.389   4.288
 2957W        W74486   4.427  22.755   0.763
 2958W        W74487  25.463  44.497   3.310
 2959W        W74488  36.413  22.016  12.897
 2960W        W74489  41.967  24.698   0.312
 2961W        W74490   5.315  11.207  13.633
 2962W        W74491  42.797  27.532  14.590
 2963W        W74492   8.690  18.891  11.900
 2964W        W74493  13.695  27.119  13.014
 2965W        W74494  18.487  19.450   4.326
 2966W        W74495   9.207  27.897   4.653
 2967W        W74496  11.892  31.920  10.112
 2968W        W74497  22.068  39.729   1.369
 2969W        W74498  22.501  12.173   3.545
 2970W        W74499   5.743   2.307   1.456
 2971W        W74500  18.989  16.604  13.984
 2972W        W74501  27.991  43.670  12.069
 2973W        W74502  40.126  10.831   2.439
 2974W        W74503  19.040  40.698   1.791
 2975W        W74504   6.953  28.603   1.843
 2976W        W74505  43.405  30.861   2.638
 2977W        W74506   5.400  21.454   3.542
 2978W        W74507   8.127  28.557   2.836
 2979W        W74508  16.783  33.960   2.003
 2980W        W74509   4.353  14.592  10.970
 2981W        W74510  25.156   0.518  11.259
 2982W        W74511  31.629   1.468  12.000
 2983W        W74512  36.667  37.139  11.150
 2984W        W74513  40.717   6.542   1.361
 2985W        W74514  18.989  38.062  10.779
 2986W        W74515  23.481  16.831  12.993
 2987W        W74516   0.707  36.111  11.737
 2988W        W74517  33.995  36.949   2.724
 2989W        W74518  26.634  41.406   1.948
 2990W        W74519  18.634  31.385   0.832
 2991W        W74520  12.719   4.257   2.128
 2992W        W74521  17.726  23.973  10.535
 2993W        W74522  37.633  44.453  11.388
 2994W        W74523  36.094  31.643   0.893
 2995W        W74524   7.429  22.570  14.883
 2996W        W74525  37.665  24.000  13.992
 2997W        W74526   0.208  13.594  10.742
 2998W        W74527  33.735   1.776  13.869
 2999W        W74528  12.335  30.000  12.046
 3000W        W74529  16.978  32.994  12.911
 3001W        W74530  44.697  29.512  13.887
 3002W        W74531  12.059  13.137   2.426
 3003W        W74532   7.142   5.267   0.765
 3004W        W74533  14.031  39.410  12.981
 3005W        W74534   5.172  12.581  12.482
 3006W        W74535  38.998  17.585   3.749
 3007W        W74536  33.662  42.947   2.372
 3008W        W74537  26.120  24.737   2.410
 3009W        W74538  38.603  30.122  11.703
 3010W        W74539  18.350   5.487   3.582
 3011W        W74540  40.104  31.540   4.620
 3012W        W74541  42.422   2.740   2.094
 3013W        W74542  38.950  10.170   2.590
 3014W        W74543   2.363   2.402  12.207
 3015W        W74544  12.950  13.652  11.939
 3016W        W74545  39.745  27.840   3.136
 3017W        W74546  19.757  12.222   2.228
 3018W        W74547  42.780   0.861  14.980
 3019W        W74548  33.372  15.062  10.127
 3020W        W74549  30.763  16.098  10.268
 3021W        W74550   9.876  32.193   0.586
 3022W        W74551  10.550  30.095   3.675
 3023W        W74552  31.083  37.336   3.901
 3024W        W74553  23.672  44.280  10.586
 3025W        W74554  41.880   0.177  12.279
 3026W        W74555  33.345  43.421  13.533
 3027W        W74556  33.496  16.011  14.275
 3028W        W74557  24.111  42.023   0.980
 3029W        W74558  36.801  10.573  12.155
 3030W        W74559  35.966  31.529   3.272
 3031W        W74560  11.890  16.829  13.323
 3032W        W74561  28.341   1.071   0.841
 3033W        W74562   3.392  25.497  13.013
 3034W        W74563  40.313  25.782  13.570
 3035W        W74564   0.822   6.712   4.460
 3036W        W74565  36.045  23.189   0.484
 3037W        W74566  44.757  19.085   3.213
 3038W        W74567  19.659  32.672  10.674
 3039W        W74568  35.945  31.058  13.460
 3040W        W74569  15.198   6.721   4.555
 3041W        W74570  11.777   8.134   4.873
 3042W        W74571  28.945  19.033   3.167
 3043W        W74572   6.221  44.076   4.230
 3044W        W74573   5.934  35.902  12.147
 3045W        W74574  34.016  29.502  13.866
 3046W        W74575  12.543  27.949   4.141
 3047W        W74576  40.768  38.284  10.953
 3048W        W74577  14.629  28.746   4.681
 3049W        W74578  10.763  44.905  13.872
 3050W        W74579  35.947  30.068  10.677
 3051W        W74580  22.381  19.889  13.095
 3052W        W74581  27.574  24.738  10.971
 3053W        W74582  11.945  31.380  12.876
 3054W        W74583  27.226  42.530  12.230
 3055W        W74584  34.964  31.797  12.099
 3056W        W74585  40.541   6.213  12.055
 3057W        W74586  23.818  27.979  11.746
 3058W        W74587  14.581  15.739   2.777
 3059W        W74588  22.980  27.773  14.386
 3060W        W74589  24.898   0.356  14.579
 3061W        W74590   7.299  35.556  10.850
 3062W        W74591  16.701   8.857  13.615
 3063W        W74592  32.109  20.821   2.280
 3064W        W74593   2.906  43.045   2.674
 3065W        W74594  29.059  26.278   3.459
 3066W        W74595  11.132  12.512   3.671
 3067W        W74596  26.678  35.545   1.746
 3068W        W74597  40.431  21.351  12.117
 3069W        W74598  20.164  16.038   3.754
 3070W        W74599  38.876  39.250  12.071
 3071W        W74600  13.722  15.798  11.937
 3072W        W74601   9.327  25.610  14.417
 3073W        W74602  28.522  28.576  10.648
 3074W        W74603  27.871  42.453  11.653
 3075W        W74604  33.584  27.699  14.139
 3076W        W74605  19.732   5.512  12.773
 3077W        W74606  32.242  13.043  12.492
 3078W        W74607  38.703  35.758   1.445
 3079W        W74608  38.999  41.184  11.600
 3080W        W74609  35.108  21.822   3.570
 3081W        W74610  20.262  42.931  10.099
 3082W        W74611  39.992  34.422  14.828
 3083W        W74612   3.415  35.130   0.955
 3084W        W74613  24.489   3.209   3.674
 3085W        W74614   7.397  38.806   4.025
 3086W        W74615  37.326  34.933   1.400
 3087W        W74616  35.818  38.318   3.126
 3088W        W74617  42.106  34.304  13.409
 3089W        W74618  12.585  21.428  11.430
 3090W        W74619  44.282  13.257   4.455
 3091W        W74620  19.590  33.600   2.996
 3092W        W74621  30.193  10.679   2.846
 3093W        W74622  43.840  28.058   1.295
 3094W        W74623  17.641  31.505  13.488
 3095W        W74624  37.835  18.644  13.510
 3096W        W74625  31.391  29.179   0.913
 3097W        W74626  44.116  43.138   5.069
 3098W        W74627  33.146  13.973   3.370
 3099W        W74628  28.978  42.568  12.463
 3100W        W74629  20.112  42.536   2.210
 3101W        W74630   8.685   6.493   5.133
 3102W        W74631  38.769  24.812  12.569
 3103W        W74632  20.253  36.478  14.190
 3104W        W74633   5.148   8.473  12.987
 3105W        W74634  33.961   5.735   0.919
 3106W        W74635  44.017  36.278   1.421
 3107W        W74636  27.373  10.219  10.624
 3108W        W74637   3.032  32.704   4.305
 3109W        W74638   1.063  22.982  12.147
 3110W        W74639  32.241  32.181  14.864
 3111W        W74640  27.718  26.309   0.797
 3112W        W74641  17.192   6.838  14.235
 3113W        W74642   9.378  17.807  14.029
 3114W        W74643   0.918  24.260  12.859
 3115W        W74644  39.932  33.653  13.968
 3116W        W74645   6.342   7.836   1.575
 3117W        W74646  15.650   5.358  14.362
 3118W        W74647  38.021   7.308  12.670
 3119W        W74648   1.520   5.750   1.308
 3120W        W74649  35.503  16.624   4.658
 3121W        W74650  18.911  10.932  12.031
 3122W        W74651   2.945  42.458   0.409
 3123W        W74652  31.319  44.762  12.604
 3124W        W74653  20.628   2.805   1.710
 3125W        W74654  44.206  44.213   1.751
 3126W        W74655  22.257  26.082   4.406
 3127W        W74656  41.084  27.919   0.423
 3128W        W74657  36.638  12.864   4.045
 3129W        W74658   9.749   8.828  13.395
 3130W        W74659  18.574  27.451  12.949
 3131W        W74660   1.270  32.511   4.259
 3132W        W74661  10.362  28.197   0.927
 3133W        W74662  14.058   9.742   4.516
 3134W        W74663  19.495   6.347   0.766
 3135W        W74664  38.032  37.900  11.228
 3136W        W74665  32.177  15.298   4.337
 3137W        W74666  34.584  23.867  14.790
 3138W        W74667  36.317   3.617  13.873
 3139W        W74668  36.640   0.441   2.389
 3140W        W74669  28.866  29.875  12.104
 3141W        W74670   2.192   0.349   2.673
 3142W        W74671   6.936  30.635  12.939
 3143W        W74672  31.092  19.070   3.617
 3144W        W74673   7.363  25.596   3.749
 3145W        W74674  40.855  29.596   1.837
 3146W        W74675  27.620  44.790   4.755
 3147W        W74676   1.889  32.160   2.687
 3148W        W74677  23.265  43.264  13.416
 3149W        W74678  12.641  24.180   3.607
 3150W        W74679  21.188  15.191  13.445
 3151W        W74680   4.955   9.656  14.056
 3152W        W74681  23.511  20.454  13.933
 3153W        W74682  18.469  18.654  12.184
 3154W        W74683  24.682  19.275   1.323
 3155W        W74684  18.265  29.122   0.852
 3156W        W74685   5.287  42.794   1.358
 3157W        W74686  43.433  26.744   2.388
 3158W        W74687  41.425   9.978  11.240
 3159W        W74688  38.044  30.988   4.624
 3160W        W74689  30.727   4.826   2.944
 3161W        W74690  20.965  35.580   3.111
 3162W        W74691  25.498  22.657   0.747
 3163W        W74692   8.885   2.983   1.517
 3164W        W74693  35.564  22.364   0.167
 3165W        W74694  10.564  26.981  11.078
 3166W        W74695  43.558  15.412  14.397
 3167W        W74696  32.608  25.251  12.462
 3168W        W74697  19.627  32.058   3.296
 3169W        W74698  30.318  26.717   3.289
 3170W        W74699  22.719   0.679  11.967
 3171W        W74700   0.923  43.949  14.394
 3172W        W74701  21.760  30.514   3.608
 3173W        W74702  21.380  30.376   0.829
 3174W        W74703  33.111   1.626  14.948
 3175W        W74704  36.389  15.738   2.269
 3176W        W74705  39.469  37.690  11.447
 3177W        W74706  43.375   9.855   3.528
 3178W        W74707  38.781   1.398  12.447
 3179W        W74708  15.851   6.123   4.124
 3180W        W74709   5.426  31.333  10.378
 3181W        W74710   8.748   2.829  14.505
 3182W        W74711  36.286   9.707   2.231
 3183W        W74712   4.762  27.429   1.477
 3184W        W74713  24.057   4.781   1.895
 3185W        W74714  17.797   4.425  13.820
 3186W        W74715  34.904  13.085   1.398
 3187W        W74716  20.980  20.456  14.036
 3188W        W74717  31.825  17.706   3.445
 3189W        W74718  16.373   3.127  14.486
 3190W        W74719  27.164  27.531   1.384
 3191W        W74720  23.697  19.622  11.923
 3192W        W74721  27.764  39.177  12.585
 3193W        W74722  30.913  21.041   1.277
 3194W        W74723  32.615  11.676   4.640
 3195W        W74724  14.361  13.302  14.980
 3196W        W74725  20.925  13.602   2.261
 3197W        W74726  35.997  17.169  13.337
 3198W        W74727   6.964  16.607   4.261
 3199W        W74728   8.622  17.148   1.298
 3200W        W74729  11.841   4.110  12.173
 3201W        W74730  34.053   6.958   1.829
 3202W        W74731   9.811   9.716   4.714
 3203W        W74732  16.073  27.163  10.846
 3204W        W74733  37.048  18.649   2.497
 3205W        W74734   1.709  12.376   4.637
 3206W        W74735   1.011  27.565  13.763
 3207W        W74736   1.203  24.950   3.501
 3208W        W74737   0.654  13.614  11.486
 3209W        W74738  27.153  11.479  10.978
 3210W        W74739   7.149  33.389  11.915
 3211W        W74740  20.081  12.853  14.781
 3212W        W74741  14.042  19.679  11.575
 3213W        W74742  13.744  37.070   2.736
 3214W        W74743  28.349  41.733   1.903
 3215W        W74744   9.644  20.277  12.432
 3216W        W74745  31.959  42.943  11.911
 3217W        W74746  40.345   8.869   0.856
 3218W        W74747  44.064  39.394  13.052
 3219W        W74748  15.142   2.976  14.452
 3220W        W74749   4.286  25.536  11.608
 3221W        W74750  22.388  35.627  11.121
 3222W        W74751  18.479  10.245  13.895
 3223W        W74752  40.484   9.132  14.938
 3224W        W74753  25.978  11.582  11.416
 3225W        W74754  35.899  41.257   4.168
 3226W        W74755  22.752  29.153   1.743
 3227W        W74756  10.689  14.105  11.134
 3228W        W74757  36.328  20.569  11.893
 3229W        W74758   5.200  21.119   1.866
 3230W        W74759  12.885  16.066   3.225
 3231W        W74760  43.926  16.466  12.423
 3232W        W74761  44.339  35.579  13.631
 3233W        W74762   8.911   0.978   2.275
 3234W        W74763  33.591  40.984   4.869
 3235W        W74764   7.675   7.693   1.843
 3236W        W74765  44.232  14.765  14.311
 3237W        W74766  39.461  18.497   3.820
 3238W        W74767  33.167   7.486  14.989
 3239W        W74768  24.407  24.260   1.789
 3240W        W74769  33.670  38.920   2.368
 3241W        W74770  39.893   7.313   1.663
 3242W        W74771  35.497  31.311   3.253
 3243W        W74772   2.714  21.583   2.620
 3244W        W74773  11.495  21.584  12.886
 3245W        W74774  41.728  25.916   4.540
 3246W        W74775  23.130  24.702   3.648
 3247W        W74776  37.710   9.138  10.784
 3248W        W74777  39.309  11.846  13.478
 3249W        W74778  40.916  19.856   1.373
 3250W        W74779  32.944  28.744  13.387
 3251W        W74780  23.179  14.029   4.483
 3252W        W74781  41.777  18.275   2.697
 3253W        W74782  17.772  23.574  12.036
 3254W        W74783  37.044  17.737   0.522
 3255W        W74784  31.688  34.835  11.096
 3256W        W74785   1.921  18.259  14.469
 3257W        W74786  21.681  25.505  14.022
 3258W        W74787   2.453   3.542  13.551
 3259W        W74788   0.964  23.564  10.804
 3260W        W74789  41.503  21.806  12.064
 3261W        W74790  33.386  24.584  14.280
 3262W        W74791  37.009  12.179  10.476
 3263W        W74792  12.676  30.166   3.928
 3264W        W74793  38.240  11.851  11.473
 3265W        W74794  24.549   8.232   4.289
 3266W        W74795  35.277  40.795  11.650
 3267W        W74796  13.656  43.792   0.461
 3268W        W74797  42.064  40.357  12.416
 3269W        W74798  44.348  20.972   2.710
 3270W        W74799  11.698   1.762  13.601
 3271W        W74800   6.225   5.610   0.479
 3272W        W74801  17.252   9.792  12.102
 3273W        W74802   2.904   4.843  13.054
 3274W        W74803  32.572  32.717  12.838
 3275W        W74804  33.552   1.279  13.922
 3276W        W74805  44.242  35.794   1.763
 3277W        W74806  25.152  13.786  14.835
 3278W        W74807  20.390  30.467  10.613
 3279W        W74808  31.460  42.920   0.273
 3280W        W74809   2.679  25.680   4.100
 3281W        W74810  13.708  14.309   4.436
 3282W        W74811   3.718  21.246   0.971
 3283W        W74812  16.528  12.095   2.878
 3284W        W74813  41.842  44.103   1.026
 3285W        W74814  10.658  34.157   1.714
 3286W        W74815  32.526  42.747   1.771
 3287W        W74816  13.208  16.603   0.584
 3288W        W74817  33.227   6.178   0.115
 3289W        W74818  23.984  44.873   2.798
 3290W        W74819  25.720  28.702  11.493
 3291W        W74820  19.265  10.585  11.935
 3292W        W74821  44.244  37.869   1.927
 3293W        W74822  25.137  42.454  13.904
 3294W        W74823   6.458  38.800  13.447
 3295W        W74824   0.778  24.409   2.373
 3296W        W74825  29.249   2.269  11.549
 3297W        W74826  35.586  20.128   1.268
 3298W        W74827  39.525  10.110  12.107
 3299W        W74828   1.964   4.063  10.688
 3300W        W74829  39.956  43.159   1.908
 3301W        W74830  31.870   2.477   0.988
 3302W        W74831  13.993   2.943   3.830
 3303W        W74832   8.777   3.980  13.809
 3304W        W74833  18.602  21.060   3.681
 3305W        W74834  40.068  21.738  14.400
 3306W        W74835  10.675  33.313   4.584
 3307W        W74836  20.575  30.631  14.976
 3308W        W74837  38.043  20.131  13.584
 3309W        W74838  10.836  35.408   0.261
 3310W        W74839  25.116  13.238   3.210
 3311W        W74840  19.093  29.899   1.396
 3312W        W74841  27.736  23.481  14.409
 3313W        W74842  29.133  17.025  10.286
 3314W        W74843   4.399  36.015   1.093
 3315W        W74844  38.554  21.556  11.089
 3316W        W74845  35.077   0.745  14.351
 3317W        W74846  37.876  20.754  14.961
 3318W        W74847  32.989  22.587   2.106
 3319W        W74848  35.258   5.730   1.536
 3320W        W74849  30.349  14.423   4.649
 3321W        W74850   6.337  29.197  12.620
 3322W        W74851   2.859  22.537   3.160
 3323W        W74852  41.792   5.184  12.163
 3324W        W74853  39.238  18.566   1.086
 3325W        W74854  42.718   1.284  13.755
 3326W        W74855  39.909  21.211   5.068
 3327W        W74856  30.647  24.179  12.617
 3328W        W74857  27.982   2.319   0.484
 3329W        W74858   7.277  38.046   3.794
 3330W        W74859   6.343   5.507   3.737
 3331W        W74860  35.207   4.783  14.722
 3332W        W74861  34.725  30.272  11.510
 3333W        W74862  35.935  16.200  14.315
 3334W        W74863  13.415   5.650   1.482
 3335W        W74864  32.397  17.405  13.955
 3336W        W74865  34.572  38.997  13.065
 3337W        W74866  10.222  37.860   1.484
 3338W        W74867  18.726  16.637   4.473
 3339W        W74868   4.166  18.640  11.979
 3340W        W74869  27.385   1.289  12.183
 3341W        W74870  42.321  32.464   2.715
 3342W        W74871  27.730  20.204   3.641
 3343W        W74872  29.336  14.146  11.512
 3344W        W74873  28.045  21.327  11.312
 3345W        W74874  38.041  40.070   3.003
 3346W        W74875  37.399  24.624   1.927
 3347W        W74876   2.772  37.046  11.133
 3348W        W74877   0.964  22.044   0.430
 3349W        W74878  18.139  15.335  11.917
 3350W        W74879  27.074  16.683  14.849
 3351W        W74880  21.938  40.614   3.661
 3352W        W74881  31.601  25.020  14.421
 3353W        W74882  21.531  22.272  13.139
 3354W        W74883  20.083  26.779   3.587
 3355W        W74884   4.279  21.807   1.639
 3356W        W74885  18.547  35.757   2.443
 3357W        W74886  24.610  41.948   0.874
 3358W        W74887  42.768   0.817  13.500
 3359W        W74888  43.031  14.197   3.214
 3360W        W74889   3.003   6.758   3.074
 3361W        W74890  44.033  25.237  13.511
 3362W        W74891  18.132  32.380  14.014
 3363W        W74892  43.808  33.207  12.926
 3364W        W74893  31.185  30.068  10.759
 3365W        W74894  29.912  24.052   2.087
 3366W        W74895  41.642  42.677  12.850
 3367W        W74896  18.039   2.296  10.326
 3368W        W74897  27.104  44.261  10.632
 3369W        W74898  24.190  17.085  13.360
 3370W        W74899  26.159   4.540   5.040
 3371W        W74900  11.576  31.095  10.086
 3372W        W74901   0.150  16.835   2.431
 3373W        W74902  31.549  19.698   3.189
 3374W        W74903  38.687  13.122   2.772
 3375W        W74904  43.266  24.285   3.755
 3376W        W74905  22.220  24.006   0.528
 3377W        W74906   0.732   2.983  12.625
 3378W        W74907  10.285  36.134  13.362
 3379W        W74908  13.330  11.662   4.563
 3380W        W74909  27.691  10.621  13.475
 3381W        W74910  13.334  24.558  13.289
 3382W        W74911  25.196  19.196  12.891
 3383W        W74912   7.693   1.576  14.081
 3384W        W74913  30.198  34.639   3.263
 3385W        W74914  11.329  43.598   4.101
 3386W        W74915  43.881  20.320   4.671
 3387W        W74916  35.605  39.574  12.072
 3388W        W74917  26.767  27.142  11.171
 3389W        W74918   5.507  19.180   2.818
 3390W        W74919  33.569  41.942  12.516
 3391W        W74920   9.304  36.097   5.045
 3392W        W74921   9.441   5.932   1.146
 3393W        W74922  36.365   0.079  13.581
 3394W        W74923  22.119   0.600  11.454
 3395W        W74924  27.793  43.514   1.355
 3396W        W74925  29.192  16.068  10.513
 3397W        W74926   6.715  38.402  14.339
 3398W        W74927  15.746   6.250   1.638
 3399W        W74928  34.509  14.822   4.309
 3400W        W74929  40.954   5.201   4.125
 3401W        W74930   1.345   0.673   4.163
 3402W        W74931  16.568  28.391  13.496
 3403W        W74932   7.213  32.032   2.877
 3404W        W74933  36.547  37.953  14.406
 3405W        W74934  16.613  30.645   3.703
 3406W        W74935  34.371  31.459   4.618
 3407W        W74936  35.356  24.306   2.777
 3408W        W74937  30.958   0.291   3.197
 3409W        W74938  34.042   6.445   1.892
 3410W        W74939  24.234  20.181   3.674
 3411W        W74940  36.617  39.797   3.598
 3412W        W74941   3.179  14.722  12.882
 3413W        W74942  24.817  44.483   1.027
 3414W        W74943   5.751   0.236  13.581
 3415W        W74944  42.544  35.394   3.754
 3416W        W74945  41.533   5.644  10.908
 3417W        W74946  30.448   8.269  12.455
 3418W        W74947  37.256  44.694  11.087
 3419W        W74948  44.867  20.293   2.799
 3420W        W74949   2.964  41.404  10.756
 3421W        W74950  30.913  27.458   0.275
 3422W        W74951  43.847  19.092   0.861
 3423W        W74952  31.682  35.001   3.151
 3424W        W74953  29.178  13.047  13.915
 3425W        W74954   0.376  33.850  11.053
 3426W        W74955  22.044  33.879  14.388
 3427W        W74956   8.439  34.306  14.974
 3428W        W74957   0.071  37.399  13.137
 3429W        W74958   6.208  16.460   0.370
 3430W        W74959  30.225  23.832  13.722
 3431W        W74960  39.361  11.336   4.521
 3432W        W74961  39.066  17.414  12.009
 3433W        W74962  32.622  18.572   3.194
 3434W        W74963  29.008   0.185  12.027
 3435W        W74964  19.286  15.739   0.296
 3436W        W74965  31.341  14.800   1.861
 3437W        W74966   9.276  32.473  12.965
 3438W        W74967  17.170  39.365  10.962
 3439W        W74968   8.678   5.448  13.772
 3440W        W74969  30.442  38.388   4.228
 3441W        W74970  13.276  41.834  12.021
 3442W        W74971  23.099  13.964  10.801
 3443W        W74972  23.887  22.237  14.906
 3444W        W74973  13.127  18.484  12.539
 3445W        W74974  40.735   2.699  14.808
 3446W        W74975  31.575   1.870  14.898
 3447W        W74976  32.288   2.876   1.498
 3448W        W74977  36.749  28.942  10.848
 3449W        W74978  30.950  27.739   3.212
 3450W        W74979  25.132  13.024  11.288
 3451W        W74980  34.640  28.050   4.056
 3452W        W74981   5.305   9.360  14.335
 3453W        W74982  14.812  17.363   3.803
 3454W        W74983  44.447   9.659  11.608
 3455W        W74984  36.502  43.669  10.982
 3456W        W74985  28.968  13.383   4.029
 3457W        W74986  34.141  43.249  13.021
 3458W        W74987   4.790   0.965  10.717
 3459W        W74988  26.031  40.212   1.842
 3460W        W74989  24.403  12.558  11.234
 3461W        W74990  23.259  10.318   2.011
 3462W        W74991  32.613  18.829  13.926
 3463W        W74992  38.598  11.587  13.943
 3464W        W74993  42.739   3.420  11.542
 3465W        W74994  42.266   0.876  14.947
 3466W        W74995  32.532  15.203   1.793
 3467W        W74996  11.689   5.922  11.139
 3468W        W74997  32.200  29.926   2.814
 3469W        W74998  34.873  20.210  14.329
 3470W        W74999  20.700  17.836  10.460
 3471W        W75000   3.680  34.120   1.817
 3472W        W75001   3.862   7.334  11.091
 3473W        W75002  32.204   4.010   4.054
 3474W        W75003  29.934  32.637   3.058
 3475W        W75004  38.323   3.431  14.775
 3476W        W75005  18.254  24.595   4.663
 3477W        W75006  13.137   9.705   3.645
 3478W        W75007  19.264   9.930   3.635
 3479W        W75008   3.177   4.456  11.180
 3480W        W75009  20.780   6.298  14.108
 3481W        W75010   2.462   1.231  12.105
 3482W        W75011  17.219   3.810   1.161
 3483W        W75012  21.580  31.668   3.093
 3484W        W75013  22.566  28.905  11.062
 3485W        W75014  32.526  29.171  12.027
 3486W        W75015   2.187  11.783   4.252
 3487W        W75016  35.550  11.712   0.500
 3488W        W75017  24.290  27.573   0.655
 3489W        W75018   1.563  18.513  11.942
 3490W        W75019  23.700  26.416   0.232
 3491W        W75020   5.202   8.796  10.684
 3492W        W75021  44.858  11.249  13.564
 3493W        W75022  13.133   2.933  11.080
 3494W        W75023  17.401  44.484   1.683
 3495W        W75024  39.537   6.880   2.659
 3496W        W75025  37.361   6.538  11.220
 3497W        W75026   8.368  25.080   4.723
 3498W        W75027  25.222  40.824   1.334
 3499W        W75028   9.088  25.892   3.888
 3500W        W75029  14.607  17.320  13.532
 3501W        W75030  33.965  29.973   3.031
 3502W        W75031   0.675  25.816  12.307
 3503W        W75032  16.483  33.766  12.965
 3504W        W75033   6.116  23.775  13.239
 3505W        W75034  36.598  23.203   3.654
 3506W        W75035   9.203  27.080   0.367
 3507W        W75036  23.593  14.644  11.794
 3508W        W75037   8.366   6.145   3.849
 3509W        W75038  11.157  21.646   1.941
 3510W        W75039  38.811  19.073  12.061
 3511W        W75040  23.425  35.211  14.052
 3512W        W75041  24.539  42.929  14.590
 3513W        W75042  25.379  35.825   0.728
 3514W        W75043  36.129  32.165   4.075
 3515W        W75044  37.017  34.775   2.231
 3516W        W75045  31.520  36.294  13.336
 3517W        W75046  37.526   8.631  13.401
 3518W        W75047  30.065  28.181  13.370
 3519W        W75048  40.932   0.751  13.929
 3520W        W75049  39.034  11.371  12.846
 3521W        W75050  37.280  30.882  13.097
 3522W        W75051  11.793  22.754  13.804
 3523W        W75052  31.393  17.691   4.392
 3524W        W75053   3.613  36.988  10.768
 3525W        W75054  16.734  15.645  13.733
 3526W        W75055  33.947  15.355   4.126
 3527W        W75056  40.466  29.928   1.893
 3528W        W75057  26.418   4.703   2.156
 3529W        W75058   0.811  28.922   3.439
 3530W        W75059  41.532  33.581   1.729
 3531W        W75060   1.481   0.346   1.107
 3532W        W75061  11.759  34.874  13.491
 3533W        W75062   8.646  25.244  12.021
 3534W        W75063  28.686  41.976   0.411
 3535W        W75064  41.802  43.690   2.851
 3536W        W75065   0.459  27.161   0.980
 3537W        W75066  42.754  24.653  13.609
 3538W        W75067  34.582  26.706  14.414
 3539W        W75068  18.160  18.920  11.072
 3540W        W75069  27.564  35.932   1.328
 3541W        W75070  27.142  44.234   4.237
 3542W        W75071  14.263   0.324   0.671
 3543W        W75072   3.523  13.782  13.139
 3544W        W75073  17.361  14.002  14.361
 3545W        W75074   2.855   9.275  13.044
 3546W        W75075  21.155  28.611  10.723
 3547W        W75076  22.522  29.447   2.905
 3548W        W75077  25.276   0.408  14.991
 3549W        W75078  42.421  37.104   3.875
 3550W        W75079  34.560  32.287  10.845
 3551W        W75080   2.453  17.317   1.686
 3552W        W75081  34.981  41.424  12.862
 3553W        W75082   2.823  36.052  12.749
 3554W        W75083   5.995  32.335  14.134
 3555W        W75084   2.386  18.856  13.839
 3556W        W75085   3.663  22.329  11.114
 3557W        W75086   0.190  39.473   0.754
 3558W        W75087   1.237  39.360  12.991
 3559W        W75088   9.980  32.412  14.471
 3560W        W75089   3.277  41.677   0.432
 3561W        W75090  23.109  15.735   4.606
 3562W        W75091  17.212   7.405  11.197
 3563W        W75092   2.249  37.587  14.884
 3564W        W75093   0.748  30.022   0.605
 3565W        W75094  21.238  31.681   0.853
 3566W        W75095   1.221  19.127   1.686
 3567W        W75096   3.541  14.911   1.867
 3568W        W75097  39.927  20.985   4.598
 3569W        W75098   9.007  30.142   2.767
 3570W        W75099  21.739  43.065  12.712
 3571W        W75100   2.258   7.049  13.418
 3572W        W75101  43.286  23.049  13.770
 3573W        W75102  16.444  37.460   3.628
 3574W        W75103   7.298  20.012  10.824
 3575W        W75104  42.872  23.467  13.321
 3576W        W75105  27.077  43.304   0.861
 3577W        W75106  21.595   9.747   0.074
 3578W        W75107   2.485   1.716   3.218
 3579W        W75108  23.462  37.418   2.119
 3580W        W75109   9.434  18.637  11.520
 3581W        W75110  36.446  15.779  12.301
 3582W        W75111  24.727  32.305  12.547
 3583W        W75112  18.837  42.256   1.348
 3584W        W75113  30.688  40.442  12.053
 3585W        W75114  28.077   8.717  14.250
 3586W        W75115  14.279  38.127   2.040
 3587W        W75116  27.057  43.480   3.127
 3588W        W75117  39.944  25.025   2.324
 3589W        W75118  44.135  29.637   3.388
 3590W        W75119  29.310  24.508  13.452
 3591W        W75120  41.562  16.746   1.096
 3592W        W75121  28.601   0.602   0.853
 3593W        W75122  38.440  26.198  12.635
 3594W        W75123  33.940   8.397   4.549
 3595W        W75124  31.108  33.453  12.869
 3596W        W75125  30.376  34.565   4.074
 3597W        W75126  17.234  27.449   0.759
 3598W        W75127  34.816  30.607   1.894
 3599W        W75128  31.021   5.994   1.255
 3600W        W75129  44.662   7.676   1.782
 3601W        W75130  38.459  44.465   1.102
 3602W        W75131  10.354  34.582   1.881
 3603W        W75132  11.164  17.078  14.015
 3604W        W75133   1.067  42.934  12.582
 3605W        W75134  34.623   1.488   2.564
 3606W        W75135  25.235  18.093   0.201
 3607W        W75136  22.504   2.196   0.016
 3608W        W75137  35.948   4.469   1.944
 3609W        W75138  41.525   8.730  12.882
 3610W        W75139   0.820   3.713   0.775
 3611W        W75140   6.061  10.871  12.529
 3612W        W75141  34.114  36.091  10.978
 3613W        W75142   0.231  22.213   5.050
 3614W        W75143  42.452  33.356  11.955
 3615W        W75144  28.954  23.552   0.759
 3616W        W75145   1.904  25.129   1.330
 3617W        W75146  29.239  19.714  12.465
 3618W        W75147  15.487  10.953   4.132
 3619W        W75148  26.757   1.412  13.906
 3620W        W75149  12.317   7.673  11.504
 3621W        W75150  37.263  17.182  13.840
 3622W        W75151  35.933   4.663  12.132
 3623W        W75152  41.018  43.589  11.048
 3624W        W75153  11.793  33.090  14.870
 3625W        W75154   0.696  25.717  11.435
 3626W        W75155   9.259  32.658  13.979
 3627W        W75156  17.295  28.082  11.633
 3628W        W75157  36.768   6.788  13.777
 3629W        W75158  15.130  38.741  11.287
 3630W        W75159   2.980   3.896  10.777
 3631W        W75160  29.667  19.091  13.393
 3632W        W75161   0.448   4.999   1.333
 3633W        W75162  40.539  13.129  13.554
 3634W        W75163  23.965   6.521   4.662
 3635W        W75164  27.135  39.716  12.409
 3636W        W75165  24.579  31.779   4.060
 3637W        W75166   3.807  14.061  13.877
 3638W        W75167  14.224   0.809  11.110
 3639W        W75168  35.613  20.678   2.305
 3640W        W75169   9.357  43.324   3.649
 3641W        W75170   4.807  31.997   0.381
 3642W        W75171  35.045  28.332   4.197
 3643W        W75172   1.834  29.059  12.002
 3644W        W75173  13.412  10.391   0.867
 3645W        W75174  24.729  34.472  12.502
 3646W        W75175  34.555  44.356  10.735
 3647W        W75176  15.031  12.951  11.236
 3648W        W75177  22.631  27.474  14.191
 3649W        W75178  32.133  17.601  13.530
 3650W        W75179   6.800  42.577  13.649
 3651W        W75180  24.616   9.686  13.074
 3652W        W75181  22.577  12.467   3.129
 3653W        W75182   7.949  13.133   2.613
 3654W        W75183  42.365  14.714   0.535
 3655W        W75184  43.445  28.441  12.072
 3656W        W75185   1.806  12.589  12.633
 3657W        W75186   0.499  41.893  14.294
 3658W        W75187  10.246  41.290   4.982
 3659W        W75188  17.144  13.804  11.553
 3660W        W75189   2.859  28.715   3.817
 3661W        W75190   5.849   8.742   3.712
 3662W        W75191   7.351  42.050  13.153
 3663W        W75192  13.042  38.591  11.608
 3664W        W75193  13.332  24.275   4.357
 3665W        W75194   5.816  20.931   2.444
 3666W        W75195  43.531  34.366   0.302
 3667W        W75196  25.761  17.260   4.602
 3668W        W75197   1.563  23.103  12.031
 3669W        W75198  25.601  19.725   5.023
 3670W        W75199  17.717  41.857  12.411
 3671W        W75200  36.628   6.465  13.394
 3672W        W75201  44.755  40.415   3.925
 3673W        W75202  18.140   8.353  13.368
 3674W        W75203   0.880  12.372  11.345
 3675W        W75204  38.850  21.953   3.172
 3676W        W75205   3.072  27.552   3.510
 3677W        W75206   8.775  28.778   3.792
 3678W        W75207   4.947  11.830   1.816
 3679W        W75208  44.300  10.815   3.346
 3680W        W75209  31.462  17.239   1.388
 3681W        W75210  41.366  20.816   3.754
 3682W        W75211   5.210  34.106  12.536
 3683W        W75212  27.631  19.999   1.915
 3684W        W75213   0.976  12.200  10.861
 3685W        W75214  34.080  26.980   0.760
 3686W        W75215  14.428  22.556   1.340
 3687W        W75216  22.054  33.076   3.188
 3688W        W75217  17.766   5.631  14.597
 3689W        W75218  28.979  27.182  10.611
 3690W        W75219   1.861  24.825   4.655
 3691W        W75220  17.806  11.906   2.819
 3692W        W75221  31.661  37.598  10.882
 3693W        W75222   2.599  31.919   1.468
 3694W        W75223   0.677  35.892   3.300
 3695W        W75224  32.203   4.357  10.710
 3696W        W75225   5.874  37.995   2.199
 3697W        W75226  20.156  27.450  11.656
 3698W        W75227  13.280   4.517  13.872
 3699W        W75228  22.538  25.748   1.426
 3700W        W75229  31.595   3.360   0.850
 3701W        W75230  30.005  22.778  14.931
 3702W        W75231  28.728  14.532  11.909
 3703W        W75232  11.752  31.531  11.476
 3704W        W75233  11.700   7.731   3.611
 3705W        W75234   3.276  26.499   1.470
 3706W        W75235  10.771  41.938  13.336
 3707W        W75236  32.921  24.014   0.439
 3708W        W75237   6.230  36.005  13.952
 3709W        W75238  19.105  11.465   2.559
 3710W        W75239  13.651   9.603   2.898
 3711W        W75240  20.080  17.564   3.811
 3712W        W75241  39.376  23.292  11.201
 3713W        W75242   5.816  13.419  13.389
 3714W        W75243  41.360  17.744   2.469
 3715W        W75244   2.940  14.107   4.362
 3716W        W75245   9.935  39.121  13.023
 3717W        W75246  34.465   0.026   4.656
 3718W        W75247  36.386  32.164   0.459
 3719W        W75248  31.674  18.697  10.794
 3720W        W75249  10.832  35.864  12.183
 3721W        W75250  41.387  24.690  14.988
 3722W        W75251  39.793  24.981   3.719
 3723W        W75252   2.543   8.855   4.875
 3724W        W75253  36.801  18.848  11.011
 3725W        W75254  37.080  20.237   1.548
 3726W        W75255  25.115  36.652   3.280
 3727W        W75256  13.520  29.111   0.234
 3728W        W75257  10.954   0.918  13.254
 3729W        W75258  25.138  27.723   4.818
 3730W        W75259  32.949  36.502   2.333
 3731W        W75260  29.722  21.097   2.714
 3732W        W75261  23.418   3.179   3.239
 3733W        W75262  39.906   0.891  13.036
 3734W        W75263  43.192   0.693   0.993
 3735W        W75264  44.128  20.750   4.924
 3736W        W75265  20.286  13.697  13.414
 3737W        W75266  23.627  36.911  12.184
 3738W        W75267  18.868  24.255  13.940
 3739W        W75268  41.739  19.824  10.319
 3740W        W75269  30.599  23.223  10.987
 3741W        W75270  40.529   4.133  12.866
 3742W        W75271  34.592  21.072   4.083
 3743W        W75272   7.329  42.409  10.237
 3744W        W75273  34.570  25.258   4.380
 3745W        W75274  18.177  22.273   0.766
 3746W        W75275   0.428   7.679   1.262
 3747W        W75276  44.164  24.182  12.700
 3748W        W75277  36.298   2.573  11.847
 3749W        W75278   3.375   2.013   2.698
 3750W        W75279  41.406   2.471   3.662
 3751W        W75280  39.776  22.040   2.941
 3752W        W75281  17.086  23.772   3.914
 3753W        W75282  16.685  21.608   0.825
 3754W        W75283  35.608  20.360   0.377
 3755W        W75284  23.457  18.276   2.808
 3756W        W75285  17.477  34.292   1.058
 3757W        W75286  28.596  32.570   4.605
 3758W        W75287  37.063   5.842  14.835
 3759W        W75288  38.350  14.015  12.459
 3760W        W75289  17.001  29.414   2.838
 3761W        W75290  29.145  42.265   2.423
 3762W        W75291  20.179  38.479  12.550
 3763W        W75292  17.825  30.012  11.770
 3764W        W75293  38.825  26.984  11.972
 3765W        W75294  35.220  16.096   3.805
 3766W        W75295  18.131  37.970   0.913
 3767W        W75296  43.070   1.533  12.074
 3768W        W75297  17.058  30.198  14.452
 3769W        W75298   8.865  42.503  14.958
 3770W        W75299  10.750  41.313   1.160
 3771W        W75300  20.935  17.182  11.596
 3772W        W75301   4.274   7.321  10.735
 3773W        W75302  40.327  41.915  11.850
 3774W        W75303  12.816  27.991   4.623
 3775W        W75304   0.913  17.894  13.741
 3776W        W75305   9.624  29.401   4.835
 3777W        W75306  14.332  43.801  11.589
 3778W        W75307  10.440  44.728  12.958
 3779W        W75308  38.629  43.729  11.179
 3780W        W75309  26.687   2.566   4.954
 3781W        W75310   4.050  43.313  13.307
 3782W        W75311  39.090  35.683  12.517
 3783W        W75312  25.961   0.679   0.800
 3784W        W75313  24.998   9.176  12.524
 3785W        W75314  30.451  30.106  14.082
 3786W        W75315  14.742  21.256   2.318
 3787W        W75316  16.166  18.366  10.526
 3788W        W75317  23.113  33.080  13.805
 3789W        W75318  17.243  44.535  14.089
 3790W        W75319  18.222  26.691   1.054
 3791W        W75320  19.563  39.533   1.042
 3792W        W75321  23.531   3.583   3.577
 3793W        W75322  17.761  17.606   2.756
 3794W        W75323  18.147  24.702  12.808
 3795W        W75324  42.641  31.225   2.331
 3796W        W75325  33.653  11.913   4.536
 3797W        W75326  41.044  30.886   4.801
 3798W        W75327  43.234   3.934   3.224
 3799W        W75328  25.550  18.473   2.157
 3800W        W75329  10.154  43.842  14.308
 3801W        W75330  17.950  34.136   1.370
 3802W        W75331   9.637  41.444  10.573
 3803W        W75332  20.671  28.929   1.266
 3804W        W75333  26.085  28.673  10.876
 3805W        W75334  33.461   0.771  13.981
 3806W        W75335  34.798  29.005  11.218
 3807W        W75336   4.208  34.505   3.395
 3808W        W75337  16.483  42.095  13.375
 3809W        W75338  11.323  35.200  13.486
 3810W        W75339  12.575  23.991   1.892
 3811W        W75340   0.911  32.880   3.689
 3812W        W75341  26.115  18.257   0.917
 3813W        W75342  34.588   5.670  14.849
 3814W        W75343  42.872  33.344  11.177
 3815W        W75344  38.086  26.494  11.091
 3816W        W75345  40.744  26.783   2.860
 3817W        W75346  27.961   9.317  13.271
 3818W        W75347  25.995  20.938   3.348
 3819W        W75348  26.297  41.921   3.124
 3820W        W75349  10.179   3.629   5.154
 3821W        W75350  24.729  43.297   4.441
 3822W        W75351  41.952  26.614   1.174
 3823W        W75352  15.798  22.577   5.331
 3824W        W75353  36.751   8.881   4.242
 3825W        W75354   9.795  30.659   4.707
 3826W        W75355  13.843  24.092  10.632
 3827W        W75356  40.286  16.073   3.747
 3828W        W75357  21.535  11.350   4.855
 3829W        W75358  36.738  12.827   1.633
 3830W        W75359  22.175  27.577  13.990
 3831W        W75360   2.455   4.833  13.299
 3832W        W75361   0.364  21.252   0.509
 3833W        W75362  22.666  40.971  11.188
 3834W        W75363   2.515  27.372  12.023
 3835W        W75364  22.967  38.049   0.741
 3836W        W75365  28.878  38.566   3.254
 3837W        W75366  19.373  19.274  11.599
 3838W        W75367  34.248   8.438   2.452
 3839W        W75368  32.706   5.738  12.141
 3840W        W75369  29.785  11.452   4.815
 3841W        W75370  37.654  15.587  14.382
 3842W        W75371  14.731  23.660  13.138
 3843W        W75372   4.329  24.583   0.322
 3844W        W75373  43.245  41.893  14.846
 3845W        W75374  14.873  26.601  11.027
 3846W        W75375  17.631  15.699  14.087
 3847W        W75376  41.586  20.675  11.011
 3848W        W75377  28.138  16.362   0.386
 3849W        W75378   0.410  44.296   3.265
 3850W        W75379  16.297   8.263  12.912
 3851W        W75380  40.775  28.936  12.030
 3852W        W75381  20.423  34.999  14.452
 3853W        W75382  15.264  40.165  11.243
 3854W        W75383  27.878  16.836  14.522
 3855W        W75384  11.651  16.527  11.240
 3856W        W75385  12.675  42.539   2.380
 3857W        W75386  32.376   5.867  10.844
 3858W        W75387  18.166   6.385   2.421
 3859W        W75388  25.504  37.625  14.606
 3860W        W75389  30.926  17.080   1.448
 3861W        W75390  31.338  43.445   0.229
 3862W        W75391  30.332  31.660  12.490
 3863W        W75392  11.184   3.341   3.819
 3864W        W75393  42.290  22.937  14.022
 3865W        W75394   0.921   2.877  11.244
 3866W        W75395  42.554  39.581   2.229
 3867W        W75396   2.021  32.340   2.196
 3868W        W75397   9.795  17.340   3.696
 3869W        W75398   9.310  20.922   0.443
 3870W        W75399  30.373  20.009   5.033
 3871W        W75400  38.795  27.707   0.733
 3872W        W75401  42.781   9.453  12.973
 3873W        W75402   5.746  38.764   3.297
 3874W        W75403  36.172  42.723  12.590
 3875W        W75404  30.173  35.075   4.265
 3876W        W75405  32.930  25.770   2.122
 3877W        W75406  40.506  40.404   2.407
 3878W        W75407   7.710  23.151   3.947
 3879W        W75408  22.805  19.012  11.469
 3880W        W75409   9.729   3.774  11.060
 3881W        W75410  25.988  29.152   2.647
 3882W        W75411  41.975  43.346  13.825
 3883W        W75412  40.250  14.378   5.204
 3884W        W75413   4.101   2.447   3.769
 3885W        W75414  18.180   0.803  12.901
 3886W        W75415  20.675   9.300   1.436
 3887W        W75416  11.753  25.311   0.050
 3888W        W75417  44.975  20.190   2.178
 3889W        W75418  11.726   7.246  11.318
 3890W        W75419   3.344  19.112   4.110
 3891W        W75420  38.409   1.086   4.140
 3892W        W75421  17.581  42.843  13.751
 3893W        W75422  29.816   1.875  13.478
 3894W        W75423  28.167   4.535  12.363
 3895W        W75424  26.952  37.110   4.325
 3896W        W75425  10.318  30.237  12.461
 3897W        W75426  44.365  14.661  11.678
 3898W        W75427  34.948   2.484  14.272
 3899W        W75428  42.224  35.240  11.107
 3900W        W75429  19.483  13.244   3.735
 3901W        W75430   6.667   6.707   0.978
 3902W        W75431   5.485  24.014  14.913
 3903W        W75432   0.050  35.459  13.348
 3904W        W75433  22.521  42.746  12.768
 3905W        W75434  44.051  10.359  13.424
 3906W        W75435   4.487  31.167   1.951
 3907W        W75436  44.976   1.756  11.223
 3908W        W75437  24.642  35.424   0.892
 3909W        W75438  29.914  34.552  13.591
 3910W        W75439   1.079   6.210  14.106
 3911W        W75440  33.624   3.478  13.656
 3912W        W75441  41.542  39.379   1.812
 3913W        W75442  34.404  24.118  10.713
 3914W        W75443  23.186  31.042   1.283
 3915W        W75444  26.924  20.582   0.677
 3916W        W75445  20.061   4.177  12.901
 3917W        W75446   7.203  35.268   0.573
 3918W        W75447   9.397  12.015   2.656
 3919W        W75448   3.696  10.856  10.658
 3920W        W75449   3.285  12.613   4.217
 3921W        W75450  25.008  19.004   3.326
 3922W        W75451  18.272  12.033   4.054
 3923W        W75452  30.658   4.844   1.920
 3924W        W75453  37.516  10.295  14.280
 3925W        W75454  13.158  39.534  12.191
 3926W        W75455  41.820  38.994  14.848
 3927W        W75456   3.746  21.046   4.597
 3928W        W75457  17.219  12.239  12.395
 3929W        W75458  34.311  16.641  10.591
 3930W        W75459  30.864  32.770   3.204
 3931W        W75460   8.865   2.823  11.101
 3932W        W75461   8.345  18.279   2.645
 3933W        W75462  40.197  21.702   4.233
 3934W        W75463  18.065  25.711  14.374
 3935W        W75464  41.603  39.641  12.994
 3936W        W75465  34.572  16.748  12.862
 3937W        W75466  40.472   5.984   9.930
 3938W        W75467  19.092  24.584  12.341
 3939W        W75468  32.326   3.808   0.940
 3940W        W75469  31.079  16.202  13.555
 3941W        W75470  38.062  12.878  10.705
 3942W        W75471   0.009  42.052   3.596
 3943W        W75472  27.165   6.700  12.355
 3944W        W75473  16.334  27.998   3.182
 3945W        W75474   1.341  31.576   2.435
 3946W        W75475  44.285  22.294   1.886
 3947W        W75476  22.527   8.763   2.847
 3948W        W75477   0.998  22.584  12.514
 3949W        W75478  40.059  36.059  12.133
 3950W        W75479   4.733  27.666  12.665
 3951W        W75480  25.927  14.499   2.334
 3952W        W75481  11.259  29.984   1.260
 3953W        W75482  40.209  14.372   2.363
 3954W        W75483  43.432  30.475   3.611
 3955W        W75484  33.497   4.825   9.909
 3956W        W75485  37.259  43.224  11.162
 3957W        W75486  34.393   7.621  13.042
 3958W        W75487  25.091  21.709   2.388
 3959W        W75488  41.516  19.953   0.710
 3960W        W75489   4.484  36.419   0.812
 3961W        W75490  29.131  30.782  10.586
 3962W        W75491  29.092  14.637   2.869
 3963W        W75492  36.617  32.507  12.682
 3964W        W75493   2.403  19.042  12.926
 3965W        W75494  37.498  42.498   1.718
 3966W        W75495  32.468   0.282  13.140
 3967W        W75496  22.692   9.840   0.922
 3968W        W75497   8.243  44.154  10.762
 3969W        W75498  14.470  31.600  14.850
 3970W        W75499   4.792  15.621   4.545
 3971W        W75500  29.253  37.990  10.681
 3972W        W75501  23.658  25.878  12.066
 3973W        W75502   9.312  23.142  10.853
 3974W        W75503  29.984  31.094   3.373
 3975W        W75504   0.178   3.424   2.824
 3976W        W75505  34.014  13.975  11.685
 3977W        W75506  23.189  28.012   2.319
 3978W        W75507  37.327   7.903  12.080
 3979W        W75508  22.682  30.162   4.198
 3980W        W75509  24.593  21.339  10.793
 3981W        W75510  12.367   3.566  14.347
 3982W        W75511  35.052   0.223  14.458
 3983W        W75512  15.757  43.982  12.567
 3984W        W75513   5.100  21.756   4.928
 3985W        W75514  23.613   9.790   1.350
 3986W        W75515   4.034  16.272   1.972
 3987W        W75516  19.004   5.041   0.697
 3988W        W75517  44.872  22.763   0.998
 3989W        W75518  18.256  23.817   3.273
 3990W        W75519  32.455  43.674  11.982
 3991W        W75520  39.098   1.176   0.931
 3992W        W75521   5.793   6.573  11.674
 3993W        W75522  17.765  38.510  10.959
 3994W        W75523  38.821  33.396   2.859
 3995W        W75524  30.678  30.503   0.367
 3996W        W75525  41.842   0.805  11.779
 3997W        W75526  25.520   9.323   2.941
 3998W        W75527  12.083  29.736  14.330
 3999W        W75528  19.116  41.378  10.245
 4000W        W75529   0.417  37.127  14.544
 4001W        W75530   7.521  26.748   1.825
 4002W        W75531   3.485  10.066  14.294
 4003W        W75532  32.077   3.388   4.988
 4004W        W75533   0.882  22.943  14.044
 4005W        W75534  37.127  33.596   4.147
 4006W        W75535   1.256  41.823  10.717
 4007W        W75536   2.610  35.846  13.420
 4008W        W75537  21.545  42.069   4.572
 4009W        W75538  21.322  13.927  13.791
 4010W        W75539  27.119  29.572  11.150
 4011W        W75540  20.757  10.467  11.552
 4012W        W75541  35.118  26.667   2.438
 4013W        W75542  24.801  14.082   4.202
 4014W        W75543  28.102  35.701  12.602
 4015W        W75544  27.519  14.690   3.478
 4016W        W75545  24.227  23.882   2.279
 4017W        W75546  27.595  23.686   0.264
 4018W        W75547  38.907  26.748  10.703
 4019W        W75548  29.223  40.380   2.027
 4020W        W75549  30.663  30.894   3.143
 4021W        W75550  27.979   4.335  11.462
 4022W        W75551  32.691  25.031   0.645
 4023W        W75552  22.764   6.907  11.039
 4024W        W75553  27.074   8.258  13.541
 4025W        W75554  12.319  10.812  13.096
 4026W        W75555  12.239  38.375   0.429
 4027W        W75556  14.644  43.817  12.021
 4028W        W75557  15.716   5.745   2.414
 4029W        W75558  36.893   6.624  12.971
 4030W        W75559  39.902  19.444   4.654
 4031W        W75560  20.272  34.368   1.951
 4032W        W75561  30.571   1.498  13.262
 4033W        W75562  27.075  39.064   3.692
 4034W        W75563   8.713  20.134   1.387
 4035W        W75564  40.604  13.539  14.362
 4036W        W75565  23.622  22.988  10.608
 4037W        W75566  23.265  27.255   0.274
 4038W        W75567  11.450   1.012  11.180
 4039W        W75568  23.091  30.338  13.434
 4040W        W75569  20.316  19.024   2.398
 4041W        W75570  18.545  43.426   3.765
 4042W        W75571  12.734  37.376  12.929
 4043W        W75572  40.948   8.898   2.695
 4044W        W75573  33.856  33.090   3.704
 4045W        W75574  16.025  18.448   1.145
 4046W        W75575  43.544  10.229   3.175
 4047W        W75576  13.195   9.958  12.494
 4048W        W75577   0.236  16.675  14.102
 4049W        W75578  11.822  15.169   1.294
 4050W        W75579   1.597  43.477   4.130
 4051W        W75580  20.738  32.676   2.502
 4052W        W75581  39.133  26.576   0.687
 4053W        W75582  12.828  23.486  13.464
 4054W        W75583  38.953   5.734  11.320
 4055W        W75584  23.949   4.666   2.396
 4056W        W75585  38.658  21.075   0.346
 4057W        W75586   2.391  34.983  14.443
 4058W        W75587  40.271  34.450  13.860
 4059W        W75588   5.702  32.571   1.562
 4060W        W75589  25.527  17.637  10.962
 4061W        W75590  11.810  39.979  12.837
 4062W        W75591  20.263   9.766  11.371
 4063W        W75592  12.626   7.616   3.131
 4064W        W75593  17.828   2.153   3.191
 4065W        W75594  35.543  43.325   3.555
 4066W        W75595   7.206   4.687  12.407
 4067W        W75596   2.506  15.639   4.935
 4068W        W75597   1.420   4.244  13.660
 4069W        W75598  10.411  13.207  14.056
 4070W        W75599  28.974  25.703  11.088
 4071W        W75600  15.282  24.215   0.275
 4072W        W75601  33.886  22.169   0.932
 4073W        W75602  33.427  15.323   0.048
 4074W        W75603  23.292   3.284  12.909
 4075W        W75604  33.829   2.879  11.502
 4076W        W75605  35.019  30.843  11.914
 4077W        W75606  19.770  29.391   1.916
 4078W        W75607   2.308   7.901   3.242
 4079W        W75608  37.274  38.786  14.882
 4080W        W75609  28.975  42.893  12.871
 4081W        W75610  44.197   9.823  12.040
 4082W        W75611  34.215  38.548  12.478
 4083W        W75612  30.844  33.032   1.948
 4084W        W75613  38.715   0.147  10.097
 4085W        W75614  28.415  38.667   1.681
 4086W        W75615   2.044   3.960   3.633
 4087W        W75616  35.064  31.628   3.152
 4088W        W75617  24.574  42.863   4.688
 4089W        W75618  36.237   6.814  10.706
 4090W        W75619   6.773  28.173   2.407
 4091W        W75620   7.166   0.424  13.881
 4092W        W75621  21.305  35.190   1.870
 4093W        W75622  29.498  40.755   3.723
 4094W        W75623  40.280  28.441  11.923
 4095W        W75624   5.792  16.648   2.278
 4096W        W75625  15.491   1.722  12.013
 4097W        W75626  34.047  28.925  12.462
 4098W        W75627  14.157  10.429   2.692
 4099W        W75628   1.977  36.735   4.605
 4100W        W75629  31.525  43.566   1.953
 4101W        W75630   4.264  41.421  13.528
 4102W        W75631  20.055  26.164  12.988
 4103W        W75632  12.593  34.062   0.334
 4104W        W75633  26.814  41.595  12.021
 4105W        W75634  17.084  27.722   0.338
 4106W        W75635  19.780   9.880   2.766
 4107W        W75636   8.923  13.357  11.487
 4108W        W75637  37.960  24.559   2.721
 4109W        W75638   3.541  32.906  12.397
 4110W        W75639  18.758  15.264   2.808
 4111W        W75640  27.501  20.209   2.385
 4112W        W75641  30.979  36.380  11.591
 4113W        W75642  13.206  25.897  10.701
 4114W        W75643  43.911  28.373  11.874
 4115W        W75644  23.213  42.519  14.412
 4116W        W75645  24.950  30.539  13.550
 4117W        W75646  10.921  34.985   2.995
 4118W        W75647  22.751   9.618  12.945
 4119W        W75648  16.065  37.603   2.122
 4120W        W75649   0.243   0.655  12.009
 4121W        W75650  40.513  33.100  10.610
 4122W        W75651  21.028   4.669   1.197
 4123W        W75652   6.874  36.799   4.182
 4124W        W75653   1.000   3.974  11.708
 4125W        W75654   6.477   1.261  12.362
 4126W        W75655  22.554  37.344   0.756
 4127W        W75656  13.554   0.023   3.929
 4128W        W75657  23.530  43.615   3.717
 4129W        W75658  32.138   3.156   9.827
 4130W        W75659  17.135   8.854   3.138
 4131W        W75660  36.453  25.933   4.512
 4132W        W75661  35.717  16.243   3.865
 4133W        W75662  41.931  14.106  11.483
 4134W        W75663  29.492  33.867  13.619
 4135W        W75664   2.255   4.683   0.164
 4136W        W75665  15.314   1.319   3.446
 4137W        W75666   4.775  28.366   1.519
 4138W        W75667  42.825  25.052   3.889
 4139W        W75668  30.049  43.052   4.681
 4140W        W75669  41.731   2.219  12.580
 4141W        W75670  18.249  42.702   3.279
 4142W        W75671  22.795   7.812  11.129
 4143W        W75672  11.202  32.589  13.334
 4144W        W75673  22.957   0.912  11.547
 4145W        W75674  16.388  35.692  12.912
 4146W        W75675  26.265  26.080   1.100
 4147W        W75676  40.887  35.987  12.517
 4148W        W75677  12.576   2.486   4.071
 4149W        W75678   1.005   3.475  11.978
 4150W        W75679  26.428  34.911  11.365
 4151W        W75680   2.973  27.258  11.834
 4152W        W75681  37.086  35.799  11.122
 4153W        W75682  43.106  11.903  11.934
 4154W        W75683  33.441  37.852  11.040
 4155W        W75684  32.074  21.132  12.033
 4156W        W75685  44.784   9.595   3.147
 4157W        W75686  38.550  27.642  12.056
 4158W        W75687  17.721  17.566   4.482
 4159W        W75688  31.074   2.571   2.943
 4160W        W75689  32.082  13.518  14.960
 4161W        W75690  43.174  30.194  11.638
 4162W        W75691  23.282  18.555  14.454
 4163W        W75692  35.057  19.103   0.401
 4164W        W75693  14.233  20.295   2.855
 4165W        W75694  29.413  20.594   0.706
 4166W        W75695  36.319  17.787  13.913
 4167W        W75696  20.614  27.498   1.431
 4168W        W75697  35.516  16.644  14.556
 4169W        W75698   5.883  11.091   2.586
 4170W        W75699   3.862  35.768  10.376
 4171W        W75700   0.757   4.566  11.282
 4172W        W75701  19.563   9.246  13.987
 4173W        W75702   9.877  11.240  10.529
 4174W        W75703  35.958   8.394  11.534
 4175W        W75704   9.205   6.232  14.948
 4176W        W75705  40.120   7.151   0.715
 4177W        W75706  35.546  25.921   1.598
 4178W        W75707  36.091  26.621  14.782
 4179W        W75708  19.339  30.498  12.515
 4180W        W75709  36.082  13.148  13.330
 4181W        W75710  35.857  37.502   2.694
 4182W        W75711   6.281  17.089   9.840
 4183W        W75712  39.615   2.330   2.684
 4184W        W75713   2.352   9.380   0.755
 4185W        W75714  22.052  41.809  14.772
 4186W        W75715  30.740  31.662   0.845
 4187W        W75716  27.123  25.673   2.014
 4188W        W75717  40.472  42.939  11.678
 4189W        W75718  11.419  32.181   3.488
 4190W        W75719  20.320  29.822  12.449
 4191W        W75720   4.539   9.416  13.049
 4192W        W75721  22.653  18.348   1.230
 4193W        W75722  18.853   3.891   3.876
 4194W        W75723   2.605   1.523  14.362
 4195W        W75724  42.371   2.293  11.925
 4196W        W75725  31.964  35.111   0.930
 4197W        W75726  37.874   9.656  14.800
 4198W        W75727  29.339  26.605  11.829
 4199W        W75728  20.958  30.702   3.289
 4200W        W75729   6.781  42.828  12.383
 4201W        W75730   4.870  15.687  11.582
 4202W        W75731  40.894  31.258   3.501
 4203W        W75732  35.553  30.105  12.853
 4204W        W75733   9.303  12.801  14.612
 4205W        W75734   0.690  39.925  14.242
 4206W        W75735  22.556  19.701  13.561
 4207W        W75736  21.693  27.532  14.260
 4208W        W75737  17.702  35.617   0.280
 4209W        W75738  42.960  29.914  12.017
 4210W        W75739  44.921  41.318  12.552
 4211W        W75740  24.165  24.674   1.164
 4212W        W75741  29.058  29.401   2.208
 4213W        W75742  39.043   8.833  12.406
 4214W        W75743  27.350  33.467   0.413
 4215W        W75744  26.277  38.158  10.845
 4216W        W75745  17.788   5.432   1.269
 4217W        W75746   5.473  28.389  14.894
 4218W        W75747  10.838  40.036  12.041
 4219W        W75748   9.895  13.641   0.318
 4220W        W75749  27.903  24.081  12.511
 4221W        W75750  43.331  31.643   1.853
 4222W        W75751  35.378   7.932  14.994
 4223W        W75752   7.414  32.639  13.950
 4224W        W75753  22.264   1.512   0.491
 4225W        W75754  34.134  16.782   1.882
 4226W        W75755  37.677  22.374  13.330
 4227W        W75756  33.451  15.329   0.951
 4228W        W75757   4.952  36.526  11.505
 4229W        W75758   4.348  36.342   1.742
 4230W        W75759  29.485  35.261   0.427
 4231W        W75760  21.684  20.603   4.486
 4232W        W75761  36.218  37.318   4.480
 4233W        W75762  35.456  32.783   4.117
 4234W        W75763   7.193  29.465   0.110
 4235W        W75764  42.493  32.887  13.881
 4236W        W75765  21.697  37.535   0.710
 4237W        W75766  19.816  42.914  11.063
 4238W        W75767  25.205  38.987   1.649
 4239W        W75768  22.701  39.202   1.423
 4240W        W75769  12.152  44.018   0.921
 4241W        W75770  23.921  27.124  10.274
 4242W        W75771  23.311  10.257   3.878
 4243W        W75772  29.332   7.161  13.473
 4244W        W75773  35.973  33.639   0.747
 4245W        W75774  17.253  15.883  14.379
 4246W        W75775  38.064   8.853  14.176
 4247W        W75776  12.419  34.630  12.361
 4248W        W75777  35.386   1.911   2.175
 4249W        W75778  12.321  11.151  13.520
 4250W        W75779  32.938  27.285  11.509
 4251W        W75780  11.731  41.400  11.589
 4252W        W75781  33.506  41.264   0.764
 4253W        W75782  34.390  31.728  12.091
 4254W        W75783  31.651  36.822   2.881
 4255W        W75784  14.026  12.240  10.640
 4256W        W75785  13.546  43.033  13.445
 4257W        W75786   6.332   2.969  14.917
 4258W        W75787  33.414  29.394  11.242
 4259W        W75788  11.472  40.117  11.526
 4260W        W75789   1.466  22.806  12.500
 4261W        W75790  25.968   0.188   0.610
 4262W        W75791  25.103  20.799  12.536
 4263W        W75792  10.298   5.180   1.222
 4264W        W75793  29.406   8.610   1.119
 4265W        W75794   6.797  24.906   1.824
 4266W        W75795  40.106  30.496   0.456
 4267W        W75796  15.044  14.908  11.092
 4268W        W75797  12.181   8.463   4.691
 4269W        W75798   9.685  30.170  10.949
 4270W        W75799  25.091   5.881   1.393
 4271W        W75800  13.087  17.685  14.521
 4272W        W75801  34.626  31.568  11.264
 4273W        W75802  18.123  22.780  11.603
 4274W        W75803  29.777  35.644   2.178
 4275W        W75804  20.139   3.672  12.827
 4276W        W75805  27.573  24.474  13.365
 4277W        W75806  44.679  13.661  11.507
 4278W        W75807  43.561  26.058   1.006
 4279W        W75808  38.060  13.869   4.150
 4280W        W75809  20.186   6.327   3.629
 4281W        W75810  21.545  10.000  11.432
 4282W        W75811  26.239   3.615   4.299
 4283W        W75812  27.931  37.108   2.287
 4284W        W75813  23.202   0.769  13.884
 4285W        W75814   6.593  26.616   2.348
 4286W        W75815  44.556  28.723   1.706
 4287W        W75816  14.881  13.385   1.355
 4288W        W75817  21.614  42.947   1.804
 4289W        W75818   0.054  21.004   2.393
 4290W        W75819  23.409   2.229   1.800
 4291W        W75820  14.129  29.595  12.456
 4292W        W75821  37.160  26.501   0.080
 4293W        W75822  16.197   8.023   4.142
 4294W        W75823  21.557  22.439  11.408
 4295W        W75824  21.210  17.872  10.230
 4296W        W75825  16.624  23.019  10.242
 4297W        W75826  22.836  37.374  11.309
 4298W        W75827   1.137   1.400  13.413
 4299W        W75828  25.788  22.179   2.269
 4300W        W75829  19.517  37.867   0.259
 4301W        W75830  13.541   2.073  12.162
 4302W        W75831  35.101   5.227  12.082
 4303W        W75832  16.950  44.890  14.916
 4304W        W75833   5.517  24.623  10.704
 4305W        W75834  33.652  13.172   1.036
 4306W        W75835   0.476  33.147   2.139
 4307W        W75836  25.267  36.455  13.039
 4308W        W75837   1.297  20.040  12.152
 4309W        W75838  18.801  25.258   3.249
 4310W        W75839   6.815  20.827  11.605
 4311W        W75840  18.516  37.579  14.247
 4312W        W75841  29.750  10.040   0.427
 4313W        W75842  19.524  11.679   3.165
 4314W        W75843  25.554  33.316  13.132
 4315W        W75844  41.956  44.401  13.493
 4316W        W75845  33.379   5.695  14.043
 4317W        W75846  35.948  35.015  13.010
 4318W        W75847  43.508  13.106  13.382
 4319W        W75848  28.188   9.149  11.365
 4320W        W75849  15.849  20.163  11.540
 4321W        W75850  14.148  24.014  11.760
 4322W        W75851  22.725  24.681  11.706
 4323W        W75852  44.817  32.639   4.220
 4324W        W75853  42.954  19.035   4.584
 4325W        W75854  36.391  43.076   1.703
 4326W        W75855  36.000  27.369  12.219
 4327W        W75856  13.120  42.371  14.902
 4328W        W75857  20.762  30.268   4.178
 4329W        W75858  34.040  32.827   1.999
 4330W        W75859  36.830  32.407  14.572
 4331W        W75860  31.043  37.547   0.266
 4332W        W75861  43.358  24.192  11.361
 4333W        W75862   2.167  33.629   3.436
 4334W        W75863  10.868  44.425  14.061
 4335W        W75864  32.125  16.591   0.167
 4336W        W75865  31.986   5.634  14.808
 4337W        W75866  12.182  17.358   2.772
 4338W        W75867  37.532  35.386  13.943
 4339W        W75868  29.354  38.328   4.601
 4340W        W75869  18.527  43.177   1.374
 4341W        W75870  41.020  22.331   3.247
 4342W        W75871   2.859  37.047  13.005
 4343W        W75872   3.000   4.702   1.389
 4344W        W75873  44.504  14.262  12.421
 4345W        W75874  27.288  43.962   3.118
 4346W        W75875  23.603  10.162  13.073
 4347W        W75876  22.802  42.828  14.541
 4348W        W75877   2.762  19.387   0.817
 4349W        W75878  24.928  26.945  13.896
 4350W        W75879  36.793   4.160   2.380
 4351W        W75880  28.033  22.051   3.666
 4352W        W75881  25.433  13.378  13.884
 4353W        W75882  20.717   5.367   0.302
 4354W        W75883  37.313  32.340  14.771
 4355W        W75884  11.216  31.048   0.461
 4356W        W75885  34.563  34.883   3.337
 4357W        W75886  28.404  14.873   3.642
 4358W        W75887  37.322  30.665  13.909
 4359W        W75888  40.007  22.228   1.932
 4360W        W75889  22.198   2.179   4.268
 4361W        W75890  27.041  35.223   4.609
 4362W        W75891  14.473  17.624  11.148
 4363W        W75892  19.211  31.047  13.508
 4364W        W75893  33.716  32.102   4.609
 4365W        W75894  21.545  39.543  12.975
 4366W        W75895  38.786  37.893  11.961
 4367W        W75896   1.252  44.331   2.718
 4368W        W75897  22.396  14.580   4.824
 4369W        W75898  23.469  41.880  13.529
 4370W        W75899  29.188  28.642   4.121
 4371W        W75900  30.876  10.517   2.319
 4372W        W75901  36.025  28.468   0.784
 4373W        W75902  30.550  38.084  13.503
 4374W        W75903  18.392  33.596  12.013
 4375W        W75904   3.308  12.105   1.245
 4376W        W75905  40.946  17.897  13.458
 4377W        W75906  29.083  34.590   1.241
 4378W        W75907   0.938  42.718   3.738
 4379W        W75908  11.187  35.433   1.810
 4380W        W75909  35.125  25.844  12.363
 4381W        W75910  17.034  41.486   4.655
 4382W        W75911  43.344  29.397   1.237
 4383W        W75912  14.773  13.281  14.585
 4384W        W75913   3.900  20.300  11.949
 4385W        W75914  32.286   9.683   2.726
 4386W        W75915  41.472  14.375  12.647
 4387W        W75916  15.534   2.022   4.256
 4388W        W75917  36.612  32.942   2.703
 4389W        W75918  37.520  16.506   0.358
 4390W        W75919  32.141  39.232  10.697
 4391W        W75920  22.059  31.577  14.776
 4392W        W75921  12.733  33.217  11.567
 4393W        W75922  41.466  37.793   4.148
 4394W        W75923  31.170  38.987  13.887
 4395W        W75924   0.652   8.863  11.517
 4396W        W75925  24.739   0.343   1.286
 4397W        W75926  12.183   7.386  11.113
 4398W        W75927  30.007  27.217  12.839
 4399W        W75928  39.778  40.471  12.419
 4400W        W75929  43.821  19.825  14.261
 4401W        W75930  44.619  20.833   0.482
 4402W        W75931  34.887  39.450   2.325
 4403W        W75932  29.949  36.345   0.968
 4404W        W75933  26.052  28.140  14.104
 4405W        W75934  11.112  32.022  11.561
 4406W        W75935  22.986  23.230  14.462
 4407W        W75936  40.944  33.845  13.534
 4408W        W75937  31.035   9.650  12.936
 4409W        W75938   9.930  26.116  11.106
 4410W        W75939  16.586  43.054  10.250
 4411W        W75940  18.220   3.704  14.424
 4412W        W75941  21.402  42.813  14.148
 4413W        W75942  22.526  34.873   1.321
 4414W        W75943  42.204  21.527   2.315
 4415W        W75944  20.197  34.590  11.093
 4416W        W75945  20.048  32.384   1.158
 4417W        W75946  25.693  18.718   2.629
 4418W        W75947  43.541   3.694  14.007
 4419W        W75948   4.064  27.479   3.806
 4420W        W75949  40.508   6.440  14.233
 4421W        W75950   7.153  31.977  11.955
 4422W        W75951   0.477  35.188  10.320
 4423W        W75952  25.719  42.994  11.239
 4424W        W75953   0.478   8.202  13.008
 4425W        W75954  21.299   7.374  14.739
 4426W        W75955  34.784   2.898  14.018
 4427W        W75956   3.886  30.432   1.703
 4428W        W75957  32.406  11.440  14.366
 4429W        W75958  13.417  10.897   2.384
 4430W        W75959   7.258  14.300   1.310
 4431W        W75960  22.136  16.824   1.504
 4432W        W75961   3.783  14.658  12.547
 4433W        W75962  32.017   5.001   3.584
 4434W        W75963   2.782  23.110   0.027
 4435W        W75964  23.306  13.153  13.259
 4436W        W75965  36.680  28.104  14.159
 4437W        W75966   9.368  16.681   0.480
 4438W        W75967  21.329  18.084  13.391
 4439W        W75968  41.887  24.440   2.220
 4440W        W75969  19.693  21.967   3.954
 4441W        W75970   4.269  31.123  11.313
 4442W        W75971   7.742  18.260  12.005
 4443W        W75972   5.296   0.856  10.692
 4444W        W75973  36.109   1.258   2.259
 4445W        W75974  32.045  28.196  11.589
 4446W        W75975  12.378   9.339   4.111
 4447W        W75976   8.364  23.049   4.601
 4448W        W75977   0.355  18.991  11.580
 4449W        W75978  30.953  26.039  12.374
 4450W        W75979  42.470  12.063  13.744
 4451W        W75980  30.628   7.652   0.457
 4452W        W75981   5.868  43.554   2.417
 4453W        W75982  38.101  26.823   3.139
 4454W        W75983  39.146  42.225   3.221
 4455W        W75984  39.031  40.800  13.015
 4456W        W75985  25.127  31.017  13.315
 4457W        W75986  43.544  37.922  14.059
 4458W        W75987  20.226  26.099  12.474
 4459W        W75988  36.970  19.441  13.605
 4460W        W75989  23.121  32.815   0.310
 4461W        W75990   4.718  16.687  12.456
 4462W        W75991  44.947   2.537   3.092
 4463W        W75992  21.425  34.059  10.487
 4464W        W75993   0.831   7.426  11.570
 4465W        W75994  34.550  30.030  13.983
 4466W        W75995  27.489  23.625   4.157
 4467W        W75996   4.706  24.318   1.655
 4468W        W75997  43.995   6.805   1.452
 4469W        W75998  15.483   2.037   0.058
 4470W        W75999  29.899  16.094  13.042
 4471W        W76000   7.194  27.038  14.957
 4472W        W76001  35.398  41.338  14.985
 4473W        W76002  34.197  39.414   4.335
 4474W        W76003   1.882  16.262  11.798
 4475W        W76004  25.184  32.039   4.874
 4476W        W76005  26.541  18.549   2.496
 4477W        W76006   5.975  16.662  11.909
 4478W        W76007  36.332  38.818   2.853
 4479W        W76008  37.892  36.946  10.444
 4480W        W76009   7.145  13.200   2.013
 4481W        W76010  10.661  12.243   4.961
 4482W        W76011  19.733  22.218  12.050
 4483W        W76012  15.223  11.311  12.462
 4484W        W76013  41.347   4.238  14.586
 4485W        W76014   4.701  13.933  12.928
 4486W        W76015   9.398  41.848  13.060
 4487W        W76016   3.352  39.674  11.853
 4488W        W76017  40.612  18.276   2.193
 4489W        W76018  43.848  28.387  13.755
 4490W        W76019   8.814   0.695   1.793
 4491W        W76020  18.676  39.682   1.304
 4492W        W76021   2.439  43.947   0.560
 4493W        W76022  19.834   2.886  10.674
 4494W        W76023   8.854   7.716  11.402
 4495W        W76024  24.122  10.556  12.947
 4496W        W76025   0.917   2.784   4.554
 4497W        W76026  33.556  42.791   0.968
 4498W        W76027   3.345  30.572  12.933
 4499W        W76028  25.152  22.987  13.855
 4500W        W76029  12.374  37.981   2.263
 4501W        W76030   4.700   7.384   0.307
 4502W        W76031  26.719  43.327  12.913
 4503W        W76032  12.888  23.578   4.581
 4504W        W76033  21.230  15.702  13.622
 4505W        W76034  34.394  19.813  14.942
 4506W        W76035  36.070  37.437   3.156
 4507W        W76036   2.537   5.870   1.470
 4508W        W76037  11.167  27.206  12.688
 4509W        W76038  43.801  13.379  14.505
 4510W        W76039  19.424   7.372  11.626
 4511W        W76040  38.598  22.576   3.252
 4512W        W76041  26.178  29.377   1.796
 4513W        W76042  33.624  35.179   2.258
 4514W        W76043  16.557  27.709   4.441
 4515W        W76044  10.273  32.321   0.007
 4516W        W76045   7.016  38.131   1.351
 4517W        W76046  19.076  12.641   0.117
 4518W        W76047  26.988  38.698  11.083
 4519W        W76048  23.927  24.511  12.748
 4520W        W76049  27.739  33.479   2.123
 4521W        W76050  11.725   3.341   3.728
 4522W        W76051  10.936  22.649   1.296
 4523W        W76052   2.876   2.847   4.612
 4524W        W76053  35.772  18.692  14.243
 4525W        W76054  42.303  13.931  11.132
 4526W        W76055  16.691   9.761  11.371
 4527W        W76056  18.750  31.722   2.115
 4528W        W76057  15.849   8.746   3.730
 4529W        W76058   5.971  42.823   4.420
 4530W        W76059  35.979  32.880  14.460
 4531W        W76060  15.492  31.012   1.865
 4532W        W76061  21.715  42.241  12.588
 4533W        W76062   0.607  22.633  10.342
 4534W        W76063  12.447   3.823  11.406
 4535W        W76064  29.068   9.676   1.764
 4536W        W76065  27.695  43.306  13.811
 4537W        W76066   8.264  15.786   1.869
 4538W        W76067  17.839  10.634   3.190
 4539W        W76068  24.366   4.329   1.703
 4540W        W76069   6.302  10.433  11.672
 4541W        W76070  28.613  44.083  11.429
 4542W        W76071   0.933  44.886   2.752
 4543W        W76072  13.368   6.265  14.692
 4544W        W76073  19.564  23.152  12.893
 4545W        W76074  43.536  36.090  13.944
 4546W        W76075  30.757   1.844   2.243
 4547W        W76076   6.199  42.540  14.517
 4548W        W76077  14.715   9.982  13.344
 4549W        W76078   4.337  43.590  14.961
 4550W        W76079  19.085  31.355   5.134
 4551W        W76080  43.634  32.837  13.233
 4552W        W76081   8.780  44.656   1.902
 4553W        W76082  34.466   8.813   3.866
 4554W        W76083  18.008   2.947  14.867
 4555W        W76084  22.506   2.741  14.979
 4556W        W76085  42.407  37.821  11.157
 4557W        W76086  12.066  33.754   0.610
 4558W        W76087  25.247   4.545  12.516
 4559W        W76088  38.717  32.986  14.388
 4560W        W76089  25.996  32.057  12.704
 4561W        W76090  19.225  35.391   2.912
 4562W        W76091  35.664  37.485   2.163
 4563W        W76092  20.303  30.405  11.112
 4564W        W76093  15.112  17.239  14.879
 4565W        W76094  14.421  18.981   1.747
 4566W        W76095  14.174  18.746   3.291
 4567W        W76096  16.088  29.333   4.500
 4568W        W76097  29.880   6.109  11.226
 4569W        W76098   9.511  30.272   2.847
 4570W        W76099  17.554   5.726   3.150
 4571W        W76100  29.663   9.407   1.262
 4572W        W76101  42.928  10.348  12.909
 4573W        W76102   7.737  40.787  14.822
 4574W        W76103  33.499  21.630   4.611
 4575W        W76104   1.225  17.766  12.963
 4576W        W76105  18.736  36.553  11.357
 4577W        W76106  33.423  41.732  12.016
 4578W        W76107  31.494  17.500  14.863
 4579W        W76108   5.905  41.999  11.182
 4580W        W76109  16.633  31.619   3.820
 4581W        W76110  18.465  40.215   1.169
 4582W        W76111  21.069  35.084   0.353
 4583W        W76112  22.704  22.699   0.713
 4584W        W76113  30.632  10.723  12.637
 4585W        W76114  43.939  42.137  13.108
 4586W        W76115  31.201  28.155   2.332
 4587W        W76116  34.329  22.190  12.064
 4588W        W76117  19.786  25.744  13.883
 4589W        W76118  27.902   9.887   0.421
 4590W        W76119   2.948  35.192   0.135
 4591W        W76120  19.148  21.778   5.142
 4592W        W76121   7.863  26.458   5.040
 4593W        W76122  39.461  32.168  13.372
 4594W        W76123  21.003  14.850  10.699
 4595W        W76124  19.022   7.448   0.282
 4596W        W76125  28.717  29.061  10.670
 4597W        W76126  22.550  11.917   3.115
 4598W        W76127  33.409   0.804  11.115
 4599W        W76128  34.789  28.568   0.250
 4600W        W76129  28.485  30.472   0.660
 4601W        W76130  43.857  21.188   5.049
 4602W        W76131  44.347  43.713   3.264
 4603W        W76132  27.920  11.352   3.603
 4604W        W76133  42.791   8.169   0.713
 4605W        W76134  28.039   8.393  10.634
 4606W        W76135  25.619  30.749   3.174
 4607W        W76136  37.410  20.438   4.242
 4608W        W76137   9.384  21.762   4.489
 4609W        W76138  19.254   9.584   4.336
 4610W        W76139  43.123  25.088  14.431
 4611W        W76140  21.702  23.907  12.610
 4612W        W76141  11.371  20.973  14.901
 4613W        W76142  13.507  35.765  13.927
 4614W        W76143  12.790  43.046   0.295
 4615W        W76144   4.616  24.948  11.039
 4616W        W76145  27.914  27.093   1.166
 4617W        W76146  23.177  37.002   2.878
 4618W        W76147  22.134  39.683  11.163
 4619W        W76148  13.555  10.003  10.276
 4620W        W76149  38.047   4.235  11.577
 4621W        W76150  10.666   6.593  14.816
 4622W        W76151  12.570  33.507   4.267
 4623W        W76152   9.084  42.070   0.800
 4624W        W76153  22.046  30.084   1.973
 4625W        W76154   4.105   0.431   3.669
 4626W        W76155  14.219  12.790  13.346
 4627W        W76156  17.683  37.771   4.676
 4628W        W76157  35.900  21.946  13.636
 4629W        W76158  26.204  33.205  14.443
 4630W        W76159  18.967  16.852  13.536
 4631W        W76160  10.186  20.545  12.818
 4632W        W76161  30.891  21.099  12.053
 4633W        W76162   4.702   6.511  10.574
 4634W        W76163   9.865  44.409   3.853
 4635W        W76164  25.049  31.573   0.380
 4636W        W76165  26.918  26.760  13.774
 4637W        W76166  13.695   3.961  12.182
 4638W        W76167   7.415  39.306  14.062
 4639W        W76168  32.449  36.582  13.012
 4640W        W76169  11.081  39.867  14.096
 4641W        W76170   9.804  11.407   1.964
 4642W        W76171  14.858  39.317  13.262
 4643W        W76172  19.716  11.982   4.054
 4644W        W76173  43.884   3.476  13.686
 4645W        W76174   6.338  40.098  13.025
 4646W        W76175   3.340  27.898  11.574
 4647W        W76176   9.782  36.281  13.492
 4648W        W76177  44.080  21.101  13.776
 4649W        W76178  31.465  34.408  13.063
 4650W        W76179   5.168   9.739  13.546
 4651W        W76180  27.051  11.792  12.366
 4652W        W76181  14.667  40.081  12.462
 4653W        W76182  20.824  34.286   2.037
 4654W        W76183  30.890  24.068  14.350
 4655W        W76184   9.272  39.494  10.928
 4656W        W76185  18.677  10.264   3.131
 4657W        W76186  44.408  32.530   1.818
 4658W        W76187  13.009  26.583   1.834
 4659W        W76188  10.250  12.552  12.228
 4660W        W76189   8.414   1.021   2.612
 4661W        W76190  11.647  43.220  14.372
 4662W        W76191   0.505  31.542  12.056
 4663W        W76192  10.712  39.754  11.611
 4664W        W76193  43.781  33.036  10.285
 4665W        W76194  15.641  26.546  13.869
 4666W        W76195  38.371  26.535   4.147
 4667W        W76196  14.693  26.857  10.601
 4668W        W76197  43.076  12.065  11.434
 4669W        W76198  24.236  36.464   2.002
 4670W        W76199  13.080   5.266   1.769
 4671W        W76200  30.544  41.598   1.700
 4672W        W76201  13.010  44.313   4.504
 4673W        W76202  20.832   5.796  10.490
 4674W        W76203  26.166   3.387   2.088
 4675W        W76204   3.338  29.691  13.218
 4676W        W76205  13.946  31.979   0.740
 4677W        W76206  36.875  34.006   4.350
 4678W        W76207   7.036  13.699  13.770
 4679W        W76208   7.639  21.471   4.224
 4680W        W76209  15.947  22.911   1.268
 4681W        W76210  35.574  17.818   3.645
 4682W        W76211  31.516  28.897  10.794
 4683W        W76212  10.604  13.425   0.854
 4684W        W76213  29.167  44.711  12.130
 4685W        W76214  35.877  39.942  12.668
 4686W        W76215  28.110  39.094   1.729
 4687W        W76216   0.190  11.838  11.110
 4688W        W76217  19.082  23.926   1.734
 4689W        W76218   5.642  21.708   1.346
 4690W        W76219  28.743  37.349   1.183
 4691W        W76220  11.258  23.978  12.467
 4692W        W76221   5.771   9.090  14.457
 4693W        W76222   1.407  26.627  10.538
 4694W        W76223  11.931  13.597   3.657
 4695W        W76224  22.208  40.080  14.313
 4696W        W76225   2.843  23.486   1.223
 4697W        W76226  36.980   6.424  10.775
 4698W        W76227  18.419  38.919   4.527
 4699W        W76228  10.687  37.400  14.697
 4700W        W76229   0.531  12.853  12.274
 4701W        W76230  12.945  17.545   4.227
 4702W        W76231  41.336  40.075  10.942
 4703W        W76232  13.660   8.007  11.532
 4704W        W76233  17.212  30.978  11.079
 4705W        W76234  21.672  31.220   2.203
 4706W        W76235   1.688  44.778  13.780
 4707W        W76236  19.789  17.272   0.252
 4708W        W76237  13.620  29.613  12.493
 4709W        W76238  19.405  27.998   3.205
 4710W        W76239  13.363   0.877  10.216
 4711W        W76240  33.829  39.311  13.309
 4712W        W76241  13.721   3.513  11.965
 4713W        W76242  41.466  23.578   2.979
 4714W        W76243  28.248  25.282   1.506
 4715W        W76244   6.371  13.612  11.206
 4716W        W76245  29.909  20.551   4.410
 4717W        W76246  27.075  32.759   2.877
 4718W        W76247  12.074  40.435  10.678
 4719W        W76248   4.551  33.399  11.472
 4720W        W76249   5.698  14.769   0.588
 4721W        W76250  19.877  32.678   3.359
 4722W        W76251  44.118  38.546  11.125
 4723W        W76252  37.885  13.929  10.555
 4724W        W76253  32.354  32.128  14.375
 4725W        W76254   7.499  31.105   1.466
 4726W        W76255   7.887   3.075  13.030
 4727W        W76256  21.271  16.182   2.714
 4728W        W76257  15.727  29.419   0.436
 4729W        W76258  13.624  30.629  11.778
 4730W        W76259   0.854  31.984  10.067
 4731W        W76260  14.560   6.925  14.417
 4732W        W76261  28.099   6.131   3.658
 4733W        W76262  13.538   5.241   3.746
 4734W        W76263  10.895   4.852   3.765
 4735W        W76264  21.231   1.556   1.232
 4736W        W76265  44.683  30.948  12.016
 4737W        W76266  11.327  13.806   0.544
 4738W        W76267  28.423  43.023   9.964
 4739W        W76268   2.772  36.604   1.242
 4740W        W76269  41.520  13.908   2.301
 4741W        W76270  19.727  25.018  12.591
 4742W        W76271  23.115   1.363   4.762
 4743W        W76272   1.331  30.485   0.979
 4744W        W76273   7.323   1.875  11.929
 4745W        W76274  11.741  21.152  13.077
 4746W        W76275  20.140  32.472  12.870
 4747W        W76276  33.975  39.432   3.836
 4748W        W76277   0.108  24.276  14.075
 4749W        W76278  18.305  21.867  12.196
 4750W        W76279  27.206  22.012   2.224
 4751W        W76280  31.211  17.146  10.802
 4752W        W76281  41.159  15.484   5.013
 4753W        W76282  35.398   3.330   4.621
 4754W        W76283  14.362  34.634  13.363
 4755W        W76284  18.192   9.224  10.731
 4756W        W76285  37.042  24.853  11.057
 4757W        W76286   8.309  41.285   0.530
 4758W        W76287  20.726  22.495   2.215
 4759W        W76288  11.898   7.356   1.708
 4760W        W76289   9.792   1.378   0.319
 4761W        W76290  30.099  12.622   4.052
 4762W        W76291  12.740   0.926  10.820
 4763W        W76292  22.800  16.138  11.998
 4764W        W76293  35.122  14.556   0.376
 4765W        W76294   0.289  17.682  12.603
 4766W        W76295   1.366  25.645   0.685
 4767W        W76296  25.004  18.659  12.927
 4768W        W76297  41.570  38.317   1.050
 4769W        W76298  23.755  24.920  13.510
 4770W        W76299  26.460  16.244  11.074
 4771W        W76300  12.245   8.893  13.303
 4772W        W76301   7.365  11.134   4.195
 4773W        W76302  17.347  40.479   1.336
 4774W        W76303  34.348  23.251   3.047
 4775W        W76304  26.779   7.405  13.317
 4776W        W76305  23.320   0.494  13.453
 4777W        W76306  35.228  20.697   0.308
 4778W        W76307  39.771  20.984   3.669
 4779W        W76308  24.470  12.184  12.164
 4780W        W76309  27.728   5.359   4.807
 4781W        W76310  30.986  28.761  14.804
 4782W        W76311   6.829  39.951   4.040
 4783W        W76312  18.781  12.895   3.198
 4784W        W76313  33.490  41.120  10.061
 4785W        W76314  25.094   0.605  14.113
 4786W        W76315  41.494   1.433  12.938
 4787W        W76316  43.223  40.759   3.353
 4788W        W76317  41.564  40.266  14.576
 4789W        W76318  10.367  29.189   4.490
 4790W        W76319  21.583   6.779  11.184
 4791W        W76320  28.060   8.688   5.083
 4792W        W76321  40.848  28.644   1.318
 4793W        W76322  26.095  23.776  13.422
 4794W        W76323  41.260  11.551   2.330
 4795W        W76324  39.134   2.535   0.404
 4796W        W76325   8.413  19.288  11.158
 4797W        W76326  26.440  26.004  13.492
 4798W        W76327  39.975   9.812   2.830
 4799W        W76328  12.252  43.808   0.442
 4800W        W76329  42.448  41.304  14.847
 4801W        W76330  21.991   9.083  14.516
 4802W        W76331  24.248   8.108   3.708
 4803W        W76332   0.371   9.872  14.924
 4804W        W76333  32.997   7.650   1.355
 4805W        W76334  32.817  10.375  12.916
 4806W        W76335  42.521  31.977  12.377
 4807W        W76336  14.190  32.601   0.881
 4808W        W76337  17.855  12.570  12.889
 4809W        W76338  25.570  29.392   4.629
 4810W        W76339  40.582  19.208  14.417
 4811W        W76340   8.243  12.651   4.207
 4812W        W76341   7.699  26.938   0.300
 4813W        W76342  36.676  41.573  11.015
 4814W        W76343   4.347  29.049   1.891
 4815W        W76344   6.717  40.857  14.449
 4816W        W76345  44.829   5.875   0.217
 4817W        W76346  29.397  22.500   0.746
 4818W        W76347  34.607  10.632  14.919
 4819W        W76348   2.059   9.930  13.286
 4820W        W76349  21.120   4.187  10.522
 4821W        W76350  42.329  26.792   0.864
 4822W        W76351  15.575  30.980   5.009
 4823W        W76352   0.534  41.976   3.661
 4824W        W76353  17.800  10.851  10.714
 4825W        W76354   2.895  22.688  13.590
 4826W        W76355  32.933  16.362  13.018
 4827W        W76356  36.948  22.845  12.960
 4828W        W76357  20.680  27.559   1.935
 4829W        W76358   3.061   1.774  14.395
 4830W        W76359  36.271   6.662  13.708
 4831W        W76360  42.968  42.275  13.512
 4832W        W76361   9.617  43.531  13.467
 4833W        W76362  22.762  13.636  11.050
 4834W        W76363   9.400   5.238   0.261
 4835W        W76364  28.502  10.199   3.682
 4836W        W76365  24.157  29.669  12.948
 4837W        W76366  39.714  42.734  12.936
 4838W        W76367  33.498  29.913   2.162
 4839W        W76368  31.892   4.880  13.949
 4840W        W76369  10.145   1.146  14.453
 4841W        W76370   7.425   1.380   2.866
 4842W        W76371   7.149  34.856  12.860
 4843W        W76372  18.239  37.376   1.499
 4844W        W76373  25.196  29.811  10.553
 4845W        W76374  23.018   4.433  12.862
 4846W        W76375  12.832  20.971  11.579
 4847W        W76376  34.762  22.256   4.047
 4848W        W76377  14.048  16.150   1.940
 4849W        W76378  22.235  26.321  13.552
 4850W        W76379  39.553  12.947  12.441
 4851W        W76380  21.031  27.112  14.840
 4852W        W76381  32.325   9.686  11.178
 4853W        W76382  11.772   6.892   1.258
 4854W        W76383  30.789   3.104   0.945
 4855W        W76384  26.656  26.433  12.516
 4856W        W76385  23.451  14.342  14.418
 4857W        W76386  11.144  30.052   2.783
 4858W        W76387  20.247   8.303  10.750
 4859W        W76388  34.475   9.632   1.933
 4860W        W76389  10.318  44.966   2.820
 4861W        W76390   9.133   4.756   0.290
 4862W        W76391  27.501  35.419   1.255
 4863W        W76392  28.552  25.089  10.706
 4864W        W76393  43.901  12.717   3.661
 4865W        W76394  36.268  13.024  10.611
 4866W        W76395   7.308  30.867   0.029
 4867W        W76396   8.837  39.293  11.591
 4868W        W76397  28.059  27.610  14.050
 4869W        W76398  22.131  35.079   0.494
 4870W        W76399  33.708   3.489  10.157
 4871W        W76400  39.197  16.794   3.263
 4872W        W76401  16.301  16.088  12.508
 4873W        W76402  12.876  21.752   1.359
 4874W        W76403  32.653  17.261  12.834
 4875W        W76404  33.831  34.873  11.580
 4876W        W76405   4.313   5.415   3.797
 4877W        W76406  23.989  19.198  11.993
 4878W        W76407  30.731  24.064   2.813
 4879W        W76408  42.891   0.087  11.695
 4880W        W76409  33.342  26.667   0.715
 4881W        W76410   1.189   2.266   3.353
 4882W        W76411  21.074  40.947  13.021
 4883W        W76412  36.858   2.698  10.600
 4884W        W76413  26.732   1.285  12.983
 4885W        W76414  16.978  27.644  11.554
 4886W        W76415  43.743   9.690  13.875
 4887W        W76416  35.352  31.894  11.134
 4888W        W76417   0.494  17.536  13.822
 4889W        W76418  29.072  17.341   0.845
 4890W        W76419   4.413   6.188   1.867
 4891W        W76420   1.141  40.614   0.812
 4892W        W76421  44.962  16.612  10.627
 4893W        W76422  13.323  19.814  14.018
 4894W        W76423  29.502  28.708  11.688
 4895W        W76424  38.697  25.958  14.121
 4896W        W76425  19.773   5.810  11.953
 4897W        W76426   8.427   1.013  14.880
 4898W        W76427   3.855  40.317  13.399
 4899W        W76428  38.595  29.614  11.595
 4900W        W76429   5.378  17.456   0.540
 4901W        W76430  26.536  13.064   0.755
 4902W        W76431  32.549   6.687  14.066
 4903W        W76432   4.052   3.689   3.286
 4904W        W76433  29.497  15.798   2.266
 4905W        W76434  27.655  19.536  10.775
 4906W        W76435  34.413  25.171   2.940
 4907W        W76436  33.933   8.316  11.181
 4908W        W76437   3.729  28.354   4.072
 4909W        W76438  31.454   1.432  14.224
 4910W        W76439  34.622   5.897   2.277
 4911W        W76440   4.433  19.736  12.514
 4912W        W76441  42.727  23.510   1.433
 4913W        W76442   8.077   9.761   0.734
 4914W        W76443  12.181  29.188  13.430
 4915W        W76444  40.936  12.711  12.568
 4916W        W76445  27.740  35.504  13.495
 4917W        W76446  19.674  12.999   1.912
 4918W        W76447  43.054  38.966   3.267
 4919W        W76448  21.138   0.099   3.221
 4920W        W76449   3.275  39.911   0.356
 4921W        W76450  31.607  22.559  12.300
 4922W        W76451  38.380  30.946  10.527
 4923W        W76452  23.781  28.166   2.873
 4924W        W76453  36.703  14.354  14.388
 4925W        W76454  29.790   4.870   2.646
 4926W        W76455  18.234   4.841  12.117
 4927W        W76456   2.389  42.537   1.988
 4928W        W76457  39.447  35.759  14.377
 4929W        W76458  10.906  13.704  12.993
 4930W        W76459  40.898   7.675  13.811
 4931W        W76460   5.286  20.926   2.325
 4932W        W76461   6.180  36.905  12.896
 4933W        W76462  22.591  22.893  10.745
 4934W        W76463  25.074   0.902  13.086
 4935W        W76464  44.611  43.502   3.663
 4936W        W76465   8.508  12.143  11.238
 4937W        W76466  14.828  29.097  14.540
 4938W        W76467  40.436  40.478  13.558
 4939W        W76468   7.826  36.508   4.768
 4940W        W76469  10.095  15.391  14.072
 4941W        W76470   1.831  13.321   4.512
 4942W        W76471  38.848  44.807   0.501
 4943W        W76472  32.126   4.142   2.875
 4944W        W76473  37.627   1.522  13.108
 4945W        W76474  35.545  35.794   1.205
 4946W        W76475  28.090  40.980  14.426
 4947W        W76476  27.768  32.938   4.533
 4948W        W76477  20.028  36.989   0.365
 4949W        W76478  22.074  28.115   2.262
 4950W        W76479  39.429  34.488  14.552
 4951W        W76480   0.889   9.271   0.281
 4952W        W76481  43.427  26.134  13.566
 4953W        W76482  33.153  33.199   4.178
 4954W        W76483  33.646  33.131   2.192
 4955W        W76484  15.850  44.691  12.103
 4956W        W76485  33.375   9.075  12.050
 4957W        W76486   4.943   7.872   3.422
 4958W        W76487  18.175  33.794  13.850
 4959W        W76488  44.923  29.079   2.770
 4960W        W76489  18.388   9.374   3.617
 4961W        W76490  15.186  31.562   0.502
 4962W        W76491  11.343  30.566  12.910
 4963W        W76492  36.487  37.906  11.516
 4964W        W76493   9.330  11.251   4.010
 4965W        W76494  43.361   0.806  11.919
 4966W        W76495  40.623  10.223   4.794
 4967W        W76496  28.633  41.030  12.472
 4968W        W76497   8.716   2.039  13.945
 4969W        W76498  21.514  36.355   1.675
 4970W        W76499  29.457   7.432   4.909
 4971W        W76500  21.197  28.615   4.515
 4972W        W76501  39.549  27.148   0.778
 4973W        W76502   4.234  18.743  13.476
 4974W        W76503  42.879  35.057   4.053
 4975W        W76504  24.139   1.340  11.032
 4976W        W76505   9.355   1.542   3.225
 4977W        W76506  12.151  24.790   3.303
 4978W        W76507  14.079  41.949  14.345
 4979W        W76508   8.317  20.649  13.393
 4980W        W76509   6.330  15.462   0.251
 4981W        W76510  19.146  42.649   3.631
 4982W        W76511  33.676  29.007  14.427
 4983W        W76512  27.073   0.049  11.025
 4984W        W76513  37.340  33.393  12.808
 4985W        W76514  31.453  11.718   1.815
 4986W        W76515  36.512  35.115   2.877
 4987W        W76516   3.910   9.489  10.630
 4988W        W76517   4.936  10.919  14.871
 4989W        W76518   8.475  42.344  13.478
 4990W        W76519  11.970  34.211   4.683
 4991W        W76520  22.653  21.146  11.583
 4992W        W76521  41.619  34.503   2.324
 4993W        W76522  32.717   8.189   3.128
 4994W        W76523  14.535  32.952   2.433
 4995W        W76524  18.917  34.543   0.355
 4996W        W76525   4.829  23.250   2.783
 4997W        W76526  14.673  20.039   2.689
 4998W        W76527  32.916  36.415   1.456
 4999W        W76528  30.577   4.955  14.343
 5000W        W76529  22.197  43.079   1.871
 5001W        W76530  11.168   9.645  14.281
 5002W        W76531  28.038   8.158   0.411
 5003W        W76532  12.339  21.604  10.667
 5004W        W76533  28.447  41.520   2.378
 5005W        W76534  19.829  31.522   0.346
 5006W        W76535  43.163  39.072  10.051
 5007W        W76536  44.352  38.948  13.019
 5008W        W76537  39.034  35.335  10.784
 5009W        W76538  31.563  32.407  12.910
 5010W        W76539  23.734   0.280   4.701
 5011W        W76540  44.245  14.247   2.332
 5012W        W76541  31.135   6.892  10.833
 5013W        W76542  31.525  24.968  13.045
 5014W        W76543  22.267   4.444  14.112
 5015W        W76544   4.009  11.578   3.273
 5016W        W76545  34.194  27.204   4.211
 5017W        W76546   4.147  43.934  12.667
 5018W        W76547  43.253  37.439   4.838
 5019W        W76548  16.728  44.062   0.972
 5020W        W76549   9.299  36.852  12.806
 5021W        W76550  24.940   0.331   3.251
 5022W        W76551  19.387  39.271  11.046
 5023W        W76552  13.551  11.952   3.370
 5024W        W76553  28.056  23.142   3.698
 5025W        W76554  24.494  15.490  14.369
 5026W        W76555   1.732  44.938   4.087
 5027W        W76556  39.414  32.872  13.961
 5028W        W76557   0.148   3.285   4.516
 5029W        W76558  41.377  24.536   3.395
 5030W        W76559  23.937   4.037   4.446
 5031W        W76560  37.383   9.396  14.792
 5032W        W76561  22.554   1.329  12.137
 5033W        W76562  35.991  31.677   4.180
 5034W        W76563  37.757  40.836  10.479
 5035W        W76564  30.388  21.895  12.087
 5036W        W76565  19.976  17.787  13.710
 5037W        W76566  12.150  37.503  10.156
 5038W        W76567  28.473   9.742  12.828
 5039W        W76568  29.505  16.042   3.611
 5040W        W76569  11.288  20.144  11.887
 5041W        W76570  12.860   4.357  10.659
 5042W        W76571   1.451  32.947   2.185
 5043W        W76572  13.847   5.160   4.153
 5044W        W76573  19.257  19.680   4.745
 5045W        W76574  26.978  42.400   2.481
 5046W        W76575  31.923  34.847  14.381
 5047W        W76576  25.028  38.355  14.989
 5048W        W76577   1.341  24.461  10.715
 5049W        W76578  33.303  25.398   4.126
 5050W        W76579  32.332  41.210   0.296
 5051W        W76580  32.944   1.391   2.114
 5052W        W76581  33.368  27.090   1.937
 5053W        W76582  39.326  13.227  11.968
 5054W        W76583  41.061  17.597  13.878
 5055W        W76584  28.109  14.292   5.046
 5056W        W76585  17.759  11.432   4.559
 5057W        W76586  29.412  24.964   1.887
 5058W        W76587  41.972  40.781  10.669
 5059W        W76588  32.442  40.854   1.666
 5060W        W76589  14.837  30.210  14.903
 5061W        W76590   4.879   4.241   0.281
 5062W        W76591  15.816  29.951  14.388
 5063W        W76592   6.189  31.875  13.420
 5064W        W76593  19.409   1.814  12.502
 5065W        W76594  44.940  28.684  11.034
 5066W        W76595  22.566  33.970   4.176
 5067W        W76596   2.759  18.524  12.408
 5068W        W76597  33.870  11.745   4.106
 5069W        W76598   4.306  35.784   0.220
 5070W        W76599  35.534  34.807  11.127
 5071W        W76600   8.208   9.199  14.486
 5072W        W76601   3.894  11.300  10.447
 5073W        W76602   4.951  25.365  13.844
 5074W        W76603  42.941  31.849  11.069
 5075W        W76604  26.257   9.306  14.846
 5076W        W76605  13.313  30.413   1.403
 5077W        W76606  38.537   9.867  11.432
 5078W        W76607   6.358  44.934  14.038
 5079W        W76608  35.808  37.141   0.984
 5080W        W76609  19.632  33.558  13.160
 5081W        W76610  10.022  35.369  12.250
 5082W        W76611   9.873  27.067  12.120
 5083W        W76612   6.964  25.663   4.553
 5084W        W76613  39.809   2.641  14.451
 5085W        W76614  25.757  38.371   0.248
 5086W        W76615   3.234  21.276  13.776
 5087W        W76616  42.036   9.355  10.604
 5088W        W76617  33.585  29.566  12.126
 5089W        W76618   2.834  27.006  12.332
 5090W        W76619  35.594  37.689   3.996
 5091W        W76620  18.628  16.612  14.350
 5092W        W76621  13.256  41.867  13.766
 5093W        W76622  26.605  20.805   0.319
 5094W        W76623  18.877   8.561   5.140
 5095W        W76624   8.329  23.898   3.175
 5096W        W76625  10.253  37.916  13.024
 5097W        W76626  32.032  34.536   2.588
 5098W        W76627  29.034  14.448  12.772
 5099W        W76628  28.150  17.649   2.890
 5100W        W76629  35.583  18.203   3.169
 5101W        W76630  28.884  30.024  11.245
 5102W        W76631  34.444  12.167  11.602
 5103W        W76632  12.103  37.281   2.265
 5104W        W76633  24.652   5.985  13.420
 5105W        W76634  31.473  29.647  14.011
 5106W        W76635  25.408   2.864  12.152
 5107W        W76636  15.137   4.327  13.053
 5108W        W76637   4.314   4.461  13.228
 5109W        W76638  38.481  34.134   1.690
 5110W        W76639   4.459  27.972   1.311
 5111W        W76640  22.500  43.243   0.432
 5112W        W76641  30.862   2.005   0.579
 5113W        W76642  17.181  27.712  13.375
 5114W        W76643   4.720  17.956  14.947
 5115W        W76644  34.882  17.705   3.275
 5116W        W76645   1.462  44.569   2.267
 5117W        W76646  28.444   1.931  14.691
 5118W        W76647  17.180  27.096  12.328
 5119W        W76648  32.335  38.102  12.473
 5120W        W76649  33.806  27.858  12.406
 5121W        W76650  15.657  25.225  12.134
 5122W        W76651   8.141  14.826   4.200
 5123W        W76652  20.507  44.773  12.043
 5124W        W76653  23.620  31.790   0.704
 5125W        W76654   7.453   9.631  10.785
 5126W        W76655   4.440  19.092  10.000
 5127W        W76656   6.463  16.536   4.180
 5128W        W76657   8.273  32.536   1.197
 5129W        W76658  31.084  26.451   0.227
 5130W        W76659  27.448  35.952  13.386
 5131W        W76660   3.999  33.915  13.084
 5132W        W76661  39.633  21.491   3.410
 5133W        W76662  10.662   9.981  13.131
 5134W        W76663   4.636  42.759  10.266
 5135W        W76664  11.654  37.287  11.530
 5136W        W76665  23.568  41.740  11.614
 5137W        W76666  37.353  25.297   1.200
 5138W        W76667  40.634  35.744   4.610
 5139W        W76668   8.047   2.821  13.723
 5140W        W76669   3.395   5.552  12.072
 5141W        W76670   2.893   2.332   1.353
 5142W        W76671  15.863  36.311   2.177
 5143W        W76672   4.931  16.594  13.872
 5144W        W76673  21.058  20.547  11.019
 5145W        W76674  24.021  19.633   0.915
 5146W        W76675  24.228  32.334   1.869
 5147W        W76676   8.270  17.481   0.460
 5148W        W76677   2.585   6.201   0.755
 5149W        W76678  37.386  14.772   2.213
 5150W        W76679  26.634  16.039   4.577
 5151W        W76680  26.206  10.699   1.628
 5152W        W76681  29.865   4.034   0.239
 5153W        W76682  26.566  37.802  14.103
 5154W        W76683   8.344  40.567   0.798
 5155W        W76684  40.339   2.411  13.351
 5156W        W76685  42.462  12.756  13.469
 5157W        W76686  19.252  38.435  10.535
 5158W        W76687   3.882  36.560  12.411
 5159W        W76688   6.216  41.842   0.293
 5160W        W76689  28.449   8.084  10.690
 5161W        W76690  16.159  10.300   0.336
 5162W        W76691  12.281  24.181  14.777
 5163W        W76692  29.623  28.703  10.697
 5164W        W76693  31.905   1.471  14.952
 5165W        W76694  34.972  12.895   0.780
 5166W        W76695  28.171  13.514  10.282
 5167W        W76696  27.968  20.856   5.048
 5168W        W76697   7.725   3.229   5.096
 5169W        W76698  43.529  19.629   3.340
 5170W        W76699  16.100  19.713  11.477
 5171W        W76700  25.448  31.012   3.579
 5172W        W76701  10.903  42.714  10.113
 5173W        W76702  42.473  18.045  10.762
 5174W        W76703  26.214  44.980  13.495
 5175W        W76704   1.879  21.545  10.686
 5176W        W76705  18.295  35.030   0.523
 5177W        W76706  31.042   3.964   0.359
 5178W        W76707  26.155   8.117   3.794
 5179W        W76708   2.215   5.672  13.675
 5180W        W76709  36.116  30.293  11.152
 5181W        W76710  15.788  23.798  13.887
 5182W        W76711   2.928  23.252   2.834
 5183W        W76712  33.122  36.944  11.418
 5184W        W76713   1.900  18.231  11.185
 5185W        W76714  11.509  38.026  11.809
 5186W        W76715  37.897  20.769   0.501
 5187W        W76716  28.151  34.799   2.135
 5188W        W76717   2.307  39.604   3.675
 5189W        W76718  32.540  30.852   2.425
 5190W        W76719  28.531  16.785  13.587
 5191W        W76720  28.487  30.962   0.467
 5192W        W76721  26.993  27.305   0.017
 5193W        W76722   0.333  25.762  11.078
 5194W        W76723  37.369  16.749  12.069
 5195W        W76724  36.571   4.382  10.737
 5196W        W76725  18.916  34.613  13.862
 5197W        W76726  43.054  13.595   2.277
 5198W        W76727  35.677   4.719   4.261
 5199W        W76728  26.249  12.313   1.840
 5200W        W76729  26.089  30.090  11.596
 5201W        W76730  29.600  35.205   2.417
 5202W        W76731  20.744  31.043  12.710
 5203W        W76732  38.503  26.704  12.466
 5204W        W76733   0.077  39.353  12.134
 5205W        W76734  32.908  23.455   4.743
 5206W        W76735   6.485   3.843   1.014
 5207W        W76736  13.945  28.289  12.582
 5208W        W76737   1.525  30.627  13.805
 5209W        W76738  37.267  10.876   3.749
 5210W        W76739  11.199  33.012   3.634
 5211W        W76740   7.897  35.815   4.234
 5212W        W76741  24.461   9.948  12.632
 5213W        W76742  22.618  40.001   0.033
 5214W        W76743  15.016  43.935  10.998
 5215W        W76744  15.846  10.274   1.407
 5216W        W76745  33.930  36.110  12.889
 5217W        W76746  20.052  39.456  13.581
 5218W        W76747  38.486   7.687   2.200
 5219W        W76748  12.633  18.268   0.404
 5220W        W76749  10.699   6.151   4.040
 5221W        W76750  10.569  42.263   0.092
 5222W        W76751  34.896  21.586   1.973
 5223W        W76752  32.549  14.664  12.910
 5224W        W76753  29.251  44.145   1.787
 5225W        W76754  17.630  40.805   5.078
 5226W        W76755   4.866  31.943   1.844
 5227W        W76756  32.467  13.765  12.389
 5228W        W76757  31.757  24.149   2.688
 5229W        W76758   9.153   9.985  11.488
 5230W        W76759  35.560  33.895  12.483
 5231W        W76760  34.357  31.085  11.318
 5232W        W76761  37.051   6.801   3.565
 5233W        W76762  43.329  35.484   2.414
 5234W        W76763  24.219  25.484   3.127
 5235W        W76764  14.237  16.506  10.660
 5236W        W76765  21.527  16.553   3.762
 5237W        W76766  25.246  13.354  11.651
 5238W        W76767  25.885  31.714   4.197
 5239W        W76768  28.161  39.608   4.164
 5240W        W76769  13.880  41.445   0.426
 5241W        W76770  20.538  35.611  14.448
 5242W        W76771  21.384   9.534  13.806
 5243W        W76772  16.081  20.520   0.414
 5244W        W76773  18.761   2.880  14.484
 5245W        W76774  27.926  10.390  14.827
 5246W        W76775  14.688  17.550  13.033
 5247W        W76776   4.994  10.497   0.721
 5248W        W76777  36.566  36.771  10.808
 5249W        W76778  29.508   4.031  14.326
 5250W        W76779  25.083  15.223  13.863
 5251W        W76780  28.302  22.615  10.738
 5252W        W76781  23.831  22.968   1.285
 5253W        W76782  34.646  26.990  13.633
 5254W        W76783  25.969  40.598   2.751
 5255W        W76784  20.080   4.939  14.930
 5256W        W76785  44.501  43.957  10.749
 5257W        W76786  12.458  33.530  14.452
 5258W        W76787  20.630  31.620   2.442
 5259W        W76788   5.689   4.704  13.747
 5260W        W76789  38.140   3.036  11.115
 5261W        W76790   6.384  43.954   2.979
 5262W        W76791   0.849  11.426   1.522
 5263W        W76792  17.617  44.241  12.387
 5264W        W76793  12.110   6.205   3.188
 5265W        W76794  13.335   6.374  14.172
 5266W        W76795  27.805  27.229  12.803
 5267W        W76796  24.719  14.634   4.197
 5268W        W76797  39.831  26.632   0.096
 5269W        W76798  37.946   5.924  12.739
 5270W        W76799  18.876  10.869  13.399
 5271W        W76800  24.129  17.216  12.452
 5272W        W76801  17.022  33.785   3.680
 5273W        W76802  13.638  32.731   2.541
 5274W        W76803  33.049  19.321   3.251
 5275W        W76804  39.072  31.195  12.083
 5276W        W76805  43.443  17.718  14.028
 5277W        W76806  18.276  17.676   2.812
 5278W        W76807  28.219   3.381   2.255
 5279W        W76808  20.804  28.313  11.642
 5280W        W76809  32.623   5.147   0.823
 5281W        W76810  34.683  13.528  14.550
 5282W        W76811  13.134  33.986  14.133
 5283W        W76812  30.510  28.979   0.483
 5284W        W76813  35.840  28.605   1.240
 5285W        W76814  26.581  37.916  11.637
 5286W        W76815  44.109  22.020  12.356
 5287W        W76816   8.353  15.165  12.874
 5288W        W76817   5.389  39.202  14.161
 5289W        W76818  10.590  22.515  12.096
 5290W        W76819   0.537  24.104   3.559
 5291W        W76820  11.410   4.720   3.766
 5292W        W76821  22.765  20.798  14.353
 5293W        W76822  35.607  22.564  11.634
 5294W        W76823  22.084  18.863  11.430
 5295W        W76824  28.425  19.838   0.998
 5296W        W76825  38.232  25.556  12.149
 5297W        W76826  20.207  26.190   1.397
 5298W        W76827  13.484   4.395  11.950
 5299W        W76828  33.497  16.535   4.107
 5300W        W76829   2.804  14.804   0.908
 5301W        W76830  22.233  29.219   1.658
 5302W        W76831  43.770   3.100  12.832
 5303W        W76832   3.120   9.789  13.364
 5304W        W76833  25.551   8.898  11.790
 5305W        W76834  27.567  31.120   2.215
 5306W        W76835  36.627   7.367   0.824
 5307W        W76836  26.625   7.310   1.334
 5308W        W76837  34.375  40.408   3.295
 5309W        W76838  40.575  28.532  12.311
 5310W        W76839  32.441  29.644  13.315
 5311W        W76840   3.967   8.030   0.801
 5312W        W76841  42.841   0.496   3.817
 5313W        W76842  37.252  27.883  13.073
 5314W        W76843  30.316  14.539   1.877
 5315W        W76844  38.797  38.311   2.223
 5316W        W76845  12.147   1.511  12.083
 5317W        W76846  36.489  32.457   0.888
 5318W        W76847  31.509  23.426  12.846
 5319W        W76848  26.611  16.716  12.483
 5320W        W76849   5.222   1.394   2.831
 5321W        W76850   1.382  15.289   3.189
 5322W        W76851   9.687  43.737   4.141
 5323W        W76852  25.247   1.693   0.762
 5324W        W76853  22.598  28.932   1.285
 5325W        W76854  27.097  44.846  13.763
 5326W        W76855  40.234  27.451  12.438
 5327W        W76856  19.705  19.168   1.379
 5328W        W76857  20.131   1.612   1.942
 5329W        W76858  26.672   1.944  11.470
 5330W        W76859  40.214   5.157   3.682
 5331W        W76860   2.991   2.990  14.053
 5332W        W76861   5.919   3.792  11.781
 5333W        W76862  34.044   6.752  14.125
 5334W        W76863  39.761  15.998   4.266
 5335W        W76864   3.906  16.382   3.436
 5336W        W76865  32.472  15.605   2.768
 5337W        W76866  29.071  20.441  14.437
 5338W        W76867   7.636  10.185  10.748
 5339W        W76868  11.661  37.415   4.333
 5340W        W76869  39.599   3.283  13.322
 5341W        W76870   7.251   3.197  13.109
 5342W        W76871  32.347  17.720  12.006
 5343W        W76872   2.730  30.455   4.587
 5344W        W76873  28.548  35.395   4.237
 5345W        W76874  26.645  16.753  11.042
 5346W        W76875  33.124  13.089   1.125
 5347W        W76876  26.567  31.465  10.658
 5348W        W76877  26.728  14.685   2.985
 5349W        W76878  10.880   3.001  14.836
 5350W        W76879  16.692  28.687   1.172
 5351W        W76880   5.882   7.169  12.522
 5352W        W76881  22.687  41.590  11.253
 5353W        W76882   4.199  22.780  13.551
 5354W        W76883  39.315  40.866   4.103
 5355W        W76884  33.616   0.017  14.476
 5356W        W76885  30.542   3.815  11.053
 5357W        W76886  32.470  26.014   2.166
 5358W        W76887  38.549  10.590  13.086
 5359W        W76888  27.042  22.058   0.025
 5360W        W76889  16.146  16.368  12.913
 5361W        W76890  14.097  41.867  10.773
 5362W        W76891   7.937  19.833   3.710
 5363W        W76892   8.515   3.864   4.818
 5364W        W76893   9.481   9.672   0.324
 5365W        W76894   7.850  17.649  12.886
 5366W        W76895   1.733  29.775  12.676
 5367W        W76896  18.233  22.084  11.720
 5368W        W76897  26.883   8.346   3.242
 5369W        W76898  35.162   0.479   0.740
 5370W        W76899  43.332   9.810   2.999
 5371W        W76900   6.841  33.984   4.205
 5372W        W76901  20.861  30.148   0.738
 5373W        W76902  24.986   7.912  11.356
 5374W        W76903  23.630  10.575  10.544
 5375W        W76904  18.546   8.844  11.164
 5376W        W76905  32.387  40.408   3.584
 5377W        W76906  15.321  29.961  14.176
 5378W        W76907  21.911  32.479  13.508
 5379W        W76908  19.003   0.870  12.426
 5380W        W76909  20.518  10.149  13.042
 5381W        W76910  27.472  22.228  12.597
 5382W        W76911   0.616   2.834  11.647
 5383W        W76912   7.343   7.914   0.711
 5384W        W76913  16.162  43.598  14.764
 5385W        W76914  24.130  32.841  11.451
 5386W        W76915  24.263  15.837   5.007
 5387W        W76916   3.944   5.331   2.299
 5388W        W76917   2.503   1.262   0.922
 5389W        W76918   2.809  27.225   3.836
 5390W        W76919  38.054   9.817  13.279
 5391W        W76920  23.613  14.769   3.331
 5392W        W76921  26.076  30.692   2.276
 5393W        W76922   9.186   2.704  11.510
 5394W        W76923  43.340  34.964  10.839
 5395W        W76924  42.580  32.025  10.749
 5396W        W76925  38.574  11.626  12.870
 5397W        W76926  38.774   6.145   0.381
 5398W        W76927  40.279  21.307   1.240
 5399W        W76928  41.043  38.090   4.259
 5400W        W76929  33.436  36.011  13.056
 5401W        W76930  43.382  16.249  11.549
 5402W        W76931   5.865  38.780  11.818
 5403W        W76932  40.074  38.823  10.879
 5404W        W76933  27.064  29.764  13.924
 5405W        W76934  17.840  36.779   3.098
 5406W        W76935  23.328  44.844  12.036
 5407W        W76936  23.757  34.173   2.199
 5408W        W76937  15.573  25.298   3.578
 5409W        W76938  23.097   4.825   2.665
 5410W        W76939  28.226  31.638  11.958
 5411W        W76940  43.998  12.076   3.303
 5412W        W76941  40.376  33.373   2.617
 5413W        W76942   0.296  35.127  11.178
 5414W        W76943   2.220  19.341  13.945
 5415W        W76944  38.634  23.075   1.985
 5416W        W76945  37.055  19.965   0.136
 5417W        W76946   6.174  39.238   2.768
 5418W        W76947   4.630  13.756   1.970
 5419W        W76948  33.672  26.425  14.222
 5420W        W76949  44.472   6.121   1.745
 5421W        W76950  33.212  18.009   0.400
 5422W        W76951  23.536   8.239   1.994
 5423W        W76952  26.976   4.947  11.994
 5424W        W76953  40.302  14.899   2.847
 5425W        W76954  33.193  23.734  13.521
 5426W        W76955  33.870  25.546  13.059
 5427W        W76956  41.534   9.535   1.394
 5428W        W76957  10.489  35.743  14.131
 5429W        W76958  17.782  29.996   2.801
 5430W        W76959  15.770  30.060   1.703
 5431W        W76960  26.966  19.760   3.696
 5432W        W76961  43.259  16.491  12.954
 5433W        W76962   8.733  13.319   4.556
 5434W        W76963  39.456  38.927   4.442
 5435W        W76964  14.185   1.709  14.107
 5436W        W76965   1.490  36.699  10.287
 5437W        W76966  31.503  32.558   4.939
 5438W        W76967  30.147   9.118  12.061
 5439W        W76968   0.824  20.055   4.648
 5440W        W76969  27.631   6.375   1.852
 5441W        W76970  29.622  21.997  13.228
 5442W        W76971  22.730   1.794  13.360
 5443W        W76972  25.257  40.716  12.853
 5444W        W76973  18.262  41.460   4.215
 5445W        W76974  16.208  38.327   4.129
 5446W        W76975   2.170  15.095   4.241
 5447W        W76976  37.184  17.701  12.120
 5448W        W76977  22.718  14.872  10.566
 5449W        W76978  17.439  28.472   1.733
 5450W        W76979  38.241  11.327  11.988
 5451W        W76980  33.639  33.147   1.681
 5452W        W76981  36.424  28.854   0.774
 5453W        W76982  26.622  44.950  13.065
 5454W        W76983  43.249   5.253  13.940
 5455W        W76984   9.372  14.824   1.742
 5456W        W76985  22.150  15.594   2.093
 5457W        W76986  10.179  31.193   2.754
 5458W        W76987   0.336  13.513   0.884
 5459W        W76988  39.873  44.749  11.532
 5460W        W76989  11.114   2.679   2.300
 5461W        W76990  15.097  38.046   0.212
 5462W        W76991  29.210   2.926   3.611
 5463W        W76992   1.336  36.974  14.070
 5464W        W76993  12.418  11.765   1.487
 5465W        W76994  32.009  37.961  14.892
 5466W        W76995   3.944  29.555  10.653
 5467W        W76996  12.262  35.105   4.751
 5468W        W76997  38.242  24.001  14.471
 5469W        W76998  13.191   9.645   4.572
 5470W        W76999   7.241  22.792   2.058
 5471W        W77000  40.313  33.764  12.449
 5472W        W77001  16.649  16.549   1.684
 5473W        W77002  27.727   0.397  14.744
 5474W        W77003  31.537  23.634  10.257
 5475W        W77004  34.453   2.225   3.613
 5476W        W77005  21.754  43.464  13.492
 5477W        W77006   6.188  14.516   2.887
 5478W        W77007  34.296  11.459  12.383
 5479W        W77008  28.086  37.040   0.022
 5480W        W77009  34.254  21.659   4.084
 5481W        W77010  10.733  23.237   3.822
 5482W        W77011  37.115  16.818   0.407
 5483W        W77012  20.758  18.572   3.108
 5484W        W77013   3.466  40.077  14.407
 5485W        W77014  17.748  16.600   3.580
 5486W        W77015  12.104  31.452   3.364
 5487W        W77016  15.017  31.911   3.248
 5488W        W77017  13.880   1.859   2.258
 5489W        W77018  18.231  18.176  14.193
 5490W        W77019   4.424   9.397  10.481
 5491W        W77020  28.943  37.818   1.248
 5492W        W77021  38.314  17.226  13.549
 5493W        W77022  39.588  24.638  11.919
 5494W        W77023  29.474  25.610   1.334
 5495W        W77024  14.243  23.546   0.983
 5496W        W77025  11.849   7.560  11.688
 5497W        W77026  44.008  38.616  12.142
 5498W        W77027  17.407  17.093   0.205
 5499W        W77028  42.905  22.609  11.120
 5500W        W77029  31.960  25.436   3.427
 5501W        W77030  17.213   5.364   4.887
 5502W        W77031  21.425  32.251  14.787
 5503W        W77032  40.767   1.847  11.215
 5504W        W77033  14.670   7.529  11.560
 5505W        W77034  37.858  21.253   3.084
 5506W        W77035  29.497  23.991  13.415
 5507W        W77036  12.685  15.153  10.748
 5508W        W77037  18.582  21.674  13.953
 5509W        W77038  23.557  34.719   4.968
 5510W        W77039   4.426  31.964   2.851
 5511W        W77040   2.872  42.303  14.887
 5512W        W77041  38.328  23.963   2.853
 5513W        W77042  38.793  18.683  12.471
 5514W        W77043   8.622  27.611  13.783
 5515W        W77044   8.729  41.255   3.920
 5516W        W77045  41.080  17.781  10.678
 5517W        W77046  28.374  28.923  13.774
 5518W        W77047   6.293  24.227   4.571
 5519W        W77048  14.154  20.616  14.044
 5520W        W77049  38.717  38.039  12.981
 5521W        W77050  19.629  15.088   0.734
 5522W        W77051  31.679  39.946  10.487
 5523W        W77052  11.319  22.998  13.787
 5524W        W77053   4.963  22.201   1.390
 5525W        W77054  19.869  29.130  14.458
 5526W        W77055   0.867  13.335   4.552
 5527W        W77056   3.720   1.333   0.314
 5528W        W77057  26.903   3.906  10.677
 5529W        W77058  13.806  34.600  14.237
 5530W        W77059  16.113  35.845   0.894
 5531W        W77060  36.947  43.068  12.867
 5532W        W77061  30.860  18.615  12.584
 5533W        W77062  13.760  43.146  12.932
 5534W        W77063  42.234   0.378   0.252
 5535W        W77064  24.460  12.755   3.168
 5536W        W77065  11.680   9.604   3.168
 5537W        W77066  40.514  26.397   3.119
 5538W        W77067  31.175  33.145  14.313
 5539W        W77068  34.290  41.370   1.301
 5540W        W77069  38.407   8.328  14.894
 5541W        W77070   0.734   9.296   2.114
 5542W        W77071  42.839  39.579   1.784
 5543W        W77072  23.460  11.467   3.321
 5544W        W77073  14.633  25.660  14.570
 5545W        W77074   3.499  37.610  12.861
 5546W        W77075  30.639  21.699   0.505
 5547W        W77076  41.840   6.661   3.650
 5548W        W77077   1.289  23.232  14.333
 5549W        W77078  42.146  40.520  11.112
 5550W        W77079   2.530   6.288  12.931
 5551W        W77080  17.229   3.426  11.201
 5552W        W77081  25.223  37.994   0.818
 5553W        W77082  15.713   8.758   0.886
 5554W        W77083  14.339   2.201  13.820
 5555W        W77084  32.906  33.617   2.713
 5556W        W77085  31.631  34.161   4.247
 5557W        W77086  12.312  43.833   4.999
 5558W        W77087  29.898  34.596  13.063
 5559W        W77088  43.097  30.994   2.220
 5560W        W77089   5.616   6.344   4.988
 5561W        W77090  30.152  27.672  14.112
 5562W        W77091  13.304   6.012  11.101
 5563W        W77092  33.395  18.530   3.379
 5564W        W77093  12.130  11.911   0.048
 5565W        W77094  16.945  37.629   3.663
 5566W        W77095  26.711  27.664   0.803
 5567W        W77096  14.655  34.368   0.223
 5568W        W77097  38.137  13.750   1.405
 5569W        W77098  32.548  34.066  12.605
 5570W        W77099  29.447  22.025  12.722
 5571W        W77100  35.046  32.888  12.828
 5572W        W77101  37.747  43.555   1.395
 5573W        W77102  34.599   2.316   0.203
 5574W        W77103  33.375  36.469  10.451
 5575W        W77104  34.764   5.627   0.664
 5576W        W77105  25.089  33.653  11.229
 5577W        W77106  38.417  12.721  11.479
 5578W        W77107  10.276  32.287   0.918
 5579W        W77108   2.376  37.395  14.028
 5580W        W77109  24.149  43.405   0.915
 5581W        W77110  14.025  21.760  12.533
 5582W        W77111   1.265   4.881  14.531
 5583W        W77112  41.847   8.064   1.496
 5584W        W77113  10.271   2.769   1.852
 5585W        W77114  39.314  14.312  12.094
 5586W        W77115  26.272   8.389   4.218
 5587W        W77116  18.071  38.975  11.063
 5588W        W77117  44.180   3.693   0.605
 5589W        W77118   9.089   2.860   0.296
 5590W        W77119  12.443   1.879   3.606
 5591W        W77120  31.199  16.632  11.498
 5592W        W77121  22.961  30.471   2.934
 5593W        W77122  36.667  37.746   3.673
 5594W        W77123  32.554  41.765  14.952
 5595W        W77124  38.404   7.465  14.285
 5596W        W77125  21.803  44.062   3.681
 5597W        W77126  43.062  10.926   3.761
 5598W        W77127  13.709  22.376   5.017
 5599W        W77128  44.835  41.752   4.773
 5600W        W77129  11.866  28.558   3.048
 5601W        W77130  37.055  31.941  14.497
 5602W        W77131  12.834  13.760  10.754
 5603W        W77132   2.163  17.253   0.190
 5604W        W77133   1.475   1.421  12.015
 5605W        W77134  13.120  22.279  12.838
 5606W        W77135  20.197   8.204   4.241
 5607W        W77136   9.649  24.968   4.307
 5608W        W77137  21.273  15.358  14.084
 5609W        W77138  33.075  24.403   3.108
 5610W        W77139  18.761  20.886   3.141
 5611W        W77140  28.440   3.278   0.846
 5612W        W77141  11.612  21.010   2.946
 5613W        W77142  39.045  19.739  10.679
 5614W        W77143   1.333  27.090  10.802
 5615W        W77144  25.524  24.970  13.451
 5616W        W77145  24.554  38.293   1.301
 5617W        W77146  19.753   8.208  11.909
 5618W        W77147  30.564  38.590  11.248
 5619W        W77148  42.368  31.337   4.504
 5620W        W77149  10.302  32.609   4.143
 5621W        W77150   3.364   6.921  12.827
 5622W        W77151  24.473  14.713   0.732
 5623W        W77152  37.564  38.890   3.349
 5624W        W77153   1.491   1.988   2.341
 5625W        W77154  30.887  42.944   4.691
 5626W        W77155  31.919   3.176   3.654
 5627W        W77156  19.605  25.215  11.692
 5628W        W77157  43.151  29.849   2.849
 5629W        W77158   0.263   8.907  11.176
 5630W        W77159  41.891  25.810   3.806
 5631W        W77160  42.531  36.381   0.478
 5632W        W77161  25.488   0.872  13.853
 5633W        W77162  23.332  37.367  11.145
 5634W        W77163  42.147  16.546   2.220
 5635W        W77164   0.690  35.160   5.675
 5636W        W77165  34.589   3.303  13.785
 5637W        W77166  32.604  17.878   1.799
 5638W        W77167  28.900   9.797   3.603
 5639W        W77168  40.602  25.096   2.016
 5640W        W77169  31.566  14.276  14.998
 5641W        W77170  20.231   8.463   0.338
 5642W        W77171  27.151  17.230   2.184
 5643W        W77172   2.005  30.469   0.210
 5644W        W77173  16.539  25.260   2.652
 5645W        W77174  30.581   2.228   4.447
 5646W        W77175  12.797  31.972   2.768
 5647W        W77176  13.200   2.119   4.645
 5648W        W77177  34.021  41.737  14.307
 5649W        W77178   4.788   8.503   2.231
 5650W        W77179   2.299  42.777   1.316
 5651W        W77180   4.272  30.975  10.823
 5652W        W77181   5.844  32.427   3.339
 5653W        W77182   6.478  19.813   4.728
 5654W        W77183  21.138  44.248   2.840
 5655W        W77184  17.258  36.083   4.683
 5656W        W77185  39.752  39.249  14.318
 5657W        W77186  21.046  33.040   1.984
 5658W        W77187  17.731  20.052   0.919
 5659W        W77188   7.236  39.799   0.388
 5660W        W77189  30.994  42.076  13.488
 5661W        W77190  43.890  43.175  14.004
 5662W        W77191  29.133   8.231  13.821
 5663W        W77192  16.620  20.321  13.508
 5664W        W77193  34.392  14.729  14.504
 5665W        W77194   7.873   7.134   3.637
 5666W        W77195  32.739  41.920   0.802
 5667W        W77196   7.659  43.970   2.359
 5668W        W77197  36.307  18.778   3.015
 5669W        W77198  40.404  39.850   4.143
 5670W        W77199  19.838  19.855   5.038
 5671W        W77200   0.212  27.072   0.524
 5672W        W77201  21.205   5.174  13.037
 5673W        W77202   3.811  13.174   4.697
 5674W        W77203  19.662   1.549  12.913
 5675W        W77204   7.435  20.569   1.789
 5676W        W77205  24.470  40.339  12.959
 5677W        W77206  40.533  28.110  14.574
 5678W        W77207  14.628   7.064   1.859
 5679W        W77208  20.593  37.707   5.425
 5680W        W77209  32.450  29.968  14.304
 5681W        W77210  37.946   4.210  10.689
 5682W        W77211  16.316   3.711   2.218
 5683W        W77212  15.379  17.204   4.667
 5684W        W77213  33.905  30.429  10.577
 5685W        W77214   2.956  19.235   2.861
 5686W        W77215   8.898  37.458   4.934
 5687W        W77216  44.566  36.362  10.765
 5688W        W77217  36.962  30.965   2.410
 5689W        W77218  25.122  35.960  12.428
 5690W        W77219  44.741  44.331   0.228
 5691W        W77220  44.556  16.119  11.225
 5692W        W77221  39.097  22.089  10.675
 5693W        W77222  21.102  31.010   4.968
 5694W        W77223  11.650  12.654  14.697
 5695W        W77224   3.894  30.671  12.496
 5696W        W77225  42.534  21.527   0.459
 5697W        W77226  18.577  22.592   0.891
 5698W        W77227   6.400  18.109   1.730
 5699W        W77228   0.859  20.669   1.301
 5700W        W77229   4.805   3.007   0.943
 5701W        W77230  28.786  44.432   1.258
 5702W        W77231  13.074   0.554  10.577
 5703W        W77232   2.899   0.516   3.059
 5704W        W77233  14.418  13.777   0.778
 5705W        W77234  18.614   9.287   2.096
 5706W        W77235  11.740   5.729   3.675
 5707W        W77236  38.605   5.936   4.259
 5708W        W77237   7.837  38.173   0.694
 5709W        W77238  19.535  21.709  14.870
 5710W        W77239  25.707  35.298  10.814
 5711W        W77240  13.643  26.449  14.979
 5712W        W77241  35.148  32.409  14.831
 5713W        W77242  14.996  38.128  12.987
 5714W        W77243   0.367  13.863  12.017
 5715W        W77244  41.781  16.576   3.764
 5716W        W77245  37.998  29.328  14.284
 5717W        W77246  24.500  43.006   0.980
 5718W        W77247  38.909  41.536  10.647
 5719W        W77248  37.969   0.207   4.153
 5720W        W77249  23.612  43.097  10.647
 5721W        W77250  37.330  25.289   4.413
 5722W        W77251  39.250  11.134  12.018
 5723W        W77252   3.271  21.356   0.741
 5724W        W77253   0.940  33.012   2.380
 5725W        W77254  25.211   2.265   2.140
 5726W        W77255  25.251  37.759   4.160
 5727W        W77256  29.023  32.090  10.505
 5728W        W77257  22.879  16.221   4.587
 5729W        W77258  37.691   6.262   4.311
 5730W        W77259  25.324   4.451  14.312
 5731W        W77260   7.042  24.725   4.824
 5732W        W77261  41.395  26.464  12.565
 5733W        W77262  37.481  28.339  13.206
 5734W        W77263  18.535  41.758   3.392
 5735W        W77264  22.729   3.202   2.634
 5736W        W77265  33.378  19.195  12.098
 5737W        W77266   2.417  26.858  14.533
 5738W        W77267   5.864   8.167   0.907
 5739W        W77268  17.264  11.301   4.679
 5740W        W77269  14.260  19.211   4.459
 5741W        W77270  29.802  30.297   4.998
 5742W        W77271  35.677   6.933   2.402
 5743W        W77272  44.095  12.855  12.618
 5744W        W77273  10.719  12.572   0.274
 5745W        W77274   3.927   8.850  13.449
 5746W        W77275  32.006  20.518   0.317
 5747W        W77276   3.933  35.564   3.728
 5748W        W77277  31.955  39.266   1.336
 5749W        W77278  12.811  24.670   3.694
 5750W        W77279  37.006   6.139  12.978
 5751W        W77280   9.267   9.573   4.542
 5752W        W77281   9.649  38.555   4.982
 5753W        W77282  35.863  34.439  13.354
 5754W        W77283  43.955  24.402  14.899
 5755W        W77284  13.429  13.632   0.736
 5756W        W77285  33.509   3.386   1.316
 5757W        W77286  41.764  31.432   0.294
 5758W        W77287   2.263  36.888   2.451
 5759W        W77288  40.561  17.207  11.770
 5760W        W77289   4.375  24.443   2.838
 5761W        W77290  23.555  35.976   1.097
 5762W        W77291  44.098  24.739  14.394
 5763W        W77292  19.709   2.255   3.331
 5764W        W77293  43.240  18.020   0.731
 5765W        W77294   8.367  19.254  14.807
 5766W        W77295   1.799  12.809   4.321
 5767W        W77296  17.071  24.967  13.322
 5768W        W77297  15.870  41.312   2.264
 5769W        W77298   8.108  36.405  14.403
 5770W        W77299  24.626   7.334   2.847
 5771W        W77300   6.703   4.939  13.421
 5772W        W77301  13.071  24.056   4.737
 5773W        W77302  38.775  25.458  12.556
 5774W        W77303  36.512  41.091  12.439
 5775W        W77304  26.478  34.987  14.453
 5776W        W77305  14.667   0.405  12.075
 5777W        W77306  35.930  41.830   2.769
 5778W        W77307  43.513  11.481  12.631
 5779W        W77308  15.553  11.453   4.105
 5780W        W77309  20.314  43.854  11.629
 5781W        W77310   2.398  25.770   2.837
 5782W        W77311  26.822  10.284   2.005
 5783W        W77312  38.123  10.874   1.833
 5784W        W77313  11.777  32.605   4.098
 5785W        W77314  32.074  26.511  14.963
 5786W        W77315  14.399  15.323   4.904
 5787W        W77316  32.950  38.440  11.595
 5788W        W77317  28.109  42.551  11.140
 5789W        W77318  40.346  41.655  12.313
 5790W        W77319  18.185  27.406   4.977
 5791W        W77320  14.921  35.712  14.852
 5792W        W77321  14.699   5.322  12.515
 5793W        W77322  43.266  13.859   0.105
 5794W        W77323  20.511  41.017  13.857
 5795W        W77324  23.088  39.271  13.967
 5796W        W77325   9.418   5.667  11.202
 5797W        W77326  24.683  27.471  11.179
 5798W        W77327  17.154   0.068   0.367
 5799W        W77328  11.630  27.390   0.824
 5800W        W77329  44.058  43.074  14.789
 5801W        W77330   3.713  29.645   2.645
 5802W        W77331  38.792   3.237  13.872
 5803W        W77332   0.996  19.596  12.486
 5804W        W77333  21.740  43.403   1.956
 5805W        W77334  14.854  37.594  11.602
 5806W        W77335  37.249  26.715  11.363
 5807W        W77336  11.332  36.857   2.211
 5808W        W77337  13.791  20.150  11.612
 5809W        W77338  25.153  31.184   2.297
 5810W        W77339  39.899  38.912   2.277
 5811W        W77340  35.466  21.585   0.771
 5812W        W77341  26.221  22.152   1.367
 5813W        W77342  19.289  17.522   4.414
 5814W        W77343  23.733   0.067   1.699
 5815W        W77344  11.724   7.248  10.768
 5816W        W77345  30.176   0.099   3.670
 5817W        W77346  15.113  29.226   0.437
 5818W        W77347  33.835  38.572  12.105
 5819W        W77348  12.062   1.414  10.293
 5820W        W77349  32.416  25.452   1.725
 5821W        W77350  28.752  36.805   3.612
 5822W        W77351  31.879   5.426  10.935
 5823W        W77352  23.969  30.747  13.486
 5824W        W77353   4.981  34.568  14.354
 5825W        W77354  17.184  23.342  14.890
 5826W        W77355  23.671   8.779   3.210
 5827W        W77356  40.052  23.116  14.802
 5828W        W77357   1.955  19.329  11.955
 5829W        W77358  27.642   4.529   0.434
 5830W        W77359   8.941  11.206  12.109
 5831W        W77360   0.149  23.669   2.338
 5832W        W77361  40.582  15.150  12.103
 5833W        W77362  10.297  18.501  11.977
 5834W        W77363  21.146  13.669   1.421
 5835W        W77364  12.780  26.725  10.716
 5836W        W77365  12.241  35.284  11.858
 5837W        W77366  39.451  42.036  11.452
 5838W        W77367   1.396   3.127   0.861
 5839W        W77368  10.682  17.234  14.006
 5840W        W77369  40.496  17.696   2.982
 5841W        W77370  42.427  24.292  11.224
 5842W        W77371  26.661   6.891  14.137
 5843W        W77372   6.700  35.316  13.475
 5844W        W77373  15.641  16.246   0.351
 5845W        W77374  31.637  17.777   0.290
 5846W        W77375  15.952  43.546   1.814
 5847W        W77376  37.031  36.347   0.777
 5848W        W77377  44.308  42.245   2.310
 5849W        W77378   4.777   9.127   0.335
 5850W        W77379  10.699   8.318   4.570
 5851W        W77380  29.023  16.352   0.730
 5852W        W77381  44.344  10.635   1.892
 5853W        W77382  37.596  33.513   4.005
 5854W        W77383  41.485  17.218   0.792
 5855W        W77384   7.193  32.895  13.552
 5856W        W77385  31.339   7.142   0.245
 5857W        W77386  23.439  19.544   0.121
 5858W        W77387  13.720  33.919   0.952
 5859W        W77388  11.894  14.418  12.573
 5860W        W77389  32.633  13.231   3.546
 5861W        W77390  18.366   0.327  13.100
 5862W        W77391  13.549  35.068  13.379
 5863W        W77392   6.703  43.478  12.995
 5864W        W77393   9.662  18.689   2.423
 5865W        W77394  28.507  19.958   0.048
 5866W        W77395  14.412   7.595   4.054
 5867W        W77396  14.604  37.075   0.953
 5868W        W77397  14.151  11.847  11.604
 5869W        W77398  27.610  21.213   3.167
 5870W        W77399  40.068   9.946  11.184
 5871W        W77400  21.419  27.530   4.120
 5872W        W77401  40.622   4.276  14.084
 5873W        W77402   2.699  20.871  13.927
 5874W        W77403  14.582  21.686  14.869
 5875W        W77404  19.212   4.638  13.895
 5876W        W77405   0.857  38.523   1.749
 5877W        W77406  43.546  43.396   2.807
 5878W        W77407  39.507  19.271  14.436
 5879W        W77408  30.989   1.201  14.904
 5880W        W77409  34.623  31.190  10.894
 5881W        W77410  20.587  17.500   3.669
 5882W        W77411  18.946  36.274  10.990
 5883W        W77412  26.680  36.286  13.854
 5884W        W77413  32.511  33.581   4.086
 5885W        W77414  10.262   2.468   3.156
 5886W        W77415  44.861   3.880  11.080
 5887W        W77416   1.722  42.032   4.090
 5888W        W77417  43.955  40.787  13.630
 5889W        W77418  40.620  12.136  13.739
 5890W        W77419  34.966   7.735   4.115
 5891W        W77420  29.968  18.729   3.562
 5892W        W77421  23.005   5.303   0.537
 5893W        W77422   2.957   0.295  13.969
 5894W        W77423   8.296  25.712   0.349
 5895W        W77424  33.587  19.806  12.847
 5896W        W77425  41.374  34.030   2.437
 5897W        W77426  11.869   4.269  13.074
 5898W        W77427   3.806  41.891  11.544
 5899W        W77428  19.493  25.606   1.088
 5900W        W77429   6.173  29.873  12.055
 5901W        W77430  23.532   7.578   3.767
 5902W        W77431  25.235  16.088   4.365
 5903W        W77432  24.638   2.230  13.026
 5904W        W77433  16.239   0.658   2.229
 5905W        W77434  20.015  27.253   3.754
 5906W        W77435  32.799  31.022  14.824
 5907W        W77436  38.903   7.203   1.388
 5908W        W77437  42.551  12.140   2.813
 5909W        W77438  34.547  19.295  11.222
 5910W        W77439  13.794   8.445  14.921
 5911W        W77440  25.636  30.658   0.838
 5912W        W77441  17.633  30.473  11.102
 5913W        W77442  24.111  40.961  13.099
 5914W        W77443  25.167  16.949  12.464
 5915W        W77444  41.505  11.032   2.352
 5916W        W77445  10.617  13.369  14.527
 5917W        W77446  15.604  12.979   0.030
 5918W        W77447  33.449  18.399   1.345
 5919W        W77448  25.967   0.918   3.717
 5920W        W77449  23.569  25.113   1.745
 5921W        W77450  10.184  24.532   2.316
 5922W        W77451  24.828  28.006  12.809
 5923W        W77452  39.376  22.121  13.030
 5924W        W77453  27.496  33.127  13.010
 5925W        W77454  11.682  12.837  13.526
 5926W        W77455   3.483  44.650   1.260
 5927W        W77456  32.703  12.386  10.836
 5928W        W77457   2.733   0.707   0.901
 5929W        W77458   4.760   7.614   1.010
 5930W        W77459  26.115   7.737  14.923
 5931W        W77460  15.822   5.097  13.960
 5932W        W77461  15.008  41.498   1.591
 5933W        W77462   6.476  38.926   3.602
 5934W        W77463  32.621   5.826  13.472
 5935W        W77464   7.644   6.420   2.635
 5936W        W77465  10.335  43.362  11.930
 5937W        W77466  41.390  20.759  12.323
 5938W        W77467  11.394  25.448  11.524
 5939W        W77468  20.605   6.491   3.348
 5940W        W77469  19.063   1.296   2.731
 5941W        W77470  44.493  37.441   1.006
 5942W        W77471  32.138  29.163   3.695
 5943W        W77472  28.954  42.055  12.472
 5944W        W77473  17.266  41.385  11.860
 5945W        W77474  37.747  20.242   4.636
 5946W        W77475  11.225  37.386   3.070
 5947W        W77476  24.834   8.287   1.240
 5948W        W77477  43.580  18.466   4.546
 5949W        W77478  41.801  40.111  14.122
 5950W        W77479  34.333  13.839   2.766
 5951W        W77480  28.059  40.163   2.231
 5952W        W77481   1.739   7.140   3.269
 5953W        W77482  33.581  38.852   3.189
 5954W        W77483  14.018  36.652   0.160
 5955W        W77484  29.009   9.597  11.058
 5956W        W77485  36.309   2.420  11.058
 5957W        W77486  21.140   2.029   0.314
 5958W        W77487  18.901   4.291  10.518
 5959W        W77488  27.589  21.182  11.513
 5960W        W77489  23.519  36.880   2.133
 5961W        W77490   2.434  36.506   4.609
 5962W        W77491   6.381  32.199   1.656
 5963W        W77492  35.887  15.535   4.205
 5964W        W77493   3.719  18.015   0.279
 5965W        W77494  34.781  25.103   0.789
 5966W        W77495   1.895  36.178  13.650
 5967W        W77496  12.698  28.452   0.824
 5968W        W77497  20.027  21.803  10.546
 5969W        W77498   7.313  23.993   3.217
 5970W        W77499  43.380  20.614  14.501
 5971W        W77500   5.685  27.590   0.995
 5972W        W77501  19.822  15.120  14.179
 5973W        W77502  13.790  21.269   0.845
 5974W        W77503  36.952  18.752  12.980
 5975W        W77504   5.170   6.573   2.733
 5976W        W77505  10.287  38.684   3.545
 5977W        W77506  42.381  20.674   3.386
 5978W        W77507  18.287   5.997   3.599
 5979W        W77508  41.659  27.071   3.818
 5980W        W77509   6.752  12.286   0.025
 5981W        W77510  24.059   7.823  13.922
 5982W        W77511  39.639  29.144  14.395
 5983W        W77512  16.111   3.950  14.808
 5984W        W77513   7.339   8.410  11.628
 5985W        W77514   9.345  16.716   2.344
 5986W        W77515   3.285  13.553   3.829
 5987W        W77516  24.505  21.080   4.715
 5988W        W77517  20.634  33.042   1.151
 5989W        W77518  39.411  23.700   2.292
 5990W        W77519  30.570  11.122   0.891
 5991W        W77520   7.224  13.340  14.942
 5992W        W77521  11.361   2.265  14.934
 5993W        W77522  21.652  13.714   1.506
 5994W        W77523  22.039   9.618   4.279
 5995W        W77524  43.935  19.034   3.745
 5996W        W77525  18.616  23.264   3.820
 5997W        W77526   0.587  10.771  13.832
 5998W        W77527  17.572  39.129   4.385
 5999W        W77528   9.268  10.835   0.727
 6000W        W77529  25.511  22.131  10.749
 6001W        W77530  12.795  10.895   3.654
 6002W        W77531  43.703   9.780  12.980
 6003W        W77532  18.972  43.367  14.443
 6004W        W77533   1.595  11.948  14.455
 6005W        W77534  39.076  44.018   0.400
 6006W        W77535  34.146  14.914   0.717
 6007W        W77536  20.172  14.251  12.547
 6008W        W77537  43.287  23.948  13.873
 6009W        W77538  32.099  27.146   4.608
 6010W        W77539  18.350  36.064  14.548
 6011W        W77540  27.242   4.830  11.563
 6012W        W77541  12.626  28.632  13.539
 6013W        W77542   5.953   7.678   1.914
 6014W        W77543  37.552  37.918  11.431
 6015W        W77544  13.114  37.860  12.057
 6016W        W77545  23.578  36.395   4.256
 6017W        W77546  33.357   2.520   4.066
 6018W        W77547  11.899   9.606   1.393
 6019W        W77548  43.316  24.622  11.712
 6020W        W77549  35.941  10.284  12.944
 6021W        W77550  44.995  15.029  12.672
 6022W        W77551  26.833  36.957  10.732
 6023W        W77552  35.073  22.359  13.713
 6024W        W77553  37.128  15.644  14.997
 6025W        W77554  30.956  39.317  13.007
 6026W        W77555   9.166  14.676  11.595
 6027W        W77556  41.931  41.583   3.556
 6028W        W77557  34.948  36.946  11.428
 6029W        W77558  16.422  39.224   1.791
 6030W        W77559  13.345  27.039   3.906
 6031W        W77560  17.793  31.010   2.222
 6032W        W77561  30.556   9.341   0.467
 6033W        W77562  44.192  44.678   3.405
 6034W        W77563  27.766  37.929  10.621
 6035W        W77564  44.321   5.868  14.704
 6036W        W77565   5.874  40.119  13.292
 6037W        W77566  42.996  19.048  14.040
 6038W        W77567   2.981  27.519   2.987
 6039W        W77568  20.171  27.040  12.889
 6040W        W77569  41.448  11.697   0.503
 6041W        W77570  12.860  23.841   3.231
 6042W        W77571  28.915   4.842  14.392
 6043W        W77572  31.321  37.449  13.286
 6044W        W77573  12.613  15.159  13.608
 6045W        W77574  34.150  12.951  13.569
 6046W        W77575  34.057   0.173   3.427
 6047W        W77576  23.701  22.221  10.738
 6048W        W77577  33.184  33.033   1.965
 6049W        W77578  37.585  34.135   0.696
 6050W        W77579  41.355  28.023   4.969
 6051W        W77580  14.480  26.680  14.829
 6052W        W77581   1.472  41.590   4.269
 6053W        W77582  17.406  40.302  12.007
 6054W        W77583   3.362  11.966  14.895
 6055W        W77584  25.015  23.261   2.636
 6056W        W77585  28.416  36.911  11.970
 6057W        W77586  13.894  15.710  10.998
 6058W        W77587   9.324   4.838   3.645
 6059W        W77588  24.817  20.604   2.787
 6060W        W77589  43.693  42.927  14.440
 6061W        W77590  35.233   2.840  14.919
 6062W        W77591  36.049  41.474  14.408
 6063W        W77592  37.379  24.895  10.652
 6064W        W77593   9.062  26.078   2.953
 6065W        W77594  23.683  22.225   0.860
 6066W        W77595  38.581  26.238   0.446
 6067W        W77596  32.202   2.258  12.888
 6068W        W77597  42.385   0.838  11.138
 6069W        W77598  13.691  11.022  11.294
 6070W        W77599  13.080  39.306   4.826
 6071W        W77600  22.714  36.026  11.039
 6072W        W77601  30.857  42.909   2.320
 6073W        W77602  27.247  34.597  13.338
 6074W        W77603  35.982  18.807   2.478
 6075W        W77604  38.264  22.093   0.254
 6076W        W77605  14.727  35.156  10.773
 6077W        W77606   9.283  42.220   2.730
 6078W        W77607  37.760  14.994   0.277
 6079W        W77608  26.848  43.022   3.752
 6080W        W77609  28.425   2.883   2.297
 6081W        W77610  30.788  13.121   4.516
 6082W        W77611   4.312  10.302   4.589
 6083W        W77612  32.581  12.860   2.415
 6084W        W77613  33.357  29.246   5.095
 6085W        W77614  28.917  22.567   3.572
 6086W        W77615  22.522  16.599   4.538
 6087W        W77616  16.641  27.427   0.275
 6088W        W77617  24.185   0.510   2.313
 6089W        W77618  17.207  25.222  14.857
 6090W        W77619  29.854  43.603   0.756
 6091W        W77620  27.211  39.513   1.851
 6092W        W77621  23.244  15.796  14.823
 6093W        W77622   4.243  31.020   0.887
 6094W        W77623  24.402  35.859   0.647
 6095W        W77624  11.664  35.957   2.205
 6096W        W77625   7.227  37.796   4.287
 6097W        W77626  36.004  41.024  12.880
 6098W        W77627   3.245  37.834   2.372
 6099W        W77628   5.342  10.924   4.608
 6100W        W77629  22.538  40.034  13.896
 6101W        W77630   2.696  15.049  12.507
 6102W        W77631  33.030  10.896   0.790
 6103W        W77632  35.797  11.367   1.952
 6104W        W77633   1.126  24.973  11.932
 6105W        W77634  17.275   8.288  12.995
 6106W        W77635  30.369  24.184   1.011
 6107W        W77636   9.173  42.026   2.243
 6108W        W77637   4.745  14.699   3.056
 6109W        W77638   8.388  16.670  14.302
 6110W        W77639  19.554   3.918   1.383
 6111W        W77640  29.606  16.387  10.569
 6112W        W77641  36.626  29.998  11.241
 6113W        W77642  11.370  27.020   2.153
 6114W        W77643  31.666  36.543   4.602
 6115W        W77644  14.855  35.750   4.633
 6116W        W77645  39.949   9.061  14.383
 6117W        W77646  11.167   1.447  11.148
 6118W        W77647  10.542  27.542  14.739
 6119W        W77648  13.696  28.469   3.363
 6120W        W77649  17.830  21.097   3.243
 6121W        W77650   9.129   3.260   4.544
 6122W        W77651  16.542  40.578   2.351
 6123W        W77652  32.265  33.543   2.878
 6124W        W77653   0.870   5.891  11.427
 6125W        W77654  10.050  17.666  13.557
 6126W        W77655   9.046  17.187   2.211
 6127W        W77656  31.701   4.114   4.130
 6128W        W77657  20.789  31.905   3.787
 6129W        W77658  26.547  32.464  10.326
 6130W        W77659   4.465  38.825  12.569
 6131W        W77660  42.918  44.467   3.766
 6132W        W77661   1.505  33.810  13.448
 6133W        W77662  11.348   0.724  14.928
 6134W        W77663  22.092   9.474  14.848
 6135W        W77664  22.526  36.916  11.149
 6136W        W77665  24.132  31.151  11.694
 6137W        W77666  23.569  20.974  14.033
 6138W        W77667   8.150  16.990  13.114
 6139W        W77668   2.662  27.776  14.513
 6140W        W77669  24.576  22.707  13.079
 6141W        W77670  20.594  22.059  11.690
 6142W        W77671   7.137  35.788   1.304
 6143W        W77672  36.679  44.157   3.433
 6144W        W77673  39.410   9.756  13.512
 6145W        W77674  43.366  41.103   2.573
 6146W        W77675   8.967  25.640   2.318
 6147W        W77676  13.579  41.889  14.412
 6148W        W77677  37.451  13.785  14.566
 6149W        W77678   4.751   7.150  11.769
 6150W        W77679  17.641  32.979   1.130
 6151W        W77680  14.122   2.278   0.807
 6152W        W77681  22.586  33.240   2.858
 6153W        W77682  40.291  22.569  11.587
 6154W        W77683   3.853  27.079   4.929
 6155W        W77684  36.673   6.881  11.597
 6156W        W77685  43.717  34.529  12.117
 6157W        W77686  26.030  13.677  13.122
 6158W        W77687  17.896  41.771  14.446
 6159W        W77688  12.796  37.208   0.493
 6160W        W77689  20.591  13.601   0.782
 6161W        W77690   8.371  40.910  11.017
 6162W        W77691   1.029  32.429  12.086
 6163W        W77692  15.869  26.023  11.635
 6164W        W77693  21.363  39.189   4.518
 6165W        W77694  36.619   5.013   0.977
 6166W        W77695  41.434  42.128   1.866
 6167W        W77696  21.720  35.993   3.484
 6168W        W77697  24.722   2.324   2.314
 6169W        W77698  25.534  12.832  14.906
 6170W        W77699   0.592  44.008   5.060
 6171W        W77700   6.117  18.829   2.274
 6172W        W77701  23.957  16.736  11.243
 6173W        W77702   4.082   5.711   1.369
 6174W        W77703  36.568   3.374   2.742
 6175W        W77704  24.212  27.727  14.402
 6176W        W77705  13.405  17.375  10.522
 6177W        W77706  23.700  23.250   4.897
 6178W        W77707  17.290  41.001   4.678
 6179W        W77708   6.580  37.376  14.301
 6180W        W77709  38.201   9.296  14.431
 6181W        W77710   7.416  26.370  11.466
 6182W        W77711  27.173  44.234  12.900
 6183W        W77712  13.290  39.529   1.419
 6184W        W77713  22.686  34.425  10.729
 6185W        W77714  32.911  20.247   0.813
 6186W        W77715  20.112   9.854  12.920
 6187W        W77716  14.438   7.559  10.277
 6188W        W77717  24.134   5.352  11.055
 6189W        W77718  25.111  27.967  13.972
 6190W        W77719   9.370  21.325  12.147
 6191W        W77720   0.241  26.582  11.986
 6192W        W77721   4.788   7.398  12.213
 6193W        W77722  17.525  28.069  12.662
 6194W        W77723  37.581  12.835   1.245
 6195W        W77724  40.400   2.133  12.925
 6196W        W77725  17.671  37.825  13.791
 6197W        W77726   8.259   8.623  13.541
 6198W        W77727  20.610  10.408   3.048
 6199W        W77728  21.252  24.105   0.072
 6200W        W77729   3.710  12.829  10.652
 6201W        W77730  27.546   7.178  10.691
 6202W        W77731   2.979  42.396   1.254
 6203W        W77732  30.625  24.666   4.087
 6204W        W77733  17.283   1.276   3.156
 6205W        W77734  32.464  21.215   3.246
 6206W        W77735  14.125  17.277  11.081
 6207W        W77736   4.737  22.273  13.820
 6208W        W77737   5.324  34.060   2.410
 6209W        W77738  29.255  21.102   0.850
 6210W        W77739  11.340  27.449   0.398
 6211W        W77740  19.758  29.152   2.377
 6212W        W77741  29.505  12.578   0.423
 6213W        W77742  35.366  17.020  10.894
 6214W        W77743  40.616  40.608   3.829
 6215W        W77744   6.712  17.083  14.742
 6216W        W77745  31.081  16.445  14.468
 6217W        W77746  22.791  17.400  10.705
 6218W        W77747   2.262  26.901  10.258
 6219W        W77748  24.116  16.154  13.813
 6220W        W77749  38.570  10.958   1.491
 6221W        W77750  36.435  17.319   2.159
 6222W        W77751  27.569   3.395  14.211
 6223W        W77752  39.652  13.441   0.825
 6224W        W77753  22.968  23.105   4.343
 6225W        W77754  33.834   8.482   2.824
 6226W        W77755  44.792  33.152   4.094
 6227W        W77756  42.201  29.538   1.707
 6228W        W77757  14.816  31.828   0.962
 6229W        W77758  34.868  11.262  11.494
 6230W        W77759   4.973   3.841   2.414
 6231W        W77760  12.371  26.453   0.147
 6232W        W77761  39.027  20.788  11.466
 6233W        W77762  26.481   4.349  13.707
 6234W        W77763  34.389  43.537   2.834
 6235W        W77764  29.063   6.257   3.653
 6236W        W77765  17.813  40.514  14.884
 6237W        W77766  32.291   9.907   4.603
 6238W        W77767  29.847  19.939   1.377
 6239W        W77768  25.031   5.200  13.432
 6240W        W77769   5.773  11.627   4.319
 6241W        W77770  15.760  44.751   0.332
 6242W        W77771  10.724  27.910  14.334
 6243W        W77772  13.061  18.314   1.985
 6244W        W77773  36.084   1.479   1.770
 6245W        W77774  15.050  21.575   3.266
 6246W        W77775  16.696  24.628   3.824
 6247W        W77776  39.926  11.346  13.062
 6248W        W77777  17.590  23.294   0.291
 6249W        W77778  32.733  33.150   2.879
 6250W        W77779  32.909  36.829  12.858
 6251W        W77780  15.212  32.041   0.285
 6252W        W77781  41.740  31.848  11.109
 6253W        W77782   8.180   0.109  14.044
 6254W        W77783  25.468  36.747  10.815
 6255W        W77784   7.402  13.788   0.351
 6256W        W77785  38.542  23.221   4.506
 6257W        W77786  36.037  22.099  10.536
 6258W        W77787  10.102  26.516   0.879
 6259W        W77788  36.541   6.405  10.436
 6260W        W77789  12.167  28.104   1.933
 6261W        W77790   3.214  37.739   1.829
 6262W        W77791  34.197  12.093   0.581
 6263W        W77792   2.436   3.756   3.907
 6264W        W77793  33.545  24.178   4.525
 6265W        W77794  18.794  17.549   2.313
 6266W        W77795   9.239  17.233  14.072
 6267W        W77796  25.650   9.670  11.853
 6268W        W77797  20.123  16.688   0.338
 6269W        W77798  35.810   6.397   2.614
 6270W        W77799  23.221   6.770  13.782
 6271W        W77800  15.941  25.477  12.495
 6272W        W77801  22.192  25.751  11.647
 6273W        W77802  17.164  29.528   0.901
 6274W        W77803  38.890  13.145  10.463
 6275W        W77804  41.683  15.634   5.027
 6276W        W77805  34.214   3.809   0.445
 6277W        W77806   6.336   1.666  14.492
 6278W        W77807  17.196  43.938   0.763
 6279W        W77808   4.993  26.482   1.280
 6280W        W77809  16.785  23.040   3.372
 6281W        W77810  27.123  27.254  12.609
 6282W        W77811  35.072  12.478  12.645
 6283W        W77812  15.345  15.990  14.387
 6284W        W77813  25.098   5.129   3.642
 6285W        W77814  24.030  37.490   4.171
 6286W        W77815  24.306  36.856   1.427
 6287W        W77816   5.379  30.492  11.633
 6288W        W77817  34.372  22.059  13.982
 6289W        W77818   4.820  21.997   2.319
 6290W        W77819  18.533  32.597   0.378
 6291W        W77820  28.419   6.502  14.123
 6292W        W77821  18.737   6.076   0.239
 6293W        W77822  30.023  12.165   3.846
 6294W        W77823   1.503   7.833  13.895
 6295W        W77824  29.705   2.543  14.856
 6296W        W77825  14.547  44.342   3.286
 6297W        W77826  31.998  11.121  13.488
 6298W        W77827  18.545  26.684   4.552
 6299W        W77828   1.125  40.533   2.650
 6300W        W77829  32.437  29.226  10.551
 6301W        W77830  11.407  22.217   4.232
 6302W        W77831  40.000  36.785   3.607
 6303W        W77832  15.003  12.566   4.980
 6304W        W77833  20.530  31.171  11.213
 6305W        W77834  19.252  17.325  11.022
 6306W        W77835  33.603  42.280   1.714
 6307W        W77836   7.725   4.757  10.148
 6308W        W77837  37.988  37.198  14.393
 6309W        W77838  17.544  31.963   0.400
 6310W        W77839  35.914   3.683  12.438
 6311W        W77840  43.829  36.947   2.860
 6312W        W77841  17.786  24.033   3.363
 6313W        W77842  11.031  29.691   2.049
 6314W        W77843  29.565   9.144   0.228
 6315W        W77844  30.012  13.778  11.136
 6316W        W77845  15.580  33.300  11.114
 6317W        W77846  29.104  18.691   0.263
 6318W        W77847   7.928  14.538  10.708
 6319W        W77848  33.970  18.298  13.579
 6320W        W77849  27.496  43.538  11.820
 6321W        W77850   7.639  21.248   4.685
 6322W        W77851  27.972  31.478   2.324
 6323W        W77852   3.689  40.283  10.662
 6324W        W77853  43.070  25.877  10.955
 6325W        W77854  25.813  28.871   1.040
 6326W        W77855  32.036  21.930  11.632
 6327W        W77856   8.868  37.520  10.405
 6328W        W77857   1.820  16.297   4.183
 6329W        W77858  15.533  42.078  12.565
 6330W        W77859  26.450  38.461  12.932
 6331W        W77860   2.007  31.503   4.645
 6332W        W77861  33.361  39.205  14.902
 6333W        W77862  18.488  23.715  12.525
 6334W        W77863   0.827  17.577   3.719
 6335W        W77864  11.333  42.865   2.624
 6336W        W77865  29.180   8.814  13.383
 6337W        W77866   3.281   8.023   4.207
 6338W        W77867  31.078   3.516   0.782
 6339W        W77868  15.575  32.523   2.780
 6340W        W77869  17.586   5.366   2.315
 6341W        W77870  42.413   4.305  14.431
 6342W        W77871   5.752  29.045   3.165
 6343W        W77872  21.740  21.313   2.288
 6344W        W77873   3.284   9.790  12.522
 6345W        W77874  14.786  11.873   0.907
 6346W        W77875  15.613  38.533   3.278
 6347W        W77876  24.263  29.887   0.476
 6348W        W77877  43.677  35.727  10.124
 6349W        W77878   9.552  13.684  11.380
 6350W        W77879   3.615  35.602  12.289
 6351W        W77880   7.812  26.107   0.962
 6352W        W77881   2.388  39.307  14.341
 6353W        W77882  33.826  19.796   2.286
 6354W        W77883  18.850  11.162   1.837
 6355W        W77884   9.931  16.761  13.113
 6356W        W77885  20.725  29.669  14.246
 6357W        W77886  10.355  30.362  11.576
 6358W        W77887   3.149  27.603  14.358
 6359W        W77888  28.111   7.306   1.153
 6360W        W77889   3.841  31.685  12.577
 6361W        W77890  20.728   4.152   0.736
 6362W        W77891  38.563   9.640   1.446
 6363W        W77892  38.336  15.640  11.153
 6364W        W77893  35.063   4.737  13.871
 6365W        W77894  19.067  20.017   1.910
 6366W        W77895  27.241  37.468  12.640
 6367W        W77896  20.210  34.161  12.890
 6368W        W77897   0.982  22.187   4.210
 6369W        W77898  29.168  12.285  11.730
 6370W        W77899  25.512  40.296   2.844
 6371W        W77900  27.075  21.690   3.677
 6372W        W77901  21.630  35.616   0.979
 6373W        W77902  18.231  19.884   4.522
 6374W        W77903   9.298  44.713  11.492
 6375W        W77904  16.168   0.515   1.714
 6376W        W77905   7.346  40.507   4.061
 6377W        W77906  28.210  43.805  14.918
 6378W        W77907  34.403  19.617  12.457
 6379W        W77908  12.275  27.472   0.313
 6380W        W77909  23.602  43.976  10.981
 6381W        W77910  11.449   7.972  11.293
 6382W        W77911  20.126  29.381   2.691
 6383W        W77912  26.071  42.489   4.215
 6384W        W77913  12.625  22.490  12.940
 6385W        W77914  29.682  15.656   2.779
 6386W        W77915   3.825  23.051  10.660
 6387W        W77916  42.812  37.996  14.955
 6388W        W77917  30.989  28.512   4.555
 6389W        W77918   1.285  27.034   0.467
 6390W        W77919  16.627   1.235   1.035
 6391W        W77920  10.393  43.058  14.007
 6392W        W77921  19.611  29.981  14.075
 6393W        W77922  36.024  42.795   2.709
 6394W        W77923  24.965  38.358  12.927
 6395W        W77924   9.528  25.079   3.316
 6396W        W77925   9.589  25.013  11.365
 6397W        W77926   2.027  16.668  12.953
 6398W        W77927  23.130  41.870   2.523
 6399W        W77928   4.243  40.770   2.110
 6400W        W77929  20.102   6.067  14.233
 6401W        W77930   7.682  28.076  14.410
 6402W        W77931  19.748  33.685  10.736
 6403W        W77932   5.626  30.992  10.748
 6404W        W77933  22.770  23.507   2.140
 6405W        W77934  29.102  13.671  14.937
 6406W        W77935  19.178  30.855  11.686
 6407W        W77936  19.207  19.357   1.210
 6408W        W77937   6.403  10.093  14.839
 6409W        W77938   9.238  42.958  13.138
 6410W        W77939  30.102  41.989  13.565
 6411W        W77940  14.100  18.307   0.327
 6412W        W77941  20.594  14.304  14.327
 6413W        W77942  30.062  29.098   2.884
 6414W        W77943  40.941   8.929  12.527
 6415W        W77944   6.786  26.639  11.926
 6416W        W77945  22.177  32.862  14.760
 6417W        W77946   4.282  33.223   3.056
 6418W        W77947   6.922  16.167   2.177
 6419W        W77948   9.326  31.590   4.484
 6420W        W77949  30.618  37.588  12.199
 6421W        W77950   8.317   6.130   2.922
 6422W        W77951  21.318  35.229  13.190
 6423W        W77952  27.591  38.143  13.392
 6424W        W77953  18.845  36.173  14.189
 6425W        W77954  34.511   6.628  11.110
 6426W        W77955  18.539  31.478   3.586
 6427W        W77956  32.862  31.078  11.228
 6428W        W77957  41.526  25.958  11.914
 6429W        W77958   6.219  14.292   2.429
 6430W        W77959  40.033   2.605  11.157
 6431W        W77960  21.447  32.383  11.216
 6432W        W77961  41.800  36.364  11.324
 6433W        W77962   6.946  41.332   3.899
 6434W        W77963  41.256  40.579   4.163
 6435W        W77964   0.823  15.076   1.134
 6436W        W77965  33.108   0.775   0.410
 6437W        W77966  13.230   2.340  11.846
 6438W        W77967  27.431  10.877  14.056
 6439W        W77968   9.416   9.825   2.742
 6440W        W77969  40.961   5.509   1.484
 6441W        W77970  13.244  28.886   4.061
 6442W        W77971   6.364  13.221   4.554
 6443W        W77972  11.536  20.232   1.371
 6444W        W77973  43.977   3.885  12.408
 6445W        W77974  39.007  30.310  10.803
 6446W        W77975  29.227  21.028   3.630
 6447W        W77976  25.265  34.479  12.443
 6448W        W77977  42.334  10.258   3.720
 6449W        W77978  22.664  27.230  12.718
 6450W        W77979   0.521  32.465  12.000
 6451W        W77980  28.821  17.027   3.100
 6452W        W77981  12.626   5.884   1.837
 6453W        W77982   4.218  14.000   4.120
 6454W        W77983  21.449  15.133   0.227
 6455W        W77984  19.509   6.738  14.273
 6456W        W77985   4.201  17.560   5.066
 6457W        W77986   7.261  11.642  13.263
 6458W        W77987  18.167  44.011  11.569
 6459W        W77988  23.961   8.304  12.079
 6460W        W77989  26.717  28.496  11.516
 6461W        W77990   7.059   5.936   3.202
 6462W        W77991  44.067  38.495  10.606
 6463W        W77992  33.540   6.803   2.707
 6464W        W77993   2.009   6.467   4.034
 6465W        W77994   8.948  16.694  12.839
 6466W        W77995  40.916  44.286   1.442
 6467W        W77996  32.750  12.943  14.396
 6468W        W77997  16.848  10.620   0.845
 6469W        W77998  44.021  44.717   1.494
 6470W        W77999  21.799  21.136   4.275
 6471W        W78000  13.517  44.013  12.573
 6472W        W78001   9.689  33.569  11.554
 6473W        W78002   2.430  26.168  11.479
 6474W        W78003  27.552  36.396   4.155
 6475W        W78004  11.598  13.049   4.382
 6476W        W78005  17.351  31.856  13.864
 6477W        W78006  36.965   2.400  13.500
 6478W        W78007  42.245  10.297  14.277
 6479W        W78008  15.368   6.766   5.047
 6480W        W78009  42.975  33.093   0.198
 6481W        W78010  23.074  38.219   1.510
 6482W        W78011  34.593  41.347  14.013
 6483W        W78012   5.726   5.338  14.593
 6484W        W78013  20.617  27.569  13.406
 6485W        W78014   9.311  29.719   2.701
 6486W        W78015  37.314  41.907   0.007
 6487W        W78016  34.403  35.319  11.257
 6488W        W78017  13.118   4.845   0.531
 6489W        W78018  34.126  30.718   2.858
 6490W        W78019  40.587   4.172   0.526
 6491W        W78020   1.531   8.245   0.926
 6492W        W78021  34.617  17.018  13.589
 6493W        W78022  42.371  16.860   4.964
 6494W        W78023   1.232   4.891   2.877
 6495W        W78024  16.444  33.286   4.179
 6496W        W78025  32.187  43.232   2.691
 6497W        W78026  27.979  19.713  11.885
 6498W        W78027   9.466   3.793   0.387
 6499W        W78028  13.439  33.463  14.499
 6500W        W78029   2.937  40.472  12.222
 6501W        W78030  12.281  15.594   1.118
 6502W        W78031  11.291  10.899  13.978
 6503W        W78032  19.102   6.417  14.424
 6504W        W78033  40.475  20.201   3.737
 6505W        W78034  38.054   8.907  12.673
 6506W        W78035  36.419  15.205   1.388
 6507W        W78036  16.675  42.782  14.416
 6508W        W78037   7.210  38.911  10.400
 6509W        W78038  12.327  13.856   1.674
 6510W        W78039  23.289  42.446   4.868
 6511W        W78040  25.441   1.455  14.226
 6512W        W78041   1.452  17.232  14.779
 6513W        W78042  18.236  29.061  14.927
 6514W        W78043  35.969  34.357  14.194
 6515W        W78044  35.980   9.257   3.184
 6516W        W78045  15.624  22.604  10.780
 6517W        W78046   2.656  40.255  11.476
 6518W        W78047  27.135  19.929   2.672
 6519W        W78048  35.356  43.781  12.566
 6520W        W78049   8.243   1.753  11.540
 6521W        W78050  36.015  27.168  10.397
 6522W        W78051   1.572   4.191   4.554
 6523W        W78052   8.399   0.887   4.963
 6524W        W78053  16.420  33.901   1.635
 6525W        W78054  28.624   1.033  13.551
 6526W        W78055  13.086  22.973  13.987
 6527W        W78056  23.680  25.173   0.770
 6528W        W78057   4.970   4.785   1.282
 6529W        W78058  39.297  27.584  13.804
 6530W        W78059   3.293  44.979   0.879
 6531W        W78060  33.365  41.408   4.584
 6532W        W78061  15.044  37.532   2.089
 6533W        W78062   5.269  27.471   1.298
 6534W        W78063  44.931  37.308  14.575
 6535W        W78064   5.632  15.702  11.202
 6536W        W78065  16.194  14.631   4.043
 6537W        W78066  31.911  40.266  11.362
 6538W        W78067  41.726  40.439  12.793
 6539W        W78068  30.924  42.325  12.623
 6540W        W78069  27.557  15.338   1.766
 6541W        W78070  28.320  35.038   2.892
 6542W        W78071  33.947  10.235   4.731
 6543W        W78072  31.596   5.648  11.636
 6544W        W78073  32.688  39.877  12.775
 6545W        W78074   0.633  13.224   4.120
 6546W        W78075  18.056  41.827  12.018
 6547W        W78076   3.589   3.871   3.364
 6548W        W78077  29.101   4.809  13.873
 6549W        W78078  27.782   1.257  13.068
 6550W        W78079  23.059  19.390   4.862
 6551W        W78080   7.521  11.644  14.247
 6552W        W78081  36.518  33.155  13.838
 6553W        W78082  37.788  21.628   4.678
 6554W        W78083   0.443  38.320  11.867
 6555W        W78084  44.482   1.936   4.092
 6556W        W78085   5.210  17.108  11.627
 6557W        W78086  11.881  41.773   3.169
 6558W        W78087  35.776  44.994   4.490
 6559W        W78088  43.487  36.063   3.157
 6560W        W78089   7.717  40.544  12.332
 6561W        W78090  15.574  18.039   2.440
 6562W        W78091  39.103  13.225   3.711
 6563W        W78092   5.824  24.471   4.641
 6564W        W78093   2.437  23.464   0.267
 6565W        W78094   7.942   6.355  13.407
 6566W        W78095  36.474  25.518  10.814
 6567W        W78096   7.935  28.714   4.061
 6568W        W78097  40.659   6.809  13.123
 6569W        W78098   7.829  39.562   0.496
 6570W        W78099  24.043  23.058  14.560
 6571W        W78100  19.929  34.853  14.333
 6572W        W78101  29.966  35.528   4.467
 6573W        W78102  26.963  19.818  14.415
 6574W        W78103  41.382  33.073   1.515
 6575W        W78104  14.591  38.021   0.342
 6576W        W78105  39.896   4.933  13.009
 6577W        W78106   6.705  20.970  13.757
 6578W        W78107  28.349  24.043   1.370
 6579W        W78108  35.045  41.100  12.004
 6580W        W78109  24.580  17.626   1.958
 6581W        W78110  30.479  43.234   2.644
 6582W        W78111  20.755  31.563  10.851
 6583W        W78112  32.545  10.910  10.776
 6584W        W78113   9.189  21.168  10.764
 6585W        W78114   8.628  30.601  12.554
 6586W        W78115  10.372  25.573   1.269
 6587W        W78116  22.484  37.645  12.652
 6588W        W78117  11.390   5.085   0.251
 6589W        W78118  32.566  25.108  14.579
 6590W        W78119  30.883  35.254   3.243
 6591W        W78120  44.502  29.888   2.860
 6592W        W78121  33.287   7.449  13.941
 6593W        W78122   4.238  25.103   0.111
 6594W        W78123  25.776  21.309   0.659
 6595W        W78124  18.314   2.782   3.979
 6596W        W78125  34.070  37.772  12.416
 6597W        W78126   5.864  38.883  12.870
 6598W        W78127  32.641  32.098   2.833
 6599W        W78128  40.456  42.645  12.527
 6600W        W78129  32.073  29.916   0.661
 6601W        W78130  28.906  36.086   2.379
 6602W        W78131  20.232   3.902   3.918
 6603W        W78132   5.639  18.061   1.917
 6604W        W78133  30.604  28.187  10.675
 6605W        W78134  19.706  42.209   2.300
 6606W        W78135  34.973  43.581  12.827
 6607W        W78136  10.888  41.445  12.094
 6608W        W78137  36.008  32.694   3.368
 6609W        W78138  12.057  12.072   0.603
 6610W        W78139   2.774  18.671  14.146
 6611W        W78140  39.035  20.990   4.886
 6612W        W78141  14.633  18.462  10.094
 6613W        W78142  41.772   0.940   4.243
 6614W        W78143  22.218   4.901  10.143
 6615W        W78144  41.808   9.141   3.161
 6616W        W78145  25.988  19.139   3.102
 6617W        W78146  18.366   0.757  14.368
 6618W        W78147  10.484  21.770  13.260
 6619W        W78148  41.825  27.191   0.333
 6620W        W78149  10.936  34.505   0.369
 6621W        W78150  25.346  37.033  11.231
 6622W        W78151  38.067  33.889   0.784
 6623W        W78152  42.938   2.458  12.127
 6624W        W78153  22.011  10.257  13.921
 6625W        W78154  10.439  37.075  11.153
 6626W        W78155   2.304  17.183  11.697
 6627W        W78156   3.661  43.923  10.478
 6628W        W78157   7.138   4.932   3.805
 6629W        W78158  40.237  11.740   3.356
 6630W        W78159  44.781  27.458   3.238
 6631W        W78160  41.338  11.927  12.394
 6632W        W78161  23.208  10.108   0.645
 6633W        W78162  19.198   4.224  12.548
 6634W        W78163  21.743  32.799   0.733
 6635W        W78164   5.819  42.944   2.179
 6636W        W78165  41.334  26.663   3.726
 6637W        W78166  23.560  12.574  12.486
 6638W        W78167   5.343  32.045   3.936
 6639W        W78168  14.555  24.562   1.143
 6640W        W78169  44.309  16.657   1.761
 6641W        W78170   6.454  41.989   4.067
 6642W        W78171  40.949   7.403  12.467
 6643W        W78172   3.028  44.773   0.428
 6644W        W78173  21.671  30.189   2.305
 6645W        W78174  23.076  17.611  14.043
 6646W        W78175  16.110  38.992   3.736
 6647W        W78176  35.705  21.077   3.187
 6648W        W78177   4.494  27.775  13.224
 6649W        W78178   5.294  43.556   0.963
 6650W        W78179  16.021  28.165   1.786
 6651W        W78180   6.346   1.255  14.837
 6652W        W78181  25.662  42.790   2.416
 6653W        W78182  16.127  40.264   2.234
 6654W        W78183  39.069   5.048   2.254
 6655W        W78184  18.696  37.619  10.935
 6656W        W78185  36.321   1.157   4.113
 6657W        W78186  26.943  27.080   2.636
 6658W        W78187   5.914   8.663   4.653
 6659W        W78188  17.090   2.981  13.751
 6660W        W78189   6.141  37.286  11.430
 6661W        W78190  40.603  21.118  12.546
 6662W        W78191  30.408  38.149   0.909
 6663W        W78192  36.052  31.381   2.363
 6664W        W78193  19.889   7.221   1.350
 6665W        W78194  10.224   1.441  11.069
 6666W        W78195  27.773  10.108  11.439
 6667W        W78196  30.953  24.556  14.576
 6668W        W78197  25.231  35.390   0.457
 6669W        W78198   9.178  16.225   4.073
 6670W        W78199  35.059  16.752  14.825
 6671W        W78200   0.947  41.073   4.992
 6672W        W78201  24.201  38.437  13.352
 6673W        W78202  17.596  34.367  13.227
 6674W        W78203  42.933  10.353  10.886
 6675W        W78204  42.717  22.704   3.605
 6676W        W78205  33.547  12.697   0.286
 6677W        W78206   5.768  39.901   2.409
 6678W        W78207  30.313  17.157  13.803
 6679W        W78208  39.877  23.613   2.490
 6680W        W78209  13.122   8.753   1.898
 6681W        W78210   8.103   4.881  14.391
 6682W        W78211   5.790   9.596   1.239
 6683W        W78212  39.659   9.253  10.668
 6684W        W78213  21.954  15.700   0.778
 6685W        W78214  41.978  27.332  13.738
 6686W        W78215  16.724  30.032   9.935
 6687W        W78216  16.253  29.064  14.602
 6688W        W78217  30.060  12.266  13.771
 6689W        W78218  18.668   8.579   3.876
 6690W        W78219   3.132  24.595   3.230
 6691W        W78220  19.756  28.287   0.540
 6692W        W78221  23.146  17.871   4.597
 6693W        W78222  31.995  24.501  13.985
 6694W        W78223  36.538  24.034   0.877
 6695W        W78224  22.550  43.607  13.725
 6696W        W78225   1.749   3.972   0.892
 6697W        W78226  40.263  38.330  14.418
 6698W        W78227  26.102   9.909  13.918
 6699W        W78228  42.963  42.307   1.313
 6700W        W78229  23.087  23.762  13.542
 6701W        W78230  41.758  10.836  11.265
 6702W        W78231   8.901  23.740  11.161
 6703W        W78232  29.515  27.481  11.098
 6704W        W78233  38.081  10.666  13.867
 6705W        W78234  19.562  31.554  14.013
 6706W        W78235  42.977  24.224  13.401
 6707W        W78236  36.062  24.595  11.616
 6708W        W78237  33.182  34.873   2.224
 6709W        W78238  17.639  29.598  11.487
 6710W        W78239  26.695  10.480   5.244
 6711W        W78240  21.550  27.027   0.918
 6712W        W78241  30.252  11.828   0.230
 6713W        W78242  39.589  25.343  13.050
 6714W        W78243  25.581  31.712   4.897
 6715W        W78244  11.259  19.123  10.732
 6716W        W78245  25.594  12.374   4.109
 6717W        W78246  13.526  35.895   3.522
 6718W        W78247  40.501   0.484   2.192
 6719W        W78248   2.108   6.888   0.458
 6720W        W78249   2.220  21.973   3.813
 6721W        W78250  31.049  25.704   1.363
 6722W        W78251  38.927  17.232   0.746
 6723W        W78252   3.708  42.796   2.191
 6724W        W78253   7.239  30.543  11.289
 6725W        W78254  37.667  10.835   1.300
 6726W        W78255  34.599  43.312   1.935
 6727W        W78256   1.825  12.287   0.766
 6728W        W78257  30.977  37.000  14.852
 6729W        W78258   8.637  14.231  11.042
 6730W        W78259  30.989   6.327  11.591
 6731W        W78260  33.449  23.635   1.266
 6732W        W78261  28.369  30.193   3.713
 6733W        W78262  27.493  33.955  13.472
 6734W        W78263  38.581  22.184   3.598
 6735W        W78264   3.209  33.384  13.882
 6736W        W78265  31.046  19.054   1.508
 6737W        W78266  28.409   9.875   0.273
 6738W        W78267  19.727  37.439  13.414
 6739W        W78268  38.189  11.089  12.435
 6740W        W78269   1.751  40.203  10.444
 6741W        W78270  29.654  18.153  11.163
 6742W        W78271   0.747   4.939  14.478
 6743W        W78272  32.622  26.145  12.019
 6744W        W78273  17.166  43.616   0.346
 6745W        W78274  16.903  18.401  11.738
 6746W        W78275   1.741   1.931  13.020
 6747W        W78276  39.998  32.319  14.972
 6748W        W78277  23.554  25.130   2.361
 6749W        W78278  40.810  36.762   0.107
 6750W        W78279  42.039  12.139  14.998
 6751W        W78280   3.210  17.527   3.786
 6752W        W78281  42.177  21.559  13.708
 6753W        W78282   1.906  35.788  12.371
 6754W        W78283   2.563  10.235  10.376
 6755W        W78284  23.301  16.726   2.895
 6756W        W78285  14.813  44.824  12.368
 6757W        W78286  27.690  16.579  12.095
 6758W        W78287  10.934  29.646   1.539
 6759W        W78288  31.766  23.737   3.867
 6760W        W78289   9.853  41.123  12.392
 6761W        W78290  44.770  34.842  12.403
 6762W        W78291  41.833   3.458   2.183
 6763W        W78292  35.992  11.151   4.146
 6764W        W78293  24.624   8.757  11.352
 6765W        W78294  29.394  33.775  13.100
 6766W        W78295   1.881  44.029  11.140
 6767W        W78296   8.390  23.099  11.012
 6768W        W78297   7.760  21.279   2.848
 6769W        W78298  12.669  38.045   4.465
 6770W        W78299  36.659  14.531  11.526
 6771W        W78300  27.009  15.698   0.243
 6772W        W78301   8.320  14.714  11.444
 6773W        W78302   5.916  33.276   4.622
 6774W        W78303  19.566   0.204  14.762
 6775W        W78304  40.156  14.069  12.645
 6776W        W78305  36.539   2.096   3.121
 6777W        W78306   9.320  21.297   3.253
 6778W        W78307   5.233  18.895   0.926
 6779W        W78308  19.213   5.932   0.378
 6780W        W78309  24.986  39.603  13.556
 6781W        W78310  42.052  40.418  14.445
 6782W        W78311  44.275  22.291   3.251
 6783W        W78312  35.608  41.155   3.216
 6784W        W78313  24.717  22.026   2.610
 6785W        W78314  27.093  15.224  14.936
 6786W        W78315  24.225  19.743   2.336
 6787W        W78316  40.427  11.247   3.265
 6788W        W78317  35.639  32.897  13.505
 6789W        W78318  20.345   3.908   4.978
 6790W        W78319   4.595  17.250   2.617
 6791W        W78320  33.726  40.458   2.689
 6792W        W78321  11.244  12.227   4.109
 6793W        W78322   3.520  11.754  13.591
 6794W        W78323  39.848  41.227  10.833
 6795W        W78324  25.554   2.211  10.742
 6796W        W78325  13.650  22.264   1.003
 6797W        W78326  36.269  33.577  13.617
 6798W        W78327   0.363  10.410   0.813
 6799W        W78328  31.137   9.826  14.948
 6800W        W78329   7.335   6.262  10.668
 6801W        W78330  11.850  15.138  10.955
 6802W        W78331  32.541  19.263   1.533
 6803W        W78332   4.439  25.589  10.709
 6804W        W78333   5.961  35.541   1.769
 6805W        W78334   3.699  37.505  12.409
 6806W        W78335  14.281  31.333   0.281
 6807W        W78336  43.563  44.191   1.423
 6808W        W78337  35.123  16.773   4.348
 6809W        W78338  37.033  33.121  14.977
 6810W        W78339   0.156  32.924  11.149
 6811W        W78340  40.592  29.203   4.163
 6812W        W78341  43.700  30.904   3.518
 6813W        W78342  11.914  43.848  11.651
 6814W        W78343  21.666  10.034   2.649
 6815W        W78344  40.892  30.762  13.310
 6816W        W78345  35.105   9.755  10.680
 6817W        W78346   0.074  12.681  12.366
 6818W        W78347  28.177  30.656  11.961
 6819W        W78348  43.674  18.152   2.369
 6820W        W78349  35.017   6.922   3.735
 6821W        W78350  22.567  11.399   2.345
 6822W        W78351  44.409  37.999  12.952
 6823W        W78352  16.295  31.237   2.126
 6824W        W78353  29.709  15.781  14.801
 6825W        W78354  37.541  25.054   0.311
 6826W        W78355   6.410   2.603  10.575
 6827W        W78356  20.537  37.132   1.201
 6828W        W78357   2.444  38.538   0.662
 6829W        W78358  24.912   9.659   4.177
 6830W        W78359   7.693  23.016  13.119
 6831W        W78360  42.341  44.765   0.800
 6832W        W78361  39.267  40.241   0.524
 6833W        W78362  17.172  39.122   3.784
 6834W        W78363  22.167  33.102  11.955
 6835W        W78364   6.525  43.390   1.733
 6836W        W78365  33.347  19.890   1.475
 6837W        W78366  16.149   3.890  13.845
 6838W        W78367  23.510  11.999   0.423
 6839W        W78368  11.578  20.523  14.806
 6840W        W78369  40.967  31.934  12.293
 6841W        W78370  44.371  35.706   2.661
 6842W        W78371  25.989   6.768   3.177
 6843W        W78372   6.475   8.366  11.672
 6844W        W78373  17.760  43.716   0.154
 6845W        W78374  37.264  18.787   0.758
 6846W        W78375   4.661  22.526  12.458
 6847W        W78376   9.368   1.714  11.518
 6848W        W78377  21.271   2.294  11.265
 6849W        W78378  21.013  41.085  13.895
 6850W        W78379   5.696   8.370   2.311
 6851W        W78380  34.439   4.246   4.403
 6852W        W78381   0.275   8.108   0.421
 6853W        W78382  42.484   0.038   2.203
 6854W        W78383  26.075  24.517  11.212
 6855W        W78384  10.376  10.769   0.381
 6856W        W78385  31.607   5.921  14.028
 6857W        W78386  21.770  19.835   2.313
 6858W        W78387   5.160  35.071  12.027
 6859W        W78388  36.528  35.952  12.133
 6860W        W78389  42.291   3.712  13.144
 6861W        W78390  40.892   6.262  11.699
 6862W        W78391   0.349  13.255   1.389
 6863W        W78392   6.937  21.302  11.695
 6864W        W78393  23.632  41.006   2.784
 6865W        W78394  31.195  20.483   3.729
 6866W        W78395   8.532  12.467   2.819
 6867W        W78396  40.563  37.590  14.937
 6868W        W78397  33.042  21.907  10.640
 6869W        W78398  30.462  28.531  11.077
 6870W        W78399  15.099  19.280  14.117
 6871W        W78400   1.043   6.285  13.417
 6872W        W78401   5.394   7.462   2.776
 6873W        W78402  43.213  30.496   2.331
 6874W        W78403  23.479   5.852  12.464
 6875W        W78404   6.947  22.529  10.997
 6876W        W78405  20.337  31.194   4.836
 6877W        W78406   6.840  19.485   4.513
 6878W        W78407  20.843  28.188  14.764
 6879W        W78408  35.568   7.613  11.737
 6880W        W78409  26.643  39.415   1.364
 6881W        W78410   6.802  33.138   1.446
 6882W        W78411   1.933  28.540   4.010
 6883W        W78412   9.739  19.498  13.539
 6884W        W78413  17.576  43.792  14.200
 6885W        W78414  13.267  31.089   0.763
 6886W        W78415  28.948  27.973  14.106
 6887W        W78416   9.539  40.209  12.342
 6888W        W78417  38.187  40.483  10.134
 6889W        W78418  13.760   3.906   2.522
 6890W        W78419  18.586  36.698   1.129
 6891W        W78420   8.084   8.445  14.880
 6892W        W78421  33.319  21.813   0.244
 6893W        W78422  40.313   0.335   1.198
 6894W        W78423   4.968  24.340  13.687
 6895W        W78424   9.946   6.908  14.121
 6896W        W78425  25.115  37.016  14.305
 6897W        W78426  23.086  24.604  14.777
 6898W        W78427  44.728  18.229   4.072
 6899W        W78428  36.426  11.751  12.458
 6900W        W78429  15.829  20.960  13.521
 6901W        W78430  24.697  25.794   1.219
 6902W        W78431  36.909  32.091  14.991
 6903W        W78432  44.668  41.793  12.517
 6904W        W78433  27.555  31.485  14.607
 6905W        W78434  42.966  17.875   1.561
 6906W        W78435   5.404  10.330  14.761
 6907W        W78436   5.207   5.896  13.394
 6908W        W78437  24.976   0.488   1.757
 6909W        W78438  14.184  24.120   2.682
 6910W        W78439  15.345  14.107  11.549
 6911W        W78440  26.691  42.500  12.330
 6912W        W78441  41.798   7.893   1.993
 6913W        W78442  43.347   9.235  10.923
 6914W        W78443   0.325   8.679   3.757
 6915W        W78444  37.907   5.849   4.112
 6916W        W78445  31.039  13.822   2.109
 6917W        W78446  23.003   4.992   4.216
 6918W        W78447  16.548  27.729   2.672
 6919W        W78448  26.477   6.303  14.910
 6920W        W78449  42.257  21.382  11.419
 6921W        W78450  19.904  31.232  12.398
 6922W        W78451   5.455  21.791  14.033
 6923W        W78452  18.538   9.814   5.488
 6924W        W78453  10.328   7.026   0.306
 6925W        W78454  30.698  41.264  14.728
 6926W        W78455  41.315   1.764   4.193
 6927W        W78456  44.813  19.263  13.904
 6928W        W78457   7.646  12.241  14.390
 6929W        W78458  34.524   6.956   3.548
 6930W        W78459  29.262  22.961   1.683
 6931W        W78460   0.800  16.162  10.312
 6932W        W78461  23.212  20.017   1.432
 6933W        W78462  19.753  12.302  14.975
 6934W        W78463   7.160   4.885   4.812
 6935W        W78464  37.477  29.008   3.614
 6936W        W78465  42.913  14.075   2.377
 6937W        W78466  14.111  22.068  13.792
 6938W        W78467  12.294  16.727   4.215
 6939W        W78468  33.354   5.462   1.284
 6940W        W78469  22.907  21.262  13.394
 6941W        W78470  34.552  33.121   4.305
 6942W        W78471  22.265  15.581  14.950
 6943W        W78472   2.427  29.925  11.533
 6944W        W78473   6.131  41.783  12.554
 6945W        W78474  36.884  18.219   3.771
 6946W        W78475  43.964  42.725   4.767
 6947W        W78476  27.531  24.978  13.277
 6948W        W78477  26.802  27.131   4.217
 6949W        W78478  22.526  11.177   3.647
 6950W        W78479  23.119  25.898   0.790
 6951W        W78480  28.337  27.406  12.006
 6952W        W78481  34.658  27.941   2.207
 6953W        W78482  11.120  18.026  13.292
 6954W        W78483   0.013  10.829  14.719
 6955W        W78484   4.858  31.424   4.385
 6956W        W78485   1.389  19.162  10.776
 6957W        W78486  42.157  39.097   1.379
 6958W        W78487  38.427  29.109  13.511
 6959W        W78488  39.081  27.148  12.878
 6960W        W78489  17.083  10.156   2.118
 6961W        W78490  13.234   0.289  12.582
 6962W        W78491  24.491  40.772   2.881
 6963W        W78492  12.347  13.106  12.532
 6964W        W78493  33.558  31.410   0.688
 6965W        W78494  18.803  16.596  13.099
 6966W        W78495  28.870   5.351   3.652
 6967W        W78496  31.443  12.674   0.784
 6968W        W78497  28.412  39.377  14.801
 6969W        W78498   0.861  12.572  13.880
 6970W        W78499  14.743  23.302  12.157
 6971W        W78500  11.955  10.084   4.642
 6972W        W78501  21.031  25.034   3.683
 6973W        W78502  18.940  41.011   2.194
 6974W        W78503  30.073  36.426  11.537
 6975W        W78504  25.933  19.396  11.600
 6976W        W78505   9.438  21.610  12.999
 6977W        W78506  33.750  35.114  12.929
 6978W        W78507  20.119  12.635  13.829
 6979W        W78508  16.177  34.995  14.265
 6980W        W78509   5.422  38.375  14.975
 6981W        W78510  20.790  42.903   4.095
 6982W        W78511  32.431   4.159   1.906
 6983W        W78512  21.773  41.313  14.758
 6984W        W78513   7.049  39.239  12.109
 6985W        W78514  28.440  12.199   2.378
 6986W        W78515  44.316  21.639  11.054
 6987W        W78516   9.992  37.058   0.910
 6988W        W78517   1.541  31.012  12.313
 6989W        W78518   4.002  33.780   2.436
 6990W        W78519  43.955   1.220  13.253
 6991W        W78520  31.501   8.200  14.380
 6992W        W78521  11.770  13.875  13.336
 6993W        W78522  36.428  35.382  14.893
 6994W        W78523  20.266  16.759   4.197
 6995W        W78524  39.418   5.729  11.130
 6996W        W78525   1.024   0.283  10.663
 6997W        W78526   0.027  35.240   0.858
 6998W        W78527   8.756  30.027   3.267
 6999W        W78528  14.625  27.207   1.003
 7000W        W78529   6.918   6.131  12.534
 7001W        W78530  32.451  35.789  13.260
 7002W        W78531  35.400  12.846   4.299
 7003W        W78532  42.013  31.489   1.120
 7004W        W78533  34.798  38.058   4.120
 7005W        W78534  24.313   9.510  10.804
 7006W        W78535  28.105   8.284  13.934
 7007W        W78536  25.201  41.909   0.467
 7008W        W78537   3.250  41.017   1.418
 7009W        W78538  16.617  31.589  11.454
 7010W        W78539   6.856  15.709  10.543
 7011W        W78540  11.307  30.607   0.713
 7012W        W78541  23.730  12.564   2.010
 7013W        W78542   7.670  17.600   0.807
 7014W        W78543  36.152   0.799   0.880
 7015W        W78544   0.793  36.809   4.176
 7016W        W78545   1.866  12.703   2.827
 7017W        W78546  38.120   4.931  10.260
 7018W        W78547   0.529  29.246   1.201
 7019W        W78548  23.793  29.993  10.731
 7020W        W78549  25.604  27.409  12.052
 7021W        W78550  32.875   1.916  13.863
 7022W        W78551  11.646  36.799   0.445
 7023W        W78552  43.251   9.219   2.226
 7024W        W78553  44.650  33.884   0.614
 7025W        W78554  12.163  26.429   1.535
 7026W        W78555   5.807  40.723   1.915
 7027W        W78556  43.787  43.338  11.483
 7028W        W78557  34.078  35.293  10.848
 7029W        W78558  11.655  25.067   5.091
 7030W        W78559  38.888  37.353   4.101
 7031W        W78560  16.479   4.273   2.911
 7032W        W78561  30.108  21.248  13.347
 7033W        W78562  29.605  22.146   1.119
 7034W        W78563  23.946   0.025   0.358
 7035W        W78564   0.041  30.690   1.393
 7036W        W78565   2.306  38.835  10.979
 7037W        W78566  38.299   4.501  11.198
 7038W        W78567  32.004  17.556  10.616
 7039W        W78568  14.098   3.929   2.903
 7040W        W78569   9.316  24.268   2.376
 7041W        W78570  10.589  43.424   4.586
 7042W        W78571  17.678  37.707  12.479
 7043W        W78572   7.691  39.935   0.872
 7044W        W78573  42.056  35.809  14.019
 7045W        W78574  20.107  37.428   4.551
 7046W        W78575  28.513  36.414   2.393
 7047W        W78576  17.773  44.378   3.896
 7048W        W78577  31.474  10.158   4.899
 7049W        W78578   1.667  16.602   4.566
 7050W        W78579  29.884  29.843  12.067
 7051W        W78580   6.483  30.635   0.688
 7052W        W78581  22.870   3.733  12.470
 7053W        W78582  32.888  30.934   3.747
 7054W        W78583  39.175  15.693   0.793
 7055W        W78584   6.800  37.061   1.521
 7056W        W78585  21.263   3.919   3.323
 7057W        W78586  42.849  19.493  14.259
 7058W        W78587  13.635  10.482  10.488
 7059W        W78588   7.061  26.266  11.079
 7060W        W78589  17.478   5.196  13.410
 7061W        W78590   8.932  33.004   2.304
 7062W        W78591  40.337  18.534  13.814
 7063W        W78592  37.322   9.433   3.778
 7064W        W78593  24.114  23.517  11.263
 7065W        W78594  14.265   0.260  13.054
 7066W        W78595   1.400  40.026   3.454
 7067W        W78596  34.754   1.956  11.612
 7068W        W78597  18.095  42.020  12.808
 7069W        W78598  25.972  36.485  13.366
 7070W        W78599  21.532  17.041   2.581
 7071W        W78600  11.039  42.990   1.213
 7072W        W78601   6.170  36.456  12.447
 7073W        W78602  30.415   9.326   2.406
 7074W        W78603  30.881  27.683   4.110
 7075W        W78604  43.361  41.225   3.581
 7076W        W78605  44.184  17.251  12.034
 7077W        W78606   3.389  13.427  12.616
 7078W        W78607  44.880  44.244  10.520
 7079W        W78608  19.278  21.172  11.434
 7080W        W78609  17.189  24.222  11.969
 7081W        W78610   5.294  43.553  13.256
 7082W        W78611  15.591   6.783  12.617
 7083W        W78612  21.723  32.935   1.245
 7084W        W78613  29.071   8.903   3.613
 7085W        W78614  34.269  26.553   5.071
 7086W        W78615   9.354  40.415  14.088
 7087W        W78616   8.723  32.464  11.242
 7088W        W78617  10.593  29.936  13.658
 7089W        W78618  36.429  16.569  14.375
 7090W        W78619   9.106   3.504   0.891
 7091W        W78620   1.060  15.738  11.619
 7092W        W78621  42.514  22.224  11.973
 7093W        W78622  29.154  20.952  14.468
 7094W        W78623  40.019   0.084   1.795
 7095W        W78624  13.726  28.769   0.960
 7096W        W78625  32.595  40.939   4.870
 7097W        W78626  13.869  44.210   3.623
 7098W        W78627  34.364   2.992   2.979
 7099W        W78628  13.405  35.016   1.836
 7100W        W78629   6.674  11.371  14.883
 7101W        W78630   4.822  39.516   3.054
 7102W        W78631  37.085  26.533   2.320
 7103W        W78632  29.191  22.980   3.786
 7104W        W78633  10.862  24.173   3.214
 7105W        W78634  15.827  27.932  10.252
 7106W        W78635  14.611  27.247   2.396
 7107W        W78636   7.095   5.020   0.303
 7108W        W78637  29.398   8.965  13.865
 7109W        W78638  43.189   8.977   2.685
 7110W        W78639  37.379  11.878  11.172
 7111W        W78640  41.339  36.378   1.963
 7112W        W78641   7.784   2.390  13.560
 7113W        W78642  15.182   9.749  13.445
 7114W        W78643  29.044   9.927  12.024
 7115W        W78644   6.777  34.413   0.187
 7116W        W78645  20.559  29.135   0.745
 7117W        W78646  11.045  19.681   4.111
 7118W        W78647   8.679  33.759   3.225
 7119W        W78648  44.007   8.711   0.942
 7120W        W78649  19.744  21.034   1.264
 7121W        W78650   0.790  26.059   1.970
 7122W        W78651  12.845  28.669  11.767
 7123W        W78652  43.532  40.037  14.194
 7124W        W78653  44.698  41.530  12.983
 7125W        W78654  35.167  41.608  11.216
 7126W        W78655  28.602  35.735  12.549
 7127W        W78656  39.021  44.481  14.911
 7128W        W78657  32.994  33.676   4.261
 7129W        W78658  15.083  36.731  14.978
 7130W        W78659  38.541  22.248   4.519
 7131W        W78660  37.019   1.850   3.217
 7132W        W78661   6.755  15.694   2.295
 7133W        W78662  43.538   4.869  11.973
 7134W        W78663  11.744   1.483   3.796
 7135W        W78664  28.930  15.642   2.342
 7136W        W78665  19.046   2.968   4.790
 7137W        W78666  11.142  43.333  14.531
 7138W        W78667  24.226  14.917   4.183
 7139W        W78668  41.526  37.087  12.008
 7140W        W78669  11.125  29.729   0.821
 7141W        W78670  25.221  15.000   1.762
 7142W        W78671  18.789   1.292  11.553
 7143W        W78672   9.957  43.026  11.849
 7144W        W78673  34.453  30.207  12.924
 7145W        W78674  35.300  27.202  12.182
 7146W        W78675  17.645   0.957   0.316
 7147W        W78676   4.657  19.709   2.719
 7148W        W78677  34.382  11.330  14.174
 7149W        W78678  33.152   5.936  13.391
 7150W        W78679  30.944  27.865   4.580
 7151W        W78680  21.744  19.029   4.500
 7152W        W78681  18.949  43.119   3.567
 7153W        W78682   7.547  34.688  11.659
 7154W        W78683  20.207  24.148  10.586
 7155W        W78684   9.391   3.874  12.279
 7156W        W78685  11.346  26.685  12.372
 7157W        W78686  37.511   0.510   0.715
 7158W        W78687  18.298  44.126  13.850
 7159W        W78688  22.711  16.663  14.054
 7160W        W78689  17.314  28.746   2.231
 7161W        W78690   1.740  41.640  11.623
 7162W        W78691  15.715  36.255  14.008
 7163W        W78692   9.849  27.231   2.459
 7164W        W78693  15.226   7.441  13.835
 7165W        W78694  43.807  30.591   1.084
 7166W        W78695   6.225  26.563   1.965
 7167W        W78696  11.163  29.873  12.180
 7168W        W78697  34.919   5.969   1.837
 7169W        W78698  26.065  31.025  11.330
 7170W        W78699  20.537  27.654  10.365
 7171W        W78700  44.659   4.821  12.711
 7172W        W78701  21.228  43.412   3.286
 7173W        W78702  13.199  26.985  12.940
 7174W        W78703  17.598  25.214   1.810
 7175W        W78704  10.466   9.403   2.236
 7176W        W78705   8.145  33.972  13.248
 7177W        W78706   9.391   9.898  14.025
 7178W        W78707   7.150  14.147   3.582
 7179W        W78708   8.803  14.168  14.550
 7180W        W78709  12.834  18.455   4.191
 7181W        W78710  37.481  35.534   3.265
 7182W        W78711   2.920  31.117  12.446
 7183W        W78712  27.665  27.565  11.515
 7184W        W78713  43.831   1.776   1.417
 7185W        W78714  40.804  22.451  14.883
 7186W        W78715  13.522  14.064  12.669
 7187W        W78716  11.761   0.780  13.885
 7188W        W78717  19.195   5.285  11.178
 7189W        W78718   1.278  41.321  10.693
 7190W        W78719  35.095  23.198   3.718
 7191W        W78720  14.437  23.664   1.846
 7192W        W78721  14.001  29.071   0.005
 7193W        W78722   1.028  22.933   4.844
 7194W        W78723  24.021  24.596   4.670
 7195W        W78724  44.790  41.334   0.846
 7196W        W78725   1.320  27.438  14.867
 7197W        W78726  10.595  27.969  12.309
 7198W        W78727   7.262  36.197   3.213
 7199W        W78728  39.766  33.546   3.856
 7200W        W78729  23.739  44.803  13.359
 7201W        W78730  42.307  28.643  10.773
 7202W        W78731  10.228  11.670  12.172
 7203W        W78732  21.657  30.831   0.824
 7204W        W78733  13.194  31.172  11.065
 7205W        W78734  25.280  12.346  14.930
 7206W        W78735   0.860  25.098   0.411
 7207W        W78736  20.545   3.441  12.626
 7208W        W78737   0.396   4.937  14.879
 7209W        W78738  24.205  36.951  12.390
 7210W        W78739   7.332  21.124   3.124
 7211W        W78740   6.905  24.988   3.928
 7212W        W78741  10.036   9.748   1.033
 7213W        W78742  40.671  12.650   0.326
 7214W        W78743   6.432  13.796   4.809
 7215W        W78744  13.822  19.637  11.008
 7216W        W78745  44.797  13.087   4.608
 7217W        W78746   8.703  41.687   4.246
 7218W        W78747  19.114  16.125  12.402
 7219W        W78748   7.138  41.347  11.526
 7220W        W78749   3.248   1.512  10.860
 7221W        W78750  28.634  43.976   4.064
 7222W        W78751  25.541  41.232  10.728
 7223W        W78752   0.286  13.652   0.336
 7224W        W78753  41.548   6.631  10.626
 7225W        W78754  43.743  29.690   0.832
 7226W        W78755  29.631  39.960  13.733
 7227W        W78756  10.358  11.629   2.725
 7228W        W78757  39.636  26.532  11.083
 7229W        W78758  40.779   5.006   0.273
 7230W        W78759  41.225   2.230  13.342
 7231W        W78760  15.334  22.499  13.052
 7232W        W78761  21.445  19.720   0.903
 7233W        W78762  36.504   8.507   4.505
 7234W        W78763  36.680  34.266  14.765
 7235W        W78764  27.644   3.865  12.607
 7236W        W78765  26.202  31.295   4.216
 7237W        W78766  43.908   3.954   2.158
 7238W        W78767  12.862  36.442   0.800
 7239W        W78768  44.810  37.811  12.023
 7240W        W78769  40.311  14.229   4.697
 7241W        W78770  36.364  32.697   0.403
 7242W        W78771  42.975   8.602   3.142
 7243W        W78772  17.447   3.682   1.596
 7244W        W78773  13.284  16.390   3.181
 7245W        W78774  21.859  20.007   1.320
 7246W        W78775  24.095  37.066   2.896
 7247W        W78776  24.595  43.258  13.096
 7248W        W78777  11.730  22.435  11.446
 7249W        W78778   5.232  20.556   3.924
 7250W        W78779   7.320  21.528  13.995
 7251W        W78780   9.629  27.121  14.543
 7252W        W78781  15.843  34.353  10.126
 7253W        W78782  34.048  21.715   4.606
 7254W        W78783  13.443  44.011  14.429
 7255W        W78784  41.691   7.064   2.394
 7256W        W78785  27.543  16.238   1.218
 7257W        W78786  30.805  14.719   1.911
 7258W        W78787  27.104  20.145  12.347
 7259W        W78788  20.089  15.536   1.551
 7260W        W78789  23.175  40.583  10.786
 7261W        W78790  22.946  29.940   3.601
 7262W        W78791  44.696  41.647  13.965
 7263W        W78792  35.397  40.502   4.118
 7264W        W78793  12.643  14.695   0.395
 7265W        W78794  22.226  44.495  10.801
 7266W        W78795  35.979  43.976  11.207
 7267W        W78796  42.457  15.753   4.631
 7268W        W78797  10.079  19.633   1.455
 7269W        W78798  23.788  14.813   3.855
 7270W        W78799  26.169  17.551  11.997
 7271W        W78800  22.564   7.307  10.785
 7272W        W78801   3.639  42.001   3.773
 7273W        W78802  40.551  36.529  14.096
 7274W        W78803   5.865  21.237   1.441
 7275W        W78804  28.462  24.567  12.859
 7276W        W78805  37.015  14.708   2.786
 7277W        W78806  38.700  16.329   4.370
 7278W        W78807   9.067   4.845   1.617
 7279W        W78808  40.637  28.489   0.850
 7280W        W78809  14.747  43.374   1.294
 7281W        W78810  27.432  10.994   1.472
 7282W        W78811  38.476  30.588  10.886
 7283W        W78812  18.078  29.575  13.921
 7284W        W78813   8.652  36.080  10.734
 7285W        W78814  40.812  11.607   4.152
 7286W        W78815  32.622  33.857  14.102
 7287W        W78816  26.868  27.036   5.221
 7288W        W78817  29.497  41.263  14.929
 7289W        W78818  38.990  24.991   5.075
 7290W        W78819   8.145  38.233   3.732
 7291W        W78820   0.049  28.701   1.860
 7292W        W78821  12.948   2.500  13.164
 7293W        W78822  21.075  27.206   0.786
 7294W        W78823  21.893  14.251  12.607
 7295W        W78824  19.595  18.266  14.038
 7296W        W78825  16.093  12.733   3.662
 7297W        W78826   0.511   5.265  12.860
 7298W        W78827  36.767  20.316  12.991
 7299W        W78828  43.448  37.535  11.892
 7300W        W78829  42.452  41.804   0.981
 7301W        W78830  27.612  16.027   0.763
 7302W        W78831  44.602  32.055   3.583
 7303W        W78832  27.090  16.091   4.847
 7304W        W78833   7.375  16.703   2.671
 7305W        W78834  28.662  25.417  13.849
 7306W        W78835  25.665  43.773  11.905
 7307W        W78836  18.032  28.044  12.764
 7308W        W78837  15.536  36.374   3.553
 7309W        W78838  30.661   7.248  12.396
 7310W        W78839  22.736  27.560   2.562
 7311W        W78840  26.500  13.754  14.058
 7312W        W78841  19.187  37.447  13.220
 7313W        W78842  15.636  20.013  11.092
 7314W        W78843  34.568  17.014  14.931
 7315W        W78844  15.348   2.073   1.397
 7316W        W78845  35.675  38.035  13.133
 7317W        W78846  10.507  17.092  14.837
 7318W        W78847  39.394  17.566  14.496
 7319W        W78848  30.978  12.306  12.180
 7320W        W78849  32.187   1.375  11.149
 7321W        W78850  29.681  23.672  13.845
 7322W        W78851  38.459  30.058  14.380
 7323W        W78852  14.246  24.166  12.226
 7324W        W78853  11.375  11.433  14.014
 7325W        W78854  20.093  27.540   4.161
 7326W        W78855  31.023  11.294  11.081
 7327W        W78856  30.350  36.841  13.854
 7328W        W78857  21.691   4.333   4.606
 7329W        W78858  23.658   0.710  14.841
 7330W        W78859  41.033  37.024   4.561
 7331W        W78860  18.278  34.095  12.053
 7332W        W78861  19.962  44.303   2.641
 7333W        W78862  36.159  22.631  14.500
 7334W        W78863   8.915  26.746  13.528
 7335W        W78864  27.116  33.726  14.997
 7336W        W78865  28.074  11.587   1.814
 7337W        W78866  20.322  35.834  11.837
 7338W        W78867   8.978  30.872   1.807
 7339W        W78868  10.459  37.406  10.549
 7340W        W78869  39.583  33.085   1.795
 7341W        W78870  31.205  13.625  11.309
 7342W        W78871  10.074   3.227   1.961
 7343W        W78872  39.520  36.080  12.135
 7344W        W78873  25.120  14.397   3.932
 7345W        W78874  15.208   1.313   2.940
 7346W        W78875  12.130  25.115   0.342
 7347W        W78876  26.950  34.535  10.034
 7348W        W78877  36.291  15.232  11.649
 7349W        W78878  17.124  22.835  14.819
 7350W        W78879  24.930  10.056  11.127
 7351W        W78880  14.289  23.610   2.808
 7352W        W78881  15.679   3.699   4.554
 7353W        W78882  14.284  33.834  14.488
 7354W        W78883   7.837  33.245  11.680
 7355W        W78884  28.178  27.912   4.038
 7356W        W78885  10.128   2.910   1.130
 7357W        W78886  40.260  15.865   1.920
 7358W        W78887  29.912  32.132   4.190
 7359W        W78888  16.597   9.109   4.197
 7360W        W78889  27.681   6.958  13.810
 7361W        W78890   1.982  42.264   1.801
 7362W        W78891  28.241  29.391  14.972
 7363W        W78892  30.937  12.807   0.985
 7364W        W78893  28.378  10.267   0.783
 7365W        W78894  41.622  31.518  11.491
 7366W        W78895  17.098  34.295   3.703
 7367W        W78896  13.865  20.511   2.186
 7368W        W78897  18.263   0.678   1.315
 7369W        W78898  37.971   3.869   1.372
 7370W        W78899  39.321  30.843  13.917
 7371W        W78900  16.808  14.144  12.329
 7372W        W78901   7.389  25.114   4.072
 7373W        W78902   2.709  28.859  12.288
 7374W        W78903   0.960  13.331   0.170
 7375W        W78904  30.666  19.613   1.266
 7376W        W78905  26.445   8.703  11.224
 7377W        W78906  19.719  31.359   4.413
 7378W        W78907   6.734  25.186   3.107
 7379W        W78908  13.775  32.025  10.621
 7380W        W78909  17.072  32.660   0.886
 7381W        W78910  13.626   2.142   1.866
 7382W        W78911  32.729  29.739   1.729
 7383W        W78912  11.344  39.027  10.626
 7384W        W78913   4.232   1.325   0.094
 7385W        W78914  12.464  11.891  12.955
 7386W        W78915  24.129  34.427  11.601
 7387W        W78916   0.801  26.183  13.087
 7388W        W78917   4.722  36.418   1.343
 7389W        W78918   5.699  22.325  12.916
 7390W        W78919  36.129  10.857  13.959
 7391W        W78920  19.469  41.833   3.126
 7392W        W78921  40.188  40.841  10.769
 7393W        W78922  41.966  29.995  11.119
 7394W        W78923  35.092  21.156   0.076
 7395W        W78924  37.624  32.630  14.476
 7396W        W78925  30.103  21.759  11.667
 7397W        W78926  44.378  33.544  14.924
 7398W        W78927  22.601  31.815   4.993
 7399W        W78928   7.715   9.705  14.398
 7400W        W78929   2.280  24.456  10.920
 7401W        W78930  17.890  21.719  14.330
 7402W        W78931  44.800  21.776   3.856
 7403W        W78932   3.845  37.519   2.830
 7404W        W78933  24.075  29.429  13.444
 7405W        W78934  36.038  34.014   2.760
 7406W        W78935  40.802   4.396  10.702
 7407W        W78936  13.388  39.338  11.227
 7408W        W78937   7.281   0.367   2.839
 7409W        W78938   4.322   8.786   4.763
 7410W        W78939  14.229  28.286   1.435
 7411W        W78940  42.331  19.205  10.738
 7412W        W78941  34.336   9.253   2.314
 7413W        W78942  17.096  17.238  14.797
 7414W        W78943   9.025  12.416  13.932
 7415W        W78944  42.169  24.989   0.729
 7416W        W78945   8.670   6.151   4.290
 7417W        W78946  13.745   1.039  12.984
 7418W        W78947   9.714  35.679   4.350
 7419W        W78948  16.296  38.947   2.297
 7420W        W78949  15.225   4.505   4.796
 7421W        W78950   2.315  20.388   1.441
 7422W        W78951  30.971  42.437   4.246
 7423W        W78952  10.242   0.825   2.427
 7424W        W78953  26.750   0.958  13.639
 7425W        W78954  23.225   2.841   4.428
 7426W        W78955  26.180   1.353   3.932
 7427W        W78956  15.709  29.239   4.845
 7428W        W78957  29.725  19.777   2.776
 7429W        W78958  31.185  34.351   1.938
 7430W        W78959   4.467   3.706   2.445
 7431W        W78960  13.596  14.182  13.544
 7432W        W78961  24.469  36.994   0.549
 7433W        W78962  40.598  35.461  13.931
 7434W        W78963   6.094  26.616   2.461
 7435W        W78964  27.848  30.164  11.163
 7436W        W78965  14.426  44.237  14.549
 7437W        W78966  13.108  24.748   3.273
 7438W        W78967  29.398  30.456   0.232
 7439W        W78968   6.608  36.697  10.516
 7440W        W78969  20.486   7.883   1.484
 7441W        W78970  37.241  11.440  11.900
 7442W        W78971  24.951  13.339   0.022
 7443W        W78972  36.330  34.115  10.882
 7444W        W78973  21.802   1.471   4.113
 7445W        W78974  30.372  21.033   2.165
 7446W        W78975  27.884  10.717   1.461
 7447W        W78976  16.083  39.989  11.936
 7448W        W78977  41.859  41.414   1.823
 7449W        W78978   2.626  13.764   0.895
 7450W        W78979  25.882   1.947  11.063
 7451W        W78980  20.786  42.220   0.612
 7452W        W78981  41.414   3.369   1.526
 7453W        W78982   2.832  25.548   0.735
 7454W        W78983   3.593  13.723  14.464
 7455W        W78984  37.229   9.668  12.395
 7456W        W78985  31.389   4.279  14.409
 7457W        W78986  40.971  26.663   3.315
 7458W        W78987  43.266   3.179  11.527
 7459W        W78988  13.406  21.029   3.756
 7460W        W78989  43.545  14.742   4.809
 7461W        W78990  25.673  41.059   4.510
 7462W        W78991  10.578   6.642  11.000
 7463W        W78992   0.231  24.746   1.131
 7464W        W78993  33.899  26.408  10.988
 7465W        W78994  23.391  15.524   1.447
 7466W        W78995  13.982  26.792  14.787
 7467W        W78996  30.153  12.340  13.282
 7468W        W78997   5.838  13.174   3.676
 7469W        W78998   2.623  36.569  11.904
 7470W        W78999   9.904  19.602   4.815
 7471W        W79000  25.985  18.531   3.707
 7472W        W79001   0.633   4.212   0.807
 7473W        W79002  35.493  16.996   3.357
 7474W        W79003  37.393   5.247   4.592
 7475W        W79004   8.913  15.553   0.168
 7476W        W79005   8.642  19.538   1.341
 7477W        W79006  11.705  33.081  12.415
 7478W        W79007  38.800   6.858   2.292
 7479W        W79008  15.043  36.557  14.460
 7480W        W79009   7.621  13.875  14.437
 7481W        W79010  39.563   2.295   0.739
 7482W        W79011  21.300   0.878   4.714
 7483W        W79012  36.165  32.395  11.989
 7484W        W79013  11.591  35.043  10.254
 7485W        W79014  14.441   9.332  13.828
 7486W        W79015  42.434   9.883  12.150
 7487W        W79016  20.060   2.310   2.823
 7488W        W79017  28.658  11.638   1.142
 7489W        W79018  14.533   0.418  11.178
 7490W        W79019   3.685   8.677  14.883
 7491W        W79020  15.530   7.245   5.051
 7492W        W79021  26.995  43.501   1.735
 7493W        W79022  34.846  12.085   0.423
 7494W        W79023  15.914   5.342  12.525
 7495W        W79024  38.384   3.298   0.287
 7496W        W79025  22.118  37.848   0.772
 7497W        W79026  20.554  39.574   1.312
 7498W        W79027  28.568  19.725  11.220
 7499W        W79028   2.142  30.525   3.309
 7500W        W79029  30.146  36.799   3.701
 7501W        W79030  12.619   0.070   3.305
 7502W        W79031  34.605  14.613  12.199
 7503W        W79032  19.642  33.379   3.764
 7504W        W79033  27.264  29.646   2.707
 7505W        W79034   8.677  23.510  10.751
 7506W        W79035  22.781  12.848  10.343
 7507W        W79036  34.061  14.579  13.767
 7508W        W79037  12.650  20.125  11.926
 7509W        W79038   6.449  12.254  11.479
 7510W        W79039   8.175  29.700   0.378
 7511W        W79040  44.511   5.825  12.346
 7512W        W79041  26.105  35.360   2.703
 7513W        W79042  28.569  11.645   1.675
 7514W        W79043   5.787  10.630   4.717
 7515W        W79044  17.225   7.954  12.034
 7516W        W79045  15.349  37.295   2.984
 7517W        W79046  21.274  38.518   3.069
 7518W        W79047  44.868  31.178   1.324
 7519W        W79048  36.200   2.451  14.872
 7520W        W79049  24.035   3.081  14.331
 7521W        W79050  11.269  31.577   4.729
 7522W        W79051   7.162   2.984  10.675
 7523W        W79052  42.322  23.973   4.852
 7524W        W79053   5.311  34.238   3.443
 7525W        W79054  29.163  34.274   0.306
 7526W        W79055   6.475   3.984  11.192
 7527W        W79056  36.406  39.605   0.447
 7528W        W79057  29.244  11.795  11.561
 7529W        W79058  11.272  38.979  13.943
 7530W        W79059  10.906  13.110  10.695
 7531W        W79060  27.488  24.964   2.429
 7532W        W79061  38.005  44.736  10.678
 7533W        W79062   9.123  14.812  13.870
 7534W        W79063  30.051  25.549  12.415
 7535W        W79064  19.983   8.983   3.784
 7536W        W79065  41.832   1.278  13.882
 7537W        W79066  31.777   3.070  12.659
 7538W        W79067  37.655  21.150  10.207
 7539W        W79068   3.467   3.795   2.345
 7540W        W79069  32.671   1.436  12.067
 7541W        W79070  12.268  44.217  12.380
 7542W        W79071  43.731  15.188  10.647
 7543W        W79072  34.505   5.268   4.832
 7544W        W79073   8.856   6.189  14.546
 7545W        W79074  31.071  35.502   2.818
 7546W        W79075  11.534  16.224   2.723
 7547W        W79076  25.547  29.754  13.099
 7548W        W79077   3.410  10.494  12.893
 7549W        W79078  26.057  13.639  10.726
 7550W        W79079  23.319  40.293  14.901
 7551W        W79080   8.757   5.654   4.242
 7552W        W79081  16.205   1.065  11.076
 7553W        W79082  15.407   9.190  14.943
 7554W        W79083  35.230  19.253  12.517
 7555W        W79084   3.296  18.037   5.015
 7556W        W79085  43.524   1.275  11.144
 7557W        W79086  35.451  40.477   1.860
 7558W        W79087  23.769   9.692   3.258
 7559W        W79088  32.016  18.108   2.629
 7560W        W79089  28.101  35.083   3.917
 7561W        W79090  44.162  11.304   1.612
 7562W        W79091  44.701  31.703   2.008
 7563W        W79092  21.616  36.604  12.043
 7564W        W79093   9.382  15.485  12.488
 7565W        W79094   1.466  41.906   3.620
 7566W        W79095  26.705  32.708   1.639
 7567W        W79096  44.719   0.680  12.092
 7568W        W79097   7.888  23.756  12.044
 7569W        W79098  15.388  20.772  14.048
 7570W        W79099  23.015  25.659   0.335
 7571W        W79100  21.183  40.429   4.107
 7572W        W79101  38.473  33.925  12.795
 7573W        W79102  35.592  20.108  13.993
 7574W        W79103  44.003  40.145   0.876
 7575W        W79104  26.215  27.679   0.519
 7576W        W79105  34.514  44.142  12.131
 7577W        W79106  39.863  24.718   4.165
 7578W        W79107   1.820  22.903   1.040
 7579W        W79108  37.029   1.832   0.793
 7580W        W79109   6.191   3.225  14.335
 7581W        W79110  26.041  18.817   0.890
 7582W        W79111  35.819  15.406   3.335
 7583W        W79112   7.684  38.745  12.922
 7584W        W79113   1.803  21.655   0.466
 7585W        W79114   4.676  27.460  13.581
 7586W        W79115  22.020  43.491  12.856
 7587W        W79116  28.718  22.283  11.949
 7588W        W79117   1.430  22.534   2.217
 7589W        W79118  39.754   8.779   4.097
 7590W        W79119  11.290  35.645  10.549
 7591W        W79120  22.302  14.816   4.363
 7592W        W79121  29.603  31.037  11.423
 7593W        W79122  29.696  35.003   0.837
 7594W        W79123   4.463  38.275   3.373
 7595W        W79124  38.049  35.601  11.555
 7596W        W79125  30.966  14.073  11.433
 7597W        W79126   0.300  42.031  13.114
 7598W        W79127   9.172  38.362   2.665
 7599W        W79128  42.345  36.865   0.390
 7600W        W79129   9.128  35.294   3.754
 7601W        W79130  43.277  19.446   4.502
 7602W        W79131  19.301  42.453  13.006
 7603W        W79132  27.731  39.795   3.566
 7604W        W79133  31.138  39.663  11.654
 7605W        W79134  11.626  22.255  11.931
 7606W        W79135  25.242  22.076  14.932
 7607W        W79136  31.434  13.865   1.726
 7608W        W79137  35.092   0.262  11.663
 7609W        W79138  33.964   3.408  12.890
 7610W        W79139  26.301  14.543   2.715
 7611W        W79140  36.467  15.724   1.259
 7612W        W79141  10.592  22.344   2.058
 7613W        W79142  13.567  30.830  10.995
 7614W        W79143  33.142  39.180   1.459
 7615W        W79144  40.284  43.563   0.417
 7616W        W79145  32.515  15.147  13.098
 7617W        W79146  25.247  22.487   4.047
 7618W        W79147  38.697  42.765  10.296
 7619W        W79148  28.658  14.758  14.285
 7620W        W79149  38.609  22.099   2.277
 7621W        W79150   1.776   0.208   0.078
 7622W        W79151  18.661  39.094   4.107
 7623W        W79152  23.712  31.955  10.554
 7624W        W79153  27.461  11.032  11.644
 7625W        W79154  24.680   3.605   5.046
 7626W        W79155  24.698  35.622  11.755
 7627W        W79156  26.702  11.193   1.043
 7628W        W79157  43.866  33.493  11.027
 7629W        W79158  19.706  12.359  14.050
 7630W        W79159  32.447  29.999   1.004
 7631W        W79160  12.780  26.120  14.416
 7632W        W79161   4.415  21.570  12.415
 7633W        W79162  18.551  16.987  11.488
 7634W        W79163   8.306  30.556   4.540
 7635W        W79164  41.514  34.925  14.803
 7636W        W79165  38.613  24.808   2.251
 7637W        W79166  22.463  36.257   2.875
 7638W        W79167  11.254  16.664  10.924
 7639W        W79168  15.573  19.952   2.808
 7640W        W79169  38.443  11.274   2.809
 7641W        W79170  33.488  30.719  10.725
 7642W        W79171  17.454  32.053  11.272
 7643W        W79172   6.324  40.086   4.108
 7644W        W79173  37.653  39.786   2.708
 7645W        W79174   2.245  30.598   4.739
 7646W        W79175  10.636  35.841   2.361
 7647W        W79176  43.373  41.156   3.079
 7648W        W79177  28.538  36.887  12.972
 7649W        W79178   1.752  25.144  12.008
 7650W        W79179  23.552  19.631   5.015
 7651W        W79180   3.899  24.577  14.403
 7652W        W79181  19.649  24.674   0.320
 7653W        W79182   4.832  14.629   0.404
 7654W        W79183   7.239  11.557  11.016
 7655W        W79184   6.336   3.827   0.496
 7656W        W79185  13.573   7.477  14.813
 7657W        W79186  29.029  29.445  13.003
 7658W        W79187   5.130  27.467  11.869
 7659W        W79188  26.719  29.398   4.217
 7660W        W79189  30.951  39.089   0.062
 7661W        W79190  13.781  22.059   4.606
 7662W        W79191  29.324   2.372  12.742
 7663W        W79192  21.991  21.345  14.238
 7664W        W79193  34.380  12.861   1.604
 7665W        W79194  17.655  10.949  13.791
 7666W        W79195  35.967  40.792   3.240
 7667W        W79196  43.364  38.783  13.877
 7668W        W79197  38.061  43.769   4.298
 7669W        W79198  40.423  28.730  11.508
 7670W        W79199   8.505   3.817   1.668
 7671W        W79200  21.599  29.719  14.494
 7672W        W79201  32.610  34.503  13.726
 7673W        W79202   8.798  42.303   3.722
 7674W        W79203  15.554  13.427   3.597
 7675W        W79204  20.024   6.129  10.784
 7676W        W79205  14.065  40.153   4.638
 7677W        W79206  41.556   0.381   1.253
 7678W        W79207  25.055   8.782  11.044
 7679W        W79208  25.860  30.954   3.897
 7680W        W79209  38.297  34.203   2.562
 7681W        W79210   6.732   9.632  14.525
 7682W        W79211  25.064  17.846  13.481
 7683W        W79212  30.963   9.864   3.897
 7684W        W79213  34.251  43.387  10.592
 7685W        W79214  10.618  42.989   2.701
 7686W        W79215   9.135  12.876   4.167
 7687W        W79216  17.548   3.159  13.570
 7688W        W79217  40.490   1.136  14.571
 7689W        W79218   8.887  16.678   1.408
 7690W        W79219  27.675  25.562   0.392
 7691W        W79220  40.974  33.114  14.816
 7692W        W79221  36.167  14.829  13.818
 7693W        W79222   9.498  32.978   3.901
 7694W        W79223  44.905  44.412   3.214
 7695W        W79224  19.727  30.553   2.734
 7696W        W79225  34.615  26.569  12.544
 7697W        W79226  35.722  33.325  11.196
 7698W        W79227  14.956   7.885  14.501
 7699W        W79228  15.034  25.685  13.791
 7700W        W79229  10.213  12.820   4.584
 7701W        W79230  37.546   9.578   1.470
 7702W        W79231  29.059   4.250  13.795
 7703W        W79232  30.316  13.592  10.753
 7704W        W79233   9.315  43.984   1.668
 7705W        W79234  41.414  10.361   4.760
 7706W        W79235   5.973  10.691  14.010
 7707W        W79236  11.056  19.722  14.288
 7708W        W79237  25.957  39.290   1.872
 7709W        W79238  32.584  29.338  13.718
 7710W        W79239  13.819  32.535  10.658
 7711W        W79240  23.115  16.459  10.520
 7712W        W79241  32.480  24.529  13.792
 7713W        W79242  15.282  29.894   1.675
 7714W        W79243   1.380   4.879   2.355
 7715W        W79244  18.240  24.909   5.064
 7716W        W79245   8.022  34.577  12.847
 7717W        W79246  37.978  11.308  10.696
 7718W        W79247  40.072   4.603  13.408
 7719W        W79248  26.647   9.181  12.470
 7720W        W79249  25.623  18.497   0.867
 7721W        W79250  10.123  11.054   0.752
 7722W        W79251  38.887  41.485   3.625
 7723W        W79252  33.839  39.854   1.106
 7724W        W79253  43.294  35.121   2.793
 7725W        W79254  23.670  12.008   3.333
 7726W        W79255  17.542  33.563  14.424
 7727W        W79256  10.477  22.859   9.935
 7728W        W79257  32.409  44.893  10.524
 7729W        W79258  10.943  21.130   3.131
 7730W        W79259  41.163  24.219   0.048
 7731W        W79260   4.830  35.476  11.875
 7732W        W79261  42.009  18.095   4.105
 7733W        W79262  41.389  38.361  12.633
 7734W        W79263   5.291   8.954   1.875
 7735W        W79264  19.462  41.100  11.917
 7736W        W79265   0.510  11.936  12.072
 7737W        W79266   8.635  13.336  14.031
 7738W        W79267  33.798  34.638   1.294
 7739W        W79268  16.594  30.317  11.915
 7740W        W79269  44.982  29.928   2.295
 7741W        W79270   4.584   0.388   3.531
 7742W        W79271   9.103   8.163  11.199
 7743W        W79272  25.527  37.024   4.741
 7744W        W79273   0.260  31.818   5.077
 7745W        W79274  19.310  42.874  12.049
 7746W        W79275  40.037  34.545  10.814
 7747W        W79276  36.611   4.503   0.798
 7748W        W79277  32.844  13.300   2.711
 7749W        W79278  15.324  27.967  10.350
 7750W        W79279  16.131  34.391  10.587
 7751W        W79280  42.004  10.038  12.857
 7752W        W79281  22.701   0.740  14.700
 7753W        W79282  42.714  17.201  14.291
 7754W        W79283  43.977  41.989   3.528
 7755W        W79284  21.138  21.266  12.260
 7756W        W79285  15.899   3.628   3.093
 7757W        W79286   9.284  37.354  12.918
 7758W        W79287  26.629  10.662  13.457
 7759W        W79288   7.425  28.503  14.548
 7760W        W79289  24.121  14.120   2.884
 7761W        W79290  20.001  31.912   1.393
 7762W        W79291   8.212  17.303  11.535
 7763W        W79292  31.487  38.010  11.129
 7764W        W79293  39.877   9.101   0.765
 7765W        W79294  10.522  17.567   3.875
 7766W        W79295  23.731   7.464  13.782
 7767W        W79296  39.409  35.179   9.852
 7768W        W79297  29.987   1.254  14.518
 7769W        W79298  25.162  43.663   2.675
 7770W        W79299  26.732  38.027  12.943
 7771W        W79300  16.201   6.926   3.544
 7772W        W79301  43.748  30.522   4.336
 7773W        W79302   0.468  10.619   1.283
 7774W        W79303  29.027   3.878  12.386
 7775W        W79304  30.112  44.838   2.272
 7776W        W79305   5.757  41.289  10.810
 7777W        W79306  19.596  36.813  12.571
 7778W        W79307  29.418  16.358  11.589
 7779W        W79308  27.179  17.062  10.616
 7780W        W79309  36.843  36.642  13.918
 7781W        W79310  41.077  10.182   3.428
 7782W        W79311  31.624   6.738   0.390
 7783W        W79312  35.640  38.354   2.293
 7784W        W79313  40.442  19.881   4.189
 7785W        W79314  24.027  24.240   1.407
 7786W        W79315   8.758   8.428  13.515
 7787W        W79316  43.760  11.205  11.908
 7788W        W79317   7.127  36.617   2.914
 7789W        W79318   6.346  36.203  12.011
 7790W        W79319  23.799   5.820   2.222
 7791W        W79320  24.320   0.760   5.074
 7792W        W79321   7.654  30.609   1.327
 7793W        W79322  16.693  11.764   1.383
 7794W        W79323  23.297  41.051  13.452
 7795W        W79324  36.916  18.818   2.025
 7796W        W79325  34.346  33.558  10.915
 7797W        W79326  42.319  41.696   1.481
 7798W        W79327  35.180  32.154  13.569
 7799W        W79328   2.453  25.699   3.631
 7800W        W79329   3.389  15.803   2.487
 7801W        W79330  25.570   3.245   0.804
 7802W        W79331  44.459  30.791  11.146
 7803W        W79332   4.294  13.497  12.146
 7804W        W79333  10.884  11.207  10.712
 7805W        W79334  23.762   1.950  12.453
 7806W        W79335   0.987  27.097  14.014
 7807W        W79336  15.715  30.225   3.729
 7808W        W79337  35.711   9.843   2.366
 7809W        W79338  37.435  13.060  13.936
 7810W        W79339  35.222  10.527   1.988
 7811W        W79340   4.262  27.232   4.650
 7812W        W79341  30.758  19.514  11.468
 7813W        W79342   6.983  18.289   3.846
 7814W        W79343  43.082   1.294  14.893
 7815W        W79344  15.704  29.951   0.390
 7816W        W79345  22.030  37.000   2.268
 7817W        W79346  15.336  23.123   2.138
 7818W        W79347  22.808   0.058   3.724
 7819W        W79348  35.438  30.430   3.629
 7820W        W79349  24.275  25.346  13.988
 7821W        W79350  36.021  12.310  12.117
 7822W        W79351   2.264   3.230  10.548
 7823W        W79352  21.174   8.237   3.497
 7824W        W79353  12.866   4.699   2.827
 7825W        W79354  44.045  39.002  14.796
 7826W        W79355  23.428  29.500  11.549
 7827W        W79356   5.637   3.921   1.337
 7828W        W79357  25.678  29.855   1.332
 7829W        W79358  16.711   8.272   1.559
 7830W        W79359  31.259  37.843   0.710
 7831W        W79360  17.380  27.497   1.727
 7832W        W79361   5.476  27.633  12.744
 7833W        W79362   3.143  37.898  10.680
 7834W        W79363  27.440  30.120  13.533
 7835W        W79364   3.754   4.114   4.634
 7836W        W79365   2.392  10.913   4.599
 7837W        W79366  36.492  10.790  10.377
 7838W        W79367  16.638  42.821   4.583
 7839W        W79368  22.475   5.513   1.114
 7840W        W79369  43.273   4.767   2.275
 7841W        W79370   0.031  38.118  13.782
 7842W        W79371  23.928   1.811  11.115
 7843W        W79372  40.776  33.393  11.496
 7844W        W79373   8.333  37.359  12.111
 7845W        W79374   8.984   4.291   3.785
 7846W        W79375  20.273   6.187  13.350
 7847W        W79376  20.992  20.688   0.847
 7848W        W79377   8.608  20.619   3.895
 7849W        W79378  34.674  14.243  14.494
 7850W        W79379   0.014  22.604  13.563
 7851W        W79380  14.233  42.239  11.102
 7852W        W79381  18.593  20.009   0.827
 7853W        W79382  19.240  40.560   1.318
 7854W        W79383  37.338   7.377  14.788
 7855W        W79384  21.690   4.195   1.889
 7856W        W79385  15.810  21.454  13.704
 7857W        W79386   0.725  38.511   4.723
 7858W        W79387   1.770  18.304  13.350
 7859W        W79388  10.630  10.242   5.134
 7860W        W79389  12.003  40.284  14.028
 7861W        W79390  40.934   1.692   4.574
 7862W        W79391   4.770   5.153  14.917
 7863W        W79392  20.306  13.764  10.759
 7864W        W79393   6.175  35.938   4.897
 7865W        W79394  25.282  35.623  14.467
 7866W        W79395  12.811   1.261   5.058
 7867W        W79396  21.611   8.384   4.371
 7868W        W79397  39.490  42.988  11.439
 7869W        W79398  19.670  39.623   1.556
 7870W        W79399  35.610  40.394  11.768
 7871W        W79400  10.678   3.012  11.544
 7872W        W79401  20.595  17.397   0.771
 7873W        W79402  38.762  11.352   4.799
 7874W        W79403   8.178  35.340   4.252
 7875W        W79404  21.614  10.734   3.796
 7876W        W79405  42.495   9.824   4.553
 7877W        W79406  12.930  18.752   1.747
 7878W        W79407  19.045  18.121  14.810
 7879W        W79408  29.889  37.053  10.694
 7880W        W79409  16.837  26.538   1.357
 7881W        W79410  12.565  22.587   4.501
 7882W        W79411  38.309  40.500   4.097
 7883W        W79412  21.918   4.914  11.059
 7884W        W79413  11.266   8.328  14.926
 7885W        W79414  32.028  38.891  11.415
 7886W        W79415  37.351  16.031   2.745
 7887W        W79416  27.496  13.255  13.440
 7888W        W79417  16.651  44.508  13.853
 7889W        W79418  22.888  39.721   0.390
 7890W        W79419  38.522  23.152   3.989
 7891W        W79420  10.640  40.512  11.175
 7892W        W79421  36.917   7.362   2.828
 7893W        W79422   8.612  20.980   1.794
 7894W        W79423  39.834   3.403  11.702
 7895W        W79424  19.680  26.641   3.309
 7896W        W79425  10.669  39.751  10.717
 7897W        W79426   0.141   0.949  11.505
 7898W        W79427   9.162  13.398  11.942
 7899W        W79428  17.469  23.106   2.235
 7900W        W79429   8.843  36.590  12.851
 7901W        W79430  19.129  28.198  14.777
 7902W        W79431  41.442   2.222   2.429
 7903W        W79432  13.197   8.313   2.381
 7904W        W79433  31.423  17.836  12.298
 7905W        W79434  25.589  15.210  13.673
 7906W        W79435   3.303  13.923  12.704
 7907W        W79436  25.554  24.970   1.166
 7908W        W79437  13.275  26.930  10.705
 7909W        W79438   3.129  32.459  11.092
 7910W        W79439   8.846  39.766   3.346
 7911W        W79440   2.249  31.163   2.714
 7912W        W79441  38.389  23.965  10.888
 7913W        W79442   9.662  17.135   0.410
 7914W        W79443  38.270  34.350  12.575
 7915W        W79444  37.086  22.536  11.513
 7916W        W79445  43.311   8.303  12.537
 7917W        W79446  15.007   8.279  13.963
 7918W        W79447  14.993  23.622  14.941
 7919W        W79448  19.967  31.152  11.789
 7920W        W79449  14.537  21.485   3.171
 7921W        W79450  41.491   1.018   2.637
 7922W        W79451  16.853  23.466   4.308
 7923W        W79452  34.291  27.280   2.369
 7924W        W79453   8.994  35.003  11.321
 7925W        W79454   3.882  31.449  13.076
 7926W        W79455  44.460   2.198  11.547
 7927W        W79456  11.338  27.697   4.681
 7928W        W79457  40.176   0.500   0.330
 7929W        W79458   5.368  42.374  11.570
 7930W        W79459  33.947  38.930   1.664
 7931W        W79460  44.594  36.219   4.820
 7932W        W79461   1.295  10.694  14.484
 7933W        W79462  35.146   6.222  10.747
 7934W        W79463  21.534  10.034  13.821
 7935W        W79464  23.610  21.067  13.058
 7936W        W79465  11.886   2.375   0.476
 7937W        W79466  13.635  40.502  14.972
 7938W        W79467  40.524   0.116  11.127
 7939W        W79468  38.627  10.712  12.527
 7940W        W79469  17.734  11.029  11.685
 7941W        W79470  28.873   6.773  11.953
 7942W        W79471  41.908  21.049   2.237
 7943W        W79472  22.890   8.822  14.525
 7944W        W79473  29.048  42.270   4.905
 7945W        W79474  21.508  39.519   0.856
 7946W        W79475   9.814  20.517   3.281
 7947W        W79476  33.929  20.355  10.731
 7948W        W79477  15.024  41.013   1.267
 7949W        W79478  36.013  33.302   1.833
 7950W        W79479  24.277   1.657   9.840
 7951W        W79480  17.913  20.789  12.598
 7952W        W79481  27.762  28.606  13.058
 7953W        W79482  41.368   0.788   0.894
 7954W        W79483  38.541  12.091  13.128
 7955W        W79484  17.019  42.850   4.926
 7956W        W79485  44.083   8.144   2.882
 7957W        W79486  30.933  36.172   0.997
 7958W        W79487  37.629  41.029  10.936
 7959W        W79488   4.228  27.961   3.718
 7960W        W79489  36.968  13.343   3.383
 7961W        W79490   9.198   4.609  11.169
 7962W        W79491  24.335  41.599  14.783
 7963W        W79492   8.790   8.122  13.090
 7964W        W79493  40.986  32.974  13.871
 7965W        W79494  28.524   1.909  12.292
 7966W        W79495  40.234   5.691  11.286
 7967W        W79496  34.436  42.551   1.246
 7968W        W79497  22.411  21.619   1.422
 7969W        W79498  44.118   3.821  13.251
 7970W        W79499   8.359  14.881   4.639
 7971W        W79500   1.065  27.523  12.514
 7972W        W79501  38.560  11.794   2.726
 7973W        W79502  31.004   1.382  13.521
 7974W        W79503   7.555  41.250   2.877
 7975W        W79504  28.555   3.203  14.457
 7976W        W79505  35.673   9.791  12.891
 7977W        W79506  30.731  32.266  13.523
 7978W        W79507  15.263   1.000  14.396
 7979W        W79508  22.756  20.688  13.479
 7980W        W79509   8.125   4.873   5.011
 7981W        W79510  37.935  14.749  10.663
 7982W        W79511  29.914   7.352  14.398
 7983W        W79512  36.849   8.919  10.529
 7984W        W79513  25.211  13.313  12.947
 7985W        W79514  27.443  20.836  14.822
 7986W        W79515  34.336   3.698  13.537
 7987W        W79516  22.025  41.381   4.271
 7988W        W79517  19.240  21.644   5.649
 7989W        W79518  21.765   4.609  11.890
 7990W        W79519  23.972  16.715   2.362
 7991W        W79520   5.894  16.241   0.733
 7992W        W79521   7.833  26.344   1.950
 7993W        W79522   4.695  12.605  11.345
 7994W        W79523  28.079  19.364   3.362
 7995W        W79524  23.594  42.043   2.748
 7996W        W79525  42.816  41.467   3.569
 7997W        W79526  37.249  39.295  14.940
 7998W        W79527  14.062  30.341   0.300
 7999W        W79528  32.790  33.270   9.910
 8000W        W79529  33.555   2.960   4.719
 8001W        W79530   0.177  34.784   1.635
 8002W        W79531   7.144  10.794  13.397
 8003W        W79532  25.105  25.141   3.414
 8004W        W79533  43.039   1.009   2.266
 8005W        W79534  12.891  14.786  12.459
 8006W        W79535  41.751  13.123  13.007
 8007W        W79536  34.054  25.413  10.746
 8008W        W79537  16.303  31.943  11.660
 8009W        W79538  16.348  10.926  14.543
 8010W        W79539  43.604  28.974  14.963
 8011W        W79540   4.507  34.138  10.426
 8012W        W79541  13.841  21.774  13.047
 8013W        W79542  25.221   4.610   3.513
 8014W        W79543  39.831  38.187  13.539
 8015W        W79544  17.617  30.621   4.694
 8016W        W79545  17.448  13.673   0.959
 8017W        W79546   4.375  13.946   2.372
 8018W        W79547   0.837  26.670  12.450
 8019W        W79548  37.247  27.380  13.104
 8020W        W79549  10.391  27.428  11.278
 8021W        W79550  17.658  29.227  13.837
 8022W        W79551  27.788  18.899  12.961
 8023W        W79552   1.438  41.778  13.334
 8024W        W79553  38.173   9.474   0.852
 8025W        W79554  29.481  15.295   0.292
 8026W        W79555  34.867  40.355  13.007
 8027W        W79556  14.263   8.045  10.314
 8028W        W79557  26.529  34.603   4.045
 8029W        W79558  37.538  29.072   1.207
 8030W        W79559   0.846  21.031  12.283
 8031W        W79560  32.018   6.459  12.393
 8032W        W79561  34.690  26.102   1.919
 8033W        W79562  43.829   9.331  13.515
 8034W        W79563   7.570   2.309  11.385
 8035W        W79564  42.805   8.161  12.465
 8036W        W79565  10.381   1.706   0.879
 8037W        W79566  29.192   4.332  10.691
 8038W        W79567   8.072  10.203   1.953
 8039W        W79568  40.726  40.380   1.928
 8040W        W79569  32.662  42.558  13.025
 8041W        W79570  10.854   4.821   1.249
 8042W        W79571  41.489  35.604  10.676
 8043W        W79572  19.077  30.744  10.276
 8044W        W79573  30.444  37.683  11.716
 8045W        W79574  10.793  36.071  14.382
 8046W        W79575  19.761   2.349   4.839
 8047W        W79576  40.985  41.503   2.146
 8048W        W79577  13.477  23.021  11.411
 8049W        W79578  33.296   1.429   1.700
 8050W        W79579  39.904  36.902  10.561
 8051W        W79580  20.100  12.073  10.327
 8052W        W79581  42.449  26.575   3.946
 8053W        W79582  10.925  16.582   1.383
 8054W        W79583  17.327  30.593  11.616
 8055W        W79584   9.436   6.678  12.944
 8056W        W79585  42.405  41.984   2.908
 8057W        W79586   2.338   5.375  14.564
 8058W        W79587  29.214  41.946  13.153
 8059W        W79588  35.750  11.045  11.089
 8060W        W79589  40.715   9.179  13.952
 8061W        W79590  43.357  17.551   1.395
 8062W        W79591   5.382   2.779  10.903
 8063W        W79592  33.159  36.826   4.808
 8064W        W79593  39.931  17.051  10.707
 8065W        W79594  22.019   5.783  11.628
 8066W        W79595  37.782   6.621   2.410
 8067W        W79596  27.699  38.790  10.680
 8068W        W79597  43.839  10.590   0.510
 8069W        W79598  33.372  32.747   1.437
 8070W        W79599  33.012  40.608   1.478
 8071W        W79600  37.525  21.033  12.510
 8072W        W79601  44.262   0.552  11.873
 8073W        W79602  22.403  32.579   0.717
 8074W        W79603  10.741  14.912   2.578
 8075W        W79604  33.022  24.042  11.498
 8076W        W79605   5.876  32.156   4.728
 8077W        W79606  29.915   0.279   3.191
 8078W        W79607  36.484   8.439  12.356
 8079W        W79608  34.425  27.634   3.627
 8080W        W79609  17.526   4.488   0.458
 8081W        W79610  39.795  35.634  12.022
 8082W        W79611  18.538  28.998  12.219
 8083W        W79612  12.749  39.067  14.012
 8084W        W79613  40.533   1.975  14.244
 8085W        W79614   3.892  31.950   2.815
 8086W        W79615   0.490  28.517   1.707
 8087W        W79616  17.727   6.913  10.478
 8088W        W79617  32.852  19.295  13.706
 8089W        W79618  12.390  12.103   4.495
 8090W        W79619  41.870  30.950   3.818
 8091W        W79620  40.133  22.368  14.071
 8092W        W79621  42.328  15.120  12.518
 8093W        W79622   7.928  19.432  10.267
 8094W        W79623  33.888   5.419   4.737
 8095W        W79624  34.337   8.921  12.427
 8096W        W79625  44.788   0.302  13.314
 8097W        W79626  16.207   0.510   4.127
 8098W        W79627  35.001  28.828  12.983
 8099W        W79628   8.997  23.960  10.713
 8100W        W79629   2.296  40.018   4.982
 8101W        W79630  34.975  44.342  11.986
 8102W        W79631  25.667  42.053   0.716
 8103W        W79632  39.155  10.775  12.620
 8104W        W79633  29.382  21.664   0.984
 8105W        W79634  30.443  23.665   2.648
 8106W        W79635   4.681   7.317   2.202
 8107W        W79636  21.093   1.888  13.100
 8108W        W79637  41.522   6.209  11.802
 8109W        W79638   7.628  10.231  14.468
 8110W        W79639  21.210  26.908  13.463
 8111W        W79640   7.689  35.462   3.401
 8112W        W79641  38.847   1.363   1.325
 8113W        W79642  42.055  16.130   3.892
 8114W        W79643  12.048  21.694  13.759
 8115W        W79644  44.923   0.453   4.086
 8116W        W79645   3.144  18.623  14.530
 8117W        W79646   9.403  23.945   3.183
 8118W        W79647  19.076  24.727  10.584
 8119W        W79648  12.855  22.770  12.591
 8120W        W79649  44.288  30.157  14.437
 8121W        W79650  26.176  44.126   1.332
 8122W        W79651  25.942  34.830  14.495
 8123W        W79652  28.125  28.394   4.199
 8124W        W79653  31.638  22.617   2.809
 8125W        W79654   9.753  40.576   1.178
 8126W        W79655  30.164  34.467   0.071
 8127W        W79656   6.009  43.389   1.634
 8128W        W79657  36.333  26.838   4.216
 8129W        W79658   2.428  40.303  14.476
 8130W        W79659  44.173  33.081  14.167
 8131W        W79660  39.887  17.422  14.524
 8132W        W79661  25.463  10.414  13.445
 8133W        W79662   5.411   4.929  11.212
 8134W        W79663  26.636  28.584   2.637
 8135W        W79664   6.354  42.802   5.051
 8136W        W79665   7.336  28.187   2.721
 8137W        W79666   4.544   7.104  12.568
 8138W        W79667  40.098   5.653  10.686
 8139W        W79668  36.092  35.982  11.136
 8140W        W79669   1.947   6.124  13.591
 8141W        W79670   2.621  32.929   4.488
 8142W        W79671  10.743  40.702  13.872
 8143W        W79672  44.306  25.692  14.406
 8144W        W79673  32.976  16.850  14.400
 8145W        W79674  32.152  29.645  10.765
 8146W        W79675  24.158  22.446   0.891
 8147W        W79676   5.849  42.002  14.917
 8148W        W79677  23.141   0.844   2.080
 8149W        W79678  24.116  38.303   0.145
 8150W        W79679  41.785  17.654  12.037
 8151W        W79680  30.663  18.649   5.043
 8152W        W79681   8.420  19.091   1.617
 8153W        W79682  39.327   3.200   4.200
 8154W        W79683  19.167  44.872  11.495
 8155W        W79684  42.407   0.485   2.698
 8156W        W79685  15.119   1.192   4.382
 8157W        W79686  13.643  31.515  14.503
 8158W        W79687  20.137  12.595  10.381
 8159W        W79688  28.154  25.281   3.125
 8160W        W79689  42.821  42.322   4.114
 8161W        W79690  25.738  14.203  11.305
 8162W        W79691  11.293   1.505   0.293
 8163W        W79692  33.607  20.289  13.480
 8164W        W79693  40.529   2.712  11.146
 8165W        W79694  44.251  25.060  13.074
 8166W        W79695  42.584  11.201   3.214
 8167W        W79696  38.920  31.204  13.964
 8168W        W79697  24.759  29.706   0.451
 8169W        W79698  41.265  10.322   1.830
 8170W        W79699  14.086  17.268   3.570
 8171W        W79700  40.329  17.738  13.647
 8172W        W79701   1.300  17.008   2.436
 8173W        W79702  26.565  44.995   0.912
 8174W        W79703  38.395  26.420   3.251
 8175W        W79704  31.534  11.011  14.773
 8176W        W79705  38.463  19.097  12.523
 8177W        W79706  23.733  36.589   1.247
 8178W        W79707   8.859  34.331  11.974
 8179W        W79708  25.036  12.254  13.737
 8180W        W79709  19.073  18.355   1.267
 8181W        W79710   1.242  38.327  13.765
 8182W        W79711  43.514  17.771  11.584
 8183W        W79712   9.134   2.373  11.895
 8184W        W79713  26.354  26.524   4.517
 8185W        W79714  31.953  32.973   0.076
 8186W        W79715  13.251   2.898   4.166
 8187W        W79716  37.309  31.036   2.815
 8188W        W79717  18.078  37.936   0.407
 8189W        W79718  37.313  34.091  14.326
 8190W        W79719  31.096  37.731  12.889
 8191W        W79720  36.977  10.122  14.809
 8192W        W79721  30.585  19.995   4.538
 8193W        W79722  12.140  33.249   0.695
 8194W        W79723   1.165   7.485   3.660
 8195W        W79724  16.854  18.155   4.597
 8196W        W79725   0.733   1.541   3.451
 8197W        W79726  22.224  44.098   4.175
 8198W        W79727  13.985  11.245  12.190
 8199W        W79728  28.622  29.836   3.986
 8200W        W79729  27.101   0.007  12.413
 8201W        W79730  20.144   2.838   1.452
 8202W        W79731   1.491  40.310  11.386
 8203W        W79732  27.710  17.514  12.057
 8204W        W79733  41.676  31.433   3.883
 8205W        W79734   3.543  43.402   2.229
 8206W        W79735  16.320  41.278  13.928
 8207W        W79736  23.715  18.318   4.203
 8208W        W79737  41.722  29.780  14.874
 8209W        W79738  27.941  15.795   2.179
 8210W        W79739  31.043  43.335   2.011
 8211W        W79740  20.559  41.120   1.280
 8212W        W79741   5.681  40.871  14.280
 8213W        W79742  15.947  24.892  11.816
 8214W        W79743  22.745  27.952  14.867
 8215W        W79744  24.455  24.742  14.875
 8216W        W79745  15.659  33.957  14.717
 8217W        W79746  35.398  22.764   2.134
 8218W        W79747   5.895  41.472   1.430
 8219W        W79748   1.694  20.321  11.990
 8220W        W79749  10.932  32.287   3.792
 8221W        W79750  33.486  17.567   0.485
 8222W        W79751  29.138   7.223  13.959
 8223W        W79752  15.836  17.783  11.138
 8224W        W79753  40.873  31.520  11.944
 8225W        W79754  21.105  42.335   2.377
 8226W        W79755  15.196  14.817  13.056
 8227W        W79756  38.395  42.813   4.646
 8228W        W79757  26.383  36.642   2.675
 8229W        W79758  42.761  37.477  13.870
 8230W        W79759  38.480  37.924  13.429
 8231W        W79760   7.717  13.217   1.813
 8232W        W79761  40.377  12.902   2.327
 8233W        W79762   1.848  28.562   1.414
 8234W        W79763  11.332   0.298  11.549
 8235W        W79764  24.647  35.406   4.158
 8236W        W79765  16.036  37.902   0.677
 8237W        W79766   8.735  11.864   4.305
 8238W        W79767  39.167  20.375  12.541
 8239W        W79768  25.493   7.268   4.894
 8240W        W79769  11.554  20.230  13.515
 8241W        W79770  44.975   2.728   0.990
 8242W        W79771  21.302  38.614   4.563
 8243W        W79772  27.153  18.656   0.848
 8244W        W79773  41.975  34.108  12.025
 8245W        W79774  20.481  44.576  11.554
 8246W        W79775  38.322   3.803  11.553
 8247W        W79776  15.591  17.640   4.455
 8248W        W79777  23.516  25.057  14.789
 8249W        W79778  44.813  16.140   3.772
 8250W        W79779   7.939   1.208   1.344
 8251W        W79780  31.616  18.192  12.907
 8252W        W79781   9.328  11.719  11.260
 8253W        W79782  11.270  23.150   1.855
 8254W        W79783  22.709  34.113  13.590
 8255W        W79784  30.841  32.943   0.303
 8256W        W79785  24.581  27.013  11.952
 8257W        W79786  43.270  28.558  13.466
 8258W        W79787   1.852  11.846   1.523
 8259W        W79788   1.473  43.906   1.757
 8260W        W79789  14.359  17.232  14.424
 8261W        W79790  21.063  18.606   0.794
 8262W        W79791  19.936  24.066   1.636
 8263W        W79792  10.144  37.420  13.034
 8264W        W79793  13.789  35.218   2.280
 8265W        W79794  15.365  28.668   1.760
 8266W        W79795   8.234  18.555  12.251
 8267W        W79796  18.067  16.962   2.317
 8268W        W79797  29.733  32.453  13.513
 8269W        W79798  19.315  16.224   2.585
 8270W        W79799  24.923  38.745   1.261
 8271W        W79800  18.299  27.229   0.281
 8272W        W79801  32.414  13.634  13.743
 8273W        W79802  34.502  41.419  13.112
 8274W        W79803  32.454  24.500  14.306
 8275W        W79804  42.872  38.390   1.436
 8276W        W79805  32.504  16.795  13.534
 8277W        W79806  23.263   2.747   0.450
 8278W        W79807  33.041  10.257   2.688
 8279W        W79808  24.540   9.695  13.988
 8280W        W79809  26.915  28.568  11.059
 8281W        W79810  39.058  24.520  11.999
 8282W        W79811  18.009  39.098  13.618
 8283W        W79812   6.440  33.429  11.071
 8284W        W79813  17.712   8.667   0.879
 8285W        W79814  30.129  10.629  14.423
 8286W        W79815  10.139  18.830   0.108
 8287W        W79816  43.265  43.102  12.618
 8288W        W79817  23.386  27.446  12.377
 8289W        W79818  12.543   2.718  13.779
 8290W        W79819  19.452  38.876   4.446
 8291W        W79820  31.520  15.002  11.132
 8292W        W79821  20.804   2.357   4.184
 8293W        W79822   8.111  23.436   3.192
 8294W        W79823  21.958   2.857   2.814
 8295W        W79824  36.278  14.281  13.475
 8296W        W79825   0.905   7.170   2.345
 8297W        W79826  25.979  18.230  13.034
 8298W        W79827  29.013  14.115  11.908
 8299W        W79828  37.010  40.913  12.493
 8300W        W79829  22.137   2.875   0.900
 8301W        W79830  24.323  42.509  13.444
 8302W        W79831  31.094  17.231   3.042
 8303W        W79832  32.948   1.319  11.643
 8304W        W79833   1.828  15.101   0.682
 8305W        W79834  38.527   0.721   1.797
 8306W        W79835  44.882  22.996   3.146
 8307W        W79836  34.945   6.663  13.884
 8308W        W79837  25.971   8.864  11.108
 8309W        W79838   3.840  12.747  12.070
 8310W        W79839   6.728  36.397  10.911
 8311W        W79840  20.559  24.646  13.919
 8312W        W79841  29.213  10.431   2.170
 8313W        W79842   5.461  35.410  14.785
 8314W        W79843   3.256   9.415  13.717
 8315W        W79844   0.182  17.848   4.170
 8316W        W79845   7.287   9.060  10.763
 8317W        W79846  30.494   3.419  12.928
 8318W        W79847  43.384   5.481   3.275
 8319W        W79848  10.267  15.680  13.293
 8320W        W79849  27.945   8.450  14.967
 8321W        W79850   3.107  36.927   4.389
 8322W        W79851  28.397  22.036  11.657
 8323W        W79852   7.370   6.510   3.729
 8324W        W79853  30.998  26.643  13.248
 8325W        W79854   3.912  36.560  11.553
 8326W        W79855  15.149  32.512  11.073
 8327W        W79856  31.050   9.359  14.695
 8328W        W79857  18.609  33.145  11.993
 8329W        W79858  21.180  25.529  13.855
 8330W        W79859  38.069  34.485  13.995
 8331W        W79860  12.596  13.122   3.401
 8332W        W79861   5.583  31.608   2.262
 8333W        W79862  42.713  44.255   1.854
 8334W        W79863  19.131  42.222  12.481
 8335W        W79864  20.559  13.189   1.729
 8336W        W79865  12.046  25.084   2.299
 8337W        W79866  26.472  31.555   4.626
 8338W        W79867  27.640  15.855  10.966
 8339W        W79868   5.942  38.288   0.003
 8340W        W79869  28.228   7.766  13.986
 8341W        W79870  32.508   6.248   2.552
 8342W        W79871   5.665   3.859  13.271
 8343W        W79872  20.752  20.677   1.725
 8344W        W79873  29.058   5.359  14.291
 8345W        W79874  27.738  33.811  13.930
 8346W        W79875   7.541  42.727   2.592
 8347W        W79876   7.430  17.466  14.956
 8348W        W79877   7.194  37.284   2.270
 8349W        W79878  26.355  18.086   2.700
 8350W        W79879   2.229  43.550  14.464
 8351W        W79880  42.539  22.585   0.260
 8352W        W79881  13.095  27.976  12.146
 8353W        W79882  10.715  21.681   2.740
 8354W        W79883   0.554  32.470  11.174
 8355W        W79884  32.919  36.015   3.698
 8356W        W79885  44.817  42.032  12.948
 8357W        W79886  44.950   3.291   1.184
 8358W        W79887   8.641  16.772  11.045
 8359W        W79888  43.949   1.695   0.548
 8360W        W79889  27.187   9.702   4.710
 8361W        W79890  34.955  25.489   4.614
 8362W        W79891  39.549  38.973   1.904
 8363W        W79892  39.323  30.436  14.880
 8364W        W79893  39.676  11.229   0.645
 8365W        W79894   1.431   7.824   3.370
 8366W        W79895  36.621  12.336  11.251
 8367W        W79896   6.274  25.558   1.109
 8368W        W79897  37.486  16.257  12.156
 8369W        W79898  44.899  18.683   4.184
 8370W        W79899  31.941  21.157   1.452
 8371W        W79900  10.071  13.071   4.141
 8372W        W79901  13.658  29.568   2.249
 8373W        W79902  29.472   4.708   3.608
 8374W        W79903  26.748  19.354  14.348
 8375W        W79904  18.457  44.522   1.816
 8376W        W79905  42.870  36.303   5.054
 8377W        W79906  22.946  30.020   1.687
 8378W        W79907  37.438   8.779   3.066
 8379W        W79908  19.322  22.302   2.781
 8380W        W79909  10.933  30.154  14.851
 8381W        W79910   3.780  40.746  14.994
 8382W        W79911   1.436   9.483  11.096
 8383W        W79912   8.184  11.081   0.541
 8384W        W79913   5.135   2.470  10.562
 8385W        W79914  22.533  41.242  11.591
 8386W        W79915  11.236  25.149   4.788
 8387W        W79916  36.398  28.055  11.263
 8388W        W79917  24.073  39.083  14.748
 8389W        W79918   8.199   6.362  12.934
 8390W        W79919  11.404  34.807   3.227
 8391W        W79920   4.875  19.336   0.925
 8392W        W79921  41.054  43.896  12.534
 8393W        W79922  31.835  14.103  13.282
 8394W        W79923  30.864  32.234   4.192
 8395W        W79924   0.818  19.630  14.082
 8396W        W79925  40.334   6.687  11.137
 8397W        W79926  21.191   4.042   0.021
 8398W        W79927   5.344  26.246  12.993
 8399W        W79928  18.784  15.756  10.243
 8400W        W79929  20.982  23.509   1.349
 8401W        W79930  12.810  42.274   3.308
 8402W        W79931   8.384   4.232   1.962
 8403W        W79932   7.744  24.659   4.113
 8404W        W79933  33.467  34.992   1.803
 8405W        W79934  24.334  38.266   0.774
 8406W        W79935  32.014  36.630   4.987
 8407W        W79936  24.178  19.102  12.958
 8408W        W79937  12.769  14.759   1.882
 8409W        W79938  20.203  40.342   1.993
 8410W        W79939   6.684  10.679  14.450
 8411W        W79940  24.923  35.616  11.296
 8412W        W79941   6.755   2.699   4.520
 8413W        W79942   6.385  16.329   1.331
 8414W        W79943  41.625   8.665   3.151
 8415W        W79944  18.331  28.129   1.040
 8416W        W79945  28.449  24.553  12.351
 8417W        W79946  17.304  40.993  12.616
 8418W        W79947  25.565  28.059  12.084
 8419W        W79948   7.901  16.039  10.671
 8420W        W79949  20.452   9.171  11.878
 8421W        W79950   5.416  15.261  14.379
 8422W        W79951  21.074   1.217  11.687
 8423W        W79952   0.225   5.355  12.412
 8424W        W79953  29.198  32.978   4.129
 8425W        W79954  43.073  38.906   4.625
 8426W        W79955  14.244  19.752  10.249
 8427W        W79956  25.052  17.624   2.303
 8428W        W79957   3.273  13.908  14.947
 8429W        W79958  40.482  30.023   2.428
 8430W        W79959   8.661   8.474  12.094
 8431W        W79960  36.056   8.679  12.518
 8432W        W79961  43.950   6.705  12.561
 8433W        W79962  33.118  35.638  11.695
 8434W        W79963  17.553  31.959   2.407
 8435W        W79964  20.800   1.785   2.704
 8436W        W79965  40.258  14.096  13.515
 8437W        W79966  25.052  15.199   3.852
 8438W        W79967   4.537  12.523   3.784
 8439W        W79968  18.101  30.341  12.028
 8440W        W79969  25.184  29.524   1.387
 8441W        W79970  37.233  21.381   3.193
 8442W        W79971  31.145  40.727   0.697
 8443W        W79972  40.130  30.576   1.509
 8444W        W79973  14.805  40.567   1.787
 8445W        W79974  33.024  42.056  10.872
 8446W        W79975  28.129  43.064  12.490
 8447W        W79976  11.669  43.847  13.819
 8448W        W79977   2.190   0.426  12.714
 8449W        W79978  33.516  39.034  11.496
 8450W        W79979  15.040   1.334  11.694
 8451W        W79980  41.524  29.254   4.590
 8452W        W79981  40.394  25.071   1.541
 8453W        W79982   7.385  24.505   3.267
 8454W        W79983   1.986  42.344   0.080
 8455W        W79984  32.636  44.566   3.677
 8456W        W79985  11.661  33.941   3.925
 8457W        W79986  31.664  13.828  10.440
 8458W        W79987   7.212  31.808  13.596
 8459W        W79988  17.544  25.484  11.011
 8460W        W79989  24.980  30.641   4.601
 8461W        W79990  18.589  22.177  12.905
 8462W        W79991  36.385   0.219   3.432
 8463W        W79992  15.818  30.020   3.056
 8464W        W79993  13.702  18.976  11.703
 8465W        W79994   0.410  15.202  12.424
 8466W        W79995   2.406  22.238   2.251
 8467W        W79996  33.964  21.109  13.303
 8468W        W79997   0.906  37.294   0.188
 8469W        W79998   1.210  43.372  12.360
 8470W        W79999  33.213   3.861  13.118
 8471W        W80000  18.997  15.604   2.429
 8472W        W80001   5.729   5.255   2.731
 8473W        W80002  32.628  31.524  11.298
 8474W        W80003  13.725  23.694   2.595
 8475W        W80004  25.023  32.838  11.557
 8476W        W80005  26.217  31.668   1.980
 8477W        W80006   1.647  32.178   4.152
 8478W        W80007  18.540  24.506  13.595
 8479W        W80008  33.391  39.933   0.875
 8480W        W80009  23.985  39.867   0.316
 8481W        W80010  10.673   5.716   2.784
 8482W        W80011  24.113  13.259  12.484
 8483W        W80012  23.985  39.131  13.834
 8484W        W80013   6.388  30.242   1.656
 8485W        W80014  39.167  19.252   3.079
 8486W        W80015  20.299   1.848  11.576
 8487W        W80016  11.874  39.022   1.603
 8488W        W80017  19.531   3.162  13.920
 8489W        W80018  13.885  44.007   0.893
 8490W        W80019  34.794  10.411   0.925
 8491W        W80020  41.363  10.498  11.232
 8492W        W80021  27.635  10.909   3.719
 8493W        W80022  31.014  17.713   3.151
 8494W        W80023  37.907  32.486   1.823
 8495W        W80024   3.216  26.089  11.982
 8496W        W80025  38.337  39.377  14.827
 8497W        W80026   9.930  30.449   2.580
 8498W        W80027  18.721   5.709  12.155
 8499W        W80028  27.689  19.867  11.164
 8500W        W80029  19.268   7.412  13.890
 8501W        W80030  32.490  14.524  10.639
 8502W        W80031   1.467  23.992  12.019
 8503W        W80032  20.516  20.158   1.391
 8504W        W80033  27.620  34.528   2.177
 8505W        W80034  14.804   4.525  14.794
 8506W        W80035  42.405  14.097   4.604
 8507W        W80036  22.456  30.440  12.417
 8508W        W80037  43.550  16.635   1.082
 8509W        W80038  43.201  31.962  14.342
 8510W        W80039  18.340  17.353  14.272
 8511W        W80040   5.246  23.441  13.458
 8512W        W80041  16.076  36.299   1.688
 8513W        W80042   6.327  30.679   1.933
 8514W        W80043  24.580  41.027  12.449
 8515W        W80044  39.868  16.389  11.592
 8516W        W80045  27.597  29.719  11.151
 8517W        W80046  30.478  20.129  11.590
 8518W        W80047  36.616  10.225   4.740
 8519W        W80048  29.511   5.328  10.576
 8520W        W80049  43.865  13.687   2.686
 8521W        W80050  32.116  35.524  14.051
 8522W        W80051   4.042   7.348   4.330
 8523W        W80052  36.491  21.627   1.005
 8524W        W80053   4.010  30.520   2.800
 8525W        W80054  29.111   2.033   4.704
 8526W        W80055  28.235  24.173   3.946
 8527W        W80056   2.843  31.944  13.022
 8528W        W80057  42.790  28.204   1.430
 8529W        W80058  32.059   3.911   3.581
 8530W        W80059   7.975  39.199   5.322
 8531W        W80060  31.658   8.131   1.089
 8532W        W80061   2.341  30.430   4.253
 8533W        W80062  22.711  33.964   1.492
 8534W        W80063  14.019  38.836  13.430
 8535W        W80064  27.454  24.295  14.760
 8536W        W80065  18.220  44.189   4.097
 8537W        W80066  13.634  44.489  11.247
 8538W        W80067  31.188  20.589  10.768
 8539W        W80068  31.507   8.327   2.572
 8540W        W80069  35.199  44.716  14.335
 8541W        W80070  17.178  34.473  14.027
 8542W        W80071  23.526  22.771   4.640
 8543W        W80072  40.222  13.172  13.099
 8544W        W80073  31.501  31.913   2.158
 8545W        W80074  31.809  35.356   0.478
 8546W        W80075   0.997  31.043   4.366
 8547W        W80076  26.106  16.384   1.671
 8548W        W80077  33.978   8.276   1.421
 8549W        W80078  41.742  33.516   0.076
 8550W        W80079  28.068  30.370  13.296
 8551W        W80080  19.176  34.973  14.129
 8552W        W80081   8.749  36.915   4.149
 8553W        W80082   5.163  36.488   3.986
 8554W        W80083  20.597  40.759  12.984
 8555W        W80084  19.565   4.847  14.996
 8556W        W80085  19.662  36.453   4.657
 8557W        W80086   6.559   9.813   2.131
 8558W        W80087  30.580  12.445   4.990
 8559W        W80088  28.630  28.021  14.892
 8560W        W80089  35.960  15.703   9.974
 8561W        W80090   9.318  41.726   1.782
 8562W        W80091  17.717  19.439  12.315
 8563W        W80092   0.995  17.141   3.434
 8564W        W80093   5.359  27.141  12.494
 8565W        W80094   0.637  32.059   4.064
 8566W        W80095  43.083   5.849   0.579
 8567W        W80096  37.078  44.454   2.932
 8568W        W80097   4.377   0.382   2.737
 8569W        W80098  18.246  25.128  12.498
 8570W        W80099  38.621   7.964   4.065
 8571W        W80100  26.624  32.700  12.030
 8572W        W80101  16.671   8.626   3.060
 8573W        W80102  34.643  13.847   1.848
 8574W        W80103   8.698  44.941  11.652
 8575W        W80104   8.708  10.613   1.772
 8576W        W80105  41.828   0.552   0.807
 8577W        W80106  32.727   5.149  14.029
 8578W        W80107  25.620  31.988  11.492
 8579W        W80108  19.474  20.353   1.919
 8580W        W80109  21.167  27.245  11.451
 8581W        W80110  27.952  22.031  14.467
 8582W        W80111   0.771   1.263  13.966
 8583W        W80112  35.227  34.365  11.234
 8584W        W80113  37.285   1.075  13.478
 8585W        W80114  18.810  19.045  13.390
 8586W        W80115  39.425  27.075   4.084
 8587W        W80116  34.870  20.635   4.457
 8588W        W80117  38.708  33.747  11.673
 8589W        W80118  23.705  39.858  11.191
 8590W        W80119  34.127  25.768  11.650
 8591W        W80120  13.223  41.568  14.240
 8592W        W80121  23.839  16.291  12.084
 8593W        W80122  34.936  43.086   3.618
 8594W        W80123  26.011  23.700  11.599
 8595W        W80124  39.358  34.013   0.432
 8596W        W80125   7.765   2.929   3.287
 8597W        W80126  21.833  35.943   1.761
 8598W        W80127   1.972  41.358   3.691
 8599W        W80128   5.879  14.195  13.637
 8600W        W80129  37.500  39.474  12.956
 8601W        W80130  16.159  23.725  13.156
 8602W        W80131  35.843   6.794   1.898
 8603W        W80132  40.774  16.240   1.447
 8604W        W80133  37.994   7.583   3.112
 8605W        W80134  21.289  14.687   2.339
 8606W        W80135  37.615  20.848  11.447
 8607W        W80136  39.056  20.241  13.367
 8608W        W80137  29.646   1.967  11.613
 8609W        W80138  35.564  26.420   4.620
 8610W        W80139  20.549   9.201  13.222
 8611W        W80140  20.265  19.220  14.500
 8612W        W80141  28.384  32.529   0.507
 8613W        W80142  39.847  39.059  14.873
 8614W        W80143  16.427  24.875   0.937
 8615W        W80144  15.232  19.920  10.062
 8616W        W80145  29.405  27.750   3.247
 8617W        W80146  10.736   2.308  11.015
 8618W        W80147  38.456  26.957  13.821
 8619W        W80148   7.793  35.548  12.100
 8620W        W80149  36.619  15.138   3.880
 8621W        W80150   7.945  41.283  14.777
 8622W        W80151  39.352  39.329   2.412
 8623W        W80152  16.728  42.143   1.172
 8624W        W80153  42.064  18.044  12.671
 8625W        W80154  18.509  18.046   2.360
 8626W        W80155  36.812   5.686   4.972
 8627W        W80156  40.043  41.269  13.566
 8628W        W80157   9.156  25.195  10.515
 8629W        W80158  21.505  28.458   1.767
 8630W        W80159   1.621  42.524  11.987
 8631W        W80160  22.004   0.544   1.450
 8632W        W80161   4.290  40.852  13.824
 8633W        W80162  24.259  20.514   2.814
 8634W        W80163  35.380  10.691  11.001
 8635W        W80164  31.632  16.284   2.882
 8636W        W80165  35.181  32.944  14.832
 8637W        W80166  32.878  39.015   0.006
 8638W        W80167  31.437   9.964   3.657
 8639W        W80168  33.888  43.915   1.850
 8640W        W80169  31.858  34.435  10.805
 8641W        W80170   3.221  29.541  11.730
 8642W        W80171  41.276   7.991  11.992
 8643W        W80172  34.018   8.199  10.662
 8644W        W80173  27.977  42.839  14.752
 8645W        W80174  22.123   7.740   3.916
 8646W        W80175  23.849   6.372  13.109
 8647W        W80176   2.888   2.904  10.656
 8648W        W80177  26.213  20.677  13.484
 8649W        W80178   3.164  39.160   0.842
 8650W        W80179   2.742  10.274  12.119
 8651W        W80180  44.856  37.777  14.318
 8652W        W80181  34.561  25.078  14.770
 8653W        W80182  23.598  35.243  12.538
 8654W        W80183  40.946  43.036   0.045
 8655W        W80184   6.391   0.738   1.913
 8656W        W80185  25.229   0.486  10.749
 8657W        W80186  12.869  29.689  13.360
 8658W        W80187  23.162  15.301  14.095
 8659W        W80188  21.993  20.573  13.986
 8660W        W80189  31.657  30.750   4.443
 8661W        W80190  11.147  34.950  12.530
 8662W        W80191  13.836  15.642  13.431
 8663W        W80192   0.456  29.145   2.049
 8664W        W80193  19.830  19.323  12.564
 8665W        W80194  18.160  12.860  12.538
 8666W        W80195  19.203  17.498   1.624
 8667W        W80196   4.211  42.564  12.443
 8668W        W80197  40.482  21.455  11.141
 8669W        W80198  17.368   3.160   5.047
 8670W        W80199  10.257  22.176   0.863
 8671W        W80200  43.731   4.337  10.694
 8672W        W80201  30.974  19.548  10.637
 8673W        W80202  18.495   4.468  11.399
 8674W        W80203  15.638  32.051   5.121
 8675W        W80204  44.857  26.997   2.338
 8676W        W80205  10.168  17.833  12.302
 8677W        W80206  30.538  38.956  14.783
 8678W        W80207   4.611  19.502  11.145
 8679W        W80208   9.125  16.492  11.538
 8680W        W80209   8.333  34.870  10.704
 8681W        W80210   0.422  11.324   2.725
 8682W        W80211  26.041  41.893   4.431
 8683W        W80212  44.374   2.477  11.976
 8684W        W80213  41.996  24.148   4.022
 8685W        W80214  35.048   6.778   2.879
 8686W        W80215  32.437   7.229   2.618
 8687W        W80216  11.773  27.432  12.892
 8688W        W80217   7.466  14.314   3.164
 8689W        W80218  19.023  20.574   2.808
 8690W        W80219  14.315  36.882  10.703
 8691W        W80220  15.602  29.884  13.501
 8692W        W80221  40.453   1.680   4.321
 8693W        W80222  34.536  30.973   4.449
 8694W        W80223   3.489  34.151   1.217
 8695W        W80224  20.264  15.195   2.814
 8696W        W80225  18.091  36.831  14.410
 8697W        W80226   1.897  17.392   0.991
 8698W        W80227  19.489   1.338   3.942
 8699W        W80228  24.039  44.743  10.987
 8700W        W80229  39.032  43.773  12.427
 8701W        W80230  12.343  43.717  12.532
 8702W        W80231  14.293  15.711   2.087
 8703W        W80232   5.314   4.950   4.322
 8704W        W80233  20.067   4.603   1.236
 8705W        W80234   9.592  17.211  12.514
 8706W        W80235  39.628  41.864  13.010
 8707W        W80236  33.841  22.538   1.789
 8708W        W80237  40.980  13.083  12.198
 8709W        W80238  42.578  25.472  12.560
 8710W        W80239  37.030  30.444   2.276
 8711W        W80240  12.232   5.005   0.869
 8712W        W80241  17.562   3.770  14.832
 8713W        W80242  39.506  14.514   3.310
 8714W        W80243  38.726  20.115   2.291
 8715W        W80244   3.416   0.545  13.853
 8716W        W80245  11.284   1.983   4.612
 8717W        W80246   3.819  44.701   0.873
 8718W        W80247  12.757  18.804   2.226
 8719W        W80248  38.092  11.337  12.892
 8720W        W80249  21.261  14.116   4.843
 8721W        W80250  32.204   0.835   1.876
 8722W        W80251  37.448  18.679  13.150
 8723W        W80252   4.220   6.386   4.688
 8724W        W80253  14.903  28.396   1.662
 8725W        W80254  19.551  23.285  12.020
 8726W        W80255   8.686  35.394   4.046
 8727W        W80256  19.598  43.823   1.971
 8728W        W80257  36.020  35.965   2.679
 8729W        W80258  12.166   0.332   0.046
 8730W        W80259   2.429  14.086   4.088
 8731W        W80260  37.087  22.716  12.031
 8732W        W80261  20.630  43.639  13.958
 8733W        W80262   0.980  12.287   3.135
 8734W        W80263  36.948  18.457  10.706
 8735W        W80264  18.715  22.280  14.792
 8736W        W80265  14.395  13.756   3.548
 8737W        W80266  29.663   2.012   1.596
 8738W        W80267  22.105   2.333  13.741
 8739W        W80268  18.391  44.998   2.026
 8740W        W80269  37.050  30.198   0.841
 8741W        W80270   9.902  12.624   0.023
 8742W        W80271   4.848   3.460  11.983
 8743W        W80272  10.309  22.557   1.684
 8744W        W80273  16.873   7.194  11.624
 8745W        W80274   9.342  28.536  14.636
 8746W        W80275  10.486  10.041  11.012
 8747W        W80276  14.470  41.946  14.787
 8748W        W80277  16.759   1.432   1.956
 8749W        W80278  25.316   4.231   3.888
 8750W        W80279  26.529  40.407   1.819
 8751W        W80280  44.342  27.752   4.298
 8752W        W80281  39.524   3.024   3.729
 8753W        W80282   8.214  22.292   0.082
 8754W        W80283  38.842  19.644  13.310
 8755W        W80284  18.942  42.996  13.665
 8756W        W80285   4.992  23.696  10.626
 8757W        W80286  12.166  34.084   0.993
 8758W        W80287  36.044  28.972   4.614
 8759W        W80288   3.486   0.905   1.654
 8760W        W80289   1.449   2.839  14.771
 8761W        W80290  26.511  23.075  12.064
 8762W        W80291  27.074  29.838   1.894
 8763W        W80292  31.565  11.051   2.175
 8764W        W80293  28.088  43.207  10.385
 8765W        W80294  37.590  26.389   3.681
 8766W        W80295   5.193   6.269  13.008
 8767W        W80296   5.483  34.982   4.166
 8768W        W80297   9.875  40.304  14.859
 8769W        W80298   8.798  35.769  13.122
 8770W        W80299  31.996   6.977  12.472
 8771W        W80300   8.410   8.865  13.968
 8772W        W80301  43.437  39.511   0.368
 8773W        W80302  39.448  44.221   3.802
 8774W        W80303  13.321  10.218   3.612
 8775W        W80304  37.365  28.613  10.744
 8776W        W80305  13.732   4.274  13.888
 8777W        W80306  41.846  29.626  14.398
 8778W        W80307   5.005  33.192   0.875
 8779W        W80308  21.067  31.623  12.408
 8780W        W80309  42.909   7.743   1.353
 8781W        W80310  27.719  40.822  14.813
 8782W        W80311  44.999  11.033   2.690
 8783W        W80312   0.572  13.563  13.030
 8784W        W80313  21.593  15.352  13.709
 8785W        W80314  12.214  21.760   1.140
 8786W        W80315  43.958   8.429   3.726
 8787W        W80316  25.184  29.962   1.686
 8788W        W80317  42.828  12.593  13.006
 8789W        W80318  33.577  32.716  11.004
 8790W        W80319   7.101  43.718   1.909
 8791W        W80320  43.925  17.734   3.322
 8792W        W80321  25.422  13.340  14.791
 8793W        W80322  25.044  42.480  12.984
 8794W        W80323  41.694  21.880   4.119
 8795W        W80324  20.633  27.756   9.873
 8796W        W80325   7.654  21.027   1.901
 8797W        W80326  14.565  20.150  10.238
 8798W        W80327  37.273   5.597   0.234
 8799W        W80328   1.816  21.422   2.239
 8800W        W80329  19.438  24.970  13.523
 8801W        W80330  17.070  30.465  12.062
 8802W        W80331   6.092  15.384   1.664
 8803W        W80332  44.001  33.623  13.123
 8804W        W80333  38.582   1.274  14.797
 8805W        W80334  41.052  25.754   1.327
 8806W        W80335  16.824  27.718   3.164
 8807W        W80336  21.746  39.565   1.831
 8808W        W80337   1.893  40.271  13.540
 8809W        W80338  18.734  17.678   3.663
 8810W        W80339  21.134  28.060  10.749
 8811W        W80340  20.978  22.272  14.013
 8812W        W80341  38.519  14.072   4.096
 8813W        W80342  36.505  44.465  14.180
 8814W        W80343  22.446  38.221   4.201
 8815W        W80344  40.475  16.071   4.726
 8816W        W80345  15.195  39.239  11.435
 8817W        W80346   9.091  13.649  13.522
 8818W        W80347  17.087  17.916  11.809
 8819W        W80348  13.320  25.147   0.474
 8820W        W80349  42.308  21.656  14.992
 8821W        W80350  41.860   9.471  12.766
 8822W        W80351  27.452  32.847  11.603
 8823W        W80352  39.182  31.433  12.522
 8824W        W80353   6.745   1.195  14.068
 8825W        W80354  12.265  12.306  14.726
 8826W        W80355   8.919  41.585   1.471
 8827W        W80356  39.246  10.276  14.835
 8828W        W80357  16.211  17.265   4.230
 8829W        W80358  13.174  15.776  14.430
 8830W        W80359  21.474  26.586   1.878
 8831W        W80360   4.663  10.472   1.538
 8832W        W80361  35.324  13.651  10.602
 8833W        W80362   0.884  19.951  10.957
 8834W        W80363  19.794  13.530  13.374
 8835W        W80364  35.498  43.570   1.791
 8836W        W80365  23.460  43.487   1.241
 8837W        W80366  24.652  35.629   4.642
 8838W        W80367   5.646  23.540   4.312
 8839W        W80368  36.304  15.080   4.299
 8840W        W80369   6.957  28.406  14.357
 8841W        W80370  10.640   5.169  11.108
 8842W        W80371  42.939  38.060   1.852
 8843W        W80372  31.701   1.182  11.142
 8844W        W80373  31.081  25.838  11.110
 8845W        W80374  10.872  26.694  12.023
 8846W        W80375  33.569  24.564   1.811
 8847W        W80376  41.580   5.706   4.321
 8848W        W80377  38.524  41.533  11.422
 8849W        W80378  29.130  20.186  13.786
 8850W        W80379   3.749  34.398   0.817
 8851W        W80380   1.308  19.345   4.126
 8852W        W80381  22.267  30.934  12.572
 8853W        W80382  37.564   9.722  11.035
 8854W        W80383   4.907   2.023  14.814
 8855W        W80384   2.094  25.052  13.055
 8856W        W80385  11.174  30.467  10.728
 8857W        W80386  37.349  33.371   1.731
 8858W        W80387   0.109  26.508   2.288
 8859W        W80388  33.620   9.686   0.802
 8860W        W80389   7.763  27.725   1.651
 8861W        W80390  17.314  11.301  12.853
 8862W        W80391  36.887  31.410   1.262
 8863W        W80392   7.357  10.592  12.967
 8864W        W80393  13.088   1.513   4.042
 8865W        W80394   8.824   6.452  13.486
 8866W        W80395  28.693   2.217   1.623
 8867W        W80396  37.941  18.281   2.880
 8868W        W80397  36.565  40.954  14.852
 8869W        W80398  19.137  19.078  12.015
 8870W        W80399  25.680  12.179   4.588
 8871W        W80400  26.528  34.826   3.233
 8872W        W80401  30.098  35.326   0.859
 8873W        W80402  16.694  18.741  12.105
 8874W        W80403  17.707  16.013   2.411
 8875W        W80404  29.950  37.465   1.855
 8876W        W80405   5.978   4.884   1.205
 8877W        W80406  38.592  14.838   4.750
 8878W        W80407  37.136  12.861   3.266
 8879W        W80408  20.139  18.647  13.333
 8880W        W80409  21.533  27.876  11.046
 8881W        W80410  32.423   3.650  14.308
 8882W        W80411   7.766  18.541   3.289
 8883W        W80412  16.129  38.936  14.483
 8884W        W80413  22.481  42.312   4.448
 8885W        W80414  30.675   8.295   2.757
 8886W        W80415  10.405   0.145  14.177
 8887W        W80416  14.273  17.274  12.408
 8888W        W80417  17.660  10.147   4.078
 8889W        W80418   5.649  34.126   1.732
 8890W        W80419   5.665  35.943  11.698
 8891W        W80420  22.276  16.636   3.654
 8892W        W80421  43.193  17.576   0.437
 8893W        W80422   3.358  38.233  14.526
 8894W        W80423  36.719   8.722  14.412
 8895W        W80424  31.994  32.915   4.572
 8896W        W80425  32.019   7.244  12.920
 8897W        W80426  30.074  16.605   3.232
 8898W        W80427  14.057  21.671   1.802
 8899W        W80428  22.184  42.410   3.215
 8900W        W80429  19.043  40.670  12.737
 8901W        W80430  29.408  10.790  13.810
 8902W        W80431   2.099   6.801  11.809
 8903W        W80432  14.726  35.674  14.368
 8904W        W80433  32.887  22.381   0.834
 8905W        W80434  44.319  33.521   0.459
 8906W        W80435  43.178   3.561   4.642
 8907W        W80436   1.743  10.738  11.888
 8908W        W80437  29.514  17.793   2.321
 8909W        W80438  23.493  10.044  11.716
 8910W        W80439  38.352  34.846   4.919
 8911W        W80440   8.350   5.338   4.926
 8912W        W80441  18.747  43.714   0.511
 8913W        W80442  35.345  26.948   0.331
 8914W        W80443  23.553   2.905  14.285
 8915W        W80444  25.399   7.562   3.156
 8916W        W80445  10.526  11.003  11.132
 8917W        W80446  13.151  31.377   2.367
 8918W        W80447   6.392  40.619   0.243
 8919W        W80448  41.515  39.349  12.583
 8920W        W80449  26.133  16.197   2.170
 8921W        W80450  20.075  40.269   2.476
 8922W        W80451   2.097  10.634   2.187
 8923W        W80452  26.999  15.924   2.212
 8924W        W80453   3.402  36.055  14.070
 8925W        W80454  21.498  40.056   3.633
 8926W        W80455   8.674   2.197  12.073
 8927W        W80456  31.882  15.075   3.169
 8928W        W80457  20.744  43.731  11.971
 8929W        W80458   9.420   1.428  10.563
 8930W        W80459  23.600  20.095  12.808
 8931W        W80460   6.782  38.536   0.322
 8932W        W80461  28.397  36.382  14.726
 8933W        W80462  16.830  34.423  12.424
 8934W        W80463  28.436   6.909  14.433
 8935W        W80464  42.861  40.589   4.096
 8936W        W80465  25.008  34.923  12.560
 8937W        W80466  13.297  13.342   2.713
 8938W        W80467  14.532  29.670  10.635
 8939W        W80468  14.658   0.224   0.343
 8940W        W80469   1.098   2.745  11.774
 8941W        W80470   8.771  33.947   3.693
 8942W        W80471   1.026  12.690  10.678
 8943W        W80472  13.203  31.536   1.047
 8944W        W80473  42.227  32.446  14.150
 8945W        W80474  18.626  31.885  12.145
 8946W        W80475  21.331   7.133  13.861
 8947W        W80476   2.286  12.769  12.711
 8948W        W80477  43.351  42.936   2.650
 8949W        W80478  16.700  39.114  14.314
 8950W        W80479   7.885  26.056  13.502
 8951W        W80480  26.454  30.407  14.284
 8952W        W80481  11.557  35.831  13.468
 8953W        W80482  17.937  38.658  11.430
 8954W        W80483  11.072  44.702   1.372
 8955W        W80484  13.771  34.536  14.747
 8956W        W80485  19.636  29.535  13.266
 8957W        W80486   8.930  22.485   4.132
 8958W        W80487  32.581   0.392  10.178
 8959W        W80488  18.570  40.568   3.367
 8960W        W80489  14.574  38.918   0.207
 8961W        W80490   5.324   1.437   1.932
 8962W        W80491  40.273  36.658  11.126
 8963W        W80492  37.801  22.770  12.601
 8964W        W80493  21.209  41.452  14.574
 8965W        W80494  17.230   9.862  10.564
 8966W        W80495  40.498  24.291  14.943
 8967W        W80496  27.778  21.537   4.416
 8968W        W80497  42.983  15.269  11.170
 8969W        W80498  36.202  43.978   2.629
 8970W        W80499  24.314  30.543   1.736
 8971W        W80500  13.133   6.359   2.234
 8972W        W80501   0.465  23.272   1.268
 8973W        W80502  18.089  19.615  14.118
 8974W        W80503   0.914  25.656  10.414
 8975W        W80504   4.399  38.068   2.519
 8976W        W80505  21.239  26.210  11.235
 8977W        W80506   6.476  39.146  10.899
 8978W        W80507  30.053  17.646  11.164
 8979W        W80508  44.273  41.729   4.959
 8980W        W80509  44.316  36.946   0.865
 8981W        W80510  35.599  12.991  13.450
 8982W        W80511  33.493  17.516   3.278
 8983W        W80512  43.083  19.725  10.765
 8984W        W80513  42.762   4.516   4.573
 8985W        W80514  42.793  11.127  12.402
 8986W        W80515  42.915  29.635  12.452
 8987W        W80516  27.459  38.140   1.717
 8988W        W80517  42.881  42.083   0.825
 8989W        W80518  27.600  28.645  14.394
 8990W        W80519  40.138  43.024   4.333
 8991W        W80520  23.109  14.109  13.016
 8992W        W80521   2.299  33.409  12.572
 8993W        W80522  29.005  17.859  14.969
 8994W        W80523  16.178  33.058   1.680
 8995W        W80524   4.212  32.923  14.490
 8996W        W80525   2.981  41.463   1.539
 8997W        W80526   2.460  13.845   3.589
 8998W        W80527   4.169  44.174  13.185
 8999W        W80528  34.909   8.865  10.720
 9000W        W80529   8.369  16.619  14.806
 9001W        W80530  22.247  43.820   3.694
 9002W        W80531  29.045   7.475  11.620
 9003W        W80532   5.258  15.763  14.381
 9004W        W80533  41.349  31.388  13.105
 9005W        W80534  32.958  16.083  13.482
 9006W        W80535  22.665  43.742   1.957
 9007W        W80536   0.903   0.750  14.849
 9008W        W80537  42.010  31.407  11.176
 9009W        W80538   3.848   8.815   5.012
 9010W        W80539   8.935  14.539   2.553
 9011W        W80540  41.367  26.915  13.015
 9012W        W80541  34.192   4.255  10.357
 9013W        W80542   9.942   4.527  13.817
 9014W        W80543  37.909  41.934  14.371
 9015W        W80544  39.959  26.434  14.234
 9016W        W80545  38.502  41.332   3.276
 9017W        W80546  17.995  42.837   4.360
 9018W        W80547  10.857  40.575   4.786
 9019W        W80548  14.291  16.552   1.704
 9020W        W80549  17.839  10.403   4.497
 9021W        W80550  12.333  35.364   0.310
 9022W        W80551   9.277  39.380   0.700
 9023W        W80552  29.428  32.475  11.576
 9024W        W80553  40.510  11.819  13.334
 9025W        W80554  41.854  19.739  14.372
 9026W        W80555  38.304  43.094  10.337
 9027W        W80556   5.535  21.481   5.049
 9028W        W80557  21.084  20.486  11.901
 9029W        W80558  16.678  36.046   2.736
 9030W        W80559  35.539  27.111  10.652
 9031W        W80560  34.293  25.747  13.507
 9032W        W80561   6.633  32.866  14.316
 9033W        W80562   4.697  14.679   2.565
 9034W        W80563  12.910   5.617  10.361
 9035W        W80564  31.520  38.950  10.680
 9036W        W80565  26.802  12.249  14.795
 9037W        W80566  14.401  34.900   1.920
 9038W        W80567  23.007   0.874   3.416
 9039W        W80568  17.736  30.011  12.312
 9040W        W80569   6.982   9.707  12.190
 9041W        W80570  26.581  10.756   1.971
 9042W        W80571  21.997  19.832   4.809
 9043W        W80572   7.497  42.292  14.015
 9044W        W80573   8.696  29.481   1.584
 9045W        W80574  22.177  44.313   3.437
 9046W        W80575  32.673   9.365  10.658
 9047W        W80576  20.308  35.968   1.838
 9048W        W80577  36.482  39.733  14.753
 9049W        W80578  16.510   6.157   3.561
 9050W        W80579  14.755  20.172   0.737
 9051W        W80580   8.726  22.374  11.475
 9052W        W80581   0.883  10.111  10.208
 9053W        W80582  28.035   6.335  10.053
 9054W        W80583  26.060  32.440   2.774
 9055W        W80584  14.674   4.393  10.402
 9056W        W80585  15.812  24.208   0.280
 9057W        W80586  13.695  16.553  10.697
 9058W        W80587  40.850  30.255  13.469
 9059W        W80588  10.744  24.529   3.607
 9060W        W80589  39.006  20.652  10.199
 9061W        W80590  29.187   1.507  10.911
 9062W        W80591  23.270   8.254  11.550
 9063W        W80592  23.685  35.414   3.878
 9064W        W80593  20.988   1.883   1.600
 9065W        W80594  41.066  43.073  11.091
 9066W        W80595  42.109  14.918  14.246
 9067W        W80596  33.897  39.787   2.250
 9068W        W80597  10.530  23.020   3.397
 9069W        W80598  36.425  16.628   4.855
 9070W        W80599  31.187  37.969  14.269
 9071W        W80600   1.380  36.025  13.861
 9072W        W80601  30.753  19.209  11.875
 9073W        W80602  18.626  18.288   2.821
 9074W        W80603   7.666  11.092   3.795
 9075W        W80604   6.613  31.618   0.384
 9076W        W80605   8.066   8.552   3.116
 9077W        W80606  39.572  34.485   2.299
 9078W        W80607  15.817  10.854  10.478
 9079W        W80608  10.444  33.121   4.154
 9080W        W80609  35.806  12.216  14.009
 9081W        W80610  10.487  37.483   0.817
 9082W        W80611  14.287   3.774   4.176
 9083W        W80612  31.177  30.057  13.600
 9084W        W80613  30.960   5.257  14.037
 9085W        W80614  26.123  25.930  14.737
 9086W        W80615  28.480   6.773   1.475
 9087W        W80616  36.377  40.266   2.750
 9088W        W80617  41.494  16.525  14.631
 9089W        W80618  16.798  43.211  12.469
 9090W        W80619  17.645  40.797   1.876
 9091W        W80620   2.837   2.084   1.841
 9092W        W80621  16.673   7.596  10.391
 9093W        W80622  27.556  33.172  11.218
 9094W        W80623  29.535  22.959  14.293
 9095W        W80624   3.790  27.716  11.674
 9096W        W80625  39.068  25.903  12.532
 9097W        W80626  37.264  29.656  13.893
 9098W        W80627  29.655  33.575  11.123
 9099W        W80628  17.250  14.820  11.646
 9100W        W80629  36.525  28.562  13.506
 9101W        W80630  34.025  13.493  11.821
 9102W        W80631   2.013  18.048  12.921
 9103W        W80632   6.543   0.302  12.963
 9104W        W80633  26.102  14.554   1.268
 9105W        W80634  38.434  41.519  10.410
 9106W        W80635  11.378   8.789  12.982
 9107W        W80636  34.853  22.560  10.682
 9108W        W80637  26.200  15.064   1.317
 9109W        W80638  26.441  25.494  11.507
 9110W        W80639  41.083   9.265   1.469
 9111W        W80640  29.547  12.857  14.976
 9112W        W80641   2.430  14.369   3.651
 9113W        W80642  27.235  37.273   1.380
 9114W        W80643  19.921  17.791  11.553
 9115W        W80644  17.883  37.245  11.663
 9116W        W80645   9.151  30.518  10.843
 9117W        W80646  41.282  10.659   4.130
 9118W        W80647  41.463  39.419  13.469
 9119W        W80648  40.407   6.186  14.811
 9120W        W80649  43.821   2.445   4.603
 9121W        W80650  20.217   4.903   3.806
 9122W        W80651  31.173  42.512   2.163
 9123W        W80652   0.927  12.655  12.507
 9124W        W80653  18.258  31.039  11.190
 9125W        W80654  23.511  30.199  11.125
 9126W        W80655  28.716   7.231   2.952
 9127W        W80656  21.534  22.145  13.995
 9128W        W80657   7.961  28.639  14.548
 9129W        W80658  42.293  36.450  11.247
 9130W        W80659  34.821  33.358  11.086
 9131W        W80660   7.273  30.183   1.850
 9132W        W80661  42.971  34.730  13.032
 9133W        W80662   5.568   3.897   3.275
 9134W        W80663  38.981  21.165   0.777
 9135W        W80664  21.869   9.421   2.418
 9136W        W80665   9.479  30.152  14.628
 9137W        W80666  29.896  17.141   1.113
 9138W        W80667  41.122  10.734   2.125
 9139W        W80668  14.629   1.236   4.224
 9140W        W80669   7.504  43.386   1.970
 9141W        W80670  26.151  28.617   1.314
 9142W        W80671  39.615   5.882   0.298
 9143W        W80672   8.375  19.151   2.141
 9144W        W80673  25.675  22.525   4.522
 9145W        W80674   3.877  15.632  13.961
 9146W        W80675  26.278  15.509  14.157
 9147W        W80676  35.854   9.634  12.417
 9148W        W80677   7.810  37.214  12.955
 9149W        W80678  21.633  36.559  14.920
 9150W        W80679  13.603  29.186  13.730
 9151W        W80680   3.425  16.610  12.011
 9152W        W80681   7.921  25.651   2.210
 9153W        W80682   2.831  19.698   1.832
 9154W        W80683  17.641  34.109   0.073
 9155W        W80684  27.640  36.339   3.347
 9156W        W80685  27.567  22.454  13.603
 9157W        W80686  40.370  26.363  10.692
 9158W        W80687  37.961  13.603   3.731
 9159W        W80688  35.101  23.768   1.855
 9160W        W80689  37.410  28.792  14.016
 9161W        W80690  22.708  42.305  14.481
 9162W        W80691   9.460  34.455  13.116
 9163W        W80692   4.617   8.858   2.608
 9164W        W80693  35.283  19.318  11.121
 9165W        W80694  28.681   5.847  10.826
 9166W        W80695  13.308  36.623  11.593
 9167W        W80696  23.988  11.869  10.323
 9168W        W80697  26.736   5.711   0.786
 9169W        W80698  44.755   1.563   1.602
 9170W        W80699   2.444  38.754  13.446
 9171W        W80700   1.961  11.870  12.084
 9172W        W80701   8.307  20.752   4.909
 9173W        W80702  32.429  12.208  12.721
 9174W        W80703  37.135  43.052   0.734
 9175W        W80704  11.177  17.326   0.362
 9176W        W80705   7.371   2.871   3.724
 9177W        W80706  14.606   9.896  14.714
 9178W        W80707  42.331  18.451   0.927
 9179W        W80708  35.846  36.441  11.228
 9180W        W80709   4.456  34.554  10.755
 9181W        W80710  36.111  22.958   3.648
 9182W        W80711  41.536   9.855  12.092
 9183W        W80712  19.764   4.406   0.771
 9184W        W80713   8.904   2.012   1.433
 9185W        W80714  44.267  22.803   3.203
 9186W        W80715  21.720  17.602  11.739
 9187W        W80716  26.715  17.694  11.140
 9188W        W80717   8.902  41.833  12.997
 9189W        W80718  33.730  32.960  12.361
 9190W        W80719   2.659  36.357   0.737
 9191W        W80720  28.989   1.106   3.627
 9192W        W80721  21.212  38.383   3.561
 9193W        W80722  32.147   5.894  13.267
 9194W        W80723  16.431   9.730   1.117
 9195W        W80724   5.892  19.313   1.249
 9196W        W80725  10.704  32.932  12.878
 9197W        W80726  42.445   1.646  10.689
 9198W        W80727  35.407  42.850   3.630
 9199W        W80728  27.464  20.303  14.832
 9200W        W80729  13.174   3.101   2.618
 9201W        W80730   8.921   2.073   3.901
 9202W        W80731  33.487  29.926  11.209
 9203W        W80732  31.872  37.583  11.781
 9204W        W80733  11.055  22.010   3.777
 9205W        W80734   1.410  24.293   0.457
 9206W        W80735  31.239  27.159  14.330
 9207W        W80736  35.553  41.019  12.064
 9208W        W80737  13.309   3.918  14.482
 9209W        W80738  27.163  37.071   3.848
 9210W        W80739  29.959  13.109  12.049
 9211W        W80740  22.390  21.517   3.252
 9212W        W80741   1.307   1.559   2.540
 9213W        W80742   2.012   8.848   3.095
 9214W        W80743  19.762   3.435  11.168
 9215W        W80744   7.657  30.147   2.217
 9216W        W80745  31.550  37.198   0.053
 9217W        W80746  23.756  38.885   1.371
 9218W        W80747  29.408  28.517   3.643
 9219W        W80748   8.120  33.039   3.809
 9220W        W80749  22.383  21.582  13.380
 9221W        W80750   9.228  29.732   4.884
 9222W        W80751  13.079   7.633  12.129
 9223W        W80752  25.568  11.865  11.585
 9224W        W80753  17.660  40.438  11.548
 9225W        W80754   0.193  40.490   4.742
 9226W        W80755  15.773  22.495   2.643
 9227W        W80756   2.970  15.066  11.748
 9228W        W80757  35.854  35.279  13.623
 9229W        W80758   6.794  44.814   1.670
 9230W        W80759   6.250  24.723   1.571
 9231W        W80760  23.084  41.817  12.144
 9232W        W80761   0.281   1.118  13.563
 9233W        W80762   7.000  19.436   3.637
 9234W        W80763   1.953   0.267  14.580
 9235W        W80764  13.680  23.192   1.871
 9236W        W80765  26.738  38.654  13.306
 9237W        W80766  34.501  36.439   3.205
 9238W        W80767  12.560  35.051   0.840
 9239W        W80768   7.661  41.524  13.558
 9240W        W80769  16.240  35.392  13.464
 9241W        W80770  41.009  37.992  13.360
 9242W        W80771  15.977  14.182  14.499
 9243W        W80772  29.050  15.711   3.649
 9244W        W80773  39.004  35.942   3.768
 9245W        W80774  36.806  24.079  11.593
 9246W        W80775  27.111  31.661   0.866
 9247W        W80776   7.801  36.195   1.623
 9248W        W80777  17.774  10.023  14.985
 9249W        W80778  22.443   4.895  13.892
 9250W        W80779  20.582  24.279  12.023
 9251W        W80780  29.305   1.914   0.006
 9252W        W80781  15.220   6.002   2.568
 9253W        W80782  29.946  32.551   0.506
 9254W        W80783  32.590  43.025  12.836
 9255W        W80784  44.297  13.238  14.417
 9256W        W80785  17.104  44.097   2.899
 9257W        W80786  29.253  20.687  14.030
 9258W        W80787  38.421  32.613   1.675
 9259W        W80788  35.277  38.460   0.733
 9260W        W80789  16.654  37.150   2.720
 9261W        W80790  23.005  42.278   1.216
 9262W        W80791  18.644  27.438   5.239
 9263W        W80792   1.507  42.388  14.969
 9264W        W80793  18.540   3.164   5.044
 9265W        W80794  30.481   6.681   0.296
 9266W        W80795  22.534  40.926  14.963
 9267W        W80796   4.807   0.225  14.436
 9268W        W80797  43.321  42.951  12.087
 9269W        W80798   1.758  18.060  12.465
 9270W        W80799  18.994   5.814  11.224
 9271W        W80800   3.733  25.539  11.710
 9272W        W80801   7.485  22.351   4.535
 9273W        W80802  31.933   3.921  10.790
 9274W        W80803  30.968  22.114  12.862
 9275W        W80804  16.808  18.079  10.409
 9276W        W80805  10.809  16.725  13.828
 9277W        W80806  32.965  10.841   3.116
 9278W        W80807  30.688  24.552  11.005
 9279W        W80808  18.797  32.522  12.329
 9280W        W80809  42.878  23.274   2.444
 9281W        W80810  31.086  32.602   2.760
 9282W        W80811  21.588  44.419   0.912
 9283W        W80812  26.412  43.821  11.617
 9284W        W80813   8.422  36.505   3.712
 9285W        W80814  41.157  11.672  14.868
 9286W        W80815   1.355  12.898  12.652
 9287W        W80816  20.272   7.231  11.302
 9288W        W80817  12.370   7.192  14.946
 9289W        W80818  16.768  41.550  10.641
 9290W        W80819  25.719  13.217   1.880
 9291W        W80820  12.773  44.724   1.162
 9292W        W80821   4.249  15.573  14.452
 9293W        W80822  32.939  15.527  13.550
 9294W        W80823   7.811  32.797   1.481
 9295W        W80824   8.700  38.970   4.579
 9296W        W80825  10.174  31.081   4.154
 9297W        W80826  24.112   0.393  11.925
 9298W        W80827   4.645   9.592  13.630
 9299W        W80828  33.268   2.651   1.858
 9300W        W80829  33.791  33.423   4.712
 9301W        W80830  22.711   6.287   3.648
 9302W        W80831  27.564  13.314  12.557
 9303W        W80832  35.118  33.652  12.505
 9304W        W80833  31.543  22.901  14.456
 9305W        W80834  26.580   3.534  10.469
 9306W        W80835  14.697  26.453   2.759
 9307W        W80836   8.747   7.239  11.623
 9308W        W80837  35.386  40.044  12.469
 9309W        W80838  43.528   1.211   2.186
 9310W        W80839   5.218  32.110   0.756
 9311W        W80840  35.991   8.232   1.129
 9312W        W80841  30.134   1.820   1.307
 9313W        W80842  35.588  33.982   1.414
 9314W        W80843  32.065   7.988  12.374
 9315W        W80844  14.372  29.490   2.815
 9316W        W80845  28.790  17.079   4.426
 9317W        W80846  27.854  32.656   4.068
 9318W        W80847  35.418  39.451   0.042
 9319W        W80848  10.821   8.020   3.090
 9320W        W80849  27.027   4.012   4.197
 9321W        W80850   1.678  35.777  10.874
 9322W        W80851   4.571  35.023  11.830
 9323W        W80852  33.982  10.488   9.978
 9324W        W80853  16.552  16.846  12.452
 9325W        W80854  20.956  27.773  11.622
 9326W        W80855  43.417   8.823   0.907
 9327W        W80856  28.554  19.617  13.043
 9328W        W80857  40.086  13.619  14.312
 9329W        W80858   0.002  36.787  14.540
 9330W        W80859   5.672   6.059  13.286
 9331W        W80860  15.447  17.168   0.928
 9332W        W80861  31.090  24.689  14.032
 9333W        W80862  35.810  37.025  12.146
 9334W        W80863  22.566  29.085  13.517
 9335W        W80864   5.393  34.422  12.920
 9336W        W80865  43.355   2.695   2.780
 9337W        W80866  16.621  16.193  13.007
 9338W        W80867  17.628  25.706   1.666
 9339W        W80868  43.318  27.647  12.472
 9340W        W80869  27.696  11.426   1.315
 9341W        W80870  15.921  44.915   4.547
 9342W        W80871  39.087  11.597   0.604
 9343W        W80872   0.983  25.278  11.516
 9344W        W80873  29.874  23.628  13.377
 9345W        W80874  19.849  28.468   4.289
 9346W        W80875   1.546  31.583   1.899
 9347W        W80876  21.886  38.340   2.373
 9348W        W80877   2.235  25.936  13.027
 9349W        W80878  42.938  28.572   0.207
 9350W        W80879  27.387  10.183   4.711
 9351W        W80880  36.579  39.237   4.728
 9352W        W80881  37.182  37.001   2.870
 9353W        W80882  44.352  19.862  10.771
 9354W        W80883   1.632  11.352   3.843
 9355W        W80884  42.441  24.001  14.061
 9356W        W80885  35.416   9.663   2.744
 9357W        W80886  40.769  44.491   0.548
 9358W        W80887  30.372  32.347   4.273
 9359W        W80888  38.089  19.977  12.182
 9360W        W80889  18.061   3.776   2.632
 9361W        W80890  15.041  23.072   4.142
 9362W        W80891  17.272  29.923   3.665
 9363W        W80892  23.328  42.360  13.424
 9364W        W80893  43.338  16.676   0.164
 9365W        W80894  11.746  39.587   0.312
 9366W        W80895   5.674  18.825   1.215
 9367W        W80896  24.325  40.575  12.502
 9368W        W80897  28.007   1.955  10.487
 9369W        W80898  43.893  30.007   1.687
 9370W        W80899  37.315  24.817  11.470
 9371W        W80900  40.573  10.839  13.504
 9372W        W80901  43.107  39.552  14.947
 9373W        W80902  43.356  29.875   1.527
 9374W        W80903  38.525  23.243  13.527
 9375W        W80904  18.451  28.112  13.516
 9376W        W80905  32.906  37.173   0.846
 9377W        W80906  27.291  39.094   0.904
 9378W        W80907  31.445  40.020   0.252
 9379W        W80908  15.014   3.080   5.044
 9380W        W80909  20.488  23.511  14.052
 9381W        W80910  31.381  28.755   1.818
 9382W        W80911  35.053  40.984   2.251
 9383W        W80912  24.208  31.180  11.154
 9384W        W80913   8.647  24.574  12.399
 9385W        W80914  40.805  40.723   3.258
 9386W        W80915  40.342  36.789   2.757
 9387W        W80916  40.479  20.085  13.023
 9388W        W80917   5.821  32.240   0.090
 9389W        W80918  11.383  15.742  13.885
 9390W        W80919  37.517   9.209   1.840
 9391W        W80920  34.009   6.196   4.311
 9392W        W80921  23.119  10.709  14.270
 9393W        W80922  44.350   4.934   4.885
 9394W        W80923  28.406  37.732  11.119
 9395W        W80924   2.934  24.603   0.346
 9396W        W80925  40.545  26.384   0.870
 9397W        W80926   9.764   6.188  13.493
 9398W        W80927  26.554   2.650  12.567
 9399W        W80928  38.860   0.736   1.407
 9400W        W80929   4.314  22.091  12.470
 9401W        W80930  41.063  33.074   3.792
 9402W        W80931   9.850  29.568   2.161
 9403W        W80932  33.403   8.898  10.706
 9404W        W80933  23.197  35.428   3.703
 9405W        W80934  26.049  42.175   2.714
 9406W        W80935  18.998  23.639   0.707
 9407W        W80936  26.877  20.950   1.283
 9408W        W80937  42.877  24.260   0.343
 9409W        W80938  16.947  11.813  13.509
 9410W        W80939  28.248  12.760   4.047
 9411W        W80940   0.940  20.033   1.362
 9412W        W80941  12.828  30.588  12.623
 9413W        W80942   6.937  20.695   0.525
 9414W        W80943   2.344  25.053   4.612
 9415W        W80944  38.288  34.601   1.769
 9416W        W80945   3.099  25.568  14.778
 9417W        W80946  24.568  41.026  13.372
 9418W        W80947  17.226   0.937   1.353
 9419W        W80948  14.095   3.804  14.932
 9420W        W80949  37.065  25.180  12.456
 9421W        W80950  36.539  41.165   2.816
 9422W        W80951  21.256  24.913  13.459
 9423W        W80952   7.965   2.173   1.269
 9424W        W80953   3.567  18.642   4.281
 9425W        W80954  13.164  23.322  11.160
 9426W        W80955  36.737  13.557  14.137
 9427W        W80956   7.451  36.058   0.990
 9428W        W80957  20.389  11.809   1.707
 9429W        W80958   4.711  12.711   3.112
 9430W        W80959  14.320  15.529  12.261
 9431W        W80960   8.342   6.682  11.053
 9432W        W80961  41.638  23.978   0.062
 9433W        W80962  14.327  38.122  12.535
 9434W        W80963  26.593   8.408   3.686
 9435W        W80964  16.256  41.600  12.724
 9436W        W80965   5.017  41.378  14.009
 9437W        W80966  33.631  41.315   1.629
 9438W        W80967  21.015  30.578   1.684
 9439W        W80968  29.011  38.328   2.228
 9440W        W80969  30.573  16.322  13.454
 9441W        W80970   6.465  42.305  12.175
 9442W        W80971  22.717  28.335  13.609
 9443W        W80972  21.120  29.077   4.306
 9444W        W80973   2.010  40.961   5.006
 9445W        W80974  26.211  40.455   2.266
 9446W        W80975   8.370   9.318   3.989
 9447W        W80976  25.146  34.076   4.254
 9448W        W80977  37.239  13.486  14.155
 9449W        W80978  31.176  18.220  11.578
 9450W        W80979  40.306  34.196  11.577
 9451W        W80980  23.000  16.919  10.733
 9452W        W80981   4.261  38.789  14.425
 9453W        W80982  21.238  44.787   0.835
 9454W        W80983  35.005  35.868  10.947
 9455W        W80984  17.511  23.153   1.347
 9456W        W80985  29.901  23.576   1.847
 9457W        W80986  32.785  23.442   0.914
 9458W        W80987   7.129   8.370  13.961
 9459W        W80988  27.261  33.175   3.673
 9460W        W80989  40.933  17.588   4.249
 9461W        W80990  31.999  42.754   2.705
 9462W        W80991  30.577  18.729  12.995
 9463W        W80992  43.252  33.548  14.038
 9464W        W80993  28.533  29.343   1.305
 9465W        W80994  14.362  37.607  12.407
 9466W        W80995  16.760  28.000  10.417
 9467W        W80996  39.544  42.514  14.095
 9468W        W80997   6.401  20.572   3.168
 9469W        W80998  43.475  18.864  12.657
 9470W        W80999  30.094  34.859   1.737
 9471W        W81000  20.147  20.262   3.455
 9472W        W81001  10.776  21.575  14.303
 9473W        W81002  35.524   8.604  11.755
 9474W        W81003   2.451  12.965  14.090
 9475W        W81004  16.893  16.726   4.580
 9476W        W81005  39.282   7.094   0.250
 9477W        W81006  43.616  29.066   2.319
 9478W        W81007  19.651   9.047   2.998
 9479W        W81008   2.756  29.027   2.108
 9480W        W81009  28.587  42.201   1.691
 9481W        W81010  24.521  40.741  13.814
 9482W        W81011   0.807  18.472  14.421
 9483W        W81012  44.807  12.623   2.800
 9484W        W81013  24.231  33.093  14.411
 9485W        W81014  41.296  12.142  11.083
 9486W        W81015  36.781  39.877  11.048
 9487W        W81016   8.979  27.645  13.406
 9488W        W81017  27.147  21.083   3.895
 9489W        W81018  31.904   4.217  12.759
 9490W        W81019  15.242  27.456  14.881
 9491W        W81020  23.059   1.970  10.680
 9492W        W81021  35.479  43.861   4.755
 9493W        W81022  20.627  16.627   4.701
 9494W        W81023   0.328   6.336  12.723
 9495W        W81024   9.471  18.611   1.638
 9496W        W81025  35.999  16.740   4.562
 9497W        W81026  42.471  24.665   1.028
 9498W        W81027  16.359  12.720   2.182
 9499W        W81028  35.287   6.829  11.160
 9500W        W81029  21.511  40.999  13.853
 9501W        W81030   4.525  25.682   1.720
 9502W        W81031  26.573   5.794  14.842
 9503W        W81032  15.167  25.634   3.216
 9504W        W81033  18.094  42.487  12.552
 9505W        W81034   8.750   8.620   1.981
 9506W        W81035  41.250  10.269  12.274
 9507W        W81036  20.470  23.563   1.381
 9508W        W81037  11.656  29.537  11.532
 9509W        W81038  10.820  40.471   4.178
 9510W        W81039  24.130  14.537  11.983
 9511W        W81040  15.062  24.042   0.875
 9512W        W81041  32.920  35.502   4.266
 9513W        W81042  39.837  19.658   3.565
 9514W        W81043   8.531  31.295   0.416
 9515W        W81044  31.325  33.879   3.365
 9516W        W81045  32.080  23.138  14.399
 9517W        W81046  16.205   4.189  11.260
 9518W        W81047  40.590  18.726  14.703
 9519W        W81048  21.175   8.611   4.217
 9520W        W81049  40.351  28.812   1.242
 9521W        W81050  34.493   7.383  13.938
 9522W        W81051  11.589   7.217   3.556
 9523W        W81052  24.329  26.522  11.590
 9524W        W81053  20.544   6.290   0.927
 9525W        W81054  14.230  41.501  14.051
 9526W        W81055  10.746   3.372  10.115
 9527W        W81056  37.503  42.194  11.481
 9528W        W81057   5.438   0.081   1.693
 9529W        W81058   3.513  37.369   2.443
 9530W        W81059   8.860  21.189  12.094
 9531W        W81060   9.902  28.984   4.682
 9532W        W81061  11.346  37.728   2.665
 9533W        W81062  13.614   7.904  12.368
 9534W        W81063  35.060  25.171  11.162
 9535W        W81064  15.670  44.985   0.919
 9536W        W81065  19.703   5.946   3.094
 9537W        W81066   0.877  41.563  10.444
 9538W        W81067   1.512  32.351   3.031
 9539W        W81068  35.994  25.581   3.738
 9540W        W81069  39.808  11.662  12.659
 9541W        W81070  44.079  34.895  11.990
 9542W        W81071  30.381   8.702   1.238
 9543W        W81072  12.328   1.435  12.581
 9544W        W81073  24.138  36.983  14.375
 9545W        W81074  31.475  36.346  14.420
 9546W        W81075   4.889   0.278   2.618
 9547W        W81076   2.299  27.130   3.699
 9548W        W81077  41.485   7.653  10.748
 9549W        W81078  12.618  37.442  13.899
 9550W        W81079  20.624  32.329   1.853
 9551W        W81080  44.298  33.340   4.204
 9552W        W81081  32.531  10.968   1.671
 9553W        W81082   2.763   9.698  14.872
 9554W        W81083  12.223   0.653   2.374
 9555W        W81084  13.786   3.254   0.386
 9556W        W81085  34.843  26.158   1.135
 9557W        W81086   2.662  42.287  13.939
 9558W        W81087  13.271  10.945  14.983
 9559W        W81088  36.560  22.009  12.407
 9560W        W81089  41.555  22.095   1.474
 9561W        W81090  30.566  23.412  13.728
 9562W        W81091   5.843   4.733  12.721
 9563W        W81092  19.646  21.556   0.891
 9564W        W81093  36.627  42.077   1.392
 9565W        W81094  38.959  30.355  13.509
 9566W        W81095  43.497  32.446   0.767
 9567W        W81096   3.706  19.177   1.873
 9568W        W81097  10.838  13.578   1.946
 9569W        W81098  15.072   6.372  12.048
 9570W        W81099  37.348  34.422  11.458
 9571W        W81100  33.397   8.929   0.438
 9572W        W81101   6.997  44.526  14.042
 9573W        W81102  29.963  29.565  11.576
 9574W        W81103  16.725  39.358  13.831
 9575W        W81104  30.563  42.446   1.200
 9576W        W81105  35.131  31.965   1.870
 9577W        W81106  34.872  42.018  10.459
 9578W        W81107  44.988   6.781  11.932
 9579W        W81108  34.888  19.137   2.803
 9580W        W81109  44.551  37.559   0.486
 9581W        W81110  24.311  36.182  13.905
 9582W        W81111  38.401  32.484  10.718
 9583W        W81112  44.929  26.755   1.838
 9584W        W81113  44.104  10.838  12.073
 9585W        W81114   3.291  36.244  11.048
 9586W        W81115  19.691  23.641   1.868
 9587W        W81116  44.666   3.266   4.283
 9588W        W81117   3.748   2.618  10.883
 9589W        W81118  11.952  24.346   3.106
 9590W        W81119  15.749  19.956  12.437
 9591W        W81120  22.920  13.674   3.285
 9592W        W81121   7.853   7.157  14.598
 9593W        W81122   0.339  36.088   2.003
 9594W        W81123  38.893  12.083   1.423
 9595W        W81124  40.806  23.215   0.967
 9596W        W81125  30.965  15.610   1.117
 9597W        W81126  39.227  16.629   2.299
 9598W        W81127  43.818  42.462   3.344
 9599W        W81128  37.084   0.976  14.683
 9600W        W81129   7.176  23.365   3.177
 9601W        W81130  38.469  25.289   2.433
 9602W        W81131   0.678  30.957   0.526
 9603W        W81132  15.007  40.371   3.196
 9604W        W81133  38.399  29.556  12.476
 9605W        W81134  41.025  11.157   1.412
 9606W        W81135  35.576  16.200   4.927
 9607W        W81136  33.989  34.803   1.735
 9608W        W81137  16.439  19.976   4.225
 9609W        W81138  16.776  41.481  14.865
 9610W        W81139   1.524  37.621   2.480
 9611W        W81140  30.606   2.957  14.706
 9612W        W81141  24.507  27.383  14.766
 9613W        W81142   0.766   9.825   3.730
 9614W        W81143  23.694  11.811   2.439
 9615W        W81144  24.598   9.489   2.410
 9616W        W81145   2.359   4.823   0.637
 9617W        W81146  15.334   7.912  14.132
 9618W        W81147   7.466   5.280  14.375
 9619W        W81148  21.258  20.512  14.519
 9620W        W81149   3.050  18.343  14.960
 9621W        W81150  26.266  26.503   3.260
 9622W        W81151  15.461   0.664  12.021
 9623W        W81152  10.059   6.228  14.793
 9624W        W81153  30.382  29.103  14.056
 9625W        W81154  22.778  35.296  13.352
 9626W        W81155  23.919  20.146   3.243
 9627W        W81156  17.953   6.162  12.089
 9628W        W81157  10.251  21.482  11.343
 9629W        W81158  38.819  37.832   2.026
 9630W        W81159  32.204  28.571   0.652
 9631W        W81160  41.815   9.492   1.828
 9632W        W81161  26.739  26.274  13.872
 9633W        W81162  30.461  10.894  10.976
 9634W        W81163  43.489   0.743   4.524
 9635W        W81164  25.072  22.100   3.361
 9636W        W81165   2.944   0.349  12.029
 9637W        W81166  39.320  13.389  10.630
 9638W        W81167  30.954  31.961  12.182
 9639W        W81168  17.265  39.055  11.477
 9640W        W81169  32.569   5.776  14.479
 9641W        W81170  34.053  19.029   2.089
 9642W        W81171  39.924  25.209  11.191
 9643W        W81172  37.074  16.130  11.122
 9644W        W81173  35.965  16.367   3.403
 9645W        W81174   3.471  34.716   4.494
 9646W        W81175  29.544   9.398   1.798
 9647W        W81176  17.323  21.390   0.908
 9648W        W81177   9.901  36.157  12.524
 9649W        W81178  16.671  15.764   3.736
 9650W        W81179  17.038   2.036   1.008
 9651W        W81180   1.805  40.345   3.193
 9652W        W81181  27.667  39.865   3.047
 9653W        W81182  36.532  26.530   4.605
 9654W        W81183  13.789  37.896  11.626
 9655W        W81184  44.797  35.969   3.371
 9656W        W81185   5.211  38.600   2.794
 9657W        W81186  23.339  33.435  11.243
 9658W        W81187   1.446  30.109  14.948
 9659W        W81188  31.015  21.245   3.264
 9660W        W81189  15.159  12.761  12.302
 9661W        W81190  16.046  26.672  11.632
 9662W        W81191  19.840   2.415   1.443
 9663W        W81192   2.402  30.528  13.776
 9664W        W81193  14.739  24.120   0.415
 9665W        W81194  15.298  34.229   2.518
 9666W        W81195  31.964  10.786   4.096
 9667W        W81196   7.437  44.585  11.633
 9668W        W81197  28.285   2.849  10.956
 9669W        W81198  26.616   6.870  11.230
 9670W        W81199   0.426  40.906   1.296
 9671W        W81200  21.526   3.925  10.690
 9672W        W81201   2.642  31.482   1.198
 9673W        W81202  43.345  26.653  14.747
 9674W        W81203  37.475   8.665   0.850
 9675W        W81204  10.134   7.776  14.751
 9676W        W81205   4.259   5.245  10.686
 9677W        W81206  35.869  41.202  14.820
 9678W        W81207  28.090  29.941  14.493
 9679W        W81208  23.493  28.975  10.644
 9680W        W81209  41.384   1.396  12.091
 9681W        W81210  34.853  24.216   1.981
 9682W        W81211   5.679   9.580   4.685
 9683W        W81212  14.566  14.262  13.509
 9684W        W81213   6.672  31.366  13.302
 9685W        W81214   6.012  23.993  14.399
 9686W        W81215   5.270  29.112  13.906
 9687W        W81216  35.986   8.217   1.649
 9688W        W81217   0.365   8.591  14.556
 9689W        W81218   9.805  35.985   1.730
 9690W        W81219  15.338  10.077  14.296
 9691W        W81220  42.240   4.661   4.462
 9692W        W81221   3.398  37.451  10.671
 9693W        W81222  19.099  20.828   0.928
 9694W        W81223  43.360  37.164  11.515
 9695W        W81224  17.720  18.090  13.847
 9696W        W81225  36.438  10.401  13.877
 9697W        W81226  34.405  11.173  14.974
 9698W        W81227  40.740  16.646  11.634
 9699W        W81228  29.381  37.102  10.693
 9700W        W81229  22.378  35.425   3.119
 9701W        W81230   7.501  21.826   4.596
 9702W        W81231  30.534  12.309   2.587
 9703W        W81232  10.919  32.137  13.353
 9704W        W81233  35.608  24.658   2.135
 9705W        W81234  36.437   3.706  13.388
 9706W        W81235  25.011   7.445  12.925
 9707W        W81236   6.205  36.384  12.956
 9708W        W81237  31.699  20.731   2.627
 9709W        W81238  28.390  13.575   1.409
 9710W        W81239   8.762   7.230   2.266
 9711W        W81240  39.329  27.746   3.624
 9712W        W81241  26.620  12.707  14.982
 9713W        W81242  17.660   8.716  11.253
 9714W        W81243  29.497  16.421  12.969
 9715W        W81244  27.663  22.446   4.718
 9716W        W81245  36.744  40.295  12.114
 9717W        W81246  38.324   9.806  14.539
 9718W        W81247  34.423  22.654   4.143
 9719W        W81248  15.214   1.938   4.658
 9720W        W81249  15.799  18.351   2.049
 9721W        W81250  31.367   6.162  13.378
 9722W        W81251  41.464  40.037   3.661
 9723W        W81252  31.433  15.288  11.579
 9724W        W81253  16.764  26.472  13.378
 9725W        W81254  18.510  13.786  10.592
 9726W        W81255  33.186  35.787  13.827
 9727W        W81256   1.936  32.060   3.209
 9728W        W81257  17.170  34.028  13.771
 9729W        W81258   3.787  35.269   2.390
 9730W        W81259  44.581  43.040  11.618
 9731W        W81260  16.706  38.819  13.864
 9732W        W81261   7.908  29.648   3.342
 9733W        W81262  20.100   3.717  11.395
 9734W        W81263  36.435   3.367  10.823
 9735W        W81264  33.631  25.870  13.375
 9736W        W81265  14.275  31.210  14.236
 9737W        W81266  38.890  40.092   3.472
 9738W        W81267  13.543   5.164  14.492
 9739W        W81268   8.806  30.589   4.496
 9740W        W81269  21.199   0.324   3.673
 9741W        W81270   0.280   9.221  11.606
 9742W        W81271  35.515  14.830   0.654
 9743W        W81272   6.224   9.366  14.401
 9744W        W81273  14.688   6.550   0.880
 9745W        W81274  20.068   1.259   0.784
 9746W        W81275  38.200  12.502  13.933
 9747W        W81276   2.819   8.242   1.424
 9748W        W81277  38.845  32.187  13.905
 9749W        W81278   5.872  36.017  10.716
 9750W        W81279   8.241   6.347  13.828
 9751W        W81280  20.279   0.759   3.858
 9752W        W81281   6.290   9.784  12.943
 9753W        W81282  14.206  27.588   2.301
 9754W        W81283  42.073  40.813   2.552
 9755W        W81284  33.558  13.434   2.341
 9756W        W81285  15.530  35.330   0.677
 9757W        W81286  32.392  26.705   0.762
 9758W        W81287  38.140  30.518  13.300
 9759W        W81288  35.147  10.657  12.839
 9760W        W81289  38.326  15.090  11.402
 9761W        W81290  39.882  11.702  11.741
 9762W        W81291  36.416  28.932  11.637
 9763W        W81292  38.123  31.420  13.867
 9764W        W81293  32.568  41.158  10.638
 9765W        W81294  22.234  42.592  10.087
 9766W        W81295  37.897  11.649   2.193
 9767W        W81296  27.523  13.247  14.754
 9768W        W81297  43.775   9.818   1.667
 9769W        W81298  20.694   2.430  12.483
 9770W        W81299  13.370  33.622  13.495
 9771W        W81300   3.786  15.070  14.914
 9772W        W81301  18.107   2.403  12.414
 9773W        W81302  36.515  38.471  13.156
 9774W        W81303  24.983  34.587   3.199
 9775W        W81304  41.520  25.930  11.417
 9776W        W81305  27.054  41.226  13.857
 9777W        W81306  21.308   6.895  14.901
 9778W        W81307  22.246  24.990  12.686
 9779W        W81308  18.774  11.421  11.974
 9780W        W81309  35.470   1.369  13.260
 9781W        W81310  18.478  34.048   1.337
 9782W        W81311   3.458  18.976   2.310
 9783W        W81312   6.615  20.771   1.458
 9784W        W81313  22.984  35.093  14.773
 9785W        W81314  28.269  38.897   3.877
 9786W        W81315  27.796  14.600  10.664
 9787W        W81316  20.241  28.364  12.937
 9788W        W81317  36.930  10.739  12.630
 9789W        W81318   6.460   7.413   0.796
 9790W        W81319  22.085  13.848   1.233
 9791W        W81320  25.525   3.267  13.417
 9792W        W81321  17.136  37.631  10.601
 9793W        W81322  39.067  20.653  12.109
 9794W        W81323  41.081  39.303  11.536
 9795W        W81324  36.113  34.962  14.832
 9796W        W81325  15.793  17.157  13.334
 9797W        W81326  40.419   5.460  12.490
 9798W        W81327  20.891  11.858   1.879
 9799W        W81328  12.967  21.051  12.072
 9800W        W81329   4.966  25.260   0.841
 9801W        W81330  30.994   4.879  12.064
 9802W        W81331  41.993  21.035  14.993
 9803W        W81332  16.547  20.593  11.952
 9804W        W81333  26.611   8.254  10.970
 9805W        W81334  19.863  13.250   2.916
 9806W        W81335  29.328  43.089  11.068
 9807W        W81336   9.923  14.268   3.192
 9808W        W81337  44.009   9.733   1.137
 9809W        W81338  15.230   6.822   3.656
 9810W        W81339  42.685  25.888   3.674
 9811W        W81340  13.754  28.424   4.342
 9812W        W81341  41.230  33.549   4.606
 9813W        W81342  40.610  36.639   1.429
 9814W        W81343   9.519  25.932   2.762
 9815W        W81344  19.021  13.214   3.534
 9816W        W81345  15.985  43.743   0.233
 9817W        W81346  18.022   8.661   1.739
 9818W        W81347  44.476  32.013  13.947
 9819W        W81348  39.983  17.887  11.923
 9820W        W81349  39.331  39.839  11.697
 9821W        W81350  23.689  26.990  14.353
 9822W        W81351   5.268  10.327   1.161
 9823W        W81352  25.141  15.158   3.328
 9824W        W81353  33.657  40.911   3.823
 9825W        W81354  39.889  42.221  11.240
 9826W        W81355  31.126   8.517  10.212
 9827W        W81356  23.678  17.839  12.814
 9828W        W81357  35.389  25.352  14.382
 9829W        W81358  39.449  29.731   3.059
 9830W        W81359  28.038  41.366   5.127
 9831W        W81360   7.903  26.472  11.353
 9832W        W81361  26.118  35.579  10.995
 9833W        W81362   6.444   5.054   1.415
 9834W        W81363  41.407  27.171   4.581
 9835W        W81364  44.705  34.451  12.723
 9836W        W81365   0.278  22.325   1.798
 9837W        W81366  10.565  38.396   4.176
 9838W        W81367   9.773  35.429   1.427
 9839W        W81368  31.072  13.882   0.871
 9840W        W81369  32.523  11.715   0.933
 9841W        W81370  18.638  27.552  14.333
 9842W        W81371  21.549  11.513   3.102
 9843W        W81372  14.526   8.595   0.596
 9844W        W81373  19.344   0.162  14.050
 9845W        W81374  16.114  29.905  14.819
 9846W        W81375  44.351  43.530  11.641
 9847W        W81376  17.401  39.580  14.014
 9848W        W81377  38.481   9.822   3.307
 9849W        W81378  16.789  38.405  10.629
 9850W        W81379   4.811  22.186  11.007
 9851W        W81380  10.468   0.807  13.452
 9852W        W81381   8.738  29.385  12.070
 9853W        W81382   7.061  32.006  13.139
 9854W        W81383  10.913  39.363   4.260
 9855W        W81384  30.720   6.665   4.129
 9856W        W81385  28.699  40.891   4.578
 9857W        W81386   3.496  24.614   2.173
 9858W        W81387   0.757  39.804   4.285
 9859W        W81388  36.563  35.890   2.356
 9860W        W81389  23.977   8.605  13.499
 9861W        W81390  33.055   1.764   3.900
 9862W        W81391  28.602  38.579   2.440
 9863W        W81392  35.225  18.273  12.829
 9864W        W81393  14.039  37.944  13.992
 9865W        W81394  37.164  30.689  10.306
 9866W        W81395  36.824  14.058  12.246
 9867W        W81396  15.615   9.617   3.694
 9868W        W81397  11.979   6.901  11.053
 9869W        W81398  20.559  33.201   3.354
 9870W        W81399  37.917   1.048  13.104
 9871W        W81400  38.174  24.206  12.126
 9872W        W81401  27.898   9.016   0.973
 9873W        W81402  14.380  21.271   1.392
 9874W        W81403  26.395  35.129   1.881
 9875W        W81404   6.230  15.203  13.882
 9876W        W81405  25.583  33.146   4.551
 9877W        W81406  22.944   6.349  11.186
 9878W        W81407   3.731  38.493   2.844
 9879W        W81408  44.644  24.344  12.551
 9880W        W81409  11.365   1.907  13.249
 9881W        W81410   0.404   0.716   4.168
 9882W        W81411  31.985  27.759   3.347
 9883W        W81412  18.591   2.356   4.161
 9884W        W81413   6.314  24.787  14.031
 9885W        W81414  14.942  39.450   2.650
 9886W        W81415  37.241  29.307  12.236
 9887W        W81416   1.026   5.420   0.789
 9888W        W81417  37.345   1.782  14.811
 9889W        W81418  38.075  38.771  10.683
 9890W        W81419  38.783  44.924  13.057
 9891W        W81420  28.062  12.596   4.503
 9892W        W81421  33.672  40.989   2.971
 9893W        W81422  16.465  20.251  14.722
 9894W        W81423  40.004  28.139   1.769
 9895W        W81424  13.110  30.596  11.038
 9896W        W81425  14.614   7.818  11.990
 9897W        W81426  12.126  16.408   3.846
 9898W        W81427  33.393  11.141   2.400
 9899W        W81428  21.744  21.718   0.844
 9900W        W81429  11.964   6.120   4.984
 9901W        W81430  25.389  13.520   4.190
 9902W        W81431  22.297  16.842  14.347
 9903W        W81432  29.638  26.965  11.064
 9904W        W81433   4.103  28.217   2.644
 9905W        W81434  34.778  38.925   3.717
 9906W        W81435  22.925  17.130  13.833
 9907W        W81436  39.873  11.452   0.224
 9908W        W81437  17.979  40.397  10.947
 9909W        W81438  29.432  20.279  11.151
 9910W        W81439  25.417  39.570   2.384
 9911W        W81440  13.165  36.130  12.537
 9912W        W81441  41.813  18.055   3.209
 9913W        W81442  19.811  20.960  10.656
 9914W        W81443  44.522  38.773  14.773
 9915W        W81444  26.496  44.518   0.251
 9916W        W81445  32.460   7.198  12.644
 9917W        W81446   7.574  38.934  14.399
 9918W        W81447  28.062   8.721   1.366
 9919W        W81448  22.786  24.938   4.263
 9920W        W81449  15.311  29.497  13.899
 9921W        W81450  34.902  41.481   3.631
 9922W        W81451  30.045  24.649   0.117
 9923W        W81452  28.627  33.296   1.666
 9924W        W81453   7.462  17.018   3.605
 9925W        W81454  13.187  34.951  10.603
 9926W        W81455   8.465  16.027  11.074
 9927W        W81456  18.724  15.349  12.724
 9928W        W81457   3.942   3.642   4.559
 9929W        W81458   7.674  14.562  13.829
 9930W        W81459  28.033  15.583  10.655
 9931W        W81460  38.663  25.208  14.423
 9932W        W81461  35.965  21.093   4.873
 9933W        W81462  34.881   2.003   3.758
 9934W        W81463  18.313   9.980  13.493
 9935W        W81464  30.279  17.125   0.244
 9936W        W81465  26.102  39.477  14.552
 9937W        W81466  42.064   1.922  14.518
 9938W        W81467  37.527  34.842  11.182
 9939W        W81468   9.448  16.627  14.317
 9940W        W81469  17.289  40.225   0.877
 9941W        W81470  12.753   4.590  11.449
 9942W        W81471  11.804  10.359  14.467
 9943W        W81472  21.429  18.536  11.618
 9944W        W81473  26.587  17.321   0.440
 9945W        W81474  21.479  22.007   1.527
 9946W        W81475  36.102   6.482   3.585
 9947W        W81476  35.765  32.475   3.817
 9948W        W81477   5.673  33.579   2.920
 9949W        W81478  33.033  14.310   2.515
 9950W        W81479  36.531  19.157   3.778
 9951W        W81480   0.953  39.562  13.393
 9952W        W81481   1.230   2.895  12.720
 9953W        W81482   0.270  38.589  12.337
 9954W        W81483  40.517  36.847   0.545
 9955W        W81484  26.337  35.616  11.886
 9956W        W81485   2.728  35.642  12.431
 9957W        W81486  17.528  13.435  12.747
 9958W        W81487  40.243   3.515  11.369
 9959W        W81488   7.740  11.427   3.409
 9960W        W81489  12.675  37.169  12.398
 9961W        W81490  39.364   5.576   0.684
 9962W        W81491  21.672  26.147   1.658
 9963W        W81492  27.902   9.531   3.700
 9964W        W81493  26.258   0.949  14.395
 9965W        W81494  29.647  39.465   2.589
 9966W        W81495  44.259  38.418   4.331
 9967W        W81496  28.762  39.091   1.751
 9968W        W81497  44.235   3.197   0.807
 9969W        W81498  37.167  20.039   2.709
 9970W        W81499   4.179  25.145   2.354
 9971W        W81500  17.590   9.455  13.101
 9972W        W81501  12.694  26.985   1.867
 9973W        W81502  24.900  22.054   1.610
 9974W        W81503   8.659  38.811  10.728
 9975W        W81504  10.102   5.812  10.605
 9976W        W81505   8.350  27.283  14.235
 9977W        W81506  42.331  16.199  12.204
 9978W        W81507  16.352   9.952  12.604
 9979W        W81508  17.509  10.879  11.141
 9980W        W81509  21.672   3.894  13.224
 9981W        W81510   6.236  23.030  14.431
 9982W        W81511  40.756  30.051  14.776
 9983W        W81512  14.656  22.443  12.615
 9984W        W81513  39.872  10.774   3.826
 9985W        W81514   0.211   2.934  11.945
 9986W        W81515   4.253  30.064  14.725
 9987W        W81516  17.523  10.706   4.111
 9988W        W81517  43.671  17.567   2.891
 9989W        W81518  22.377  16.086   4.489
 9990W        W81519  42.149  23.067  11.929
 9991W        W81520  19.737  29.634   0.527
 9992W        W81521  31.729  25.066   3.699
 9993W        W81522  29.721  36.022  12.936
 9994W        W81523  38.033  33.879   2.842
 9995W        W81524  13.326  18.691   1.149
 9996W        W81525   6.392  44.522   0.486
 9997W        W81526  20.307   4.886  12.041
 9998W        W81527  27.646  20.521   2.842
 9999W        W81528  44.012  10.246   4.095
10000W        W81529  41.340  34.335  13.975
10001W        W81530  42.251  38.572  11.678
10002W        W81531   8.673  33.117  13.380
10003W        W81532  28.538  18.798  13.472
10004W        W81533   1.017  38.274   0.806
10005W        W81534   7.899   6.896  11.079
10006W        W81535  12.573  11.858  14.740
10007W        W81536  12.530  28.405   2.178
10008W        W81537  10.325   5.149   1.765
10009W        W81538  37.613  29.093  10.632
10010W        W81539  41.022  10.270  10.472
10011W        W81540  34.003  12.235  14.586
10012W        W81541  13.080  15.752  11.813
10013W        W81542  20.139   6.701  12.569
10014W        W81543  31.593  31.340  12.149
10015W        W81544  36.232   4.254  12.145
10016W        W81545  36.099  41.729  12.549
10017W        W81546  30.676  30.004   2.751
10018W        W81547  17.282   2.156  12.100
10019W        W81548  42.939  26.197   1.802
10020W        W81549  30.833   0.843  12.010
10021W        W81550   1.911   3.427   1.746
10022W        W81551  28.159  33.439   1.802
10023W        W81552  43.830  36.300  12.000
10024W        W81553  22.983   5.140   3.048
10025W        W81554   9.428  43.002   5.012
10026W        W81555  14.691  37.779   3.791
10027W        W81556  32.449  42.564  12.557
10028W        W81557  14.393  17.674   3.758
10029W        W81558  35.670  44.806  14.159
10030W        W81559  37.263  23.603  11.892
10031W        W81560  39.333  33.447  11.037
10032W        W81561  17.212   3.245   4.073
10033W        W81562  38.648   2.212   1.458
10034W        W81563  11.154  24.913  10.773
10035W        W81564  30.490  28.572  14.889
10036W        W81565  37.555  38.788  14.040
10037W        W81566  10.085  32.723   9.825
10038W        W81567  13.210  33.474  13.989
10039W        W81568  28.150  20.756   0.269
10040W        W81569  18.748  41.688   2.269
10041W        W81570  43.863   0.627   1.343
10042W        W81571  29.227   2.525  12.254
10043W        W81572  15.065  30.914   3.605
10044W        W81573  42.961   2.870   3.429
10045W        W81574   4.662  18.675   0.968
10046W        W81575  12.737  44.376  12.226
10047W        W81576  25.733  12.864   4.950
10048W        W81577   7.905  14.029  10.768
10049W        W81578  15.179  10.687   0.856
10050W        W81579  24.439  24.404  14.444
10051W        W81580  24.691  27.487  12.142
10052W        W81581  23.976  24.580  14.713
10053W        W81582  24.112  18.596  10.348
10054W        W81583   4.664  19.635  14.902
10055W        W81584   2.755   2.485  13.350
10056W        W81585   5.251  22.778  14.328
10057W        W81586   7.129  41.107  14.246
10058W        W81587  36.782  42.542   1.264
10059W        W81588   5.581  12.664  11.689
10060W        W81589  33.519  44.475  13.391
10061W        W81590  35.433   9.869  14.789
10062W        W81591   4.785  10.282   2.801
10063W        W81592  42.444  28.442   0.651
10064W        W81593   7.792  35.924  11.122
10065W        W81594  37.625  19.122  11.891
10066W        W81595  33.128   6.879   1.739
10067W        W81596  34.308  33.418   1.427
10068W        W81597   3.627  32.488  14.103
10069W        W81598  37.758   0.446   4.606
10070W        W81599  30.084  24.981   1.124
10071W        W81600  10.717  23.741   3.893
10072W        W81601   2.022   7.246  14.226
10073W        W81602   5.734  16.503  13.727
10074W        W81603  44.827  42.086   1.187
10075W        W81604   7.716  44.808   3.664
10076W        W81605  10.945  22.550   2.914
10077W        W81606  43.068  30.543  10.754
10078W        W81607   8.396   3.668   2.159
10079W        W81608   2.737  21.930  10.913
10080W        W81609  17.728  22.641  14.104
10081W        W81610  41.958  16.073   4.423
10082W        W81611  43.411  26.972   1.879
10083W        W81612  28.842  32.870   3.775
10084W        W81613  12.806   7.347   4.833
10085W        W81614  43.283  21.192  13.305
10086W        W81615  19.788   0.742   3.683
10087W        W81616   7.817  31.455  12.042
10088W        W81617  40.805  12.861  14.863
10089W        W81618  16.812  38.981  10.575
10090W        W81619  30.474  31.817  12.004
10091W        W81620  34.135  10.585  14.338
10092W        W81621  21.512  20.065  14.363
10093W        W81622  33.016  14.023   1.014
10094W        W81623  43.944  19.534   4.008
10095W        W81624  23.920   3.981  12.431
10096W        W81625  32.944   4.503  14.645
10097W        W81626  37.385   6.827  12.964
10098W        W81627  23.554  36.687  13.536
10099W        W81628   5.344  30.341  13.649
10100W        W81629  24.474  39.090  12.983
10101W        W81630  37.121  42.852  13.836
10102W        W81631   9.136  25.347   3.137
10103W        W81632  44.518  33.066  11.649
10104W        W81633  25.729   0.545   2.189
10105W        W81634  35.550  40.881  12.558
10106W        W81635  16.243   7.715   2.855
10107W        W81636  36.338  28.813   4.119
10108W        W81637  34.667  15.183   2.547
10109W        W81638  18.535   2.812   2.908
10110W        W81639  42.449  37.121  14.967
10111W        W81640  41.009  14.595   3.949
10112W        W81641   5.963   6.593   4.710
10113W        W81642   9.849   6.752   4.624
10114W        W81643   3.219  26.429   4.877
10115W        W81644  11.676  38.909   4.741
10116W        W81645  40.351   5.296  10.970
10117W        W81646  41.902  18.963  12.703
10118W        W81647  33.736   5.316  13.903
10119W        W81648  38.436  35.907   2.904
10120W        W81649  19.759   1.016  14.567
10121W        W81650  12.734  28.987   3.403
10122W        W81651  17.136  34.957  10.663
10123W        W81652  29.037   3.297  13.837
10124W        W81653  19.530  26.504   1.562
10125W        W81654  15.709  38.311  13.324
10126W        W81655  21.079  25.983   0.628
10127W        W81656  10.345  29.571   5.032
10128W        W81657   3.418  33.454  10.681
10129W        W81658  19.667  36.279  11.549
10130W        W81659  35.784  28.706   1.756
10131W        W81660  19.823  34.790   2.653
10132W        W81661   5.100  41.054   1.370
10133W        W81662  38.509  20.989   4.695
10134W        W81663  42.584  19.418   2.593
10135W        W81664  37.653  31.974  13.400
10136W        W81665  32.445  23.082   0.731
10137W        W81666   6.262  37.990   0.784
10138W        W81667   0.198  28.588   2.683
10139W        W81668  38.754  30.315  12.156
10140W        W81669  13.840  11.734   2.433
10141W        W81670  35.961  14.079  11.141
10142W        W81671  31.077   1.703  10.306
10143W        W81672   6.629  18.812  13.140
10144W        W81673  11.850   8.200   0.777
10145W        W81674  22.245  33.545   4.136
10146W        W81675  33.546   3.242  11.190
10147W        W81676  42.991  34.379  11.213
10148W        W81677  21.918  44.014   0.884
10149W        W81678  33.865  30.930   4.199
10150W        W81679   0.981  43.150   2.809
10151W        W81680  34.343  30.481  13.800
10152W        W81681  20.553   4.949   1.162
10153W        W81682   6.655  14.845   3.314
10154W        W81683  36.612  20.048  13.932
10155W        W81684  30.149  21.818   2.338
10156W        W81685  34.855   7.968  11.239
10157W        W81686  44.023  21.006   3.304
10158W        W81687  43.326  17.701   1.916
10159W        W81688  29.438  29.899   1.359
10160W        W81689   4.796  16.650   4.845
10161W        W81690   2.664   6.637  14.796
10162W        W81691  19.289  22.132   3.262
10163W        W81692  17.372  18.819  13.450
10164W        W81693  20.269  36.475  14.685
10165W        W81694  32.156  17.091   0.255
10166W        W81695  16.584  25.564  14.316
10167W        W81696  26.815   7.572   9.822
10168W        W81697  42.400  11.926  10.220
10169W        W81698  37.883  36.780   0.614
10170W        W81699  22.039   6.385  10.547
10171W        W81700  43.505  20.068  11.179
10172W        W81701  25.736   0.941   3.250
10173W        W81702  32.210  11.654  11.105
10174W        W81703  36.799  13.734   0.849
10175W        W81704   4.375   8.131   4.435
10176W        W81705  22.800  42.951   4.666
10177W        W81706  12.950   7.629  14.015
10178W        W81707  19.216  35.897  13.924
10179W        W81708  22.003   6.264  11.829
10180W        W81709  31.137  20.597  11.953
10181W        W81710  29.174  18.333  14.849
10182W        W81711  13.975  25.435  11.639
10183W        W81712  18.985  24.108  14.470
10184W        W81713  21.743  18.189   1.778
10185W        W81714  42.576  43.756  10.715
10186W        W81715  35.973  43.358   1.848
10187W        W81716  27.298  41.413  12.212
10188W        W81717  21.209  41.824   2.199
10189W        W81718   6.302  24.674   2.076
10190W        W81719  23.694  14.433   0.241
10191W        W81720   1.424  24.492   2.751
10192W        W81721   9.123  33.419   5.014
10193W        W81722  28.477  10.170   2.744
10194W        W81723  24.189   5.627   1.216
10195W        W81724  23.062  17.566   3.848
10196W        W81725  27.608   3.947  11.078
10197W        W81726  37.967  27.983  12.853
10198W        W81727  41.496  31.178  12.648
10199W        W81728   2.274   6.918  13.912
10200W        W81729   6.133   8.684   3.209
10201W        W81730  27.969  37.510  11.359
10202W        W81731   3.288  32.459  13.691
10203W        W81732  26.533  11.854  13.903
10204W        W81733  14.557  26.354  10.648
10205W        W81734  10.730  36.416  13.388
10206W        W81735   1.004   3.802   3.726
10207W        W81736   3.914  36.477   2.707
10208W        W81737   6.042  40.992   0.062
10209W        W81738  22.166   5.103   0.417
10210W        W81739  15.094   6.887   1.603
10211W        W81740   6.733  38.805  12.979
10212W        W81741  28.049  33.156   3.315
10213W        W81742  26.846   9.639  12.684
10214W        W81743  32.606  11.271  12.910
10215W        W81744  42.497  34.370  13.783
10216W        W81745  20.745   4.927  13.030
10217W        W81746  20.755  42.496   1.103
10218W        W81747   9.155  43.263   0.270
10219W        W81748  21.301  28.309  13.386
10220W        W81749  12.566  39.915  14.139
10221W        W81750  30.537  43.296   2.157
10222W        W81751  13.076  35.658  11.333
10223W        W81752  35.343  35.461   0.848
10224W        W81753  40.000  20.537  12.176
10225W        W81754   9.464   1.941   2.510
10226W        W81755  38.566  10.340  12.114
10227W        W81756  16.600  26.546  14.851
10228W        W81757  19.777   3.281   3.125
10229W        W81758   4.361   1.783  11.661
10230W        W81759  26.194  28.192  11.548
10231W        W81760  30.410   9.065   1.975
10232W        W81761   5.492  43.663  11.130
10233W        W81762   4.433  15.329   1.447
10234W        W81763  27.222   9.282   0.283
10235W        W81764  41.303  39.528   0.530
10236W        W81765  31.056   8.728   1.993
10237W        W81766   0.693  25.605   2.393
10238W        W81767  21.889  28.386   1.409
10239W        W81768  17.999  19.524   0.063
10240W        W81769   8.108  18.500   0.302
10241W        W81770  43.103  39.434  10.444
10242W        W81771  28.901   7.770   3.546
10243W        W81772  17.813  30.908   1.707
10244W        W81773  35.433  29.491  12.284
10245W        W81774   5.279  23.949  13.412
10246W        W81775  11.636   1.726   3.336
10247W        W81776  11.150  10.783  14.856
10248W        W81777   4.012  17.571   0.316
10249W        W81778  18.171  20.913   0.597
10250W        W81779   7.015  43.208   1.856
10251W        W81780  25.930   7.820  13.510
10252W        W81781  15.323   6.526   1.894
10253W        W81782  34.074  41.575   2.253
10254W        W81783  43.036  15.189   3.141
10255W        W81784  16.653  18.563  10.492
10256W        W81785  23.441  41.443  12.022
10257W        W81786  23.988  10.653   3.167
10258W        W81787   6.710  14.802  14.459
10259W        W81788  32.120  34.863  12.475
10260W        W81789  21.014  38.434  10.667
10261W        W81790  23.466  14.128   1.560
10262W        W81791   0.274  36.503  13.281
10263W        W81792   9.949  21.742   0.923
10264W        W81793  39.082  22.946   1.776
10265W        W81794  41.000   7.027  12.142
10266W        W81795  25.002  12.684  12.350
10267W        W81796  32.823  43.232   4.334
10268W        W81797  17.558  30.189   0.267
10269W        W81798  15.317  14.774  10.685
10270W        W81799  28.670  10.702   1.876
10271W        W81800   8.735   0.518   4.809
10272W        W81801  27.983  21.954   1.677
10273W        W81802   3.246  36.865   1.214
10274W        W81803  40.263  40.556   0.925
10275W        W81804  30.278  34.726  12.470
10276W        W81805  17.893  39.466   0.532
10277W        W81806  29.291  11.420   4.699
10278W        W81807   0.522  30.997  10.280
10279W        W81808  41.553  26.904   3.327
10280W        W81809   3.432  34.348  11.001
10281W        W81810  30.515  17.883   2.128
10282W        W81811   9.311  39.396   1.709
10283W        W81812  28.193   3.850   1.880
10284W        W81813   6.374  23.691  14.162
10285W        W81814  38.101  30.074  11.672
10286W        W81815  37.650  43.503   4.501
10287W        W81816  12.385  12.584  14.273
10288W        W81817  35.158  24.282  13.605
10289W        W81818  15.566  10.402  14.831
10290W        W81819  26.441   9.256   3.247
10291W        W81820  26.670   7.418   2.302
10292W        W81821  14.285  28.203  12.164
10293W        W81822  18.606  12.910  10.373
10294W        W81823  28.987  15.646  14.559
10295W        W81824  36.361  13.790   1.231
10296W        W81825  32.412  30.223  14.816
10297W        W81826   3.377   8.279   3.305
10298W        W81827   2.277  16.402   3.477
10299W        W81828   5.281  24.879  13.549
10300W        W81829  36.856  27.083   3.603
10301W        W81830  23.513  32.841  14.956
10302W        W81831  39.509  33.138  14.891
10303W        W81832  32.215  29.519   0.995
10304W        W81833  31.422  39.037   2.209
10305W        W81834  17.768  35.661   0.776
10306W        W81835  25.921  33.549  10.788
10307W        W81836  36.381  29.647  12.152
10308W        W81837   5.222   0.486  12.454
10309W        W81838  14.694   6.736  14.900
10310W        W81839  25.647  21.598   1.710
10311W        W81840  27.512  39.903  12.776
10312W        W81841  32.589  32.499   1.614
10313W        W81842  44.962  32.933   3.648
10314W        W81843  17.358   0.892   3.715
10315W        W81844  33.429  29.473   2.441
10316W        W81845  32.884  29.619   4.909
10317W        W81846  33.570  16.456  12.812
10318W        W81847   7.362  14.270  11.567
10319W        W81848  19.985  41.228  12.026
10320W        W81849  27.761  37.384  12.661
10321W        W81850  24.000  38.194  11.198
10322W        W81851  29.002  30.112   2.714
10323W        W81852  26.726   4.739  14.381
10324W        W81853  40.931   0.252   2.363
10325W        W81854  38.381   5.031  11.271
10326W        W81855  28.967  13.825  14.019
10327W        W81856  32.855   1.393  13.910
10328W        W81857  21.722  43.814   1.667
10329W        W81858   6.195   4.440  12.974
10330W        W81859  23.160  11.385   4.369
10331W        W81860  13.557  24.896  13.759
10332W        W81861  31.856  22.041   1.937
10333W        W81862  30.575  25.990  14.523
10334W        W81863  13.398  44.098   0.765
10335W        W81864  18.746  25.242  13.313
10336W        W81865  10.906  25.246  14.980
10337W        W81866   2.915   5.363   0.312
10338W        W81867   7.932  33.156   4.276
10339W        W81868  27.395  42.059  14.303
10340W        W81869   5.713  33.647   0.779
10341W        W81870  20.548  38.525  12.964
10342W        W81871  25.111  33.375   4.494
10343W        W81872  23.730  39.835   1.630
10344W        W81873  17.205  23.328  13.996
10345W        W81874   6.946  10.928  12.887
10346W        W81875  31.914  34.336   2.114
10347W        W81876  35.102  20.604   2.231
10348W        W81877  18.774  31.313  13.672
10349W        W81878  35.367   5.838   2.038
10350W        W81879   3.810  29.849   0.368
10351W        W81880  41.870  32.032   3.060
10352W        W81881  21.566   5.210  13.917
10353W        W81882  26.639   6.763  13.634
10354W        W81883  43.303  17.708  10.704
10355W        W81884  32.076  18.268   3.610
10356W        W81885  29.360  14.104  12.557
10357W        W81886  41.746   6.400  14.854
10358W        W81887  43.054  32.896   4.465
10359W        W81888  44.142   5.951  10.223
10360W        W81889  38.570  19.696   2.644
10361W        W81890  18.925  29.370   3.093
10362W        W81891  33.108   0.373   2.285
10363W        W81892  36.931  27.367   1.735
10364W        W81893  13.836   0.733  11.975
10365W        W81894  32.941  38.020  13.428
10366W        W81895  33.460  10.448  12.079
10367W        W81896  22.604  33.787  11.508
10368W        W81897   5.176   6.235   4.696
10369W        W81898  16.553  21.251   0.481
10370W        W81899  13.899  29.143  12.376
10371W        W81900   1.248  35.462   1.381
10372W        W81901   0.162  41.284   2.221
10373W        W81902  38.415  20.537  13.946
10374W        W81903  24.530   7.355   4.772
10375W        W81904  44.756  17.542   1.895
10376W        W81905  18.594  40.433   2.727
10377W        W81906  32.552   1.804   2.879
10378W        W81907  14.825  11.376  12.793
10379W        W81908  35.785   9.786   3.224
10380W        W81909  43.331  32.985  12.822
10381W        W81910   0.311  16.077   3.619
10382W        W81911  17.127  43.931  10.727
10383W        W81912  17.762  28.873  12.544
10384W        W81913  14.207  16.626   1.150
10385W        W81914  21.221  34.101  12.376
10386W        W81915   5.196  23.973  11.482
10387W        W81916  14.261   0.225   2.693
10388W        W81917   2.986  30.016   4.592
10389W        W81918  17.950   2.310   5.053
10390W        W81919  11.399   2.845   3.756
10391W        W81920   9.938  21.069   2.195
10392W        W81921  18.081  39.386   3.820
10393W        W81922  20.564  30.871   2.230
10394W        W81923  10.701  20.742   0.736
10395W        W81924  17.489  41.151  11.067
10396W        W81925   9.440   1.325   0.898
10397W        W81926  33.298  33.317   5.035
10398W        W81927   9.306  31.558  14.503
10399W        W81928  35.219  15.394  11.210
10400W        W81929  44.857  38.481   1.926
10401W        W81930  21.506   8.591   3.782
10402W        W81931  32.016   4.870   2.193
10403W        W81932  37.009  18.404  11.254
10404W        W81933  12.810  20.622  10.748
10405W        W81934  26.243  24.580  13.085
10406W        W81935   4.595   4.151   0.705
10407W        W81936   5.787  25.506  12.069
10408W        W81937  20.887  18.335  13.565
10409W        W81938  36.654  16.024   4.109
10410W        W81939   6.611  16.672   3.354
10411W        W81940  18.018  12.901   4.218
10412W        W81941  26.754   9.184   2.830
10413W        W81942  32.596  43.521   1.301
10414W        W81943  18.080  12.870   0.313
10415W        W81944   5.414  41.331  13.066
10416W        W81945  15.603  12.203  11.605
10417W        W81946  11.628  11.807  13.351
10418W        W81947  22.542   3.319   0.235
10419W        W81948  35.508   4.194   4.746
10420W        W81949   9.036  36.225   2.630
10421W        W81950  43.448  16.550   3.801
10422W        W81951  31.935   6.495   0.058
10423W        W81952   1.798   9.808  13.991
10424W        W81953   1.180   1.510  10.920
10425W        W81954   1.413  23.032   3.071
10426W        W81955  35.584  42.615   4.047
10427W        W81956  18.815  31.948  13.586
10428W        W81957   6.735   7.263  13.944
10429W        W81958  24.089  37.761  12.995
10430W        W81959  19.238  26.368  14.172
10431W        W81960  31.429  16.734   1.285
10432W        W81961  39.377  36.251   0.906
10433W        W81962   9.275  44.394  11.957
10434W        W81963  40.760   6.473   5.067
10435W        W81964  13.393  40.769  11.450
10436W        W81965  25.939  14.069  12.226
10437W        W81966  40.317  20.629  11.473
10438W        W81967  38.509  43.988   4.142
10439W        W81968   5.924  20.027  11.085
10440W        W81969  39.797  30.911  14.083
10441W        W81970   9.252   6.771  13.411
10442W        W81971  14.772  39.916  10.559
10443W        W81972   3.748  44.203  12.858
10444W        W81973  39.718   3.818   0.779
10445W        W81974  28.970   4.720   4.370
10446W        W81975  23.769  17.801   4.067
10447W        W81976  23.219  21.618   0.432
10448W        W81977  42.499  40.413  14.948
10449W        W81978  35.073  41.627  11.982
10450W        W81979  25.928  38.854  13.847
10451W        W81980  14.053   6.391  11.187
10452W        W81981  18.436  31.657   0.434
10453W        W81982  39.727   1.691  12.447
10454W        W81983   3.833  40.349  14.678
10455W        W81984   0.972   9.771   3.252
10456W        W81985  18.851  34.419  10.010
10457W        W81986   9.166   5.403   3.383
10458W        W81987  35.431  12.655   0.678
10459W        W81988   6.935   3.447  10.554
10460W        W81989  28.357  23.120   1.914
10461W        W81990  38.009  27.788  10.789
10462W        W81991  41.560  22.907  12.846
10463W        W81992  44.216  14.190   0.388
10464W        W81993  44.273  32.570  10.938
10465W        W81994  26.931   8.739  12.512
10466W        W81995  25.160  24.186  12.099
10467W        W81996  38.314  21.114   3.368
10468W        W81997  28.999  39.366  12.767
10469W        W81998  35.391   9.373  13.049
10470W        W81999  19.993  32.721   0.148
10471W        W82000  17.771  43.365   2.886
10472W        W82001  15.826  36.022   3.786
10473W        W82002  34.136  22.470  13.786
10474W        W82003  42.217  21.875   4.138
10475W        W82004  39.415   9.553   0.394
10476W        W82005  37.461  29.089   4.171
10477W        W82006  12.429   3.224   1.591
10478W        W82007  38.972   4.904  11.969
10479W        W82008  22.276  19.367  10.469
10480W        W82009  36.133  15.183  14.404
10481W        W82010  26.625  22.760   4.556
10482W        W82011  17.704  13.640   2.307
10483W        W82012   8.438  30.925  13.181
10484W        W82013  36.405  33.540   2.053
10485W        W82014   1.849   3.691  14.331
10486W        W82015   9.103  32.594  13.472
10487W        W82016   4.760   9.037  13.732
10488W        W82017  16.343  44.428  10.746
10489W        W82018   3.143  29.957   2.288
10490W        W82019  17.604  19.713  13.308
10491W        W82020  17.112  36.920   1.833
10492W        W82021  41.939  41.807  12.876
10493W        W82022  20.827   2.789   0.671
10494W        W82023  20.335  39.380   2.201
10495W        W82024  19.190  43.524   4.468
10496W        W82025   9.390  11.310   2.765
10497W        W82026  41.526  21.516  11.653
10498W        W82027  39.297  13.317  14.215
10499W        W82028  19.127  11.071   1.408
10500W        W82029   4.048   0.919   0.375
10501W        W82030  27.906  40.486  14.418
10502W        W82031   5.393  20.995  14.886
10503W        W82032  31.580   8.546  14.747
10504W        W82033  15.310  39.455  14.784
10505W        W82034  23.148  10.574   3.485
10506W        W82035  17.190  25.581   2.643
10507W        W82036  44.816  12.126  11.640
10508W        W82037  35.825  17.858  11.130
10509W        W82038  25.012  34.712  14.303
10510W        W82039   8.772  22.957  12.610
10511W        W82040  15.539   7.493   3.576
10512W        W82041  40.860  37.887  11.952
10513W        W82042   7.182  21.253   4.076
10514W        W82043   4.826  43.245   0.834
10515W        W82044  16.614  23.164  11.563
10516W        W82045  28.012  39.467  14.486
10517W        W82046  38.243  14.126   4.542
10518W        W82047   2.938   8.962   1.735
10519W        W82048  36.827   5.233  12.900
10520W        W82049  35.086  29.636   3.322
10521W        W82050  32.386   9.401   0.347
10522W        W82051  34.331  40.848  11.762
10523W        W82052  18.480  26.291   3.417
10524W        W82053   6.753  40.121  13.360
10525W        W82054  42.338   2.771  11.664
10526W        W82055  10.385  13.847  14.488
10527W        W82056  38.592  43.869   3.637
10528W        W82057  36.305  38.936  13.000
10529W        W82058   6.362  32.831   0.780
10530W        W82059  13.646   2.488  12.482
10531W        W82060  37.346  18.992   4.116
10532W        W82061   3.819  31.981  12.129
10533W        W82062  28.697   3.974   3.664
10534W        W82063  11.360   9.293   2.310
10535W        W82064  31.370  29.829   3.523
10536W        W82065  42.908  17.181   2.164
10537W        W82066  28.499  34.035  14.574
10538W        W82067  36.868  21.961  11.190
10539W        W82068  16.302  37.518   2.588
10540W        W82069  31.043  17.597   2.636
10541W        W82070  43.766  20.581  13.086
10542W        W82071  37.418   2.098  13.491
10543W        W82072  39.383  41.936   1.903
10544W        W82073  12.051  40.865  10.976
10545W        W82074  43.700  16.844  13.414
10546W        W82075  34.569  32.883   2.253
10547W        W82076   1.016  17.493   2.406
10548W        W82077  37.593  13.136  12.056
10549W        W82078  17.097  27.916  12.914
10550W        W82079  43.042  25.480   2.677
10551W        W82080  14.134  35.474  12.977
10552W        W82081  37.190   0.728  10.727
10553W        W82082  27.617  28.616   3.437
10554W        W82083  30.375  30.481  14.942
10555W        W82084  35.805   2.041   2.733
10556W        W82085  32.934  42.789  14.202
10557W        W82086   5.247  43.343   4.581
10558W        W82087  21.599  19.807   3.068
10559W        W82088   4.381  30.462   0.804
10560W        W82089  16.492   2.423   2.771
10561W        W82090  30.718  14.225  14.745
10562W        W82091  11.134  10.884  12.282
10563W        W82092  19.684  42.048  13.853
10564W        W82093  24.780  20.379  12.609
10565W        W82094  30.139  35.164  11.053
10566W        W82095  35.462  13.327  13.058
10567W        W82096  36.339  24.728   4.627
10568W        W82097  17.954   4.718  12.973
10569W        W82098  19.291   1.456  10.869
10570W        W82099  40.855  38.403   3.477
10571W        W82100  17.828  15.742   1.049
10572W        W82101  36.673  15.590   0.243
10573W        W82102  19.174   0.755   1.694
10574W        W82103   9.112  13.878  12.653
10575W        W82104   0.419  21.216  12.076
10576W        W82105  36.611  20.055   1.788
10577W        W82106  39.923  44.531  13.081
10578W        W82107   9.886  13.439  12.341
10579W        W82108   5.038  14.142   0.442
10580W        W82109  27.146   5.241  10.881
10581W        W82110  22.808  12.415   1.879
10582W        W82111  16.811  15.778   2.335
10583W        W82112  26.706  28.469   1.611
10584W        W82113  44.777   5.881  13.792
10585W        W82114   7.463  43.373  11.864
10586W        W82115  20.180   7.358   4.565
10587W        W82116  28.205  17.048  11.593
10588W        W82117  13.102  43.004  14.278
10589W        W82118  21.847   1.836  14.518
10590W        W82119  32.345  36.892  14.205
10591W        W82120  22.995  15.836  12.920
10592W        W82121  25.524  35.971   1.820
10593W        W82122  18.764  39.348   0.009
10594W        W82123   2.189  26.928  10.788
10595W        W82124  21.704  25.017   4.102
10596W        W82125  12.361   3.687   1.299
10597W        W82126  20.671  36.517  13.880
10598W        W82127   3.118  35.509   4.085
10599W        W82128   6.140  12.864  12.149
10600W        W82129  33.559   1.017   3.684
10601W        W82130   5.303  15.692   0.425
10602W        W82131   3.954   9.825  14.364
10603W        W82132  13.730  39.481  13.944
10604W        W82133  26.950  17.709   2.288
10605W        W82134  39.427  37.382   4.113
10606W        W82135  41.808  26.941   0.790
10607W        W82136  43.891  43.698   3.788
10608W        W82137  27.495  36.850   2.200
10609W        W82138   6.422  41.776  12.115
10610W        W82139  22.798  25.296  11.930
10611W        W82140   5.787  35.489  11.446
10612W        W82141   5.920  24.718   3.260
10613W        W82142  23.404  11.735  13.470
10614W        W82143  19.678  26.872   1.896
10615W        W82144  35.584  28.713   4.658
10616W        W82145  28.586  34.830   3.362
10617W        W82146  39.847   3.708  12.915
10618W        W82147  22.626  25.156  14.329
10619W        W82148  22.123   5.019  14.892
10620W        W82149  36.816   4.451  14.908
10621W        W82150  20.563  18.453  14.022
10622W        W82151  37.409   7.366  12.913
10623W        W82152   1.982  18.843   4.156
10624W        W82153  17.555  34.894   4.277
10625W        W82154  43.018  15.488  14.375
10626W        W82155  14.061  22.187  13.293
10627W        W82156  25.532  37.870   4.598
10628W        W82157   1.409  17.174   0.855
10629W        W82158   2.958  26.060   2.338
10630W        W82159  15.466  31.697  14.690
10631W        W82160   5.625  37.941  14.036
10632W        W82161  43.153  18.271   3.205
10633W        W82162  30.824  42.869  12.020
10634W        W82163  35.308   7.752   2.118
10635W        W82164  39.325  44.030  10.661
10636W        W82165  18.452  30.837   4.994
10637W        W82166  12.870  24.201   4.085
10638W        W82167  27.660  44.418   2.342
10639W        W82168  20.728  20.095  11.044
10640W        W82169  30.079  12.698  10.284
10641W        W82170  23.173  36.046   4.429
10642W        W82171  17.506  40.549  12.454
10643W        W82172  32.118  15.811   1.845
10644W        W82173  26.408  19.740  14.456
10645W        W82174  16.450  29.205   1.240
10646W        W82175  36.453  30.592  14.328
10647W        W82176  23.192  39.043  13.483
10648W        W82177  25.413   1.385   0.296
10649W        W82178  12.641  21.984   0.279
10650W        W82179  28.019  25.140  13.373
10651W        W82180   9.648   8.696   1.022
10652W        W82181   6.061  35.994   9.796
10653W        W82182   3.696   4.018  14.999
10654W        W82183   3.710  31.139  14.880
10655W        W82184  13.941  21.586  11.684
10656W        W82185  33.202  37.627   0.706
10657W        W82186  33.376  38.546   1.796
10658W        W82187  39.870  29.395   2.301
10659W        W82188   6.649  17.722  13.429
10660W        W82189  17.709  24.757   2.951
10661W        W82190   8.687  30.890   0.072
10662W        W82191   9.873   3.243  11.835
10663W        W82192  18.225  21.767   0.852
10664W        W82193  27.678  43.513   2.281
10665W        W82194  30.655   9.346   4.534
10666W        W82195  21.083   7.133   3.949
10667W        W82196  24.920  28.490  13.039
10668W        W82197  28.995   6.679   0.577
10669W        W82198  43.294   8.748  14.991
10670W        W82199  30.483   6.309  10.588
10671W        W82200  21.716  27.049  13.481
10672W        W82201  25.719  38.181   0.846
10673W        W82202  16.665   4.957  13.473
10674W        W82203   2.348  29.362   4.321
10675W        W82204   9.828  19.713   1.901
10676W        W82205  24.327  25.437   1.416
10677W        W82206  32.456  21.652  11.523
10678W        W82207  38.494  19.117  13.973
10679W        W82208  24.432  42.129  12.086
10680W        W82209  18.759  20.206   2.267
10681W        W82210  30.963  30.481   3.039
10682W        W82211  38.992  32.029  12.037
10683W        W82212  27.660   2.894  12.111
10684W        W82213   5.761  12.456   0.958
10685W        W82214  31.391   4.332  12.039
10686W        W82215   4.827  36.568   1.847
10687W        W82216  10.181   0.452  12.024
10688W        W82217  13.288   7.916  11.153
10689W        W82218  25.624   5.641   2.732
10690W        W82219   9.111  39.329   2.257
10691W        W82220   5.903  10.673  13.039
10692W        W82221  18.696  21.841   4.859
10693W        W82222  26.299  31.975   2.761
10694W        W82223  18.352  27.884   5.116
10695W        W82224   3.919  12.876   2.865
10696W        W82225  14.637  43.935   0.033
10697W        W82226  20.963  21.241  11.763
10698W        W82227  28.404  14.758   0.875
10699W        W82228   9.993  38.900  13.782
10700W        W82229  23.437   6.218   2.234
10701W        W82230   2.805   0.748   4.809
10702W        W82231  10.396   8.605  13.233
10703W        W82232  29.524  32.861   0.772
10704W        W82233  30.585  31.926  13.138
10705W        W82234  19.923  18.273  10.697
10706W        W82235  15.662  23.489  10.142
10707W        W82236  26.166  32.564  11.078
10708W        W82237  32.110  11.121   1.431
10709W        W82238  33.165  15.762   4.484
10710W        W82239  19.045  37.448   2.233
10711W        W82240  44.512   5.282  11.144
10712W        W82241  23.165  39.351  12.112
10713W        W82242  18.139  29.205   4.063
10714W        W82243  15.835  13.547  10.372
10715W        W82244   4.755  22.594   1.124
10716W        W82245   4.511  39.574   0.790
10717W        W82246  23.409  28.684   4.539
10718W        W82247   4.750  25.211   4.643
10719W        W82248  43.831  41.792  12.567
10720W        W82249  36.753  31.636  14.795
10721W        W82250   7.817  19.773   2.954
10722W        W82251  26.436  17.760  14.395
10723W        W82252  17.511   5.795   2.607
10724W        W82253  14.190  19.217   1.360
10725W        W82254  12.064  41.747  12.336
10726W        W82255  19.140  21.328   3.723
10727W        W82256  24.916   4.233  14.568
10728W        W82257   6.262  28.535  10.211
10729W        W82258  30.546  40.560   1.791
10730W        W82259  10.297  43.702  11.482
10731W        W82260  39.400  23.156   4.909
10732W        W82261  18.579  33.103   1.597
10733W        W82262  44.306  30.731   1.836
10734W        W82263   3.542  25.828   5.028
10735W        W82264  32.099  30.319   0.350
10736W        W82265  19.628  23.640  14.026
10737W        W82266  43.390  20.124   1.787
10738W        W82267  26.448  19.068  10.817
10739W        W82268  22.981  28.021  10.735
10740W        W82269  38.614  28.640  13.746
10741W        W82270  13.688   0.842   1.382
10742W        W82271  26.636  36.924   0.231
10743W        W82272  26.591   6.744   5.064
10744W        W82273  20.003  25.647  11.500
10745W        W82274  28.022  34.973  13.112
10746W        W82275   1.931  26.551  10.474
10747W        W82276  36.441  32.987   1.687
10748W        W82277  18.320   2.810  11.599
10749W        W82278  28.130  11.134   1.305
10750W        W82279   0.004  40.495  11.528
10751W        W82280  29.404  42.053   3.213
10752W        W82281   5.449  22.559  11.168
10753W        W82282  44.335  18.606   4.118
10754W        W82283  17.416  33.887  11.990
10755W        W82284  13.677  33.873  12.545
10756W        W82285  23.101   2.549  13.293
10757W        W82286  12.053  39.517  12.907
10758W        W82287  18.978  42.529  11.147
10759W        W82288  23.329  30.597  12.015
10760W        W82289  12.325   8.439  13.606
10761W        W82290  21.528  25.986   0.890
10762W        W82291  33.657  40.428  11.630
10763W        W82292  41.434  25.904   4.112
10764W        W82293  16.252   6.595  14.893
10765W        W82294  32.973   3.746   3.363
10766W        W82295  41.490  43.922  12.260
10767W        W82296  30.049  37.598  10.997
10768W        W82297  18.302  33.024  13.449
10769W        W82298  10.713   8.027  12.019
10770W        W82299  19.595  37.324   4.545
10771W        W82300   9.868  19.503  11.990
10772W        W82301  12.322  34.198  12.584
10773W        W82302  19.737  18.034  13.289
10774W        W82303   9.211  36.926  14.279
10775W        W82304  11.205  16.132   1.486
10776W        W82305  23.106  41.876   5.624
10777W        W82306   5.333  10.415  14.258
10778W        W82307  18.686  42.088  14.800
10779W        W82308  38.994  29.414  13.094
10780W        W82309  19.235   8.332   2.350
10781W        W82310  16.505  35.031  13.857
10782W        W82311   4.683   8.844   3.112
10783W        W82312   0.912  21.733   2.934
10784W        W82313   4.325  36.587  14.794
10785W        W82314  40.765  30.585  10.901
10786W        W82315  25.989  40.613   0.832
10787W        W82316  44.994   0.799   3.251
10788W        W82317  20.764  12.228   0.036
10789W        W82318  43.913   6.442   4.206
10790W        W82319   0.708  22.056   0.878
10791W        W82320   0.975  43.253  13.896
10792W        W82321   9.129  27.473  11.991
10793W        W82322  13.753  24.166  12.066
10794W        W82323  40.568  31.421   4.845
10795W        W82324  15.305  30.184   0.135
10796W        W82325  31.478  32.535  13.590
10797W        W82326  14.061  26.701   4.074
10798W        W82327  44.503  18.335  10.238
10799W        W82328   2.431  40.556  11.102
10800W        W82329  21.603  17.131  12.512
10801W        W82330  15.326   5.312  13.922
10802W        W82331  32.166  41.449  10.805
10803W        W82332  28.570   5.147   2.162
10804W        W82333  26.480  20.291   3.064
10805W        W82334  12.714  30.643  10.691
10806W        W82335  17.083  21.139   1.864
10807W        W82336  42.041   7.776  13.399
10808W        W82337  13.690  10.198  14.788
10809W        W82338  33.304  38.364  10.313
10810W        W82339  15.759  32.482   1.889
10811W        W82340  14.206   3.249   1.424
10812W        W82341  39.475  18.342  14.045
10813W        W82342  41.091  40.285  12.073
10814W        W82343  42.419  39.263   1.819
10815W        W82344  33.058  18.172  12.951
10816W        W82345   3.326   5.061  12.196
10817W        W82346  41.345  30.829  14.993
10818W        W82347   9.771   5.295  11.122
10819W        W82348  28.418  15.608   2.294
10820W        W82349  14.667  38.567   3.256
10821W        W82350  38.881  12.049  13.866
10822W        W82351  17.734  39.537   1.153
10823W        W82352  29.837  29.441   2.569
10824W        W82353  13.139   1.244  14.787
10825W        W82354  11.812  36.041  12.183
10826W        W82355  35.963  41.504   0.256
10827W        W82356  21.564  34.069   4.089
10828W        W82357  42.525   8.027  13.375
10829W        W82358   4.763  13.194   0.193
10830W        W82359  17.145  37.684   2.223
10831W        W82360   8.923  29.547   3.083
10832W        W82361  19.314  21.326  14.434
10833W        W82362  14.054  44.486  12.503
10834W        W82363  31.196  34.054  11.046
10835W        W82364  42.234  33.318  11.488
10836W        W82365  18.226  31.428  14.209
10837W        W82366  21.633  31.562  12.209
10838W        W82367  23.798   0.943  11.077
10839W        W82368  32.955   0.294   4.686
10840W        W82369  27.689  19.030  14.083
10841W        W82370  44.539  32.543   4.930
10842W        W82371   6.349  15.907  10.612
10843W        W82372  26.579  30.850   2.286
10844W        W82373  38.684   3.698  14.153
10845W        W82374  34.392  31.497   0.405
10846W        W82375  10.867  32.686   0.908
10847W        W82376  11.750  22.692  13.291
10848W        W82377   7.982  25.683  14.765
10849W        W82378  15.810  37.027   5.029
10850W        W82379  19.450  34.708  14.482
10851W        W82380  31.818   2.926   0.698
10852W        W82381  28.996  10.198   2.707
10853W        W82382  23.059  13.530   4.668
10854W        W82383  18.851  22.901  11.538
10855W        W82384  27.757  24.125   0.494
10856W        W82385  24.907   4.745   2.191
10857W        W82386  33.116  16.290   4.335
10858W        W82387  43.456   4.779  10.592
10859W        W82388  12.243  44.831  11.046
10860W        W82389   1.843  28.593   4.532
10861W        W82390  20.662  43.397   2.757
10862W        W82391  42.176   6.258   1.484
10863W        W82392  22.525  24.728   0.811
10864W        W82393  32.226  33.038   2.771
10865W        W82394  19.228  42.996  10.265
10866W        W82395  15.191  16.093   3.409
10867W        W82396  35.062  17.297   3.573
10868W        W82397  34.043  33.799   1.642
10869W        W82398  32.383  16.231   1.670
10870W        W82399  38.340   5.985   3.836
10871W        W82400  40.284  26.747  10.312
10872W        W82401  43.972  29.831  13.767
10873W        W82402  15.638  37.787   4.498
10874W        W82403  17.735  36.514   4.059
10875W        W82404  11.069  32.550   0.355
10876W        W82405  28.060  38.138   1.784
10877W        W82406  25.140  30.161   2.524
10878W        W82407  26.469  29.799   2.198
10879W        W82408  21.087  39.470   2.758
10880W        W82409   7.447  29.571  10.825
10881W        W82410   3.100  16.778   4.909
10882W        W82411  19.690  21.107  10.153
10883W        W82412  23.951  35.859   2.704
10884W        W82413  37.544   0.510  14.328
10885W        W82414   8.693  10.779  11.057
10886W        W82415  28.953  29.528  11.534
10887W        W82416  22.761  10.266   1.925
10888W        W82417  41.202   8.636   4.258
10889W        W82418  20.309  25.589  14.885
10890W        W82419  29.421  44.056   3.815
10891W        W82420  27.182  19.108  14.212
10892W        W82421  29.729  27.485  12.004
10893W        W82422  20.644  21.885  11.193
10894W        W82423  36.889  38.494  14.043
10895W        W82424   1.864  13.040  12.884
10896W        W82425  20.023  25.259   3.671
10897W        W82426  12.268  44.916   3.656
10898W        W82427  42.831  26.593   0.790
10899W        W82428  11.638  36.308  11.107
10900W        W82429  42.801  41.362  10.765
10901W        W82430  44.250  29.574   4.515
10902W        W82431   6.393  41.672   3.221
10903W        W82432  39.962  12.617  13.543
10904W        W82433  10.324   2.331   0.487
10905W        W82434  18.964  34.605  11.657
10906W        W82435  26.331  37.506  14.902
10907W        W82436  28.440   2.773  13.376
10908W        W82437   4.178  36.261   3.855
10909W        W82438  11.868   9.184   4.072
10910W        W82439  36.993  37.684  13.713
10911W        W82440  15.111  10.164  12.005
10912W        W82441  40.075   3.375   1.479
10913W        W82442  13.093   5.094   4.588
10914W        W82443  20.286   4.473   3.536
10915W        W82444   0.735  21.171  11.328
10916W        W82445  17.162   8.214   0.749
10917W        W82446  35.826  39.448  11.596
10918W        W82447  27.623   4.983  10.163
10919W        W82448  19.620  19.236   4.370
10920W        W82449  19.955  10.719   4.757
10921W        W82450  17.026  32.002   0.405
10922W        W82451  20.024   2.690   4.523
10923W        W82452  37.033  11.486   2.783
10924W        W82453   1.167  15.118   1.910
10925W        W82454  13.270   7.664  11.613
10926W        W82455   5.154  28.487   4.237
10927W        W82456  41.108   5.682   4.123
10928W        W82457   3.559  20.609   0.197
10929W        W82458  31.999  13.588   3.707
10930W        W82459  11.273  10.394  13.768
10931W        W82460  17.076  36.497   2.100
10932W        W82461  11.538  11.142   3.926
10933W        W82462  24.443  14.820   4.657
10934W        W82463  23.948  17.533   0.796
10935W        W82464  36.304   1.955   0.033
10936W        W82465   7.508   3.166  10.318
10937W        W82466  37.916  27.654   1.717
10938W        W82467  39.838  19.555   4.145
10939W        W82468  40.813  34.907   0.471
10940W        W82469  34.162  15.663   1.231
10941W        W82470   1.724  22.823  11.055
10942W        W82471  41.784   4.827   2.184
10943W        W82472  37.619   2.462   5.327
10944W        W82473  36.559  11.818  13.847
10945W        W82474  38.049  29.566   2.632
10946W        W82475  40.781  34.894   2.271
10947W        W82476   6.694  28.466  13.924
10948W        W82477   4.402  36.875  14.368
10949W        W82478   3.199  23.179   1.886
10950W        W82479  41.019   3.227   1.203
10951W        W82480  16.225  24.746   3.642
10952W        W82481  29.504  21.491   0.499
10953W        W82482  26.267  31.340   5.074
10954W        W82483  33.040  42.544   1.166
10955W        W82484  21.951  33.468  11.575
10956W        W82485   6.234  34.502   0.983
10957W        W82486   1.249  31.725  12.514
10958W        W82487  23.364   0.830   0.257
10959W        W82488   9.156  28.147   0.412
10960W        W82489  16.294   5.919   3.960
10961W        W82490  23.463  25.950  14.349
10962W        W82491   1.498  17.437   2.189
10963W        W82492  17.269  27.140  12.834
10964W        W82493  37.574   8.121  13.344
10965W        W82494  33.165  11.537  11.219
10966W        W82495  40.465  41.517   0.336
10967W        W82496  18.790  16.510  14.841
10968W        W82497  11.408  29.084   4.723
10969W        W82498  24.685  35.890   2.361
10970W        W82499   1.533  32.409  11.176
10971W        W82500  25.438  40.493  14.545
10972W        W82501  10.701  33.434  10.727
10973W        W82502  11.662   5.652   4.642
10974W        W82503  37.106  28.567  11.184
10975W        W82504  42.387  30.089  10.541
10976W        W82505  11.732  38.338  14.311
10977W        W82506  12.286  31.540  13.519
10978W        W82507   5.918  29.021  11.350
10979W        W82508   3.172  18.714   1.211
10980W        W82509   2.453   7.736  10.940
10981W        W82510  21.996   8.893  12.651
10982W        W82511  21.290  30.080  11.465
10983W        W82512  25.716  28.447  10.591
10984W        W82513  19.500  19.951  10.550
10985W        W82514  40.897  24.683  11.401
10986W        W82515   4.777  35.876   3.261
10987W        W82516   1.193  13.082  13.545
10988W        W82517  21.764  27.236  12.430
10989W        W82518  11.773  39.153  13.986
10990W        W82519  16.310  41.378   4.443
10991W        W82520   5.427   6.450   1.747
10992W        W82521  14.801  11.404  11.122
10993W        W82522  13.720  12.763   1.185
10994W        W82523  40.887  23.693   1.169
10995W        W82524  11.057  35.564   0.913
10996W        W82525  22.204  34.702   4.598
10997W        W82526  15.843  10.664  12.054
10998W        W82527  16.098  17.629  12.548
10999W        W82528  23.117  20.396   3.491
11000W        W82529  29.942  42.763  10.445
11001W        W82530  13.317  25.209   4.192
11002W        W82531   1.214  42.501   0.377
11003W        W82532   8.138  10.239  14.449
11004W        W82533  10.292  26.116  11.468
11005W        W82534  27.012  15.387   2.261
11006W        W82535  26.895  25.987   4.153
11007W        W82536  26.231  10.637  11.155
11008W        W82537  19.180  41.830   4.114
11009W        W82538  18.309  34.088   2.707
11010W        W82539   2.940   5.407  12.367
11011W        W82540  29.067  44.318  10.446
11012W        W82541  38.543  38.054  10.505
11013W        W82542   6.273  28.071  11.085
11014W        W82543  23.565  27.920   3.287
11015W        W82544  36.453  19.022   4.711
11016W        W82545  27.484  35.848   3.358
11017W        W82546  17.723  15.730   4.356
11018W        W82547  21.167   1.234  14.928
11019W        W82548  37.266  27.372  14.919
11020W        W82549  29.861  36.263  12.483
11021W        W82550   5.489  10.747   1.801
11022W        W82551  10.663  16.420   3.719
11023W        W82552  10.291   3.858  14.768
11024W        W82553  34.446  41.311   3.818
11025W        W82554  14.806  39.716  12.807
11026W        W82555  35.558  15.321  12.016
11027W        W82556  33.402  27.493   2.259
11028W        W82557  41.553  25.576  13.944
11029W        W82558   3.805   5.570   0.940
11030W        W82559  39.917  41.275  11.339
11031W        W82560   3.683  28.855   4.190
11032W        W82561  41.087   7.656   4.078
11033W        W82562   0.421  44.491  14.786
11034W        W82563   5.310  36.841  12.772
11035W        W82564  14.449  13.818  11.292
11036W        W82565  10.390  37.636  13.451
11037W        W82566   3.982   1.936  12.010
11038W        W82567  31.359  12.878   1.800
11039W        W82568  42.953   5.732   3.094
11040W        W82569   7.687  12.640   0.257
11041W        W82570   8.185  23.141  13.433
11042W        W82571   7.944  10.457   1.510
11043W        W82572  15.383   4.760   0.954
11044W        W82573  29.911  31.992  13.331
11045W        W82574  29.198  37.267   0.299
11046W        W82575  29.006   1.337   2.213
11047W        W82576  36.485   2.273   4.089
11048W        W82577  36.780  29.222  14.888
11049W        W82578   5.367   5.011  13.445
11050W        W82579  41.230  36.617  14.767
11051W        W82580   9.346  24.562   3.370
11052W        W82581  36.765  42.016   0.047
11053W        W82582   9.713  11.121   2.408
11054W        W82583   3.790  13.114  13.393
11055W        W82584  18.376  38.822   0.930
11056W        W82585   1.350  36.636   2.738
11057W        W82586  19.059   1.298   4.571
11058W        W82587  42.818  14.869   1.771
11059W        W82588  21.703  33.080  14.791
11060W        W82589  25.560   9.635  14.664
11061W        W82590  33.462   8.871   2.989
11062W        W82591  14.635   2.902   3.218
11063W        W82592   9.947   9.901  12.280
11064W        W82593  10.196  43.024  12.306
11065W        W82594  22.144   6.366   3.791
11066W        W82595  41.967  16.659  13.862
11067W        W82596  37.985  13.315   3.305
11068W        W82597  10.232  36.590  12.465
11069W        W82598  42.383  25.405  14.904
11070W        W82599  38.146  32.673  14.616
11071W        W82600  31.191   0.816  12.949
11072W        W82601  10.715  32.275   1.187
11073W        W82602  19.996  31.629  13.746
11074W        W82603  39.832  32.575  12.190
11075W        W82604  19.994   7.705  13.614
11076W        W82605  38.156   0.332   2.455
11077W        W82606  14.530  25.703   0.576
11078W        W82607  16.167  23.403   1.258
11079W        W82608  13.997  42.128   2.579
11080W        W82609  19.775  30.164  11.665
11081W        W82610   0.856  25.108   2.188
11082W        W82611  37.867  13.097   4.633
11083W        W82612  12.835  28.828  11.299
11084W        W82613  32.702  16.585   3.494
11085W        W82614   2.445  28.139   1.273
11086W        W82615  12.724  26.754   2.338
11087W        W82616  39.807  18.223  12.867
11088W        W82617  30.960  28.279   1.883
11089W        W82618  19.276   4.691  10.445
11090W        W82619   1.924  19.613   0.454
11091W        W82620   5.697  42.842  11.024
11092W        W82621  34.524  16.737   3.215
11093W        W82622  14.302   1.570   3.321
11094W        W82623  44.324  13.151   0.309
11095W        W82624  20.561  22.619   3.153
11096W        W82625  29.595  27.460  12.496
11097W        W82626  24.256  11.398  14.556
11098W        W82627  16.198  29.975  13.890
11099W        W82628  36.583  26.494  10.719
11100W        W82629  10.076   1.618   5.035
11101W        W82630  33.452   1.683   9.971
11102W        W82631  21.751  27.935   3.231
11103W        W82632  12.897   6.301  13.878
11104W        W82633   0.988  38.184   2.131
11105W        W82634   1.277  24.982  14.852
11106W        W82635  34.971  11.796  12.019
11107W        W82636  26.963   7.629   4.562
11108W        W82637   1.002   3.707   4.708
11109W        W82638   1.267  13.134   3.713
11110W        W82639  13.850  13.789   3.617
11111W        W82640   4.300   7.145   1.933
11112W        W82641  17.828   5.933   1.153
11113W        W82642   5.803  11.433   0.732
11114W        W82643  12.194  35.847   3.403
11115W        W82644  33.298   9.525   9.740
11116W        W82645  42.816  20.322   3.745
11117W        W82646  40.428  37.092   4.525
11118W        W82647  35.534  19.848   0.280
11119W        W82648  24.662   0.174   2.850
11120W        W82649  20.800  32.958   0.656
11121W        W82650  28.864  11.276   0.789
11122W        W82651   8.837  13.097   3.702
11123W        W82652  37.258  38.420   1.348
11124W        W82653  26.653  16.014  14.947
11125W        W82654  41.323  24.733   2.889
11126W        W82655  20.261  16.805  11.162
11127W        W82656  30.002  38.551   2.366
11128W        W82657  25.698  14.324  14.166
11129W        W82658  25.164   2.859  11.500
11130W        W82659  10.727  30.009   1.207
11131W        W82660   6.672   8.190   1.778
11132W        W82661  29.599   5.904  10.694
11133W        W82662  10.351  36.486  10.701
11134W        W82663  34.157  21.563  11.091
11135W        W82664  43.097  14.240  12.422
11136W        W82665  21.140  39.271  10.378
11137W        W82666  17.218  12.695   0.035
11138W        W82667  31.371  32.974   1.983
11139W        W82668  15.241  26.616   0.365
11140W        W82669  29.120  25.772  12.000
11141W        W82670  40.582  27.885   2.268
11142W        W82671  30.656  16.663   4.228
11143W        W82672   3.437   4.922  11.211
11144W        W82673   6.042  39.188   1.949
11145W        W82674  11.575  30.470   1.150
11146W        W82675  31.111   5.829  14.730
11147W        W82676  16.681  41.901  12.927
11148W        W82677  14.192   8.355   5.074
11149W        W82678  38.896  30.921   2.875
11150W        W82679  34.285  20.234   3.212
11151W        W82680  18.193  12.995   4.712
11152W        W82681  37.642  24.730   3.827
11153W        W82682  34.897  14.060  13.572
11154W        W82683  18.350  33.485   4.605
11155W        W82684  29.930  10.543   4.086
11156W        W82685  14.814   7.579  12.410
11157W        W82686  28.480  27.802  12.987
11158W        W82687  24.047   4.731  14.873
11159W        W82688   9.383  29.044   0.521
11160W        W82689  25.851  41.457  11.994
11161W        W82690  44.703  23.005  11.505
11162W        W82691   5.068   9.420  12.367
11163W        W82692  20.073  38.498   2.144
11164W        W82693  27.696  16.673   4.007
11165W        W82694  40.127  27.223   1.823
11166W        W82695  30.399  12.753  11.638
11167W        W82696  23.036  33.456   2.704
11168W        W82697  35.125  26.732   4.991
11169W        W82698  32.154   8.934  12.714
11170W        W82699   7.164  15.057  13.095
11171W        W82700  44.316   5.728   1.448
11172W        W82701  16.795   9.789  14.895
11173W        W82702  24.815   4.621  12.810
11174W        W82703   6.780  38.775  12.088
11175W        W82704  18.717  18.645  10.751
11176W        W82705   2.570  36.455  14.386
11177W        W82706  25.656  14.597   1.530
11178W        W82707  30.020  13.394  12.475
11179W        W82708  32.613  43.949  13.498
11180W        W82709   8.861  22.009  10.798
11181W        W82710  13.396  40.502  12.997
11182W        W82711  20.035  22.669   4.673
11183W        W82712  38.236  12.342   3.785
11184W        W82713  19.585  10.572  13.041
11185W        W82714  16.139  28.014   4.506
11186W        W82715   1.964   1.961   1.422
11187W        W82716  12.812  42.762   4.204
11188W        W82717  27.483  42.497  13.478
11189W        W82718  41.707   7.595   2.435
11190W        W82719  41.131  22.638  12.854
11191W        W82720  23.230  38.042  13.339
11192W        W82721  28.074  25.457   0.012
11193W        W82722  27.464  35.961  14.926
11194W        W82723  43.929  19.969   3.260
11195W        W82724  14.645  17.447   1.156
11196W        W82725  25.276  18.830   2.917
11197W        W82726  39.466   2.829   2.845
11198W        W82727  22.813   9.636  12.035
11199W        W82728  11.082  12.231  12.811
11200W        W82729  13.360   9.865   0.795
11201W        W82730   8.213  36.416  11.630
11202W        W82731  27.585  12.519  10.636
11203W        W82732  44.790  41.414   0.335
11204W        W82733  10.225  23.261   2.980
11205W        W82734  14.775  28.225   4.601
11206W        W82735  23.028   2.222  12.876
11207W        W82736   6.377  18.729  14.805
11208W        W82737  44.384  25.452   2.865
11209W        W82738   7.158   6.820   3.323
11210W        W82739  44.752  17.540   2.832
11211W        W82740  34.560  27.983  13.950
11212W        W82741  20.035  20.740   2.976
11213W        W82742  15.370  24.207  13.022
11214W        W82743  11.594  40.064   0.467
11215W        W82744   0.002   4.284   1.438
11216W        W82745  38.596  20.257  14.398
11217W        W82746  15.965  42.947   4.812
11218W        W82747  24.988  17.585  13.051
11219W        W82748  30.969   8.733   0.182
11220W        W82749  35.658   8.888  13.094
11221W        W82750  10.295   9.105   2.720
11222W        W82751   1.979  44.603   9.963
11223W        W82752   8.968   2.329  10.337
11224W        W82753  15.554   8.739  14.506
11225W        W82754   6.641  23.036   1.338
11226W        W82755  27.941  43.281  11.722
11227W        W82756   4.444  40.870  14.308
11228W        W82757  14.961   7.875   2.375
11229W        W82758  44.011   1.408   2.228
11230W        W82759  14.110  36.097  11.856
11231W        W82760  19.819  23.192  13.340
11232W        W82761  23.531   7.322  12.857
11233W        W82762  32.923  39.718  13.219
11234W        W82763  21.488  24.704  13.043
11235W        W82764  36.427  44.171  11.073
11236W        W82765  44.256  40.202   2.220
11237W        W82766   9.398  27.440   2.527
11238W        W82767  26.022   7.293  13.586
11239W        W82768  28.652  32.966   0.678
11240W        W82769  27.596  35.177   0.756
11241W        W82770  30.897   6.812  11.798
11242W        W82771  20.642  23.897  11.684
11243W        W82772   8.655  12.285   1.370
11244W        W82773   0.671  34.897   3.051
11245W        W82774  19.708   1.335  13.384
11246W        W82775  11.826  35.097   3.158
11247W        W82776  13.640   6.788  14.046
11248W        W82777  23.212  21.159  11.466
11249W        W82778  14.311  41.918  12.998
11250W        W82779  13.204  27.768   1.131
11251W        W82780  17.143   5.043   4.448
11252W        W82781   3.318   2.490   1.043
11253W        W82782  15.600   3.324   4.202
11254W        W82783  12.779  28.530   0.013
11255W        W82784  26.206  19.597   4.190
11256W        W82785   0.763   6.807   0.227
11257W        W82786  43.469  12.761  14.290
11258W        W82787  37.080  16.219   1.937
11259W        W82788  23.745  10.427   4.078
11260W        W82789  10.074  15.228   1.339
11261W        W82790  28.065   9.655   3.219
11262W        W82791  24.310  21.723   2.719
11263W        W82792  12.533   3.234   4.552
11264W        W82793  12.107   5.360  11.955
11265W        W82794   3.471  21.495   1.901
11266W        W82795  32.066   1.940  11.562
11267W        W82796  12.862  15.323  12.029
11268W        W82797   6.518  11.778   0.936
11269W        W82798   1.486   0.539  10.724
11270W        W82799   9.785  12.250  13.462
11271W        W82800  13.788  16.754   3.676
11272W        W82801  38.518  34.168   0.857
11273W        W82802  31.434  36.825  14.191
11274W        W82803  13.135  41.546  14.758
11275W        W82804   9.918   2.261   3.974
11276W        W82805  24.237  34.026   2.336
11277W        W82806  11.045  33.318  14.312
11278W        W82807  26.020  10.671  12.148
11279W        W82808  42.406  38.592   4.409
11280W        W82809  41.124   4.145   2.165
11281W        W82810  28.378  42.475  11.606
11282W        W82811  26.762  34.465  13.353
11283W        W82812  14.605  11.908   4.263
11284W        W82813   8.737  38.084  13.963
11285W        W82814  33.482  43.912  12.675
11286W        W82815  32.870  37.136  14.290
11287W        W82816  13.784  19.746  12.806
11288W        W82817  11.627   5.521  11.988
11289W        W82818  31.010  22.850  10.199
11290W        W82819  28.014  18.309   1.614
11291W        W82820  37.734  16.765   2.888
11292W        W82821  18.748  32.631   1.885
11293W        W82822  28.193  34.633   1.287
11294W        W82823  19.765  26.086   0.367
11295W        W82824  12.195  42.278   1.115
11296W        W82825   5.886  38.917   4.586
11297W        W82826   2.006  11.243  12.632
11298W        W82827   6.384  44.877   0.924
11299W        W82828  26.345   2.076  14.729
11300W        W82829  28.581  20.271  14.377
11301W        W82830  30.788  33.888  14.436
11302W        W82831  21.214  19.798  13.390
11303W        W82832   1.486  20.592   2.378
11304W        W82833  17.626   3.151   2.229
11305W        W82834  43.190  16.659   3.356
11306W        W82835  15.850  28.733  12.568
11307W        W82836  26.300  12.662  11.893
11308W        W82837  23.242   6.126   1.231
11309W        W82838  14.323  37.873   4.152
11310W        W82839  16.794   2.162   3.315
11311W        W82840   7.682  13.333  14.437
11312W        W82841  37.087  28.035  12.432
11313W        W82842  38.074  25.670   4.534
11314W        W82843  42.749  24.934  14.030
11315W        W82844   9.655   6.421   2.914
11316W        W82845  39.531  16.838  14.038
11317W        W82846  26.482   1.070   1.402
11318W        W82847   7.470  39.371  11.181
11319W        W82848   4.965  37.352   4.014
11320W        W82849  29.751  38.542  14.682
11321W        W82850  23.526  29.476   0.769
11322W        W82851  43.074   0.748  13.032
11323W        W82852  22.190  38.836  14.828
11324W        W82853  38.821   8.167   0.498
11325W        W82854  33.408   4.929  11.015
11326W        W82855   8.699  34.810  12.276
11327W        W82856  20.823   8.287  12.993
11328W        W82857  37.806  18.354   0.204
11329W        W82858   0.944  25.366   0.850
11330W        W82859  39.549  11.284  10.635
11331W        W82860  13.727  12.196  11.879
11332W        W82861   9.330  14.681  12.087
11333W        W82862  12.528   9.111   1.863
11334W        W82863  42.288  16.367  13.575
11335W        W82864   8.794  18.049  11.483
11336W        W82865  38.912   8.187  14.467
11337W        W82866   9.535   7.626  11.968
11338W        W82867  43.706  26.816   0.594
11339W        W82868  34.582  37.886   0.346
11340W        W82869  36.171  39.032   3.687
11341W        W82870  29.293  31.905   0.289
11342W        W82871   7.591   8.203  10.802
11343W        W82872   7.707   4.400   3.608
11344W        W82873  36.371  14.753   1.679
11345W        W82874   2.714  41.228  14.991
11346W        W82875  38.003  39.924  13.500
11347W        W82876  16.742  20.924  13.767
11348W        W82877  28.401   0.911   1.330
11349W        W82878  36.386  10.862   3.610
11350W        W82879  33.331   7.233  12.189
11351W        W82880  16.716  12.220   3.381
11352W        W82881   1.766  21.797   2.589
11353W        W82882  31.857  26.439   0.461
11354W        W82883  13.111  42.776   2.610
11355W        W82884  32.786   9.953   4.494
11356W        W82885  34.435  13.835   1.328
11357W        W82886  43.432  44.728  14.350
11358W        W82887  31.752  39.214  12.035
11359W        W82888  21.827  14.066  10.697
11360W        W82889  43.291  37.032  12.005
11361W        W82890  27.500   1.287   1.235
11362W        W82891  39.606  26.382  10.209
11363W        W82892  16.268  33.960   2.140
11364W        W82893  29.497  32.183  10.718
11365W        W82894  15.782  25.484  11.595
11366W        W82895  10.398  15.119  12.557
11367W        W82896   9.214  34.641   0.467
11368W        W82897  23.759   1.129  14.522
11369W        W82898  28.763  37.956  10.566
11370W        W82899  38.661   1.397   0.697
11371W        W82900  19.802  34.467   2.178
11372W        W82901  40.782  21.609  10.738
11373W        W82902   8.171  11.745  11.236
11374W        W82903  19.593  10.375  11.605
11375W        W82904  14.313  39.815  11.037
11376W        W82905  32.324  23.470   0.055
11377W        W82906  35.659  12.565   1.117
11378W        W82907  39.434  14.347  13.279
11379W        W82908  30.664  16.569   1.935
11380W        W82909   0.139  40.446  11.029
11381W        W82910  23.723   2.558   0.421
11382W        W82911   7.204  37.909  14.983
11383W        W82912   8.383  24.934  14.053
11384W        W82913   5.523  43.344  11.528
11385W        W82914  21.167  28.652   3.987
11386W        W82915  35.390  39.375  11.234
11387W        W82916  42.200  17.051  11.197
11388W        W82917  14.814  16.751   2.790
11389W        W82918  13.762  12.392   4.235
11390W        W82919  29.601   5.724  12.638
11391W        W82920   8.695  10.212   3.321
11392W        W82921  31.707   3.381  12.268
11393W        W82922   9.108  15.324  11.169
11394W        W82923  44.182  11.560  12.638
11395W        W82924  16.737   7.427  13.295
11396W        W82925  35.308   4.859  10.703
11397W        W82926  13.778  16.794   1.394
11398W        W82927  14.191  22.238   4.379
11399W        W82928  10.170  40.088   1.441
11400W        W82929   6.426  11.814   0.036
11401W        W82930  39.840  14.033   2.602
11402W        W82931   4.622  34.441   0.784
11403W        W82932  11.045  20.198   4.510
11404W        W82933  13.065  32.203   1.861
11405W        W82934  23.110  14.132  14.085
11406W        W82935  31.950  24.572   3.692
11407W        W82936  43.727  15.795   3.355
11408W        W82937  19.044   2.309   2.704
11409W        W82938  39.869   3.868   2.097
11410W        W82939  15.292  19.459   2.259
11411W        W82940  14.657   8.963  13.547
11412W        W82941  26.553   3.079  10.780
11413W        W82942   8.379  11.449   1.852
11414W        W82943  22.816   8.627  10.285
11415W        W82944  25.327  32.094  13.357
11416W        W82945  28.651  25.085   5.067
11417W        W82946  42.707  19.052   1.690
11418W        W82947   1.838  12.433  13.741
11419W        W82948  43.890  13.776   1.806
11420W        W82949  11.083  35.028   4.067
11421W        W82950  12.190  32.658  11.090
11422W        W82951  40.906   9.468  14.339
11423W        W82952  29.880   8.743  11.411
11424W        W82953  42.459  11.221  11.629
11425W        W82954  23.477  39.230   4.213
11426W        W82955  12.322  24.530   0.943
11427W        W82956  13.836   7.167  11.714
11428W        W82957  44.834  39.341   2.333
11429W        W82958  37.385  42.716  11.363
11430W        W82959  11.803  19.311  13.353
11431W        W82960  30.834  37.979  12.509
11432W        W82961  16.246   6.357  10.613
11433W        W82962   6.413  21.140   3.152
11434W        W82963  25.467  26.666   4.143
11435W        W82964  25.041  17.207  13.995
11436W        W82965  32.037   3.232   2.813
11437W        W82966   8.606   4.364   3.426
11438W        W82967  35.548  16.058   3.400
11439W        W82968  36.594  26.693   2.271
11440W        W82969  31.414  36.086  10.603
11441W        W82970  29.476  34.961   4.201
11442W        W82971   9.259   8.171  13.327
11443W        W82972  25.727   6.116   2.476
11444W        W82973  12.603  18.663  12.956
11445W        W82974  37.823   6.443   1.430
11446W        W82975  18.348  14.757   0.308
11447W        W82976  35.359   9.748  12.478
11448W        W82977   7.085  36.502  14.615
11449W        W82978  31.614  25.694  14.833
11450W        W82979   6.594  39.810   3.128
11451W        W82980  30.131  29.054   1.442
11452W        W82981  38.845  30.661  14.916
11453W        W82982   6.479  38.378   1.884
11454W        W82983  35.487  30.402  14.523
11455W        W82984  24.637  22.494   2.316
11456W        W82985   5.256  28.341   1.316
11457W        W82986  12.572   5.242  12.090
11458W        W82987  41.839  21.143  12.162
11459W        W82988  26.058  43.290  14.695
11460W        W82989  33.598  37.058  11.559
11461W        W82990  37.807   3.357  11.987
11462W        W82991   0.367   5.456   4.393
11463W        W82992  28.475  42.919  10.558
11464W        W82993   5.420  30.013  14.066
11465W        W82994   3.988  41.753  14.821
11466W        W82995   5.408  21.568   4.538
11467W        W82996  42.309   7.283  12.673
11468W        W82997  17.300   4.821   2.838
11469W        W82998  41.452  39.753   0.973
11470W        W82999  31.675  30.615   0.302
11471W        W83000  39.912  29.086   1.904
11472W        W83001   0.810   7.839  12.831
11473W        W83002  37.861  11.721  13.589
11474W        W83003  37.420  27.657  12.621
11475W        W83004  44.962  27.505   0.272
11476W        W83005  26.461  22.673   3.851
11477W        W83006  36.449  28.094   4.632
11478W        W83007  32.096  34.400   4.565
11479W        W83008  35.418  10.242  13.015
11480W        W83009  43.241  44.252  12.994
11481W        W83010  42.430  37.456  14.271
11482W        W83011  12.875  39.785  10.638
11483W        W83012  37.162  41.272   9.808
11484W        W83013   5.259   5.699   2.320
11485W        W83014   2.059  29.537  12.023
11486W        W83015  16.102  42.764  13.735
11487W        W83016  32.395   0.374  14.619
11488W        W83017  39.002  17.991  13.362
11489W        W83018  42.261  15.224  14.665
11490W        W83019  29.066  26.556  13.204
11491W        W83020   4.777   3.996  10.611
11492W        W83021   5.076   8.858   0.924
11493W        W83022  34.949   8.183  14.783
11494W        W83023  32.253  43.738   2.635
11495W        W83024  10.961   5.421  10.734
11496W        W83025  17.663  26.649   0.236
11497W        W83026  35.381  42.280  12.939
11498W        W83027  10.693  39.574   3.838
11499W        W83028  13.420  11.161   4.529
11500W        W83029  32.572  42.474   4.230
11501W        W83030  34.035  30.021  13.827
11502W        W83031  17.809   2.335  14.270
11503W        W83032  17.417  34.545  11.702
11504W        W83033   2.402   6.505   5.062
11505W        W83034  17.748   9.174  11.035
11506W        W83035  41.996   0.181   1.956
11507W        W83036  13.368  22.255   1.472
11508W        W83037  43.378  34.085  13.981
11509W        W83038  15.435  35.830  14.053
11510W        W83039   8.414   4.350  13.897
11511W        W83040  16.811  14.196  10.807
11512W        W83041  22.073  27.977   3.655
11513W        W83042  25.676  27.435  14.546
11514W        W83043  23.874  37.649   1.233
11515W        W83044  43.121  40.561  10.951
11516W        W83045  35.912  16.998   2.589
11517W        W83046  40.094  24.919  14.481
11518W        W83047  39.351   8.237   1.308
11519W        W83048  44.766  36.819  10.636
11520W        W83049  25.338  27.320  12.719
11521W        W83050  25.164  20.247   2.310
11522W        W83051  40.412  15.557   4.861
11523W        W83052   7.968  19.191   5.038
11524W        W83053   9.127   3.401   1.690
11525W        W83054   8.386  24.004  14.473
11526W        W83055   8.547   6.708   0.426
11527W        W83056   7.796  15.358   4.002
11528W        W83057  21.209  33.587   2.255
11529W        W83058  39.037  15.325   2.366
11530W        W83059  38.218  19.286   1.976
11531W        W83060  41.783  20.021  12.556
11532W        W83061  17.771   9.654   3.952
11533W        W83062   1.248  12.570  13.523
11534W        W83063  18.286  35.055   4.281
11535W        W83064  41.996  24.420  10.432
11536W        W83065   5.498   0.370  12.036
11537W        W83066   6.253  27.699  13.437
11538W        W83067   5.839  35.219  13.408
11539W        W83068  17.394  39.944   3.589
11540W        W83069  11.697  40.983   4.312
11541W        W83070  15.566  12.301   2.469
11542W        W83071  17.102  15.221  10.713
11543W        W83072  16.572  26.222  12.370
11544W        W83073  24.975  37.542   3.152
11545W        W83074  26.180  28.748   3.809
11546W        W83075  20.406  16.285  12.351
11547W        W83076  39.889  35.444   1.990
11548W        W83077  34.824  37.361  13.961
11549W        W83078  28.159  13.817  11.508
11550W        W83079  40.863   0.142  10.497
11551W        W83080  11.546  32.416   1.243
11552W        W83081  37.780  14.814   1.193
11553W        W83082  38.243   0.564  11.555
11554W        W83083   1.294  19.492  11.257
11555W        W83084   0.731  13.130  14.543
11556W        W83085  23.267  39.011   3.075
11557W        W83086  39.493  27.242   2.332
11558W        W83087  33.862   2.904   0.406
11559W        W83088  22.796  31.440  12.106
11560W        W83089  31.451  30.266  11.583
11561W        W83090  23.742   4.789  14.440
11562W        W83091  32.696   4.149   1.009
11563W        W83092  14.760   9.851  11.609
11564W        W83093  20.412  19.504  13.778
11565W        W83094  13.186  14.361  12.953
11566W        W83095  36.818  25.650  12.425
11567W        W83096  37.881  41.557   2.125
11568W        W83097  24.733  20.090  13.860
11569W        W83098  12.179  10.602   0.775
11570W        W83099  34.295  33.468  10.419
11571W        W83100   6.463  20.123  11.039
11572W        W83101   3.180  29.783   4.999
11573W        W83102  28.544   7.918  14.358
11574W        W83103   4.342  36.551   3.473
11575W        W83104   2.418   6.531   4.539
11576W        W83105  21.480  25.077   2.354
11577W        W83106  30.115  21.219  12.458
11578W        W83107  30.206  17.722   3.873
11579W        W83108  20.103  20.137  14.533
11580W        W83109  42.364   8.210  14.277
11581W        W83110  38.090  12.809   1.372
11582W        W83111  13.149  33.801  12.799
11583W        W83112  10.409  16.729   2.383
11584W        W83113  38.122  17.609  12.378
11585W        W83114   2.084  40.388   4.693
11586W        W83115  22.541   3.819   4.921
11587W        W83116  37.361  44.288  14.229
11588W        W83117  26.613   0.271   3.705
11589W        W83118  28.293  31.635  10.295
11590W        W83119  17.142  30.551   3.670
11591W        W83120  11.849  38.445   2.691
11592W        W83121  25.572  14.250   4.679
11593W        W83122   5.572  27.658   2.668
11594W        W83123  20.466  15.769  10.807
11595W        W83124  25.477  29.131   1.857
11596W        W83125   2.025  41.453   2.735
11597W        W83126  17.363  18.302  14.180
11598W        W83127  12.728  36.592  14.066
11599W        W83128  37.481   4.342   0.688
11600W        W83129   6.937  33.587   1.262
11601W        W83130  38.529  29.560   0.502
11602W        W83131   1.858  42.786  13.995
11603W        W83132  22.872  32.937  10.690
11604W        W83133  37.525   8.340  14.819
11605W        W83134  17.370  32.339   2.118
11606W        W83135  20.703   8.071  10.933
11607W        W83136  10.207   9.768  12.749
11608W        W83137  37.301  14.641   1.171
11609W        W83138  15.498  40.995  14.766
11610W        W83139  23.708  37.883   4.298
11611W        W83140  40.035  38.406  12.484
11612W        W83141  12.855  14.264   4.809
11613W        W83142  15.215   6.418  13.175
11614W        W83143  23.130  40.686   9.917
11615W        W83144   6.885  42.200  13.311
11616W        W83145  29.030  19.493  11.172
11617W        W83146   7.296  13.594   0.825
11618W        W83147  40.451  33.927  11.981
11619W        W83148  43.937   1.492  14.709
11620W        W83149  14.596  28.381  12.518
11621W        W83150  18.670  25.547   4.904
11622W        W83151  32.357   8.262   2.744
11623W        W83152  34.738  37.131  12.428
11624W        W83153  40.926  27.669   1.614
11625W        W83154  40.537   3.155   1.403
11626W        W83155  19.074  37.796  14.021
11627W        W83156  44.006  21.984   1.567
11628W        W83157  25.012  25.940   2.269
11629W        W83158  37.471  38.464   2.416
11630W        W83159  29.497  44.856  10.727
11631W        W83160  39.361  18.085   5.075
11632W        W83161   2.201   0.472   3.639
11633W        W83162  10.747   7.446  11.151
11634W        W83163   3.221  41.904   2.303
11635W        W83164  44.775  14.185  12.000
11636W        W83165  15.663   5.270   5.024
11637W        W83166  19.118  25.110  11.887
11638W        W83167   5.303  42.774  13.602
11639W        W83168  41.973  30.905   3.313
11640W        W83169  16.647  40.451   0.553
11641W        W83170  24.995  31.983  12.961
11642W        W83171   6.180  12.184   1.664
11643W        W83172  41.329  28.445   2.325
11644W        W83173   6.560  39.045  14.271
11645W        W83174  43.832   9.368   4.144
11646W        W83175  33.900  24.850   5.036
11647W        W83176  20.572  36.403   3.814
11648W        W83177  21.638   2.168   0.420
11649W        W83178  21.183  11.889  10.902
11650W        W83179  12.749  10.755   2.146
11651W        W83180   6.281  15.128  12.966
11652W        W83181  25.785  37.156  14.422
11653W        W83182  37.243  39.973  10.863
11654W        W83183  12.668  29.207  13.600
11655W        W83184  23.630  25.013   3.385
11656W        W83185  17.281  33.573   3.288
11657W        W83186   7.233  23.327  13.357
11658W        W83187  27.010  43.698   1.226
11659W        W83188  31.584  22.191   0.569
11660W        W83189  26.344   5.964   0.290
11661W        W83190  31.912  11.668  12.102
11662W        W83191   5.749  35.827   1.415
11663W        W83192  35.836  32.577   2.848
11664W        W83193  35.029  19.634   0.308
11665W        W83194  27.575  16.411   1.721
11666W        W83195  22.256   7.996   0.277
11667W        W83196  34.554  12.658   2.073
11668W        W83197   5.376  32.848  12.993
11669W        W83198  11.150  43.197  12.767
11670W        W83199  30.919  38.419   4.443
11671W        W83200  10.625  16.257  11.539
11672W        W83201  12.736  42.424  12.071
11673W        W83202   0.826  30.405  11.507
11674W        W83203  23.096   9.296  14.390
11675W        W83204  31.551  13.697   2.211
11676W        W83205  16.942  13.717  14.495
11677W        W83206  19.557  37.835  12.452
11678W        W83207   7.060  27.668  14.104
11679W        W83208   2.989   1.238  12.147
11680W        W83209  23.581  29.173  11.925
11681W        W83210  42.390   7.182   2.468
11682W        W83211   3.761  24.060   5.221
11683W        W83212  29.051  32.833   4.594
11684W        W83213  28.063  18.992  13.486
11685W        W83214  39.288  19.205  12.101
11686W        W83215   8.725   7.912   2.737
11687W        W83216   4.221   0.439   1.348
11688W        W83217   2.946   9.315   1.355
11689W        W83218  19.861  17.058  14.320
11690W        W83219   5.171  28.109  14.589
11691W        W83220  27.056   4.103  14.331
11692W        W83221  36.998  33.103  10.553
11693W        W83222  26.122   2.900   2.798
11694W        W83223  23.662  19.259   4.267
11695W        W83224   7.918   6.755   2.904
11696W        W83225  42.803  42.872   4.503
11697W        W83226  44.492  23.079   4.318
11698W        W83227  12.356  22.291  14.876
11699W        W83228  38.585  23.027   2.489
11700W        W83229  33.343   2.863  14.447
11701W        W83230  27.911   2.914  11.629
11702W        W83231   2.733  26.596   4.112
11703W        W83232   6.082   4.271  14.787
11704W        W83233  35.511  16.737  10.454
11705W        W83234   4.700  12.965   3.587
11706W        W83235  13.413  19.427   5.046
11707W        W83236   3.946   2.806   4.644
11708W        W83237  10.065  25.207  13.341
11709W        W83238  13.147  37.308  14.323
11710W        W83239  32.617   8.125   1.802
11711W        W83240  21.527  34.454  12.099
11712W        W83241  12.581  14.733  14.339
11713W        W83242  32.721  38.005   2.363
11714W        W83243  17.191  23.131   5.153
11715W        W83244   8.269  35.966   2.395
11716W        W83245  28.192  27.019   4.108
11717W        W83246  36.400  19.101   2.624
11718W        W83247   4.478  27.206   0.776
11719W        W83248  26.531  32.067   0.246
11720W        W83249  41.003  28.718  12.476
11721W        W83250   8.758  34.409   0.349
11722W        W83251  30.302  22.030   1.869
11723W        W83252  16.408  23.216  10.653
11724W        W83253   9.126  28.573  10.729
11725W        W83254  26.835  37.229  11.186
11726W        W83255  32.521  31.538   0.403
11727W        W83256  42.447  21.696  12.104
11728W        W83257  15.752  20.125   2.314
11729W        W83258   4.396  30.918  12.185
11730W        W83259  13.036  41.890  10.729
11731W        W83260  21.037  28.667  14.895
11732W        W83261   7.319  20.167  10.310
11733W        W83262  24.155   1.561  14.304
11734W        W83263  27.177  24.465  12.636
11735W        W83264  23.181  41.445  11.016
11736W        W83265   0.426   0.001  14.766
11737W        W83266  22.248  25.466  11.236
11738W        W83267   3.822  18.828   2.670
11739W        W83268  27.916  36.508  12.565
11740W        W83269  21.941  19.735   0.813
11741W        W83270  21.011  19.265   2.685
11742W        W83271  33.363  44.731   1.380
11743W        W83272  15.207  37.867   1.712
11744W        W83273   9.697   6.262  12.033
11745W        W83274  19.597   2.177   3.829
11746W        W83275  32.522  39.813  11.932
11747W        W83276   6.296  33.546  12.112
11748W        W83277  25.154  34.021   2.321
11749W        W83278  16.599   3.694  11.994
11750W        W83279  33.709  32.629  10.430
11751W        W83280   3.180   6.355   2.479
11752W        W83281   2.934  41.058   0.889
11753W        W83282  29.994  20.257  12.505
11754W        W83283  18.583  36.418  13.354
11755W        W83284  16.199  21.073   1.296
11756W        W83285   7.932  42.577  11.986
11757W        W83286  23.927  29.439  14.991
11758W        W83287  43.144   7.255  11.198
11759W        W83288   4.148  13.557   1.845
11760W        W83289  42.347  30.812  14.250
11761W        W83290  34.839  12.054  13.848
11762W        W83291  27.651   0.442   0.276
11763W        W83292  14.290  14.401  14.917
11764W        W83293  19.478  19.570  11.996
11765W        W83294  20.670  25.667   0.603
11766W        W83295   8.128  34.691   2.003
11767W        W83296  22.697  21.944  11.822
11768W        W83297  16.803  15.567   3.205
11769W        W83298  33.595   6.005  13.652
11770W        W83299   2.218   8.070   4.068
11771W        W83300  41.839  28.464   2.275
11772W        W83301  26.445   5.850   1.699
11773W        W83302  40.926  39.666  14.354
11774W        W83303  33.446  13.627   0.918
11775W        W83304   0.941  36.450   1.022
11776W        W83305  14.160  12.687  12.335
11777W        W83306  12.575   2.377  11.666
11778W        W83307  20.012  36.398   0.927
11779W        W83308   1.655  17.864   1.899
11780W        W83309  32.987  41.554  10.623
11781W        W83310  27.151  20.133   4.512
11782W        W83311  43.239   5.223  11.505
11783W        W83312   4.306  11.916  11.970
11784W        W83313  28.677  31.689  14.969
11785W        W83314  41.716  32.502  14.260
11786W        W83315   1.056  40.456  13.644
11787W        W83316  17.432  38.091  11.226
11788W        W83317   5.833  32.621   3.822
11789W        W83318  36.173  20.050   2.881
11790W        W83319  16.827  22.929   0.715
11791W        W83320   2.170  34.400  13.142
11792W        W83321  26.621  28.098  11.805
11793W        W83322  33.991  10.626   1.693
11794W        W83323   5.783   2.191   1.967
11795W        W83324   6.152  21.678   1.418
11796W        W83325  14.837  25.971   1.692
11797W        W83326  14.786  20.204  13.840
11798W        W83327  17.587  21.616  13.882
11799W        W83328  39.424  22.430   1.304
11800W        W83329  29.444  36.953  12.136
11801W        W83330  29.577   0.869   5.154
11802W        W83331   3.378  10.534   1.043
11803W        W83332  13.743  30.697   3.623
11804W        W83333  33.780   2.360   2.829
11805W        W83334  24.292  20.668  14.471
11806W        W83335  43.776   8.048  12.460
11807W        W83336  26.870  11.211   4.917
11808W        W83337  13.584  22.033  12.677
11809W        W83338  34.988   7.142   0.681
11810W        W83339  21.089  39.728   0.291
11811W        W83340   3.424  26.927   4.085
11812W        W83341  11.812  37.259   9.832
11813W        W83342  33.406  29.209   0.439
11814W        W83343   6.116  34.507  11.638
11815W        W83344  40.475  37.625  12.956
11816W        W83345  33.087  29.439  12.870
11817W        W83346  22.614  24.697  14.549
11818W        W83347  41.814  23.990  13.518
11819W        W83348  34.022   0.292   1.324
11820W        W83349  39.063  28.133   0.949
11821W        W83350  35.228  26.239   4.969
11822W        W83351  15.978  20.003  14.452
11823W        W83352   3.557  29.931  12.391
11824W        W83353  20.596  25.082  14.223
11825W        W83354  13.198  21.292   4.134
11826W        W83355  38.870  37.520   3.248
11827W        W83356   8.551   5.912  11.639
11828W        W83357   8.126  43.201  13.330
11829W        W83358  33.836  40.429   3.656
11830W        W83359  23.474  19.132   0.494
11831W        W83360  28.010  26.215   2.241
11832W        W83361  32.591   0.065  13.804
11833W        W83362  32.716  29.584   1.223
11834W        W83363  12.286  33.344  14.005
11835W        W83364  20.585  40.542   3.279
11836W        W83365  17.801  10.345   3.621
11837W        W83366  10.179  36.755  14.402
11838W        W83367  20.192  20.207   0.566
11839W        W83368  21.677  10.711  10.798
11840W        W83369   6.156  30.423  10.367
11841W        W83370  27.457   1.270  10.614
11842W        W83371  32.434  23.781  10.599
11843W        W83372   8.407  11.775   1.243
11844W        W83373  35.434  37.086  10.539
11845W        W83374   4.159  22.443  14.825
11846W        W83375  20.849  30.262  11.669
11847W        W83376  39.601  36.087  10.671
11848W        W83377  30.221  34.072  12.869
11849W        W83378   5.315   4.869  12.054
11850W        W83379  32.709  10.683   0.447
11851W        W83380  43.387  36.434  13.030
11852W        W83381  33.343  40.886  11.550
11853W        W83382  16.682  28.050  11.834
11854W        W83383  28.095  21.290  13.867
11855W        W83384  27.691  28.219   3.894
11856W        W83385  37.071  41.444  12.098
11857W        W83386  35.599  11.110  11.611
11858W        W83387  26.075  32.472  10.587
11859W        W83388  25.942  10.256   2.937
11860W        W83389  22.792  12.662   2.341
11861W        W83390  24.918  19.520   4.564
11862W        W83391  22.722   5.601   2.931
11863W        W83392  28.090  19.400  10.057
11864W        W83393  26.232  32.952   2.306
11865W        W83394  15.915   2.960   4.037
11866W        W83395  13.331  27.392  11.705
11867W        W83396  20.622  44.747   3.732
11868W        W83397  34.839   0.284   4.043
11869W        W83398  24.165   5.275   1.680
11870W        W83399  23.759  15.391   2.097
11871W        W83400   1.725  23.958  11.420
11872W        W83401  30.594  34.658  14.836
11873W        W83402  13.769  15.615  11.470
11874W        W83403  36.402  37.110  14.302
11875W        W83404  44.267   2.792   1.703
11876W        W83405  30.419  29.450  14.760
11877W        W83406  24.252   7.133  10.021
11878W        W83407  32.904  34.428  10.901
11879W        W83408  22.695  24.559  11.204
11880W        W83409  32.925  24.623  14.026
11881W        W83410  39.508  35.642  11.521
11882W        W83411  37.668  27.835   2.160
11883W        W83412  31.010  16.060  12.104
11884W        W83413   1.711   6.339  10.578
11885W        W83414  30.052  23.861   0.767
11886W        W83415  10.164  18.606   4.608
11887W        W83416  10.015  30.151   4.560
11888W        W83417   4.135  13.806  13.560
11889W        W83418  10.115  32.020   3.668
11890W        W83419  21.115  24.379   1.156
11891W        W83420  36.780  37.873  11.926
11892W        W83421  39.306   5.466   4.600
11893W        W83422  33.697   5.348   2.182
11894W        W83423  26.702   6.290   1.641
11895W        W83424  29.072  17.202  11.337
11896W        W83425   6.000  29.686  14.932
11897W        W83426  33.171  14.724  11.083
11898W        W83427  40.307  11.173  13.894
11899W        W83428  18.243  44.502  12.161
11900W        W83429   5.822   8.716  13.358
11901W        W83430  28.465  39.288  12.008
11902W        W83431  28.574  29.560   3.563
11903W        W83432  18.207   2.705   0.266
11904W        W83433  43.503  44.898   0.288
11905W        W83434  40.394  11.103  13.000
11906W        W83435  27.564  19.206  12.589
11907W        W83436  18.185  36.073   1.729
11908W        W83437  11.176  26.165  12.506
11909W        W83438  35.599  43.422   2.259
11910W        W83439   4.299  42.506   0.818
11911W        W83440   1.192  18.635  10.619
11912W        W83441  39.174  17.476  11.127
11913W        W83442  40.233  41.122   4.105
11914W        W83443   4.986  38.548  11.567
11915W        W83444  33.576  23.102   4.823
11916W        W83445  32.552  41.241  14.814
11917W        W83446   6.805  41.964   1.307
11918W        W83447  35.495  20.491  11.439
11919W        W83448   4.726   8.251  10.592
11920W        W83449  11.582  23.126   1.431
11921W        W83450  43.783  39.070  12.154
11922W        W83451  38.967  36.979  14.266
11923W        W83452  24.058   3.831   3.988
11924W        W83453   8.118  20.834   2.739
11925W        W83454  27.691   1.985  12.587
11926W        W83455  36.041  26.230  12.545
11927W        W83456  40.130  27.411   3.428
11928W        W83457  32.841  28.961   3.114
11929W        W83458  35.063  12.032   2.987
11930W        W83459   2.051   0.232  12.247
11931W        W83460  12.559  15.433  11.172
11932W        W83461  21.783   4.338  13.958
11933W        W83462  44.857   1.439   4.156
11934W        W83463  28.012   4.917   0.456
11935W        W83464   2.916   9.885   1.889
11936W        W83465  36.075  15.423  13.038
11937W        W83466  32.595  36.091  12.890
11938W        W83467   2.969  26.661   2.721
11939W        W83468  40.474  25.578  12.978
11940W        W83469  41.440  35.365   0.369
11941W        W83470  20.072  21.429   1.171
11942W        W83471  21.084  34.090   4.252
11943W        W83472   7.550  32.638   0.505
11944W        W83473  35.252  35.059  12.928
11945W        W83474  41.303  44.738  14.874
11946W        W83475  31.855  23.870   1.836
11947W        W83476   1.515  30.001   3.300
11948W        W83477  37.896  28.906   3.925
11949W        W83478  29.796  25.924  13.503
11950W        W83479  11.264  15.044  13.121
11951W        W83480   1.489  34.277   2.297
11952W        W83481  20.198  20.220  11.922
11953W        W83482  33.146   1.685  11.957
11954W        W83483  19.949  18.686  12.087
11955W        W83484  28.791  36.451   1.479
11956W        W83485  37.857  42.960  14.497
11957W        W83486  37.628   6.860   1.695
11958W        W83487  13.376  16.138  11.047
11959W        W83488   8.948   1.515  12.341
11960W        W83489   5.443  28.166   4.598
11961W        W83490  28.578  35.507  11.370
11962W        W83491  44.423  11.306   3.193
11963W        W83492  15.702  28.645   3.582
11964W        W83493  28.188   3.517  12.470
11965W        W83494  18.272  28.417  14.507
11966W        W83495   5.391  20.991   3.262
11967W        W83496   2.930   5.909  10.696
11968W        W83497  23.078  18.060   1.385
11969W        W83498  26.878  33.138   5.055
11970W        W83499  37.503  35.253  14.848
11971W        W83500  32.327   6.172   0.922
11972W        W83501  34.356   1.781   2.214
11973W        W83502  14.137  28.416   2.717
11974W        W83503   6.291  28.964  10.956
11975W        W83504  29.655  44.083  13.974
11976W        W83505  35.849  38.322  14.869
11977W        W83506   0.590   3.706   2.688
11978W        W83507  29.976  32.152   0.823
11979W        W83508  23.211  20.967   4.642
11980W        W83509  40.494   9.615  12.440
11981W        W83510  32.179  22.940  10.261
11982W        W83511  22.830  32.919   4.182
11983W        W83512  27.221   5.923   1.313
11984W        W83513  30.852  25.512  14.374
11985W        W83514  19.301  26.122  11.365
11986W        W83515  23.856  20.563  11.138
11987W        W83516  44.219  21.142   1.879
11988W        W83517  14.305   2.672   2.275
11989W        W83518  15.254  20.783   3.634
11990W        W83519  39.861  17.698   2.656
11991W        W83520  34.650  41.072  14.518
11992W        W83521  28.019  31.239  14.594
11993W        W83522  42.831  40.745  11.582
11994W        W83523  26.154   6.710  14.906
11995W        W83524  34.008  44.724  13.502
11996W        W83525  14.620  23.362   4.246
11997W        W83526  12.195  22.131  13.538
11998W        W83527   4.807  21.106   0.697
11999W        W83528   2.736  43.987  11.998
12000W        W83529  33.347   5.383   3.170
12001W        W83530   3.354  41.575  13.518
12002W        W83531  14.380  38.936  10.507
12003W        W83532  39.950  15.504   4.402
12004W        W83533  11.836   5.773   1.292
12005W        W83534  25.099  44.770   4.091
12006W        W83535  35.159   8.227   4.224
12007W        W83536  27.175   1.757  14.386
12008W        W83537  27.512   8.857   3.898
12009W        W83538  15.633  39.111   3.201
12010W        W83539  32.572  41.795  10.797
12011W        W83540  39.519  20.177   2.627
12012W        W83541  28.132  10.697   0.989
12013W        W83542  20.230  20.315   2.359
12014W        W83543   2.278  37.049  14.800
12015W        W83544  42.225  37.856   2.299
12016W        W83545  36.922  27.919   0.881
12017W        W83546  28.935   3.427   4.523
12018W        W83547   2.973  10.614   3.272
12019W        W83548   8.682  14.268   4.529
12020W        W83549  20.620  35.869   1.403
12021W        W83550  37.542  40.413   3.679
12022W        W83551  40.590  15.394  13.789
12023W        W83552   4.671  21.475   3.048
12024W        W83553  31.888   4.368  13.826
12025W        W83554   8.343  43.350  11.417
12026W        W83555  15.489   2.496   0.786
12027W        W83556  28.913  39.037   2.659
12028W        W83557  17.202   1.449   1.648
12029W        W83558  22.403  16.846   4.099
12030W        W83559  20.704  18.851   2.680
12031W        W83560  22.496  19.724   4.775
12032W        W83561   5.991   0.244  14.595
12033W        W83562  16.298   7.258   3.149
12034W        W83563   1.740  44.401   4.207
12035W        W83564  41.459   4.064   4.689
12036W        W83565   0.185  31.914  11.242
12037W        W83566  31.722  17.744   3.967
12038W        W83567  18.327  20.141   5.486
12039W        W83568  15.357  18.535  11.938
12040W        W83569  44.214  17.594  14.729
12041W        W83570  27.029  23.629  11.226
12042W        W83571  20.435  44.915  12.540
12043W        W83572  41.632  42.340   1.421
12044W        W83573  14.673  24.583  14.866
12045W        W83574  44.999  37.915   4.034
12046W        W83575  17.122  28.632   0.324
12047W        W83576   0.878  13.203  11.248
12048W        W83577  18.046  28.812  12.120
12049W        W83578   8.647  21.136   0.853
12050W        W83579  24.267  12.913  13.542
12051W        W83580  40.422  24.537   3.313
12052W        W83581  32.044   8.866   3.170
12053W        W83582  35.819  26.185  14.748
12054W        W83583  35.844  35.108   4.131
12055W        W83584  37.038  24.117   3.797
12056W        W83585  26.321   9.139   1.508
12057W        W83586  35.353   2.299   2.707
12058W        W83587  16.419  43.869  12.941
12059W        W83588  24.223  14.719   0.271
12060W        W83589  17.936  18.105  10.750
12061W        W83590  33.440  34.583  12.630
12062W        W83591  17.083  14.701  10.496
12063W        W83592  18.652   7.421   1.157
12064W        W83593  20.663  27.941   1.172
12065W        W83594  24.759  43.980  14.923
12066W        W83595  44.054  44.112   0.752
12067W        W83596   0.451   1.242   3.881
12068W        W83597   1.668  14.803   2.769
12069W        W83598  29.594   1.436  11.664
12070W        W83599  16.559  32.926  11.255
12071W        W83600  27.745   8.994  11.123
12072W        W83601   3.195  11.307   3.731
12073W        W83602   9.088   9.671   0.636
12074W        W83603   1.413  36.498  11.182
12075W        W83604  44.975  30.727   3.643
12076W        W83605  20.845  41.947   3.159
12077W        W83606  11.226  44.543   1.868
12078W        W83607  33.018  23.676  14.493
12079W        W83608  22.910   9.343   2.059
12080W        W83609   2.887  34.672   2.742
12081W        W83610  35.291  40.378   3.638
12082W        W83611  13.197  39.852   4.157
12083W        W83612  20.003  12.652   2.161
12084W        W83613  30.008  35.015  13.373
12085W        W83614   9.327  26.763   4.439
12086W        W83615  31.560  41.946   3.857
12087W        W83616  23.960  24.235   2.560
12088W        W83617  33.871  24.552  13.342
12089W        W83618  25.069   1.720  12.449
12090W        W83619  12.315  43.682  14.936
12091W        W83620  21.937  19.331  11.224
12092W        W83621  11.621  30.206   2.900
12093W        W83622  18.651  24.722  14.050
12094W        W83623  25.056  32.665   1.266
12095W        W83624  36.654  18.068  11.376
12096W        W83625   9.440  33.443  11.986
12097W        W83626  37.492  30.711   1.332
12098W        W83627  31.866   0.841   2.279
12099W        W83628  17.299   8.299   2.346
12100W        W83629   2.225  30.371  10.695
12101W        W83630  21.319  20.769  13.682
12102W        W83631  38.180   1.040   0.810
12103W        W83632   2.197  34.511   0.542
12104W        W83633  30.873  33.185  13.419
12105W        W83634  11.197  21.242  14.285
12106W        W83635   9.530   9.961   3.589
12107W        W83636  31.035  37.639   4.892
12108W        W83637   3.450   6.926   4.695
12109W        W83638  36.484  16.271   2.450
12110W        W83639  43.361  37.613   1.397
12111W        W83640   1.484  30.123   3.794
12112W        W83641  34.387  12.353   1.433
12113W        W83642   8.661  41.058  11.453
12114W        W83643  41.556   4.176  13.694
12115W        W83644  42.080  19.752  13.367
12116W        W83645  24.167  19.483   5.259
12117W        W83646   0.488  36.701   2.865
12118W        W83647  37.874  17.832   0.258
12119W        W83648   7.883  32.885  13.907
12120W        W83649   1.130  23.443  12.988
12121W        W83650   1.028  37.866  13.918
12122W        W83651   2.961  25.075   3.265
12123W        W83652  23.127  41.526  13.420
12124W        W83653  37.162   6.758  11.646
12125W        W83654  18.441   5.803  11.187
12126W        W83655  43.384   8.705  10.821
12127W        W83656  38.379  41.070  12.672
12128W        W83657   1.815  38.925   4.559
12129W        W83658   8.398  28.961  14.768
12130W        W83659  21.156  28.943   3.377
12131W        W83660  38.709  16.063  12.159
12132W        W83661  25.153  27.950   3.865
12133W        W83662  11.206  34.104   3.742
12134W        W83663  25.759  16.620  13.520
12135W        W83664  27.251  35.463  12.036
12136W        W83665  20.190  18.294   3.638
12137W        W83666   3.749   0.231  10.925
12138W        W83667  30.991  35.283   1.925
12139W        W83668  24.635  34.700  11.586
12140W        W83669  26.034  26.425  11.321
12141W        W83670  36.169   0.239   2.348
12142W        W83671   0.445  31.461  12.911
12143W        W83672   0.780  22.619   4.067
12144W        W83673   5.968  32.858  11.144
12145W        W83674  13.153  43.827   0.292
12146W        W83675  34.423   5.445   0.989
12147W        W83676  14.063  11.909   3.365
12148W        W83677  34.442  11.584  14.613
12149W        W83678  28.906  23.217  13.849
12150W        W83679  41.384   8.717  10.714
12151W        W83680  19.528  25.806   4.910
12152W        W83681  16.754  19.182   4.641
12153W        W83682  34.566  44.770   1.838
12154W        W83683   0.935  25.849   1.000
12155W        W83684  14.608  20.837   2.636
12156W        W83685   1.850  36.680  10.739
12157W        W83686   5.454  13.656   2.703
12158W        W83687  37.794  19.702  13.443
12159W        W83688   0.960   0.313   1.929
12160W        W83689   8.200  35.321  10.496
12161W        W83690   5.353   6.464  14.016
12162W        W83691  35.939  36.894  14.344
12163W        W83692  23.156  10.400  10.870
12164W        W83693   2.256  44.730   4.101
12165W        W83694  40.595   5.180  14.824
12166W        W83695  25.716  22.288  11.758
12167W        W83696  15.311   3.289  14.053
12168W        W83697  42.915   8.682   4.508
12169W        W83698  24.746   3.683  12.909
12170W        W83699  26.483  41.596   4.427
12171W        W83700  32.052  27.939  10.214
12172W        W83701  43.281  38.469   3.296
12173W        W83702  37.806   1.738  11.222
12174W        W83703  21.923  15.989   4.716
12175W        W83704  39.468  30.594   0.423
12176W        W83705  22.218   4.430   2.844
12177W        W83706  13.811  38.375   2.014
12178W        W83707   0.817  18.602   2.388
12179W        W83708   7.285  15.626   2.230
12180W        W83709   1.448  22.672   1.337
12181W        W83710  36.537   8.172  10.939
12182W        W83711  22.915   0.126   4.594
12183W        W83712  30.041  31.284   2.893
12184W        W83713  14.462   0.409  12.564
12185W        W83714   9.344   0.688  11.489
12186W        W83715  38.912  23.485  12.919
12187W        W83716  16.245  39.379   4.291
12188W        W83717  37.576  19.240   3.695
12189W        W83718  23.610  43.528  13.105
12190W        W83719   6.396   1.509   4.317
12191W        W83720   6.573  22.479   4.532
12192W        W83721  30.904  37.400  13.608
12193W        W83722  20.318   8.352   1.680
12194W        W83723   7.085   2.172   0.869
12195W        W83724   0.062   7.665   0.174
12196W        W83725  27.179   4.756   0.833
12197W        W83726   5.155  11.525  11.637
12198W        W83727  31.768  27.559  12.994
12199W        W83728  12.644  20.065   2.633
12200W        W83729  22.761   8.175  12.822
12201W        W83730  16.691  32.514   3.661
12202W        W83731  25.833  27.113   4.143
12203W        W83732  32.631  30.753  10.752
12204W        W83733  29.869  40.910   3.033
12205W        W83734   1.650  30.549  14.300
12206W        W83735   9.277   0.865   2.774
12207W        W83736  13.630  39.346   4.883
12208W        W83737   7.498   3.996  12.908
12209W        W83738   6.732  23.236   2.850
12210W        W83739  30.426  39.372  13.042
12211W        W83740  30.252  32.374  13.367
12212W        W83741  22.554  44.505   0.250
12213W        W83742   6.166  31.332  13.436
12214W        W83743  25.732  16.715   0.850
12215W        W83744   7.580   0.730   4.451
12216W        W83745  14.693  38.619  10.823
12217W        W83746  39.226  42.124   0.227
12218W        W83747  12.865  30.122  12.379
12219W        W83748   5.200  32.428   1.179
12220W        W83749  12.550   4.468   4.073
12221W        W83750  38.800  14.612  12.987
12222W        W83751  39.458   6.224  10.888
12223W        W83752  13.782  32.901  13.840
12224W        W83753  35.360  16.592   3.694
12225W        W83754  43.737  44.421   1.856
12226W        W83755   3.254  22.314   2.859
12227W        W83756   1.240  26.161   0.753
12228W        W83757  30.852  35.793   1.929
12229W        W83758  41.434  41.024  11.349
12230W        W83759  43.448  12.664  11.493
12231W        W83760  39.723  12.185  12.573
12232W        W83761   2.541  33.127   0.729
12233W        W83762  43.366  20.307   2.669
12234W        W83763  43.165  19.526   0.810
12235W        W83764  18.345  11.825  12.449
12236W        W83765   4.941  42.975   2.162
12237W        W83766  40.101  17.965  10.656
12238W        W83767  32.864  19.512  11.541
12239W        W83768   6.432  29.025  11.460
12240W        W83769   0.282  18.155   3.206
12241W        W83770  19.876  37.466  14.333
12242W        W83771  22.713  16.277  14.970
12243W        W83772  20.638  28.012  11.200
12244W        W83773   5.918  29.172  14.852
12245W        W83774  36.998  28.933   3.385
12246W        W83775  19.594  34.083  11.052
12247W        W83776  25.944  14.656  10.696
12248W        W83777  26.804  23.683  10.669
12249W        W83778   3.652  22.648  14.790
12250W        W83779   4.750   3.454   1.183
12251W        W83780  22.710   9.860   2.315
12252W        W83781  11.946  16.644   4.611
12253W        W83782  38.480   2.855  13.014
12254W        W83783  22.080  12.249  12.501
12255W        W83784  25.241  32.638  12.005
12256W        W83785   0.782  13.342   1.655
12257W        W83786   9.723   7.637  10.609
12258W        W83787   7.764  31.410   1.761
12259W        W83788  43.033  43.576  11.794
12260W        W83789  22.498  33.673   4.584
12261W        W83790  32.990  17.627   3.262
12262W        W83791  42.364   6.450  11.884
12263W        W83792  43.431  32.657   2.565
12264W        W83793  39.536  26.526   2.781
12265W        W83794  24.697  30.042   2.779
12266W        W83795  13.698  16.031  10.632
12267W        W83796   1.616  36.438   3.250
12268W        W83797   6.112  33.908  14.880
12269W        W83798   1.002  19.280  13.397
12270W        W83799   6.138  20.298  11.454
12271W        W83800  28.003   2.481   3.992
12272W        W83801  33.003   5.477  14.351
12273W        W83802  18.610  41.097   1.551
12274W        W83803  30.397  32.820   4.478
12275W        W83804  25.557  24.795  12.799
12276W        W83805  15.092   8.671  14.267
12277W        W83806  26.096   3.942   0.794
12278W        W83807   2.807   1.733   3.809
12279W        W83808   2.780  34.611  13.888
12280W        W83809  32.619   4.907  11.453
12281W        W83810  21.697  29.003  14.186
12282W        W83811  14.690   7.017   3.329
12283W        W83812   4.090  37.493   1.354
12284W        W83813  44.735  12.824   1.419
12285W        W83814  15.323  37.515   1.294
12286W        W83815  40.544   5.266   2.402
12287W        W83816  35.295  13.125  10.562
12288W        W83817  42.425  42.978  12.137
12289W        W83818   7.152  17.293  14.131
12290W        W83819  13.504  31.539   4.009
12291W        W83820  32.452  39.360   1.238
12292W        W83821   8.345  28.741   1.926
12293W        W83822  11.744  22.417   3.460
12294W        W83823  40.467   3.387   2.408
12295W        W83824  44.598  42.916   1.183
12296W        W83825  30.533   4.181  12.098
12297W        W83826  17.364   8.786   2.175
12298W        W83827   2.846   6.240   0.309
12299W        W83828  23.968  13.279  14.490
12300W        W83829  18.677  32.509   4.287
12301W        W83830  37.468  15.410   4.798
12302W        W83831  10.686  13.764  12.516
12303W        W83832  18.696  42.428   3.735
12304W        W83833  44.762   8.915  11.198
12305W        W83834  29.942  30.361  10.442
12306W        W83835  34.256   9.413   4.642
12307W        W83836  16.049  32.178   1.227
12308W        W83837  15.271   1.261  14.835
12309W        W83838  23.751  38.112  14.748
12310W        W83839   7.159  21.569   3.351
12311W        W83840   7.877  39.417  13.773
12312W        W83841  33.426   2.498  12.413
12313W        W83842  27.367   6.820  12.827
12314W        W83843  39.034  21.891  13.532
12315W        W83844  43.724  30.112  12.493
12316W        W83845   9.706  44.262   4.319
12317W        W83846  44.996  41.471  14.428
12318W        W83847  24.808  12.726   3.578
12319W        W83848  15.837   2.837   0.009
12320W        W83849  11.599  31.477  13.259
12321W        W83850  30.374  22.359  10.834
12322W        W83851  17.058   3.716  12.920
12323W        W83852  36.032  40.400   0.243
12324W        W83853   0.002   4.622   4.281
12325W        W83854  27.485  11.414  13.151
12326W        W83855  43.884  33.623   4.051
12327W        W83856  14.557   5.742   3.999
12328W        W83857  14.402  17.766  12.318
12329W        W83858  13.618  29.189   2.798
12330W        W83859  20.803   1.077   2.197
12331W        W83860  36.447   3.622   3.818
12332W        W83861   1.821  24.189  10.840
12333W        W83862  44.261   2.267  14.608
12334W        W83863   6.647  20.680  12.099
12335W        W83864   3.392   7.329   5.143
12336W        W83865  33.945  32.426  13.933
12337W        W83866  37.110   3.761   2.359
12338W        W83867  21.735  24.678   2.585
12339W        W83868   1.361  39.811   4.745
12340W        W83869  31.116   7.988   2.686
12341W        W83870  23.237  29.320  13.554
12342W        W83871  41.297  13.646   3.650
12343W        W83872  24.286   5.960   2.343
12344W        W83873  26.967  20.237  13.540
12345W        W83874  39.583  41.763   0.407
12346W        W83875  38.943  24.094   3.648
12347W        W83876  17.062  24.546  10.511
12348W        W83877   3.606  43.117  13.514
12349W        W83878  22.433  21.011  12.080
12350W        W83879   5.092  38.908  14.449
12351W        W83880  21.750  41.610   1.196
12352W        W83881  40.385  25.998   4.084
12353W        W83882  19.096   7.793  13.499
12354W        W83883  38.796  13.265   2.272
12355W        W83884  29.668  12.921   2.234
12356W        W83885  44.661  37.493   4.772
12357W        W83886  19.115  13.053  13.856
12358W        W83887  35.853  36.085   3.179
12359W        W83888  27.976  42.327   4.581
12360W        W83889  31.450  16.282   0.178
12361W        W83890  27.834  29.110  11.932
12362W        W83891  18.729  44.329  10.899
12363W        W83892  25.719  26.925  14.727
12364W        W83893  11.301  42.167   3.794
12365W        W83894   8.566  34.963  13.455
12366W        W83895  16.736  14.203  12.833
12367W        W83896  38.921  27.452  14.331
12368W        W83897   0.337  39.308  12.889
12369W        W83898  23.505  19.151   4.759
12370W        W83899  39.081  42.827  14.022
12371W        W83900  21.861  20.293  11.261
12372W        W83901  24.201   0.936   4.157
12373W        W83902   4.161  20.120  12.905
12374W        W83903  11.617  16.730  12.240
12375W        W83904  27.658  10.785  12.487
12376W        W83905  21.180   3.915   0.526
12377W        W83906  37.084   2.214  10.651
12378W        W83907  31.399  13.312  10.592
12379W        W83908   5.574  29.977  13.173
12380W        W83909  18.578  32.158   3.293
12381W        W83910  24.611  17.792   4.157
12382W        W83911   8.308  18.846   4.689
12383W        W83912  18.785  38.837  12.694
12384W        W83913  17.772   6.096  11.154
12385W        W83914  39.801   8.862  11.668
12386W        W83915  29.158  29.675   4.632
12387W        W83916   8.955  44.852  14.831
12388W        W83917   3.598  28.205   1.933
12389W        W83918   8.645  16.759  13.877
12390W        W83919   7.624  33.449  12.119
12391W        W83920   6.431   6.945  14.364
12392W        W83921  13.435  28.098   0.796
12393W        W83922  39.410  19.125   2.650
12394W        W83923  38.997  24.085   4.545
12395W        W83924  17.272  35.423   0.504
12396W        W83925  33.356  36.523  13.354
12397W        W83926   6.772  14.034   1.337
12398W        W83927  22.000  13.242  13.539
12399W        W83928  35.581  40.631  14.474
12400W        W83929  12.299   9.308  13.605
12401W        W83930  28.313  16.167  14.916
12402W        W83931  29.455  20.153  13.386
12403W        W83932  10.249  19.587  11.202
12404W        W83933  20.059  41.487  11.533
12405W        W83934  37.065  11.124  11.503
12406W        W83935   8.802  42.856  12.841
12407W        W83936  24.057  25.425  14.444
12408W        W83937  35.910   7.716  14.918
12409W        W83938   9.904  17.066   0.883
12410W        W83939   0.237  39.474  13.926
12411W        W83940  33.452  37.795  12.423
12412W        W83941   0.911  36.836  12.429
12413W        W83942  44.456  18.734  12.374
12414W        W83943  44.798  25.494   2.215
12415W        W83944  12.580  12.543   3.576
12416W        W83945  36.908  30.476  10.700
12417W        W83946  41.957  25.731  11.646
12418W        W83947  18.427   0.678  11.147
12419W        W83948  23.524  44.981   2.558
12420W        W83949  13.003  42.626  11.644
12421W        W83950  15.890  14.315   3.187
12422W        W83951   9.856   5.931  13.963
12423W        W83952  24.165  36.769   0.938
12424W        W83953  43.930  12.426  13.411
12425W        W83954   8.852  32.821  12.132
12426W        W83955  13.300  19.700  12.104
12427W        W83956   0.925  36.813   0.321
12428W        W83957  30.546  36.131   3.247
12429W        W83958  13.601  17.092   1.806
12430W        W83959  10.803  24.691  13.820
12431W        W83960  14.705  38.032   0.874
12432W        W83961  42.620  23.093   0.839
12433W        W83962  24.645  23.136   3.562
12434W        W83963  28.172  26.986   2.635
12435W        W83964  23.909  19.799   3.660
12436W        W83965  14.252   9.367   0.451
12437W        W83966  44.983   4.665   2.416
12438W        W83967  18.074  12.610  14.752
12439W        W83968  25.369  23.357   1.683
12440W        W83969   9.307  41.039   3.245
12441W        W83970  40.577  35.643  11.644
12442W        W83971   7.866  17.531  10.361
12443W        W83972  18.635  33.882   0.876
12444W        W83973  27.299  30.330   4.869
12445W        W83974  16.265  25.124   1.373
12446W        W83975  12.390   1.070   9.999
12447W        W83976  30.000   0.342   4.143
12448W        W83977  44.343  27.186   4.611
12449W        W83978  10.019   5.702  12.959
12450W        W83979  11.276   7.497  11.237
12451W        W83980  37.605  13.641   4.176
12452W        W83981  16.674  11.870   1.896
12453W        W83982  25.439  36.601  12.550
12454W        W83983  13.538  35.910  10.618
12455W        W83984   3.918  20.222   2.374
12456W        W83985   7.435  15.316  10.703
12457W        W83986  18.477  38.438  14.761
12458W        W83987  12.374  27.133   2.236
12459W        W83988  32.061  16.611   4.539
12460W        W83989  37.014  19.110   4.718
12461W        W83990  37.031  22.140   4.563
12462W        W83991   2.859  32.678  11.499
12463W        W83992  26.848   0.678   4.983
12464W        W83993   0.813  28.252  11.983
12465W        W83994  14.366  21.838  12.982
12466W        W83995  17.251  29.754   0.403
12467W        W83996  18.243  28.231   1.855
12468W        W83997  32.562  13.701  14.801
12469W        W83998  38.535  27.134  10.719
12470W        W83999  37.865  37.411  12.524
12471W        W84000  43.866   4.827   4.712
12472W        W84001  24.049  23.974   0.945
12473W        W84002   8.372  16.685   1.406
12474W        W84003   0.299   5.935   2.319
12475W        W84004   5.761   7.751  13.774
12476W        W84005  28.451  40.434  14.899
12477W        W84006   8.574   1.377   5.070
12478W        W84007  38.764  44.152  11.498
12479W        W84008   1.348   4.146  14.167
12480W        W84009   7.707  27.985   4.815
12481W        W84010   7.587   0.297   3.775
12482W        W84011   1.614  17.282  10.434
12483W        W84012  40.333  34.612   1.834
12484W        W84013  18.375  12.878  14.363
12485W        W84014  26.288  22.272  14.948
12486W        W84015   6.673  15.364   0.838
12487W        W84016  36.955  25.171   3.778
12488W        W84017  41.672  27.709  13.510
12489W        W84018   5.449   3.153   2.219
12490W        W84019  17.052  41.972   2.752
12491W        W84020  14.356  21.780   1.347
12492W        W84021  28.203  19.762  10.412
12493W        W84022  18.332  36.015  12.450
12494W        W84023  12.114  16.233  13.946
12495W        W84024  19.195   5.487   1.723
12496W        W84025  42.786  30.103   1.244
12497W        W84026  40.504  37.088  14.755
12498W        W84027   5.937  40.399  12.849
12499W        W84028  33.045  13.573   1.305
12500W        W84029   5.790  11.380  11.035
12501W        W84030  38.422   5.077  13.115
12502W        W84031  16.994  12.802  10.746
12503W        W84032   3.327   0.496   0.758
12504W        W84033  38.586  20.056  13.512
12505W        W84034  39.345   5.966  13.905
12506W        W84035  18.876  43.983   0.939
12507W        W84036  22.907  31.221   2.117
12508W        W84037  24.722  44.385  11.671
12509W        W84038  20.302  14.382  10.935
12510W        W84039  18.530  33.117   0.272
12511W        W84040  18.196  21.746  10.226
12512W        W84041   7.207  42.753  13.945
12513W        W84042  25.385  29.055  11.723
12514W        W84043  11.752  38.666  13.862
12515W        W84044  26.616  17.049  14.966
12516W        W84045  16.169  27.943   1.290
12517W        W84046   1.879   5.026   2.360
12518W        W84047   2.405  30.103   4.829
12519W        W84048  11.587  19.596   0.158
12520W        W84049  16.391  10.091  13.517
12521W        W84050  30.061  32.268   2.710
12522W        W84051  43.818  15.586   9.884
12523W        W84052  28.781   3.412  12.565
12524W        W84053  22.525   9.660   1.360
12525W        W84054  11.646  36.551   2.857
12526W        W84055  22.994  12.256   3.348
12527W        W84056  34.398  14.356  14.903
12528W        W84057   7.314  40.514  10.765
12529W        W84058  42.593  18.359  10.380
12530W        W84059   5.008  37.078  10.223
12531W        W84060   5.351   0.982  14.772
12532W        W84061  27.716  20.661  13.398
12533W        W84062  11.994   1.533   2.402
12534W        W84063   5.642   4.308   0.857
12535W        W84064   1.962  15.728  11.605
12536W        W84065  38.491  17.398  11.013
12537W        W84066   5.119  17.639  14.283
12538W        W84067  35.431  24.447  11.647
12539W        W84068  16.645   5.503  11.983
12540W        W84069  18.057   5.885  13.310
12541W        W84070  16.713  32.448   3.153
12542W        W84071  11.964  31.870   2.091
12543W        W84072  30.479  37.441  11.253
12544W        W84073  10.974   4.977  14.956
12545W        W84074  26.270  23.679  12.914
12546W        W84075  18.143   3.811   1.591
12547W        W84076   7.335  24.565  13.763
12548W        W84077  41.668  36.124   0.847
12549W        W84078   6.799  42.292   2.718
12550W        W84079  18.199  22.477  13.979
12551W        W84080  39.105   1.686   0.867
12552W        W84081  39.437  25.767  14.619
12553W        W84082  10.292  31.260   3.670
12554W        W84083  18.013  31.512  11.437
12555W        W84084   6.870  32.999  11.591
12556W        W84085  29.055  23.913   3.659
12557W        W84086  43.540  14.889  11.973
12558W        W84087  11.580  41.820   0.860
12559W        W84088   4.968   5.289  11.337
12560W        W84089   0.410   7.296   0.004
12561W        W84090  11.766   7.764  10.524
12562W        W84091  38.837  32.642   4.206
12563W        W84092  13.326  41.148   2.785
12564W        W84093  13.530  24.964   1.377
12565W        W84094  24.591  31.246   4.050
12566W        W84095   4.433  26.763   4.529
12567W        W84096  44.265  32.058   1.988
12568W        W84097   3.067  10.021  14.605
12569W        W84098  16.115  15.238  10.696
12570W        W84099  32.970  11.090  10.506
12571W        W84100  11.164  34.055  13.073
12572W        W84101   3.464  36.062  10.553
12573W        W84102  31.824  15.766   3.607
12574W        W84103  25.692  32.583   4.094
12575W        W84104   2.676   0.776  11.954
12576W        W84105  18.196  22.505  12.039
12577W        W84106  27.450  25.514  14.553
12578W        W84107  24.446  40.274   2.815
12579W        W84108  27.023  15.430   3.094
12580W        W84109   4.850  26.060   0.364
12581W        W84110  42.030  12.765  11.723
12582W        W84111  19.489  13.809  11.683
12583W        W84112   5.557  21.387   2.257
12584W        W84113  44.989  40.024   3.659
12585W        W84114  25.894  42.471  14.269
12586W        W84115  15.226  38.110   2.721
12587W        W84116  44.311  11.186   0.298
12588W        W84117  10.299   5.447  13.422
12589W        W84118  34.859  19.168   3.872
12590W        W84119  13.998  28.523   2.236
12591W        W84120   5.278  12.335  12.047
12592W        W84121  40.787   1.008  13.462
12593W        W84122  29.229  26.728  10.817
12594W        W84123  19.835  42.087   0.535
12595W        W84124  43.248  44.554   0.021
12596W        W84125   1.349  25.140  13.784
12597W        W84126  25.926  24.503  12.134
12598W        W84127  30.465  40.951  10.765
12599W        W84128  25.657  27.568   4.786
12600W        W84129  36.632   0.783  10.812
12601W        W84130  27.266  24.935  11.410
12602W        W84131  11.374  20.511  10.623
12603W        W84132  20.597  28.458  13.379
12604W        W84133  36.907   3.376   3.770
12605W        W84134   9.436   9.315   0.788
12606W        W84135  33.859  14.772   2.458
12607W        W84136  10.448  11.956   3.634
12608W        W84137  23.256  29.558   3.731
12609W        W84138  41.291  14.235   0.270
12610W        W84139  26.260   7.568   3.392
12611W        W84140  20.700  13.869   0.329
12612W        W84141  35.076   3.702   4.829
12613W        W84142  16.049  13.998   1.295
12614W        W84143  43.368  38.994  11.420
12615W        W84144  38.967  44.924   4.542
12616W        W84145   4.899   2.305   2.963
12617W        W84146  27.904   8.790  11.588
12618W        W84147   1.796  44.390  11.811
12619W        W84148   4.601  16.385  14.233
12620W        W84149  38.350  33.477  12.571
12621W        W84150  13.273  18.748   2.178
12622W        W84151  17.230  18.349  13.672
12623W        W84152  10.548  43.013   1.825
12624W        W84153   3.429   2.247  11.600
12625W        W84154   1.256   4.236  12.621
12626W        W84155  23.460   8.234   0.107
12627W        W84156  42.394   0.421   1.669
12628W        W84157   0.228  13.628  13.414
12629W        W84158   0.854  22.460  13.754
12630W        W84159  32.334  37.636   2.390
12631W        W84160  31.976  12.136   3.248
12632W        W84161  36.844   7.215  14.057
12633W        W84162  18.947  20.673  14.992
12634W        W84163  33.930  16.018  14.917
12635W        W84164  40.064  44.783  10.617
12636W        W84165  35.559  29.655   1.952
12637W        W84166  14.279  33.642  13.546
12638W        W84167  21.204  23.862   2.156
12639W        W84168  44.502  28.743   4.280
12640W        W84169  25.551  14.882   2.365
12641W        W84170   5.939  16.849   4.938
12642W        W84171  15.032  11.938   5.085
12643W        W84172   7.349   9.065   2.335
12644W        W84173  15.278  19.742   0.008
12645W        W84174  24.726  33.800   4.125
12646W        W84175   5.018  13.731   2.301
12647W        W84176  10.869  42.953   2.258
12648W        W84177  14.386  14.688   0.796
12649W        W84178   9.786  41.947   4.070
12650W        W84179  12.277  43.091  11.153
12651W        W84180  40.335  20.083  10.766
12652W        W84181  13.388  42.396   1.728
12653W        W84182   3.663   5.290  13.070
12654W        W84183   2.726  33.802   1.862
12655W        W84184   9.377  15.842  13.274
12656W        W84185  40.937  44.314  12.246
12657W        W84186  39.081   0.183   0.773
12658W        W84187  10.799  34.445  13.835
12659W        W84188  27.496   8.157   1.742
12660W        W84189  16.563  44.837  10.515
12661W        W84190  20.688   5.610   1.814
12662W        W84191  22.141  17.857   4.616
12663W        W84192  10.834   0.705   2.315
12664W        W84193   0.874  34.363   0.330
12665W        W84194   1.168   4.912   1.870
12666W        W84195  19.875  29.183  12.024
12667W        W84196   0.408   8.855  14.999
12668W        W84197  17.140  22.194   5.040
12669W        W84198  11.186   3.143  12.775
12670W        W84199  33.347  22.609   3.095
12671W        W84200   1.808  13.344   3.150
12672W        W84201  29.432   8.361   2.850
12673W        W84202  23.930   4.858   3.198
12674W        W84203   5.866  16.878  14.687
12675W        W84204  12.610  16.294  11.559
12676W        W84205  11.594  25.548  11.070
12677W        W84206  21.813  10.682   3.293
12678W        W84207   3.295  25.471   3.263
12679W        W84208  23.678  41.094   1.260
12680W        W84209  40.538   0.020   1.900
12681W        W84210  15.694  26.227   3.579
12682W        W84211   7.188  39.447   2.662
12683W        W84212  32.752  21.155   1.648
12684W        W84213  22.127  37.471   4.714
12685W        W84214  13.765  22.482  12.484
12686W        W84215  23.207  34.372  10.702
12687W        W84216  12.236  19.576   1.918
12688W        W84217  26.571  26.488   3.730
12689W        W84218  39.554  14.272  14.170
12690W        W84219  10.738  34.799   3.719
12691W        W84220  32.427  16.521  10.646
12692W        W84221   9.355  31.504  13.566
12693W        W84222   9.636   4.714   2.280
12694W        W84223   4.407  16.317   3.305
12695W        W84224   9.141  22.166  14.894
12696W        W84225  35.430   2.158  12.529
12697W        W84226  33.855   0.308  10.395
12698W        W84227  34.642  18.640   4.699
12699W        W84228  32.029  13.819   2.697
12700W        W84229  16.400   3.265  10.918
12701W        W84230  27.948  44.455  14.450
12702W        W84231  29.000  19.815  11.591
12703W        W84232  30.497  35.111  10.693
12704W        W84233  15.698  34.574  13.230
12705W        W84234  34.538  35.851  11.199
12706W        W84235   5.134  32.486  12.686
12707W        W84236  34.190   9.850   3.225
12708W        W84237  27.175  43.335  11.057
12709W        W84238  43.874  10.839   4.257
12710W        W84239   2.411  19.167   3.760
12711W        W84240  30.413  24.555   1.828
12712W        W84241  41.062  17.040  11.717
12713W        W84242   9.793  27.753   2.545
12714W        W84243  42.140  22.802   1.726
12715W        W84244  21.753  29.584   0.372
12716W        W84245  43.119  32.083  11.532
12717W        W84246  39.037  10.304  13.971
12718W        W84247  32.446  35.800   1.243
12719W        W84248  21.075  17.696   3.581
12720W        W84249  13.133  33.621   0.769
12721W        W84250  41.285  32.215  12.698
12722W        W84251  18.235   0.917   4.422
12723W        W84252  38.370  31.934  10.720
12724W        W84253   0.869  34.515   4.237
12725W        W84254  33.081  16.834   4.276
12726W        W84255  14.034  25.694  11.204
12727W        W84256   7.284   4.229   3.144
12728W        W84257  30.943  32.963   4.455
12729W        W84258   0.681   7.010  12.874
12730W        W84259  10.320  14.887  13.889
12731W        W84260  39.108   2.944  12.062
12732W        W84261   6.764   1.364  13.591
12733W        W84262  23.785  30.222   4.686
12734W        W84263  12.737   3.226  10.951
12735W        W84264  13.770  23.518  12.582
12736W        W84265  18.260  18.729  14.971
12737W        W84266  12.856  42.785  12.930
12738W        W84267  19.575  16.157   1.738
12739W        W84268  21.915  34.336  12.978
12740W        W84269  12.666  29.492  14.797
12741W        W84270  32.824  32.122  12.489
12742W        W84271   7.008  24.258   1.322
12743W        W84272  13.716  37.307   4.009
12744W        W84273  36.769  34.870   4.077
12745W        W84274  15.049  20.530  12.904
12746W        W84275  12.156  35.636   3.871
12747W        W84276  19.767  15.595   9.957
12748W        W84277   5.037   0.755  11.159
12749W        W84278  32.088   1.948  14.805
12750W        W84279  33.826   1.358   0.967
12751W        W84280   6.033  36.128   4.257
12752W        W84281  14.401  15.091  11.572
12753W        W84282  26.781  26.667  10.902
12754W        W84283  38.062   1.839   3.111
12755W        W84284  33.547  16.086   3.884
12756W        W84285  30.772  20.229   0.006
12757W        W84286  10.617   2.283  13.471
12758W        W84287  30.200  30.671   1.403
12759W        W84288  41.436  41.570   3.810
12760W        W84289  29.905  19.471  11.150
12761W        W84290   8.870  23.859   3.185
12762W        W84291  38.415  39.932  11.661
12763W        W84292  35.067  31.005   4.568
12764W        W84293  36.460  20.173  11.095
12765W        W84294  35.708  35.641  11.139
12766W        W84295  33.212  14.242   0.392
12767W        W84296  23.697  14.327   2.018
12768W        W84297   5.126  44.229   2.903
12769W        W84298  42.470  41.307   0.664
12770W        W84299  22.669  38.568  12.678
12771W        W84300  18.534  12.216   3.654
12772W        W84301  16.241  21.907  14.382
12773W        W84302  14.302  37.748   1.052
12774W        W84303  44.389  17.879  10.450
12775W        W84304  37.420  40.581   0.271
12776W        W84305   5.786  29.140  10.863
12777W        W84306  11.291  39.966  12.864
12778W        W84307  32.920  31.601  12.429
12779W        W84308  32.743  42.931  12.355
12780W        W84309  32.033  16.623  13.409
12781W        W84310  33.875  10.261   2.292
12782W        W84311   6.272  25.146   1.866
12783W        W84312  18.077  32.155  10.672
12784W        W84313  28.194  11.860   2.684
12785W        W84314   8.394  44.193  14.797
12786W        W84315  40.884  36.061  13.425
12787W        W84316  18.308  14.216  10.367
12788W        W84317  38.314  14.107  11.073
12789W        W84318   3.915  12.534   0.961
12790W        W84319  20.312  31.086   3.857
12791W        W84320  25.337  39.759  11.517
12792W        W84321  38.125  17.582  11.861
12793W        W84322   8.354  24.421   2.404
12794W        W84323   2.706  37.579   2.658
12795W        W84324  20.283   0.892  14.925
12796W        W84325  30.125  31.234  14.433
12797W        W84326   2.933  17.714  12.853
12798W        W84327  31.602  30.241   4.736
12799W        W84328  24.075  18.170  12.323
12800W        W84329  44.279  20.533  13.101
12801W        W84330  44.002  27.835   2.805
12802W        W84331  22.265  11.193   1.972
12803W        W84332  22.536   1.543  13.796
12804W        W84333  29.542  12.983  13.484
12805W        W84334  18.861   9.712   1.900
12806W        W84335   3.732  10.330   1.735
12807W        W84336  29.065  12.907   4.252
12808W        W84337  26.575  14.989   3.580
12809W        W84338  28.244   4.651   4.154
12810W        W84339  41.064  20.491   0.118
12811W        W84340  19.509   5.323  14.558
12812W        W84341  20.341  42.896  11.109
12813W        W84342  44.638  30.914   3.169
12814W        W84343   1.580  13.711   0.844
12815W        W84344  43.940  30.180  10.714
12816W        W84345  31.517  39.964  11.495
12817W        W84346  41.282  17.196   4.238
12818W        W84347  43.617  24.687   2.534
12819W        W84348  27.013  35.153  13.899
12820W        W84349   2.914  23.733   4.857
12821W        W84350  28.646  15.351   3.649
12822W        W84351  26.212   7.454  14.505
12823W        W84352  19.810   7.452   1.809
12824W        W84353  35.780  42.287   1.266
12825W        W84354  18.269  15.324   1.905
12826W        W84355  36.934  26.557   4.283
12827W        W84356   3.669  16.658  11.558
12828W        W84357   2.258   5.373  12.529
12829W        W84358  20.183  36.398   4.360
12830W        W84359  41.296  36.392  13.377
12831W        W84360  12.229  10.124   3.683
12832W        W84361   4.766  44.094   4.793
12833W        W84362  37.254  40.329   5.037
12834W        W84363   9.333   9.146  13.512
12835W        W84364  27.054  16.640  14.265
12836W        W84365  30.460  18.814  14.907
12837W        W84366  21.750  11.504  12.468
12838W        W84367  20.621  31.461   3.983
12839W        W84368  26.622  12.804  13.887
12840W        W84369  42.265  14.843  10.937
12841W        W84370  22.449  23.350  11.849
12842W        W84371  32.362   6.153  11.259
12843W        W84372  34.119  38.759  14.450
12844W        W84373  34.252  18.608  14.387
12845W        W84374  27.602   7.896   3.172
12846W        W84375   6.900  26.412  14.322
12847W        W84376  42.864  25.494   4.599
12848W        W84377  18.669  13.775   1.508
12849W        W84378   2.234  32.576   0.827
12850W        W84379   6.735  26.567  13.837
12851W        W84380  17.130  29.915  14.030
12852W        W84381  10.720  12.770   0.757
12853W        W84382  29.057  29.856  14.466
12854W        W84383  21.809  16.205  14.509
12855W        W84384  14.789  16.076  13.322
12856W        W84385  38.473  29.695   2.340
12857W        W84386  26.934   6.945   3.287
12858W        W84387   0.901  30.752  11.876
12859W        W84388  25.106  38.215   2.379
12860W        W84389  31.561   5.065  10.766
12861W        W84390  44.927   0.534   2.081
12862W        W84391  13.823  11.368   0.959
12863W        W84392  22.119  15.545  13.437
12864W        W84393  22.397  31.653   1.189
12865W        W84394   7.312   3.392  12.106
12866W        W84395   1.341  44.876  12.398
12867W        W84396  22.582  41.979  12.193
12868W        W84397  24.576  21.041  13.941
12869W        W84398  15.635  30.260  11.705
12870W        W84399  20.255   8.202  14.882
12871W        W84400  32.842  16.790   2.375
12872W        W84401  44.502  40.397  12.447
12873W        W84402  20.264  27.412   3.304
12874W        W84403  10.118  19.293   2.229
12875W        W84404  42.975  23.506   0.726
12876W        W84405  41.937  28.039   4.633
12877W        W84406  10.212  42.291  10.591
12878W        W84407  24.754   9.986  12.226
12879W        W84408   2.373  39.801   2.451
12880W        W84409  33.537  43.071  12.983
12881W        W84410  29.886   4.312  11.417
12882W        W84411  31.402  41.976   1.281
12883W        W84412  44.524   4.315   2.105
12884W        W84413  37.272  13.731   3.184
12885W        W84414  24.618  17.970   2.351
12886W        W84415  29.047  19.733   1.707
12887W        W84416  26.946  18.668   2.199
12888W        W84417  26.069  43.577   3.583
12889W        W84418  29.073   3.874   2.446
12890W        W84419   1.849  34.113  14.353
12891W        W84420  36.350  12.694  12.107
12892W        W84421  15.688  22.823   3.614
12893W        W84422   9.868  34.646  12.851
12894W        W84423   2.293  31.954  14.488
12895W        W84424  39.584  27.173  11.608
12896W        W84425  33.493  23.148   2.761
12897W        W84426  15.733  13.187   2.783
12898W        W84427  10.129  27.364   4.652
12899W        W84428  27.730  11.622  12.166
12900W        W84429  11.897  24.918  13.215
12901W        W84430   4.877  11.925   0.780
12902W        W84431   5.127  13.873  12.649
12903W        W84432   0.735  22.093   1.791
12904W        W84433  25.241   8.410  12.982
12905W        W84434  42.476  42.029  12.954
12906W        W84435  44.374  23.953   4.149
12907W        W84436   0.284   8.197  11.657
12908W        W84437  16.329  20.564  11.022
12909W        W84438  39.227  34.443  12.893
12910W        W84439  32.827   6.190   1.278
12911W        W84440  37.615  42.954  10.924
12912W        W84441  39.297  37.138  12.487
12913W        W84442  40.813   6.552  11.258
12914W        W84443  37.484  18.210  11.984
12915W        W84444  16.216   1.792  10.603
12916W        W84445   1.135  22.583   4.487
12917W        W84446  23.912  21.043   3.598
12918W        W84447  29.426   0.467   3.208
12919W        W84448   7.570  12.528  11.188
12920W        W84449   1.405  24.093  12.902
12921W        W84450  15.640  26.933   3.215
12922W        W84451  26.552   2.321  10.679
12923W        W84452   5.808  27.454   1.492
12924W        W84453   1.518  17.646   0.636
12925W        W84454  31.453   9.690  12.635
12926W        W84455  20.138  39.297   0.393
12927W        W84456   5.725  24.408  14.578
12928W        W84457  34.373  10.855   3.334
12929W        W84458  38.924  30.300  10.247
12930W        W84459  44.670  38.064   1.666
12931W        W84460   5.816  11.927   0.894
12932W        W84461   9.373  36.872  10.901
12933W        W84462  15.577   0.799  10.905
12934W        W84463   6.986  38.482   4.081
12935W        W84464  11.933  13.488   0.598
12936W        W84465  27.072  24.547   1.167
12937W        W84466  19.842  26.909   0.846
12938W        W84467   9.691  28.907   2.836
12939W        W84468  15.051  39.652   0.665
12940W        W84469  35.603  38.847  11.439
12941W        W84470  12.763  14.762   4.652
12942W        W84471  42.521  19.628  14.773
12943W        W84472   2.230   6.665   1.361
12944W        W84473   1.724  24.905   0.398
12945W        W84474   1.047  26.242   3.220
12946W        W84475  22.696  23.655   2.619
12947W        W84476  10.733  36.106   0.254
12948W        W84477  12.604  36.040  13.456
12949W        W84478  32.086   4.596   1.763
12950W        W84479   1.606  39.129  12.316
12951W        W84480  20.069  34.652  10.591
12952W        W84481  32.911  31.482  13.459
12953W        W84482  13.553  15.112  10.744
12954W        W84483  38.562  33.115   1.734
12955W        W84484  25.585  36.561   4.518
12956W        W84485  35.510  13.649  14.952
12957W        W84486  43.515   8.156   3.740
12958W        W84487  16.292  26.997  12.397
12959W        W84488   5.232   1.898  12.786
12960W        W84489  30.612  39.378   2.734
12961W        W84490  15.740   0.462   3.890
12962W        W84491   9.150  34.480  13.507
12963W        W84492  21.077  37.388  10.541
12964W        W84493  36.324   6.770  12.390
12965W        W84494  10.747   2.102   2.639
12966W        W84495  42.961  21.924   1.831
12967W        W84496  13.462  14.108   2.744
12968W        W84497  26.630  18.787  13.496
12969W        W84498  28.932   6.227  12.956
12970W        W84499  25.502  35.106  12.602
12971W        W84500  30.620  21.463  12.367
12972W        W84501  33.678  12.845  11.543
12973W        W84502  13.500  18.541  14.452
12974W        W84503  13.565  42.908   3.393
12975W        W84504  29.530  41.320  12.100
12976W        W84505  38.814   2.537  10.872
12977W        W84506  44.362  44.090  11.637
12978W        W84507  44.543  28.723  10.714
12979W        W84508   9.456  11.071  13.923
12980W        W84509   5.452   5.444  11.203
12981W        W84510  26.704   3.511  12.229
12982W        W84511  32.472  35.998  12.383
12983W        W84512  30.641  41.861   2.404
12984W        W84513   8.625  21.654  13.446
12985W        W84514  34.643  26.502  13.934
12986W        W84515  35.070   2.293  12.923
12987W        W84516   3.686  18.089   4.498
12988W        W84517  39.389   0.005   1.156
12989W        W84518  10.268  26.035  12.476
12990W        W84519   0.001  27.205  14.466
12991W        W84520  23.196  13.272  12.402
12992W        W84521  40.409  34.760   2.669
12993W        W84522  41.072   4.863  10.688
12994W        W84523  31.518  17.795   1.702
12995W        W84524  43.993   1.915   2.301
12996W        W84525  28.647   9.186  11.661
12997W        W84526  23.138  35.425   0.152
12998W        W84527  18.227  33.382   1.110
12999W        W84528  15.888  41.374  12.120
13000W        W84529   2.730  26.293  11.898
13001W        W84530  18.593   9.356  11.036
13002W        W84531  19.542   2.979  11.083
13003W        W84532   6.273  31.639   3.196
13004W        W84533  10.721  28.757   0.258
13005W        W84534  30.655  31.959   0.442
13006W        W84535  19.179   1.797  12.948
13007W        W84536  22.150  16.758  11.301
13008W        W84537   3.750  26.233  11.934
13009W        W84538   2.042  19.124   0.364
13010W        W84539  31.989  13.528  12.423
13011W        W84540   4.920  30.528  10.431
13012W        W84541  10.109  13.402  14.443
13013W        W84542  30.682   9.628   1.385
13014W        W84543  44.310  37.132  11.999
13015W        W84544  19.246  21.060   3.189
13016W        W84545   6.266  27.919  12.968
13017W        W84546  44.725  39.998  10.763
13018W        W84547   3.888  32.910   1.462
13019W        W84548  27.706  14.134   0.796
13020W        W84549  14.202  41.067  14.415
13021W        W84550  43.791   2.119  14.123
13022W        W84551  38.876  18.698  14.758
13023W        W84552  18.720   5.054   0.246
13024W        W84553  28.135  42.412   2.590
13025W        W84554  42.178  27.013   3.963
13026W        W84555  40.973  41.260   1.158
13027W        W84556  33.099  42.458   4.945
13028W        W84557  40.341  19.677  14.308
13029W        W84558   5.330  36.371   4.475
13030W        W84559   4.286   7.834   1.194
13031W        W84560  24.157  19.065  11.511
13032W        W84561  39.726  32.476  11.718
13033W        W84562  18.536   1.440  10.747
13034W        W84563  38.723  41.942   0.235
13035W        W84564  28.381  36.224  12.546
13036W        W84565  31.605  15.642  12.926
13037W        W84566   9.371  17.206   1.759
13038W        W84567  42.754   3.784   3.452
13039W        W84568  27.717  40.953  10.545
13040W        W84569  12.647  19.266  10.883
13041W        W84570  34.042   9.321   1.353
13042W        W84571  16.610  30.617  10.519
13043W        W84572  23.539  21.200   0.923
13044W        W84573  44.313  37.497  10.315
13045W        W84574  35.857  33.168   1.006
13046W        W84575  31.979  44.939   1.692
13047W        W84576  31.965  31.266  14.449
13048W        W84577  26.108  32.023  14.944
13049W        W84578  30.697  41.273   1.325
13050W        W84579  19.598   2.978  12.742
13051W        W84580  29.608  12.088   2.608
13052W        W84581  34.500  36.659  14.454
13053W        W84582  16.326   7.011   4.039
13054W        W84583  37.562   0.446   1.227
13055W        W84584   6.385  41.656  12.989
13056W        W84585  10.787   9.460   0.441
13057W        W84586   2.875   2.684   0.032
13058W        W84587   0.380   4.711  12.021
13059W        W84588   2.316  30.664  11.945
13060W        W84589  26.684   0.408  14.892
13061W        W84590  27.530  12.658   3.549
13062W        W84591  10.906  15.050  14.453
13063W        W84592  40.500  38.338   1.000
13064W        W84593  38.988  24.935   3.258
13065W        W84594  14.942  37.013  13.274
13066W        W84595  30.989   2.481   4.189
13067W        W84596   5.573  30.642  14.950
13068W        W84597  15.082   2.405  12.527
13069W        W84598   7.743  43.541   2.661
13070W        W84599  24.255   5.176  13.059
13071W        W84600  15.425  24.435   0.930
13072W        W84601  21.474  24.732  10.791
13073W        W84602  32.115  25.044  12.365
13074W        W84603  39.267  29.458  10.393
13075W        W84604  18.762  20.732   2.362
13076W        W84605  25.997  19.217  14.762
13077W        W84606  37.621   0.475   1.733
13078W        W84607  17.026  26.203  10.735
13079W        W84608  37.361  17.518   4.141
13080W        W84609  43.747  35.581   1.974
13081W        W84610   0.313  18.798   1.748
13082W        W84611  42.221  15.702  11.258
13083W        W84612  41.356  13.914  12.918
13084W        W84613  27.571  26.222  11.972
13085W        W84614  12.906   3.109  13.807
13086W        W84615  26.073   0.431   3.577
13087W        W84616  36.290  40.529  13.878
13088W        W84617  36.836  26.296   0.463
13089W        W84618   6.593  30.555  14.799
13090W        W84619  23.553  25.048   2.872
13091W        W84620   9.415  39.736   2.973
13092W        W84621  28.852   2.854  14.726
13093W        W84622  40.282  37.375  13.497
13094W        W84623   3.378   9.837   2.162
13095W        W84624   5.221   4.873   1.777
13096W        W84625  41.924  27.570   0.005
13097W        W84626   6.638  37.881  14.329
13098W        W84627  19.821  12.556   1.686
13099W        W84628  22.316  32.018  11.162
13100W        W84629  39.486  22.966   1.420
13101W        W84630  31.172  21.017   3.704
13102W        W84631  29.899   8.281  13.483
13103W        W84632  13.801  33.582   3.763
13104W        W84633  33.188  28.888  12.013
13105W        W84634   1.346  36.887  13.553
13106W        W84635   8.517  14.578  14.445
13107W        W84636  28.506  16.959   4.023
13108W        W84637  24.616  26.997  11.432
13109W        W84638  19.312  19.873   1.255
13110W        W84639  17.202  19.271   0.970
13111W        W84640   9.719  25.482   2.984
13112W        W84641   3.623  11.791   0.292
13113W        W84642  35.271  43.365   2.662
13114W        W84643  32.982  33.490   0.264
13115W        W84644   5.696  10.161   3.273
13116W        W84645  17.709  41.441  12.109
13117W        W84646   5.822  44.829  13.898
13118W        W84647  22.422  29.466  11.626
13119W        W84648   9.877   6.483   5.054
13120W        W84649  22.658  38.024  11.968
13121W        W84650  40.652   2.648  12.083
13122W        W84651   6.555  44.334  12.049
13123W        W84652  17.621  23.934  14.397
13124W        W84653  20.291  40.719   2.385
13125W        W84654  15.147  19.104   4.031
13126W        W84655   8.641   7.274   4.608
13127W        W84656  28.511  14.109  12.068
13128W        W84657  22.745  36.872   2.007
13129W        W84658   6.203  43.277   2.131
13130W        W84659  44.653  18.535  11.932
13131W        W84660  21.737  14.861   2.022
13132W        W84661  26.930  29.916   2.397
13133W        W84662   6.284  36.721   1.062
13134W        W84663  32.516  20.768  13.021
13135W        W84664  36.251  28.124  10.759
13136W        W84665   6.860   7.700  13.439
13137W        W84666  29.164  41.351   1.945
13138W        W84667   9.940  32.972   4.182
13139W        W84668  33.829  44.418   2.107
13140W        W84669   2.935   4.724  12.059
13141W        W84670  31.131  41.278   3.197
13142W        W84671  19.824  42.309   0.999
13143W        W84672  16.685   4.381   2.420
13144W        W84673   1.963  19.138   4.607
13145W        W84674   4.773   2.476  13.905
13146W        W84675  19.064  31.663  13.914
13147W        W84676   7.198  44.030  13.999
13148W        W84677   0.429  14.585  10.676
13149W        W84678  10.761  13.516   4.741
13150W        W84679  29.429  23.459   1.674
13151W        W84680   2.318  30.927   4.017
13152W        W84681   5.432  44.517  14.431
13153W        W84682  11.684   4.688   4.203
13154W        W84683  38.524  28.048  11.674
13155W        W84684  12.228  36.348   3.347
13156W        W84685   5.756   2.911   4.300
13157W        W84686  14.847  43.765   4.996
13158W        W84687  16.617  34.952  10.749
13159W        W84688  42.908  28.497  14.400
13160W        W84689  12.261  14.365  12.036
13161W        W84690  15.559  31.987  13.008
13162W        W84691   6.697  14.302   2.216
13163W        W84692   8.189  35.122  12.991
13164W        W84693   1.974  20.996  12.670
13165W        W84694  26.286  20.207  11.910
13166W        W84695  38.537  17.531  12.653
13167W        W84696  18.091  40.952  14.821
13168W        W84697   2.507   9.813   2.213
13169W        W84698  19.595  44.927   0.549
13170W        W84699  33.626  33.905  13.379
13171W        W84700  38.350   0.563   4.101
13172W        W84701  21.304   2.209  11.772
13173W        W84702  39.738  36.611  14.570
13174W        W84703   7.270  26.292   1.716
13175W        W84704   3.383  22.100  13.615
13176W        W84705   9.411  40.473   4.484
13177W        W84706   5.314  31.428  12.087
13178W        W84707   7.931  11.676   4.621
13179W        W84708   5.454  22.962   3.567
13180W        W84709  16.878  35.423  10.701
13181W        W84710  22.314  23.678  11.213
13182W        W84711  37.619   4.785  14.779
13183W        W84712  21.913  21.589  11.649
13184W        W84713   7.670   5.429   0.902
13185W        W84714   2.196  41.492  12.865
13186W        W84715  14.095  10.138   2.232
13187W        W84716  17.189  13.394   0.398
13188W        W84717   0.343   9.843  11.910
13189W        W84718   0.582   0.460   4.652
13190W        W84719   2.016  19.088   1.313
13191W        W84720  20.415  43.001  12.569
13192W        W84721  15.134  36.366  11.703
13193W        W84722  15.784  44.353  13.015
13194W        W84723  40.539  42.032   0.326
13195W        W84724  40.461  16.896   5.111
13196W        W84725  18.794  34.447  11.184
13197W        W84726  22.201  11.278   2.906
13198W        W84727  33.067  42.946  10.959
13199W        W84728  41.325  12.750  13.936
13200W        W84729  14.693   3.941  10.788
13201W        W84730  36.064  27.357   4.058
13202W        W84731  44.578   9.212   2.835
13203W        W84732   5.743  15.734   0.745
13204W        W84733  35.616  23.766   1.832
13205W        W84734  26.593  42.088  12.008
13206W        W84735  24.565  24.883   3.126
13207W        W84736  40.061   8.284  11.842
13208W        W84737  27.204  26.083   2.809
13209W        W84738  12.885  11.910   3.665
13210W        W84739  27.557  44.653   1.902
13211W        W84740  20.514  16.549  11.954
13212W        W84741  17.764   6.907   0.380
13213W        W84742  29.037  29.918   2.206
13214W        W84743  31.194  15.974  12.583
13215W        W84744  15.283  24.847   3.524
13216W        W84745   3.582   0.717  11.056
13217W        W84746   3.284   8.783  14.484
13218W        W84747  44.923  22.989   2.283
13219W        W84748  31.582  42.291  11.120
13220W        W84749  16.507   7.226  12.870
13221W        W84750  31.991  24.253  13.088
13222W        W84751  27.479  39.113   1.680
13223W        W84752   2.657  20.756   0.676
13224W        W84753  30.872  32.911   1.442
13225W        W84754  15.016   0.696  12.427
13226W        W84755   6.297  11.943  10.881
13227W        W84756   0.610  35.014  10.791
13228W        W84757  14.811  32.801  10.764
13229W        W84758  14.710  12.670  11.543
13230W        W84759   5.440  16.843   1.400
13231W        W84760  38.841  10.968   0.036
13232W        W84761   1.430  29.434  11.122
13233W        W84762  43.859  34.725   0.484
13234W        W84763  27.014  30.081  11.547
13235W        W84764  31.128  24.789  11.999
13236W        W84765  12.143  16.473   1.663
13237W        W84766   1.944  16.477   0.684
13238W        W84767  38.144   8.098   2.385
13239W        W84768  26.216  44.025   2.300
13240W        W84769   5.900   1.818   3.654
13241W        W84770  16.388  35.894  11.535
13242W        W84771  36.084  19.926  13.592
13243W        W84772  44.067  39.409  10.751
13244W        W84773  12.791  32.186  10.633
13245W        W84774  27.499   3.251  13.275
13246W        W84775   4.041   1.860  13.361
13247W        W84776  18.823  31.168   4.671
13248W        W84777  38.868  23.412   3.231
13249W        W84778  23.693  11.376   1.090
13250W        W84779   6.849  32.155  11.182
13251W        W84780  43.581   5.202   3.847
13252W        W84781  35.068  30.088  14.311
13253W        W84782   3.542  25.130   2.952
13254W        W84783  44.236   3.293  13.313
13255W        W84784  17.416  35.785  13.091
13256W        W84785  43.081   8.415   3.611
13257W        W84786  41.012  36.420  14.333
13258W        W84787  25.550   1.995  13.041
13259W        W84788  12.588  30.719  14.609
13260W        W84789  43.062   8.438  12.091
13261W        W84790  42.670  36.276   4.092
13262W        W84791  17.573  41.005  14.865
13263W        W84792  35.836  43.077  11.969
13264W        W84793   5.309  44.614   4.154
13265W        W84794  42.096  11.358  13.311
13266W        W84795  30.950  28.248  11.063
13267W        W84796  23.083  25.095  12.301
13268W        W84797  25.662  22.308  11.240
13269W        W84798   9.828  27.306  10.511
13270W        W84799   0.635  27.506   2.271
13271W        W84800  40.078   9.908   2.331
13272W        W84801  32.408  31.642   2.683
13273W        W84802   6.805   8.396   4.417
13274W        W84803  39.946   2.822  10.684
13275W        W84804  42.892  41.281   2.681
13276W        W84805  25.605   3.927  11.374
13277W        W84806   8.822   7.255  12.554
13278W        W84807  26.006   7.212   3.699
13279W        W84808  29.472  12.117   1.745
13280W        W84809   9.757  40.850  14.800
13281W        W84810  18.330  17.831  11.967
13282W        W84811   4.811  37.770   2.755
13283W        W84812  41.297  20.755   2.358
13284W        W84813  32.137   3.794  11.694
13285W        W84814  11.678  30.271  10.952
13286W        W84815   6.453  41.153   3.249
13287W        W84816   6.113  32.644  10.700
13288W        W84817  15.595  24.242   2.780
13289W        W84818  44.243  24.682  11.854
13290W        W84819  13.264   4.808   1.538
13291W        W84820  33.099  17.271  10.362
13292W        W84821   1.026  22.051   3.319
13293W        W84822   2.856  43.257   0.887
13294W        W84823   7.695  14.128   3.590
13295W        W84824  21.906  12.185  13.905
13296W        W84825  28.608  19.294  10.948
13297W        W84826  43.268   0.362   0.202
13298W        W84827  22.451  16.730   0.077
13299W        W84828  20.697  19.748   0.163
13300W        W84829   0.451  32.665   4.530
13301W        W84830  26.155  39.192  10.766
13302W        W84831  21.620  44.860   2.313
13303W        W84832  29.682   6.814   4.141
13304W        W84833  44.903  36.828   3.684
13305W        W84834  28.145  24.997   2.696
13306W        W84835  19.104   8.609   4.132
13307W        W84836  25.443  18.670  12.037
13308W        W84837  19.589  17.797   1.508
13309W        W84838  39.297  43.481  10.691
13310W        W84839   3.920   1.924   4.597
13311W        W84840  18.215  42.938   2.314
13312W        W84841   2.091  30.858   0.570
13313W        W84842  42.802   0.740  12.581
13314W        W84843  27.341  37.011  10.607
13315W        W84844   8.282  26.888  12.527
13316W        W84845   2.511  32.719  13.222
13317W        W84846   9.738  33.922   4.069
13318W        W84847  13.037  43.048  13.361
13319W        W84848  34.602   9.014   4.524
13320W        W84849  17.465  37.819  11.653
13321W        W84850  10.656   3.465  14.920
13322W        W84851   0.094  38.264   2.413
13323W        W84852  18.070  17.280   4.207
13324W        W84853  19.557  32.302   4.165
13325W        W84854   9.376  32.466   4.781
13326W        W84855  17.334  20.112  13.965
13327W        W84856  35.963   5.197  12.792
13328W        W84857  30.952   1.101   0.678
13329W        W84858   8.703  12.327  14.336
13330W        W84859  19.115  37.090  11.906
13331W        W84860  34.461  11.790   0.200
13332W        W84861  16.174  36.436  13.430
13333W        W84862  10.799  38.852   0.830
13334W        W84863  32.660  20.789   2.001
13335W        W84864  34.054  39.266   0.431
13336W        W84865  27.931  42.073  12.667
13337W        W84866  42.956   6.297  13.433
13338W        W84867  44.928  21.159  11.970
13339W        W84868   1.458  41.909   3.084
13340W        W84869  40.568  41.467   4.364
13341W        W84870  24.766  26.908   3.252
13342W        W84871  22.031  13.694   0.372
13343W        W84872   7.446  34.102  12.517
13344W        W84873  33.930  14.376  11.972
13345W        W84874   9.788  20.894   1.232
13346W        W84875   0.218  40.046  11.558
13347W        W84876  20.468  38.080   9.720
13348W        W84877   0.940   6.636  13.788
13349W        W84878  27.029   8.805   1.006
13350W        W84879  30.854   5.324   2.857
13351W        W84880   6.646   3.876  10.694
13352W        W84881  39.449  31.767   1.159
13353W        W84882   3.922  13.709   2.299
13354W        W84883  14.429  35.273  12.090
13355W        W84884  32.791   7.106  14.958
13356W        W84885  32.945  44.982  10.555
13357W        W84886   7.719  42.068   3.177
13358W        W84887  36.964  41.343   0.267
13359W        W84888  23.169  39.251  12.975
13360W        W84889   0.584  35.532  13.374
13361W        W84890  34.648  36.242   2.745
13362W        W84891  25.112  41.168  14.356
13363W        W84892  21.439  42.540   3.651
13364W        W84893  10.406  14.298  10.686
13365W        W84894  17.204  43.261  13.558
13366W        W84895  29.237  36.909  12.606
13367W        W84896  20.441  41.432  13.524
13368W        W84897  25.059  19.166  14.730
13369W        W84898   1.449  44.401   4.655
13370W        W84899  14.240  10.895   1.915
13371W        W84900  41.442  10.030   0.386
13372W        W84901  36.647  38.789   3.784
13373W        W84902   4.849  19.121  13.979
13374W        W84903  11.841  26.160  10.956
13375W        W84904  34.894  21.565  10.532
13376W        W84905   3.333   5.274  12.672
13377W        W84906   4.049  29.273  11.475
13378W        W84907  34.893  12.129   3.808
13379W        W84908  33.970  27.994  13.798
13380W        W84909  44.918  37.231   2.262
13381W        W84910  34.063   6.869  10.882
13382W        W84911  18.091  31.072  11.668
13383W        W84912  23.134  19.345  12.929
13384W        W84913   9.691  41.256  11.061
13385W        W84914   3.461   6.777   3.349
13386W        W84915  18.731  37.495  12.408
13387W        W84916  33.737   4.537  11.993
13388W        W84917  33.494  30.140   1.268
13389W        W84918  41.393  31.073   3.601
13390W        W84919  36.957  12.970  11.638
13391W        W84920  27.940  37.402   2.717
13392W        W84921  40.967  41.984  12.912
13393W        W84922  24.447  36.602   0.220
13394W        W84923  32.719  23.543  12.154
13395W        W84924  35.972   4.396   0.896
13396W        W84925  14.302  28.142   0.932
13397W        W84926  15.105  16.606  10.749
13398W        W84927  19.832   4.624  11.583
13399W        W84928  14.973  27.621  12.702
13400W        W84929  19.169  29.656  13.463
13401W        W84930  21.740  14.369   3.138
13402W        W84931   5.690  11.586   1.261
13403W        W84932   3.892  41.941   4.230
13404W        W84933  33.466   6.916   1.320
13405W        W84934  13.443  39.520  14.874
13406W        W84935   8.132   2.768  10.362
13407W        W84936  11.746  40.518   4.110
13408W        W84937  30.404  30.165   1.328
13409W        W84938  39.090  42.459  12.086
13410W        W84939  19.974   8.982  13.772
13411W        W84940  40.752  42.802   0.473
13412W        W84941   4.688  21.999   2.911
13413W        W84942  27.034  26.423  14.697
13414W        W84943  15.801  33.540  11.513
13415W        W84944   7.715   0.950  10.681
13416W        W84945   3.226  24.174   2.750
13417W        W84946  26.899  30.460  10.625
13418W        W84947   0.965   9.903  12.640
13419W        W84948   5.297   6.742  11.590
13420W        W84949   9.418  22.781   4.092
13421W        W84950  39.134  40.546   3.610
13422W        W84951  33.903  39.807  13.111
13423W        W84952  44.134   8.218   1.181
13424W        W84953  14.217  41.533  14.600
13425W        W84954  44.128   8.973  13.319
13426W        W84955  35.844  22.223  14.073
13427W        W84956  20.966  17.037   0.772
13428W        W84957   5.871  33.516   3.382
13429W        W84958  32.147  30.629  12.206
13430W        W84959  14.003  20.184  13.240
13431W        W84960   0.736  25.261  13.026
13432W        W84961   4.468  28.226  14.989
13433W        W84962  18.017  37.430  12.991
13434W        W84963  22.718  31.856   0.231
13435W        W84964   6.962  43.467  12.058
13436W        W84965  40.386   3.785  14.733
13437W        W84966  23.124  44.806   4.249
13438W        W84967  11.136   2.451   1.805
13439W        W84968   6.690   6.444   0.153
13440W        W84969   4.817  41.822  14.224
13441W        W84970  29.809  34.668   2.429
13442W        W84971  33.170  11.848   0.345
13443W        W84972   1.325  44.551   0.868
13444W        W84973  33.541   7.620   3.102
13445W        W84974  15.278  31.216  14.794
13446W        W84975  22.114  17.694   0.401
13447W        W84976  38.450   5.291   1.632
13448W        W84977  13.142   7.591   1.127
13449W        W84978  10.335  17.096  13.319
13450W        W84979  11.878  26.924   0.830
13451W        W84980  29.164  16.199  12.444
13452W        W84981  36.167  10.039  12.448
13453W        W84982  43.433   7.663  12.502
13454W        W84983   8.271   1.184  10.076
13455W        W84984  22.181  13.326  14.560
13456W        W84985  10.951  41.742  13.777
13457W        W84986  19.764  12.332  10.642
13458W        W84987   6.322   9.087   0.723
13459W        W84988   0.584  33.294  10.681
13460W        W84989   2.769  20.650   4.577
13461W        W84990  11.880  42.280   3.179
13462W        W84991  30.281  16.192   1.882
13463W        W84992  11.456  30.818   3.199
13464W        W84993  26.963  44.232   0.386
13465W        W84994  12.709   7.853  14.422
13466W        W84995  10.741  19.858   0.471
13467W        W84996  15.263  31.523  11.539
13468W        W84997  35.364  20.240  11.866
13469W        W84998  39.846  29.466  13.138
13470W        W84999  10.221  19.191   1.717
13471W        W85000  13.363  31.385  11.506
13472W        W85001  31.183  34.404  12.636
13473W        W85002  26.968   9.393   0.978
13474W        W85003   8.211   9.168   1.365
13475W        W85004   5.379  34.962  10.437
13476W        W85005  27.152   1.913  14.888
13477W        W85006  27.052  15.229   0.479
13478W        W85007  22.072  11.646   0.310
13479W        W85008  21.613  11.788   2.223
13480W        W85009  30.073  15.408  11.958
13481W        W85010  27.969  20.290   4.597
13482W        W85011  25.456  14.159   0.034
13483W        W85012  23.087   0.674  13.005
13484W        W85013  37.656  42.288  14.899
13485W        W85014   8.755  11.408  14.406
13486W        W85015  37.911  37.498  11.543
13487W        W85016   1.395  23.047   3.598
13488W        W85017  25.477   7.279  10.273
13489W        W85018  11.820  29.202  11.185
13490W        W85019  28.982  31.975  12.431
13491W        W85020  32.722   5.760  11.257
13492W        W85021  36.542  21.344   1.452
13493W        W85022   9.959   9.675   3.573
13494W        W85023   9.588  10.299   1.764
13495W        W85024  39.848  34.167  13.938
13496W        W85025  14.615  26.173  14.756
13497W        W85026  17.551  28.500   2.652
13498W        W85027  34.842   2.261   4.547
13499W        W85028   7.093  24.743  12.616
13500W        W85029  12.790  30.925   3.666
13501W        W85030  42.327  42.037   1.890
13502W        W85031  29.024  34.883   3.617
13503W        W85032  11.203   6.079  11.278
13504W        W85033  41.096   7.400   4.558
13505W        W85034   0.505   3.445   4.178
13506W        W85035   6.896  35.055  12.443
13507W        W85036   7.640  28.026   0.782
13508W        W85037  29.189  25.868  12.535
13509W        W85038  39.613  12.678   2.727
13510W        W85039  30.128  18.887  11.995
13511W        W85040  21.568  26.104  12.843
13512W        W85041  32.458  19.820   1.652
13513W        W85042   8.877  14.766  13.022
13514W        W85043  15.715   6.211  10.629
13515W        W85044  18.068   8.831   4.698
13516W        W85045   3.421   4.144  10.822
13517W        W85046   4.469  39.027   3.708
13518W        W85047  21.163  17.702  10.708
13519W        W85048  21.535  12.724   0.698
13520W        W85049  41.165  19.734  11.851
13521W        W85050  11.228  28.601  13.925
13522W        W85051  23.489   9.932  12.623
13523W        W85052  10.219  14.813  10.665
13524W        W85053   5.634  29.220  12.059
13525W        W85054  14.584  20.033  11.155
13526W        W85055  31.860   8.394  11.061
13527W        W85056  42.275  24.654   1.969
13528W        W85057   6.611  20.569  10.780
13529W        W85058  27.013  21.805   0.509
13530W        W85059   1.477  43.053  12.028
13531W        W85060   6.748   2.533  14.323
13532W        W85061  30.446  39.861   4.608
13533W        W85062  14.304  32.923   3.752
13534W        W85063   3.958  37.044  14.061
13535W        W85064   6.685   4.721   1.865
13536W        W85065  13.553   9.450   3.401
13537W        W85066  25.553   8.775  10.794
13538W        W85067   5.442  25.541  14.024
13539W        W85068   2.391  30.494  13.254
13540W        W85069   6.847  35.961  11.171
13541W        W85070  43.494   2.443   3.225
13542W        W85071  14.035  31.832   4.740
13543W        W85072  27.660   8.151   0.833
13544W        W85073  28.452  33.970   0.071
13545W        W85074  36.487  23.657   2.202
13546W        W85075   4.689  31.173  12.521
13547W        W85076  21.654   0.805  12.114
13548W        W85077  25.398  22.054   1.841
13549W        W85078  34.879   9.234  12.158
13550W        W85079  33.700   8.091   3.169
13551W        W85080  14.028   4.242   4.162
13552W        W85081  29.491  25.046   0.206
13553W        W85082  40.855  38.960   2.727
13554W        W85083  10.684  43.054  12.507
13555W        W85084   0.343   7.814  12.617
13556W        W85085  25.684  36.390   4.037
13557W        W85086  17.089   6.687  13.745
13558W        W85087  39.077   0.572   5.122
13559W        W85088  23.399  39.941  14.473
13560W        W85089  27.607  28.862   2.581
13561W        W85090   7.172   6.322  12.947
13562W        W85091  21.543  11.750  10.544
13563W        W85092  44.065   3.563  11.077
13564W        W85093  12.368  10.447   1.638
13565W        W85094  26.109   2.921  12.513
13566W        W85095  39.332  26.994  12.015
13567W        W85096   1.956  10.320  11.045
13568W        W85097  29.418   8.239   4.345
13569W        W85098  29.804  23.669  12.529
13570W        W85099  40.916  20.440  13.763
13571W        W85100  29.017  33.660   1.659
13572W        W85101   8.745  32.201   0.568
13573W        W85102  13.165  20.133   3.419
13574W        W85103  17.173  38.835  11.928
13575W        W85104  20.222  19.293   3.162
13576W        W85105  19.051  14.359  12.000
13577W        W85106  20.464  41.313   4.463
13578W        W85107  42.150  10.381  10.358
13579W        W85108  32.914   6.020   2.845
13580W        W85109  39.724   5.280   3.858
13581W        W85110   2.536   1.900  11.466
13582W        W85111  11.689  21.437   2.563
13583W        W85112  14.854  43.485  10.769
13584W        W85113  19.618  10.742   2.120
13585W        W85114  34.021  43.019   3.307
13586W        W85115  14.180  41.177  13.417
13587W        W85116  21.295  44.130   3.738
13588W        W85117  28.065  11.244  12.355
13589W        W85118   7.335  33.774   4.945
13590W        W85119  36.633   2.120   2.362
13591W        W85120  20.327  44.388  10.057
13592W        W85121  39.089   7.235  12.584
13593W        W85122  26.644   8.388   4.586
13594W        W85123  26.039  38.027   3.705
13595W        W85124  23.569   3.939  14.239
13596W        W85125  41.103  43.054  12.036
13597W        W85126  11.424  20.529  11.519
13598W        W85127  43.755  10.323   2.689
13599W        W85128  27.542  44.766  11.128
13600W        W85129  27.888  10.147   4.556
13601W        W85130   2.646   5.801  12.555
13602W        W85131  28.584   0.856  14.030
13603W        W85132   4.723  29.386  14.464
13604W        W85133   2.053   1.990   0.886
13605W        W85134  44.737  39.011  10.207
13606W        W85135   6.897  22.835  12.273
13607W        W85136   1.894   9.377   2.999
13608W        W85137  21.660  19.812   4.044
13609W        W85138  29.142  22.072   0.636
13610W        W85139  42.523  24.506  10.740
13611W        W85140   9.652  37.343   1.178
13612W        W85141  22.544   1.729   3.108
13613W        W85142  31.607   1.665   1.273
13614W        W85143  21.292  42.546  11.093
13615W        W85144  28.507  12.921   1.398
13616W        W85145  40.614  32.079  10.180
13617W        W85146   3.317   8.375   0.348
13618W        W85147   4.681  32.528   4.228
13619W        W85148   8.853  38.927  12.514
13620W        W85149   7.543  24.674  12.344
13621W        W85150  21.204  27.107  12.464
13622W        W85151  26.744  29.071   3.648
13623W        W85152   2.203  12.811  11.111
13624W        W85153  20.155  22.101   4.717
13625W        W85154   2.800  38.100   2.583
13626W        W85155  34.978  28.810   1.058
13627W        W85156  41.546   3.952  11.526
13628W        W85157  34.434  17.103  14.056
13629W        W85158  32.206  41.232   1.953
13630W        W85159  20.188   2.834  14.455
13631W        W85160   6.707  38.585   2.308
13632W        W85161  44.342  32.452  10.442
13633W        W85162   3.396  14.396  13.868
13634W        W85163   0.446   4.796   9.988
13635W        W85164   9.186  18.830  14.898
13636W        W85165  18.143   8.832   3.247
13637W        W85166  37.907   1.357  12.177
13638W        W85167   7.757   2.342   4.542
13639W        W85168  39.049  35.934  12.969
13640W        W85169  12.802   6.764   2.442
13641W        W85170   6.420  32.505  12.106
13642W        W85171   4.474   9.350  14.036
13643W        W85172   4.352  31.360  13.313
13644W        W85173  10.303   9.972   4.807
13645W        W85174  37.333  41.191  14.599
13646W        W85175  33.321  18.968  13.629
13647W        W85176  22.079  43.777   2.755
13648W        W85177  27.682  12.135   0.219
13649W        W85178  14.221  28.891  10.666
13650W        W85179  25.135  20.691  14.722
13651W        W85180  41.535  19.699  13.493
13652W        W85181  44.010  41.953  14.411
13653W        W85182  35.801  31.558   1.925
13654W        W85183  14.188  41.647  12.499
13655W        W85184   7.690  27.871   2.552
13656W        W85185   4.654  42.808  12.553
13657W        W85186  32.078   8.657   4.904
13658W        W85187  22.868  34.456   1.306
13659W        W85188  26.558  34.659   1.754
13660W        W85189   4.784  17.733   2.730
13661W        W85190  25.641   5.233   1.880
13662W        W85191  42.287  44.025  13.393
13663W        W85192   7.563  28.291   9.730
13664W        W85193  23.178   5.383   4.532
13665W        W85194  37.546   4.698   1.288
13666W        W85195  43.274  35.503   0.830
13667W        W85196   0.603  24.594   4.083
13668W        W85197  30.212   4.657  10.810
13669W        W85198  38.478   5.943   0.820
13670W        W85199  44.336  39.032  12.141
13671W        W85200  11.613  40.191  10.690
13672W        W85201  38.401  11.548   2.314
13673W        W85202  15.563  23.071   4.142
13674W        W85203  29.433  36.803   0.275
13675W        W85204  42.364  20.685   0.199
13676W        W85205  12.125  37.198  11.701
13677W        W85206  11.817  10.127   1.364
13678W        W85207  20.143  26.071   0.013
13679W        W85208   7.407  43.374  12.357
13680W        W85209  43.503  37.535  12.955
13681W        W85210  38.359  43.292   2.150
13682W        W85211  27.885  30.386   1.735
13683W        W85212   0.518   8.378   2.685
13684W        W85213  25.442  28.362   2.264
13685W        W85214  14.351  36.949   2.304
13686W        W85215  18.894  13.452   4.976
13687W        W85216  15.143  33.727  14.838
13688W        W85217  17.027  32.263  12.100
13689W        W85218  31.094  36.276   3.393
13690W        W85219  14.225  22.122   3.870
13691W        W85220  12.203  11.610  10.554
13692W        W85221  37.907  32.586  11.899
13693W        W85222   5.875  25.756  11.623
13694W        W85223  44.433  42.074   0.396
13695W        W85224  13.239  36.342  12.039
13696W        W85225  35.014  35.533  11.876
13697W        W85226  34.409  38.375  10.729
13698W        W85227  30.559  20.238  12.601
13699W        W85228  40.834   2.922  11.554
13700W        W85229  43.308   6.734   3.184
13701W        W85230  35.970   7.392  12.957
13702W        W85231   9.719  24.263  14.273
13703W        W85232   3.830  10.640   1.281
13704W        W85233  42.259  18.229   3.427
13705W        W85234  24.070  42.452  14.568
13706W        W85235   8.869  44.196  12.366
13707W        W85236  33.422   4.958  11.936
13708W        W85237  16.637  10.107   1.823
13709W        W85238   3.986  17.038  12.725
13710W        W85239   6.231  14.097  11.374
13711W        W85240  26.055  41.447   4.742
13712W        W85241   7.953  38.441   1.913
13713W        W85242  38.564  21.310  14.873
13714W        W85243  24.133  42.417  11.537
13715W        W85244  17.224  34.186   1.837
13716W        W85245  22.192  44.238  14.966
13717W        W85246  40.261  40.007   1.638
13718W        W85247  22.557   8.798  12.586
13719W        W85248  35.103  32.617  13.310
13720W        W85249  36.033   7.423  11.989
13721W        W85250  36.425  21.498  12.980
13722W        W85251  41.084  12.796   3.808
13723W        W85252  27.899  39.162   4.165
13724W        W85253  39.811  22.796  13.962
13725W        W85254  37.632   1.249   2.284
13726W        W85255   0.221  31.297   5.002
13727W        W85256  36.526  23.339  13.455
13728W        W85257  38.586   2.436   0.224
13729W        W85258   2.446   1.200   3.173
13730W        W85259  23.406   5.128  13.564
13731W        W85260  24.632   3.874   3.332
13732W        W85261  19.635   9.681  14.245
13733W        W85262  34.990  33.404  12.947
13734W        W85263  28.952   0.098   4.109
13735W        W85264  35.942  20.986   2.681
13736W        W85265  43.890  20.730   4.329
13737W        W85266  34.508  43.706  14.095
13738W        W85267  34.970   9.160   1.406
13739W        W85268  29.538   8.803   0.617
13740W        W85269  16.784   3.745   0.301
13741W        W85270  33.467  35.964  10.619
13742W        W85271   5.432   3.425   3.073
13743W        W85272  20.862   0.279   2.772
13744W        W85273  11.102  43.220   4.654
13745W        W85274   4.414   6.293  13.517
13746W        W85275  31.150  15.168   1.313
13747W        W85276  24.718   9.889   3.749
13748W        W85277   2.723  40.869  11.984
13749W        W85278  41.294  23.356   1.178
13750W        W85279  15.695  18.498   0.267
13751W        W85280  18.723  29.902   1.761
13752W        W85281  38.596   3.004   1.789
13753W        W85282  13.390  23.087  11.918
13754W        W85283  43.773   4.822   2.189
13755W        W85284  15.080  43.934   4.541
13756W        W85285  30.449  28.004  11.981
13757W        W85286   8.262  32.095   3.398
13758W        W85287   8.637  25.316   0.402
13759W        W85288  25.041   4.161   2.210
13760W        W85289  30.517  32.328   3.744
13761W        W85290  21.042  43.413  12.965
13762W        W85291  20.701  20.272  12.670
13763W        W85292   4.300  44.262   1.218
13764W        W85293  17.884   9.787   4.415
13765W        W85294  19.518  22.138  13.943
13766W        W85295   3.409  24.429  13.020
13767W        W85296  43.638   8.568   5.014
13768W        W85297  19.212  14.320   2.733
13769W        W85298  24.808  30.788   4.129
13770W        W85299  17.002  33.656  12.236
13771W        W85300  19.769  22.701   2.129
13772W        W85301  39.419  33.966  11.437
13773W        W85302   8.992   3.986   4.655
13774W        W85303  36.451   6.835  14.179
13775W        W85304  28.106  10.279  13.268
13776W        W85305  26.425  12.307   3.844
13777W        W85306  13.388   1.907   0.090
13778W        W85307   6.655   8.649  13.451
13779W        W85308   7.569  25.629  13.467
13780W        W85309  19.115  35.020   1.859
13781W        W85310  36.911  19.246   1.733
13782W        W85311  28.677  44.550   2.259
13783W        W85312   6.118  11.307   1.206
13784W        W85313  29.107  29.370   0.476
13785W        W85314  22.658  26.581  13.806
13786W        W85315  10.260  31.574  13.551
13787W        W85316  25.151  14.739  14.807
13788W        W85317  30.965  36.560   3.863
13789W        W85318  28.141  17.327   1.361
13790W        W85319  23.670  36.133  14.389
13791W        W85320  11.205  32.722   2.738
13792W        W85321  44.584  32.948   4.554
13793W        W85322  41.922  39.001   1.840
13794W        W85323  22.639  13.370   4.944
13795W        W85324  39.841  21.662  12.434
13796W        W85325  23.188  22.127   4.141
13797W        W85326  43.808   1.014  14.131
13798W        W85327  33.347  20.147   2.345
13799W        W85328  30.014  38.500  11.467
13800W        W85329  33.140  21.361  12.017
13801W        W85330  17.822  27.992   0.934
13802W        W85331  17.287  34.876   1.416
13803W        W85332   1.264  27.290   3.777
13804W        W85333   4.689   5.866  13.401
13805W        W85334  26.873   9.716   0.379
13806W        W85335  28.929  24.932   0.749
13807W        W85336  16.262  41.778   3.386
13808W        W85337  13.626   3.878  13.108
13809W        W85338   3.773   1.213  10.876
13810W        W85339  13.383  22.940   3.623
13811W        W85340   9.260  20.069  13.123
13812W        W85341   3.663  42.460   4.390
13813W        W85342  35.523   6.550  10.761
13814W        W85343  26.765  39.665  13.312
13815W        W85344  25.744  24.582   0.849
13816W        W85345  28.070  19.590  11.400
13817W        W85346  30.690   7.839   4.591
13818W        W85347  37.854  21.561   1.424
13819W        W85348  44.210  20.649   2.269
13820W        W85349  26.857  29.758  12.679
13821W        W85350  23.006  29.202  14.483
13822W        W85351  32.975  15.856  12.489
13823W        W85352  21.632  32.156  14.303
13824W        W85353  18.177  12.919  13.853
13825W        W85354  17.580  19.030  11.904
13826W        W85355   3.614  15.523  11.212
13827W        W85356  29.536  34.246  12.887
13828W        W85357  22.227   3.551   3.217
13829W        W85358  15.419  11.369   1.938
13830W        W85359  10.593   1.831   4.248
13831W        W85360  40.827  40.343  11.639
13832W        W85361  44.487   1.047   4.008
13833W        W85362  16.223  18.307   4.077
13834W        W85363  20.625  42.070   1.356
13835W        W85364  36.126   4.511   3.518
13836W        W85365  38.691  18.007   4.513
13837W        W85366   0.216   3.864  12.000
13838W        W85367  19.991  40.645   3.950
13839W        W85368  11.970  40.533   1.817
13840W        W85369   8.743  43.341   2.450
13841W        W85370  24.158  21.437  10.538
13842W        W85371  19.222  31.082   2.366
13843W        W85372  35.036  15.286  12.153
13844W        W85373  32.959   6.205  12.078
13845W        W85374  12.682  40.853   1.344
13846W        W85375  18.563  24.904  10.661
13847W        W85376  41.807  37.550   3.832
13848W        W85377  17.394  30.944   2.825
13849W        W85378  29.295  41.406   0.412
13850W        W85379  43.734  22.059  11.163
13851W        W85380  26.757  17.256   4.371
13852W        W85381  30.765  21.494  10.583
13853W        W85382  18.267  39.652  11.624
13854W        W85383  19.422  42.924  13.430
13855W        W85384   8.643  31.828   2.470
13856W        W85385  29.345  42.831   2.646
13857W        W85386   9.265  24.364  11.616
13858W        W85387  18.020  28.017   2.306
13859W        W85388  44.834  11.649  14.912
13860W        W85389  12.431  20.532   0.312
13861W        W85390  25.403   8.613   3.417
13862W        W85391  26.781   8.205  12.457
13863W        W85392  10.101  35.667  11.177
13864W        W85393  16.040  25.213   3.771
13865W        W85394  34.062   9.836  12.884
13866W        W85395  17.099  27.827  12.045
13867W        W85396  44.006  25.500   3.626
13868W        W85397  33.446  22.749  10.449
13869W        W85398  37.584  34.728  14.781
13870W        W85399  38.878  37.898   2.536
13871W        W85400  43.113   6.410   4.674
13872W        W85401   0.007  39.665  13.071
13873W        W85402  15.906  36.985   4.176
13874W        W85403  19.229  22.761   2.616
13875W        W85404  44.941  33.907   1.871
13876W        W85405  44.303  26.748   3.364
13877W        W85406  44.925   8.842   2.295
13878W        W85407  40.127   1.889  11.626
13879W        W85408  14.320  29.653  11.974
13880W        W85409  39.392  43.830   4.901
13881W        W85410  13.351  18.241   2.387
13882W        W85411  12.676  37.085  14.298
13883W        W85412   2.397  40.505  12.973
13884W        W85413  43.814  26.057   4.554
13885W        W85414  12.326  36.452  14.396
13886W        W85415  26.046  17.860  12.375
13887W        W85416  28.937  31.052   3.658
13888W        W85417   5.249  25.909  13.372
13889W        W85418  14.142  43.490  12.910
13890W        W85419   4.418  39.680   4.752
13891W        W85420  40.388  24.856  14.977
13892W        W85421   5.594  27.726   0.488
13893W        W85422   0.610  34.860   2.427
13894W        W85423  15.133  31.173   2.231
13895W        W85424   5.411   2.729  14.512
13896W        W85425   7.401  42.352   1.846
13897W        W85426  19.123   7.411  12.429
13898W        W85427  32.797  10.709  11.251
13899W        W85428  39.917   8.734   3.588
13900W        W85429  41.552  32.616  12.911
13901W        W85430  23.714  34.399  12.457
13902W        W85431  16.779  16.448  11.273
13903W        W85432  12.287  28.878   2.233
13904W        W85433  25.971  38.501  11.129
13905W        W85434  14.297  44.356   4.206
13906W        W85435  32.116   2.181   0.247
13907W        W85436   8.365   2.865  12.318
13908W        W85437  21.736   9.683  11.976
13909W        W85438  22.647  43.487  14.239
13910W        W85439   7.312   9.790   0.339
13911W        W85440  35.583   2.421  12.961
13912W        W85441  35.541  36.523  11.639
13913W        W85442   6.303  25.226  11.105
13914W        W85443  16.351  16.938  14.482
13915W        W85444   8.242  39.751  13.507
13916W        W85445  24.274   8.379   0.700
13917W        W85446  16.733  23.713  14.491
13918W        W85447   0.743   8.167   4.040
13919W        W85448  18.225  11.526   4.010
13920W        W85449   7.217  36.577  13.214
13921W        W85450  26.005  10.227  14.319
13922W        W85451   4.682   8.016   2.431
13923W        W85452  15.959   6.641   4.189
13924W        W85453  17.080  34.726   0.970
13925W        W85454   6.232  39.488   2.331
13926W        W85455  20.149  21.857  11.927
13927W        W85456  33.510   1.574  14.584
13928W        W85457   2.405  39.726   1.951
13929W        W85458  31.553  26.069   3.560
13930W        W85459  23.057  13.052   4.871
13931W        W85460  44.270  29.630   2.436
13932W        W85461  40.323  18.714   0.144
13933W        W85462   2.288   2.557  13.590
13934W        W85463  43.479  13.711   4.556
13935W        W85464  43.922  35.680   3.780
13936W        W85465   7.825  39.464   4.733
13937W        W85466  29.636  25.836  13.998
13938W        W85467   9.600  38.087  13.597
13939W        W85468   4.849   8.403   2.737
13940W        W85469  26.876  31.928   1.256
13941W        W85470  24.802  36.531   4.567
13942W        W85471  14.127  34.826   2.374
13943W        W85472  37.510   9.852   4.898
13944W        W85473  14.796  22.051  10.806
13945W        W85474   0.389   5.693   3.297
13946W        W85475  33.641  12.679   0.927
13947W        W85476  15.881  39.969  14.074
13948W        W85477   1.703  13.595  11.159
13949W        W85478  26.015  18.756   4.229
13950W        W85479  42.870   1.335   2.633
13951W        W85480  21.292  24.965   0.464
13952W        W85481   9.281  16.326  13.031
13953W        W85482  22.241   6.465   1.342
13954W        W85483  28.571  11.308  12.278
13955W        W85484  16.339   1.397   1.643
13956W        W85485  22.667  41.677   3.309
13957W        W85486  20.784  22.389  12.056
13958W        W85487  38.444  15.059   1.549
13959W        W85488  29.975   5.051  13.798
13960W        W85489  21.021  36.087  10.730
13961W        W85490  30.000  30.575  11.536
13962W        W85491  41.836  23.126  14.389
13963W        W85492  10.187  23.867   5.098
13964W        W85493  23.065   1.996   0.005
13965W        W85494  26.671  37.639  13.527
13966W        W85495  36.887  22.638   3.837
13967W        W85496  44.521  42.590  12.431
13968W        W85497  35.204  42.800   2.292
13969W        W85498  24.596  10.880   1.289
13970W        W85499  19.728   4.729  13.947
13971W        W85500  20.847  23.119  13.236
13972W        W85501   2.773  20.370   4.120
13973W        W85502  24.363  22.517  12.639
13974W        W85503  26.592  32.656  13.871
13975W        W85504   7.452   0.951   1.395
13976W        W85505  29.620  21.078  10.728
13977W        W85506  34.719   2.811  12.693
13978W        W85507  32.001   4.376   3.343
13979W        W85508  23.979   1.030   4.659
13980W        W85509  24.696   0.781  12.274
13981W        W85510  28.863  26.569   2.371
13982W        W85511   9.797   1.252   3.143
13983W        W85512  27.150   8.915  14.306
13984W        W85513  12.311  42.535   3.210
13985W        W85514  36.104   5.292  11.345
13986W        W85515   3.973  40.312  11.516
13987W        W85516  28.455   0.034  13.619
13988W        W85517  23.115   9.986   4.286
13989W        W85518  19.024  13.857  12.066
13990W        W85519  15.647  28.063   4.333
13991W        W85520  42.658  20.289   0.385
13992W        W85521  12.390  29.961  13.101
13993W        W85522  29.096  33.078   0.963
13994W        W85523  38.796  25.087   3.710
13995W        W85524   9.427  10.348   3.907
13996W        W85525  35.991   6.290   1.245
13997W        W85526  39.497   3.672   3.352
13998W        W85527  15.395  35.225  13.057
13999W        W85528   5.720  22.767   1.047
14000W        W85529  21.817  35.341   1.835
14001W        W85530  10.305  44.004   1.603
14002W        W85531  34.194   5.694   1.376
14003W        W85532  22.785  40.842   4.520
14004W        W85533  24.092   3.198  12.150
14005W        W85534  42.018  21.397  12.856
14006W        W85535  35.046  44.198  10.674
14007W        W85536  26.950  20.055   3.143
14008W        W85537  36.943  16.647   1.711
14009W        W85538  16.302  14.502  12.920
14010W        W85539  42.906  23.953   5.015
14011W        W85540  33.369  19.598  12.435
14012W        W85541  20.130  24.362  13.132
14013W        W85542  29.155  18.198   4.210
14014W        W85543  44.887   0.991  12.464
14015W        W85544  18.854  19.250  11.594
14016W        W85545  20.985  12.920  13.322
14017W        W85546  11.808  35.314   0.395
14018W        W85547  16.862   2.197  14.034
14019W        W85548  39.970  36.275   3.614
14020W        W85549  22.862  32.105   2.203
14021W        W85550  44.725   2.879  12.082
14022W        W85551  19.747  18.964  13.443
14023W        W85552  23.985   1.829   3.933
14024W        W85553   9.170  31.101   0.019
14025W        W85554  36.128   8.225  13.930
14026W        W85555  34.098   5.531  11.948
14027W        W85556  21.033  26.590  14.997
14028W        W85557  29.461  40.958  13.912
14029W        W85558   4.915  25.812  10.730
14030W        W85559   7.150  27.987  13.180
14031W        W85560   4.900  16.539   2.222
14032W        W85561  20.120  27.475  11.145
14033W        W85562  34.542  20.722   0.848
14034W        W85563  16.608  20.157   2.709
14035W        W85564  39.561  33.393   2.214
14036W        W85565   6.272  33.975  13.321
14037W        W85566  42.584  19.694  13.861
14038W        W85567  16.529  39.694  11.072
14039W        W85568  16.785  15.726   4.308
14040W        W85569   5.163  24.694  12.682
14041W        W85570  17.783  19.338  14.612
14042W        W85571   8.460   1.999  12.509
14043W        W85572  21.243  24.890   2.829
14044W        W85573   2.192  21.178  10.796
14045W        W85574  44.857  32.353   3.265
14046W        W85575   6.403  22.465  11.046
14047W        W85576  41.587  22.774   0.297
14048W        W85577   9.705   3.196   3.866
14049W        W85578  36.356  27.036   3.735
14050W        W85579  27.466   2.400   3.692
14051W        W85580  37.554  22.141  10.631
14052W        W85581  26.639   3.359  11.750
14053W        W85582  19.147  33.814  12.635
14054W        W85583  23.612   4.430   0.429
14055W        W85584  15.944  44.477   3.636
14056W        W85585   4.812  18.250  14.526
14057W        W85586  12.130   6.852   1.682
14058W        W85587   5.824  11.093  13.688
14059W        W85588  38.306   9.057   3.703
14060W        W85589   2.233  17.238   3.765
14061W        W85590  30.990   4.484   0.830
14062W        W85591  22.148  39.307  13.890
14063W        W85592  22.098  16.388   0.258
14064W        W85593   2.219  26.468  12.977
14065W        W85594  28.433  18.246  13.985
14066W        W85595  23.378  14.162   2.425
14067W        W85596  10.512  20.573   4.245
14068W        W85597  11.635  11.629   2.363
14069W        W85598  37.092  37.480  14.196
14070W        W85599  30.637  44.222   1.729
14071W        W85600   2.412  28.182  12.856
14072W        W85601  13.266   4.745  11.550
14073W        W85602  33.634  40.401   2.169
14074W        W85603  27.381   9.713  14.498
14075W        W85604  21.258  44.380  14.546
14076W        W85605  34.230  28.233   5.188
14077W        W85606  25.947  33.532   3.470
14078W        W85607  20.741   0.333  11.998
14079W        W85608  33.116  44.677   3.386
14080W        W85609  22.366  33.923   0.557
14081W        W85610  27.939  19.675  14.259
14082W        W85611  42.185  31.523   4.045
14083W        W85612  10.148  44.265  13.630
14084W        W85613  31.975  18.591   5.037
14085W        W85614   5.487  19.667  11.585
14086W        W85615   6.276  22.225  12.075
14087W        W85616  25.613  14.532   4.171
14088W        W85617   5.807  11.156  14.233
14089W        W85618  20.500  16.267   4.332
14090W        W85619   3.322  15.328   2.711
14091W        W85620  38.593  31.391   1.682
14092W        W85621  27.069  27.774  12.596
14093W        W85622   2.973   3.475   1.819
14094W        W85623  24.100  11.685   1.268
14095W        W85624  24.191  42.894   2.315
14096W        W85625  19.626  11.270   1.417
14097W        W85626  15.935  24.296   3.594
14098W        W85627  34.822  28.702   1.865
14099W        W85628  42.375  13.517  14.760
14100W        W85629  21.758   9.980   1.754
14101W        W85630  20.798  24.072  12.629
14102W        W85631  43.510  15.807  12.266
14103W        W85632  34.795   2.188  13.382
14104W        W85633  41.388   7.840  13.893
14105W        W85634  30.066  30.086  12.996
14106W        W85635   8.793  31.972  12.554
14107W        W85636  43.801  37.446   2.707
14108W        W85637  16.803  14.118  11.311
14109W        W85638  40.776  13.748  11.013
14110W        W85639   6.437  26.513   1.488
14111W        W85640   6.772  28.675  14.749
14112W        W85641  22.681   0.460   3.378
14113W        W85642  44.739   5.660   1.764
14114W        W85643  32.517   7.801   4.826
14115W        W85644  36.962   2.000   2.725
14116W        W85645  25.893  28.973   0.527
14117W        W85646  11.398  36.122   1.730
14118W        W85647  17.726  16.759  11.215
14119W        W85648  12.022  35.902  13.913
14120W        W85649   6.272  40.872   1.755
14121W        W85650  12.114  27.199  11.115
14122W        W85651  38.250  20.251   3.394
14123W        W85652  22.352  21.836   3.669
14124W        W85653  37.139  12.165  13.574
14125W        W85654   0.961   7.748   1.371
14126W        W85655  24.476  16.640   0.405
14127W        W85656  19.216  31.687   2.747
14128W        W85657  11.738  41.133   0.236
14129W        W85658  42.857  37.445  14.915
14130W        W85659  43.783  43.380   2.344
14131W        W85660  43.899   2.207   0.500
14132W        W85661  24.136  17.684  11.632
14133W        W85662  14.590  18.250   2.147
14134W        W85663  35.880  31.206  13.962
14135W        W85664  23.514  16.219   0.675
14136W        W85665  34.059   6.907   0.981
14137W        W85666  36.557  39.415  12.572
14138W        W85667  21.641  20.242  10.799
14139W        W85668  20.489   8.729   2.847
14140W        W85669  17.480  10.774   3.583
14141W        W85670  24.883  15.621   3.615
14142W        W85671  13.796  24.914   0.928
14143W        W85672  38.985  10.768  11.236
14144W        W85673  13.136  38.437   2.371
14145W        W85674  26.428  40.896   2.090
14146W        W85675   6.224  17.961   3.565
14147W        W85676  30.600   4.267  13.662
14148W        W85677  16.831  36.404   4.688
14149W        W85678  23.637  39.758  13.400
14150W        W85679  33.215  34.347   3.814
14151W        W85680   1.588   7.856  10.737
14152W        W85681  39.855  19.087  12.543
14153W        W85682  42.757  29.169   0.922
14154W        W85683  19.809  40.742   2.281
14155W        W85684  17.522  20.706   2.562
14156W        W85685   8.523  11.244   1.372
14157W        W85686  35.037  33.459  13.940
14158W        W85687  22.155   8.724   1.958
14159W        W85688  29.954  15.785  11.126
14160W        W85689  18.206   7.655  11.958
14161W        W85690  17.192   1.403   4.577
14162W        W85691   4.223  32.820   4.413
14163W        W85692  22.805   1.460  14.230
14164W        W85693   9.896  42.542  14.748
14165W        W85694  17.342  19.677  10.275
14166W        W85695  39.011  23.042   4.572
14167W        W85696   6.876  20.167  12.103
14168W        W85697  12.189  41.182   3.545
14169W        W85698  39.537   1.478  12.893
14170W        W85699  18.652   0.052   2.839
14171W        W85700  25.713  37.339   1.781
14172W        W85701  15.690  30.690   4.614
14173W        W85702  32.444  31.359   1.729
14174W        W85703  26.694  27.017  13.371
14175W        W85704   7.977  14.333   3.181
14176W        W85705  42.277  37.391  13.727
14177W        W85706   0.700  13.959   5.102
14178W        W85707  38.678  30.197  13.927
14179W        W85708  43.375  36.219   0.809
14180W        W85709  14.583  39.378  13.990
14181W        W85710  40.068   2.983   3.717
14182W        W85711  25.942   3.203   1.659
14183W        W85712  13.611  43.291   3.789
14184W        W85713  30.496  11.734   4.435
14185W        W85714  28.842  29.889   3.185
14186W        W85715  34.776  17.850  10.921
14187W        W85716  39.883   7.710   3.591
14188W        W85717  20.027  27.349  12.133
14189W        W85718  15.267  18.011  10.663
14190W        W85719  11.952  22.781   1.367
14191W        W85720  30.925   1.847  13.075
14192W        W85721  31.859  22.150   2.895
14193W        W85722  23.447  16.634   4.698
14194W        W85723  32.096  11.255   4.304
14195W        W85724  25.575  11.842   1.645
14196W        W85725   9.135  26.316   0.928
14197W        W85726  43.987  12.673   2.728
14198W        W85727  33.495  36.976   2.864
14199W        W85728  11.425  10.831   0.313
14200W        W85729  33.038  28.535   2.678
14201W        W85730  23.229   1.359   3.578
14202W        W85731  17.351  13.710   2.686
14203W        W85732   1.375  13.950   1.777
14204W        W85733  28.139   2.872  14.518
14205W        W85734  15.404  14.249  12.039
14206W        W85735  43.623  43.883  12.887
14207W        W85736   4.269  29.037  11.892
14208W        W85737  11.369  30.425   2.315
14209W        W85738  39.216   1.115   4.929
14210W        W85739   4.260   0.676   3.235
14211W        W85740  24.981  34.552   4.119
14212W        W85741  14.610  35.588   1.178
14213W        W85742  34.480  11.665  11.954
14214W        W85743   9.771  40.407   1.657
14215W        W85744  39.844  33.490  10.005
14216W        W85745  23.616  23.871  12.406
14217W        W85746   4.352  30.281   1.517
14218W        W85747  29.631  36.027   3.047
14219W        W85748  12.045  16.821  14.309
14220W        W85749  31.365  15.092  14.428
14221W        W85750  37.485   5.091   4.128
14222W        W85751  14.566  30.624   1.727
14223W        W85752  12.063  28.043   3.308
14224W        W85753  41.010  11.017   0.895
14225W        W85754  32.362  33.535  10.585
14226W        W85755   1.425  28.738  11.663
14227W        W85756  15.827  27.421   3.150
14228W        W85757  25.021  38.562  12.424
14229W        W85758  35.535  24.091   4.861
14230W        W85759   0.535   7.769  10.692
14231W        W85760  43.308  31.934   5.374
14232W        W85761  21.647  32.578   2.473
14233W        W85762   3.873   1.884   2.625
14234W        W85763   1.616  19.789   4.236
14235W        W85764   3.328  38.847   4.699
14236W        W85765   9.286  10.651   2.150
14237W        W85766  37.239  38.956  12.438
14238W        W85767  10.411  22.482   4.176
14239W        W85768  14.948   0.230  12.630
14240W        W85769  21.261  15.283  11.024
14241W        W85770  26.241   3.648  12.031
14242W        W85771  37.039  37.424  11.915
14243W        W85772  29.635  41.300  13.543
14244W        W85773   7.947  33.459  12.988
14245W        W85774  31.003   8.374   2.368
14246W        W85775  32.435  41.083  11.689
14247W        W85776  40.967  27.183   1.472
14248W        W85777   5.453  22.118   0.349
14249W        W85778  34.498  32.536   1.436
14250W        W85779  17.593  38.997  13.268
14251W        W85780  43.375  16.365   4.276
14252W        W85781  35.099  40.910  12.960
14253W        W85782  18.033  37.525   0.077
14254W        W85783  31.275  43.370  13.553
14255W        W85784   5.718  25.627   0.430
14256W        W85785  26.868  39.788   3.368
14257W        W85786  36.591   2.928  12.033
14258W        W85787  25.504  30.630  10.594
14259W        W85788  42.514   9.370   2.834
14260W        W85789  41.898  13.095  12.507
14261W        W85790  33.590  23.916   2.192
14262W        W85791  22.898  21.681   2.328
14263W        W85792  30.504   0.247   4.075
14264W        W85793  34.713  30.184  13.486
14265W        W85794  11.857  32.617   2.213
14266W        W85795  11.349   7.849   1.339
14267W        W85796  17.178  19.668   3.577
14268W        W85797  38.810  36.493   2.002
14269W        W85798  44.972  10.349  14.061
14270W        W85799  34.609   2.772   0.784
14271W        W85800  14.385  24.019  13.049
14272W        W85801   5.017   0.566  14.772
14273W        W85802  22.260  28.063  11.457
14274W        W85803  37.139  39.063  11.464
14275W        W85804  16.700  10.502   4.261
14276W        W85805  11.821   1.025   0.747
14277W        W85806  14.556  13.361   0.459
14278W        W85807  44.935   4.863   1.293
14279W        W85808  32.874  26.113   1.249
14280W        W85809  21.919   7.580   0.366
14281W        W85810  19.302  42.819   4.121
14282W        W85811  40.897  37.761   3.425
14283W        W85812  10.604   0.897   3.299
14284W        W85813   7.316  12.680   3.120
14285W        W85814  21.709  14.256  11.793
14286W        W85815  15.269  24.142  12.115
14287W        W85816   2.387  34.848  13.367
14288W        W85817  28.519  43.940  10.675
14289W        W85818  25.044   9.824  14.025
14290W        W85819  28.127  16.746   1.744
14291W        W85820   1.790  37.674   4.263
14292W        W85821  32.873  18.236   4.629
14293W        W85822  29.374   7.275  11.209
14294W        W85823  43.684   3.457   4.576
14295W        W85824   3.635   9.670  13.975
14296W        W85825  14.410   1.322   3.757
14297W        W85826  33.563  10.957  12.002
14298W        W85827  38.788   4.766   3.699
14299W        W85828  25.667  15.994   4.075
14300W        W85829  25.615  22.138   4.174
14301W        W85830   6.987  12.711   2.726
14302W        W85831  26.736  21.469  13.867
14303W        W85832  11.069  28.637  11.634
14304W        W85833  43.078  18.694  11.598
14305W        W85834  12.291  16.576   1.183
14306W        W85835   5.533  30.310   3.773
14307W        W85836   2.191  29.677  13.032
14308W        W85837  26.901  32.594  14.645
14309W        W85838   1.950  12.286   1.273
14310W        W85839  44.223  26.608   0.178
14311W        W85840  23.742  11.891   0.917
14312W        W85841  23.492  44.898   1.289
14313W        W85842  34.302  23.824  13.827
14314W        W85843  40.388  42.216   2.679
14315W        W85844  10.135   9.114   4.182
14316W        W85845   9.814  32.192   1.198
14317W        W85846  25.718  19.021  12.330
14318W        W85847  28.050   6.194  14.425
14319W        W85848  15.739  22.992   0.376
14320W        W85849  37.086  20.808   4.038
14321W        W85850   5.284  15.061   0.864
14322W        W85851  35.028   2.972  10.543
14323W        W85852  32.157  23.594  12.863
14324W        W85853  22.714  24.775   0.056
14325W        W85854  40.885  40.632  13.373
14326W        W85855   0.778  27.807  10.741
14327W        W85856  26.118  43.569   2.052
14328W        W85857  17.743  44.918   3.825
14329W        W85858  22.972  36.977   4.573
14330W        W85859   9.318  13.578   4.703
14331W        W85860  27.517   3.526  11.827
14332W        W85861  36.422   3.005   0.894
14333W        W85862   0.930  39.488   4.668
14334W        W85863  39.534  21.263  12.463
14335W        W85864  10.415   8.494  12.710
14336W        W85865  35.049  39.427  10.581
14337W        W85866  11.320  24.191   0.420
14338W        W85867  23.930   9.877  10.717
14339W        W85868  30.147  25.745  14.946
14340W        W85869  16.447  35.358   3.004
14341W        W85870  41.553   3.813   4.232
14342W        W85871   8.856  44.411  10.142
14343W        W85872  14.761  23.587  14.162
14344W        W85873  33.980  28.460   1.913
14345W        W85874  13.181  34.393   1.485
14346W        W85875   9.285  12.158  12.509
14347W        W85876  28.930  27.086  13.862
14348W        W85877  29.411  40.522  14.391
14349W        W85878  29.720  11.854   0.009
14350W        W85879   6.375  17.486  12.082
14351W        W85880  14.043  40.449   2.244
14352W        W85881  16.273  30.630   1.288
14353W        W85882  27.544   5.236   2.368
14354W        W85883  14.118  40.401   3.268
14355W        W85884  24.648  41.592   3.213
14356W        W85885  11.591  42.962  11.556
14357W        W85886  19.170  14.282   0.131
14358W        W85887  28.369   6.882  12.061
14359W        W85888  24.208  31.165  14.505
14360W        W85889   5.270  27.974   4.125
14361W        W85890  40.717   2.281   4.858
14362W        W85891  39.989  31.354  13.263
14363W        W85892   7.218  12.744   1.250
14364W        W85893  39.666  20.272   4.181
14365W        W85894  11.031  38.663  10.161
14366W        W85895  13.765  15.144   0.010
14367W        W85896  32.932  35.401   1.827
14368W        W85897  10.772  23.427   2.643
14369W        W85898  17.273   2.922   1.215
14370W        W85899  32.153  30.081  10.485
14371W        W85900  27.820  43.636   0.206
14372W        W85901  25.061   6.167   3.655
14373W        W85902  39.290   3.347   2.768
14374W        W85903  14.247  38.640   1.963
14375W        W85904  27.880  34.968  13.658
14376W        W85905  40.718   2.283   1.411
14377W        W85906  12.116   1.018   0.317
14378W        W85907  17.720  11.522   0.372
14379W        W85908   0.828  11.674  10.755
14380W        W85909  26.955  35.898  11.088
14381W        W85910  44.783  26.974   3.350
14382W        W85911  12.734  21.030   2.960
14383W        W85912  16.320  34.098  14.060
14384W        W85913  12.030  16.358   2.674
14385W        W85914   3.914  20.566  11.477
14386W        W85915  29.936  38.917  13.435
14387W        W85916   5.732  43.159  13.501
14388W        W85917  42.729  17.184   3.694
14389W        W85918   4.944  32.097   4.278
14390W        W85919  37.611  35.849  11.172
14391W        W85920  39.393  20.643   3.936
14392W        W85921  21.683  28.111   4.563
14393W        W85922  40.088  41.781  14.291
14394W        W85923  11.637  35.825   1.344
14395W        W85924  31.718  24.312  14.769
14396W        W85925   2.416  26.434   0.313
14397W        W85926   9.553  44.207  10.995
14398W        W85927  38.703  25.432   3.326
14399W        W85928  10.905  36.929   1.929
14400W        W85929  22.292   8.910   4.877
14401W        W85930  44.373  33.032   5.022
14402W        W85931  35.139  19.184  13.649
14403W        W85932  19.680  12.845  11.557
14404W        W85933  30.057  33.535   0.434
14405W        W85934  40.762  31.576  14.314
14406W        W85935  13.560   4.443   1.776
14407W        W85936   8.992  31.072   4.580
14408W        W85937  19.113  15.100  11.617
14409W        W85938  18.976  38.771  13.493
14410W        W85939  16.793   4.680   2.824
14411W        W85940  18.083  10.666   4.955
14412W        W85941  10.403   2.799  14.753
14413W        W85942  23.177   6.701   0.352
14414W        W85943  39.312  11.081   0.287
14415W        W85944  14.676  32.985  13.977
14416W        W85945  19.493   5.938   2.220
14417W        W85946   3.002  24.246   4.558
14418W        W85947   8.499  30.520   4.060
14419W        W85948   2.955  10.073   0.875
14420W        W85949  23.573   1.829   4.254
14421W        W85950  23.460   9.251  13.931
14422W        W85951  44.777  29.493  10.624
14423W        W85952  35.891   8.615  14.829
14424W        W85953  15.823  14.223  13.018
14425W        W85954  13.512  39.968  13.409
14426W        W85955  27.130  11.926   0.961
14427W        W85956  26.467  24.177  12.866
14428W        W85957  15.668   0.681   1.795
14429W        W85958  40.465  44.856  14.230
14430W        W85959   8.908  23.535   2.769
14431W        W85960  39.448  39.911   0.130
14432W        W85961  18.113  18.160   2.719
14433W        W85962  12.686  18.032   3.568
14434W        W85963  27.532   6.386  13.080
14435W        W85964  31.164  36.635   4.828
14436W        W85965   6.842  33.261  13.527
14437W        W85966  21.204  30.482   3.662
14438W        W85967  26.009   9.421   1.210
14439W        W85968  34.525  13.892   4.250
14440W        W85969  33.026   6.857   4.501
14441W        W85970   7.705  23.271  13.573
14442W        W85971   1.303  31.973  12.050
14443W        W85972   7.125  41.303   1.592
14444W        W85973  20.821  11.234  14.446
14445W        W85974  41.416  24.088   3.693
14446W        W85975  39.954  31.808  14.954
14447W        W85976  28.232  11.855  11.697
14448W        W85977  16.157  18.776  14.845
14449W        W85978  28.201  19.554   4.193
14450W        W85979   7.750  25.892   4.600
14451W        W85980  24.957  43.219  10.828
14452W        W85981  10.283   1.433  12.510
14453W        W85982  37.982   6.294   4.730
14454W        W85983  19.460  38.845  10.775
14455W        W85984  34.847  44.007   0.544
14456W        W85985  22.081  33.469  14.036
14457W        W85986  43.950  30.698   2.746
14458W        W85987  32.556  22.467  11.090
14459W        W85988  34.469  20.819   1.823
14460W        W85989  18.948  27.719   3.252
14461W        W85990  44.419  23.451  13.056
14462W        W85991  15.899   6.795   0.283
14463W        W85992  24.072  15.542  12.100
14464W        W85993  11.145  38.481   1.315
14465W        W85994  13.834  31.152   3.863
14466W        W85995  13.055  19.017   0.829
14467W        W85996  43.193  26.995   0.614
14468W        W85997  25.113  41.228   3.213
14469W        W85998  25.161  35.654  14.988
14470W        W85999  26.032  25.658  10.555
14471W        W86000  32.545   1.033   1.235
14472W        W86001  40.600  30.427  12.065
14473W        W86002  15.124  23.359  11.524
14474W        W86003  15.486   7.995   2.151
14475W        W86004  15.207   2.842  12.794
14476W        W86005   1.345  36.339   3.658
14477W        W86006  10.870  27.655   3.135
14478W        W86007  14.386  12.381   0.495
14479W        W86008  23.110  22.821   1.363
14480W        W86009  38.254   0.235   3.707
14481W        W86010  37.318  22.268   4.127
14482W        W86011  29.966  28.268  11.100
14483W        W86012  35.709  43.767   2.633
14484W        W86013   4.462  27.959   5.166
14485W        W86014  39.508   4.929  12.613
14486W        W86015   9.942   0.190   0.847
14487W        W86016  32.480  37.041   1.794
14488W        W86017  16.408  13.982   1.793
14489W        W86018  39.045  16.425  14.892
14490W        W86019  27.014  10.660  11.499
14491W        W86020  26.476  23.912  11.587
14492W        W86021   3.275   2.560  10.645
14493W        W86022   6.587  20.853   2.757
14494W        W86023   4.402  17.108  11.197
14495W        W86024  18.818  40.019  13.292
14496W        W86025  27.513   7.870   1.253
14497W        W86026  40.925   4.328  13.184
14498W        W86027  25.482  25.513  14.569
14499W        W86028   9.137  20.752  11.962
14500W        W86029   0.987  26.474   2.709
14501W        W86030  22.088  25.370  14.320
14502W        W86031  43.418  17.093  14.743
14503W        W86032  32.376  30.914  11.317
14504W        W86033  14.650  33.103   0.541
14505W        W86034  38.820  16.807   2.040
14506W        W86035  17.336  18.576  11.151
14507W        W86036  19.253  23.124   4.882
14508W        W86037  22.905  43.962  14.399
14509W        W86038  40.134  18.923  13.493
14510W        W86039  29.615  38.371   2.704
14511W        W86040  10.580  26.433   4.548
14512W        W86041  30.596  11.795  11.184
14513W        W86042  23.574  34.950   1.125
14514W        W86043   3.900  33.496   0.455
14515W        W86044  10.132   0.273  14.648
14516W        W86045  22.375  15.758   5.230
14517W        W86046   0.817   8.158  10.904
14518W        W86047  43.553  41.235   4.063
14519W        W86048  41.494  31.621   2.876
14520W        W86049  39.495   0.800   3.723
14521W        W86050  20.577   9.521  14.793
14522W        W86051   1.390  23.939  10.704
14523W        W86052  20.869  44.851  13.456
14524W        W86053  33.353  39.080  12.784
14525W        W86054  31.846   9.000   4.167
14526W        W86055   9.138   1.016  13.396
14527W        W86056   0.684   8.473  10.514
14528W        W86057  12.982  25.158  12.084
14529W        W86058   6.859  40.451   4.262
14530W        W86059  34.129  34.941   2.215
14531W        W86060   7.859  11.747   1.784
14532W        W86061  26.888   1.892   0.661
14533W        W86062  43.160   1.048   4.787
14534W        W86063   2.837   1.031  11.540
14535W        W86064  14.146   6.716  12.815
14536W        W86065  10.750  11.812   1.778
14537W        W86066  35.085   4.098   1.501
14538W        W86067   7.589   5.165  10.753
14539W        W86068  25.266  18.272   1.784
14540W        W86069  20.056  39.142   3.179
14541W        W86070  19.642  19.095  12.141
14542W        W86071  16.213   6.438  13.898
14543W        W86072  38.957  10.732  12.132
14544W        W86073  24.077   2.303  13.894
14545W        W86074  26.463   6.034   3.371
14546W        W86075  37.574  39.329  11.577
14547W        W86076  28.057  23.672  10.300
14548W        W86077  18.314  33.681  11.078
14549W        W86078   5.039  10.312  11.256
14550W        W86079  18.454   2.014  12.421
14551W        W86080   6.022   0.476  12.047
14552W        W86081   9.799  18.682   3.338
14553W        W86082  25.821  41.226  13.864
14554W        W86083  14.108  31.939   2.265
14555W        W86084  31.888  31.461  13.658
14556W        W86085  28.890  44.521   1.775
14557W        W86086  15.795  35.975   3.288
14558W        W86087  23.632  28.024  13.480
14559W        W86088  31.595  31.085   3.037
14560W        W86089  14.193  12.882   2.854
14561W        W86090   9.341  27.097   2.124
14562W        W86091  16.500  40.548  12.431
14563W        W86092  25.990  35.458   3.174
14564W        W86093   4.659  41.020  12.165
14565W        W86094  33.489  13.363  12.029
14566W        W86095  25.195  11.059  11.719
14567W        W86096  20.598  21.233   9.884
14568W        W86097  10.636  30.883  14.036
14569W        W86098  39.739  25.663   1.850
14570W        W86099   9.917  22.601   1.354
14571W        W86100   7.247  11.864  10.600
14572W        W86101  15.570  19.419   4.334
14573W        W86102  37.345  23.921   2.649
14574W        W86103   2.035  40.424   2.332
14575W        W86104  26.942  31.216  12.001
14576W        W86105  39.546  38.396   0.687
14577W        W86106   8.837  11.169  10.275
14578W        W86107  18.185  44.709  10.390
14579W        W86108  27.414  20.255  13.322
14580W        W86109  14.832   7.230   0.026
14581W        W86110  30.715  31.429  10.660
14582W        W86111   2.353  17.749   3.642
14583W        W86112  11.172   8.820  11.550
14584W        W86113   1.709  38.204  13.508
14585W        W86114   3.463  10.375   2.375
14586W        W86115  44.675  20.417   4.133
14587W        W86116  41.493  28.999  13.878
14588W        W86117   1.293   6.118  12.454
14589W        W86118  19.545   6.281   2.721
14590W        W86119  31.988  34.522  13.928
14591W        W86120  43.312  23.189  13.214
14592W        W86121  36.904  17.210   2.371
14593W        W86122  24.882  37.857  10.677
14594W        W86123   3.785   3.284  13.400
14595W        W86124  14.643  34.866   4.910
14596W        W86125  25.959  28.279   2.207
14597W        W86126  32.441  24.544  11.066
14598W        W86127  27.082  28.774  12.422
14599W        W86128  41.798  14.770  11.254
14600W        W86129  20.814   1.906   2.163
14601W        W86130  24.446  25.402  11.780
14602W        W86131  25.978  40.728  12.503
14603W        W86132  39.889  41.803  11.586
14604W        W86133   0.014  17.359   4.117
14605W        W86134  25.988  29.850   0.891
14606W        W86135   0.727  11.312  14.932
14607W        W86136  37.288   9.834   2.467
14608W        W86137  31.399  10.715  10.923
14609W        W86138  25.047   1.003   2.790
14610W        W86139  15.179  42.802   2.836
14611W        W86140  21.896  11.936  13.430
14612W        W86141  25.362  36.627   2.831
14613W        W86142  13.265  33.555  12.334
14614W        W86143  29.652  39.217   3.062
14615W        W86144   5.643  20.687   4.246
14616W        W86145  20.415  38.448   3.680
14617W        W86146  22.551  33.550  11.045
14618W        W86147  16.363  31.163  12.978
14619W        W86148   9.810  33.084   4.700
14620W        W86149  40.487  38.309  12.183
14621W        W86150  41.473  22.510   3.016
14622W        W86151  13.816  15.672   0.016
14623W        W86152  22.226  26.014   3.404
14624W        W86153  18.566  14.716   1.324
14625W        W86154  33.550  31.707   3.676
14626W        W86155  36.051  34.901   2.697
14627W        W86156  20.577  28.591   0.875
14628W        W86157  36.224  42.846   2.227
14629W        W86158  12.749  40.899  14.957
14630W        W86159  27.895  38.123   2.355
14631W        W86160   5.369  38.800  12.135
14632W        W86161  33.949   3.931  12.409
14633W        W86162  16.353   7.102  11.584
14634W        W86163   1.814  30.324  12.627
14635W        W86164  20.266  30.324  11.616
14636W        W86165  37.559   6.924   2.785
14637W        W86166  20.542   4.441   0.292
14638W        W86167  26.970  25.364   5.272
14639W        W86168  10.649   0.730  12.104
14640W        W86169  39.540  30.079   0.263
14641W        W86170  42.517  36.801   0.883
14642W        W86171  30.040   9.829  10.758
14643W        W86172  43.317  18.599  10.765
14644W        W86173  23.661   7.782  11.118
14645W        W86174  21.775  17.829  13.567
14646W        W86175  43.083  11.786   3.102
14647W        W86176  36.110  25.608   4.777
14648W        W86177  42.301  25.163   1.261
14649W        W86178  29.581  21.312   3.364
14650W        W86179  21.989  18.877   2.754
14651W        W86180  12.207  44.560   2.336
14652W        W86181  29.546  17.647   4.613
14653W        W86182   0.473  13.747   2.176
14654W        W86183   7.447   9.763  13.957
14655W        W86184  43.363  26.536   0.885
14656W        W86185   8.349  42.708  14.978
14657W        W86186  40.824  26.646   4.312
14658W        W86187  22.751  32.037   3.776
14659W        W86188  35.197   8.316  12.525
14660W        W86189  37.389  27.662  13.988
14661W        W86190  43.319  19.338  12.849
14662W        W86191   7.662   9.693   2.807
14663W        W86192  38.365   3.201   3.788
14664W        W86193   3.462  29.605   3.666
14665W        W86194   6.515  21.850   0.470
14666W        W86195   6.921  27.879   2.832
14667W        W86196   9.877  32.563   4.536
14668W        W86197  44.918  31.571  12.681
14669W        W86198   5.195  11.603   2.765
14670W        W86199  20.012  41.678   1.759
14671W        W86200  27.466  15.560   4.379
14672W        W86201  41.546  28.243   3.655
14673W        W86202  23.996   7.787  14.838
14674W        W86203  29.068   0.906  13.827
14675W        W86204  35.600  33.622   1.801
14676W        W86205   7.953   1.323  12.504
14677W        W86206  26.470  25.480  13.480
14678W        W86207   2.208  44.010  13.646
14679W        W86208   8.187  11.440   0.922
14680W        W86209  11.148  13.874  11.115
14681W        W86210   7.150  44.014   2.336
14682W        W86211  35.355   4.041   2.767
14683W        W86212   7.531  19.718  10.447
14684W        W86213  25.834  33.788  11.704
14685W        W86214  26.143   4.820  10.713
14686W        W86215   7.696   0.493  14.926
14687W        W86216   8.794  22.891   1.406
14688W        W86217  16.146  21.627  13.345
14689W        W86218  26.239  33.445  11.612
14690W        W86219  23.727  39.462  14.759
14691W        W86220  28.173  12.335   3.755
14692W        W86221  31.018  42.327  14.945
14693W        W86222  41.144  40.029  14.736
14694W        W86223  31.619  38.619   0.226
14695W        W86224  44.837  25.193   3.620
14696W        W86225  31.854  32.906  13.584
14697W        W86226  25.178  44.556  10.361
14698W        W86227  35.153  31.027   0.512
14699W        W86228   6.826  23.601   2.493
14700W        W86229  13.409   5.464  13.821
14701W        W86230  13.138  31.351   1.520
14702W        W86231  17.598  21.204  11.092
14703W        W86232  34.567  35.916  14.974
14704W        W86233  27.269   8.834  12.918
14705W        W86234  31.113  33.657   0.893
14706W        W86235  43.171  25.142   0.973
14707W        W86236  13.314   5.647   0.012
14708W        W86237  24.459  44.613   2.000
14709W        W86238   3.868  19.239   4.920
14710W        W86239  24.455  18.123   0.236
14711W        W86240  29.455  30.220  12.145
14712W        W86241  19.222  28.409   1.232
14713W        W86242  27.513  24.152   1.744
14714W        W86243  35.291   8.429   1.506
14715W        W86244  29.239  33.435  12.416
14716W        W86245   4.159  18.770  12.496
14717W        W86246  10.424  44.870   4.574
14718W        W86247  22.162  37.896   2.266
14719W        W86248  12.207  27.569  14.497
14720W        W86249  32.365  21.135  14.370
14721W        W86250  40.458  13.563   2.974
14722W        W86251  30.524   5.916   3.410
14723W        W86252   4.736  26.330  11.988
14724W        W86253   1.527   8.791  12.038
14725W        W86254   3.984  30.014   2.941
14726W        W86255   7.112  44.252  10.730
14727W        W86256  17.838  17.223   0.510
14728W        W86257  44.403  27.420   1.676
14729W        W86258  11.259  41.774   4.387
14730W        W86259  34.004  23.002   2.730
14731W        W86260   7.738  12.148   0.464
14732W        W86261  36.416  12.677  12.622
14733W        W86262   3.486  12.661  13.740
14734W        W86263  13.866  16.757   4.684
14735W        W86264   2.146  27.662   1.231
14736W        W86265  37.852  36.269  12.138
14737W        W86266  19.508  27.987   4.109
14738W        W86267  42.828  13.299   4.263
14739W        W86268  40.783   8.169  11.218
14740W        W86269  41.835  19.004  10.715
14741W        W86270  38.855  41.851   0.744
14742W        W86271  14.787   6.381  10.740
14743W        W86272   1.320  39.238  11.896
14744W        W86273  17.330  36.893   1.358
14745W        W86274  24.906  13.783   3.288
14746W        W86275  13.780  10.583   1.834
14747W        W86276   0.826  29.174  13.936
14748W        W86277  21.319  25.154   3.265
14749W        W86278  14.638  28.242   2.696
14750W        W86279  23.120  10.725   1.217
14751W        W86280  32.924  28.357  10.671
14752W        W86281   4.529  21.588  12.931
14753W        W86282  40.581  27.452   1.956
14754W        W86283  35.839   1.709   2.245
14755W        W86284   7.013  35.532   1.795
14756W        W86285  10.461  18.435   2.785
14757W        W86286  41.801  41.835   2.163
14758W        W86287  20.630  21.901   4.836
14759W        W86288  35.392   7.371  14.250
14760W        W86289   6.823   5.125  13.915
14761W        W86290  33.151   5.660   4.165
14762W        W86291  31.698  18.147  11.503
14763W        W86292  38.267  43.901  12.150
14764W        W86293  37.647   9.463  11.590
14765W        W86294   2.324  31.458   4.106
14766W        W86295  42.772  14.259   3.677
14767W        W86296  24.475  27.452  11.661
14768W        W86297   4.609   5.652   5.033
14769W        W86298  13.108  19.493  14.368
14770W        W86299  29.922   8.979  14.525
14771W        W86300  19.035  44.754  14.041
14772W        W86301  27.217  25.372   3.379
14773W        W86302   0.845  12.819  11.590
14774W        W86303   0.007  31.430  13.167
14775W        W86304  27.254  29.906  13.020
14776W        W86305  32.759  39.771  11.091
14777W        W86306  36.418  12.895  14.338
14778W        W86307  15.200  36.309  14.004
14779W        W86308  35.794  15.810  13.944
14780W        W86309   4.207  40.545   3.829
14781W        W86310  11.699  29.899  11.912
14782W        W86311  29.719  10.812   3.668
14783W        W86312  10.569   4.827  11.487
14784W        W86313  40.585  40.996   2.234
14785W        W86314   2.716   4.375  12.900
14786W        W86315   5.883   9.087  10.718
14787W        W86316  21.303  40.828   4.535
14788W        W86317  23.195   7.968   1.730
14789W        W86318  29.462  26.508  12.852
14790W        W86319  13.916  42.437   0.439
14791W        W86320  28.913  27.999  11.262
14792W        W86321  32.410  11.405  13.373
14793W        W86322  27.722  31.838   1.665
14794W        W86323  10.185  42.845   0.885
14795W        W86324   8.706   1.877  10.272
14796W        W86325  12.888  16.251  14.444
14797W        W86326  12.643  39.742   0.657
14798W        W86327  26.896   7.192   4.270
14799W        W86328  39.973   2.403  12.526
14800W        W86329  15.342  12.192   3.581
14801W        W86330  25.122  39.516  11.120
14802W        W86331  19.308  34.959  11.547
14803W        W86332  21.495  24.834   3.670
14804W        W86333   4.241  13.652  10.733
14805W        W86334  36.942  37.485  10.348
14806W        W86335  12.393  32.041  13.437
14807W        W86336  15.287  22.872  11.645
14808W        W86337  27.412  17.500  10.744
14809W        W86338   6.188  12.169   3.655
14810W        W86339  12.327   0.786   0.720
14811W        W86340  27.121  27.211  13.623
14812W        W86341  42.895  20.764   4.655
14813W        W86342   1.892  37.569  13.991
14814W        W86343  29.454   2.882  12.625
14815W        W86344  35.429   2.774  13.398
14816W        W86345   4.737   1.273  14.340
14817W        W86346  20.604  27.050  13.194
14818W        W86347   6.812  26.814  14.657
14819W        W86348  37.420  36.351  11.873
14820W        W86349  20.857  42.793  10.930
14821W        W86350  34.546  27.833  11.227
14822W        W86351  30.622  30.029   4.588
14823W        W86352  20.312   8.291  13.118
14824W        W86353  10.294  13.232  11.004
14825W        W86354  42.155  20.114   1.237
14826W        W86355  40.148   5.657  14.288
14827W        W86356   4.261  23.432   4.480
14828W        W86357  14.845  21.216  12.378
14829W        W86358  13.682  24.508   2.604
14830W        W86359  27.104  28.660  13.854
14831W        W86360  42.288  23.951  12.793
14832W        W86361  32.491  34.092  11.672
14833W        W86362   1.290   2.516   2.909
14834W        W86363  28.595   1.966   1.151
14835W        W86364  38.872   0.917   0.549
14836W        W86365  11.116  16.169   3.003
14837W        W86366   0.504  19.092   3.738
14838W        W86367  41.049  18.931  12.657
14839W        W86368  31.857  24.293   5.042
14840W        W86369  10.447  14.596  11.098
14841W        W86370   5.440  10.166  13.410
14842W        W86371  34.200   7.848  10.996
14843W        W86372  21.660  31.929   4.151
14844W        W86373  24.424  30.498  13.468
14845W        W86374  43.835   0.285   2.568
14846W        W86375  26.780  20.044  13.985
14847W        W86376  28.525  19.778   1.838
14848W        W86377  13.109  13.321   2.209
14849W        W86378  13.508  33.979  10.748
14850W        W86379  19.683  21.950   1.268
14851W        W86380  15.693  42.047   4.523
14852W        W86381  15.390   1.192  12.050
14853W        W86382  10.358   3.200  13.967
14854W        W86383  20.314   2.393  11.594
14855W        W86384   3.772  28.072  13.412
14856W        W86385  22.839   0.767   4.452
14857W        W86386   7.582  22.275   2.727
14858W        W86387  12.857  43.634   3.347
14859W        W86388  18.423   1.212  11.199
14860W        W86389  29.293   6.527  12.739
14861W        W86390  27.914  32.615  11.468
14862W        W86391  35.132  38.397   2.362
14863W        W86392  29.196  26.884   2.152
14864W        W86393   6.295  44.807   1.421
14865W        W86394  10.164  29.171   2.783
14866W        W86395  14.412  30.134   3.291
14867W        W86396  16.100   2.790   0.455
14868W        W86397  13.842   2.886  14.933
14869W        W86398  32.120   0.451  11.461
14870W        W86399  15.219  14.778   3.103
14871W        W86400   7.377  34.385   4.596
14872W        W86401  26.957   8.610  11.138
14873W        W86402  39.549  24.469   0.041
14874W        W86403  44.280  16.588  11.266
14875W        W86404  28.561  29.678   2.194
14876W        W86405  19.121  30.899  10.760
14877W        W86406  34.553  37.850   2.716
14878W        W86407  32.450  42.017   0.393
14879W        W86408  22.642   7.165  12.998
14880W        W86409   0.302  17.569   3.730
14881W        W86410   3.552  33.750   0.143
14882W        W86411  29.820  44.629  13.084
14883W        W86412  28.010  30.882   1.826
14884W        W86413  21.523  28.037  12.171
14885W        W86414  36.992  27.462   2.575
14886W        W86415   4.451  30.642  11.215
14887W        W86416  34.199  20.627  13.430
14888W        W86417  11.640  15.583  10.243
14889W        W86418   5.270  36.391  14.671
14890W        W86419   3.726  23.362  11.073
14891W        W86420  31.620  38.760   3.820
14892W        W86421  44.019   7.497   3.363
14893W        W86422  26.437   6.434  10.994
14894W        W86423  44.265  28.905  12.913
14895W        W86424   8.378  39.440   1.417
14896W        W86425   5.148  33.438  13.696
14897W        W86426   6.290  40.672  14.728
14898W        W86427   3.279  34.493  12.134
14899W        W86428  44.333  35.264  11.709
14900W        W86429  41.862  10.364   4.497
14901W        W86430  24.291   3.664   0.557
14902W        W86431   1.831  25.192  10.634
14903W        W86432  15.725  25.953   2.236
14904W        W86433  11.802  10.830  10.895
14905W        W86434  26.202  11.267  10.486
14906W        W86435   0.322  40.418  12.848
14907W        W86436  30.559  28.069   1.284
14908W        W86437   7.866  24.744  11.095
14909W        W86438  23.399  14.120  14.901
14910W        W86439  32.030  11.724  12.621
14911W        W86440  40.314  30.654  10.671
14912W        W86441  29.610  28.035  14.744
14913W        W86442   7.239  41.095  12.956
14914W        W86443  27.391  39.099   4.105
14915W        W86444   4.829  20.437   3.162
14916W        W86445   8.573  27.510   2.281
14917W        W86446  11.392  43.027   3.262
14918W        W86447  25.452   6.335   3.301
14919W        W86448  28.142  12.810   0.476
14920W        W86449  15.720   3.694  10.617
14921W        W86450  18.503  27.475  11.364
14922W        W86451  28.151  35.606   4.900
14923W        W86452   3.246  34.459   0.813
14924W        W86453   1.142   0.477  12.420
14925W        W86454   1.778  10.784  13.794
14926W        W86455   8.544  29.683  10.749
14927W        W86456  35.350  41.768  12.954
14928W        W86457   6.156  43.513   4.161
14929W        W86458  15.654  31.516  12.836
14930W        W86459  18.111  36.505   2.704
14931W        W86460  37.980   0.267  10.651
14932W        W86461  39.948  39.832   2.851
14933W        W86462  16.801   4.548   0.836
14934W        W86463  42.719  28.483   2.739
14935W        W86464  16.294   9.774  12.114
14936W        W86465  20.995  16.690  12.074
14937W        W86466   9.409  24.494  14.870
14938W        W86467  33.392  21.519  10.641
14939W        W86468  41.445  37.842  12.597
14940W        W86469  22.051  44.649   0.327
14941W        W86470  35.881  35.638   4.215
14942W        W86471  29.772  43.363   1.340
14943W        W86472  37.754   6.180   1.865
14944W        W86473  34.143   7.577  12.379
14945W        W86474  36.378  26.189  13.946
14946W        W86475  42.969  26.104  14.481
14947W        W86476   3.787   1.482  11.363
14948W        W86477  41.955   5.944  14.813
14949W        W86478  24.695  17.046  11.231
14950W        W86479  19.824  20.548  12.004
14951W        W86480  18.613  14.896   0.737
14952W        W86481  23.715  11.329  14.227
14953W        W86482  35.360  26.056  10.581
14954W        W86483  37.526  44.257  12.821
14955W        W86484  32.555  29.439  12.866
14956W        W86485  23.153  33.559  12.405
14957W        W86486   2.233   0.982   3.619
14958W        W86487  44.375  17.198   2.626
14959W        W86488   5.934  41.499  12.146
14960W        W86489  16.335   9.527   0.615
14961W        W86490  34.368  19.053  10.802
14962W        W86491  35.174  14.322  14.522
14963W        W86492  25.693   8.721   2.186
14964W        W86493  26.002  25.635   4.904
14965W        W86494  30.370  30.322  11.282
14966W        W86495  25.667   0.321  10.465
14967W        W86496   1.751  36.965   3.212
14968W        W86497  42.002  15.580  12.013
14969W        W86498   0.840   6.688   0.707
14970W        W86499  35.280   7.212  11.543
14971W        W86500  31.326  28.511   2.682
14972W        W86501   9.850  35.095   0.753
14973W        W86502  37.914  37.042   3.270
14974W        W86503  17.273  15.910   2.163
14975W        W86504  44.838  15.909  13.843
14976W        W86505   6.416  19.500   2.786
14977W        W86506  42.698  22.033  12.963
14978W        W86507  15.307  18.148   1.401
14979W        W86508   1.348   3.798  14.538
14980W        W86509  18.384   0.722   2.252
14981W        W86510  12.888  35.699   2.297
14982W        W86511  31.388   3.147   3.464
14983W        W86512   7.304  30.687   1.703
14984W        W86513   1.342  28.355  14.976
14985W        W86514  11.895  25.194   0.944
14986W        W86515  24.919   2.332  14.290
14987W        W86516  44.905  23.204  10.647
14988W        W86517   9.296  31.930   3.155
14989W        W86518  33.207  12.738   4.671
14990W        W86519  37.444  14.888  10.621
14991W        W86520   5.076  14.632   1.763
14992W        W86521  25.442  33.237   0.026
14993W        W86522  44.873   5.502  13.392
14994W        W86523  37.063  11.849   1.846
14995W        W86524  28.638  20.601  11.733
14996W        W86525  39.970  31.684  12.872
14997W        W86526  32.175  10.665   2.720
14998W        W86527  38.376  34.386   0.398
14999W        W86528  13.660  22.682   0.697
15000W        W86529  32.939  29.664  13.511
15001W        W86530  34.013  15.864  11.220
15002W        W86531  38.539  29.111   3.751
15003W        W86532  12.582  23.127   4.466
15004W        W86533   5.422  28.832   1.233
15005W        W86534  42.105  38.501   4.004
15006W        W86535  44.763   2.417  14.615
15007W        W86536  41.522  17.500  10.727
15008W        W86537  30.285   3.130   1.037
15009W        W86538  27.954   2.587  11.234
15010W        W86539  23.105  41.976   4.084
15011W        W86540  15.380  30.079  10.134
15012W        W86541  44.828  10.328   4.360
15013W        W86542   6.684   1.130   4.525
15014W        W86543   2.827  21.844  14.348
15015W        W86544  17.807  12.021   0.256
15016W        W86545  33.437  39.502   4.662
15017W        W86546  13.090  36.457  11.163
15018W        W86547   3.666  21.671  11.909
15019W        W86548  12.592  43.503   4.672
15020W        W86549  33.561  28.162   3.615
15021W        W86550  42.618  28.620  14.800
15022W        W86551  44.139   7.419   4.124
15023W        W86552  13.926  20.000   2.282
15024W        W86553  17.983  10.142  13.865
15025W        W86554  28.937  30.610   0.947
15026W        W86555  38.861  21.564  12.049
15027W        W86556  32.114  18.957  10.758
15028W        W86557   1.945  31.348   0.259
15029W        W86558  37.030   2.533  14.797
15030W        W86559   0.247   2.344  14.512
15031W        W86560   3.578  33.229  11.549
15032W        W86561  39.603   8.728   3.175
15033W        W86562  37.936   4.349   2.869
15034W        W86563  43.342  42.951  13.153
15035W        W86564  13.418   8.484  11.640
15036W        W86565   4.805  13.235   3.152
15037W        W86566  44.985  15.803  12.916
15038W        W86567  28.163  39.605  12.479
15039W        W86568  31.661  37.152  11.578
15040W        W86569  27.254  10.147  13.744
15041W        W86570  25.039   1.869  11.483
15042W        W86571   6.916  21.401  13.565
15043W        W86572  40.103  36.980  11.486
15044W        W86573  22.963   9.720  10.761
15045W        W86574  38.787  44.961   1.829
15046W        W86575  11.267  35.883  14.564
15047W        W86576  28.457  35.147   0.396
15048W        W86577   1.858   7.832  11.944
15049W        W86578   2.214  17.365  13.521
15050W        W86579   7.683  10.256   3.676
15051W        W86580  27.753  37.915   0.023
15052W        W86581  18.765  15.168  10.853
15053W        W86582  26.980  21.220  13.459
15054W        W86583  35.552   1.486   0.478
15055W        W86584  17.719  29.379  14.421
15056W        W86585  20.685   4.764   4.019
15057W        W86586  27.145  32.924   1.856
15058W        W86587  24.191   8.124   2.702
15059W        W86588  20.506   9.112  10.307
15060W        W86589  26.601   2.495   3.205
15061W        W86590  36.375  25.923  12.317
15062W        W86591  10.288  19.239   2.717
15063W        W86592  11.115  20.479  11.109
15064W        W86593   1.656  42.393   0.916
15065W        W86594  14.182   3.321  12.008
15066W        W86595  35.950  14.586  11.153
15067W        W86596  38.445  15.594   1.611
15068W        W86597  20.749   6.970   3.220
15069W        W86598   0.795   0.926  10.663
15070W        W86599  42.837   2.905  11.677
15071W        W86600  26.585  27.530   4.564
15072W        W86601  30.956  39.852   1.744
15073W        W86602  19.088  41.049  13.107
15074W        W86603  13.355  40.528  14.197
15075W        W86604  10.471  43.299   2.301
15076W        W86605  28.740  23.517  12.174
15077W        W86606  43.492  29.458  14.762
15078W        W86607   9.185  20.850   2.402
15079W        W86608  25.925  32.447  11.515
15080W        W86609  33.424  35.320   5.237
15081W        W86610  29.971  24.274   4.520
15082W        W86611   1.731   2.342   1.080
15083W        W86612  41.354   3.153   4.912
15084W        W86613  11.629   5.138   2.900
15085W        W86614  44.763  19.899   0.068
15086W        W86615   4.088  31.650   2.015
15087W        W86616  32.111  44.209  10.659
15088W        W86617  22.951  31.001   0.825
15089W        W86618  32.004  10.147  14.704
15090W        W86619  38.965  15.443   4.164
15091W        W86620  28.199   2.264   0.011
15092W        W86621  27.083  42.330  11.412
15093W        W86622   2.285  35.043  10.177
15094W        W86623  18.940  13.159   0.210
15095W        W86624  37.104   9.355  11.596
15096W        W86625  28.107  31.325   2.788
15097W        W86626   6.466  21.647   2.284
15098W        W86627  10.063  30.548   4.223
15099W        W86628  16.767  34.726   0.251
15100W        W86629  14.100  25.619   0.289
15101W        W86630   9.293  27.175  10.447
15102W        W86631  12.303  35.039  12.632
15103W        W86632  38.109  35.331  12.398
15104W        W86633  39.113  14.324  11.085
15105W        W86634  17.257  39.711   2.299
15106W        W86635  16.123  13.924  10.138
15107W        W86636  42.367  43.525  13.487
15108W        W86637   0.878  39.102   5.043
15109W        W86638   2.810  34.915   4.925
15110W        W86639   0.835  33.430   3.705
15111W        W86640  39.710   4.449  13.033
15112W        W86641   6.014  17.041  10.283
15113W        W86642   1.863  34.733  12.190
15114W        W86643  12.182  18.705  14.846
15115W        W86644  15.545  35.897  11.925
15116W        W86645  18.459  42.842  13.469
15117W        W86646  11.633  37.073   2.982
15118W        W86647  40.644  38.731   4.958
15119W        W86648  18.245  41.582   2.435
15120W        W86649  33.836  37.569  14.106
15121W        W86650  42.960  31.921   4.290
15122W        W86651   6.468  13.996   0.208
15123W        W86652  30.608  17.269  11.998
15124W        W86653   7.804   3.254   4.591
15125W        W86654  35.820  22.806  11.247
15126W        W86655  22.640  29.414  11.172
15127W        W86656  36.306  35.984  10.632
15128W        W86657  20.597  28.056  10.679
15129W        W86658  31.747   2.169   2.272
15130W        W86659   8.702  18.477   2.330
15131W        W86660  22.202  41.031   0.858
15132W        W86661   4.865  21.776   3.850
15133W        W86662  36.873  44.434   2.461
15134W        W86663  19.777   7.413   4.237
15135W        W86664  21.943  30.228  12.144
15136W        W86665  34.490  26.227  10.244
15137W        W86666  25.644  34.847   2.189
15138W        W86667  41.320   6.618   3.230
15139W        W86668  22.300  18.250  14.322
15140W        W86669  10.303  44.459  12.536
15141W        W86670   2.376  42.755  11.016
15142W        W86671  26.819  42.982  11.968
15143W        W86672  43.702   8.908  11.198
15144W        W86673  36.905  21.119  10.741
15145W        W86674   5.723  22.140   3.916
15146W        W86675  22.559  20.382  12.996
15147W        W86676  35.833   7.715   4.478
15148W        W86677  21.861  23.009   3.095
15149W        W86678   9.038  20.998  10.285
15150W        W86679   6.210  34.864  12.084
15151W        W86680  16.612  21.751   4.452
15152W        W86681  22.528  40.502  12.601
15153W        W86682  15.729  43.306   2.306
15154W        W86683  29.903  34.636  12.123
15155W        W86684  37.251  24.714  12.600
15156W        W86685  20.596  20.510  11.768
15157W        W86686  21.030  12.431   3.752
15158W        W86687  27.216  36.970  14.477
15159W        W86688   9.299   0.695  14.738
15160W        W86689   2.704   0.784   1.955
15161W        W86690  27.545  20.711   3.323
15162W        W86691   4.983   9.327   3.331
15163W        W86692  44.344   9.611   4.703
15164W        W86693  41.809  36.620  12.032
15165W        W86694  31.465   0.930   0.764
15166W        W86695  19.744   0.194  11.533
15167W        W86696  20.178  30.645   1.203
15168W        W86697   8.723   0.255  13.379
15169W        W86698   5.678  31.185   3.642
15170W        W86699   5.286  32.923   1.264
15171W        W86700  11.803  33.048   3.799
15172W        W86701   4.718  30.459  14.358
15173W        W86702  11.113   7.850  13.992
15174W        W86703  19.730   5.333   0.013
15175W        W86704  42.412  18.402  12.446
15176W        W86705  23.815  25.322   4.886
15177W        W86706  40.358  28.988   2.828
15178W        W86707  31.307  42.990  11.437
15179W        W86708  19.015  34.017   3.188
15180W        W86709  18.275  19.623   0.484
15181W        W86710  33.418  23.334  12.846
15182W        W86711  13.587  31.556  10.658
15183W        W86712   6.804   5.217   4.564
15184W        W86713  13.095   8.372   3.284
15185W        W86714  25.030  42.309   4.608
15186W        W86715  22.039  20.918   1.226
15187W        W86716  19.169  19.069   4.513
15188W        W86717   7.656  39.844  12.893
15189W        W86718   5.670  13.050   2.635
15190W        W86719  28.113  31.092   3.260
15191W        W86720  33.313  35.996   1.522
15192W        W86721   2.066  29.590   2.684
15193W        W86722  37.317  17.248   3.678
15194W        W86723   6.167  41.507  14.275
15195W        W86724   2.234  24.532  12.925
15196W        W86725   9.096  19.384  12.555
15197W        W86726   6.253  38.424   0.454
15198W        W86727  15.567   3.242   0.892
15199W        W86728  38.822  43.330  11.969
15200W        W86729  17.879   9.188   3.827
15201W        W86730  24.722  37.485   4.936
15202W        W86731   5.661  22.610   1.874
15203W        W86732  19.462  12.091  13.602
15204W        W86733  23.067  38.748  13.893
15205W        W86734  14.729   6.651   3.691
15206W        W86735  14.485  36.305   2.692
15207W        W86736   3.834  23.729  14.009
15208W        W86737  32.133   8.326   1.776
15209W        W86738  12.657  26.169   1.713
15210W        W86739  20.866  35.969   3.812
15211W        W86740  35.353  44.997  13.769
15212W        W86741  35.130   7.405  12.028
15213W        W86742   5.603  20.801   1.330
15214W        W86743  33.137   0.913  14.340
15215W        W86744  27.141  30.541  13.633
15216W        W86745  32.488  14.702  12.368
15217W        W86746   6.528  15.430   3.644
15218W        W86747  28.169  42.319  12.072
15219W        W86748  41.317   1.680   3.306
15220W        W86749  40.792  34.951  10.794
15221W        W86750  14.346  29.122   0.861
15222W        W86751  32.674  38.547  12.471
15223W        W86752  19.371  27.363  12.567
15224W        W86753  27.353  23.471  11.629
15225W        W86754   7.435  19.285   2.287
15226W        W86755  24.103  24.013  14.525
15227W        W86756  12.725  26.190  10.697
15228W        W86757  38.736   6.229   1.153
15229W        W86758  22.581  10.087   2.778
15230W        W86759  28.269   0.390   2.888
15231W        W86760   3.148  44.263   0.358
15232W        W86761  32.239  27.620  10.629
15233W        W86762   6.777   2.175   4.568
15234W        W86763   5.923  37.102  11.010
15235W        W86764   6.935  14.874   2.870
15236W        W86765  29.376  38.437   3.177
15237W        W86766  30.462   6.839   3.696
15238W        W86767  33.778  27.346  10.657
15239W        W86768  34.878  24.700  10.271
15240W        W86769  18.109  13.258  13.434
15241W        W86770  37.896  40.281  11.738
15242W        W86771  17.835  31.114  13.828
15243W        W86772  20.591  20.628   4.166
15244W        W86773   1.332  38.128  12.637
15245W        W86774  13.921   1.734  12.241
15246W        W86775   2.163  36.601   4.149
15247W        W86776   8.271  10.718  14.238
15248W        W86777  29.617  20.549  10.744
15249W        W86778   7.625  10.573   4.078
15250W        W86779  33.884  17.634  14.831
15251W        W86780  15.822  18.645   2.506
15252W        W86781   4.128   4.143  12.287
15253W        W86782  22.657   6.644   2.190
15254W        W86783  26.556  14.647  12.821
15255W        W86784   7.705  11.727  10.795
15256W        W86785  37.863  23.314   1.308
15257W        W86786  10.486  33.375   1.336
15258W        W86787  44.464  38.515   3.857
15259W        W86788  42.373  22.193   3.406
15260W        W86789  18.553  11.851  13.317
15261W        W86790  19.670  26.949   2.868
15262W        W86791   0.807  15.518   1.972
15263W        W86792   7.408  24.236   2.355
15264W        W86793   1.827  10.786  10.832
15265W        W86794  16.496  25.413   0.412
15266W        W86795   9.069   2.787   2.905
15267W        W86796  41.319  25.011  11.502
15268W        W86797  35.867  31.185   4.200
15269W        W86798   8.848  26.942  10.563
15270W        W86799  43.353  40.815   1.091
15271W        W86800   8.467  41.821  10.557
15272W        W86801   5.631  42.393   4.544
15273W        W86802  25.645   2.745   2.647
15274W        W86803  31.374  36.906   3.903
15275W        W86804  34.082  40.113   4.944
15276W        W86805   6.271  10.336   2.110
15277W        W86806  25.456  28.875   2.335
15278W        W86807  30.222  17.990  11.863
15279W        W86808  16.594   6.265   0.479
15280W        W86809  25.040  37.837   4.728
15281W        W86810  17.776  25.998  11.172
15282W        W86811  32.911   7.116  11.909
15283W        W86812  27.051  43.426  14.334
15284W        W86813   4.822  11.310  10.405
15285W        W86814   0.344   0.784   3.656
15286W        W86815  13.023   3.047  12.322
15287W        W86816  19.180  32.932  10.670
15288W        W86817  16.046  28.426  12.156
15289W        W86818   7.803   5.651  10.718
15290W        W86819  41.606  40.990   2.426
15291W        W86820   2.496  24.286   1.248
15292W        W86821  42.209  33.025   3.087
15293W        W86822   7.157  31.487  13.182
15294W        W86823   2.937  36.450   4.538
15295W        W86824  39.682  38.154  11.536
15296W        W86825  22.134  20.278  14.983
15297W        W86826   9.911  44.168   2.353
15298W        W86827  31.470  19.595   4.578
15299W        W86828  29.566  12.296   4.057
15300W        W86829  18.128  26.548  13.072
15301W        W86830  42.934   6.601   2.860
15302W        W86831  44.816  17.018   2.823
15303W        W86832  26.706   4.791  12.423
15304W        W86833  16.282  21.446  12.879
15305W        W86834   6.625  31.016   3.348
15306W        W86835  15.676   4.661   0.062
15307W        W86836  35.634  28.030   0.388
15308W        W86837  31.077  10.176  13.025
15309W        W86838  15.353  26.019  12.035
15310W        W86839  30.195   3.499  13.754
15311W        W86840  39.198   8.319  10.681
15312W        W86841  23.795   0.283  10.700
15313W        W86842   6.253  17.105  14.975
15314W        W86843  24.010   2.397   4.662
15315W        W86844  36.428  12.432   1.770
15316W        W86845   3.992  11.721   3.758
15317W        W86846   7.289  43.056   4.217
15318W        W86847  24.060   2.760  11.208
15319W        W86848  33.482   4.013   3.264
15320W        W86849   9.760  31.207  13.283
15321W        W86850  28.144  40.533  12.508
15322W        W86851  32.093  29.980  13.120
15323W        W86852  10.644   4.660  11.019
15324W        W86853   2.494  16.135   1.415
15325W        W86854  10.856  15.779  13.866
15326W        W86855  20.053  32.411   3.785
15327W        W86856   6.454  40.963  10.975
15328W        W86857  25.705  29.113  13.539
15329W        W86858  14.729  37.519  13.003
15330W        W86859  35.057   6.931  14.369
15331W        W86860  38.491  33.571  13.501
15332W        W86861  10.458  43.463   2.833
15333W        W86862  36.807  25.191   2.253
15334W        W86863  13.384  34.000   4.228
15335W        W86864  17.117   7.597   4.546
15336W        W86865  40.517  44.348   3.076
15337W        W86866  19.684  20.043  11.034
15338W        W86867  18.796  37.030   2.432
15339W        W86868  43.416  44.911  11.717
15340W        W86869  17.427   0.785   3.213
15341W        W86870  25.444   4.204   0.294
15342W        W86871  18.857  38.366  12.543
15343W        W86872  26.735  22.272   1.286
15344W        W86873   8.580  36.090   1.173
15345W        W86874  28.296  35.463  12.209
15346W        W86875  36.857  41.433   2.318
15347W        W86876  24.710  43.946   3.349
15348W        W86877   9.560  32.040  10.773
15349W        W86878   5.985  35.800   2.721
15350W        W86879  32.338  25.290   0.930
15351W        W86880   3.178  15.079   3.623
15352W        W86881  16.767   1.252   3.367
15353W        W86882  23.631   5.714   4.085
15354W        W86883  33.505  15.635   4.106
15355W        W86884   3.861   6.421  14.707
15356W        W86885   6.241  30.055   4.162
15357W        W86886  43.418  35.675   4.200
15358W        W86887  19.493   3.319  14.886
15359W        W86888  35.108  42.182   3.204
15360W        W86889  43.751  40.822  14.624
15361W        W86890  24.950   5.738   1.909
15362W        W86891  28.057  44.810   2.071
15363W        W86892  17.263  15.353   3.194
15364W        W86893  33.973   6.648   0.538
15365W        W86894  11.088  35.887   2.075
15366W        W86895  44.017  21.992  12.853
15367W        W86896   8.589  18.169  12.352
15368W        W86897  21.573  24.541  13.885
15369W        W86898  19.741  20.834  12.910
15370W        W86899  32.190  32.096   2.504
15371W        W86900  34.070  17.636   3.886
15372W        W86901  11.013  29.227  14.915
15373W        W86902  15.751  30.461   0.343
15374W        W86903  22.293  19.768  11.818
15375W        W86904  25.368   8.014   5.023
15376W        W86905  36.997  41.876  14.607
15377W        W86906  36.176  31.473  12.694
15378W        W86907  16.778   7.287  12.443
15379W        W86908   1.159   5.354   2.223
15380W        W86909  18.635  19.206   2.171
15381W        W86910  38.546  31.588  14.155
15382W        W86911  12.694   4.755  12.225
15383W        W86912  38.489   0.054   2.761
15384W        W86913  33.662  25.529  14.052
15385W        W86914  25.240  28.614  14.555
15386W        W86915  28.549  38.277  10.967
15387W        W86916  13.703  44.994  14.814
15388W        W86917  32.034  24.747  12.966
15389W        W86918  18.306   4.539   5.096
15390W        W86919  13.606  44.507  12.814
15391W        W86920   4.338  10.867   3.309
15392W        W86921   6.367  29.282   3.703
15393W        W86922  15.624  19.104   2.396
15394W        W86923   9.030  22.492  12.937
15395W        W86924  36.464  36.128  14.582
15396W        W86925  30.434  18.855  14.337
15397W        W86926   2.450   0.385  13.766
15398W        W86927  44.998  29.004   1.127
15399W        W86928  28.896  36.862   0.319
15400W        W86929  21.558  24.015   3.199
15401W        W86930  32.175  29.577  12.025
15402W        W86931  14.596  17.569   4.834
15403W        W86932  31.814  32.902  13.064
15404W        W86933   3.702  30.581  11.989
15405W        W86934  39.240  26.132   2.874
15406W        W86935  31.076  31.609   2.107
15407W        W86936  28.742  25.870   4.526
15408W        W86937  18.509  32.739  13.864
15409W        W86938  14.260  27.697   4.074
15410W        W86939   1.321  20.959   4.678
15411W        W86940   6.715   5.483   2.377
15412W        W86941  18.284  40.312  12.105
15413W        W86942  26.685  25.011  10.575
15414W        W86943  18.207  40.018   2.064
15415W        W86944  40.696  17.221   2.824
15416W        W86945  31.225   1.006  14.426
15417W        W86946  20.180  13.112   2.063
15418W        W86947  34.945  42.507   0.548
15419W        W86948  28.532   6.246  14.590
15420W        W86949  32.895  21.743   3.770
15421W        W86950   7.183  33.653   0.809
15422W        W86951  24.368   1.811  13.886
15423W        W86952  20.690   9.975  11.569
15424W        W86953  13.202  40.138   2.773
15425W        W86954  40.143  21.702   3.058
15426W        W86955  44.846  13.674   0.861
15427W        W86956  21.373   2.274  12.367
15428W        W86957  25.100   8.689   3.839
15429W        W86958  12.824  13.386  14.868
15430W        W86959  36.560   1.005  12.626
15431W        W86960  44.353  12.138   1.189
15432W        W86961  44.497  22.605   4.567
15433W        W86962  25.130  36.871   3.888
15434W        W86963  27.655   7.494  14.791
15435W        W86964  24.548  33.045  12.412
15436W        W86965  43.333  30.676   4.077
15437W        W86966   4.067  23.118   0.394
15438W        W86967   3.421   6.317  12.517
15439W        W86968  29.932  14.130   0.276
15440W        W86969  27.932  20.708   0.757
15441W        W86970  16.982  41.208  10.962
15442W        W86971   4.203   9.679   0.185
15443W        W86972  21.688  22.060   4.445
15444W        W86973  12.369   9.711  11.005
15445W        W86974  17.038  25.578  13.917
15446W        W86975   5.918   7.888   0.270
15447W        W86976  20.070  27.053  14.847
15448W        W86977   1.812  42.824  13.457
15449W        W86978  35.086  39.921   2.289
15450W        W86979   0.261  38.683   1.123
15451W        W86980  18.103  26.429  13.577
15452W        W86981   2.761   4.204  12.066
15453W        W86982  32.108  18.459  10.661
15454W        W86983  14.752  43.854   3.346
15455W        W86984  39.507  12.233  12.061
15456W        W86985  44.885  27.793   3.609
15457W        W86986  32.119  24.043   4.639
15458W        W86987  22.016  19.563  13.264
15459W        W86988  37.895  33.164  10.521
15460W        W86989   3.515  39.479   0.586
15461W        W86990   0.891  38.762   0.457
15462W        W86991  31.016  11.842  12.484
15463W        W86992  25.907   1.440  13.451
15464W        W86993  38.444  32.934   4.046
15465W        W86994  17.784  13.639   4.196
15466W        W86995  36.497  16.264   1.240
15467W        W86996  26.114  20.229  10.670
15468W        W86997   3.693  17.519   4.415
15469W        W86998   0.242  19.848   0.240
15470W        W86999  13.127  25.502   4.586
15471W        W87000  21.738  18.776   4.034
15472W        W87001  33.749   6.211  11.461
15473W        W87002   3.723  18.515   3.067
15474W        W87003  40.662  21.821  11.977
15475W        W87004  28.978  16.618   2.327
15476W        W87005  12.447  26.240   0.640
15477W        W87006  12.200  18.074  11.742
15478W        W87007  33.013   9.145   4.384
15479W        W87008  26.723   6.369   3.690
15480W        W87009  31.573  18.346   2.798
15481W        W87010   7.216  20.294  14.610
15482W        W87011  37.084   3.386   2.713
15483W        W87012  18.737  29.947  14.548
15484W        W87013  16.008  24.429  11.613
15485W        W87014  17.849  31.586   4.248
15486W        W87015   0.185  22.815   1.871
15487W        W87016  32.447   7.954   4.208
15488W        W87017  38.774  15.610   4.621
15489W        W87018  29.429  42.791  10.280
15490W        W87019  40.559   9.873   1.475
15491W        W87020  39.470   6.454  10.405
15492W        W87021  23.428   4.976   3.281
15493W        W87022  40.873  27.879  14.228
15494W        W87023  32.841  34.444  10.380
15495W        W87024  24.977  20.260  12.156
15496W        W87025   4.835  24.585  12.310
15497W        W87026  31.649  31.924   3.115
15498W        W87027  28.215   5.019   3.172
15499W        W87028  35.925  36.075  13.907
15500W        W87029  39.149   5.052  13.576
15501W        W87030   7.441  26.299  13.421
15502W        W87031  27.604  13.521   4.128
15503W        W87032  42.385  32.317   0.763
15504W        W87033  39.755  10.769  11.702
15505W        W87034  23.061  31.239   4.020
15506W        W87035  11.385  38.382  12.452
15507W        W87036  11.421  34.116   2.368
15508W        W87037   6.455  25.759   4.520
15509W        W87038  23.190  34.546   3.700
15510W        W87039  16.447   3.280   3.191
15511W        W87040  39.713  12.518   3.544
15512W        W87041  16.189  37.466  12.883
15513W        W87042   1.085  13.774   0.966
15514W        W87043  44.569  20.037   2.468
15515W        W87044  21.241  18.369   3.286
15516W        W87045  31.998  34.266  11.595
15517W        W87046   2.815   0.195  10.683
15518W        W87047  11.179   9.236   1.770
15519W        W87048  42.287  39.418   0.968
15520W        W87049  44.544  34.084   2.419
15521W        W87050   6.522  43.217  14.948
15522W        W87051  27.223   2.744   1.441
15523W        W87052  37.946   5.804   0.742
15524W        W87053  24.251  25.756  14.811
15525W        W87054  22.834  35.619  14.774
15526W        W87055  22.336  26.432  12.875
15527W        W87056  26.114  15.232  12.419
15528W        W87057  18.559  36.576   3.602
15529W        W87058   8.839  10.293   1.380
15530W        W87059   2.552  11.582  14.329
15531W        W87060  32.564  37.137   2.302
15532W        W87061  23.665  42.653  10.987
15533W        W87062  18.668   3.695  11.669
15534W        W87063   6.589  22.015  14.551
15535W        W87064   4.957   5.379   3.153
15536W        W87065  24.081  19.569  11.560
15537W        W87066  40.970  42.796  14.043
15538W        W87067  10.616  40.342   1.180
15539W        W87068   2.966  18.201  14.034
15540W        W87069  24.765  16.895   0.739
15541W        W87070  36.475  19.596   2.752
15542W        W87071  21.459  31.986  12.435
15543W        W87072   0.819  19.556   3.810
15544W        W87073   3.743  13.344   3.767
15545W        W87074   2.063  32.460   4.176
15546W        W87075   1.822   2.437   2.199
15547W        W87076  42.708  44.697   4.206
15548W        W87077  36.001  34.124  11.624
15549W        W87078   2.344   6.290  14.349
15550W        W87079  29.073  32.855  11.644
15551W        W87080  14.277   5.816   1.782
15552W        W87081  16.592  15.846   2.801
15553W        W87082  43.059  21.114   3.173
15554W        W87083  19.110  30.086   3.424
15555W        W87084  34.510  33.571  13.954
15556W        W87085   9.147  13.398  13.970
15557W        W87086  21.046  34.672   4.557
15558W        W87087  12.066  33.194  13.564
15559W        W87088  33.637  44.294  10.598
15560W        W87089  29.581  43.027   3.510
15561W        W87090  26.209   1.588  14.793
15562W        W87091   2.747  40.547  14.168
15563W        W87092  30.442  19.677   2.196
15564W        W87093  33.823   9.692  11.124
15565W        W87094  15.759  30.463   2.293
15566W        W87095  12.265  34.610  13.373
15567W        W87096  15.241  36.345   3.104
15568W        W87097  19.065   6.452  10.734
15569W        W87098  15.857  17.259   0.618
15570W        W87099  30.337  16.635  12.629
15571W        W87100  10.480   3.602   4.731
15572W        W87101   0.925  29.797   1.396
15573W        W87102   9.091  38.072   0.439
15574W        W87103  34.465  16.731  12.350
15575W        W87104  44.818  21.263  11.374
15576W        W87105   3.378  30.163   0.338
15577W        W87106  29.420  43.197  12.076
15578W        W87107  14.555   0.972  10.581
15579W        W87108  38.436  40.269  12.835
15580W        W87109  35.944  20.892  12.033
15581W        W87110  11.434  26.023   0.757
15582W        W87111  23.665   9.247  14.428
15583W        W87112  27.218  26.904  11.116
15584W        W87113   3.392  27.736  12.465
15585W        W87114  23.670  15.746   2.836
15586W        W87115   0.011  32.445  12.101
15587W        W87116  20.656  21.460  13.999
15588W        W87117  35.145   4.939   4.165
15589W        W87118  35.300  11.162  13.892
15590W        W87119   5.349   2.289  12.452
15591W        W87120  24.916  18.357   4.636
15592W        W87121  36.383  41.994   1.828
15593W        W87122  22.578   4.914  12.392
15594W        W87123  44.279  12.054  12.470
15595W        W87124  38.938  37.587   1.003
15596W        W87125   7.197  24.962   3.091
15597W        W87126   4.757  28.364   4.915
15598W        W87127  24.201  33.407  12.381
15599W        W87128   1.493  22.075   0.498
15600W        W87129  16.847  43.031   3.050
15601W        W87130  15.522   6.513  13.582
15602W        W87131  20.514  38.926  13.329
15603W        W87132  27.736  17.087  10.682
15604W        W87133  36.620  35.519  13.955
15605W        W87134  14.108  26.907  11.197
15606W        W87135  39.107   4.294   0.348
15607W        W87136  26.206   5.915  11.859
15608W        W87137  22.061  15.221   4.129
15609W        W87138  14.634  29.335   2.029
15610W        W87139  31.077  34.985  14.828
15611W        W87140   3.683   9.379   4.508
15612W        W87141  31.855  13.085  14.529
15613W        W87142  43.999   8.723  11.600
15614W        W87143  21.163  19.521  10.327
15615W        W87144   7.173  43.484   0.476
15616W        W87145   3.923  39.989   2.709
15617W        W87146  22.605   4.403  12.545
15618W        W87147   7.835   3.117  11.495
15619W        W87148  30.662   0.723  12.516
15620W        W87149  29.599  17.693   0.413
15621W        W87150   6.214  22.263  13.907
15622W        W87151  37.576  32.054   0.182
15623W        W87152  36.913  10.465   2.882
15624W        W87153  29.984  41.532  11.023
15625W        W87154   0.510   6.309   0.875
15626W        W87155   0.729   7.404   3.381
15627W        W87156  17.634  31.423   1.748
15628W        W87157  39.962  15.166  11.049
15629W        W87158  22.074  14.593   3.478
15630W        W87159   3.347  43.624  14.929
15631W        W87160   2.459  11.288  12.338
15632W        W87161  38.583   0.959   3.128
15633W        W87162   2.376  29.353   0.987
15634W        W87163  37.414   1.553  12.629
15635W        W87164  23.218  27.292  14.363
15636W        W87165  33.609  12.130   0.327
15637W        W87166   4.919  40.375   2.452
15638W        W87167  21.385  13.110  14.073
15639W        W87168  19.031  44.890   4.571
15640W        W87169  10.784  11.327  12.326
15641W        W87170  10.126  43.996   4.091
15642W        W87171   4.450   5.975  13.968
15643W        W87172   2.084  20.230  13.862
15644W        W87173  18.071  17.158  11.514
15645W        W87174   2.670   2.467  10.416
15646W        W87175   8.457  27.381  12.512
15647W        W87176  16.835  22.231   5.475
15648W        W87177  11.247  44.754   3.707
15649W        W87178  11.357   2.449  13.893
15650W        W87179  43.371  35.038  12.869
15651W        W87180  18.703   7.937   1.768
15652W        W87181   0.784  23.527  12.265
15653W        W87182  32.882   4.851  11.918
15654W        W87183   1.346  25.265   0.311
15655W        W87184  35.981  26.187   1.890
15656W        W87185  42.602   4.851  12.190
15657W        W87186  30.574   9.401  12.819
15658W        W87187  31.845   9.906  12.391
15659W        W87188  26.440  24.882   3.426
15660W        W87189  19.706  44.792   4.134
15661W        W87190  25.220   8.379   0.900
15662W        W87191  41.518  29.994   4.124
15663W        W87192  30.874   8.812  11.924
15664W        W87193   9.306  44.349  13.840
15665W        W87194   9.861   5.389   1.956
15666W        W87195   7.267  31.294  13.651
15667W        W87196  42.802  12.821  12.090
15668W        W87197  19.871  19.757  14.804
15669W        W87198  16.302  16.220  14.926
15670W        W87199  39.626  14.559   0.022
15671W        W87200  26.658  24.762  13.839
15672W        W87201  37.859  41.458   2.637
15673W        W87202  28.954  40.578  11.101
15674W        W87203   6.409   9.800   3.589
15675W        W87204  17.647  17.600  14.585
15676W        W87205  42.998  39.981   3.429
15677W        W87206  19.298  40.481   0.312
15678W        W87207  14.556  32.952   4.255
15679W        W87208  29.439  13.203   4.029
15680W        W87209  30.731  24.991   1.840
15681W        W87210  39.813  30.156   0.714
15682W        W87211  17.778   5.547  11.648
15683W        W87212  29.626   0.977   4.659
15684W        W87213  16.297  43.109  11.910
15685W        W87214  36.301  12.707  14.786
15686W        W87215  22.247   2.678   4.149
15687W        W87216  34.901  30.608   0.346
15688W        W87217  24.225   9.296   3.694
15689W        W87218  29.185  42.479   1.803
15690W        W87219   6.998   1.350   0.342
15691W        W87220   2.499  35.434   0.266
15692W        W87221   8.237   7.402  14.820
15693W        W87222  19.145   3.922   2.269
15694W        W87223  42.862  41.105   3.200
15695W        W87224  36.045  20.128   2.398
15696W        W87225  38.238  39.451   4.300
15697W        W87226   1.448  37.467   3.885
15698W        W87227  30.912  39.033   2.446
15699W        W87228  20.466   5.303   2.156
15700W        W87229  44.189   1.288  11.167
15701W        W87230   3.464  10.078   0.794
15702W        W87231  23.689   8.868  12.066
15703W        W87232  44.053  30.054  14.919
15704W        W87233  16.361  29.846  14.364
15705W        W87234  43.689   0.856   3.786
15706W        W87235  30.408  18.492   3.194
15707W        W87236   8.822  28.385  14.411
15708W        W87237  25.111  14.230   3.449
15709W        W87238  33.469  26.558   2.728
15710W        W87239   9.647   8.249  13.967
15711W        W87240  35.485  18.062  12.420
15712W        W87241  24.314  39.281   3.784
15713W        W87242  16.192  25.632   2.773
15714W        W87243   5.226  13.645   0.395
15715W        W87244  36.899  27.138  13.997
15716W        W87245   1.307  38.819   1.903
15717W        W87246  13.286  37.115   1.193
15718W        W87247   3.743  34.517  11.872
15719W        W87248  44.987  43.658  13.809
15720W        W87249  41.352  24.620   4.418
15721W        W87250  16.620  38.187   2.898
15722W        W87251  27.519   7.534   0.832
15723W        W87252  10.759  35.853   3.678
15724W        W87253  14.683   8.725   2.759
15725W        W87254   4.905  23.272   3.531
15726W        W87255   1.112  29.437   5.081
15727W        W87256   4.956  38.087  10.773
15728W        W87257  36.519  25.027  12.915
15729W        W87258  14.928  10.132   3.581
15730W        W87259   0.834  40.520   2.219
15731W        W87260  17.146  25.043  10.729
15732W        W87261  21.095  11.586   5.030
15733W        W87262  35.543  15.293   0.449
15734W        W87263  17.991  31.274   9.966
15735W        W87264   0.258  18.479  11.532
15736W        W87265  27.146   0.891   4.151
15737W        W87266  16.345  14.149   4.150
15738W        W87267  17.507   9.571   4.709
15739W        W87268  24.019  43.902   3.657
15740W        W87269  21.087   1.347  12.661
15741W        W87270  42.870  43.018  11.883
15742W        W87271   1.243  24.765   0.332
15743W        W87272  18.169   8.531  14.938
15744W        W87273  16.225   4.972  11.764
15745W        W87274  29.685   4.946   2.139
15746W        W87275   0.345  28.044  12.117
15747W        W87276  33.640  15.743   1.223
15748W        W87277  18.799  33.897   4.581
15749W        W87278  36.941  15.592  12.054
15750W        W87279  30.160  22.095   0.771
15751W        W87280   1.964  25.504  12.826
15752W        W87281  30.096  13.768  14.902
15753W        W87282   5.650  16.070   0.315
15754W        W87283  36.609  44.955   2.208
15755W        W87284  31.456  39.550   2.301
15756W        W87285  41.423   4.183  11.951
15757W        W87286  27.223   5.291  13.652
15758W        W87287  14.840  27.086  14.949
15759W        W87288  16.013   0.182  14.697
15760W        W87289  39.610  11.837  14.976
15761W        W87290  39.028  11.586   1.360
15762W        W87291   7.821  34.422   4.311
15763W        W87292   9.829  39.891   2.269
15764W        W87293  23.072  35.682  13.928
15765W        W87294  41.823  17.151  14.070
15766W        W87295  33.038   0.457  10.951
15767W        W87296  23.206  28.844  11.037
15768W        W87297  14.186  38.469  10.717
15769W        W87298  16.405  44.028  11.996
15770W        W87299  24.779  26.724  12.599
15771W        W87300   6.316   0.546   3.230
15772W        W87301  27.083  37.076  13.967
15773W        W87302   5.274  25.073  14.949
15774W        W87303  14.070  28.131  13.060
15775W        W87304  41.835   4.416  14.514
15776W        W87305  13.635   1.371   4.127
15777W        W87306  40.445   7.752   0.093
15778W        W87307  29.557   1.716   1.182
15779W        W87308  39.994  12.710  12.680
15780W        W87309  42.806  42.063  13.993
15781W        W87310  40.952   4.230  14.931
15782W        W87311  30.802  25.602   0.735
15783W        W87312  10.165  27.892  11.149
15784W        W87313   1.946  38.562   0.820
15785W        W87314  35.956  17.982  13.590
15786W        W87315   6.963  15.383   0.382
15787W        W87316  18.802  39.577   4.106
15788W        W87317  44.803  26.256   1.810
15789W        W87318  40.122  28.655  11.097
15790W        W87319   8.777  17.136  14.293
15791W        W87320   0.655  12.193   3.554
15792W        W87321  14.707  35.564   3.700
15793W        W87322   1.433  40.443  13.322
15794W        W87323   4.869  19.037  11.220
15795W        W87324   8.238   6.032  12.058
15796W        W87325   7.363   7.158   4.198
15797W        W87326  14.855   1.360  13.448
15798W        W87327   5.466   5.314   3.244
15799W        W87328  21.209  29.042  11.059
15800W        W87329  34.601  31.419   3.054
15801W        W87330  36.386  15.778   3.686
15802W        W87331   2.718  44.223   0.921
15803W        W87332  13.235  10.656   1.319
15804W        W87333  13.675  35.058   4.545
15805W        W87334   0.758  40.823  14.074
15806W        W87335  26.033  38.147   2.368
15807W        W87336  27.950  34.490   3.678
15808W        W87337  24.907  34.142  11.232
15809W        W87338  11.575  39.867  11.085
15810W        W87339  21.874  14.795   3.921
15811W        W87340  21.121  41.430  10.296
15812W        W87341  29.611   8.034   2.259
15813W        W87342  39.553   1.256   4.543
15814W        W87343  18.259   3.300   2.779
15815W        W87344  10.447  24.705  12.854
15816W        W87345   9.994  34.979  11.575
15817W        W87346  17.278  19.824   4.482
15818W        W87347  40.476  17.758  12.626
15819W        W87348  44.318  15.237   1.955
15820W        W87349   9.910  17.882  14.036
15821W        W87350  39.364  17.534  10.659
15822W        W87351  11.091  38.384  12.870
15823W        W87352  40.588  23.685   3.169
15824W        W87353  18.687  37.122   1.451
15825W        W87354  21.812  19.498   1.311
15826W        W87355  13.375  40.561   4.235
15827W        W87356  13.064  44.357  13.060
15828W        W87357  18.812  31.459   3.131
15829W        W87358   1.520  41.069   2.049
15830W        W87359   4.773  11.416  14.867
15831W        W87360  23.488  42.814   0.556
15832W        W87361  24.359  40.133  12.116
15833W        W87362  22.415  10.211  10.672
15834W        W87363  41.460  44.250   4.562
15835W        W87364  15.651  18.604  14.300
15836W        W87365  36.149  29.178  14.358
15837W        W87366  33.515  27.980   2.401
15838W        W87367  19.260  26.459   3.044
15839W        W87368  33.438   0.831   0.852
15840W        W87369  28.023   7.768  14.503
15841W        W87370   3.441  11.500  11.534
15842W        W87371  12.730   5.913   0.458
15843W        W87372  44.260  23.847   1.195
15844W        W87373   2.743  26.557   3.186
15845W        W87374  31.383  13.376  14.555
15846W        W87375  37.082  34.916  11.997
15847W        W87376  34.855   3.430  14.642
15848W        W87377  40.027   7.120   1.203
15849W        W87378  31.771  14.669   0.798
15850W        W87379  33.492   2.035   4.750
15851W        W87380  18.334  43.008  11.217
15852W        W87381   1.866   7.656   3.175
15853W        W87382  19.282   1.675   0.423
15854W        W87383  11.538   0.562   4.037
15855W        W87384  32.079  29.406  13.961
15856W        W87385  18.510  39.893   2.875
15857W        W87386  23.414  41.501   2.786
15858W        W87387  34.318  23.571  10.710
15859W        W87388  13.586  19.494  11.721
15860W        W87389  17.153  13.720  12.548
15861W        W87390   0.230   8.217   1.382
15862W        W87391  31.945  43.507  14.807
15863W        W87392   8.121   9.920  12.977
15864W        W87393  21.610   3.437   4.987
15865W        W87394  36.627   3.958  14.793
15866W        W87395   9.669  24.687  12.614
15867W        W87396  43.089  33.042   2.604
15868W        W87397  42.681   6.114   3.282
15869W        W87398  42.456   2.733   3.664
15870W        W87399   5.180  17.795   0.188
15871W        W87400   6.749  40.382  13.832
15872W        W87401   8.591  14.707  12.605
15873W        W87402  32.880  23.739  13.955
15874W        W87403  25.454  43.782  13.932
15875W        W87404   8.862  29.144   0.602
15876W        W87405  26.215  44.818  14.297
15877W        W87406   3.522   2.301  12.886
15878W        W87407   8.610  40.837  10.556
15879W        W87408  44.312  13.667  13.138
15880W        W87409  39.781   3.469   3.834
15881W        W87410  41.531  16.338   4.635
15882W        W87411   7.289  11.312  11.815
15883W        W87412  33.240  43.569  13.019
15884W        W87413  25.625   4.639   3.159
15885W        W87414   3.391   7.292  13.913
15886W        W87415  34.448   3.407   3.743
15887W        W87416  34.654  28.738   4.800
15888W        W87417  12.762   1.060  13.104
15889W        W87418  25.996  34.456   3.305
15890W        W87419  12.018  36.432  13.952
15891W        W87420  25.708  15.299   2.641
15892W        W87421   5.856  22.145   4.414
15893W        W87422   1.375  14.450   1.675
15894W        W87423   9.452  37.410   3.115
15895W        W87424   2.804   6.205   4.722
15896W        W87425  44.944   2.892  14.419
15897W        W87426  24.169   9.008  14.380
15898W        W87427  37.590  44.469   3.227
15899W        W87428   4.289  12.388   2.303
15900W        W87429  43.982  37.258   3.716
15901W        W87430  11.434  39.603   0.722
15902W        W87431  22.065   4.970   3.605
15903W        W87432  35.844  18.273   3.640
15904W        W87433  19.488   9.985   0.685
15905W        W87434   9.416   3.821  13.149
15906W        W87435  29.402  29.501   2.854
15907W        W87436   9.054  10.192   9.824
15908W        W87437  21.409  20.603   3.532
15909W        W87438  18.682  10.189   0.463
15910W        W87439  14.144   8.278   3.931
15911W        W87440  18.007  26.113   3.340
15912W        W87441  15.578  31.652  10.524
15913W        W87442  38.390   3.343  10.657
15914W        W87443  35.400   1.961   0.382
15915W        W87444   1.287  23.209  13.831
15916W        W87445  16.733  34.623   3.837
15917W        W87446  29.192  39.936  14.352
15918W        W87447   8.014  15.578  13.049
15919W        W87448   3.393   3.715  14.466
15920W        W87449   2.907  24.624  11.543
15921W        W87450  38.765  18.025   0.272
15922W        W87451  34.726   9.757   2.352
15923W        W87452  26.717   3.794   3.283
15924W        W87453  23.178  26.286   4.903
15925W        W87454  27.019  37.703  11.161
15926W        W87455  24.477  14.115  14.518
15927W        W87456   8.244  44.926  13.517
15928W        W87457  10.150  33.323  14.689
15929W        W87458  22.258   6.935   2.796
15930W        W87459  15.396  10.579  14.370
15931W        W87460  28.655  30.438  13.939
15932W        W87461  21.546   6.750   0.900
15933W        W87462  31.666  10.011  11.922
15934W        W87463  44.353  35.046  13.769
15935W        W87464  30.700  14.291   1.606
15936W        W87465  33.570   1.802   0.757
15937W        W87466  44.003  27.281  10.598
15938W        W87467  23.756   8.073   4.686
15939W        W87468  41.382  11.372   3.654
15940W        W87469  32.877  20.453  11.358
15941W        W87470  17.028  14.902   3.256
15942W        W87471  28.381   4.331  12.783
15943W        W87472   5.154  26.978  12.035
15944W        W87473  34.633  35.202   1.131
15945W        W87474  21.621   0.063  14.126
15946W        W87475  28.440  39.831  13.297
15947W        W87476  13.999  31.563   4.153
15948W        W87477   9.179  41.602  10.363
15949W        W87478  37.511  18.250  13.435
15950W        W87479  30.216  26.262  14.857
15951W        W87480  18.551  13.696  11.530
15952W        W87481  14.123   2.219  12.437
15953W        W87482  38.423  34.424   4.574
15954W        W87483  15.298  40.054  14.732
15955W        W87484  36.111   2.007  13.450
15956W        W87485  27.527  36.866  13.796
15957W        W87486  36.395  16.581   0.841
15958W        W87487  35.750  24.165   3.102
15959W        W87488  11.266  30.356   3.278
15960W        W87489  41.897  44.194   2.823
15961W        W87490  42.988  22.265   0.893
15962W        W87491  37.057   0.297  14.365
15963W        W87492  35.136   0.415   2.169
15964W        W87493  16.300  44.990   1.756
15965W        W87494  41.104  24.991   1.838
15966W        W87495  13.276  28.704   3.143
15967W        W87496  31.414   9.861   2.620
15968W        W87497  34.944  22.472  14.972
15969W        W87498  31.580   5.178   2.286
15970W        W87499  43.421   5.248  14.432
15971W        W87500  11.259  22.664  12.840
15972W        W87501   7.847  41.199   4.182
15973W        W87502  42.695   5.228  11.197
15974W        W87503   0.811  10.067   1.896
15975W        W87504  17.051  36.642   3.543
15976W        W87505  41.848  38.876   3.255
15977W        W87506  34.131   2.195   4.284
15978W        W87507  42.606   2.970  14.355
15979W        W87508  19.654   5.974  13.883
15980W        W87509  19.602  10.338   1.040
15981W        W87510   8.820  16.848  14.891
15982W        W87511  10.245  18.948   4.218
15983W        W87512  17.290  41.581   4.212
15984W        W87513  19.046   9.569   1.440
15985W        W87514  44.035  43.901   2.154
15986W        W87515   6.872  34.373  10.542
15987W        W87516  26.386  22.928   3.368
15988W        W87517  23.430  31.923   4.737
15989W        W87518  34.286  17.792  12.020
15990W        W87519  22.585   9.244  14.757
15991W        W87520  20.944  27.250  13.779
15992W        W87521  10.936   4.147  13.486
15993W        W87522  14.144  32.847   0.401
15994W        W87523  38.019  40.807   0.774
15995W        W87524  30.888  32.953  13.898
15996W        W87525   3.491  26.059   4.120
15997W        W87526  30.653  23.079  12.515
15998W        W87527  23.855  16.433   3.729
15999W        W87528   5.660  21.988  13.328
16000W        W87529  12.805  43.512  13.509
16001W        W87530  40.922  28.748   4.148
16002W        W87531   4.362   9.194   0.004
16003W        W87532  33.277   0.484   1.812
16004W        W87533   4.246  34.882   0.061
16005W        W87534  33.512   3.317  12.641
16006W        W87535  39.535  26.148  12.423
16007W        W87536  38.346  31.150  12.486
16008W        W87537  38.764   0.385  14.801
16009W        W87538   2.011  20.434   2.270
16010W        W87539  35.723   2.650  14.913
16011W        W87540  28.114  27.093  11.658
16012W        W87541  38.688  36.055   4.193
16013W        W87542  16.344   6.734   5.167
16014W        W87543  20.716  44.126  13.870
16015W        W87544   1.942  14.369  10.643
16016W        W87545  25.666  22.986   1.408
16017W        W87546  37.139   7.658  11.680
16018W        W87547  41.027   4.884   0.756
16019W        W87548  38.539  33.587  10.773
16020W        W87549  39.854   9.291   0.258
16021W        W87550  31.954  33.676   1.169
16022W        W87551   2.950   8.316  11.204
16023W        W87552  40.442   6.167  11.244
16024W        W87553  29.212  40.963   4.572
16025W        W87554  24.588  37.670  14.646
16026W        W87555  41.598  39.997   2.269
16027W        W87556  40.331  33.636  11.588
16028W        W87557  36.453  11.348   2.257
16029W        W87558   5.323  21.138   4.248
16030W        W87559  18.105  14.251  13.446
16031W        W87560   3.264  29.617  14.486
16032W        W87561   2.659   5.326  13.335
16033W        W87562  28.389  40.942   1.261
16034W        W87563  28.283  37.067  10.972
16035W        W87564  12.823  14.742  13.846
16036W        W87565   6.905  21.995   3.160
16037W        W87566  14.155  33.248  12.791
16038W        W87567  26.119  24.576   4.326
16039W        W87568  14.270  37.202   9.875
16040W        W87569  37.508   6.284  10.799
16041W        W87570   9.079  43.502   3.219
16042W        W87571  13.811  30.469  14.312
16043W        W87572  20.700  41.224   3.601
16044W        W87573  23.339  37.816  14.795
16045W        W87574   4.372   8.925   1.593
16046W        W87575  16.312  35.104   1.284
16047W        W87576  33.401  14.004  14.055
16048W        W87577  40.737  44.445  13.286
16049W        W87578  19.073  18.188   0.764
16050W        W87579   2.494  37.505   3.711
16051W        W87580  44.491  14.120  13.335
16052W        W87581  20.030  36.446   3.846
16053W        W87582  36.126   0.804  12.423
16054W        W87583  20.836  25.695   4.763
16055W        W87584  44.968  32.423   3.775
16056W        W87585  33.587  21.355   1.928
16057W        W87586   0.435  33.116   3.684
16058W        W87587   1.920  41.940   0.800
16059W        W87588   0.604  43.534   2.823
16060W        W87589   3.826  20.121   1.412
16061W        W87590  38.039  16.711   1.390
16062W        W87591  20.985  36.440   1.652
16063W        W87592  16.632  12.803   4.445
16064W        W87593  44.500   9.589   1.906
16065W        W87594  14.560  16.251  12.341
16066W        W87595  23.549  17.191   3.221
16067W        W87596  16.711  41.838   3.685
16068W        W87597   1.514  34.653  10.998
16069W        W87598  11.773  44.821   3.661
16070W        W87599  10.183  22.062  13.995
16071W        W87600  30.011  42.422   1.254
16072W        W87601  29.825  13.294  14.858
16073W        W87602   5.471   1.769  14.287
16074W        W87603  21.329   5.111  12.541
16075W        W87604  37.878  30.510  10.415
16076W        W87605  28.989  10.099  11.131
16077W        W87606  24.773  26.912   2.403
16078W        W87607  41.984  16.239   3.384
16079W        W87608  33.278  28.203  11.530
16080W        W87609  14.607  26.407   0.229
16081W        W87610  19.625   2.893   1.321
16082W        W87611  13.591  37.041  14.293
16083W        W87612  31.550  13.672  10.928
16084W        W87613   1.878  15.120  11.148
16085W        W87614   6.501   4.361   4.103
16086W        W87615  27.235  41.529  14.255
16087W        W87616  33.192  41.720   0.710
16088W        W87617  35.007  25.302   0.069
16089W        W87618  33.093  27.908  14.924
16090W        W87619  29.720  43.824   4.180
16091W        W87620   5.989  23.648   3.363
16092W        W87621  37.799  35.544   4.677
16093W        W87622  23.627  34.169   1.689
16094W        W87623  39.315   4.615   1.660
16095W        W87624   7.845  28.879  12.045
16096W        W87625  39.747  44.787   1.462
16097W        W87626   0.563  19.619   1.159
16098W        W87627   1.742   8.805   5.010
16099W        W87628   7.066   5.170   2.734
16100W        W87629  29.897   9.258   3.182
16101W        W87630  37.484  20.527  12.352
16102W        W87631  10.737  28.015  12.790
16103W        W87632   1.027  24.185  14.116
16104W        W87633  16.225  15.850  12.999
16105W        W87634   5.175  10.790   1.360
16106W        W87635   2.026  34.496  12.657
16107W        W87636  10.565  17.851   4.694
16108W        W87637  27.360  31.731  10.927
16109W        W87638  27.385  14.182  12.976
16110W        W87639  15.198  21.609  12.425
16111W        W87640   9.789  26.232  12.580
16112W        W87641  38.647  27.096  14.708
16113W        W87642  29.431  33.890  14.482
16114W        W87643   7.102  15.348  13.907
16115W        W87644  40.381  44.708   3.876
16116W        W87645   1.978  33.866  12.543
16117W        W87646  39.818  18.423  13.354
16118W        W87647  24.508  44.402   0.632
16119W        W87648  37.121  13.892   4.510
16120W        W87649  23.334  29.760  10.770
16121W        W87650  39.052  26.783   3.465
16122W        W87651   4.274  42.174  11.561
16123W        W87652  11.248  22.125  13.985
16124W        W87653  44.371  38.531  14.322
16125W        W87654  22.541  20.201   3.578
16126W        W87655  13.490  42.663   5.204
16127W        W87656   9.848   3.130   0.714
16128W        W87657  12.410   0.898   3.620
16129W        W87658  31.068  29.117  12.978
16130W        W87659  16.455  10.915   4.972
16131W        W87660  40.640  10.878   2.314
16132W        W87661  28.926   5.806   4.018
16133W        W87662  10.591  10.397   1.848
16134W        W87663  29.634  21.747   4.301
16135W        W87664  15.204  20.274   3.665
16136W        W87665  31.489  38.094  13.424
16137W        W87666  32.569  32.780  12.009
16138W        W87667  15.553  36.320   4.456
16139W        W87668  30.320  35.577   4.099
16140W        W87669  18.583   1.727  14.735
16141W        W87670  33.297   2.278  11.964
16142W        W87671  10.446  44.968  14.974
16143W        W87672  11.740   1.950   1.204
16144W        W87673  35.047  11.614   4.955
16145W        W87674  40.293  17.761  14.523
16146W        W87675  15.175  36.874  11.686
16147W        W87676   2.299  13.865   5.057
16148W        W87677  25.824  20.628   2.921
16149W        W87678  34.520   2.453  13.981
16150W        W87679  16.855  23.621  11.558
16151W        W87680  13.820   4.322  12.928
16152W        W87681   9.215  27.588   1.643
16153W        W87682  40.256  42.095   3.188
16154W        W87683  32.670  35.454   4.711
16155W        W87684   4.984  26.339   1.896
16156W        W87685  13.586   8.497   0.775
16157W        W87686  30.973   9.828   2.891
16158W        W87687   2.841  26.524   5.245
16159W        W87688  11.808   6.792   4.305
16160W        W87689  38.507  38.447  10.837
16161W        W87690  16.041  38.799   0.963
16162W        W87691  13.363  13.030  11.602
16163W        W87692  38.975  44.871  12.142
16164W        W87693   3.735  17.818  12.390
16165W        W87694  28.227  15.654  13.853
16166W        W87695  28.233   2.134  11.352
16167W        W87696  41.830  40.881   4.772
16168W        W87697   8.580  19.758   5.046
16169W        W87698   4.920  32.439   3.336
16170W        W87699  19.640  20.225   1.440
16171W        W87700  14.214  17.592  13.792
16172W        W87701  25.077  15.188  10.703
16173W        W87702  34.370  16.725   0.882
16174W        W87703  38.111  28.866  13.842
16175W        W87704   5.121   6.275  12.058
16176W        W87705  11.233  14.108  12.855
16177W        W87706  41.448  21.609   4.483
16178W        W87707  39.416  23.674   4.811
16179W        W87708   6.540  23.431  11.566
16180W        W87709  20.715  13.662  13.993
16181W        W87710  30.796   6.975   2.291
16182W        W87711  17.210  41.470   2.867
16183W        W87712  36.093  24.412  13.726
16184W        W87713  30.152  12.607   2.251
16185W        W87714  18.848  23.724   4.118
16186W        W87715  36.968  30.458  12.446
16187W        W87716  13.707  23.607   1.098
16188W        W87717  33.340  27.303   3.136
16189W        W87718   6.929  20.756   3.139
16190W        W87719  25.408   9.447   4.173
16191W        W87720  12.701  20.855   4.316
16192W        W87721   7.962  38.212   3.255
16193W        W87722  19.289  16.229  10.704
16194W        W87723  35.330   7.582   1.330
16195W        W87724  18.691  42.608  14.874
16196W        W87725   5.630   2.554   0.453
16197W        W87726  38.948  33.088   0.230
16198W        W87727  14.026  29.576  14.343
16199W        W87728  16.544   7.302   2.699
16200W        W87729  44.951  25.525  10.812
16201W        W87730  38.199   6.276   4.240
16202W        W87731  25.386   3.983  14.092
16203W        W87732   5.680  26.910   2.630
16204W        W87733  20.069   4.275  13.533
16205W        W87734  16.760  41.397  13.072
16206W        W87735  32.664  25.456  13.920
16207W        W87736  18.111  22.784   0.805
16208W        W87737   9.253  16.325  10.669
16209W        W87738  15.479  14.152  14.402
16210W        W87739   5.125  11.851  12.024
16211W        W87740  20.036   3.883  11.883
16212W        W87741  40.341  23.105   0.711
16213W        W87742  16.032  28.914   1.327
16214W        W87743  27.015  10.952  12.091
16215W        W87744  33.017  39.010   0.518
16216W        W87745  26.916  31.839   3.592
16217W        W87746  16.957  30.939  12.184
16218W        W87747   1.187  12.836   0.362
16219W        W87748  20.090  39.858   0.395
16220W        W87749  42.639   3.222   3.643
16221W        W87750  41.958   3.840  10.867
16222W        W87751  31.279  43.490   2.944
16223W        W87752  44.995  20.637  12.051
16224W        W87753  35.800   6.383  12.925
16225W        W87754   5.582  26.641  14.714
16226W        W87755   0.426  34.414   2.602
16227W        W87756  12.525  34.632  11.109
16228W        W87757  23.094  26.342  10.307
16229W        W87758  10.784  16.152  14.540
16230W        W87759  15.417  35.796  14.929
16231W        W87760  33.581   4.266   4.922
16232W        W87761  28.883  37.547  14.318
16233W        W87762  28.554  14.142   0.489
16234W        W87763  35.197  40.420   4.920
16235W        W87764   4.665  29.861  11.477
16236W        W87765   7.240  17.501  12.097
16237W        W87766  14.577  11.542   1.294
16238W        W87767  23.929  28.962   4.149
16239W        W87768   3.062  16.716   2.816
16240W        W87769   3.778  20.104  14.567
16241W        W87770  36.058  34.994   1.234
16242W        W87771  41.057  42.982   2.656
16243W        W87772  43.867  17.144   2.662
16244W        W87773  20.525  14.562   5.184
16245W        W87774  39.082  34.377   0.005
16246W        W87775  38.324  20.028  12.622
16247W        W87776  43.160  40.585  13.377
16248W        W87777  42.875   7.835   0.300
16249W        W87778  26.979  13.799  11.537
16250W        W87779  24.947  25.139   2.873
16251W        W87780  28.113  21.218   4.689
16252W        W87781  18.931   9.655  11.466
16253W        W87782  27.647  11.271   0.007
16254W        W87783  30.318  18.852  13.416
16255W        W87784   1.559   7.180   1.842
16256W        W87785  10.070  18.046  11.857
16257W        W87786  42.920  44.770  10.827
16258W        W87787   4.245  17.305   1.924
16259W        W87788   6.065  25.254   0.513
16260W        W87789   5.053  22.574   4.755
16261W        W87790  18.632  28.028   9.783
16262W        W87791   2.445  35.349  13.450
16263W        W87792  41.446  17.490  13.511
16264W        W87793  27.381  39.413  13.967
16265W        W87794  25.163  22.178  11.154
16266W        W87795   3.877  27.398   4.318
16267W        W87796  21.435   7.487  12.612
16268W        W87797   1.851   3.360   0.287
16269W        W87798  11.924   6.608   2.920
16270W        W87799  38.940  39.862   0.355
16271W        W87800  28.481   6.578   2.412
16272W        W87801   3.020  10.233  12.592
16273W        W87802  40.224  23.234   1.804
16274W        W87803  22.973  30.600   0.381
16275W        W87804  19.106  39.308   3.637
16276W        W87805  39.803  18.469  10.767
16277W        W87806  42.740  24.554   2.339
16278W        W87807   2.323  43.746  11.126
16279W        W87808  19.775  35.326   3.865
16280W        W87809  23.505  17.771   1.615
16281W        W87810  44.431  22.143  11.010
16282W        W87811  10.894   6.061  12.290
16283W        W87812  17.203   3.932  11.361
16284W        W87813  26.951  36.128   0.468
16285W        W87814  12.289  36.376   2.107
16286W        W87815   6.734  38.302  13.026
16287W        W87816  43.258  34.319   2.003
16288W        W87817   3.777  43.885  14.862
16289W        W87818  29.803  31.440   0.780
16290W        W87819   4.107  19.772  14.807
16291W        W87820   4.295  31.898  12.395
16292W        W87821   7.418  21.506  11.160
16293W        W87822  36.148  42.403  13.869
16294W        W87823  24.222   2.972   2.847
16295W        W87824  34.370  27.757   2.618
16296W        W87825  11.163  11.723  12.373
16297W        W87826  19.350   9.829   1.768
16298W        W87827  34.854  32.693   4.058
16299W        W87828  26.825   0.443   0.377
16300W        W87829  28.788  10.862  12.113
16301W        W87830   4.261  34.413  14.851
16302W        W87831  24.638  29.580  11.608
16303W        W87832  24.529  15.603  11.186
16304W        W87833  39.608  29.105   1.323
16305W        W87834  19.714   9.603  12.003
16306W        W87835  38.390   2.316   1.015
16307W        W87836  22.036  32.998   1.790
16308W        W87837   1.191  31.841  10.426
16309W        W87838  34.489  35.760  14.101
16310W        W87839  19.696  34.595  10.945
16311W        W87840  20.407   5.690  13.394
16312W        W87841  23.768   5.327  13.940
16313W        W87842  21.560   0.546   1.691
16314W        W87843  18.053  27.719   0.468
16315W        W87844  12.328  37.584   2.609
16316W        W87845  10.249  40.617  14.035
16317W        W87846  39.489  10.178   2.274
16318W        W87847  44.505  28.845   2.397
16319W        W87848  24.517  24.958   1.399
16320W        W87849  25.606  23.688   4.450
16321W        W87850  39.788  20.416  13.879
16322W        W87851  20.774  13.552  12.634
16323W        W87852  28.293  41.593   0.448
16324W        W87853  22.558  14.718  12.292
16325W        W87854  37.637  41.539  10.922
16326W        W87855  30.064  31.630   4.180
16327W        W87856  38.001  15.084  13.694
16328W        W87857  43.506  16.210  12.591
16329W        W87858   7.246  20.386   0.927
16330W        W87859  27.222  39.109  14.500
16331W        W87860  33.622   0.896  11.651
16332W        W87861   8.296  10.635   0.783
16333W        W87862  28.542  16.872   3.517
16334W        W87863  17.605  29.709  14.031
16335W        W87864  26.029  22.125   0.877
16336W        W87865   1.502   1.206   3.311
16337W        W87866  38.620   9.627  12.878
16338W        W87867  19.775   4.638  10.251
16339W        W87868  19.075   3.726   1.197
16340W        W87869  19.192  41.832  11.342
16341W        W87870  37.041  27.446   4.472
16342W        W87871  38.862  10.341   4.641
16343W        W87872  14.743  11.677  14.071
16344W        W87873  33.703  35.144   1.378
16345W        W87874   5.890  11.569   2.246
16346W        W87875  13.151  11.693   1.363
16347W        W87876  42.586  14.749   2.477
16348W        W87877  29.497   9.360   2.329
16349W        W87878   7.816   2.736  14.442
16350W        W87879  32.561  32.678   0.265
16351W        W87880  20.968  31.303   1.031
16352W        W87881  13.669  22.183  14.582
16353W        W87882  10.790   4.322   0.445
16354W        W87883  26.983  30.174  12.053
16355W        W87884   2.914  29.607   2.904
16356W        W87885  29.853   2.452   4.051
16357W        W87886  15.576   6.389  11.993
16358W        W87887  35.350  20.012  14.476
16359W        W87888   6.360  18.479   0.395
16360W        W87889  32.880   6.868   3.040
16361W        W87890  16.349  31.894  12.529
16362W        W87891   5.302  44.371   4.609
16363W        W87892  20.291   6.415   1.816
16364W        W87893   1.982  27.179   0.751
16365W        W87894  14.708  25.588   4.967
16366W        W87895   7.001  41.430  13.856
16367W        W87896  43.292   2.396   4.599
16368W        W87897  38.938   4.705  13.251
16369W        W87898  32.464  44.081   2.297
16370W        W87899   8.202   3.131  11.126
16371W        W87900  41.983  42.806  11.917
16372W        W87901  41.947  12.784  14.236
16373W        W87902  11.333   9.884   4.043
16374W        W87903  32.679  36.459  12.572
16375W        W87904  18.757  41.424   3.104
16376W        W87905   1.393  14.402  11.181
16377W        W87906  32.972  38.729  12.872
16378W        W87907   7.207   8.174   4.128
16379W        W87908  18.410  12.520   4.062
16380W        W87909  14.948  32.548   4.371
16381W        W87910   1.516  43.039  14.314
16382W        W87911  44.180  37.891  14.786
16383W        W87912  39.390  35.683  14.872
16384W        W87913   1.795  27.482  13.577
16385W        W87914  40.386  13.386   1.956
16386W        W87915  41.324  36.345  10.627
16387W        W87916  11.322  25.485   3.209
16388W        W87917  33.309  19.843  10.233
16389W        W87918  22.763  16.778   1.054
16390W        W87919  23.176  31.067  14.727
16391W        W87920  33.237  28.435  13.663
16392W        W87921   8.263  43.668   4.161
16393W        W87922  23.600  31.981  11.985
16394W        W87923  22.681  42.265  12.607
16395W        W87924  15.329  32.039   2.854
16396W        W87925  41.887   0.914  10.810
16397W        W87926   9.106  23.080  14.963
16398W        W87927  36.490  36.116   2.826
16399W        W87928  29.207  39.110   0.782
16400W        W87929  26.887  21.252  14.328
16401W        W87930  15.187  43.085   1.444
16402W        W87931  38.895  18.289  10.791
16403W        W87932  39.939   8.244   3.418
16404W        W87933  25.716  28.447  13.823
16405W        W87934  23.519  41.755  14.049
16406W        W87935  21.218  15.547  13.075
16407W        W87936  11.680   5.528   0.553
16408W        W87937   6.389  27.670  11.638
16409W        W87938  42.977   0.001   2.392
16410W        W87939  18.106  37.047  14.890
16411W        W87940  36.779   6.150   4.693
16412W        W87941  10.513  28.399   4.506
16413W        W87942   3.721  43.497   4.656
16414W        W87943  41.791  27.517  11.226
16415W        W87944  11.609  35.528   2.730
16416W        W87945  10.229  23.675   0.436
16417W        W87946  33.014   3.235  13.321
16418W        W87947   8.651  19.106  10.719
16419W        W87948  38.492  16.848   1.200
16420W        W87949   5.282  38.983  13.601
16421W        W87950  42.034  31.575  13.961
16422W        W87951  36.120  14.317   1.873
16423W        W87952  12.963  44.960   0.717
16424W        W87953   4.396  35.641  11.628
16425W        W87954  36.473  36.364   4.410
16426W        W87955  11.153   5.712  12.045
16427W        W87956   1.409   2.396  13.475
16428W        W87957  19.475  21.092  13.312
16429W        W87958  43.354  42.876   0.801
16430W        W87959   1.369  15.121  14.918
16431W        W87960   7.061   4.438  10.705
16432W        W87961  39.967  19.095  13.956
16433W        W87962  29.778   9.775   2.487
16434W        W87963   7.898  44.026   0.852
16435W        W87964  14.350  29.709   1.831
16436W        W87965   3.737  13.888   1.708
16437W        W87966  44.087  30.166   2.692
16438W        W87967  42.746   0.312  13.818
16439W        W87968   8.431  15.537   2.290
16440W        W87969  19.621  28.900   4.111
16441W        W87970  20.791   9.047  10.734
16442W        W87971  17.369  31.867  14.895
16443W        W87972  43.934   2.517  13.779
16444W        W87973  23.060   5.738  14.755
16445W        W87974  30.398  40.876  12.048
16446W        W87975   4.466  33.069   0.810
16447W        W87976   7.439   8.493  13.573
16448W        W87977  36.860  16.785   2.667
16449W        W87978  37.657  31.141   4.997
16450W        W87979  36.479  41.643   0.337
16451W        W87980  28.850  14.278  11.446
16452W        W87981  23.651  42.604  12.973
16453W        W87982  34.797  28.033   2.701
16454W        W87983  16.775  35.148  13.411
16455W        W87984   6.166  20.249  14.041
16456W        W87985   3.302   0.420  10.729
16457W        W87986  32.023  15.168   1.775
16458W        W87987  38.031  11.401  11.541
16459W        W87988  33.756  31.696   2.865
16460W        W87989  36.533  36.399  10.430
16461W        W87990  16.341  25.695  10.774
16462W        W87991  22.709  13.164   4.443
16463W        W87992  25.738  34.211  10.674
16464W        W87993  27.079  15.746  10.311
16465W        W87994   9.590   3.228   2.866
16466W        W87995  15.777   5.821   1.917
16467W        W87996  23.065  23.172   3.829
16468W        W87997   1.204  30.491  13.431
16469W        W87998  39.445  16.100   1.211
16470W        W87999  18.072  40.902   1.137
16471W        W88000   5.647  39.755   3.376
16472W        W88001  36.405  16.521   1.689
16473W        W88002   1.216  29.635   2.332
16474W        W88003  29.669  31.479   3.631
16475W        W88004   2.474   5.115  11.608
16476W        W88005  22.164   6.980  13.045
16477W        W88006  24.265  39.979  14.076
16478W        W88007  28.890  21.078  14.017
16479W        W88008  30.509   5.679  13.391
16480W        W88009  18.510  42.276   0.241
16481W        W88010  39.657  28.449  13.901
16482W        W88011   5.367  16.614  11.549
16483W        W88012  34.554  41.617   4.222
16484W        W88013  17.090  29.247   0.438
16485W        W88014  16.602  12.937  10.393
16486W        W88015  32.551  11.384   1.329
16487W        W88016   9.813  28.221  12.052
16488W        W88017  38.997  22.504   4.473
16489W        W88018  37.538  28.598   3.183
16490W        W88019   1.947   5.653   4.492
16491W        W88020   1.180  39.955  14.400
16492W        W88021   1.195  24.578  11.555
16493W        W88022  30.983  35.770   3.263
16494W        W88023  11.661  30.776   0.343
16495W        W88024  12.419   6.403   1.758
16496W        W88025   5.206  42.919  11.903
16497W        W88026  36.990  36.550  12.084
16498W        W88027  10.533  30.475   4.044
16499W        W88028  18.175   9.895   2.308
16500W        W88029  21.976  26.138   0.723
16501W        W88030   4.446  37.368  14.264
16502W        W88031  38.301  42.535  12.408
16503W        W88032  16.992  28.088   4.262
16504W        W88033  15.327  24.997  11.129
16505W        W88034  10.975   0.932  11.004
16506W        W88035   8.596  36.911   2.273
16507W        W88036   8.234  25.873  12.590
16508W        W88037  24.177   7.196   4.002
16509W        W88038  26.400  42.287  14.237
16510W        W88039  17.747  32.158  13.133
16511W        W88040  31.940  17.640   2.881
16512W        W88041  37.597   5.008  11.982
16513W        W88042  23.418   5.812   2.592
16514W        W88043  42.507   4.912  10.575
16515W        W88044  26.722  20.940  13.125
16516W        W88045  31.568  10.638   1.816
16517W        W88046  37.832  22.650  13.880
16518W        W88047  29.687  41.873   0.125
16519W        W88048  27.216  17.699  12.493
16520W        W88049  27.128  11.449   1.281
16521W        W88050  21.844  11.594   2.688
16522W        W88051   8.547  27.936  13.352
16523W        W88052   4.717  41.369  14.458
16524W        W88053  43.736  35.808  11.975
16525W        W88054  30.427  28.581  13.465
16526W        W88055  22.039   3.885   1.646
16527W        W88056  39.537   6.626  11.215
16528W        W88057  10.152  29.081   0.044
16529W        W88058   4.160   5.860  11.566
16530W        W88059  35.312   1.967  13.838
16531W        W88060  43.374   6.439  11.992
16532W        W88061  24.806   7.712  14.545
16533W        W88062  38.819   8.251  13.513
16534W        W88063  36.166  38.792  13.907
16535W        W88064   6.303  15.270   1.196
16536W        W88065  31.874  35.992   3.768
16537W        W88066  18.172  33.602  11.559
16538W        W88067  21.530  20.704  11.162
16539W        W88068  12.190  36.075   2.917
16540W        W88069   4.921  34.105   1.153
16541W        W88070  42.443   2.245   2.269
16542W        W88071   4.568  17.250  10.260
16543W        W88072  41.316  40.991  14.884
16544W        W88073  27.670  22.724   1.220
16545W        W88074  12.830  33.618   2.114
16546W        W88075  17.295   7.155   4.325
16547W        W88076  19.968  25.187  14.925
16548W        W88077  42.505  34.825  10.980
16549W        W88078  26.280  13.232  13.908
16550W        W88079  31.548   0.077   4.763
16551W        W88080   8.904   1.987  11.599
16552W        W88081  12.044   8.851  13.784
16553W        W88082   2.922   3.698  11.681
16554W        W88083   5.655  41.337   2.428
16555W        W88084  36.960   7.131  13.005
16556W        W88085  27.238  13.621   1.563
16557W        W88086  41.869  41.323   4.431
16558W        W88087  43.841  37.605   1.676
16559W        W88088   8.890  42.548  13.258
16560W        W88089  30.035  42.369  12.773
16561W        W88090   6.309  24.979  11.574
16562W        W88091  30.580  16.702  14.366
16563W        W88092  37.322  40.336  14.783
16564W        W88093  36.008  21.780  14.269
16565W        W88094  22.947  23.231   2.776
16566W        W88095   4.109  11.875  14.489
16567W        W88096  40.028  10.746   3.323
16568W        W88097  35.600   5.815  14.711
16569W        W88098  39.996  17.528   0.022
16570W        W88099  40.939  44.767  11.952
16571W        W88100  22.516  15.310   2.301
16572W        W88101  32.887  19.411   4.148
16573W        W88102  27.092  19.434  12.930
16574W        W88103  31.621  23.919   3.121
16575W        W88104  15.177  31.341  14.296
16576W        W88105   0.261   5.741   0.469
16577W        W88106  38.865  33.715   3.290
16578W        W88107  35.960  26.167  13.438
16579W        W88108  14.225  27.098  13.017
16580W        W88109   6.283  21.278  13.862
16581W        W88110  21.260   7.216  13.051
16582W        W88111  27.645  18.439   1.993
16583W        W88112   7.374  34.974   2.275
16584W        W88113   9.749  13.686   3.283
16585W        W88114  29.047  15.388  11.841
16586W        W88115  15.509  24.907   1.349
16587W        W88116   7.000  43.881   0.210
16588W        W88117  22.922  23.036   2.300
16589W        W88118  22.848  19.622   4.435
16590W        W88119  20.388  38.033  12.804
16591W        W88120  42.492  39.340   3.890
16592W        W88121  36.959   8.432   1.986
16593W        W88122  34.488  27.620   4.328
16594W        W88123  44.902  28.131   2.654
16595W        W88124  31.966  18.738  11.209
16596W        W88125  19.300  41.072   4.804
16597W        W88126  12.717  35.370  12.639
16598W        W88127  29.702  23.111   4.573
16599W        W88128  15.543   4.508  10.154
16600W        W88129  34.303  22.779   1.776
16601W        W88130   3.763  33.379   0.976
16602W        W88131  30.445  22.127   0.308
16603W        W88132  13.749  44.106   2.286
16604W        W88133  37.393  31.224   1.189
16605W        W88134  10.871  13.635  10.747
16606W        W88135  10.559   9.236   4.488
16607W        W88136  10.226  19.818  10.355
16608W        W88137  39.781  37.831   0.022
16609W        W88138  11.724  21.654   4.855
16610W        W88139   8.171   0.460  11.282
16611W        W88140  19.789  37.611   2.746
16612W        W88141  22.406  10.945   4.143
16613W        W88142  16.655  10.145   0.812
16614W        W88143  32.051  13.711   4.637
16615W        W88144  42.163  40.906   4.346
16616W        W88145  31.445  20.830   2.196
16617W        W88146  40.557   3.421  12.468
16618W        W88147   8.421  14.167  11.539
16619W        W88148  42.331  13.039  11.402
16620W        W88149  22.510  18.566  11.538
16621W        W88150  23.994  31.527   0.451
16622W        W88151  40.576  32.663   1.455
16623W        W88152  10.696  20.291  12.559
16624W        W88153   6.952  19.093  13.540
16625W        W88154  34.016   8.682  14.336
16626W        W88155  43.132  19.536  13.804
16627W        W88156  24.987  29.905  14.751
16628W        W88157  44.747  12.898  13.237
16629W        W88158  44.834  18.313   4.569
16630W        W88159  33.312  11.075  12.619
16631W        W88160   6.987  28.526   3.731
16632W        W88161  37.526   0.718  13.232
16633W        W88162  18.194  15.338  11.399
16634W        W88163  15.329   4.706  12.762
16635W        W88164  38.127  11.890  12.824
16636W        W88165  32.886  31.717   3.177
16637W        W88166  16.254  12.626  12.439
16638W        W88167  28.278  21.522   4.290
16639W        W88168   5.405  14.099  13.038
16640W        W88169  10.881  20.643  13.789
16641W        W88170   4.650  22.940   3.208
16642W        W88171  36.653   0.902   0.781
16643W        W88172  36.792  24.517   0.890
16644W        W88173   5.985  13.679   1.465
16645W        W88174  38.817  27.966   4.060
16646W        W88175   4.370  38.452   4.191
16647W        W88176  37.000   4.293   0.477
16648W        W88177  25.362  21.234   5.255
16649W        W88178  15.832  12.184  11.133
16650W        W88179  10.051  19.984  10.962
16651W        W88180  10.751  38.483  14.589
16652W        W88181   2.314  21.715   1.361
16653W        W88182  20.057  30.024  13.827
16654W        W88183  42.296  19.230  13.868
16655W        W88184  39.973  38.949  12.524
16656W        W88185  43.338  17.315  12.493
16657W        W88186  11.070  27.905  11.249
16658W        W88187  35.590  41.808  12.506
16659W        W88188  36.100  43.337   2.339
16660W        W88189  14.388  11.917  13.329
16661W        W88190  13.586  28.566  11.122
16662W        W88191   5.556   5.627   1.312
16663W        W88192  12.272   5.828  14.862
16664W        W88193  17.546   8.676   2.636
16665W        W88194   6.366  17.894   1.260
16666W        W88195   1.378   2.887  13.216
16667W        W88196  23.041  30.722   4.809
16668W        W88197  40.012   0.327  14.241
16669W        W88198   4.382   5.711   0.802
16670W        W88199  19.804  39.335   1.975
16671W        W88200  31.098  20.075   1.729
16672W        W88201  21.774  10.487   1.882
16673W        W88202  43.470   4.041  12.439
16674W        W88203  36.707  39.889  12.417
16675W        W88204   7.284  29.058  13.055
16676W        W88205   0.372  24.468  10.719
16677W        W88206  29.271  38.044  12.796
16678W        W88207  18.634  28.777   2.375
16679W        W88208  36.000  34.665  11.632
16680W        W88209  25.516  29.590  13.573
16681W        W88210  31.258  19.706   2.739
16682W        W88211  20.730  26.331  13.356
16683W        W88212  39.613  11.096   1.138
16684W        W88213  26.425   5.216  11.547
16685W        W88214  15.201  14.729   2.081
16686W        W88215  28.226  39.512   2.812
16687W        W88216  35.777  26.647  11.097
16688W        W88217  12.284   1.857   0.752
16689W        W88218   5.444  15.193   0.380
16690W        W88219  17.547  18.570   4.177
16691W        W88220  32.206  20.609   1.795
16692W        W88221   7.676  15.171  13.047
16693W        W88222  31.607  11.696  14.289
16694W        W88223  39.563   0.897  10.807
16695W        W88224  19.342  36.004  11.167
16696W        W88225  33.659   0.702  10.680
16697W        W88226  17.195  29.043  14.982
16698W        W88227  28.255   6.803  14.895
16699W        W88228  23.997  25.025  12.078
16700W        W88229  15.907  37.095  13.587
16701W        W88230  12.037  18.810   2.733
16702W        W88231   3.535   8.294  12.502
16703W        W88232  12.287   5.402  10.453
16704W        W88233  25.501  23.133  11.953
16705W        W88234   0.050  10.864   1.118
16706W        W88235   0.046  30.177   1.830
16707W        W88236  32.515  19.717   4.511
16708W        W88237  31.342  40.503   4.504
16709W        W88238  39.068  14.806  10.538
16710W        W88239  23.745   3.197   4.216
16711W        W88240  29.879  37.523  13.488
16712W        W88241  29.378  29.554  12.535
16713W        W88242  24.255  29.211  14.666
16714W        W88243  11.257  38.608  14.964
16715W        W88244  12.260  28.692   3.640
16716W        W88245  34.526  18.616  13.959
16717W        W88246  24.105   3.007   1.496
16718W        W88247   3.950  44.356   1.942
16719W        W88248  21.002  35.552  10.688
16720W        W88249  38.335  44.302   0.644
16721W        W88250   9.396  18.930  12.654
16722W        W88251  32.483   7.581  13.874
16723W        W88252  35.757  33.590  13.760
16724W        W88253  20.618   3.104   4.766
16725W        W88254   4.247  27.704  11.879
16726W        W88255  31.091  26.511   4.309
16727W        W88256  31.587  26.847  10.349
16728W        W88257  20.428  41.327   1.782
16729W        W88258  19.245  42.792   0.262
16730W        W88259  19.632  44.679  11.517
16731W        W88260  11.929   3.622  10.752
16732W        W88261   9.623  39.159  11.148
16733W        W88262   7.234   7.066   0.399
16734W        W88263   4.929   5.821  12.941
16735W        W88264  39.226  16.923  12.190
16736W        W88265  15.087   4.841  13.762
16737W        W88266  16.296  15.807  11.708
16738W        W88267  32.653  24.240   4.684
16739W        W88268  11.329  42.564   3.459
16740W        W88269  14.730  22.002   3.812
16741W        W88270  37.930  12.040  14.035
16742W        W88271  15.707   0.344  10.171
16743W        W88272  19.818   7.991   5.001
16744W        W88273  33.416  25.636  12.136
16745W        W88274  27.610  38.079  11.507
16746W        W88275  23.636  17.713   3.211
16747W        W88276  14.771  24.976   0.879
16748W        W88277  38.814  24.676  10.760
16749W        W88278   9.559  44.813   2.661
16750W        W88279  27.583  17.338  12.554
16751W        W88280  14.503  11.273   2.849
16752W        W88281   4.879  11.083   4.866
16753W        W88282  33.906  23.544  14.086
16754W        W88283   5.901  41.504   0.051
16755W        W88284  14.835  27.069  14.424
16756W        W88285   4.940  16.180   1.556
16757W        W88286  14.060  13.308  12.950
16758W        W88287   9.495  33.316   0.532
16759W        W88288  41.866  35.473   1.884
16760W        W88289   9.749  33.847  12.014
16761W        W88290  43.485  23.590  14.561
16762W        W88291   7.564  21.621   1.228
16763W        W88292  28.216  42.583   1.550
16764W        W88293  25.657   1.862  14.481
16765W        W88294  34.162  18.056   1.810
16766W        W88295  38.476  42.292   1.424
16767W        W88296  15.162  10.144   4.066
16768W        W88297  17.487  13.059  14.465
16769W        W88298  25.094   1.286   2.062
16770W        W88299   4.827  42.790  11.275
16771W        W88300  17.743  28.439   2.157
16772W        W88301  16.241   3.445   2.711
16773W        W88302  35.371  31.279  14.017
16774W        W88303  16.868  27.777   0.889
16775W        W88304  22.433  36.051   2.393
16776W        W88305  32.158   5.714   4.172
16777W        W88306   0.971   6.705  14.279
16778W        W88307   7.422   0.242   2.132
16779W        W88308  33.396   6.340  11.127
16780W        W88309  16.578  15.366   2.606
16781W        W88310   0.118   6.174   3.280
16782W        W88311  36.913  37.013  14.302
16783W        W88312  14.891  19.200  13.397
16784W        W88313   6.224  16.408   3.750
16785W        W88314  35.612  14.037  11.520
16786W        W88315  34.093  24.832   3.205
16787W        W88316  12.123  13.080   3.650
16788W        W88317  44.986  43.109  14.749
16789W        W88318   0.732  24.675   1.927
16790W        W88319  44.751  16.621  11.088
16791W        W88320  38.078  13.374  14.083
16792W        W88321  40.393  43.427  12.554
16793W        W88322  40.842  31.655  13.797
16794W        W88323  28.016  36.135   1.183
16795W        W88324   6.324  10.354   3.063
16796W        W88325   5.820  29.051  13.876
16797W        W88326  32.188  13.569   5.140
16798W        W88327   0.233  41.427   0.043
16799W        W88328  44.436  38.433   2.887
16800W        W88329  21.355   6.690   3.811
16801W        W88330   1.930  29.978   1.272
16802W        W88331  40.025  35.795   3.730
16803W        W88332  42.393   9.362   4.288
16804W        W88333  25.709  32.189  14.101
16805W        W88334  17.037  31.496   1.688
16806W        W88335  36.631  33.550   4.262
16807W        W88336  39.503  20.605   1.184
16808W        W88337  10.955  20.338   0.487
16809W        W88338  13.058  11.586   4.099
16810W        W88339  39.618   0.133  14.759
16811W        W88340  23.515  36.900  13.065
16812W        W88341  41.436  20.287   3.790
16813W        W88342  15.432   2.821  12.342
16814W        W88343  10.524  28.807  14.311
16815W        W88344  28.335  16.113   4.184
16816W        W88345  40.194  30.690  11.537
16817W        W88346  37.566  22.558   4.579
16818W        W88347  10.373  15.399  11.363
16819W        W88348  23.005  35.352  12.043
16820W        W88349   9.931  31.007   0.966
16821W        W88350  27.890   1.395  12.033
16822W        W88351  14.147   3.249  12.538
16823W        W88352  33.501  18.102  12.671
16824W        W88353   7.303  40.667  13.941
16825W        W88354  15.246  11.151   0.675
16826W        W88355  40.218  42.494  10.425
16827W        W88356   6.322  11.878  13.847
16828W        W88357  13.162  14.590   0.399
16829W        W88358  19.169  13.522  10.756
16830W        W88359  21.558   7.225   0.241
16831W        W88360   8.352   5.708   0.725
16832W        W88361  15.802  26.872   0.173
16833W        W88362  44.854  38.818  14.346
16834W        W88363  35.449  40.300  10.751
16835W        W88364   3.192  14.675  11.966
16836W        W88365   8.141   1.382  14.361
16837W        W88366   9.936  37.838   2.666
16838W        W88367   1.526  44.335  10.046
16839W        W88368  20.904   2.361  10.911
16840W        W88369  31.146  35.312  12.926
16841W        W88370  17.807  38.132  13.372
16842W        W88371  14.697   7.747  10.697
16843W        W88372  10.827  34.819  10.531
16844W        W88373  22.589  37.456  14.789
16845W        W88374  16.795  25.351   4.811
16846W        W88375  30.739  25.107   3.850
16847W        W88376   1.507  19.050   1.215
16848W        W88377  22.241   2.919   0.393
16849W        W88378  20.658  38.108   2.754
16850W        W88379  13.272  42.073   1.315
16851W        W88380  37.355  36.786  13.883
16852W        W88381  39.816  37.491   2.289
16853W        W88382  39.588  25.567   0.792
16854W        W88383  15.465   5.512   3.583
16855W        W88384  16.312  17.165   0.891
16856W        W88385  22.180  41.019   0.338
16857W        W88386  17.629  42.058   3.266
16858W        W88387  13.809   0.898   2.268
16859W        W88388  30.329  31.107  12.445
16860W        W88389  20.915  24.024  13.511
16861W        W88390  33.451  35.604   3.290
16862W        W88391  13.637  40.369   3.461
16863W        W88392  29.185  36.867  11.715
16864W        W88393  36.998  19.655   1.415
16865W        W88394  14.315  44.979   3.158
16866W        W88395  37.076  17.107   4.275
16867W        W88396  23.955   5.191   0.752
16868W        W88397  39.323  32.374  13.840
16869W        W88398  44.593  18.034  12.151
16870W        W88399   4.507   2.735  14.429
16871W        W88400  44.479  21.783  10.596
16872W        W88401  36.649   8.776  13.090
16873W        W88402  34.949   1.959  12.488
16874W        W88403   4.211  32.483   4.033
16875W        W88404  44.807  32.582   2.526
16876W        W88405   2.889  12.742  10.703
16877W        W88406  20.990  17.825  14.482
16878W        W88407  13.546   6.980  12.464
16879W        W88408  19.573  39.993  13.785
16880W        W88409  18.313  24.239   0.714
16881W        W88410  31.092  10.909  12.062
16882W        W88411  36.842  23.085   3.174
16883W        W88412  20.759   2.372   0.973
16884W        W88413   2.715   9.874   2.706
16885W        W88414  35.473   4.416   1.685
16886W        W88415   0.790  43.390   2.378
16887W        W88416  15.719   8.740  12.445
16888W        W88417  10.304  27.697   3.109
16889W        W88418  35.093  24.096   1.026
16890W        W88419  12.571   8.790   4.566
16891W        W88420  42.997  13.405   0.212
16892W        W88421  23.111  22.047  12.432
16893W        W88422   9.087  37.933   2.325
16894W        W88423  38.043   3.445   1.030
16895W        W88424  11.737  13.385  13.495
16896W        W88425  14.316  22.775   3.274
16897W        W88426   9.717  36.840  13.606
16898W        W88427   1.864  13.150  11.866
16899W        W88428  13.308  14.019   4.644
16900W        W88429  40.884  36.904   4.079
16901W        W88430  23.799  26.716  14.789
16902W        W88431  27.442   2.209  11.823
16903W        W88432  14.582  36.395  12.552
16904W        W88433  10.602  43.729   1.237
16905W        W88434  39.681   2.934  14.863
16906W        W88435  30.169  28.554   3.984
16907W        W88436   5.947   5.822   3.657
16908W        W88437   4.673  24.764   0.733
16909W        W88438  25.051  13.998   0.322
16910W        W88439  10.647  39.437  13.497
16911W        W88440   4.003  10.004  10.689
16912W        W88441  19.083  15.765   0.788
16913W        W88442   5.708  23.964   1.751
16914W        W88443   6.627  43.755   4.246
16915W        W88444  38.561  17.748   4.024
16916W        W88445  40.938   9.056   4.103
16917W        W88446  16.903   9.935   2.573
16918W        W88447  41.909  28.691  11.575
16919W        W88448  41.473  19.107  11.922
16920W        W88449  35.834   6.868   4.250
16921W        W88450  35.513   0.450   0.379
16922W        W88451  23.084   6.698   4.808
16923W        W88452  37.004  10.632   1.883
16924W        W88453   5.205  22.573  13.315
16925W        W88454  25.739  13.585   2.278
16926W        W88455   3.482  34.192  14.471
16927W        W88456  44.050  12.139  12.968
16928W        W88457   3.442  29.532   2.217
16929W        W88458  40.950   9.417  12.639
16930W        W88459  40.961  33.228  12.845
16931W        W88460   0.006  40.175  13.184
16932W        W88461  23.662   4.285  14.609
16933W        W88462   7.314  36.238  14.214
16934W        W88463   5.759  22.096   1.683
16935W        W88464  27.509  21.466  12.076
16936W        W88465  12.647  25.258   4.753
16937W        W88466   3.603  38.128   1.706
16938W        W88467  41.308  24.641   2.389
16939W        W88468  13.626  38.443  13.481
16940W        W88469   8.256  39.744   2.173
16941W        W88470  32.820  12.130  13.748
16942W        W88471  12.629   2.277   2.685
16943W        W88472   5.790   4.913   3.141
16944W        W88473  43.538  22.987   3.749
16945W        W88474   4.401  44.463   1.715
16946W        W88475  44.194  40.457  11.981
16947W        W88476  26.567  15.196  12.675
16948W        W88477   0.659  14.003  14.655
16949W        W88478  30.002  39.570   0.337
16950W        W88479  36.799  10.661   2.385
16951W        W88480  43.350   5.651   1.331
16952W        W88481  32.137  32.529   2.845
16953W        W88482   3.212  37.722   4.515
16954W        W88483   1.283  10.903  11.995
16955W        W88484  43.813  38.395   2.202
16956W        W88485   4.563  29.352  11.557
16957W        W88486  25.197  37.892  12.843
16958W        W88487   9.313  37.339  14.582
16959W        W88488  28.099  28.088   1.666
16960W        W88489  16.831  40.808  13.814
16961W        W88490   1.247  22.132   1.905
16962W        W88491  21.632  19.652  12.080
16963W        W88492   5.497  23.449   3.739
16964W        W88493  39.375  29.563  12.305
16965W        W88494  31.600  23.120   2.255
16966W        W88495  13.413   3.974  11.166
16967W        W88496  30.425  13.895   3.792
16968W        W88497  30.106  23.339  10.813
16969W        W88498  18.668  19.019  11.149
16970W        W88499  18.376   5.199  13.988
16971W        W88500  44.486   2.772   3.112
16972W        W88501  23.970   2.128  10.681
16973W        W88502   7.161  25.502  10.557
16974W        W88503  41.056  39.897   0.226
16975W        W88504  40.346   8.345   2.212
16976W        W88505  17.181  36.663  13.345
16977W        W88506  24.501   0.933   2.353
16978W        W88507  15.188  10.614  13.890
16979W        W88508  22.280  36.990  11.602
16980W        W88509  28.488  36.892   3.174
16981W        W88510  30.434  17.585  11.626
16982W        W88511  44.443  19.032   0.201
16983W        W88512  23.007  29.088  13.157
16984W        W88513  27.693  23.812   2.824
16985W        W88514  10.838  36.370  14.810
16986W        W88515  25.457  41.905   5.043
16987W        W88516  17.578  12.908  12.031
16988W        W88517  37.377  36.875   0.886
16989W        W88518   6.282  26.686  14.061
16990W        W88519   3.453  34.442   2.159
16991W        W88520   7.475  18.319  14.586
16992W        W88521  13.583  27.437   0.486
16993W        W88522  16.076   4.403  12.544
16994W        W88523  13.355  37.925  10.835
16995W        W88524  39.001  11.851  13.036
16996W        W88525  26.875  22.698   1.514
16997W        W88526  40.126  27.596   3.992
16998W        W88527  38.046   4.719  12.968
16999W        W88528   8.828  30.935  14.045
17000W        W88529  26.599  42.353  12.821
17001W        W88530  39.281  31.414   0.178
17002W        W88531  37.538  35.003  12.191
17003W        W88532  29.438  15.788  12.287
17004W        W88533  12.070  31.575  14.871
17005W        W88534  44.844  25.247   2.673
17006W        W88535  32.550  29.909   4.617
17007W        W88536  38.981  26.042   5.066
17008W        W88537  28.273  37.934  10.662
17009W        W88538  44.561  24.375  11.086
17010W        W88539   5.189  22.659   1.452
17011W        W88540   5.322  29.821  13.593
17012W        W88541  40.487  24.976  12.084
17013W        W88542  35.504  43.089  13.299
17014W        W88543  26.169  22.059  11.669
17015W        W88544  40.426  24.767  11.618
17016W        W88545  19.292   3.020   2.434
17017W        W88546  26.585   6.307   4.780
17018W        W88547  27.955  37.528   0.927
17019W        W88548   7.710  41.810  12.258
17020W        W88549  14.694   0.942   3.305
17021W        W88550  32.694  20.327  14.862
17022W        W88551   3.975  23.842  12.512
17023W        W88552  44.863  40.891   0.389
17024W        W88553  27.071  36.809  14.939
17025W        W88554  28.235  23.547  10.780
17026W        W88555   7.457  44.812  12.965
17027W        W88556  36.974  36.412   4.578
17028W        W88557  29.469  14.407  13.054
17029W        W88558  10.349  43.983  12.914
17030W        W88559  43.179  14.513  11.933
17031W        W88560  20.852  34.613   9.758
17032W        W88561   0.781  20.616   3.791
17033W        W88562  36.029  27.583  10.719
17034W        W88563  39.959  19.613  12.566
17035W        W88564   8.222  31.954   2.211
17036W        W88565  14.101  19.186   2.267
17037W        W88566   0.027  40.369  12.418
17038W        W88567   4.891  38.510   3.228
17039W        W88568  34.543  11.882   4.627
17040W        W88569   0.805  39.634   0.120
17041W        W88570  21.209  18.538   1.865
17042W        W88571   4.005  31.037   2.044
17043W        W88572  31.493  34.138  10.598
17044W        W88573  15.692   0.982  14.952
17045W        W88574   9.550  35.057   3.321
17046W        W88575  17.739  42.014   3.763
17047W        W88576   2.446  37.014  12.046
17048W        W88577  40.592   6.751   2.705
17049W        W88578  14.272  12.907   1.931
17050W        W88579  21.651  42.036   3.741
17051W        W88580   6.325  13.166  13.174
17052W        W88581  32.285   0.365   1.648
17053W        W88582   2.975  21.581  11.225
17054W        W88583  26.050  43.667   1.542
17055W        W88584   7.963  37.394  11.195
17056W        W88585  20.465  44.397  12.422
17057W        W88586  15.606  42.776   1.343
17058W        W88587  24.780  31.630   0.849
17059W        W88588   0.777  44.981   4.510
17060W        W88589  39.954   5.865  14.752
17061W        W88590  29.080   5.106   2.094
17062W        W88591   0.145  29.439   3.241
17063W        W88592   9.955   2.950  11.122
17064W        W88593  30.784  35.742   5.054
17065W        W88594  27.069   8.776  13.407
17066W        W88595  28.038   4.211   1.112
17067W        W88596  12.250  43.552  11.363
17068W        W88597  35.595  22.292  11.195
17069W        W88598   1.268  33.862  12.074
17070W        W88599  28.077  38.542  10.170
17071W        W88600  31.665  19.068   2.269
17072W        W88601  10.577  21.222  13.079
17073W        W88602   2.588  39.773   2.911
17074W        W88603  25.037  33.111   3.647
17075W        W88604  17.017  26.861  11.102
17076W        W88605  32.840  17.807   2.810
17077W        W88606  14.343  44.194   2.452
17078W        W88607  18.489  12.440  11.972
17079W        W88608   6.231  44.047   5.057
17080W        W88609  35.319  39.276   4.804
17081W        W88610  12.902  43.995  11.362
17082W        W88611   1.809   4.416   0.131
17083W        W88612  28.060  15.695  12.030
17084W        W88613  22.629  12.157   0.246
17085W        W88614  38.349  32.157  12.470
17086W        W88615  12.707  43.394  11.176
17087W        W88616  14.738  34.630  10.754
17088W        W88617   7.198  41.131   4.745
17089W        W88618  26.480  31.260  11.127
17090W        W88619   5.304   7.312  10.692
17091W        W88620  20.536  26.009   0.995
17092W        W88621  18.258   9.934   1.218
17093W        W88622  39.282  32.905   4.103
17094W        W88623  26.626  16.554   1.740
17095W        W88624   8.666  12.909   0.362
17096W        W88625  27.641  20.704  10.735
17097W        W88626  23.145  19.472  13.469
17098W        W88627  38.545   4.471  13.925
17099W        W88628   7.983  41.798  13.891
17100W        W88629  32.099  30.181  13.587
17101W        W88630  44.907  27.276   1.858
17102W        W88631  27.388  32.045   3.660
17103W        W88632  41.469  41.067   1.929
17104W        W88633  21.073  18.705  14.508
17105W        W88634  38.912   3.098  10.689
17106W        W88635  31.132  37.537   3.441
17107W        W88636   8.648  35.587  10.603
17108W        W88637   6.812  35.464  10.466
17109W        W88638  14.302  21.031  14.796
17110W        W88639   2.724  38.457   0.219
17111W        W88640  19.755  37.417   0.282
17112W        W88641  11.214  31.469  11.520
17113W        W88642   3.830  39.717   2.277
17114W        W88643  21.922   5.411   3.245
17115W        W88644   6.487  14.345   3.256
17116W        W88645  10.628   5.822  10.659
17117W        W88646  22.081   1.661   2.325
17118W        W88647  36.854  32.313   1.763
17119W        W88648  23.893   4.933   3.968
17120W        W88649  44.235  31.313   4.129
17121W        W88650  43.062  25.526   3.716
17122W        W88651  32.137  24.676  10.670
17123W        W88652  44.271  15.733   4.230
17124W        W88653  23.227   1.004  14.781
17125W        W88654  13.453  17.565  11.560
17126W        W88655  41.035  18.778   3.056
17127W        W88656  34.983   4.311  14.962
17128W        W88657   9.124   6.261   2.243
17129W        W88658  36.045   5.346   1.839
17130W        W88659  12.276  25.794   3.588
17131W        W88660   2.904  19.302   0.250
17132W        W88661  29.766  18.573   3.073
17133W        W88662  18.557  23.540  11.578
17134W        W88663  41.718  43.229  14.516
17135W        W88664  18.826  26.683   3.221
17136W        W88665  16.680  10.702  14.913
17137W        W88666  39.978  16.926  14.355
17138W        W88667  41.487  22.800   2.571
17139W        W88668  19.570  21.360   1.989
17140W        W88669  19.031  12.196  11.575
17141W        W88670  26.295  27.058   1.914
17142W        W88671  33.042  28.647  11.594
17143W        W88672  43.240   7.767  12.020
17144W        W88673  25.876  30.938  10.371
17145W        W88674  33.571  40.732  13.572
17146W        W88675  38.032  32.526   2.397
17147W        W88676  15.889  10.237  13.469
17148W        W88677  25.649  27.946  13.792
17149W        W88678   3.000  20.610   2.253
17150W        W88679   2.236  24.059  11.687
17151W        W88680  41.529  17.269   1.925
17152W        W88681   3.823  24.109   0.686
17153W        W88682  25.432   6.263   0.430
17154W        W88683  37.796  19.255  13.187
17155W        W88684   2.853  10.424  11.151
17156W        W88685  42.418  39.030   3.395
17157W        W88686  25.326  10.293   3.588
17158W        W88687  40.530  27.548   3.152
17159W        W88688  16.652  28.112   5.182
17160W        W88689  31.185  28.420  12.191
17161W        W88690  37.998  42.864   2.824
17162W        W88691  42.730  21.966   4.184
17163W        W88692  31.009  36.549  14.585
17164W        W88693  25.538  41.949  12.554
17165W        W88694   3.208   4.937  14.916
17166W        W88695  26.216  17.303  14.798
17167W        W88696  21.504  29.155  11.483
17168W        W88697  34.096  34.781   3.541
17169W        W88698   6.606   6.648  10.876
17170W        W88699  14.089  22.474   2.914
17171W        W88700  33.097  38.471   4.026
17172W        W88701  28.577  20.026   0.545
17173W        W88702  11.334  40.856   2.316
17174W        W88703  41.334   5.307   2.790
17175W        W88704  23.103  39.432   1.156
17176W        W88705  12.753  38.097   2.657
17177W        W88706  29.086  36.584   2.355
17178W        W88707  20.150   5.587   1.437
17179W        W88708   9.315  28.880   1.612
17180W        W88709  27.978  33.507  11.220
17181W        W88710  24.324   0.852  11.085
17182W        W88711  41.234  15.177  13.501
17183W        W88712  27.670  27.499   4.659
17184W        W88713  21.103  33.107  13.497
17185W        W88714   1.985  30.936   2.315
17186W        W88715  38.041  15.691   3.333
17187W        W88716   7.516  19.392   0.544
17188W        W88717  16.640  16.578  14.735
17189W        W88718   1.368  15.426  11.301
17190W        W88719  30.566  19.622  10.934
17191W        W88720   4.400  25.215  14.606
17192W        W88721  23.951  31.201   2.255
17193W        W88722  38.829   7.334  13.047
17194W        W88723   9.170  12.507   2.324
17195W        W88724  36.946   9.644  14.026
17196W        W88725   1.711  32.927  12.098
17197W        W88726  18.307  16.205  11.640
17198W        W88727  12.461  17.768  10.684
17199W        W88728   9.430   3.800   4.469
17200W        W88729  37.089  39.098   2.730
17201W        W88730  42.397  39.410  13.509
17202W        W88731  41.748  21.128   3.584
17203W        W88732  43.774  43.670  13.890
17204W        W88733  12.215  41.706   3.566
17205W        W88734  15.037  38.452   0.887
17206W        W88735   3.842  30.942   3.553
17207W        W88736  34.837  31.549   1.731
17208W        W88737   7.804  17.820  14.803
17209W        W88738  16.284  44.359   4.016
17210W        W88739  44.116  23.536  10.199
17211W        W88740  34.951  30.597   3.343
17212W        W88741  15.256  22.772   0.343
17213W        W88742  21.750  35.336  13.772
17214W        W88743  27.582  13.059  10.571
17215W        W88744  40.431  30.521   2.583
17216W        W88745  21.958  15.636  11.905
17217W        W88746   2.816  16.672   2.354
17218W        W88747  21.508  31.397  13.898
17219W        W88748  36.451  35.564  12.454
17220W        W88749  29.447  10.416  14.834
17221W        W88750   3.695  43.859  14.031
17222W        W88751   9.385  27.669  10.518
17223W        W88752  33.182  17.408   3.700
17224W        W88753  36.180  14.724  11.588
17225W        W88754   9.859  32.396  10.497
17226W        W88755  13.871   4.756   0.184
17227W        W88756  27.897  22.157  11.678
17228W        W88757  12.178  25.563   0.628
17229W        W88758  18.247  26.161  11.368
17230W        W88759  33.285  14.305  10.733
17231W        W88760  36.824  17.103   3.816
17232W        W88761  18.643  12.406  14.393
17233W        W88762  12.413  38.375   4.161
17234W        W88763   8.712  43.107  12.391
17235W        W88764  11.291  36.541   0.822
17236W        W88765   1.418  13.845  12.466
17237W        W88766   4.411  30.687  12.645
17238W        W88767  41.377  11.300   2.794
17239W        W88768  41.976   3.338   3.653
17240W        W88769  27.311  42.946   5.050
17241W        W88770  40.780  15.027   4.255
17242W        W88771  38.406  41.622   3.724
17243W        W88772  11.698  16.186   0.470
17244W        W88773   6.626   6.417   2.224
17245W        W88774  40.962   5.930   3.669
17246W        W88775  22.529  29.910   4.641
17247W        W88776   3.752  19.530  13.751
17248W        W88777   8.320  32.654  13.859
17249W        W88778  10.436   9.748  12.273
17250W        W88779  27.511  17.025   3.681
17251W        W88780  25.242  40.323  10.713
17252W        W88781  37.833  39.595  13.878
17253W        W88782   4.804  16.124  11.250
17254W        W88783  13.649  39.880   1.317
17255W        W88784   4.857  21.334  12.573
17256W        W88785  39.410  37.769   3.216
17257W        W88786  29.139  34.836   5.439
17258W        W88787  31.824  31.560  12.690
17259W        W88788  13.919   8.739   2.337
17260W        W88789  40.986  27.571   4.828
17261W        W88790   5.087  25.643   4.596
17262W        W88791  19.746   6.456   1.352
17263W        W88792  18.636  10.643   1.792
17264W        W88793  18.311  36.524  11.108
17265W        W88794  38.841  18.841  10.756
17266W        W88795  12.296  20.793   3.637
17267W        W88796  13.210  29.852   2.248
17268W        W88797  41.918  15.473   2.800
17269W        W88798  35.603  44.804  11.141
17270W        W88799  15.241  42.616   0.787
17271W        W88800  20.332  30.683   4.915
17272W        W88801   8.804  34.111  14.684
17273W        W88802  22.640   3.272  11.938
17274W        W88803  25.728  25.518   2.613
17275W        W88804  26.192  39.952  14.298
17276W        W88805  36.337  30.630   0.377
17277W        W88806  17.566  27.436  10.202
17278W        W88807  13.208   8.938  11.859
17279W        W88808  29.595  22.108  14.285
17280W        W88809   1.077  26.129  11.100
17281W        W88810   2.503   3.220  11.006
17282W        W88811  13.666  34.606   1.294
17283W        W88812  19.164  10.609   4.332
17284W        W88813  12.889  43.809   4.361
17285W        W88814  44.977  25.198   0.511
17286W        W88815  23.618  36.003   1.618
17287W        W88816  37.078  44.055  12.982
17288W        W88817   2.828  34.910  10.199
17289W        W88818  37.421  19.502   3.229
17290W        W88819  29.717  38.809   3.357
17291W        W88820  42.799   6.279  10.652
17292W        W88821  18.295   4.618   2.801
17293W        W88822  39.938  26.271   4.054
17294W        W88823  44.519  15.832  14.245
17295W        W88824  35.885  17.510  13.722
17296W        W88825  35.650   0.548   1.422
17297W        W88826  43.072   2.762   1.344
17298W        W88827  16.994  26.089   0.725
17299W        W88828  21.567  43.301   4.095
17300W        W88829  15.613  12.868   1.059
17301W        W88830  19.472  41.725   0.676
17302W        W88831  16.278  30.431   2.227
17303W        W88832  17.247  20.663   3.545
17304W        W88833   4.292   4.696  10.807
17305W        W88834   3.341  42.868  13.925
17306W        W88835  44.819   9.735   4.076
17307W        W88836  25.844   8.233   2.337
17308W        W88837   2.994  18.866  14.987
17309W        W88838  39.285  26.964  11.114
17310W        W88839   8.473  44.095  10.314
17311W        W88840   0.239  41.680   3.324
17312W        W88841  15.291  15.441  12.333
17313W        W88842  39.099  37.525   2.787
17314W        W88843   8.718  18.162  13.835
17315W        W88844  14.567   8.091   0.733
17316W        W88845  34.527  28.627  14.370
17317W        W88846  32.418   5.942   0.467
17318W        W88847   8.903   8.704  13.952
17319W        W88848  39.080  33.071   1.688
17320W        W88849  32.542  26.234  14.379
17321W        W88850  35.856  21.605   3.074
17322W        W88851  27.932  14.716  14.968
17323W        W88852  16.226   9.362   1.551
17324W        W88853  15.032   1.495  14.351
17325W        W88854  37.404  21.284   1.360
17326W        W88855  38.919  26.043  12.012
17327W        W88856  30.353  40.375   4.503
17328W        W88857  21.124  17.654  14.942
17329W        W88858  28.425  22.595  14.740
17330W        W88859  23.029  24.528   0.964
17331W        W88860  23.100   1.190   1.060
17332W        W88861  37.081  30.428   1.334
17333W        W88862  14.783  28.512   0.295
17334W        W88863  25.640   0.411   4.917
17335W        W88864  11.667  17.313   1.397
17336W        W88865  40.772  42.294   3.220
17337W        W88866  31.612   6.977  10.655
17338W        W88867  35.679  31.526  14.333
17339W        W88868  39.040  34.972   0.846
17340W        W88869  30.016  33.425  11.952
17341W        W88870   0.399  19.782  13.456
17342W        W88871  26.481  35.031   2.736
17343W        W88872  44.321  20.442   2.754
17344W        W88873  30.653   6.938   3.214
17345W        W88874  16.190  19.903   3.709
17346W        W88875  15.468  22.905   2.611
17347W        W88876  33.119  44.321   1.645
17348W        W88877   1.176  17.574  10.421
17349W        W88878  29.555  41.836   0.638
17350W        W88879  28.896  31.041   4.585
17351W        W88880   9.707   5.517   4.115
17352W        W88881   1.615  22.525  10.625
17353W        W88882  38.732  12.286   2.670
17354W        W88883  29.193   0.128  14.255
17355W        W88884  28.592   8.868   0.515
17356W        W88885  33.657  36.992   0.514
17357W        W88886  11.401  32.698  14.926
17358W        W88887  14.135  22.985   1.332
17359W        W88888  15.794  23.689   1.553
17360W        W88889  24.366  35.372  14.353
17361W        W88890   6.452  35.841   4.450
17362W        W88891  27.316  11.093   0.970
17363W        W88892  19.740  11.702  11.926
17364W        W88893   6.958  34.877   3.113
17365W        W88894  27.203  16.732  10.995
17366W        W88895  35.766   8.632   1.431
17367W        W88896  23.778  17.449   3.654
17368W        W88897  39.248  31.371   4.501
17369W        W88898  25.078  10.956   1.009
17370W        W88899   6.664   0.913   2.332
17371W        W88900  34.537  34.802  11.404
17372W        W88901  42.750  13.239   3.380
17373W        W88902  29.484   5.254  13.954
17374W        W88903  35.113  36.543   1.410
17375W        W88904  44.155   3.479  12.837
17376W        W88905   7.623   5.890   0.670
17377W        W88906  18.478  22.172   0.340
17378W        W88907  15.177   1.752  14.765
17379W        W88908  14.988  39.910   2.934
17380W        W88909  33.150   4.940  11.486
17381W        W88910  14.127  14.651   1.236
17382W        W88911  29.460   7.139   9.746
17383W        W88912   6.911  38.905   2.704
17384W        W88913  31.975  41.577   4.823
17385W        W88914  27.955  16.646  13.024
17386W        W88915   4.301  38.412   2.903
17387W        W88916  36.619   3.842  10.714
17388W        W88917  19.675  25.406  10.005
17389W        W88918  10.331  16.788  12.336
17390W        W88919  41.780   3.340  11.180
17391W        W88920  40.329  27.147  11.174
17392W        W88921  38.146   4.504  12.508
17393W        W88922  39.997  12.818   4.512
17394W        W88923   0.582  24.508  14.032
17395W        W88924   6.843  39.413   0.454
17396W        W88925  12.067  38.912   2.875
17397W        W88926  23.149  22.068  11.489
17398W        W88927  29.542  42.274  11.013
17399W        W88928  16.622  27.571  11.177
17400W        W88929  29.135  44.397  11.747
17401W        W88930  33.091  24.467   4.497
17402W        W88931   4.524   7.775   2.008
17403W        W88932  39.089  20.288   1.329
17404W        W88933  33.723  36.940  13.445
17405W        W88934  29.016  34.494   2.693
17406W        W88935  40.941  20.706   1.408
17407W        W88936  14.645  21.474  10.853
17408W        W88937  34.737  34.067   2.935
17409W        W88938  16.593  39.491  10.592
17410W        W88939  25.941   6.247   0.019
17411W        W88940  24.658   3.197   2.128
17412W        W88941  20.082  30.995   4.333
17413W        W88942  40.565  23.206   3.325
17414W        W88943  40.852  43.392   4.797
17415W        W88944  41.971  12.504   3.567
17416W        W88945   3.856  20.638   3.738
17417W        W88946  22.287  28.018   1.777
17418W        W88947  11.189  32.031   4.475
17419W        W88948  12.241   1.324   0.800
17420W        W88949  16.225  43.261   0.160
17421W        W88950  39.848  22.222  14.520
17422W        W88951  11.282  35.490  11.496
17423W        W88952  35.630  39.694   2.437
17424W        W88953  36.092  23.189  11.451
17425W        W88954  27.147  28.367   4.696
17426W        W88955   2.536  18.256   3.784
17427W        W88956  36.769  17.130  11.485
17428W        W88957  16.168  35.586   1.386
17429W        W88958  15.607  26.523   4.023
17430W        W88959  23.484  12.409  13.915
17431W        W88960  15.592  21.791  14.872
17432W        W88961   7.868  11.169   2.900
17433W        W88962  31.429  26.530  11.225
17434W        W88963  28.696   5.851  12.578
17435W        W88964   3.936  31.593  13.575
17436W        W88965  27.102   2.402  14.014
17437W        W88966   0.019  21.721   4.776
17438W        W88967  12.425   1.092  11.703
17439W        W88968  29.149  28.134   1.749
17440W        W88969  42.358  44.328   3.568
17441W        W88970  17.350   0.412   1.266
17442W        W88971  31.564  32.240  11.325
17443W        W88972  33.451   9.799   3.850
17444W        W88973   8.265  16.862   0.530
17445W        W88974  28.969  13.855   0.405
17446W        W88975  13.790  27.643   3.830
17447W        W88976   9.831   5.428   2.728
17448W        W88977  27.048  17.189   0.724
17449W        W88978  22.710  33.430   3.315
17450W        W88979  30.458  19.560  10.427
17451W        W88980  36.204  31.310  10.844
17452W        W88981  33.347  20.811   0.247
17453W        W88982  24.703   8.008   1.817
17454W        W88983  37.969  32.285  14.315
17455W        W88984  34.040  12.322  10.856
17456W        W88985  21.715  36.029   0.664
17457W        W88986   3.658  37.017  12.572
17458W        W88987  13.835  14.568   0.815
17459W        W88988  33.154  18.861  12.976
17460W        W88989  33.450  15.974  12.703
17461W        W88990  20.669  36.210  14.859
17462W        W88991  28.042   3.243  12.062
17463W        W88992  16.889  42.933  12.039
17464W        W88993  24.089  13.209  13.940
17465W        W88994  20.852  29.142  12.978
17466W        W88995  30.997  42.847   3.239
17467W        W88996  19.479  36.772  14.426
17468W        W88997  40.781  27.434  13.955
17469W        W88998  43.818  44.828  12.677
17470W        W88999  37.879  24.128  10.780
17471W        W89000  23.402  13.079   1.485
17472W        W89001   3.817   9.782  12.586
17473W        W89002   2.709  19.019  12.516
17474W        W89003  17.834   5.194   4.187
17475W        W89004  40.748  31.082  14.470
17476W        W89005  13.280  37.321  12.983
17477W        W89006  26.083  36.908  12.089
17478W        W89007  34.145  36.176   3.468
17479W        W89008   3.361  43.498   0.906
17480W        W89009  41.921  15.575   1.820
17481W        W89010  40.709  22.875   4.115
17482W        W89011  10.784  25.800  12.523
17483W        W89012  33.481  35.908   4.567
17484W        W89013  43.775  24.477  11.497
17485W        W89014  25.003  34.304   0.187
17486W        W89015  13.980  14.096  12.410
17487W        W89016  22.743  39.702   3.298
17488W        W89017  22.382   0.887  12.331
17489W        W89018  35.032  13.106  11.304
17490W        W89019   8.333   7.503   4.202
17491W        W89020   6.739   7.806  14.685
17492W        W89021  16.342  35.934  14.689
17493W        W89022  34.485  33.094  10.778
17494W        W89023   0.573  19.108   2.357
17495W        W89024  23.194  26.113  12.046
17496W        W89025  26.131  42.415   3.214
17497W        W89026  11.443  38.927  13.442
17498W        W89027  29.716   0.774  14.367
17499W        W89028  38.501  30.553  14.551
17500W        W89029  37.095  27.674  13.534
17501W        W89030  27.069   4.747  14.835
17502W        W89031   8.749  25.645  14.146
17503W        W89032  24.148   6.825  13.899
17504W        W89033  13.369   2.000   3.305
17505W        W89034   7.162  29.005   1.034
17506W        W89035  43.725  20.978   1.779
17507W        W89036  12.134  43.513  12.951
17508W        W89037  18.083  12.400  13.948
17509W        W89038   9.598  33.492   3.749
17510W        W89039  31.520  13.310  11.591
17511W        W89040  34.221   2.787  12.591
17512W        W89041   0.595  15.590  14.886
17513W        W89042  30.717  28.008   2.251
17514W        W89043  25.063  17.790  11.098
17515W        W89044  19.298  41.912   4.616
17516W        W89045  42.844   4.785   1.127
17517W        W89046  35.440  29.429  14.449
17518W        W89047  42.889  30.811   1.755
17519W        W89048   3.919  14.874   0.377
17520W        W89049  27.286  18.210  11.500
17521W        W89050  35.557  24.477   0.144
17522W        W89051  42.281  13.930  13.075
17523W        W89052  40.740  28.992   0.937
17524W        W89053  42.010  32.156  14.851
17525W        W89054  38.540  40.261  14.012
17526W        W89055  33.541   3.306  14.143
17527W        W89056  40.855  30.193   3.073
17528W        W89057  18.689  39.223  11.637
17529W        W89058   1.250  36.023  13.094
17530W        W89059  37.019  11.245   0.514
17531W        W89060   1.786  39.004  13.989
17532W        W89061   1.164  26.907   1.340
17533W        W89062  16.685  29.155  13.825
17534W        W89063  40.904  33.597  14.486
17535W        W89064   3.874  42.932  11.301
17536W        W89065  33.898  34.314  12.499
17537W        W89066  12.817  34.611   0.687
17538W        W89067   9.653  15.656   3.380
17539W        W89068  11.810   4.174  10.665
17540W        W89069   2.201  13.680   3.160
17541W        W89070  28.949  26.616  14.063
17542W        W89071   8.439  23.921   0.799
17543W        W89072   5.930   2.840   1.317
17544W        W89073  33.661   1.656  12.018
17545W        W89074  28.908   8.192   1.907
17546W        W89075  28.668  10.647   2.747
17547W        W89076   4.656  43.508  11.720
17548W        W89077  31.011   0.931  11.508
17549W        W89078  12.889  31.662   0.255
17550W        W89079  29.511  43.262   0.349
17551W        W89080   2.832  42.816  10.544
17552W        W89081   4.458  16.306   2.239
17553W        W89082  35.383  44.812  11.615
17554W        W89083   7.631   0.005   3.151
17555W        W89084  34.071  18.746  12.121
17556W        W89085  43.279  38.014  13.613
17557W        W89086  28.542  37.760  13.337
17558W        W89087  35.135   3.714  12.944
17559W        W89088  36.722  26.658  12.133
17560W        W89089   2.866   6.121   1.800
17561W        W89090  11.817  34.463  10.560
17562W        W89091  33.444  34.476   0.038
17563W        W89092  19.995  32.584   4.275
17564W        W89093   1.968  31.679  14.831
17565W        W89094   0.498  25.645   0.090
17566W        W89095  43.910  18.734  14.367
17567W        W89096  37.501  35.876  12.050
17568W        W89097  39.164  27.658   3.155
17569W        W89098  16.834  10.398   0.335
17570W        W89099  44.500  22.752  13.646
17571W        W89100   4.683  15.619   1.799
17572W        W89101  41.555  32.121   2.223
17573W        W89102   5.880  40.500   0.208
17574W        W89103  38.936  15.361  14.820
17575W        W89104  41.976   8.312   0.487
17576W        W89105   0.871   2.277   2.674
17577W        W89106  41.647   2.469   2.854
17578W        W89107  42.767  36.591  12.430
17579W        W89108  26.885   3.686   1.286
17580W        W89109  41.968  15.784   1.310
17581W        W89110  19.233  26.857  14.371
17582W        W89111   4.239   8.973  10.756
17583W        W89112  41.949   5.028  12.767
17584W        W89113  18.031  24.522   1.289
17585W        W89114  36.116  31.805   3.681
17586W        W89115   6.688  27.722  10.329
17587W        W89116  32.422  24.669  14.805
17588W        W89117  10.446  12.124  11.985
17589W        W89118  29.113   9.087  11.008
17590W        W89119  14.296   7.604  12.598
17591W        W89120  34.414  37.020  12.827
17592W        W89121  39.799   0.757  14.965
17593W        W89122  29.538  32.942  11.858
17594W        W89123  17.310  44.420  10.714
17595W        W89124  28.911  13.082  10.626
17596W        W89125  43.019  27.717   1.486
17597W        W89126  29.127   5.667  10.615
17598W        W89127  26.523   2.281  13.168
17599W        W89128  44.347   1.022  12.074
17600W        W89129  26.576  20.607  10.674
17601W        W89130   8.482  21.551  12.099
17602W        W89131  30.898   5.185   3.879
17603W        W89132  34.525  41.001   1.013
17604W        W89133  27.218  41.518  13.004
17605W        W89134  15.684  40.593   0.745
17606W        W89135  16.300   1.391   4.523
17607W        W89136  31.078  26.582   1.316
17608W        W89137  38.221   4.962   0.649
17609W        W89138   8.006  42.312  13.847
17610W        W89139  34.244  35.489   4.643
17611W        W89140  38.863   8.599   0.761
17612W        W89141  39.514   5.844   1.090
17613W        W89142  34.517   2.367  12.978
17614W        W89143  18.552  19.601  11.856
17615W        W89144  22.410  21.069  13.381
17616W        W89145   3.308  39.811  12.368
17617W        W89146  31.426  27.088  14.802
17618W        W89147  30.834  30.458  13.453
17619W        W89148  27.645  31.549   3.732
17620W        W89149  10.414  44.730  14.506
17621W        W89150  22.267  20.045  12.613
17622W        W89151  18.713  30.702   9.903
17623W        W89152  38.733  35.186   5.109
17624W        W89153  32.921  15.024  13.439
17625W        W89154  39.855  28.657   3.733
17626W        W89155   7.970  30.869  13.825
17627W        W89156   3.658   9.863  13.469
17628W        W89157  25.772  25.706   0.484
17629W        W89158  23.618  43.289   1.879
17630W        W89159   4.350  36.038  11.191
17631W        W89160   2.226  24.028   3.587
17632W        W89161  35.888  41.459   3.711
17633W        W89162  44.691  26.737  11.056
17634W        W89163  41.081   6.547  13.017
17635W        W89164  20.701  25.940  14.838
17636W        W89165  13.135   5.935  13.055
17637W        W89166   7.226  35.377  12.880
17638W        W89167  18.245   9.582   0.766
17639W        W89168  40.298  13.016   0.421
17640W        W89169  19.726  17.530  11.154
17641W        W89170   6.905  28.957   2.861
17642W        W89171  38.088  21.155   1.730
17643W        W89172   4.250  10.575  14.961
17644W        W89173  26.093   4.860   4.402
17645W        W89174  15.157  33.205  14.742
17646W        W89175  35.576   0.277  14.360
17647W        W89176  44.845  30.699  14.273
17648W        W89177  32.441  21.728   3.424
17649W        W89178   7.818  36.134   2.135
17650W        W89179   3.671  23.686   0.916
17651W        W89180  13.792   9.648  13.165
17652W        W89181  10.999   0.530   1.821
17653W        W89182  40.233  21.235   3.639
17654W        W89183   1.215  34.778   0.365
17655W        W89184   4.227  11.269  12.085
17656W        W89185  17.286   4.668  10.319
17657W        W89186   4.499  44.503  13.967
17658W        W89187  26.112  44.032  12.577
17659W        W89188  33.869  35.525  14.303
17660W        W89189   8.796  26.710   3.271
17661W        W89190   0.737  30.337  13.328
17662W        W89191  11.371  43.529   3.145
17663W        W89192  12.254  13.854  14.307
17664W        W89193  28.980  15.398   4.073
17665W        W89194  35.359  31.120   4.109
17666W        W89195  42.408  38.869  13.465
17667W        W89196  38.898  17.731  14.389
17668W        W89197  28.077  32.894  12.027
17669W        W89198  28.513  12.681  12.052
17670W        W89199  39.990  26.460  13.674
17671W        W89200   0.684  19.162  13.830
17672W        W89201   1.824   4.818   3.278
17673W        W89202  10.206  16.486  10.420
17674W        W89203  12.484  40.518  13.980
17675W        W89204  17.532   4.312  11.212
17676W        W89205  29.960  22.082  12.812
17677W        W89206  23.131  10.255  14.762
17678W        W89207  33.776  24.641  11.882
17679W        W89208  18.784   2.886  11.933
17680W        W89209  44.382  13.898   0.811
17681W        W89210  10.321  12.893   0.173
17682W        W89211  38.253   7.423  12.215
17683W        W89212  43.387  32.589  10.872
17684W        W89213  15.543  15.917   1.639
17685W        W89214  43.577  19.127   1.303
17686W        W89215   8.807  33.962   2.211
17687W        W89216  12.096  35.430  12.862
17688W        W89217  44.772  42.509   3.705
17689W        W89218  15.164  33.120  13.865
17690W        W89219  27.329  18.833   1.897
17691W        W89220   5.752   7.638   3.263
17692W        W89221   4.375   1.364   1.895
17693W        W89222  43.191  42.747   0.319
17694W        W89223   5.250  12.329  14.792
17695W        W89224  26.877  17.016  11.970
17696W        W89225  12.848  19.495  14.836
17697W        W89226  41.472  17.569   1.480
17698W        W89227  36.062  39.300  12.022
17699W        W89228  21.187  15.114   1.978
17700W        W89229  25.113  13.905   3.841
17701W        W89230  20.970  17.475   1.866
17702W        W89231  15.729  42.472   3.585
17703W        W89232  11.166  42.160   2.052
17704W        W89233  24.111  11.282   4.406
17705W        W89234  40.888  11.897  14.493
17706W        W89235  27.767  29.545   0.852
17707W        W89236  40.714  38.819  12.127
17708W        W89237  35.497  33.173  13.924
17709W        W89238  28.150  33.121   1.390
17710W        W89239  40.758  33.026  11.080
17711W        W89240  43.773   5.431  11.148
17712W        W89241  10.198  27.859   5.214
17713W        W89242   0.826  15.266   3.797
17714W        W89243   1.979   6.230   2.700
17715W        W89244   8.908   9.015   2.867
17716W        W89245  39.872  36.473  10.900
17717W        W89246  40.053  39.503  14.697
17718W        W89247  26.088  24.358  14.956
17719W        W89248   0.881  37.354  12.580
17720W        W89249  43.315  17.264  13.353
17721W        W89250  27.077  29.627   0.029
17722W        W89251  22.198  40.267  11.596
17723W        W89252  38.500  38.892   0.760
17724W        W89253  28.990   4.000   1.956
17725W        W89254  34.560   1.928   1.755
17726W        W89255   5.891  20.584  12.794
17727W        W89256  29.700  24.669   0.489
17728W        W89257  35.251  19.673  13.822
17729W        W89258  16.526  33.153   4.992
17730W        W89259  30.179   9.319  14.256
17731W        W89260  22.032  28.594  14.016
17732W        W89261  27.002  35.772   0.049
17733W        W89262  27.256   1.010  13.677
17734W        W89263  27.473  26.270  14.959
17735W        W89264  30.339  12.280  11.048
17736W        W89265  18.557  35.597  12.926
17737W        W89266  35.921  38.215   4.059
17738W        W89267  44.926  24.617  14.744
17739W        W89268  12.330  13.057  10.547
17740W        W89269  29.692  17.649  14.436
17741W        W89270   1.671   4.450  12.859
17742W        W89271  16.286  19.057   1.893
17743W        W89272  12.356  21.698   3.622
17744W        W89273  42.258   0.942   4.416
17745W        W89274  26.729  43.688   4.647
17746W        W89275  13.861  41.487  10.516
17747W        W89276  24.992  14.046  12.214
17748W        W89277  42.644   8.348  13.760
17749W        W89278  28.723  39.750   4.918
17750W        W89279  35.425  42.326   3.642
17751W        W89280  22.153  18.717  13.548
17752W        W89281  19.406  30.553  13.538
17753W        W89282  23.159  43.783  10.848
17754W        W89283   9.924  43.333   0.722
17755W        W89284  18.787  31.143  10.465
17756W        W89285  32.171  29.084  11.620
17757W        W89286  30.128  13.732   4.223
17758W        W89287  14.703  11.150   1.979
17759W        W89288  37.788  22.300   0.291
17760W        W89289   4.493  17.438   4.646
17761W        W89290  34.759  28.557   3.804
17762W        W89291  12.900  32.961   3.572
17763W        W89292  39.544  19.653   2.666
17764W        W89293  15.480  40.721   1.210
17765W        W89294  10.692   3.889  13.971
17766W        W89295   3.210  28.049   0.661
17767W        W89296  37.276   4.282   2.217
17768W        W89297  38.992  33.866   2.817
17769W        W89298  32.157   0.280   0.597
17770W        W89299  41.283  23.207   0.240
17771W        W89300  27.358  14.121  11.599
17772W        W89301  19.437  37.552   4.094
17773W        W89302  13.557  25.614  10.966
17774W        W89303  37.635  39.235   2.789
17775W        W89304  35.168  24.508   2.349
17776W        W89305  11.357  22.747   2.186
17777W        W89306  31.588   8.033  14.869
17778W        W89307  25.721  39.879   3.579
17779W        W89308  27.679  44.056  11.917
17780W        W89309  14.291  32.469   4.022
17781W        W89310  38.944  21.585  12.599
17782W        W89311  17.224  20.757  14.904
17783W        W89312  24.407  12.870  13.044
17784W        W89313  32.023   3.147   1.885
17785W        W89314  29.535  21.526   4.746
17786W        W89315  15.116  41.955   3.413
17787W        W89316  36.611   4.183   1.221
17788W        W89317  23.768  28.553   1.032
17789W        W89318  26.588  25.209  11.046
17790W        W89319  14.708  20.944  10.850
17791W        W89320  41.529  24.579  12.135
17792W        W89321  20.533  28.773  13.982
17793W        W89322  26.011   5.169   3.213
17794W        W89323  29.837  32.414  10.410
17795W        W89324  30.043  35.884   3.297
17796W        W89325  37.312  34.433   0.327
17797W        W89326   1.439  11.970  12.142
17798W        W89327  30.354  34.408  12.057
17799W        W89328   3.706   1.691  13.767
17800W        W89329  44.088  28.854  13.700
17801W        W89330  26.255  41.747   1.839
17802W        W89331  28.484  26.393  14.039
17803W        W89332  16.880  37.960  13.094
17804W        W89333  44.392   7.299  12.718
17805W        W89334  19.522  23.564   0.031
17806W        W89335  32.426  35.911   4.629
17807W        W89336  34.353  35.377  14.439
17808W        W89337  39.093  16.494  12.549
17809W        W89338  29.928  29.614  14.722
17810W        W89339  36.885  18.024  14.741
17811W        W89340  35.474  25.777  11.042
17812W        W89341  14.484  27.144  13.614
17813W        W89342  43.480  41.198  10.452
17814W        W89343  21.691  38.869  12.405
17815W        W89344  40.888   8.128   3.072
17816W        W89345  35.645  27.553  10.372
17817W        W89346   7.175  36.482  12.235
17818W        W89347  39.884  33.547   1.814
17819W        W89348  30.110  33.182  14.273
17820W        W89349  17.766  11.265  14.498
17821W        W89350   7.274  31.138   1.934
17822W        W89351  13.689  44.460  14.765
17823W        W89352  13.057  11.081   4.085
17824W        W89353  11.905  24.247  13.781
17825W        W89354  38.278   6.925   0.850
17826W        W89355  37.933  26.238  12.919
17827W        W89356  23.881  43.751   0.653
17828W        W89357  32.409   5.310   3.668
17829W        W89358  42.870  36.916   3.694
17830W        W89359  40.280  12.875  12.234
17831W        W89360  32.176  25.070   2.785
17832W        W89361   0.994  12.190  12.293
17833W        W89362  27.726  10.370  10.060
17834W        W89363  29.027  40.740  13.716
17835W        W89364  17.072   0.845  14.007
17836W        W89365  36.001   0.697   4.090
17837W        W89366  27.464  18.484  12.995
17838W        W89367   9.867   5.097   0.367
17839W        W89368  27.437  44.372  14.487
17840W        W89369  24.987  22.144  12.639
17841W        W89370   0.972  39.461   2.791
17842W        W89371  42.287   8.327   1.378
17843W        W89372   6.264  44.400   4.667
17844W        W89373  20.583  36.062  14.190
17845W        W89374  43.113  18.431  10.321
17846W        W89375  25.962  24.859  14.001
17847W        W89376  21.598  32.340   0.920
17848W        W89377  25.223  34.901   5.087
17849W        W89378   3.741  10.559  14.824
17850W        W89379  44.812  35.288  13.788
17851W        W89380  10.648  17.861  12.173
17852W        W89381   2.211  19.709  11.618
17853W        W89382  30.648  21.081   3.609
17854W        W89383  11.081  33.041  11.496
17855W        W89384  41.571  33.570  12.804
17856W        W89385   0.070  24.179   4.881
17857W        W89386  21.983   1.008   4.266
17858W        W89387  44.991  35.678   1.608
17859W        W89388  40.762  42.352  13.242
17860W        W89389  11.645  18.669  14.703
17861W        W89390  37.084   1.781  14.336
17862W        W89391  33.402  31.017  11.201
17863W        W89392   3.790  26.947  10.671
17864W        W89393  32.866  17.147  13.784
17865W        W89394  38.206   9.255  10.848
17866W        W89395  27.897  31.089   3.732
17867W        W89396  33.821  36.315   4.458
17868W        W89397  12.279   3.039   3.887
17869W        W89398   8.396  16.589   3.802
17870W        W89399  21.215  29.472  12.919
17871W        W89400  15.083  23.260   1.249
17872W        W89401  18.493  38.159  10.740
17873W        W89402  42.516  38.264   2.179
17874W        W89403   2.202  28.459  13.390
17875W        W89404  18.155  33.630   0.665
17876W        W89405   8.074  14.591   0.579
17877W        W89406   6.417  23.761   0.119
17878W        W89407  33.454  17.043   0.386
17879W        W89408  25.083  27.704  12.474
17880W        W89409  42.262  30.441  13.864
17881W        W89410  39.877   1.660   4.672
17882W        W89411  29.468  31.162  10.436
17883W        W89412  11.819   4.858   1.192
17884W        W89413  19.099  28.416   3.140
17885W        W89414  38.511   3.933   1.401
17886W        W89415  41.495  24.361   1.321
17887W        W89416  22.768  34.781  11.579
17888W        W89417  16.611  18.422   5.037
17889W        W89418  11.235  27.066  13.188
17890W        W89419   6.785  21.553  10.422
17891W        W89420  26.039  21.084   2.866
17892W        W89421   8.150  38.114   2.792
17893W        W89422  10.931  12.736   3.267
17894W        W89423  41.516  20.620  13.540
17895W        W89424  14.559   0.283  14.479
17896W        W89425  42.869  23.615  12.833
17897W        W89426  24.149  20.032  12.678
17898W        W89427  10.348  26.546  10.333
17899W        W89428   9.159  44.354  12.854
17900W        W89429  20.189  12.647  14.327
17901W        W89430  38.400   3.998  13.839
17902W        W89431  36.915  26.958   4.636
17903W        W89432  12.168  39.352   2.610
17904W        W89433  22.530  11.462  13.524
17905W        W89434  15.618   4.830  11.145
17906W        W89435  23.627   0.498  14.001
17907W        W89436  29.423  26.562  12.326
17908W        W89437  32.469  44.988   2.784
17909W        W89438   3.915  21.058   2.715
17910W        W89439  11.427  25.736  14.377
17911W        W89440  31.453  23.590   0.325
17912W        W89441  43.088   3.662  14.803
17913W        W89442  43.517  13.079  10.815
17914W        W89443  15.266  26.147   2.385
17915W        W89444  11.834  19.665   4.551
17916W        W89445  10.856   6.647   3.424
17917W        W89446  20.426   2.042   0.752
17918W        W89447  16.964   6.423   3.658
17919W        W89448  37.936  18.274   3.795
17920W        W89449  39.874  24.700  13.007
17921W        W89450  18.769   2.338   1.331
17922W        W89451  29.888  26.815   4.103
17923W        W89452  24.246  16.120   3.541
17924W        W89453   8.903  18.902   9.829
17925W        W89454  27.071  28.104  13.979
17926W        W89455  41.470   6.147   0.338
17927W        W89456   0.471  44.178  11.153
17928W        W89457  12.207   5.354   4.840
17929W        W89458  22.089  38.219   3.613
17930W        W89459  32.165  14.813  10.956
17931W        W89460  32.154  40.440  12.441
17932W        W89461   2.397   0.502  10.429
17933W        W89462  26.372   9.203  13.323
17934W        W89463  33.639   9.607  13.475
17935W        W89464  37.176   1.180   1.902
17936W        W89465   6.888  15.979  13.920
17937W        W89466   2.913  33.172   1.351
17938W        W89467  30.445  12.869  13.039
17939W        W89468  33.012  26.509  12.192
17940W        W89469  27.061  15.692   2.659
17941W        W89470   2.235   0.714   4.092
17942W        W89471  42.251  29.183  12.857
17943W        W89472  36.079  25.475   1.083
17944W        W89473   9.629  22.181  11.011
17945W        W89474   6.305   6.825   2.960
17946W        W89475  20.167   5.807  12.916
17947W        W89476  15.561  36.414  12.658
17948W        W89477  34.365  37.374   3.257
17949W        W89478  26.206   3.338   4.753
17950W        W89479  18.638  36.073   3.771
17951W        W89480  44.763  20.424  13.245
17952W        W89481  26.605  16.262   4.107
17953W        W89482   5.477   5.403   4.518
17954W        W89483  38.411  34.383  14.582
17955W        W89484  15.632  27.329  11.090
17956W        W89485  41.525  16.175  13.285
17957W        W89486  23.025   6.418   0.845
17958W        W89487  11.333  17.020   1.979
17959W        W89488  42.573  38.354  13.781
17960W        W89489  39.797  29.945  10.969
17961W        W89490  29.414   1.349   3.381
17962W        W89491  14.192  24.422  14.938
17963W        W89492  26.591  40.704  11.927
17964W        W89493  24.768  22.787   2.759
17965W        W89494  30.024  30.406  14.077
17966W        W89495  26.804  26.968   1.855
17967W        W89496  29.668  27.973   0.808
17968W        W89497   3.136  32.484  14.910
17969W        W89498  17.026   5.846   0.761
17970W        W89499  26.201  24.263  13.541
17971W        W89500   5.477  34.415   0.303
17972W        W89501  21.737   3.169  12.087
17973W        W89502  31.948  41.818  12.904
17974W        W89503  37.979  16.280   1.661
17975W        W89504  20.242  11.420   3.478
17976W        W89505  16.314  25.506  13.335
17977W        W89506   1.252   2.448  14.363
17978W        W89507  10.977   1.199   5.538
17979W        W89508  39.588  31.703   2.728
17980W        W89509  11.678  12.354   3.882
17981W        W89510  31.108  20.559  14.210
17982W        W89511  34.170  21.554  11.981
17983W        W89512  22.627  12.224  12.963
17984W        W89513  30.678  11.735   3.398
17985W        W89514  40.354  35.205  11.546
17986W        W89515  18.009  11.789   1.081
17987W        W89516  41.734   3.629  14.817
17988W        W89517  22.923  20.685  11.564
17989W        W89518  28.489  44.012   2.336
17990W        W89519  35.110  31.646  13.537
17991W        W89520   3.306  26.483   2.344
17992W        W89521   0.067   8.733   4.191
17993W        W89522  32.955   5.983  12.568
17994W        W89523  19.026   4.268   2.843
17995W        W89524  27.893  22.693  10.414
17996W        W89525  31.303  41.511   3.905
17997W        W89526  20.236  22.015   3.220
17998W        W89527  20.724  14.539  11.186
17999W        W89528  27.462   2.996  12.601
18000W        W89529  40.350  19.548   3.349
18001W        W89530  26.242  42.264  13.296
18002W        W89531  26.864  25.972   0.399
18003W        W89532  24.701  30.440  12.139
18004W        W89533  29.540  10.351   3.789
18005W        W89534  21.371  15.636   0.025
18006W        W89535  27.112   6.917   0.380
18007W        W89536   5.984  31.343   4.521
18008W        W89537  32.512  18.767  14.838
18009W        W89538  25.496  19.750   2.750
18010W        W89539  17.471  28.929  14.410
18011W        W89540  31.611  26.674   2.746
18012W        W89541   9.778  39.251   0.900
18013W        W89542  14.487  36.286   3.595
18014W        W89543  12.282  21.200   4.250
18015W        W89544  21.127  42.365   3.283
18016W        W89545  14.667   4.832  14.197
18017W        W89546   9.403  40.908   1.355
18018W        W89547  17.729  22.240   1.477
18019W        W89548  28.986  32.647  13.941
18020W        W89549   0.796  28.445   4.527
18021W        W89550  33.910  37.849  11.495
18022W        W89551  42.684  37.887   3.755
18023W        W89552  22.141  32.565   3.186
18024W        W89553  44.514   6.128   4.317
18025W        W89554  21.060  15.234   0.593
18026W        W89555  36.764  22.588   2.916
18027W        W89556  35.140  31.634  14.334
18028W        W89557  15.615  16.845   1.893
18029W        W89558  28.880  26.030   3.880
18030W        W89559  36.460  36.176   5.359
18031W        W89560  11.780   1.586  10.711
18032W        W89561   3.292  40.794   0.170
18033W        W89562  21.583  28.428   4.162
18034W        W89563  41.139  26.112  14.821
18035W        W89564  29.487  13.542  13.340
18036W        W89565  31.840  28.677  11.612
18037W        W89566  32.619  29.595   3.118
18038W        W89567   4.632  10.777   2.658
18039W        W89568  23.509  44.549   4.001
18040W        W89569  15.880  15.467  10.276
18041W        W89570  32.911  43.249   3.822
18042W        W89571   6.656  10.201   3.799
18043W        W89572  41.233  17.009  13.451
18044W        W89573  25.536  29.931   0.358
18045W        W89574   5.725  28.229   4.183
18046W        W89575   1.921  14.217   0.477
18047W        W89576  18.628  27.506   9.726
18048W        W89577  20.209  39.815  13.001
18049W        W89578  12.067  25.236  11.990
18050W        W89579  22.231  39.381   2.206
18051W        W89580  15.331  41.317  13.871
18052W        W89581  27.689  21.623   3.464
18053W        W89582  20.854   2.467  11.568
18054W        W89583  28.861  23.371   3.615
18055W        W89584  30.471  28.654   3.176
18056W        W89585  42.279  37.873  13.456
18057W        W89586   8.863  36.909  11.047
18058W        W89587  19.617  25.558   3.402
18059W        W89588  30.377  28.043  10.228
18060W        W89589  24.642  23.187  13.342
18061W        W89590  29.929  18.776  14.999
18062W        W89591  38.940  40.619  10.731
18063W        W89592   6.375  36.708  12.011
18064W        W89593  39.788  36.040  12.567
18065W        W89594  36.763  42.066  10.961
18066W        W89595   1.708  36.389   0.263
18067W        W89596   9.874   4.802   3.594
18068W        W89597  35.879  17.204   1.230
18069W        W89598  41.275   2.856   0.931
18070W        W89599  37.523   8.873  12.107
18071W        W89600  43.529  37.770  10.709
18072W        W89601  34.367  35.401  14.958
18073W        W89602  41.014  22.563  13.341
18074W        W89603  25.823  26.842  11.599
18075W        W89604   9.310  26.327   4.692
18076W        W89605  33.139  25.301   0.754
18077W        W89606   6.179  22.074  13.382
18078W        W89607   7.798  33.061   0.279
18079W        W89608  25.928   1.874  12.429
18080W        W89609  37.709  11.806  11.561
18081W        W89610  33.301   8.853  14.918
18082W        W89611  44.433  21.017   3.612
18083W        W89612   1.076  22.492  14.227
18084W        W89613  43.063  33.939   4.638
18085W        W89614  40.983  19.337   1.352
18086W        W89615   3.477   3.853   1.295
18087W        W89616  12.856  24.441   1.805
18088W        W89617  33.490  21.064  11.763
18089W        W89618  23.019  42.008   4.700
18090W        W89619  35.525  17.143   0.848
18091W        W89620  40.478  33.255   5.219
18092W        W89621  18.501  31.391  11.546
18093W        W89622  37.650  11.054  11.041
18094W        W89623  38.359  29.610   4.637
18095W        W89624  22.568  13.262  10.089
18096W        W89625  34.817  36.166  12.456
18097W        W89626  31.549  12.023  12.004
18098W        W89627  26.555  18.370   0.248
18099W        W89628   6.814   7.139   1.808
18100W        W89629  38.764  35.125   0.183
18101W        W89630  34.649  23.158   2.614
18102W        W89631  42.241   4.676  14.066
18103W        W89632   4.409  40.300   2.328
18104W        W89633   9.430  40.646  12.568
18105W        W89634  44.407  42.840  12.863
18106W        W89635  30.223  23.731   1.233
18107W        W89636  28.891  43.323  11.986
18108W        W89637  21.161  31.179   3.304
18109W        W89638  12.508  10.704  14.425
18110W        W89639  11.220  21.196   2.665
18111W        W89640  18.617  20.010  10.440
18112W        W89641   7.371   2.904   1.444
18113W        W89642  15.071  36.134   4.316
18114W        W89643  32.797  42.925   2.178
18115W        W89644  22.991   5.654  12.491
18116W        W89645  40.848  23.568  12.595
18117W        W89646  18.600  35.178  12.448
18118W        W89647  15.700  22.215  11.998
18119W        W89648   0.538  33.245  12.876
18120W        W89649  25.260  20.930   1.116
18121W        W89650  11.008  33.836  11.574
18122W        W89651  34.842   0.104   5.001
18123W        W89652   5.255   8.879  14.572
18124W        W89653  12.130   2.793   0.323
18125W        W89654  16.574  33.343  10.962
18126W        W89655  26.605  39.886  11.275
18127W        W89656   0.647   5.176   3.568
18128W        W89657  32.542  38.588   3.930
18129W        W89658  39.411  27.916  11.972
18130W        W89659  42.670   9.162   0.491
18131W        W89660  34.078   8.650  13.793
18132W        W89661  19.526  36.921  11.220
18133W        W89662  13.843  11.899   0.886
18134W        W89663  28.439   1.676  10.450
18135W        W89664  11.471  34.650   4.171
18136W        W89665  32.366  17.820  14.756
18137W        W89666  38.045  38.850   1.868
18138W        W89667  27.059  21.218  12.252
18139W        W89668  42.001  13.328   0.084
18140W        W89669  44.032  14.265  11.483
18141W        W89670  31.906  15.319  11.790
18142W        W89671   6.011  40.467  14.324
18143W        W89672  41.224  38.774   0.275
18144W        W89673  23.710  36.009   2.155
18145W        W89674  37.562  25.123  11.116
18146W        W89675  43.401  21.671  14.923
18147W        W89676  13.405   8.579   1.469
18148W        W89677  27.577  25.224  13.718
18149W        W89678  31.262   0.638   5.130
18150W        W89679  42.952  36.577  13.360
18151W        W89680   1.844  11.833   4.684
18152W        W89681  26.733  19.581   4.197
18153W        W89682  10.285  23.526   4.124
18154W        W89683   6.877  35.896   4.108
18155W        W89684  26.696   4.401  11.011
18156W        W89685  42.874  36.618   3.144
18157W        W89686  37.462  10.318  14.830
18158W        W89687  11.771  43.778  10.738
18159W        W89688  43.162  15.705   2.247
18160W        W89689   5.619   1.271   2.343
18161W        W89690  32.067  43.051  13.448
18162W        W89691  15.653  37.065  13.143
18163W        W89692  13.111  36.446  12.941
18164W        W89693  15.328   1.433   4.805
18165W        W89694   7.232  38.316   0.470
18166W        W89695  32.972  35.742  12.989
18167W        W89696   3.193  26.652   0.842
18168W        W89697   7.393   1.644   3.320
18169W        W89698   9.564   4.742   1.493
18170W        W89699   7.375  34.514  10.710
18171W        W89700  29.938  11.923   3.098
18172W        W89701   4.494  25.009  12.132
18173W        W89702  32.548  31.342   2.261
18174W        W89703  39.377  44.255   4.610
18175W        W89704  10.059  31.402  11.950
18176W        W89705   5.431  43.232   2.445
18177W        W89706   4.787  18.924   2.359
18178W        W89707  28.457  31.688   2.670
18179W        W89708  22.433  22.132   1.938
18180W        W89709  41.547  26.250   2.740
18181W        W89710  31.024  37.165   0.630
18182W        W89711  11.587   4.044  14.814
18183W        W89712  27.024  14.151   1.853
18184W        W89713  25.000   6.811   1.479
18185W        W89714  36.430  30.796  10.724
18186W        W89715  25.257   9.330  11.773
18187W        W89716  33.928  12.599   1.465
18188W        W89717   9.836   9.882   1.534
18189W        W89718  16.234  36.011   2.400
18190W        W89719   1.788  41.060   1.278
18191W        W89720   2.907  44.863   2.475
18192W        W89721  31.282  32.331   3.176
18193W        W89722  17.234   3.499   4.549
18194W        W89723  27.669  35.174  12.778
18195W        W89724  34.552  26.022  11.230
18196W        W89725  11.950  26.076   0.723
18197W        W89726  31.283  11.196   4.642
18198W        W89727  11.833  20.226  10.567
18199W        W89728   5.755   1.033   1.016
18200W        W89729  14.576  25.206  13.567
18201W        W89730  36.466  21.258   4.706
18202W        W89731  17.499  35.957  11.112
18203W        W89732  34.965  29.538  11.563
18204W        W89733  33.800  20.052   3.134
18205W        W89734  37.451  38.948   0.693
18206W        W89735  31.221  24.158  14.804
18207W        W89736  26.121  14.985  14.295
18208W        W89737  26.813   0.465  13.094
18209W        W89738  20.136  16.577  14.788
18210W        W89739  38.433  11.102   4.328
18211W        W89740  18.618  43.108   4.861
18212W        W89741  17.517   7.577   1.314
18213W        W89742  18.141   8.104   2.738
18214W        W89743  12.932  14.648  14.918
18215W        W89744  35.953  37.335   4.038
18216W        W89745  19.986   7.750   1.423
18217W        W89746  24.605  16.716   4.127
18218W        W89747  43.398  26.461   1.893
18219W        W89748  13.118  27.507   0.677
18220W        W89749  36.979  29.150   1.010
18221W        W89750  11.763  34.378   1.677
18222W        W89751   1.361   6.735  13.487
18223W        W89752  14.241   3.791   1.412
18224W        W89753  27.502  44.237  12.492
18225W        W89754   5.663  29.164   0.749
18226W        W89755  17.595  36.831  11.519
18227W        W89756  11.899   2.824   2.658
18228W        W89757  16.758  22.526  13.898
18229W        W89758  16.275  40.811   4.387
18230W        W89759  21.712  40.951   1.992
18231W        W89760   8.519   5.173  14.495
18232W        W89761  38.012  19.316   4.597
18233W        W89762  10.219   7.412   3.476
18234W        W89763  37.963  10.764  13.360
18235W        W89764  15.032  22.299  10.416
18236W        W89765  39.786  26.101   1.230
18237W        W89766  28.165  38.452  12.167
18238W        W89767  22.063  35.340   0.976
18239W        W89768  13.108   7.843   3.283
18240W        W89769  36.207  20.640   1.057
18241W        W89770   0.836  10.411  14.446
18242W        W89771   8.911  31.147  13.167
18243W        W89772  22.803  40.818   3.557
18244W        W89773   6.040  32.129  11.576
18245W        W89774   1.295   1.035  10.757
18246W        W89775  39.287  20.175  10.890
18247W        W89776  27.384  14.272  10.709
18248W        W89777  14.357  10.288  12.412
18249W        W89778  25.163  11.362   0.714
18250W        W89779  29.097  43.911   0.014
18251W        W89780   0.529   8.344   0.045
18252W        W89781   2.649  10.128   3.769
18253W        W89782  36.627   7.036   0.408
18254W        W89783   0.364   7.168  13.289
18255W        W89784  18.702  18.010   3.260
18256W        W89785  25.474  41.859   2.131
18257W        W89786  29.062   7.201   2.147
18258W        W89787   3.952   8.998   2.307
18259W        W89788  28.118  30.653   1.348
18260W        W89789  22.653  39.014  14.981
18261W        W89790  41.996  20.227  13.922
18262W        W89791   5.622  33.125   3.134
18263W        W89792   8.285  37.337  11.605
18264W        W89793  18.148  12.258  13.179
18265W        W89794  21.994   3.137  13.355
18266W        W89795  14.534  31.021  11.971
18267W        W89796   5.228  16.675  12.434
18268W        W89797   4.069  43.343   2.161
18269W        W89798  14.312  18.981  10.621
18270W        W89799  40.140   8.225  12.356
18271W        W89800   9.273  31.424   1.485
18272W        W89801  38.349  20.966  13.079
18273W        W89802   6.085  17.933  11.511
18274W        W89803  44.378  24.247  13.531
18275W        W89804  11.189   5.417  14.789
18276W        W89805  28.187  30.473   2.154
18277W        W89806  29.668   7.891   3.074
18278W        W89807  29.196  37.505   4.030
18279W        W89808   9.877   6.664   2.496
18280W        W89809  27.209  12.401   0.700
18281W        W89810  21.004  12.409   0.489
18282W        W89811  35.227   6.300   1.136
18283W        W89812  11.627   3.965  11.090
18284W        W89813   8.939  35.121   1.244
18285W        W89814  17.288   8.838  13.178
18286W        W89815  20.228   0.334   3.082
18287W        W89816  14.304  31.069  14.814
18288W        W89817  25.712  26.565   0.107
18289W        W89818  24.016  41.909  12.347
18290W        W89819  41.771  34.522   2.969
18291W        W89820  40.687  38.185   2.255
18292W        W89821   6.370  18.089   0.768
18293W        W89822  44.746  44.545  11.544
18294W        W89823   4.455  35.616   0.707
18295W        W89824  10.120  24.730   0.353
18296W        W89825   0.728  12.878   1.393
18297W        W89826  16.264   1.915   4.582
18298W        W89827  40.024  36.496   4.078
18299W        W89828  42.951  12.366  14.368
18300W        W89829  37.029  14.727   4.879
18301W        W89830  10.241  13.777  12.128
18302W        W89831  23.230  27.533   2.740
18303W        W89832  29.194   2.978  12.011
18304W        W89833  16.075  33.664  13.919
18305W        W89834   4.239  12.742  11.612
18306W        W89835  40.502  36.718   3.240
18307W        W89836   6.286  40.311   2.777
18308W        W89837   7.515  30.560   0.833
18309W        W89838   3.248  13.102  13.603
18310W        W89839  17.470  11.730   2.470
18311W        W89840  19.784   0.873   1.206
18312W        W89841  13.580  18.247   0.270
18313W        W89842   0.683   5.779   0.178
18314W        W89843  21.967  44.987  10.643
18315W        W89844  10.713   4.166  10.943
18316W        W89845  30.739  16.311   5.007
18317W        W89846   5.486   4.804   1.331
18318W        W89847  30.063  32.840  13.483
18319W        W89848  18.679  25.617  14.967
18320W        W89849  16.070  33.670  14.954
18321W        W89850   9.479  13.984   0.276
18322W        W89851   2.210  14.738  11.436
18323W        W89852  29.347  41.934  10.643
18324W        W89853  24.080   9.883  11.624
18325W        W89854  19.351  36.193  11.951
18326W        W89855  18.284  26.163   0.221
18327W        W89856  38.780   4.260   2.648
18328W        W89857   3.910  23.672  12.984
18329W        W89858   9.016   7.499   1.842
18330W        W89859  13.420   5.514  11.192
18331W        W89860  27.106   4.217   4.657
18332W        W89861  17.564   7.311  12.942
18333W        W89862  26.128  11.859  14.992
18334W        W89863   7.285  35.818   2.743
18335W        W89864  17.280  11.152  11.512
18336W        W89865  24.795   6.838   4.441
18337W        W89866  25.249  32.757   2.810
18338W        W89867  40.950  43.267  14.290
18339W        W89868   7.401  42.414  14.897
18340W        W89869  25.194  40.714   3.198
18341W        W89870  20.690  33.106  13.200
18342W        W89871   0.478  26.559  11.536
18343W        W89872  42.879  21.418   1.808
18344W        W89873  43.787  22.115   0.516
18345W        W89874  36.174  11.496  10.249
18346W        W89875  38.606  16.543  14.347
18347W        W89876   5.935   7.947   3.665
18348W        W89877   8.839  20.643  13.506
18349W        W89878  12.781  41.756   3.269
18350W        W89879  24.719  18.016  12.118
18351W        W89880  14.194   0.285  14.090
18352W        W89881  14.777  42.269   2.187
18353W        W89882  33.160  31.996  14.924
18354W        W89883  29.586  33.691  12.117
18355W        W89884  26.694  42.495  13.307
18356W        W89885   4.414  21.207   4.932
18357W        W89886  32.845  18.851  13.432
18358W        W89887  24.990  16.078   3.374
18359W        W89888  39.282  43.753   1.431
18360W        W89889  15.467  39.933   0.812
18361W        W89890  20.053   2.783   1.950
18362W        W89891  33.032  41.139  10.329
18363W        W89892  13.908   8.141  10.687
18364W        W89893  37.693   5.849   4.645
18365W        W89894  23.990  41.981  14.734
18366W        W89895  37.087   9.391  12.824
18367W        W89896   7.868  26.572   4.525
18368W        W89897  21.207  39.427   1.881
18369W        W89898  29.960   1.012   2.727
18370W        W89899  32.422  42.870  14.420
18371W        W89900  12.929  17.482  10.301
18372W        W89901   0.281  38.326   3.226
18373W        W89902   0.771  36.896   0.808
18374W        W89903  12.516  41.352  10.653
18375W        W89904  18.077  18.200  12.870
18376W        W89905  38.792  44.785   3.144
18377W        W89906  40.020  13.324  11.102
18378W        W89907  33.645  32.109  14.823
18379W        W89908  28.966  40.852   3.720
18380W        W89909  35.284  29.254  13.043
18381W        W89910  23.604  18.107  14.614
18382W        W89911   1.345  38.746  11.821
18383W        W89912  14.356  38.244   2.932
18384W        W89913  37.929  33.579   1.382
18385W        W89914   2.601  11.624  11.522
18386W        W89915  19.641  41.348  14.364
18387W        W89916  36.504  22.554   1.934
18388W        W89917  17.298  44.589  11.479
18389W        W89918  43.406  10.241   4.389
18390W        W89919  11.607  33.200  12.890
18391W        W89920  13.817  16.172  13.427
18392W        W89921  44.924   4.685  14.967
18393W        W89922  17.276  18.486   4.643
18394W        W89923  35.341  23.530  11.522
18395W        W89924  34.215  15.628  13.027
18396W        W89925  36.398   6.692  12.891
18397W        W89926  14.918  19.732  13.990
18398W        W89927   6.708  39.696  11.014
18399W        W89928  21.108  28.382   2.555
18400W        W89929   2.860   2.140   0.831
18401W        W89930  43.294  12.705  10.483
18402W        W89931  17.264  29.105  12.531
18403W        W89932  44.734  29.893   0.990
18404W        W89933  23.201  21.381  14.854
18405W        W89934  18.914  33.130   1.165
18406W        W89935   5.878  34.613  10.400
18407W        W89936  28.037  18.058   0.784
18408W        W89937  23.642   7.399  14.848
18409W        W89938  36.019  35.268   4.594
18410W        W89939  16.086   4.938  10.835
18411W        W89940  23.033  11.348  13.456
18412W        W89941   7.227   1.125  13.851
18413W        W89942  33.140  16.279   0.887
18414W        W89943  37.453  21.213   3.906
18415W        W89944  38.853  23.490  11.928
18416W        W89945  23.124  22.299   1.408
18417W        W89946  43.717  26.048  13.992
18418W        W89947  25.008  13.781  11.513
18419W        W89948  24.405  14.244   0.009
18420W        W89949   9.037  26.229   3.468
18421W        W89950   0.239   0.188   2.305
18422W        W89951  24.914  35.891   2.865
18423W        W89952  25.548  30.974  11.541
18424W        W89953  24.426  29.020   4.152
18425W        W89954  17.382  24.581   4.163
18426W        W89955  32.410  20.135   0.791
18427W        W89956  35.552  10.757   3.587
18428W        W89957   1.873  44.306  14.913
18429W        W89958  21.671  30.444   1.774
18430W        W89959   4.502  26.999   1.255
18431W        W89960  41.880   6.754   0.657
18432W        W89961  27.921   7.388  10.090
18433W        W89962  28.913   3.993   1.434
18434W        W89963  34.807  17.205  12.987
18435W        W89964  38.845  26.665  11.555
18436W        W89965   0.383  10.797   3.869
18437W        W89966  24.018  25.969   0.742
18438W        W89967   2.540  38.292   2.157
18439W        W89968  44.981  19.689  11.349
18440W        W89969  13.408   8.795   2.360
18441W        W89970   3.376  17.473  11.924
18442W        W89971  26.018  13.064  14.343
18443W        W89972  37.615  37.343   3.613
18444W        W89973  17.259   4.253   0.853
18445W        W89974   2.216  26.402   1.852
18446W        W89975   0.177  31.012   0.483
18447W        W89976  17.067  30.159  13.514
18448W        W89977  32.004  28.859  14.790
18449W        W89978  31.768  13.083   3.793
18450W        W89979  16.281   4.872  12.673
18451W        W89980   9.230   7.410  11.570
18452W        W89981  36.264   9.123   3.613
18453W        W89982  20.544   0.286   3.711
18454W        W89983   9.702  21.126  14.085
18455W        W89984  38.862  31.116   1.343
18456W        W89985  42.495  36.056  13.123
18457W        W89986  23.439  26.952   1.785
18458W        W89987  36.007  27.352   3.557
18459W        W89988  35.902  24.886  13.862
18460W        W89989  28.259  40.467  11.498
18461W        W89990  41.830  10.962  11.758
18462W        W89991  41.430  44.338   2.619
18463W        W89992  18.155  34.876  12.515
18464W        W89993  37.850  43.756  12.465
18465W        W89994  43.374  23.515  12.108
18466W        W89995  21.587  38.494   3.892
18467W        W89996  12.231  14.100  13.337
18468W        W89997   6.340  38.974  14.746
18469W        W89998  31.685  40.014   2.309
18470W        W89999  17.660   0.319   1.695
18471W        W90000  30.050  22.275  10.428
18472W        W90001  25.533  29.313  14.015
18473W        W90002  24.134  17.559   3.269
18474W        W90003   6.028  34.968   3.338
18475W        W90004  38.790  31.861   3.771
18476W        W90005  18.346  35.019   2.932
18477W        W90006  42.274  41.950  14.906
18478W        W90007  20.729  35.177  13.876
18479W        W90008  23.770  44.192  11.547
18480W        W90009  32.537  42.305  10.937
18481W        W90010  25.635  41.769  14.707
18482W        W90011  28.779  34.969   2.649
18483W        W90012  10.315  30.809  12.932
18484W        W90013  36.149  30.148  14.485
18485W        W90014   6.743  39.778  14.677
18486W        W90015  28.035  32.268  13.181
18487W        W90016  17.256  18.165   1.718
18488W        W90017  17.620  35.572   1.258
18489W        W90018  17.113  36.939  11.320
18490W        W90019   3.118  12.498   4.698
18491W        W90020   5.666  10.266   1.676
18492W        W90021  17.600   6.596  12.145
18493W        W90022  33.351  35.569  14.281
18494W        W90023  44.044  15.751   1.223
18495W        W90024  10.165  44.714  11.557
18496W        W90025  40.203   7.121  13.218
18497W        W90026  21.475  29.665   3.224
18498W        W90027   1.925  41.084  13.867
18499W        W90028  12.795  18.951  10.501
18500W        W90029  23.468  38.139  11.642
18501W        W90030  39.469  20.530  11.667
18502W        W90031  37.009   5.459   2.760
18503W        W90032  32.564  24.327  10.605
18504W        W90033  37.203  11.623  14.400
18505W        W90034   8.457  40.594   2.833
18506W        W90035  27.098  29.107   4.011
18507W        W90036  17.281  27.551   3.993
18508W        W90037   6.910  16.216  14.883
18509W        W90038  17.212  29.442  11.196
18510W        W90039  12.562   2.485   3.131
18511W        W90040   6.446  42.779   0.530
18512W        W90041  30.503   7.825   1.848
18513W        W90042  27.568  41.262  13.935
18514W        W90043  31.131  15.977   4.394
18515W        W90044  43.732   3.540   0.890
18516W        W90045  11.093  14.049   1.829
18517W        W90046   0.302  41.705   2.458
18518W        W90047  28.694   8.149   1.395
18519W        W90048  37.016  33.430   0.424
18520W        W90049  13.481  13.561   3.252
18521W        W90050  35.005  39.395   3.798
18522W        W90051  19.578  33.976   2.179
18523W        W90052  42.887   7.724   4.144
18524W        W90053  38.017  12.226   0.405
18525W        W90054   1.853  42.854   4.476
18526W        W90055  12.586  13.054  11.298
18527W        W90056   2.239  23.946   0.347
18528W        W90057  30.804  22.707  14.532
18529W        W90058  43.295   5.757   2.407
18530W        W90059  41.769  36.934  14.411
18531W        W90060  15.515   2.371   4.645
18532W        W90061   1.766  38.407   4.656
18533W        W90062  12.420   4.211   1.258
18534W        W90063  16.764  27.169  11.471
18535W        W90064   8.735  10.871  14.404
18536W        W90065  10.611  22.606   0.722
18537W        W90066   7.674  25.581  11.049
18538W        W90067  39.438  26.011   3.793
18539W        W90068  40.924  12.920   1.731
18540W        W90069  30.225   2.658  10.701
18541W        W90070  32.098  12.557  12.575
18542W        W90071  13.217  38.354  14.417
18543W        W90072  25.755  29.578   2.819
18544W        W90073  32.206  12.863   2.774
18545W        W90074  19.044   5.941  13.942
18546W        W90075  37.523  28.580   4.085
18547W        W90076  35.435  11.650  12.188
18548W        W90077  35.677   3.644   2.888
18549W        W90078  14.733  32.053  14.047
18550W        W90079  18.271  42.316   1.188
18551W        W90080   9.167  19.713  14.851
18552W        W90081  42.957  40.388   2.171
18553W        W90082  35.356  11.384  11.251
18554W        W90083   5.796  23.273  12.769
18555W        W90084  14.574  42.004  12.576
18556W        W90085  36.449  14.563  11.997
18557W        W90086  17.152  27.977  13.829
18558W        W90087  10.238  17.702  11.007
18559W        W90088   9.854  15.257  12.584
18560W        W90089  34.403  30.050  11.192
18561W        W90090  41.462  42.659  11.990
18562W        W90091   1.944  37.873   4.726
18563W        W90092  34.806  20.233  10.936
18564W        W90093  35.826  12.187   2.545
18565W        W90094   1.976  30.813  12.496
18566W        W90095  10.571   2.758  13.780
18567W        W90096  15.674  32.160   3.769
18568W        W90097  28.595  29.633  11.105
18569W        W90098   1.427  30.623  14.796
18570W        W90099  25.584  31.962  12.393
18571W        W90100  18.262  21.262   0.981
18572W        W90101  19.548  22.190  12.560
18573W        W90102  32.381  27.701   5.557
18574W        W90103  26.591  11.057  14.335
18575W        W90104  24.721  12.827  11.574
18576W        W90105  25.957  17.289  11.608
18577W        W90106  28.647  26.778   5.004
18578W        W90107  35.043  16.567   0.328
18579W        W90108   3.179  23.100  13.891
18580W        W90109  12.431  43.975  11.561
18581W        W90110  22.173  19.534   2.237
18582W        W90111  44.492  33.144   3.653
18583W        W90112  31.840   1.006  11.904
18584W        W90113  32.649  17.533  13.498
18585W        W90114  42.577  27.625   5.013
18586W        W90115  34.279   6.194   1.482
18587W        W90116  21.320  24.045   0.744
18588W        W90117   1.336   2.471   2.410
18589W        W90118  19.588  41.079   3.984
18590W        W90119  21.109  38.375   4.116
18591W        W90120   3.460  31.743  11.507
18592W        W90121  40.240  12.347   1.791
18593W        W90122   9.147  14.318  12.935
18594W        W90123  10.268  12.708  11.228
18595W        W90124  10.772   1.759  14.571
18596W        W90125  31.080  34.891   2.283
18597W        W90126  36.249  39.024  12.454
18598W        W90127  23.795  24.956  14.368
18599W        W90128  14.092  13.114   2.395
18600W        W90129  24.229  16.965   0.750
18601W        W90130  43.522  20.975   4.074
18602W        W90131   0.364  17.198  14.217
18603W        W90132  40.520  25.456   3.107
18604W        W90133  36.302   9.100  11.379
18605W        W90134   6.228   9.960  12.406
18606W        W90135   8.339  27.618   1.322
18607W        W90136  24.703   7.254  11.954
18608W        W90137  37.440  39.190   4.282
18609W        W90138   2.129  26.603  14.904
18610W        W90139  38.071  11.145   2.295
18611W        W90140   1.321  21.485   2.703
18612W        W90141  10.797  24.789  12.481
18613W        W90142  40.087  43.499  13.853
18614W        W90143  12.242   4.274  13.973
18615W        W90144  41.890  14.330  14.986
18616W        W90145  13.137  11.877   2.243
18617W        W90146  41.571   1.290   3.080
18618W        W90147   4.728  12.366  12.865
18619W        W90148  33.252  26.237  14.980
18620W        W90149  25.236  12.140  11.056
18621W        W90150  16.779  18.442   0.946
18622W        W90151  38.336   0.804  12.877
18623W        W90152  36.331  17.312   3.600
18624W        W90153  20.563  29.540   4.662
18625W        W90154  31.157  27.988  11.487
18626W        W90155  15.353   2.319  12.951
18627W        W90156  29.057  19.968  14.246
18628W        W90157  32.551   1.452  14.343
18629W        W90158  33.415  22.409   0.830
18630W        W90159  34.819  43.072  11.903
18631W        W90160  44.513  10.118   1.825
18632W        W90161  22.321   8.908   2.400
18633W        W90162  37.272  14.269   4.929
18634W        W90163  20.106  18.208   0.764
18635W        W90164   1.321   7.647   1.753
18636W        W90165  34.827  15.723   0.829
18637W        W90166  16.456  33.630   2.904
18638W        W90167   8.900   3.588  14.604
18639W        W90168  21.523  30.399   5.091
18640W        W90169   0.037  24.645   4.101
18641W        W90170   3.412   2.773   4.644
18642W        W90171  33.608  36.552  11.406
18643W        W90172   1.213  20.283   3.546
18644W        W90173  24.132  34.145  14.128
18645W        W90174  42.860  25.705  10.518
18646W        W90175   7.913  41.610  11.662
18647W        W90176  10.090  17.600   4.779
18648W        W90177   3.925   1.527  14.306
18649W        W90178  10.025   6.249   2.222
18650W        W90179   7.629  42.120  11.039
18651W        W90180  18.235  27.392  14.669
18652W        W90181  32.325  43.836  14.877
18653W        W90182   6.510  26.152   3.722
18654W        W90183   8.108  18.810  14.859
18655W        W90184  34.983   3.636   2.315
18656W        W90185  38.019  21.765   2.894
18657W        W90186   3.141  42.008  11.099
18658W        W90187   6.775  39.991   1.226
18659W        W90188   0.774   9.426  12.563
18660W        W90189  43.446  22.125  14.039
18661W        W90190  28.617  15.502  14.997
18662W        W90191   7.240   8.878   4.950
18663W        W90192  19.620  24.383   1.329
18664W        W90193  24.206  37.044  10.905
18665W        W90194  24.001  36.628  11.165
18666W        W90195   7.351  10.674   3.643
18667W        W90196  16.708  10.051  14.440
18668W        W90197  13.193   8.428  11.157
18669W        W90198  36.391  22.487  12.346
18670W        W90199  14.842   2.992   4.551
18671W        W90200  32.875  44.186   0.264
18672W        W90201  18.697  34.393  12.038
18673W        W90202   7.668  10.382  12.573
18674W        W90203  43.026  30.678  11.626
18675W        W90204  28.115  19.801   4.629
18676W        W90205   8.517  26.545   0.382
18677W        W90206  44.219  15.246  11.561
18678W        W90207  23.476  20.018   0.278
18679W        W90208  19.245  39.305  14.748
18680W        W90209   5.323   4.479   4.546
18681W        W90210  25.887  33.604  13.427
18682W        W90211   0.555  25.998   3.718
18683W        W90212   5.120  41.899   4.622
18684W        W90213  31.996  19.954   4.568
18685W        W90214  16.806  18.602   2.825
18686W        W90215   9.840  33.051  11.536
18687W        W90216  18.097  24.678   0.294
18688W        W90217  27.874  32.529   9.913
18689W        W90218  30.452  43.846   3.000
18690W        W90219  35.183  34.408   4.105
18691W        W90220   2.168  15.731  12.439
18692W        W90221  36.441  25.818   3.931
18693W        W90222  16.832  27.677   4.887
18694W        W90223  17.104  12.734   2.627
18695W        W90224   1.955  22.746  11.936
18696W        W90225   5.739  31.330  12.904
18697W        W90226  18.584  41.804  11.999
18698W        W90227   9.641  35.659  10.925
18699W        W90228  25.471   8.746   0.244
18700W        W90229  40.576  17.150   1.274
18701W        W90230  32.027  33.086  14.035
18702W        W90231  44.331  32.850   0.607
18703W        W90232  22.756  33.947  14.602
18704W        W90233  15.521  18.920   4.364
18705W        W90234  32.619   9.382   3.659
18706W        W90235   4.918  41.478  12.151
18707W        W90236  22.792  36.370   2.146
18708W        W90237  12.860   7.223  14.808
18709W        W90238  17.829   4.809  14.319
18710W        W90239  21.678   1.358  13.686
18711W        W90240  11.618  22.691   4.941
18712W        W90241   3.738  17.297  10.548
18713W        W90242  16.637  21.957  14.736
18714W        W90243   4.242   8.670  14.301
18715W        W90244  32.163  19.651  11.045
18716W        W90245  10.906  12.184  13.682
18717W        W90246   5.002  30.195   1.949
18718W        W90247  31.113  30.436   5.157
18719W        W90248  39.771  28.263   1.320
18720W        W90249  37.778  27.191   1.240
18721W        W90250  23.644   7.898   4.189
18722W        W90251   0.889  19.819  11.459
18723W        W90252  22.562  11.889  14.344
18724W        W90253   3.476  32.701   0.264
18725W        W90254  27.606  19.269   3.616
18726W        W90255  20.372  33.146   2.694
18727W        W90256  22.598   9.208  13.256
18728W        W90257  13.716  21.597  12.152
18729W        W90258  37.774  27.259  14.927
18730W        W90259  23.172  25.409  11.474
18731W        W90260   3.856  44.709  14.061
18732W        W90261  43.526   8.704   3.669
18733W        W90262  39.832   4.851  13.962
18734W        W90263   7.455  29.741   0.901
18735W        W90264  29.779   4.430   4.276
18736W        W90265  44.257   3.842  13.763
18737W        W90266  39.497   3.954   3.803
18738W        W90267  37.313  11.681   3.179
18739W        W90268  17.013  10.763  11.150
18740W        W90269  12.353  38.884   4.355
18741W        W90270  35.054  17.798  13.549
18742W        W90271  31.089  18.216   0.959
18743W        W90272  13.651   7.472   4.682
18744W        W90273  23.938   6.337   2.256
18745W        W90274  29.243  31.990  11.483
18746W        W90275  10.427  30.505   3.329
18747W        W90276  21.906  25.254  14.806
18748W        W90277   9.939  42.508  13.381
18749W        W90278   7.352   3.186   3.143
18750W        W90279   6.075   8.010  11.664
18751W        W90280  10.801   1.921  10.637
18752W        W90281  16.587  16.714  11.657
18753W        W90282  21.143   4.843  14.026
18754W        W90283  30.923  10.585  11.665
18755W        W90284  17.836  26.786   4.201
18756W        W90285  12.235  31.707   0.798
18757W        W90286  30.628  34.816  14.122
18758W        W90287  18.315  13.289   2.344
18759W        W90288  35.434   6.954  12.408
18760W        W90289  31.463  41.519  13.495
18761W        W90290  23.092  32.014  12.708
18762W        W90291  16.708   1.343  11.523
18763W        W90292  20.391  19.729  14.717
18764W        W90293  32.677  40.321   0.475
18765W        W90294  32.959  19.845   3.280
18766W        W90295   9.206   6.573   2.669
18767W        W90296  23.904  28.708   3.706
18768W        W90297   6.112   3.830  14.500
18769W        W90298   1.728   7.342  11.590
18770W        W90299  28.019  31.563   1.328
18771W        W90300  30.500  35.361   1.182
18772W        W90301  20.924   3.148  10.252
18773W        W90302  15.621  25.912   3.152
18774W        W90303   0.672  14.817  13.365
18775W        W90304  14.072   0.706   0.354
18776W        W90305  21.435  38.724  10.738
18777W        W90306  28.566  38.800  12.130
18778W        W90307  44.021  23.721  12.868
18779W        W90308  12.259  20.001   3.365
18780W        W90309  19.475  41.611  10.994
18781W        W90310   7.849  37.593  14.016
18782W        W90311  38.851  11.397  14.760
18783W        W90312  39.524   3.403  14.249
18784W        W90313  38.088  21.870  12.381
18785W        W90314  31.349  12.365  13.338
18786W        W90315  10.237  24.674   2.832
18787W        W90316  26.089  37.821  12.339
18788W        W90317  25.917  30.874   4.928
18789W        W90318  13.408  44.862  11.515
18790W        W90319  14.753   0.300   4.047
18791W        W90320   6.193  34.986   0.818
18792W        W90321  16.735  38.935  11.448
18793W        W90322  34.443  31.431  11.704
18794W        W90323  20.022  18.437  11.618
18795W        W90324  33.427  12.285   2.323
18796W        W90325  40.497  27.321   4.784
18797W        W90326  29.583   6.781   0.019
18798W        W90327  41.180  29.805   3.185
18799W        W90328   9.760  42.458   3.889
18800W        W90329  30.638  23.391   1.301
18801W        W90330  43.753  21.219   4.534
18802W        W90331  36.257  26.441  12.138
18803W        W90332  26.431  30.320   2.143
18804W        W90333   5.911  21.266   2.921
18805W        W90334  42.309   9.149   0.132
18806W        W90335  23.419  14.907  13.160
18807W        W90336  37.534  24.820   4.370
18808W        W90337  21.730  26.470  10.854
18809W        W90338  16.902  18.154  14.368
18810W        W90339  22.979   9.877  12.565
18811W        W90340   5.094  35.044   3.314
18812W        W90341  34.089  25.491   2.682
18813W        W90342  33.874  44.764   1.430
18814W        W90343  29.448  35.467  14.738
18815W        W90344  35.941  38.062   1.025
18816W        W90345  10.149  40.330   0.966
18817W        W90346  36.080   2.906  14.375
18818W        W90347  44.561   5.386   5.069
18819W        W90348  27.542   4.994  14.446
18820W        W90349  44.563   5.314   4.584
18821W        W90350  10.260  33.885  12.800
18822W        W90351  12.965  39.925   3.198
18823W        W90352   8.866  21.684   0.697
18824W        W90353  25.264  10.584  11.586
18825W        W90354  18.291  16.302  13.486
18826W        W90355   1.755  25.628   1.468
18827W        W90356  27.262  10.735  14.518
18828W        W90357   7.760  13.840   0.844
18829W        W90358  11.846  31.395   1.949
18830W        W90359  29.312  33.924  12.549
18831W        W90360  10.565  17.136   4.152
18832W        W90361   4.924  23.753   3.691
18833W        W90362  21.725  18.121   4.465
18834W        W90363   1.095  35.329   5.397
18835W        W90364   9.654  39.715  12.430
18836W        W90365  27.430   1.280   5.022
18837W        W90366  35.379  14.190   2.353
18838W        W90367  25.201  30.587   0.103
18839W        W90368   5.774  25.502   1.469
18840W        W90369  17.540  28.951   0.374
18841W        W90370  31.375   4.106  12.507
18842W        W90371  39.710  42.470  10.265
18843W        W90372  22.423  41.462   2.885
18844W        W90373  33.549  29.998   0.173
18845W        W90374   7.259  22.023  11.848
18846W        W90375   3.928  16.814   3.780
18847W        W90376  39.223  15.281   0.292
18848W        W90377  22.916  23.617  12.640
18849W        W90378  27.125  25.100   2.774
18850W        W90379   3.500  14.241  12.055
18851W        W90380   2.174  37.389   4.719
18852W        W90381  24.690  41.510   2.333
18853W        W90382  36.474  18.230  12.331
18854W        W90383  35.516  26.280  13.737
18855W        W90384  23.672  39.141  10.632
18856W        W90385   2.915  41.498   2.058
18857W        W90386  27.202  28.139   3.680
18858W        W90387   5.468   3.100   0.458
18859W        W90388  10.754   5.664  11.135
18860W        W90389   2.281  20.736   1.061
18861W        W90390  21.614   7.756  13.075
18862W        W90391  42.834  15.860   5.019
18863W        W90392   8.647  17.533   4.667
18864W        W90393  23.746  12.216   4.158
18865W        W90394  39.739  44.029   2.811
18866W        W90395  37.799   6.687   0.809
18867W        W90396  17.736  13.540  10.921
18868W        W90397  30.502  10.030  10.689
18869W        W90398  31.937  15.753   4.603
18870W        W90399  32.383  40.457   0.917
18871W        W90400  14.709  24.786  11.952
18872W        W90401  30.926  38.551  12.076
18873W        W90402  43.388  27.183   4.620
18874W        W90403  43.169   0.819  10.436
18875W        W90404  11.085  42.961   1.744
18876W        W90405  38.878  28.413  14.354
18877W        W90406  12.754  27.743  12.475
18878W        W90407  12.680  32.853  11.970
18879W        W90408  12.381  18.620   0.864
18880W        W90409  40.829   7.258  10.632
18881W        W90410   1.207  32.994   4.105
18882W        W90411   5.927  18.798   3.542
18883W        W90412  13.846   2.420   2.243
18884W        W90413  33.944  26.553  13.791
18885W        W90414  21.107  19.740  12.030
18886W        W90415  15.422   9.606   4.179
18887W        W90416  41.464   6.644  13.362
18888W        W90417   1.719  36.921  11.648
18889W        W90418   7.839  35.181   4.977
18890W        W90419  13.096  32.688  13.533
18891W        W90420  31.419   0.291   3.945
18892W        W90421  20.881   2.789  10.641
18893W        W90422  22.149  37.281  13.884
18894W        W90423   0.438   8.830   2.431
18895W        W90424   9.138  16.274   0.230
18896W        W90425  26.855  24.542  12.215
18897W        W90426  35.135  26.510  12.893
18898W        W90427  38.133  34.120   3.302
18899W        W90428  41.047  38.299  13.945
18900W        W90429   9.045   5.793  11.564
18901W        W90430  42.259  44.463   0.322
18902W        W90431  41.013  36.491   4.441
18903W        W90432  21.471  35.033  12.728
18904W        W90433  14.203  23.636  11.440
18905W        W90434  15.552  28.546  14.468
18906W        W90435   9.489  16.814  11.314
18907W        W90436  37.821  41.786   0.797
18908W        W90437  19.052   0.301   3.701
18909W        W90438  25.776   0.871  11.903
18910W        W90439  29.053  16.162  12.967
18911W        W90440  15.556   0.739   0.413
18912W        W90441  37.468   2.929  12.943
18913W        W90442   6.411  30.496  14.301
18914W        W90443  12.479  17.022   1.012
18915W        W90444  42.355   8.895   0.874
18916W        W90445  28.009  13.933   1.225
18917W        W90446  35.418   7.863  13.026
18918W        W90447  44.516  34.569  13.594
18919W        W90448   8.193  22.012   4.114
18920W        W90449  37.609   3.904  11.031
18921W        W90450  18.452  23.330   3.338
18922W        W90451  39.269  23.748  11.000
18923W        W90452   8.645  26.188  14.129
18924W        W90453  30.504   8.396   0.831
18925W        W90454   1.038  21.972  14.285
18926W        W90455   4.211  35.135  13.862
18927W        W90456  27.266  19.625  14.840
18928W        W90457   8.616   0.833  13.572
18929W        W90458  43.719  19.193  11.241
18930W        W90459  13.642  44.439  11.760
18931W        W90460  37.096  42.833   4.241
18932W        W90461  15.331  32.543   0.542
18933W        W90462  44.680  17.590  10.783
18934W        W90463   1.409  17.328  11.254
18935W        W90464   2.674  42.881   3.137
18936W        W90465  23.976  37.557  13.540
18937W        W90466   3.161  37.372   2.846
18938W        W90467  13.567   9.024   0.756
18939W        W90468  29.769  13.293   5.372
18940W        W90469  41.236   6.343   1.445
18941W        W90470  15.694  39.624   3.273
18942W        W90471  31.541  23.559  13.355
18943W        W90472   8.636  36.412   4.177
18944W        W90473  10.120  17.049   2.763
18945W        W90474  13.872   2.389  13.725
18946W        W90475   0.556  31.104   4.634
18947W        W90476   0.932  33.323   1.448
18948W        W90477  36.854   3.276  12.278
18949W        W90478  17.874  36.730  12.361
18950W        W90479  25.743   1.422   2.372
18951W        W90480  22.685  41.212   0.373
18952W        W90481  15.850  41.121   4.500
18953W        W90482  37.281  40.738   3.370
18954W        W90483   9.840  11.764   4.459
18955W        W90484   8.838  25.463  14.633
18956W        W90485  18.079  17.597  12.360
18957W        W90486  40.301  34.280   2.887
18958W        W90487  14.341  35.017   0.487
18959W        W90488  40.937  11.213  14.848
18960W        W90489  12.527  43.058  13.422
18961W        W90490  44.540  28.077   4.663
18962W        W90491  39.857  26.880  13.988
18963W        W90492  10.579   2.694  10.705
18964W        W90493  16.223  17.876  12.999
18965W        W90494  25.112  33.266   2.882
18966W        W90495  34.841  37.259  14.890
18967W        W90496  40.796  13.763  14.792
18968W        W90497  26.519  17.185   2.382
18969W        W90498  25.075  26.648  14.337
18970W        W90499  11.281   8.875   4.913
18971W        W90500  28.265   3.895  13.517
18972W        W90501   8.632   9.741  11.777
18973W        W90502  21.601   5.876  12.456
18974W        W90503  24.484  34.437  12.016
18975W        W90504  24.918  30.888  14.754
18976W        W90505  40.939  19.355  13.055
18977W        W90506  29.091  36.722   3.231
18978W        W90507  18.277  38.584  14.305
18979W        W90508   0.697  10.891  12.520
18980W        W90509   1.354  14.071  13.421
18981W        W90510  41.413   5.381  11.873
18982W        W90511  37.803  23.475   4.058
18983W        W90512  20.556  11.958   3.213
18984W        W90513  42.643  31.966   1.064
18985W        W90514  13.134   4.320  12.361
18986W        W90515  13.668  26.034  11.308
18987W        W90516  28.407   6.924   3.208
18988W        W90517   3.238  42.388   4.738
18989W        W90518  37.002  34.000  11.557
18990W        W90519  31.955   2.975   4.128
18991W        W90520  12.462  36.190  13.934
18992W        W90521  25.595  34.696   4.743
18993W        W90522  20.067  27.455  14.513
18994W        W90523   1.859  36.472   3.707
18995W        W90524   2.692   2.236  13.800
18996W        W90525   0.473   4.242   2.663
18997W        W90526   5.464  13.226  12.128
18998W        W90527  10.680  42.260  11.822
18999W        W90528  30.779  28.716  13.125
19000W        W90529  25.686  12.591   0.353
19001W        W90530   9.127  13.814   3.928
19002W        W90531  13.594  22.656   3.991
19003W        W90532  23.241   8.687  11.858
19004W        W90533   4.156  12.697  12.511
19005W        W90534  41.484  19.342  10.430
19006W        W90535  35.213   5.264  13.871
19007W        W90536  39.803  42.213   1.974
19008W        W90537  14.878  12.368   3.426
19009W        W90538  28.643   3.495  13.071
19010W        W90539  19.127  10.705  12.450
19011W        W90540   8.575  27.996  12.442
19012W        W90541  25.141  24.111  11.599
19013W        W90542  28.911  16.093   1.443
19014W        W90543  15.682   1.954   2.847
19015W        W90544  28.133  28.874   0.849
19016W        W90545  16.313  39.814   0.954
19017W        W90546   4.329  29.980   0.253
19018W        W90547   2.253  28.166  12.342
19019W        W90548  25.772  40.949  11.122
19020W        W90549  20.167   5.726   0.535
19021W        W90550  37.416  40.134  11.936
19022W        W90551  36.605  36.513   4.946
19023W        W90552  17.590   3.846   2.822
19024W        W90553  30.573   3.949   4.055
19025W        W90554  17.414  38.588  11.346
19026W        W90555   8.989   2.524  14.866
19027W        W90556   5.604  42.992  14.861
19028W        W90557  12.591  39.433   4.589
19029W        W90558  16.870   2.304  14.546
19030W        W90559   7.325   9.819  11.797
19031W        W90560  30.105  11.823   4.741
19032W        W90561  31.422  26.596   3.490
19033W        W90562  17.528  35.105   3.792
19034W        W90563  35.845  25.030   2.500
19035W        W90564  15.579  28.223   3.839
19036W        W90565  25.265  15.677  10.762
19037W        W90566  44.258  11.569  11.387
19038W        W90567  39.019  23.728   2.799
19039W        W90568  19.628  40.056   1.215
19040W        W90569  15.737  43.536   0.973
19041W        W90570   4.931  21.987   0.441
19042W        W90571  20.730  33.814   2.434
19043W        W90572  18.342  39.380   0.317
19044W        W90573   9.149  22.014  12.976
19045W        W90574  40.852  26.629  13.357
19046W        W90575   9.872  22.463   2.417
19047W        W90576  29.155   1.309  11.398
19048W        W90577  20.260  33.973  11.873
19049W        W90578  41.912  18.868  13.769
19050W        W90579  33.647  36.099  10.135
19051W        W90580  41.640  34.892  11.620
19052W        W90581  44.620  15.034  13.997
19053W        W90582  13.285  15.064  12.143
19054W        W90583  19.172  22.016  11.768
19055W        W90584  30.387  21.275  12.892
19056W        W90585  21.950  10.449   4.076
19057W        W90586  24.084  23.446   1.915
19058W        W90587   4.377  39.348  12.938
19059W        W90588  16.117   6.243   0.842
19060W        W90589  11.318   3.070  11.966
19061W        W90590  10.243   0.031   4.124
19062W        W90591   0.522  40.937   2.332
19063W        W90592  13.820   7.417   0.728
19064W        W90593   8.839   4.355   0.736
19065W        W90594   3.034  23.419  12.811
19066W        W90595   7.993   3.921  13.028
19067W        W90596  28.445  14.764  13.807
19068W        W90597  18.990  22.681  12.487
19069W        W90598  16.678  28.914   0.260
19070W        W90599  44.415   6.438   0.733
19071W        W90600   8.262  10.609   0.263
19072W        W90601  22.664  10.657  11.857
19073W        W90602  42.844   6.471  12.074
19074W        W90603  41.603  12.667   3.942
19075W        W90604  19.247   7.774   3.678
19076W        W90605  24.982   7.896   3.169
19077W        W90606  29.116  22.355  10.390
19078W        W90607  31.528  34.575   1.392
19079W        W90608  11.382  18.079  12.863
19080W        W90609  30.682  17.238  14.220
19081W        W90610  10.643   3.486  11.701
19082W        W90611   1.415   0.308  13.310
19083W        W90612  41.782  33.146   1.846
19084W        W90613  26.738  20.297   1.362
19085W        W90614  28.631  24.016   1.939
19086W        W90615  43.828  40.897   2.492
19087W        W90616  14.610  11.230  14.327
19088W        W90617  12.679  34.851   2.648
19089W        W90618  14.037  43.363   3.507
19090W        W90619  23.629  25.206  11.607
19091W        W90620   9.331  42.254  12.032
19092W        W90621  13.615  37.997  12.078
19093W        W90622  12.076  41.900   0.758
19094W        W90623  17.175  19.061   0.227
19095W        W90624  32.654  19.964  11.401
19096W        W90625  16.884  19.134  14.787
19097W        W90626  20.333  44.831  13.445
19098W        W90627  44.434  39.905   3.614
19099W        W90628   1.941  20.796  11.148
19100W        W90629  42.848  34.925   4.557
19101W        W90630  43.173  31.209  13.161
19102W        W90631   1.883  20.263   4.547
19103W        W90632  40.067  37.883  10.629
19104W        W90633  33.203  23.161   3.932
19105W        W90634  32.090  16.813  12.937
19106W        W90635  22.291  20.378   2.681
19107W        W90636  29.999  44.553  13.694
19108W        W90637  15.856  24.141   2.278
19109W        W90638  17.446  13.858   3.856
19110W        W90639   7.914  14.230  10.286
19111W        W90640  40.933  11.637  12.527
19112W        W90641   8.663  17.557  10.639
19113W        W90642  28.069  35.530   4.370
19114W        W90643   2.890  39.016  13.527
19115W        W90644   0.429  43.984  13.878
19116W        W90645  41.484   3.167   3.405
19117W        W90646  15.343  42.393   0.041
19118W        W90647  40.001  10.798  12.143
19119W        W90648  36.830  31.554  10.253
19120W        W90649  40.552  35.532   3.366
19121W        W90650  21.529  11.102  11.100
19122W        W90651   6.983  34.631   3.669
19123W        W90652  40.064   4.878   4.137
19124W        W90653  30.538  29.217   2.785
19125W        W90654  10.283  34.574  12.521
19126W        W90655  40.854  31.692  13.264
19127W        W90656  38.034  14.751   1.667
19128W        W90657  41.904  43.350  13.290
19129W        W90658   6.510   7.848   2.615
19130W        W90659   9.857   9.350  13.484
19131W        W90660  12.621  10.839  10.548
19132W        W90661   8.852  25.900  13.683
19133W        W90662  33.207   1.283  11.194
19134W        W90663  18.651  16.398   4.007
19135W        W90664  13.414  20.522   5.007
19136W        W90665  21.845  15.362  14.131
19137W        W90666  43.838  37.296  12.070
19138W        W90667  24.971  33.395  14.824
19139W        W90668  15.891  14.882   1.039
19140W        W90669   8.895  18.642  10.646
19141W        W90670  33.258   9.319   0.755
19142W        W90671  32.661  28.253   1.417
19143W        W90672  31.193  26.539  11.670
19144W        W90673  18.944   5.694   3.330
19145W        W90674  35.942  35.910   1.699
19146W        W90675  18.777  43.736   2.346
19147W        W90676  24.709  23.265  14.807
19148W        W90677  22.496  35.934   3.280
19149W        W90678  21.473   2.152  14.331
19150W        W90679  11.740  40.964   3.797
19151W        W90680  30.556  36.131   4.120
19152W        W90681  17.307   4.315  10.739
19153W        W90682  39.451  14.663  10.234
19154W        W90683  14.249   0.591   2.278
19155W        W90684   0.421   2.342  11.247
19156W        W90685  37.907  34.428  14.488
19157W        W90686  16.232  30.949  11.646
19158W        W90687  31.007   2.112   1.079
19159W        W90688  37.045  21.717  14.743
19160W        W90689  28.073  23.617  13.992
19161W        W90690  19.339  10.481   3.722
19162W        W90691  14.129  42.333  14.744
19163W        W90692  34.770   3.715  12.077
19164W        W90693  27.736  10.347  10.975
19165W        W90694  30.734  20.593  12.278
19166W        W90695  21.321   8.919  13.465
19167W        W90696  34.361  25.247  12.414
19168W        W90697  16.840   5.043   1.023
19169W        W90698  37.427   3.414   1.797
19170W        W90699   0.181  36.765   9.481
19171W        W90700  17.668   2.011  13.876
19172W        W90701  37.473   7.630   0.664
19173W        W90702  31.623  39.638  13.378
19174W        W90703  25.510  44.864   1.349
19175W        W90704  22.038  35.293   0.039
19176W        W90705  30.680  34.110   4.044
19177W        W90706   3.484   9.610  12.088
19178W        W90707  34.667   6.870  11.966
19179W        W90708  25.136  32.132  12.026
19180W        W90709  20.009   2.826  11.780
19181W        W90710  20.732  15.312   3.977
19182W        W90711  23.033  13.576  14.357
19183W        W90712  43.793  36.605  11.134
19184W        W90713  20.647  13.340   0.351
19185W        W90714  18.349   1.810  11.082
19186W        W90715  34.421   7.330   2.853
19187W        W90716  44.508   6.956   4.064
19188W        W90717   2.519  33.390   4.292
19189W        W90718  10.177  29.081  13.301
19190W        W90719  35.556  13.964  14.542
19191W        W90720  14.627  41.459   5.082
19192W        W90721   3.820  30.179  14.975
19193W        W90722  35.875  11.740  11.003
19194W        W90723   0.222  25.955  13.910
19195W        W90724  29.628  10.339  13.930
19196W        W90725  30.695  11.706   0.477
19197W        W90726  36.784  24.228   0.421
19198W        W90727  21.112  24.544   3.818
19199W        W90728   4.321   2.276   0.436
19200W        W90729   4.922  34.760  10.621
19201W        W90730  18.628  40.027   2.387
19202W        W90731  31.362  27.827  10.227
19203W        W90732  29.632  30.804   4.209
19204W        W90733  44.063  29.852  11.938
19205W        W90734  14.242  35.327  10.853
19206W        W90735  32.868  38.122  14.987
19207W        W90736  22.144  33.538  10.667
19208W        W90737   0.236  19.331   1.902
19209W        W90738  24.581  10.830   0.371
19210W        W90739  23.481   2.444   4.966
19211W        W90740   8.714   4.701  12.666
19212W        W90741  34.671  27.188  10.573
19213W        W90742  21.950  26.607   1.634
19214W        W90743  38.792   2.663   1.209
19215W        W90744  38.075  22.982   3.813
19216W        W90745  41.108  43.344   4.273
19217W        W90746  30.969  23.806  10.607
19218W        W90747  31.352  35.978   3.776
19219W        W90748  32.592  26.671   4.084
19220W        W90749  14.326  13.359   4.886
19221W        W90750  44.220  44.627   0.729
19222W        W90751  22.648   0.496   0.184
19223W        W90752   6.795  42.026  11.879
19224W        W90753  26.065  32.147   1.809
19225W        W90754   4.426  12.038   1.766
19226W        W90755  44.745  32.166   2.218
19227W        W90756  35.219  12.061   4.259
19228W        W90757  43.142  29.339   3.704
19229W        W90758  26.130  23.039   1.696
19230W        W90759   4.014   2.695   0.326
19231W        W90760  41.783   2.506   4.036
19232W        W90761   6.436   9.466  11.581
19233W        W90762  30.601  43.783   1.437
19234W        W90763  24.288  30.090   4.716
19235W        W90764  36.067  18.591  12.799
19236W        W90765  12.798   6.773   3.450
19237W        W90766  41.268   1.346   4.753
19238W        W90767  36.571  10.199   2.208
19239W        W90768  14.445  38.370   4.227
19240W        W90769  24.838  33.292   4.924
19241W        W90770   0.251  31.421  14.884
19242W        W90771  44.589  39.837   9.945
19243W        W90772   0.001   0.241  14.872
19244W        W90773  24.260  27.639  10.893
19245W        W90774  12.659  15.700  14.430
19246W        W90775   8.861  15.706  13.862
19247W        W90776  26.083   4.938   1.834
19248W        W90777  18.576   7.916  14.417
19249W        W90778   8.589   0.924   4.472
19250W        W90779  11.580  12.693  14.153
19251W        W90780  41.967   6.788  13.364
19252W        W90781  19.219  34.949  13.602
19253W        W90782   0.467  23.984   0.807
19254W        W90783   2.186  12.231  12.860
19255W        W90784   3.937  28.714   2.679
19256W        W90785  16.033  11.169   2.787
19257W        W90786  15.108  31.904  13.408
19258W        W90787  32.504   9.966  11.605
19259W        W90788  42.619  17.384   5.037
19260W        W90789   9.031   4.491   2.348
19261W        W90790  36.284  33.395  11.156
19262W        W90791  15.353  19.669   3.207
19263W        W90792  26.608   4.423   1.314
19264W        W90793  24.084  42.328  10.592
19265W        W90794   3.306   5.476  14.998
19266W        W90795  37.060   5.450  12.481
19267W        W90796  38.699  27.964   1.467
19268W        W90797  17.562  25.854  14.400
19269W        W90798  43.942   0.436  10.671
19270W        W90799  31.499   3.222   0.241
19271W        W90800  19.300  34.052   1.732
19272W        W90801  22.539  15.284   4.335
19273W        W90802  10.585  34.409  14.980
19274W        W90803   4.125   0.954   3.666
19275W        W90804  40.447  40.743  13.104
19276W        W90805  39.112   5.731   0.257
19277W        W90806  19.102  40.049   2.162
19278W        W90807  25.198  13.171   1.868
19279W        W90808   3.134  32.994  11.048
19280W        W90809   1.611  23.620  12.903
19281W        W90810  44.019  37.877   4.285
19282W        W90811   0.287  40.026   0.419
19283W        W90812   3.795   5.306  11.149
19284W        W90813  34.936  13.894   2.347
19285W        W90814  28.000  36.959  13.003
19286W        W90815   5.915  18.209   0.492
19287W        W90816   3.712  25.227   3.780
19288W        W90817  35.614  29.184  13.812
19289W        W90818   7.421   6.229  14.347
19290W        W90819  30.639  11.958   2.212
19291W        W90820  16.984  31.842   1.286
19292W        W90821  39.004  15.511   2.858
19293W        W90822  40.023  38.511  13.961
19294W        W90823  34.748  34.200  11.468
19295W        W90824  26.164  37.484  13.425
19296W        W90825  18.213  33.182  14.365
19297W        W90826  42.554  36.734   1.880
19298W        W90827  20.274  13.607   1.601
19299W        W90828  38.136  11.878   3.597
19300W        W90829   1.266  20.272  13.543
19301W        W90830  24.308   1.000   3.302
19302W        W90831  16.613   7.504   0.393
19303W        W90832  44.919  16.158  14.905
19304W        W90833  27.552  36.090  10.508
19305W        W90834  12.412  30.580   3.798
19306W        W90835  33.165  30.917   0.193
19307W        W90836  35.359  14.801  14.310
19308W        W90837  34.078   3.379  13.868
19309W        W90838   2.541  31.544   4.580
19310W        W90839  15.576  19.718  12.886
19311W        W90840  11.604  33.417   4.679
19312W        W90841  31.304   3.856   3.900
19313W        W90842   8.657   8.224  13.996
19314W        W90843   0.669  32.965  11.149
19315W        W90844  18.780  10.231  12.650
19316W        W90845  28.584  37.370  14.721
19317W        W90846   0.326  24.603   3.656
19318W        W90847  17.717  44.721  12.509
19319W        W90848  12.557  44.821  13.374
19320W        W90849   4.912  18.625  14.190
19321W        W90850  25.442  13.640   1.789
19322W        W90851  29.504  17.852  14.878
19323W        W90852  43.014  19.131   2.600
19324W        W90853  28.955  40.880   2.759
19325W        W90854   2.858   0.259   1.151
19326W        W90855  16.782  23.353   3.799
19327W        W90856  15.651  33.377  14.017
19328W        W90857  27.149  20.511   1.139
19329W        W90858  25.747  26.702  13.342
19330W        W90859  24.126  26.172   2.804
19331W        W90860  35.844   5.733   2.165
19332W        W90861  34.093  37.309  13.319
19333W        W90862   9.915   1.746  12.288
19334W        W90863   6.212  21.319   4.136
19335W        W90864  44.806  43.070   4.395
19336W        W90865  41.231  17.189  12.435
19337W        W90866  41.029   1.760   0.138
19338W        W90867   1.184  36.192  11.547
19339W        W90868  26.109  35.078  14.059
19340W        W90869  40.380  35.363  10.758
19341W        W90870  31.141  41.593  11.903
19342W        W90871  20.138  41.490   3.036
19343W        W90872  29.682  32.211   2.329
19344W        W90873  23.643  44.181  14.967
19345W        W90874  10.965  28.718   1.685
19346W        W90875  24.972  41.578   0.829
19347W        W90876  26.989   4.106   1.595
19348W        W90877  26.572   5.420   1.182
19349W        W90878  24.652   1.252  11.060
19350W        W90879  12.855  10.326   0.343
19351W        W90880  42.042  30.866  11.085
19352W        W90881   9.710  38.075   4.808
19353W        W90882  22.964  28.039  13.061
19354W        W90883   4.413  21.326   1.512
19355W        W90884  28.449  41.028   2.642
19356W        W90885  28.921  37.080   4.162
19357W        W90886   8.015  22.662  12.887
19358W        W90887  34.002   3.209  13.378
19359W        W90888   1.484   4.036  11.505
19360W        W90889  20.599   1.943   1.242
19361W        W90890  22.024   6.690  11.522
19362W        W90891  30.076  26.697   1.884
19363W        W90892   6.367  19.157   3.166
19364W        W90893  21.118   8.894   0.398
19365W        W90894  10.559  17.464  14.476
19366W        W90895  23.721   9.114   3.654
19367W        W90896  34.905  40.240  13.558
19368W        W90897  31.774  25.689  11.707
19369W        W90898   6.809  24.616   2.975
19370W        W90899  42.269  32.197  12.979
19371W        W90900  33.967  27.876   3.745
19372W        W90901  36.259  34.396  12.018
19373W        W90902   9.457   4.411   2.645
19374W        W90903   6.814  17.789  12.083
19375W        W90904  11.093  29.557   2.623
19376W        W90905  37.842   7.648   2.315
19377W        W90906  17.859  15.248  14.450
19378W        W90907  31.101   6.737  13.057
19379W        W90908  41.782  20.240  11.233
19380W        W90909  24.978   8.895   3.390
19381W        W90910  27.022   0.967  12.674
19382W        W90911   5.936  43.028  13.050
19383W        W90912   8.947  15.068   1.890
19384W        W90913  15.690  36.124   0.869
19385W        W90914   7.075  36.474  12.742
19386W        W90915   3.495  41.196   4.094
19387W        W90916  44.701  12.592   4.777
19388W        W90917  39.697  16.376   2.288
19389W        W90918   0.312  16.776  12.498
19390W        W90919  26.210   8.251  11.296
19391W        W90920  29.584  44.536  12.603
19392W        W90921   3.245  14.100   1.335
19393W        W90922   2.128  11.021  14.828
19394W        W90923  37.511  30.588   3.314
19395W        W90924  18.645  37.041   2.922
19396W        W90925  38.853  22.056   0.845
19397W        W90926  37.869  12.389  10.719
19398W        W90927  20.188  28.818  12.244
19399W        W90928  17.645  37.940  12.936
19400W        W90929  28.434  18.776   0.787
19401W        W90930  22.768  19.823   1.191
19402W        W90931  42.334  35.393  14.908
19403W        W90932  35.350   1.896   3.630
19404W        W90933   4.370  31.374  10.501
19405W        W90934   4.146  33.429  14.428
19406W        W90935  17.324  38.898  10.582
19407W        W90936  29.022  26.902   4.290
19408W        W90937  29.984  21.331   2.336
19409W        W90938   0.542   9.644   0.450
19410W        W90939  35.384  13.688   0.854
19411W        W90940  42.814  18.690  10.710
19412W        W90941  25.113  28.098  14.483
19413W        W90942   3.569   6.785  12.383
19414W        W90943  22.209  12.743  10.726
19415W        W90944  40.514  17.726  13.155
19416W        W90945   1.877  14.891  10.672
19417W        W90946  41.727  39.502  10.551
19418W        W90947  21.944  13.867  11.494
19419W        W90948  36.950  36.530  11.567
19420W        W90949  35.156  40.348  14.509
19421W        W90950   1.453  27.122   1.980
19422W        W90951  15.030  30.957  12.135
19423W        W90952   2.354  38.446   4.596
19424W        W90953   9.143  23.212   4.152
19425W        W90954  42.431  10.293   2.273
19426W        W90955  17.590  19.616  12.799
19427W        W90956  33.399   4.658  14.470
19428W        W90957   1.263   5.342  10.897
19429W        W90958  31.557  43.148  14.824
19430W        W90959  38.320  36.404   2.164
19431W        W90960  35.650  36.325   2.726
19432W        W90961  20.285   3.097  12.154
19433W        W90962  10.512  28.286   3.672
19434W        W90963   7.315  43.841  12.080
19435W        W90964  44.301  19.243  13.912
19436W        W90965  16.185  17.788   4.168
19437W        W90966  24.170   7.810  12.829
19438W        W90967  19.234   4.452   2.331
19439W        W90968  27.498  16.849   4.444
19440W        W90969  40.813  25.474   2.666
19441W        W90970  33.577  17.524   4.078
19442W        W90971   8.737  23.965   3.988
19443W        W90972  17.592  13.389   3.761
19444W        W90973  20.458   9.496  13.868
19445W        W90974  37.737  23.689  10.560
19446W        W90975  14.664  16.271  13.787
19447W        W90976  20.520  37.904  13.355
19448W        W90977  18.508   4.865  12.577
19449W        W90978   3.443   0.173   4.199
19450W        W90979  31.381  16.179  11.760
19451W        W90980  42.902  22.678   3.134
19452W        W90981  22.679  10.326   0.014
19453W        W90982  12.232   4.783  11.194
19454W        W90983  25.383  15.831   1.307
19455W        W90984  17.167   5.523  12.016
19456W        W90985  11.631   7.850  12.048
19457W        W90986  40.872  44.754  14.553
19458W        W90987  43.098  20.316  13.022
19459W        W90988   6.671  43.045  13.414
19460W        W90989   0.626  28.719  11.862
19461W        W90990  34.348  35.019   0.690
19462W        W90991  26.150  38.929  14.859
19463W        W90992  42.368  32.004   3.821
19464W        W90993  17.894   2.345   0.729
19465W        W90994  25.509  26.522   1.476
19466W        W90995  42.003  33.623  11.847
19467W        W90996  19.693  12.164   3.173
19468W        W90997  39.310  39.354  14.023
19469W        W90998  11.847  30.639  14.343
19470W        W90999  31.871  27.700  14.495
19471W        W91000  23.333  22.792   4.163
19472W        W91001  20.100  11.348  13.117
19473W        W91002  36.415  11.277  11.606
19474W        W91003   3.830   7.130   2.214
19475W        W91004  25.355  21.156   4.168
19476W        W91005  29.502  24.679  10.475
19477W        W91006   6.088  16.140  14.481
19478W        W91007  17.996  12.577   1.213
19479W        W91008  28.097   0.272   0.082
19480W        W91009  24.303  10.336  11.533
19481W        W91010  42.892   5.162  14.372
19482W        W91011   0.006  27.017   0.026
19483W        W91012   9.991   4.259   3.499
19484W        W91013   7.161  34.516  13.274
19485W        W91014  10.697   4.323   0.957
19486W        W91015  20.320  18.163  14.482
19487W        W91016  12.746   0.450  10.988
19488W        W91017  27.830  32.177   4.254
19489W        W91018   1.441  30.651   1.452
19490W        W91019  37.418   2.559  14.407
19491W        W91020  21.555  10.082   0.470
19492W        W91021  13.245  17.521   4.655
19493W        W91022   4.752  32.716  12.382
19494W        W91023  31.998  25.717   2.214
19495W        W91024   5.504  21.909  12.682
19496W        W91025   8.271  25.381  14.318
19497W        W91026  28.104   8.715   4.585
19498W        W91027  35.348  16.132   0.373
19499W        W91028  15.726  21.455   0.242
19500W        W91029  25.589   5.232   0.767
19501W        W91030   9.639   5.764   1.630
19502W        W91031  27.151  26.755  11.658
19503W        W91032   2.450  41.444   4.068
19504W        W91033  33.131  12.371   0.311
19505W        W91034   5.692  36.010   1.911
19506W        W91035   2.993  26.534  12.434
19507W        W91036  37.055  43.554  12.886
19508W        W91037  24.642  30.301   4.066
19509W        W91038  36.527  10.467   1.747
19510W        W91039  23.221   3.381   1.876
19511W        W91040   4.747   9.759  12.693
19512W        W91041  32.836  43.476  13.564
19513W        W91042  35.650   9.108   0.883
19514W        W91043   4.453  10.122   5.067
19515W        W91044  15.451  18.426   4.460
19516W        W91045  42.739  10.442   1.136
19517W        W91046   7.361  44.217   0.317
19518W        W91047  43.396  12.421   1.915
19519W        W91048   5.733  10.174   3.789
19520W        W91049  40.449  29.245  11.564
19521W        W91050  34.838  23.736  11.992
19522W        W91051  35.075  10.179  14.491
19523W        W91052  37.858  24.158   1.231
19524W        W91053  21.493  17.649  12.635
19525W        W91054   1.471  23.323  12.509
19526W        W91055  34.996  33.166  10.633
19527W        W91056  37.464  37.844   3.248
19528W        W91057  32.872  16.108   0.469
19529W        W91058  39.573   2.863   4.588
19530W        W91059  26.673  10.643  11.887
19531W        W91060  21.174   6.679   4.280
19532W        W91061   9.587  38.189  13.115
19533W        W91062  25.056  38.317   1.512
19534W        W91063  31.381  15.828  13.342
19535W        W91064  14.349  27.945   4.509
19536W        W91065  15.709   8.182   4.137
19537W        W91066   4.823  25.079  12.531
19538W        W91067  39.894  21.624   2.613
19539W        W91068  29.922  29.426   1.136
19540W        W91069  25.680   3.917   1.890
19541W        W91070  40.461  21.031   3.171
19542W        W91071  14.698   6.694  12.982
19543W        W91072  27.352  18.546   4.127
19544W        W91073  26.478  38.624  11.160
19545W        W91074   0.994  35.142  14.550
19546W        W91075  15.849   9.724  11.835
19547W        W91076   2.262  28.649  12.084
19548W        W91077   1.709  25.523  11.467
19549W        W91078  22.563  42.941  13.257
19550W        W91079  25.183   7.864   0.234
19551W        W91080  24.702  38.780  13.334
19552W        W91081   1.854  44.368  13.486
19553W        W91082  38.148  28.584  12.432
19554W        W91083   1.765  43.849  13.452
19555W        W91084  27.587  15.507  11.873
19556W        W91085   8.338  31.644   3.168
19557W        W91086  41.750  17.225   0.331
19558W        W91087  12.582   0.781  11.336
19559W        W91088   5.320  18.073  12.539
19560W        W91089   5.157  12.876   3.283
19561W        W91090   0.906  29.385   0.304
19562W        W91091  31.053  16.862  14.163
19563W        W91092   2.029  36.646  12.988
19564W        W91093  13.853  36.798   3.169
19565W        W91094   4.958  40.461   1.389
19566W        W91095  29.486  30.620   1.020
19567W        W91096   4.888  28.187   2.570
19568W        W91097   2.701   4.750  14.905
19569W        W91098  27.295   7.174   4.601
19570W        W91099   7.326  34.483  13.751
19571W        W91100  43.399  38.559   1.307
19572W        W91101  31.352   9.831  10.709
19573W        W91102  41.876  33.925   2.598
19574W        W91103  36.812   1.150   3.246
19575W        W91104  40.822  22.617   3.665
19576W        W91105  11.866  19.757   3.645
19577W        W91106   9.321  35.531   3.339
19578W        W91107  24.282  39.856   4.956
19579W        W91108  24.718  33.579   3.672
19580W        W91109  25.919   3.420  11.224
19581W        W91110  32.979   1.413   1.236
19582W        W91111  23.520   4.209   4.181
19583W        W91112  35.382  32.109   3.712
19584W        W91113  17.997  36.336  14.314
19585W        W91114  42.098  17.652  14.143
19586W        W91115   6.151  43.030  14.649
19587W        W91116  25.001  37.979   2.860
19588W        W91117   7.757  19.533   4.097
19589W        W91118  40.498  28.671   0.346
19590W        W91119  44.740   0.444   0.259
19591W        W91120  15.188  31.809   4.917
19592W        W91121   2.032   8.786  13.507
19593W        W91122  24.850  42.721  11.003
19594W        W91123  16.374   4.824   0.891
19595W        W91124  43.421   0.881   1.435
19596W        W91125  13.650  35.909   0.722
19597W        W91126  22.259   0.013   0.648
19598W        W91127  25.006  14.139   1.290
19599W        W91128  44.723  27.602  11.817
19600W        W91129  42.199  32.432   4.097
19601W        W91130  15.352  39.110   2.752
19602W        W91131  41.379   8.823  13.938
19603W        W91132   2.506   7.857   1.310
19604W        W91133  27.520  42.443  12.661
19605W        W91134  24.713  35.126  11.945
19606W        W91135  36.023  40.955   0.275
19607W        W91136  16.614  37.529  13.152
19608W        W91137  34.530  43.183   3.272
19609W        W91138  12.190  22.269  13.056
19610W        W91139  12.755  12.653   1.190
19611W        W91140  41.328  37.055   3.748
19612W        W91141  22.021  42.037   1.082
19613W        W91142  43.552  25.281  14.114
19614W        W91143  33.916  21.104   2.252
19615W        W91144   2.794  26.907  13.764
19616W        W91145  37.453   2.682   0.525
19617W        W91146  20.204  44.197  11.217
19618W        W91147  36.798  36.772   4.213
19619W        W91148  29.955  29.468   3.532
19620W        W91149  10.821  42.455   2.342
19621W        W91150  10.406  15.412   0.221
19622W        W91151  43.310   3.236  13.044
19623W        W91152  15.400  44.519   2.347
19624W        W91153   9.392   5.171  14.392
19625W        W91154   7.494  34.037  13.943
19626W        W91155  26.026  36.128   2.013
19627W        W91156  15.127  41.577  14.279
19628W        W91157  16.713  31.557  10.953
19629W        W91158  15.131  12.405   1.730
19630W        W91159   2.672   8.738   1.357
19631W        W91160  38.902  44.770   1.040
19632W        W91161  44.889  24.360  11.855
19633W        W91162  22.379  25.154  11.689
19634W        W91163  33.920  25.503   1.794
19635W        W91164  39.041  37.730   3.752
19636W        W91165  12.115  36.437   0.304
19637W        W91166  44.189  44.400   2.228
19638W        W91167  21.690  14.602  11.431
19639W        W91168  10.712  14.207  12.860
19640W        W91169   1.939  43.052  12.957
19641W        W91170  30.425   9.238  13.282
19642W        W91171  29.296   0.035  12.504
19643W        W91172   6.982  29.651   3.141
19644W        W91173  35.653  11.339   0.142
19645W        W91174   1.827   9.674  14.497
19646W        W91175  32.010  21.580   1.771
19647W        W91176   7.782   3.925   0.378
19648W        W91177  23.146  11.279  10.989
19649W        W91178   5.427  23.661   1.352
19650W        W91179  33.697  14.678  10.293
19651W        W91180  41.818  29.388  10.697
19652W        W91181  11.092  29.046  12.052
19653W        W91182  37.128   8.179   2.404
19654W        W91183  33.195  12.575  14.395
19655W        W91184  44.010  31.594   0.408
19656W        W91185  19.927   0.908  12.110
19657W        W91186  21.196  16.702   2.807
19658W        W91187   6.359   0.389  10.757
19659W        W91188  19.587  33.972  12.373
19660W        W91189  21.851   9.448   3.308
19661W        W91190   2.847   4.849   0.423
19662W        W91191   8.265  39.882  11.248
19663W        W91192  41.603  24.662  11.176
19664W        W91193   1.436  40.566   4.206
19665W        W91194   6.380  24.200  11.097
19666W        W91195  12.416  20.781  14.637
19667W        W91196  38.917  16.742  10.604
19668W        W91197  26.236  32.127  13.525
19669W        W91198  25.621  27.691  12.483
19670W        W91199   3.252  22.750   1.248
19671W        W91200   7.247   5.413   2.308
19672W        W91201  39.328  30.418  12.578
19673W        W91202  41.604  15.775   2.189
19674W        W91203  25.525  30.060   3.687
19675W        W91204  31.108  24.639  11.493
19676W        W91205  33.553   9.932  12.057
19677W        W91206  40.553  41.084   3.537
19678W        W91207  20.192  26.502   0.831
19679W        W91208  10.384  22.539  11.378
19680W        W91209   3.497   2.726   0.338
19681W        W91210  14.043  44.595  14.407
19682W        W91211  23.965  29.368   1.043
19683W        W91212  22.601  38.490  12.193
19684W        W91213  34.129  14.771   2.901
19685W        W91214   6.623  43.061  11.950
19686W        W91215  28.531  26.106   0.317
19687W        W91216  18.674   0.449   4.669
19688W        W91217  36.727  17.465  14.024
19689W        W91218  44.249  15.313   3.821
19690W        W91219  28.255  39.733   0.177
19691W        W91220  26.219  28.595  13.876
19692W        W91221  26.021  11.315   4.241
19693W        W91222  15.829  41.526   3.196
19694W        W91223  44.394  13.222  12.383
19695W        W91224   3.206  12.190   3.557
19696W        W91225  39.937  33.380  12.492
19697W        W91226  15.569  23.257  13.882
19698W        W91227  29.467  32.032  12.102
19699W        W91228  42.376  44.332  13.823
19700W        W91229  16.347   8.014  10.278
19701W        W91230  24.743  28.285  13.753
19702W        W91231   0.031  26.111  12.030
19703W        W91232   7.131  16.591  11.065
19704W        W91233  10.292  20.276  13.934
19705W        W91234  24.022   8.345   3.272
19706W        W91235  20.966  43.256  12.134
19707W        W91236  22.909   5.642  10.764
19708W        W91237  32.830  12.938  10.975
19709W        W91238  29.989  12.201   1.851
19710W        W91239  40.201  10.235   3.272
19711W        W91240  23.657  43.289   0.779
19712W        W91241  34.381  19.277   0.918
19713W        W91242  16.273  12.735  11.583
19714W        W91243  11.643  16.349  10.757
19715W        W91244  36.004  32.047   4.564
19716W        W91245  24.621  21.052  13.018
19717W        W91246   3.657  10.850  14.353
19718W        W91247   7.896  20.631  11.409
19719W        W91248  12.055  15.135  14.900
19720W        W91249   4.690  39.068  10.797
19721W        W91250  19.720  15.155  14.709
19722W        W91251  38.707  15.378   0.271
19723W        W91252  39.361  34.146   2.631
19724W        W91253  27.994   6.860  10.128
19725W        W91254  40.070   7.438  11.153
19726W        W91255  40.916  20.776   3.261
19727W        W91256  23.363  43.904  11.421
19728W        W91257  30.374  37.618  13.656
19729W        W91258   2.234  21.144   2.037
19730W        W91259  44.142  25.095  10.939
19731W        W91260  40.417  12.120   2.727
19732W        W91261  14.835  26.682   3.626
19733W        W91262  27.525   4.338  10.672
19734W        W91263  10.705  38.910   3.301
19735W        W91264  31.321   8.349   0.183
19736W        W91265  28.634  19.340   3.567
19737W        W91266  22.760   8.384   3.711
19738W        W91267  26.427  17.112  12.202
19739W        W91268  15.208  29.666  11.891
19740W        W91269   8.246  41.355  11.339
19741W        W91270  38.745  43.939   0.007
19742W        W91271  39.055  44.676   2.695
19743W        W91272  24.458  27.743  13.096
19744W        W91273  39.541  16.618  14.868
19745W        W91274  27.049  36.911   3.372
19746W        W91275  24.738  33.318   3.244
19747W        W91276  35.275   7.844   4.572
19748W        W91277  14.652  13.343   3.809
19749W        W91278  28.076   4.749  14.065
19750W        W91279  25.795  34.382   2.790
19751W        W91280  34.949  29.567  14.319
19752W        W91281  40.385  37.637   5.053
19753W        W91282  15.089   0.349   2.246
19754W        W91283   8.312  24.697   1.246
19755W        W91284  17.248  41.466  12.893
19756W        W91285   3.871  31.051  12.134
19757W        W91286   9.218  18.788  10.229
19758W        W91287   5.130  38.166  13.914
19759W        W91288   8.942  28.210   3.109
19760W        W91289  27.111  11.779  13.264
19761W        W91290  18.990  34.926  11.136
19762W        W91291  40.839  12.188   1.272
19763W        W91292   2.351  14.679  13.611
19764W        W91293  38.166   3.130   1.469
19765W        W91294  17.248  18.690   1.866
19766W        W91295  35.055   7.343  13.422
19767W        W91296  25.449   9.132   1.929
19768W        W91297  43.315  16.165   2.483
19769W        W91298   8.104  14.462   5.051
19770W        W91299  12.136  36.100   1.253
19771W        W91300  24.102  41.129   3.572
19772W        W91301  14.384  20.559   0.056
19773W        W91302  32.013   6.325   2.189
19774W        W91303  34.795   3.774  13.803
19775W        W91304   9.811  25.650   0.944
19776W        W91305   5.580   3.776  10.498
19777W        W91306  11.352   4.332  12.170
19778W        W91307  39.804  13.646  14.992
19779W        W91308  19.984  33.321   0.290
19780W        W91309  43.770  39.170   1.742
19781W        W91310  27.475  12.794   0.894
19782W        W91311  27.189  24.904  12.374
19783W        W91312  42.993  33.600   3.993
19784W        W91313  41.298  39.075  11.113
19785W        W91314  20.611   6.107   4.684
19786W        W91315  11.207  28.807  12.499
19787W        W91316  22.279  10.403  11.148
19788W        W91317  23.144   7.714   1.281
19789W        W91318   9.263  29.939   3.176
19790W        W91319  22.068  33.383  14.577
19791W        W91320  14.550  23.219  13.879
19792W        W91321   3.167  15.311   1.771
19793W        W91322   4.625   1.328   4.255
19794W        W91323  26.979  31.927   0.435
19795W        W91324  34.649  14.191  11.197
19796W        W91325  35.922  42.559   0.304
19797W        W91326   4.260  29.115  10.594
19798W        W91327  38.621  25.138  10.900
19799W        W91328  40.950  30.588  14.711
19800W        W91329  28.669  41.017  11.579
19801W        W91330  24.545  27.444   5.000
19802W        W91331  12.266  44.442  11.396
19803W        W91332  23.535  33.849  12.001
19804W        W91333  19.715  25.221  13.884
19805W        W91334  40.943  18.220   3.136
19806W        W91335  19.084  28.905   3.261
19807W        W91336  23.509  18.089  12.382
19808W        W91337  21.696  32.983  11.130
19809W        W91338  16.104  22.123   4.091
19810W        W91339   4.101   6.136  11.979
19811W        W91340   2.550  42.388  10.673
19812W        W91341   6.043  27.859   3.683
19813W        W91342   3.945  25.897  10.752
19814W        W91343  12.910  30.328   1.795
19815W        W91344  38.213  34.489  13.114
19816W        W91345  33.455  38.028   0.921
19817W        W91346  38.044   7.197  10.870
19818W        W91347  44.278  12.657   1.208
19819W        W91348  32.900  18.562   3.648
19820W        W91349  44.325  26.003   2.874
19821W        W91350  38.034  13.439  11.981
19822W        W91351  23.437  35.565  11.132
19823W        W91352   4.198  14.866   4.542
19824W        W91353  39.370  21.342  14.538
19825W        W91354  40.363  40.555  11.573
19826W        W91355  33.895   3.450   0.701
19827W        W91356  15.227  32.048  13.888
19828W        W91357   8.829  38.929   3.744
19829W        W91358   0.459   2.590  13.659
19830W        W91359  34.164  36.422   2.644
19831W        W91360  28.667  14.088   3.925
19832W        W91361   9.340  27.710   4.197
19833W        W91362   8.478  22.969  13.035
19834W        W91363  32.619   1.897   4.263
19835W        W91364  11.218  28.711   0.818
19836W        W91365  33.345  25.346  11.297
19837W        W91366  28.634  37.353   0.274
19838W        W91367   0.348   2.312   3.310
19839W        W91368   5.891  29.010   3.697
19840W        W91369  29.937  39.922  12.029
19841W        W91370   5.950   3.129   4.797
19842W        W91371  16.212  18.875  12.327
19843W        W91372  39.294  11.826  12.609
19844W        W91373  25.794  19.225   3.658
19845W        W91374  15.575   8.252  10.699
19846W        W91375  23.763  20.695   1.956
19847W        W91376  43.994  10.955   4.755
19848W        W91377  39.414  41.175  12.458
19849W        W91378  41.285  41.999   4.122
19850W        W91379  13.750   1.293  11.482
19851W        W91380  21.969  44.346  12.076
19852W        W91381  31.115  27.515  11.271
19853W        W91382  37.974  32.088  12.061
19854W        W91383   8.411  14.182  13.342
19855W        W91384   3.500  41.873   1.869
19856W        W91385  23.012   8.003  12.390
19857W        W91386   5.502  36.441  10.642
19858W        W91387  13.675  24.924   3.648
19859W        W91388  30.446  27.552   0.503
19860W        W91389   7.346   7.602   0.288
19861W        W91390  18.902  22.005   2.889
19862W        W91391   6.975  32.827   4.289
19863W        W91392  28.931  26.187  13.750
19864W        W91393  31.285  17.274  11.281
19865W        W91394   9.585  38.005  11.943
19866W        W91395  34.371  39.159   3.533
19867W        W91396  38.556  20.171   4.767
19868W        W91397   2.649   9.395   1.898
19869W        W91398  24.511   8.195  12.980
19870W        W91399   2.188   2.874  12.620
19871W        W91400   8.567  44.631   2.864
19872W        W91401   9.154  17.686   4.637
19873W        W91402   6.934  16.631   2.934
19874W        W91403   6.694  32.599   3.927
19875W        W91404  23.137  33.009   0.783
19876W        W91405  13.225  28.546  14.753
19877W        W91406  39.885   2.300  13.548
19878W        W91407   5.260  27.859  10.823
19879W        W91408   1.093  19.365   9.640
19880W        W91409  12.868  17.324  13.614
19881W        W91410  41.778   1.187   1.691
19882W        W91411  20.748  13.011   5.032
19883W        W91412   9.383  41.554  11.695
19884W        W91413  30.051  27.671   4.524
19885W        W91414   6.717  21.608  14.899
19886W        W91415  16.382   6.799   2.656
19887W        W91416  14.570   2.015   0.949
19888W        W91417  10.640  19.295  14.033
19889W        W91418  26.643  29.666   0.396
19890W        W91419  42.995  20.025  13.942
19891W        W91420  33.916  28.588   4.944
19892W        W91421  10.703  15.763  13.029
19893W        W91422  31.010  30.931   4.855
19894W        W91423  36.078  44.473  12.921
19895W        W91424  44.922   8.379  13.474
19896W        W91425  16.678  19.785   3.659
19897W        W91426   4.091  32.430   2.718
19898W        W91427  38.318  35.301   4.074
19899W        W91428   6.830  42.812  10.588
19900W        W91429  40.951  19.672   4.135
19901W        W91430  20.180  27.983  13.974
19902W        W91431  44.034   4.974  11.169
19903W        W91432  34.502  15.292   3.018
19904W        W91433  12.548  40.692   4.178
19905W        W91434  24.565  34.439  14.216
19906W        W91435  32.361  31.479  12.692
19907W        W91436  27.093  35.152  11.636
19908W        W91437  10.366  12.107   2.884
19909W        W91438  41.375  23.258   1.670
19910W        W91439  22.203  24.039   0.024
19911W        W91440  31.532  29.231  11.171
19912W        W91441  16.648  36.626   0.552
19913W        W91442  15.192  27.157   0.378
19914W        W91443  13.673   3.247   3.255
19915W        W91444  10.746  28.492   0.742
19916W        W91445  44.931  15.411  13.781
19917W        W91446  11.859  15.269  14.435
19918W        W91447  37.485  39.276   1.968
19919W        W91448  28.096  20.185   0.741
19920W        W91449   1.720  30.490  10.639
19921W        W91450  39.959   7.834   1.801
19922W        W91451  25.756   1.275  10.944
19923W        W91452  34.378  23.482   2.338
19924W        W91453  28.580   7.397  14.366
19925W        W91454  31.153  14.305  12.343
19926W        W91455  11.911  30.095   1.059
19927W        W91456   1.294  14.215   4.726
19928W        W91457  22.126   2.058  11.685
19929W        W91458  42.569  36.955  13.470
19930W        W91459  10.133  41.575   4.158
19931W        W91460  39.534  38.462   1.191
19932W        W91461  25.720  32.655  13.693
19933W        W91462  10.750   2.530   3.597
19934W        W91463  14.046  15.036  10.560
19935W        W91464  36.835  10.554   0.934
19936W        W91465  42.191  36.453   2.125
19937W        W91466  39.891  32.380  13.518
19938W        W91467  11.421  37.895  11.294
19939W        W91468   1.752   1.516  11.600
19940W        W91469  35.906  20.333   1.942
19941W        W91470   9.997  11.708  14.556
19942W        W91471  43.091  43.823  10.736
19943W        W91472  43.728  18.469   2.782
19944W        W91473   1.492  15.555  11.783
19945W        W91474   9.553  33.103   1.617
19946W        W91475  34.872  44.283  13.387
19947W        W91476  13.173  44.478  11.987
19948W        W91477  13.747  20.650  10.665
19949W        W91478  37.555   2.027  10.895
19950W        W91479  26.977  10.732   1.415
19951W        W91480   1.904  43.299  14.079
19952W        W91481  30.203  38.961  11.564
19953W        W91482  13.514  25.036   4.801
19954W        W91483  31.178  15.659  13.803
19955W        W91484  26.085   5.638  11.453
19956W        W91485  39.140  16.950  11.115
19957W        W91486  24.645   6.583   3.497
19958W        W91487  37.343  13.689   0.945
19959W        W91488  21.016  24.142   2.546
19960W        W91489  36.550  34.756   1.916
19961W        W91490  33.464  32.220   3.742
19962W        W91491  30.404  35.797  13.806
19963W        W91492   6.493   4.306  13.405
19964W        W91493  23.416  18.319   1.063
19965W        W91494  24.737  18.445   3.365
19966W        W91495  41.034   4.039   2.696
19967W        W91496  29.734  22.569  11.579
19968W        W91497  43.858  12.091   1.755
19969W        W91498  23.347  15.261  11.001
19970W        W91499  14.574  28.018  11.622
19971W        W91500  19.725   5.224  14.100
19972W        W91501  39.273   6.272   0.315
19973W        W91502   5.979  37.573   1.894
19974W        W91503  26.254  39.358  11.669
19975W        W91504  13.662  16.418   0.463
19976W        W91505  18.974  27.237   2.422
19977W        W91506  18.350  29.055  11.745
19978W        W91507  41.476  22.678  13.570
19979W        W91508   0.317  11.068   4.640
19980W        W91509  33.850  18.122  14.974
19981W        W91510  41.483  21.172  10.875
19982W        W91511  19.732   1.373   0.365
19983W        W91512   9.090  30.487  10.331
19984W        W91513  13.024  18.530  14.218
19985W        W91514  14.857  20.005   4.594
19986W        W91515  22.953  33.897   4.770
19987W        W91516  38.610  21.209   1.752
19988W        W91517  32.649  15.738   3.226
19989W        W91518  19.654  14.352   0.299
19990W        W91519  11.303   6.036   0.489
19991W        W91520  14.192  28.702  12.358
19992W        W91521  41.043  10.144  13.751
19993W        W91522   4.670  32.908   3.225
19994W        W91523  23.947   2.306   0.816
19995W        W91524   6.617   9.134   0.292
19996W        W91525  44.738  40.376  11.987
19997W        W91526   3.969  35.820   3.250
19998W        W91527  27.422  18.819   4.557
19999W        W91528  40.374   5.127   4.602
20000W        W91529  44.292  26.174  10.681
20001W        W91530   3.867   5.974  10.761
20002W        W91531  25.685  16.776  13.015
20003W        W91532  17.222  24.716   2.780
20004W        W91533   9.414   9.909  12.419
20005W        W91534   3.501  12.604   3.721
20006W        W91535   0.302  33.602   0.199
20007W        W91536  18.850   8.277   1.411
20008W        W91537  17.138  14.656   2.303
20009W        W91538  31.554  13.351   3.405
20010W        W91539  42.038  34.845  14.851
20011W        W91540   0.897  36.389   2.842
20012W        W91541  18.035  39.036  14.461
20013W        W91542  20.209  24.476   1.481
20014W        W91543  36.879  14.581  13.058
20015W        W91544   2.563  12.591   2.176
20016W        W91545   1.057   8.557  11.323
20017W        W91546  10.222  12.118  12.494
20018W        W91547  34.087  43.354  14.244
20019W        W91548  15.268  19.696   4.678
20020W        W91549  26.987  33.428   1.708
20021W        W91550  41.743  19.333   2.804
20022W        W91551  18.667  30.223   1.302
20023W        W91552  23.076  35.634   4.143
20024W        W91553  10.874   8.265   1.775
20025W        W91554   1.546  31.891   3.749
20026W        W91555   8.576  33.979  14.208
20027W        W91556   9.886  31.031   1.960
20028W        W91557  24.459  40.035  10.824
20029W        W91558  44.777  24.218  14.469
20030W        W91559  41.491  29.564   1.468
20031W        W91560  32.835   4.267  12.892
20032W        W91561  25.687  43.440   4.882
20033W        W91562  40.004  30.078   1.189
20034W        W91563  17.401  36.814  12.474
20035W        W91564  44.945  11.370  11.188
20036W        W91565   3.289  21.539   3.354
20037W        W91566  26.651   8.704  14.313
20038W        W91567  40.812  32.580   0.455
20039W        W91568  10.295  44.207  11.590
20040W        W91569   6.013   8.896   0.324
20041W        W91570  23.188   7.657   4.125
20042W        W91571  18.664   4.566   0.398
20043W        W91572  34.847  27.649  13.624
20044W        W91573  17.008  23.271   1.366
20045W        W91574  33.129  18.613  11.621
20046W        W91575   2.196  24.159  13.335
20047W        W91576   1.446  39.263  10.657
20048W        W91577  12.168   0.554  12.244
20049W        W91578   0.633  32.548   3.167
20050W        W91579  40.339   5.290   1.905
20051W        W91580   9.397   2.851  11.976
20052W        W91581  18.628  28.640   3.283
20053W        W91582   8.875  42.892   1.290
20054W        W91583  23.984  19.465   2.722
20055W        W91584  34.695   8.744  12.062
20056W        W91585  20.741   4.249   4.942
20057W        W91586  40.965  24.220   4.428
20058W        W91587  26.412  39.344   0.460
20059W        W91588  41.895  41.847  10.645
20060W        W91589  11.622  40.936  12.851
20061W        W91590   6.490  41.871   2.654
20062W        W91591  24.369  26.279   0.961
20063W        W91592  24.065  30.871   0.893
20064W        W91593  41.514  33.882  11.995
20065W        W91594  12.843  40.953   2.847
20066W        W91595  27.458  43.687   0.955
20067W        W91596  26.112  36.795  11.595
20068W        W91597  18.071  39.408  10.753
20069W        W91598  24.956  12.244   2.733
20070W        W91599  35.051  32.940  14.067
20071W        W91600   7.782  39.286   1.365
20072W        W91601  40.371  16.288  11.677
20073W        W91602  13.629   4.017   2.050
20074W        W91603  35.585  25.950   2.110
20075W        W91604   6.122  41.560   2.315
20076W        W91605  20.800  24.782   4.584
20077W        W91606  33.370  17.738  10.935
20078W        W91607   0.378  33.961   1.004
20079W        W91608  41.391  20.781  10.553
20080W        W91609  19.010   9.163  11.264
20081W        W91610   9.788   8.180   1.030
20082W        W91611  24.119  27.060   4.251
20083W        W91612  34.944  44.026   3.317
20084W        W91613   5.420   0.560   3.113
20085W        W91614   7.815   0.488  13.434
20086W        W91615  33.888   3.344   1.708
20087W        W91616  15.236   1.586   0.249
20088W        W91617  13.358  40.852  10.939
20089W        W91618  25.895  13.585   0.410
20090W        W91619  11.663  41.457   4.538
20091W        W91620  40.970  40.860   1.907
20092W        W91621   9.826  33.513   1.793
20093W        W91622  38.438  38.561   3.783
20094W        W91623  38.002  23.356  13.368
20095W        W91624  37.681  21.522  13.155
20096W        W91625  44.725  17.066   1.206
20097W        W91626   3.444  23.109   2.892
20098W        W91627   6.828   2.384   0.461
20099W        W91628  33.010  19.201   4.609
20100W        W91629   3.906   2.352  14.436
20101W        W91630   9.582  33.858  14.386
20102W        W91631  37.506  44.995  14.414
20103W        W91632  14.094  27.586  13.205
20104W        W91633  28.508   8.824  10.949
20105W        W91634   6.654  23.791   2.006
20106W        W91635   3.999  36.902   1.005
20107W        W91636  22.046  33.510   0.501
20108W        W91637  39.964  24.421   4.577
20109W        W91638  32.115   7.353  13.427
20110W        W91639   1.486  17.160   4.329
20111W        W91640   2.345  29.358   2.311
20112W        W91641   1.520  25.414   2.809
20113W        W91642  17.560  34.727   0.780
20114W        W91643  33.123  10.603  12.569
20115W        W91644   9.669  27.884  10.151
20116W        W91645   6.935   2.736  11.176
20117W        W91646  40.980   6.288  14.095
20118W        W91647  13.741   8.188   2.668
20119W        W91648   0.794  13.485   0.634
20120W        W91649  18.574  17.022   2.274
20121W        W91650  17.503  33.478  13.517
20122W        W91651  36.548  30.029   2.179
20123W        W91652  22.083  33.836   2.658
20124W        W91653  16.615  35.684  14.315
20125W        W91654  39.783  34.391  11.659
20126W        W91655   3.909  41.500   2.049
20127W        W91656   8.828  26.444  10.379
20128W        W91657  37.862  23.752   3.141
20129W        W91658  30.144  29.988   4.356
20130W        W91659  32.907  24.243   1.289
20131W        W91660  38.684   6.915  14.903
20132W        W91661  12.615  27.294  11.188
20133W        W91662  42.496  10.384  12.006
20134W        W91663  16.995  23.367  10.161
20135W        W91664  27.931  28.393  14.727
20136W        W91665  31.896  24.549  11.110
20137W        W91666   5.139  14.713  13.179
20138W        W91667  10.492  21.740  10.968
20139W        W91668   8.199  28.927  13.386
20140W        W91669  23.417  28.931   4.074
20141W        W91670   1.472  34.882  14.442
20142W        W91671  13.205  28.819   2.111
20143W        W91672  25.754  42.732   0.757
20144W        W91673  21.320  27.202   1.356
20145W        W91674  26.109   0.640  11.565
20146W        W91675  12.563  40.549   1.865
20147W        W91676   8.055  15.295   0.751
20148W        W91677  13.620  34.287  13.714
20149W        W91678   2.337  31.068   4.507
20150W        W91679  28.960   0.232   0.883
20151W        W91680   8.106  14.437   3.666
20152W        W91681  17.236  44.787   2.449
20153W        W91682  11.582  27.590   2.129
20154W        W91683  33.452  30.192  10.760
20155W        W91684  19.727  20.629  13.940
20156W        W91685  12.809  44.475   2.447
20157W        W91686   1.414  11.002  14.095
20158W        W91687  21.028  19.267  12.181
20159W        W91688  27.199  30.438   0.289
20160W        W91689  38.517  34.692   0.798
20161W        W91690   9.189  33.321   3.097
20162W        W91691  22.089   4.222   4.245
20163W        W91692  14.009  41.811   0.788
20164W        W91693  33.930   4.920   1.896
20165W        W91694  13.641  14.162  14.433
20166W        W91695  26.995  10.184   1.499
20167W        W91696   1.040   7.596  14.014
20168W        W91697  42.260   3.521  14.930
20169W        W91698   5.364  29.072   3.749
20170W        W91699  18.090  20.617  14.819
20171W        W91700   6.741  41.176   1.924
20172W        W91701  21.131  38.115  14.852
20173W        W91702   2.483  44.237   3.233
20174W        W91703  13.146  32.614  12.549
20175W        W91704  29.887  24.535   2.718
20176W        W91705   1.468  25.517   3.723
20177W        W91706  41.995  30.039   3.544
20178W        W91707   7.782  31.710  12.498
20179W        W91708  13.142  34.628   2.879
20180W        W91709  32.673  33.044   4.231
20181W        W91710  30.727  27.171   4.129
20182W        W91711  39.677  24.323  13.888
20183W        W91712   6.667   8.856   2.283
20184W        W91713   4.423   3.863  12.599
20185W        W91714  32.379   1.271  14.799
20186W        W91715  41.980  21.573  11.894
20187W        W91716   8.316   3.288  11.605
20188W        W91717  24.084  35.927  11.411
20189W        W91718  20.312  15.730   0.293
20190W        W91719  31.964  43.427   3.709
20191W        W91720   7.778   2.983   0.459
20192W        W91721  24.999  16.351  13.288
20193W        W91722   5.808  11.930  11.106
20194W        W91723  21.059  38.806   0.304
20195W        W91724  25.034   0.832  14.851
20196W        W91725  36.973   7.153   2.318
20197W        W91726  25.146   2.308  12.963
20198W        W91727  20.720  28.745   4.233
20199W        W91728  10.902   0.879  13.761
20200W        W91729  17.556  34.451   1.544
20201W        W91730  27.011   2.691   4.528
20202W        W91731   7.201  12.068  11.082
20203W        W91732  40.444  37.074   3.609
20204W        W91733  38.002   8.169   4.654
20205W        W91734  29.948  17.635  12.594
20206W        W91735  36.514   3.472   0.697
20207W        W91736  12.306  43.345  10.394
20208W        W91737  22.289  11.683   3.589
20209W        W91738  41.688  37.338   4.308
20210W        W91739  19.012  36.771   4.215
20211W        W91740  23.140  39.975  11.192
20212W        W91741  17.600  27.048   1.496
20213W        W91742   5.817  14.566  11.810
20214W        W91743  42.319   4.343   2.735
20215W        W91744  23.683   3.707  12.845
20216W        W91745   7.760   9.937   3.271
20217W        W91746  41.607   5.789  12.092
20218W        W91747  42.738  40.317  13.507
20219W        W91748   7.274  20.882   4.750
20220W        W91749  43.447  30.763   5.291
20221W        W91750  13.878  36.806   4.056
20222W        W91751  42.408  15.695   2.758
20223W        W91752  41.157   0.408   0.307
20224W        W91753  38.289  36.328  14.405
20225W        W91754  34.479  16.129  10.576
20226W        W91755  22.194  30.926  14.100
20227W        W91756  41.059  39.100   2.258
20228W        W91757  13.325  39.527  13.618
20229W        W91758  28.116  18.698   1.239
20230W        W91759  16.360  12.981   4.050
20231W        W91760  35.843  15.610  14.803
20232W        W91761  17.312  43.256  11.162
20233W        W91762  28.787  22.477  14.321
20234W        W91763  20.790  10.636  13.313
20235W        W91764  42.536  38.063   2.661
20236W        W91765  27.542  19.929  12.053
20237W        W91766  17.298   6.159   1.906
20238W        W91767   5.211  41.869  11.030
20239W        W91768   3.874  11.628  12.733
20240W        W91769  37.708  30.179   1.957
20241W        W91770  31.911  22.522   4.660
20242W        W91771  21.747  38.125  12.020
20243W        W91772   9.152   4.468  14.847
20244W        W91773  41.440  14.792  12.343
20245W        W91774   6.158  34.355  10.776
20246W        W91775  33.380  23.610  14.006
20247W        W91776  12.700   2.160   4.472
20248W        W91777   8.490   4.884  10.476
20249W        W91778  12.487  30.032   1.857
20250W        W91779   0.737   9.286   1.260
20251W        W91780  44.317  21.163  11.257
20252W        W91781  21.102  18.184   3.756
20253W        W91782   1.718   6.818   1.384
20254W        W91783  16.389  41.443   2.234
20255W        W91784  24.033  22.428  13.984
20256W        W91785  21.465  34.115  12.857
20257W        W91786  40.543  19.562   0.695
20258W        W91787  34.425   0.948  10.744
20259W        W91788  35.446  14.592   3.245
20260W        W91789   1.740  44.839  12.039
20261W        W91790   0.726  40.808   1.778
20262W        W91791  16.889  32.641  14.585
20263W        W91792   5.990  29.075   0.346
20264W        W91793  13.436  31.968   0.862
20265W        W91794  44.852  32.739   0.875
20266W        W91795   4.807  33.604   1.848
20267W        W91796   3.671  37.886  10.732
20268W        W91797  22.445  30.130   1.668
20269W        W91798  29.647  22.205   4.074
20270W        W91799  27.430  22.324   0.296
20271W        W91800  36.019  31.369   0.432
20272W        W91801  41.779  34.960  13.485
20273W        W91802  27.888   0.855   1.463
20274W        W91803  41.253  36.030  11.385
20275W        W91804   3.779  36.782   2.291
20276W        W91805  18.542   2.847   4.642
20277W        W91806  40.343  19.027   3.899
20278W        W91807  42.044   6.821  14.737
20279W        W91808  31.456  26.797   5.014
20280W        W91809   3.793   8.202   4.229
20281W        W91810  23.553  39.604  12.874
20282W        W91811  43.025  31.080   0.937
20283W        W91812   9.556   0.220   3.723
20284W        W91813  40.107   9.210  10.929
20285W        W91814   1.283   8.798  14.961
20286W        W91815  12.711  15.204  14.137
20287W        W91816   6.935   3.787  14.721
20288W        W91817   6.409  21.785  13.995
20289W        W91818  23.973  36.547  12.074
20290W        W91819  36.497  32.391  14.992
20291W        W91820  29.087  19.981   3.064
20292W        W91821  44.134   5.262   1.335
20293W        W91822  20.551   6.798  11.281
20294W        W91823  13.769  34.163  12.993
20295W        W91824  18.937  11.566   1.371
20296W        W91825   2.808   3.231  11.434
20297W        W91826  21.640  21.310  12.449
20298W        W91827  40.612  13.042  14.383
20299W        W91828  17.198  10.916  14.583
20300W        W91829  37.161  42.090   0.490
20301W        W91830  19.093  41.972  12.946
20302W        W91831  31.864  26.744   0.899
20303W        W91832  14.638  41.872  10.783
20304W        W91833  35.394   2.484   0.273
20305W        W91834  10.165   2.389  14.980
20306W        W91835  35.557  22.330  13.372
20307W        W91836  44.815  38.366   4.330
20308W        W91837   5.973  16.693   4.120
20309W        W91838   1.223  30.430   3.279
20310W        W91839  28.692   6.680   2.865
20311W        W91840  37.577  21.717  10.911
20312W        W91841   8.985  30.113  14.499
20313W        W91842   2.795   1.861   2.836
20314W        W91843  10.690  34.204   1.200
20315W        W91844   1.234  41.358  13.619
20316W        W91845  30.963  40.790  10.741
20317W        W91846  11.791  13.829   0.960
20318W        W91847  27.563  25.352   0.877
20319W        W91848  31.320  31.031   0.751
20320W        W91849   4.227  25.207   3.776
20321W        W91850  19.302   9.702   2.680
20322W        W91851  24.744  28.432  12.551
20323W        W91852  16.187  15.581   3.628
20324W        W91853   3.823  39.089   4.696
20325W        W91854  14.601  19.783   4.180
20326W        W91855  26.408  30.813   5.126
20327W        W91856  44.986  11.750  12.031
20328W        W91857   2.628   2.033  14.259
20329W        W91858  27.146  33.681   3.218
20330W        W91859  13.614  13.151   0.854
20331W        W91860   3.047  11.680  14.465
20332W        W91861   7.760  43.837  11.348
20333W        W91862  31.917  29.933  14.019
20334W        W91863  35.663  21.283  11.087
20335W        W91864  33.527  33.566   0.932
20336W        W91865  38.423   6.066  12.994
20337W        W91866  31.471  39.411   1.365
20338W        W91867  37.008   8.606  14.818
20339W        W91868  12.354  19.113  11.380
20340W        W91869   2.716  17.256  12.919
20341W        W91870  43.524  12.155  11.709
20342W        W91871  22.171  22.067  13.392
20343W        W91872  20.109  25.148  11.504
20344W        W91873  12.856  35.036  11.773
20345W        W91874  27.126  32.766   5.322
20346W        W91875  37.968  21.323  12.414
20347W        W91876   4.520  42.163  13.938
20348W        W91877  24.587  10.934   3.873
20349W        W91878  32.496  34.458   2.814
20350W        W91879  34.016  44.763   3.756
20351W        W91880  28.649  23.756   3.182
20352W        W91881   3.325  42.638   0.088
20353W        W91882  19.520   2.653   3.672
20354W        W91883  17.298  22.791   0.898
20355W        W91884  44.976  35.495  10.470
20356W        W91885   5.342   6.292   4.227
20357W        W91886  11.328  14.111  14.435
20358W        W91887   2.200  34.538   1.793
20359W        W91888  21.169  36.376  12.003
20360W        W91889   0.930  27.016   2.340
20361W        W91890  40.175   5.898   1.783
20362W        W91891   6.982   4.494   4.044
20363W        W91892  20.784  31.065  14.721
20364W        W91893   3.482  25.738   1.907
20365W        W91894   1.355  16.206   4.383
20366W        W91895   9.267  31.178   4.169
20367W        W91896   6.649  27.995  13.300
20368W        W91897  11.421  28.985  14.193
20369W        W91898  36.304  21.796   2.330
20370W        W91899  14.714  39.027  10.079
20371W        W91900  39.074  10.277  11.975
20372W        W91901   9.192   2.448   3.258
20373W        W91902  39.529   7.077  11.458
20374W        W91903  26.665  44.760  12.588
20375W        W91904  27.078   6.160   2.774
20376W        W91905   3.806   5.472  10.660
20377W        W91906  14.233  11.400   2.022
20378W        W91907   2.636  19.226   3.298
20379W        W91908  11.628  29.237   0.436
20380W        W91909  42.346  44.877   1.696
20381W        W91910  28.648  25.900   2.707
20382W        W91911   9.697  42.316   3.077
20383W        W91912  40.721  43.275  11.374
20384W        W91913   0.233  38.965   3.864
20385W        W91914  39.523  17.623   4.393
20386W        W91915  32.564  23.841   2.932
20387W        W91916  40.396  32.485   2.851
20388W        W91917  21.973  39.370   0.668
20389W        W91918  16.024  14.840  13.771
20390W        W91919   2.354  30.091   0.272
20391W        W91920  16.795  44.833   3.600
20392W        W91921  30.539  26.466  11.111
20393W        W91922   7.435  25.490   4.406
20394W        W91923  34.933  40.440  10.717
20395W        W91924   1.651  43.202   2.294
20396W        W91925   2.422  27.193  13.522
20397W        W91926  41.358  23.949  14.640
20398W        W91927  28.154  21.403  14.802
20399W        W91928  20.078  23.356  11.983
20400W        W91929  44.440  14.944  14.737
20401W        W91930  23.580  32.858  13.099
20402W        W91931  17.989  15.714   1.616
20403W        W91932  17.975   6.281   3.880
20404W        W91933   6.888  17.851  13.912
20405W        W91934  29.959  26.141   4.518
20406W        W91935   1.696   9.810  11.408
20407W        W91936  39.933   1.907   1.434
20408W        W91937  39.869  23.674   3.005
20409W        W91938   4.853  30.811   3.649
20410W        W91939  33.901  38.461   1.411
20411W        W91940  33.389  42.337   4.091
20412W        W91941  44.499   0.568   4.361
20413W        W91942  25.698  28.482  12.387
20414W        W91943  42.509  43.004   3.003
20415W        W91944  39.615   9.627  12.079
20416W        W91945   2.468  29.988  13.346
20417W        W91946  14.755  42.278  13.057
20418W        W91947  24.481  26.378   4.989
20419W        W91948  16.951  26.929  11.901
20420W        W91949  27.894  41.831  10.530
20421W        W91950   6.366  30.404   0.245
20422W        W91951   6.237  35.444   3.548
20423W        W91952   3.486   0.325   4.867
20424W        W91953  11.606  43.996   3.901
20425W        W91954  43.514   1.245  12.095
20426W        W91955  35.408   5.048  14.309
20427W        W91956  18.786  25.156  12.768
20428W        W91957  26.238  37.975  12.797
20429W        W91958  24.439  44.249   3.697
20430W        W91959  23.005   7.161   2.096
20431W        W91960   0.506  22.236   1.331
20432W        W91961  38.393  34.043  10.538
20433W        W91962  12.546  40.563  10.910
20434W        W91963  33.878  15.375  11.419
20435W        W91964  28.098  41.807  13.990
20436W        W91965  10.328  33.054  11.659
20437W        W91966  27.315   1.998   0.921
20438W        W91967  13.739   0.315   2.947
20439W        W91968  32.186  41.983  13.331
20440W        W91969  28.439   8.862  13.901
20441W        W91970   7.885  25.768   3.211
20442W        W91971  34.659  22.555   0.423
20443W        W91972  16.268  34.813   1.706
20444W        W91973   5.218  41.266   5.135
20445W        W91974  38.746  23.838   4.112
20446W        W91975  44.912  13.146   2.778
20447W        W91976   7.714  37.863   4.112
20448W        W91977   9.233   8.172  12.805
20449W        W91978  32.639   2.955  12.377
20450W        W91979  25.914  43.782   4.046
20451W        W91980   3.719  29.473  13.545
20452W        W91981  26.466  18.033  11.672
20453W        W91982  41.289  42.163  12.057
20454W        W91983  34.101   4.965  14.003
20455W        W91984   9.505   1.040  13.779
20456W        W91985  31.444  37.378   0.906
20457W        W91986  28.930  12.353  12.163
20458W        W91987  26.094  15.178  13.804
20459W        W91988  36.423   6.576   0.370
20460W        W91989  13.195  30.856  11.961
20461W        W91990  36.049   5.817  13.922
20462W        W91991  27.608  35.835  13.880
20463W        W91992  40.018  28.079   4.679
20464W        W91993  44.207  12.237  10.627
20465W        W91994  18.833  44.812  10.710
20466W        W91995  39.710  31.165   4.622
20467W        W91996  34.459  27.219   4.680
20468W        W91997   8.828  25.718  12.053
20469W        W91998  34.539  11.231   0.949
20470W        W91999  22.185  29.958   2.448
20471W        W92000   3.296  11.233   4.922
20472W        W92001  15.884  24.161  14.758
20473W        W92002  27.521   2.746  13.058
20474W        W92003   4.862   2.226  13.427
20475W        W92004  12.188  34.332  12.032
20476W        W92005  25.618  18.469   4.074
20477W        W92006  12.577   4.552  14.236
20478W        W92007  13.638  31.977  11.486
20479W        W92008  39.518  25.306  14.404
20480W        W92009  19.169  33.852  12.114
20481W        W92010  16.032  15.731  14.933
20482W        W92011   8.309   9.219   4.497
20483W        W92012   7.909   4.163   4.023
20484W        W92013  38.793   8.121   4.553
20485W        W92014   0.581   9.258   4.895
20486W        W92015  20.226  23.201   1.101
20487W        W92016  39.821  31.276  11.086
20488W        W92017  34.122  23.341   3.523
20489W        W92018  43.959  30.356  13.819
20490W        W92019  24.607  31.966   1.420
20491W        W92020  12.719  13.841  12.378
20492W        W92021  41.672  27.634  14.033
20493W        W92022  20.694   6.879   0.400
20494W        W92023  19.751  28.693  12.042
20495W        W92024  36.273  23.966  14.559
20496W        W92025  25.919  34.126   1.866
20497W        W92026  10.074  33.823  14.549
20498W        W92027  20.627  36.058   0.359
20499W        W92028  32.422  21.082  10.833
20500W        W92029  18.134  15.692   2.651
20501W        W92030  22.764  44.919   0.777
20502W        W92031  19.703  43.594   0.065
20503W        W92032  41.304  31.593   3.518
20504W        W92033  19.403  37.274  14.255
20505W        W92034  44.410  24.762   2.289
20506W        W92035  18.627  10.789  12.457
20507W        W92036  26.634  40.046   0.523
20508W        W92037  32.632   7.042   4.205
20509W        W92038  25.541  16.716  11.161
20510W        W92039   5.631  23.313   3.130
20511W        W92040  38.933  39.424  10.606
20512W        W92041   2.327  19.686  13.578
20513W        W92042  12.426  15.637   1.619
20514W        W92043   4.863  27.187  12.829
20515W        W92044   8.678  35.343  11.595
20516W        W92045  28.030  31.205  12.885
20517W        W92046  38.563   9.496   4.627
20518W        W92047   7.773  34.499   4.928
20519W        W92048   8.212  40.402   4.314
20520W        W92049  36.888  30.524  12.972
20521W        W92050   6.930  16.321   0.762
20522W        W92051  44.463   1.068   4.529
20523W        W92052  43.759  36.926   4.074
20524W        W92053  22.917  36.404  12.159
20525W        W92054   1.313  44.983   0.051
20526W        W92055  32.440  23.445   1.319
20527W        W92056  21.854  22.236  10.556
20528W        W92057  36.541  12.911   1.153
20529W        W92058  37.473   7.980   3.704
20530W        W92059  12.465  21.096   2.231
20531W        W92060   5.243   0.826   1.221
20532W        W92061  24.082  14.428   4.641
20533W        W92062  38.908  36.903  10.810
20534W        W92063   2.394  42.027  14.961
20535W        W92064  14.347  16.162   1.339
20536W        W92065  22.537  35.584  11.996
20537W        W92066  11.757  23.264  13.929
20538W        W92067  35.361   8.421  10.661
20539W        W92068  17.166   7.695   0.678
20540W        W92069  32.004  37.497   3.387
20541W        W92070  19.882  18.735   4.513
20542W        W92071  18.522  40.137  11.538
20543W        W92072  30.535  26.035   2.378
20544W        W92073  10.688  23.372  13.010
20545W        W92074   6.650  15.626  12.543
20546W        W92075  37.465  18.697  12.197
20547W        W92076  12.128   7.226   3.316
20548W        W92077  39.243  26.657  14.245
20549W        W92078  44.230   6.562   1.856
20550W        W92079  42.000  42.799   4.933
20551W        W92080  33.982  29.660   1.288
20552W        W92081  43.872  11.596  11.046
20553W        W92082  31.727  37.377   1.352
20554W        W92083   2.749  17.652  11.174
20555W        W92084  10.088   8.773  10.639
20556W        W92085  23.500   3.238  14.716
20557W        W92086   9.644  36.348   0.384
20558W        W92087  29.587  16.578  13.920
20559W        W92088   1.894  23.989   1.862
20560W        W92089  36.532  21.164  13.884
20561W        W92090  26.586   4.859  10.234
20562W        W92091   5.839  32.763   4.724
20563W        W92092  18.955  30.292   4.418
20564W        W92093  34.369   7.112  14.917
20565W        W92094   6.560  37.841  11.041
20566W        W92095   0.909  18.995  14.284
20567W        W92096  40.325  25.710   0.225
20568W        W92097  32.342  13.324   2.577
20569W        W92098   1.383  31.552  11.691
20570W        W92099  43.500   8.422  11.224
20571W        W92100  35.595  31.855  13.406
20572W        W92101  35.347  20.664   4.747
20573W        W92102   8.840  22.583  14.987
20574W        W92103  19.782  30.887  13.386
20575W        W92104  30.900   4.412  14.472
20576W        W92105  20.311  32.832   3.640
20577W        W92106  39.483  33.105  11.416
20578W        W92107  15.689  13.396   0.997
20579W        W92108  10.320  20.975   1.285
20580W        W92109  20.626  37.596   2.893
20581W        W92110  20.596  28.720  12.940
20582W        W92111  11.623  23.472  11.182
20583W        W92112   1.058  18.158   2.588
20584W        W92113  24.206  13.896   3.874
20585W        W92114  13.228   8.110   2.846
20586W        W92115   7.744  12.217  12.585
20587W        W92116  39.867  14.384   0.934
20588W        W92117   6.394   2.170  14.428
20589W        W92118  20.588   0.419  10.975
20590W        W92119  28.939   1.664   4.363
20591W        W92120  11.192  38.887   4.223
20592W        W92121  11.956  24.846   1.805
20593W        W92122  44.003   8.256   2.116
20594W        W92123  42.651  38.506  14.701
20595W        W92124  14.368  17.204   4.006
20596W        W92125  18.334  21.876  11.214
20597W        W92126  24.019  22.581   4.656
20598W        W92127  13.608  22.537  11.517
20599W        W92128  29.131  34.214   4.891
20600W        W92129   7.151   6.751  13.279
20601W        W92130  22.634   2.719  11.892
20602W        W92131   8.256  21.108  11.920
20603W        W92132  27.035   3.752  11.915
20604W        W92133  40.226  25.606  11.249
20605W        W92134  29.082  43.414   3.341
20606W        W92135  35.044   4.151   2.372
20607W        W92136  17.697  24.075   1.167
20608W        W92137  14.327  15.580   3.780
20609W        W92138   3.199  37.386  12.514
20610W        W92139   2.722  36.698  13.964
20611W        W92140   5.636   8.310   3.917
20612W        W92141  31.540  14.818  13.770
20613W        W92142  14.572  23.753  14.616
20614W        W92143  17.289  36.388   1.186
20615W        W92144  35.434  29.091   1.895
20616W        W92145  11.387   2.827   0.842
20617W        W92146  18.770   1.031  12.000
20618W        W92147  20.114  40.043  12.538
20619W        W92148   5.204  32.394  11.705
20620W        W92149  24.060   3.501  12.557
20621W        W92150  16.133  32.691  13.010
20622W        W92151  23.042  17.076   3.144
20623W        W92152  38.282  24.612   4.009
20624W        W92153  29.036  38.131   0.839
20625W        W92154  28.412  32.292   1.414
20626W        W92155   5.329  14.676   3.720
20627W        W92156  11.331  29.858   3.223
20628W        W92157  15.832  25.675  10.698
20629W        W92158  12.839  17.939   3.095
20630W        W92159   6.739  12.992   0.401
20631W        W92160  17.898   9.681  13.599
20632W        W92161  21.229  18.382  11.143
20633W        W92162  19.610   2.508   0.963
20634W        W92163  23.751  40.580   2.426
20635W        W92164  35.266  12.967   0.310
20636W        W92165  15.221  17.770  14.761
20637W        W92166  44.444  20.742   3.170
20638W        W92167  26.570  23.995  13.314
20639W        W92168   7.331  19.720   4.674
20640W        W92169  27.967  24.333   4.938
20641W        W92170  17.318  18.560   2.858
20642W        W92171  12.302   0.970   4.937
20643W        W92172  33.831  41.504  11.593
20644W        W92173  36.562  44.011  10.588
20645W        W92174   5.923  31.882  13.858
20646W        W92175  21.085  26.898   2.792
20647W        W92176  44.971  23.718  10.623
20648W        W92177  42.303  31.530   0.308
20649W        W92178  41.921   8.133   0.999
20650W        W92179  13.858  26.046   2.182
20651W        W92180  44.270   9.448   3.207
20652W        W92181   4.344   6.405   0.427
20653W        W92182  42.107   2.737  11.186
20654W        W92183  21.646   4.978   1.444
20655W        W92184   8.970  10.301  11.102
20656W        W92185   4.166  19.402  10.311
20657W        W92186  31.207  10.102   2.223
20658W        W92187  16.633  31.886   1.676
20659W        W92188  32.695  13.251  13.962
20660W        W92189  39.109  20.515   2.595
20661W        W92190   4.395  38.965  13.945
20662W        W92191  18.057   6.191   4.374
20663W        W92192  26.359   8.436   3.221
20664W        W92193   5.210  43.083  14.536
20665W        W92194  33.481  28.767  13.978
20666W        W92195  44.011  41.746  10.839
20667W        W92196  25.929  38.995   0.804
20668W        W92197  39.882  20.792   2.298
20669W        W92198  14.035  44.785  12.914
20670W        W92199  12.717  19.974  12.881
20671W        W92200  38.025  28.156  11.573
20672W        W92201  11.296  14.500  13.206
20673W        W92202  35.957   1.504  12.966
20674W        W92203   2.235  21.733   2.342
20675W        W92204  24.160   2.276  11.139
20676W        W92205   2.690  24.169   0.490
20677W        W92206  17.238  16.602  11.149
20678W        W92207  21.711  11.013  12.370
20679W        W92208  16.793  42.074  10.614
20680W        W92209   8.206  11.157   3.800
20681W        W92210  21.184  19.774   4.403
20682W        W92211  20.037   0.478  13.994
20683W        W92212  42.297  26.702   2.425
20684W        W92213  24.171   4.851  10.815
20685W        W92214  13.633  30.633  10.519
20686W        W92215  16.279  34.069   4.578
20687W        W92216  24.297   8.635   2.465
20688W        W92217  38.606   4.835   2.320
20689W        W92218  22.598  13.702   1.306
20690W        W92219  33.427  39.539   3.879
20691W        W92220  32.991  13.763   4.169
20692W        W92221  25.728  36.695  12.969
20693W        W92222  16.316  27.458  12.620
20694W        W92223  12.733  16.306   0.326
20695W        W92224  24.620  42.561  13.909
20696W        W92225  14.195  34.619   0.046
20697W        W92226  10.178  43.017   0.383
20698W        W92227  15.977  44.938   1.340
20699W        W92228  20.213  29.171   1.121
20700W        W92229   8.718  31.232   0.893
20701W        W92230  40.024  17.499  10.981
20702W        W92231  43.313   5.973   4.919
20703W        W92232  40.162   6.491  13.861
20704W        W92233   5.928  43.915  12.737
20705W        W92234  15.746  35.428  14.142
20706W        W92235  20.622  33.983   4.430
20707W        W92236  21.060  10.805  14.562
20708W        W92237  30.567  44.709   2.641
20709W        W92238  32.838  20.133  12.193
20710W        W92239  39.853  16.590  11.113
20711W        W92240   4.299  35.108  13.345
20712W        W92241  21.273  44.582   4.989
20713W        W92242  19.035   8.526  12.890
20714W        W92243   4.553  21.642   4.691
20715W        W92244  25.128  21.208  14.766
20716W        W92245  24.986  40.300  12.963
20717W        W92246  40.039   0.167  11.298
20718W        W92247   1.777   1.647  14.534
20719W        W92248  27.477  20.631  13.918
20720W        W92249  17.256  44.925  11.852
20721W        W92250  13.565  29.070   1.855
20722W        W92251  22.085  38.043   2.747
20723W        W92252  40.092  11.932   4.648
20724W        W92253  44.265  24.246  14.419
20725W        W92254  29.028  31.565   4.173
20726W        W92255  27.212  13.311   3.830
20727W        W92256  13.664  28.199   2.919
20728W        W92257  22.730  25.987   4.123
20729W        W92258  40.298  14.332   1.242
20730W        W92259  19.605  17.793  12.546
20731W        W92260  15.564  24.659   0.444
20732W        W92261   6.209  35.642  13.576
20733W        W92262  39.560  39.725  14.277
20734W        W92263  17.309  37.327  12.369
20735W        W92264   4.537  29.668  14.001
20736W        W92265  37.910  15.785   0.370
20737W        W92266  26.326   0.818   1.819
20738W        W92267  34.113  29.861   4.150
20739W        W92268  18.337  41.834   3.854
20740W        W92269   2.879   2.103  14.789
20741W        W92270  11.382  29.647  13.134
20742W        W92271   8.594   3.395  14.992
20743W        W92272  34.953  28.313   0.886
20744W        W92273  29.460  21.335   1.764
20745W        W92274  23.297  41.320  11.495
20746W        W92275  36.191  15.200   1.876
20747W        W92276  38.839  28.440  12.882
20748W        W92277  40.008   3.687  13.418
20749W        W92278  25.201  26.569   1.004
20750W        W92279  21.576  23.047  11.118
20751W        W92280  25.436  38.348   4.773
20752W        W92281  29.831   2.187  13.910
20753W        W92282  44.326  14.035  14.076
20754W        W92283  34.947  44.914   3.448
20755W        W92284  40.649  39.389  12.808
20756W        W92285   1.483  15.690  12.869
20757W        W92286  44.620  24.698  14.283
20758W        W92287   5.217  23.356  14.438
20759W        W92288  19.168  12.723  11.266
20760W        W92289   3.919  21.630   0.665
20761W        W92290  19.003   7.793   1.276
20762W        W92291  39.628  41.454   2.249
20763W        W92292   6.644   3.510   4.142
20764W        W92293  17.669  11.710   1.468
20765W        W92294  41.749  31.153   1.430
20766W        W92295   2.448  40.871   0.958
20767W        W92296  41.837  30.555   0.218
20768W        W92297   8.373  16.653  13.445
20769W        W92298  40.819  38.480  13.495
20770W        W92299  28.668  12.046  13.059
20771W        W92300  42.218  42.478  14.804
20772W        W92301  39.348  38.014   2.767
20773W        W92302   2.626  15.427  14.005
20774W        W92303   8.833   4.817   4.503
20775W        W92304  19.088   2.329  13.058
20776W        W92305  28.880   3.144   4.070
20777W        W92306  30.658  17.056   3.220
20778W        W92307  19.173  44.418  11.206
20779W        W92308   6.378  32.560  13.003
20780W        W92309  10.408  24.965   0.749
20781W        W92310  26.757  39.077   2.245
20782W        W92311  10.242   7.678  11.447
20783W        W92312   2.210   8.398   4.947
20784W        W92313  42.123   1.512  10.299
20785W        W92314  38.203  32.899   1.278
20786W        W92315  22.901  13.847   0.856
20787W        W92316  17.690  24.675  13.531
20788W        W92317  20.676  18.310   2.672
20789W        W92318   8.068  35.339   0.683
20790W        W92319  30.223  21.235   2.781
20791W        W92320   2.873  32.525   4.750
20792W        W92321  34.165  24.479   0.771
20793W        W92322  18.390   9.682  11.417
20794W        W92323  19.452  37.517   5.013
20795W        W92324   4.804  18.303  11.515
20796W        W92325  13.146  38.753  10.195
20797W        W92326   1.821  25.457   0.436
20798W        W92327  12.323  35.907  14.357
20799W        W92328   1.202  44.958  13.628
20800W        W92329   3.051  20.566   1.476
20801W        W92330   1.743  42.701   2.253
20802W        W92331   9.188  13.648  10.596
20803W        W92332  19.732  30.449   1.022
20804W        W92333  42.908  44.713   2.834
20805W        W92334   6.042   7.849  10.738
20806W        W92335  25.165   4.984   2.564
20807W        W92336   7.469  41.726  13.998
20808W        W92337   9.813   2.302   0.352
20809W        W92338  17.881   4.322   1.514
20810W        W92339   5.265  30.584  12.614
20811W        W92340  40.235  32.945  11.009
20812W        W92341  39.859  22.054   4.413
20813W        W92342  36.357  17.450  14.372
20814W        W92343   8.203  20.231  12.441
20815W        W92344  21.995  14.778   0.871
20816W        W92345  13.268  21.869  10.428
20817W        W92346  11.791  24.286   1.739
20818W        W92347  30.087  31.041  14.933
20819W        W92348  11.435  39.950   2.300
20820W        W92349  21.547  22.331  10.149
20821W        W92350   1.175   2.456  13.005
20822W        W92351  34.866  17.860   0.901
20823W        W92352  15.378  38.893  10.476
20824W        W92353   1.273  19.113  14.908
20825W        W92354  15.672   4.298  12.962
20826W        W92355   3.393   3.611  13.583
20827W        W92356   5.078  24.563  13.198
20828W        W92357  15.699  43.275   1.430
20829W        W92358  23.101  40.550   3.229
20830W        W92359  31.162   4.876   2.147
20831W        W92360  44.333  40.546   1.814
20832W        W92361  34.514  40.506   4.299
20833W        W92362  14.089  32.141   1.797
20834W        W92363  36.811  44.737   4.616
20835W        W92364  10.150  23.032   1.182
20836W        W92365  19.313  26.982  11.494
20837W        W92366  38.356  35.427  11.934
20838W        W92367  12.321   1.506   2.839
20839W        W92368  17.744  11.631   4.077
20840W        W92369  15.839  44.394   2.735
20841W        W92370  13.183  39.628  14.414
20842W        W92371  26.899  25.176  12.703
20843W        W92372   4.805  28.480   3.378
20844W        W92373  20.981  19.534  12.929
20845W        W92374   4.145  17.344   4.248
20846W        W92375  15.469  32.665   4.142
20847W        W92376  30.023   6.396  14.383
20848W        W92377  13.918  40.113   5.128
20849W        W92378  35.640   8.730  14.394
20850W        W92379  34.469  12.376  11.140
20851W        W92380  30.175  44.977   1.305
20852W        W92381  20.246  19.926   3.840
20853W        W92382  32.454   1.323   0.819
20854W        W92383  12.694  12.814   4.854
20855W        W92384  14.666  40.995   2.769
20856W        W92385  40.491  30.745   4.083
20857W        W92386  31.475  31.973  14.372
20858W        W92387  15.836   9.855  10.859
20859W        W92388  30.918  22.767   3.305
20860W        W92389  16.527  31.507  14.754
20861W        W92390  36.817   4.970  13.401
20862W        W92391  40.385  15.300   0.724
20863W        W92392  26.559  39.495  10.954
20864W        W92393  40.813  14.519  12.184
20865W        W92394  26.017  12.771   0.781
20866W        W92395  16.302   9.550  11.649
20867W        W92396  15.013  32.994  12.389
20868W        W92397  19.574  23.438   3.697
20869W        W92398  28.918  16.373  11.455
20870W        W92399  24.985   5.763   4.350
20871W        W92400  23.962  15.604   1.662
20872W        W92401  25.140   1.487   3.031
20873W        W92402  41.427  25.904   3.093
20874W        W92403   9.238  34.198   2.720
20875W        W92404  43.999  31.412  12.953
20876W        W92405   9.192  15.389   3.700
20877W        W92406  24.637   2.189   2.803
20878W        W92407   3.359   0.775   5.106
20879W        W92408  21.259   5.406   2.666
20880W        W92409  10.944  32.278   2.358
20881W        W92410  16.186  35.704  12.010
20882W        W92411  26.388  19.537   0.958
20883W        W92412   0.849  11.052   4.743
20884W        W92413  31.066  23.360  13.495
20885W        W92414  34.460  37.307   1.814
20886W        W92415  25.176  34.963   4.561
20887W        W92416  11.261  12.885  11.040
20888W        W92417  40.588   1.746  10.337
20889W        W92418  29.121  13.942  12.982
20890W        W92419  22.196  15.254  11.020
20891W        W92420  41.488  16.568  13.621
20892W        W92421  39.836  41.621   3.278
20893W        W92422   8.336   3.814  12.436
20894W        W92423  38.889  35.580   4.141
20895W        W92424  24.964  25.915   0.319
20896W        W92425  38.433  35.501   2.256
20897W        W92426  23.198  15.330   2.819
20898W        W92427   4.211  11.090   2.843
20899W        W92428  31.352  35.174   0.263
20900W        W92429   5.219  43.368   0.503
20901W        W92430  22.519  22.446   0.272
20902W        W92431   9.267  36.787   1.847
20903W        W92432  27.143  14.855  14.537
20904W        W92433  27.569   0.291  12.466
20905W        W92434  17.515  34.539   3.894
20906W        W92435  36.793  13.743  11.163
20907W        W92436  15.507   0.476  14.454
20908W        W92437  10.390   1.884  13.739
20909W        W92438  19.607  42.584   1.964
20910W        W92439   5.424  16.651   2.703
20911W        W92440  32.943  38.797   1.770
20912W        W92441  42.713  31.174  14.385
20913W        W92442   9.322  28.624   3.132
20914W        W92443  13.739  22.066   3.108
20915W        W92444  15.515  23.790   0.072
20916W        W92445  26.914  28.502  13.413
20917W        W92446   3.087  14.586  14.261
20918W        W92447  29.126  17.219   4.039
20919W        W92448   0.936   4.778   4.179
20920W        W92449  28.043  20.088   1.237
20921W        W92450  41.004  23.465   2.231
20922W        W92451  40.499  13.171   1.455
20923W        W92452  14.881  28.584  13.743
20924W        W92453  13.058  25.678   1.769
20925W        W92454  34.995  31.916  13.106
20926W        W92455  39.504   8.616   4.510
20927W        W92456  22.470  41.510  12.041
20928W        W92457  14.037  30.503  10.827
20929W        W92458   8.340  27.088   2.471
20930W        W92459   0.306   3.159  12.428
20931W        W92460  24.938   1.346   0.498
20932W        W92461  24.223  44.515  12.434
20933W        W92462  14.062  13.692   3.166
20934W        W92463  17.026   4.771  10.752
20935W        W92464  35.803  37.824   0.025
20936W        W92465   7.861   1.382  10.936
20937W        W92466  37.490  20.101  13.937
20938W        W92467  19.684   3.175   2.094
20939W        W92468  15.136  28.989  12.096
20940W        W92469  43.866  32.601  10.603
20941W        W92470  13.108  43.483  12.031
20942W        W92471   1.983  31.193  12.988
20943W        W92472   3.444   3.235   3.859
20944W        W92473   3.917  43.434  13.813
20945W        W92474   8.283  32.967  14.279
20946W        W92475   1.785  19.062  14.013
20947W        W92476  19.580  10.893  11.657
20948W        W92477  40.682   4.480  13.626
20949W        W92478  40.104  16.599  14.751
20950W        W92479  39.004  29.812   0.529
20951W        W92480   7.102  36.020   3.664
20952W        W92481  32.241   0.781  13.249
20953W        W92482  43.279  22.021   2.758
20954W        W92483  27.997  20.286   3.192
20955W        W92484  18.534  21.407   1.812
20956W        W92485  22.067  18.364   2.744
20957W        W92486   4.752  37.039   4.811
20958W        W92487  13.615  20.269  12.093
20959W        W92488   1.756  23.084  11.551
20960W        W92489  39.563  10.699   2.374
20961W        W92490   1.753  14.152  11.990
20962W        W92491  15.594  15.158   3.081
20963W        W92492  10.446  37.852   2.793
20964W        W92493   5.436  14.386  13.469
20965W        W92494  22.584   5.034   0.757
20966W        W92495   5.685  29.718  11.978
20967W        W92496  23.694  35.601   5.006
20968W        W92497  34.040   6.990   2.772
20969W        W92498  20.179  20.800  11.058
20970W        W92499  13.196   7.535  10.252
20971W        W92500  12.498  42.671   1.292
20972W        W92501   9.828  37.270   3.496
20973W        W92502  42.353  22.564   1.310
20974W        W92503  43.888  24.575  13.474
20975W        W92504  20.041  19.229   0.850
20976W        W92505  41.701  16.941  11.128
20977W        W92506  35.642  42.139   3.219
20978W        W92507  30.450   7.783  14.348
20979W        W92508  18.911  40.535   4.211
20980W        W92509   6.120   9.102   1.902
20981W        W92510  29.897  29.326  13.303
20982W        W92511   1.221   8.380   3.714
20983W        W92512  22.425  21.356  12.509
20984W        W92513  12.706  27.159   2.633
20985W        W92514  10.770   5.269   2.462
20986W        W92515  19.178  20.303   0.956
20987W        W92516   6.608   0.887  14.498
20988W        W92517   5.154   5.207  10.854
20989W        W92518  28.765  20.897   4.501
20990W        W92519  35.615  35.426  12.997
20991W        W92520   6.665  16.302   4.587
20992W        W92521  22.041  15.695  10.442
20993W        W92522  31.043  28.573  13.555
20994W        W92523  26.502   6.588   4.116
20995W        W92524  40.784  26.045  13.921
20996W        W92525   8.139  34.569   3.802
20997W        W92526   0.929  14.584  11.190
20998W        W92527   2.634  30.815   2.796
20999W        W92528  16.244   5.939  14.066
21000W        W92529   8.026  19.740  12.383
21001W        W92530  40.298  16.740  13.021
21002W        W92531   6.306  43.503  10.856
21003W        W92532  38.828  42.046   3.745
21004W        W92533  43.259  15.657   0.773
21005W        W92534  28.706  35.222   0.831
21006W        W92535  21.077   9.207  14.083
21007W        W92536   2.454  31.225   0.380
21008W        W92537  34.738  38.769  13.498
21009W        W92538  21.729   2.223   4.679
21010W        W92539  41.406  15.664   4.565
21011W        W92540  28.488  27.583   4.283
21012W        W92541  41.823  38.656  12.610
21013W        W92542  44.753  38.772   5.083
21014W        W92543   3.897  16.605   2.354
21015W        W92544   5.237  29.887   3.853
21016W        W92545  17.998  37.804  11.644
21017W        W92546  21.025  44.264  10.986
21018W        W92547   3.557  23.607   1.669
21019W        W92548  15.662  33.699   1.245
21020W        W92549  33.463  35.994   3.673
21021W        W92550  22.797   1.301   3.865
21022W        W92551   4.660   0.747  14.389
21023W        W92552  42.154  16.097   0.055
21024W        W92553  13.190  27.858  10.276
21025W        W92554  38.479  42.453   2.439
21026W        W92555  12.139  33.939   0.132
21027W        W92556   0.446  32.422   1.711
21028W        W92557  23.234   5.311  14.523
21029W        W92558  10.574  29.528   1.920
21030W        W92559   5.549  21.508  14.999
21031W        W92560  42.688  22.442  11.537
21032W        W92561   8.312   1.243   0.310
21033W        W92562  27.955  23.073  14.202
21034W        W92563  42.343  38.816  12.511
21035W        W92564  44.012  24.464   0.705
21036W        W92565   5.503  40.398   4.860
21037W        W92566   1.563   0.986  13.062
21038W        W92567  31.234  39.776  10.734
21039W        W92568  31.920  12.140  12.354
21040W        W92569   6.269  30.479   2.410
21041W        W92570  28.093  30.116   1.359
21042W        W92571  17.617   3.891   4.517
21043W        W92572  44.683  20.668  14.290
21044W        W92573  31.246  42.222   1.730
21045W        W92574  23.692   4.664  10.805
21046W        W92575  19.865  30.362  13.353
21047W        W92576  12.215  37.336   1.749
21048W        W92577  13.522   0.386   5.482
21049W        W92578  12.055  40.018   3.371
21050W        W92579  18.813  27.728  13.360
21051W        W92580  33.213  22.219   3.736
21052W        W92581  39.297   0.558   2.641
21053W        W92582  36.422  25.487  12.696
21054W        W92583  44.086   0.735   4.108
21055W        W92584  34.085  44.354  14.900
21056W        W92585  26.478  13.959   4.533
21057W        W92586   1.047   7.126   1.852
21058W        W92587  31.968  12.868  12.956
21059W        W92588  41.734  13.664  11.677
21060W        W92589   0.801   5.755  13.872
21061W        W92590   5.550  41.351  14.160
21062W        W92591  28.479  13.373  11.495
21063W        W92592  15.025  11.323   1.617
21064W        W92593  41.287  26.391   4.196
21065W        W92594  11.802  38.564   3.623
21066W        W92595   9.820  43.043   3.016
21067W        W92596  16.109  14.787   2.537
21068W        W92597  18.493  11.693   4.807
21069W        W92598  38.844   0.301  13.421
21070W        W92599   6.748  27.782   0.114
21071W        W92600  30.276  37.155  13.446
21072W        W92601  22.191  25.417   1.203
21073W        W92602  36.534  14.725   4.606
21074W        W92603  21.716  28.585   4.857
21075W        W92604   4.098  22.482   4.707
21076W        W92605  10.621  17.092   1.241
21077W        W92606  44.431  27.580   0.263
21078W        W92607  10.777  27.005   2.241
21079W        W92608   8.750  37.056  11.915
21080W        W92609  28.688  12.410  11.651
21081W        W92610  39.553   6.372   3.467
21082W        W92611   6.116  29.136   2.255
21083W        W92612  11.072  21.059   4.704
21084W        W92613  38.283   5.908   0.342
21085W        W92614  42.725  30.470  10.349
21086W        W92615  19.232   8.121  13.101
21087W        W92616  41.236   6.364  10.931
21088W        W92617  28.663  32.398   5.445
21089W        W92618  17.251   4.812   0.791
21090W        W92619  21.673   3.846   4.399
21091W        W92620  41.323  33.771   3.314
21092W        W92621  27.603  44.203   4.456
21093W        W92622  21.462  38.188  10.747
21094W        W92623  11.219   1.837   1.256
21095W        W92624  39.476  44.276  12.103
21096W        W92625  24.042  42.915  11.234
21097W        W92626  28.748  18.849  11.587
21098W        W92627  43.737  23.535  12.473
21099W        W92628  11.411  13.284  10.701
21100W        W92629  31.112   2.735   3.708
21101W        W92630   4.477  26.474   1.233
21102W        W92631  29.114  12.586  10.497
21103W        W92632  29.146  41.434  14.426
21104W        W92633  38.954   4.678   5.001
21105W        W92634   4.549  14.420  13.023
21106W        W92635  20.190  37.381   3.062
21107W        W92636  13.221  25.078   0.976
21108W        W92637  27.984  35.612   3.276
21109W        W92638  12.253  19.684   0.787
21110W        W92639  13.616  10.948   1.499
21111W        W92640   0.034   5.471   2.968
21112W        W92641  25.037   3.168  11.092
21113W        W92642  31.629  39.474  11.627
21114W        W92643  34.979   6.708  10.776
21115W        W92644  16.538   2.757  11.982
21116W        W92645  35.689  17.992   2.692
21117W        W92646  15.627  23.769   2.563
21118W        W92647  26.726  40.914  12.879
21119W        W92648  12.842   0.271  13.436
21120W        W92649  39.895  27.456  13.478
21121W        W92650  18.989  20.551   1.914
21122W        W92651   6.687   4.809  10.649
21123W        W92652   2.272  33.895  14.037
21124W        W92653  29.468  44.234  12.142
21125W        W92654  14.807  15.806   3.715
21126W        W92655  23.675  21.580  12.977
21127W        W92656  22.740  40.398  13.585
21128W        W92657  34.406   7.331  10.780
21129W        W92658  11.720  10.173   4.202
21130W        W92659  43.321  44.458   4.101
21131W        W92660   4.069  35.383   1.465
21132W        W92661   0.197   5.900   1.792
21133W        W92662  33.516  42.319   4.594
21134W        W92663  36.924  18.154   0.233
21135W        W92664  35.234  26.932  12.617
21136W        W92665  28.067  37.269  14.042
21137W        W92666  22.486  15.581   1.706
21138W        W92667  14.897   4.964  12.821
21139W        W92668  24.202  14.158  13.948
21140W        W92669  19.048  29.028   0.391
21141W        W92670  28.740  12.578   3.994
21142W        W92671   8.050  11.901  12.102
21143W        W92672  33.650  11.317  12.941
21144W        W92673  33.059  41.277   4.168
21145W        W92674  14.904  24.068  13.982
21146W        W92675   3.909   5.812   2.524
21147W        W92676  19.311  13.694  13.425
21148W        W92677  33.558  21.614  13.330
21149W        W92678  10.603  18.361   4.522
21150W        W92679  11.204   2.358   3.842
21151W        W92680  15.859   7.575  11.156
21152W        W92681  10.687  10.861   0.798
21153W        W92682  14.205  35.209  11.592
21154W        W92683  26.145  37.563   0.398
21155W        W92684  33.062  19.055   3.719
21156W        W92685  17.246  12.218  13.354
21157W        W92686  19.470  44.978  11.910
21158W        W92687  36.504  16.732  11.662
21159W        W92688   4.580  23.036   0.376
21160W        W92689  21.788  12.861   0.238
21161W        W92690  29.391  43.755   0.411
21162W        W92691   9.670   1.905  10.483
21163W        W92692  35.998  20.503   0.059
21164W        W92693  13.148   5.778   1.900
21165W        W92694   6.127   1.946   0.894
21166W        W92695  29.608   3.387  14.900
21167W        W92696  27.983  20.096  10.754
21168W        W92697  41.383   9.745  13.557
21169W        W92698   5.512   1.100   4.112
21170W        W92699  16.048   6.542   1.272
21171W        W92700  35.758  19.040   4.230
21172W        W92701  41.626  20.113   2.974
21173W        W92702  19.022  22.195   1.909
21174W        W92703  27.873   3.704   3.978
21175W        W92704  27.267  16.206  12.623
21176W        W92705  37.009  39.594  13.116
21177W        W92706   6.799  26.011   4.166
21178W        W92707  30.519  41.014  12.976
21179W        W92708  10.610  37.311  13.780
21180W        W92709   2.532  36.296   3.348
21181W        W92710  37.746   9.632  12.538
21182W        W92711  35.350   1.930   1.340
21183W        W92712   2.803  15.315   2.725
21184W        W92713  16.350  13.175   1.365
21185W        W92714  26.454  34.031  14.525
21186W        W92715   6.727  43.993  13.777
21187W        W92716  32.960   9.246  14.144
21188W        W92717  10.125  43.855  11.932
21189W        W92718  26.431  17.492  13.113
21190W        W92719   3.004  16.169   4.548
21191W        W92720  32.605   5.720   1.883
21192W        W92721  40.774  24.119   1.830
21193W        W92722  21.678   6.744  12.981
21194W        W92723   6.918  29.726   0.890
21195W        W92724  33.415  10.602  13.435
21196W        W92725  35.999  34.148  12.384
21197W        W92726  14.566  28.755   2.856
21198W        W92727  32.965  11.317   3.317
21199W        W92728   8.201  15.585  12.563
21200W        W92729  27.966  24.255   3.056
21201W        W92730  29.815  39.751   0.979
21202W        W92731  33.138   7.276   2.102
21203W        W92732  31.938  28.902  11.173
21204W        W92733  25.603  25.050  12.365
21205W        W92734  23.665   6.437   1.359
21206W        W92735   5.164  31.007   0.972
21207W        W92736  37.642  10.196   4.101
21208W        W92737  31.712   8.697  11.483
21209W        W92738   6.974   4.523  13.317
21210W        W92739   0.910  10.207  13.084
21211W        W92740  41.125   2.480   2.775
21212W        W92741  14.795  34.874   0.273
21213W        W92742  27.975  25.937  10.899
21214W        W92743   3.453  24.415   0.474
21215W        W92744   9.773  18.500  11.935
21216W        W92745   6.840  25.711   3.169
21217W        W92746  20.416  13.572   2.101
21218W        W92747  44.351  41.768  12.077
21219W        W92748  10.908  25.231  11.158
21220W        W92749  24.091   1.543   1.284
21221W        W92750   6.773  17.807   3.832
21222W        W92751   2.056   4.180  12.610
21223W        W92752   9.688   7.415  13.042
21224W        W92753   7.756   0.732  12.330
21225W        W92754   8.707  27.005   2.835
21226W        W92755  35.062  17.655  13.059
21227W        W92756  35.087   9.841  13.821
21228W        W92757  17.283  42.405   0.942
21229W        W92758  25.603  36.004   2.335
21230W        W92759  20.640  17.047  12.033
21231W        W92760  36.114   4.935   2.686
21232W        W92761   3.835  19.352   0.359
21233W        W92762   6.558  15.974  13.514
21234W        W92763   7.880  33.717  12.516
21235W        W92764  14.921  16.285  14.413
21236W        W92765  43.837  11.378   0.351
21237W        W92766  39.048  19.498   2.639
21238W        W92767  43.431   8.455  13.037
21239W        W92768   9.894  11.287  14.842
21240W        W92769  34.328   5.100  13.551
21241W        W92770  36.066  31.908  12.954
21242W        W92771  25.619  16.175   2.135
21243W        W92772   2.037  35.016   2.775
21244W        W92773  34.017  39.866  12.432
21245W        W92774  21.026  14.616   3.660
21246W        W92775  10.328  43.212   3.719
21247W        W92776   6.374   4.513  11.272
21248W        W92777   0.241  14.378  12.057
21249W        W92778   7.878   0.871  10.206
21250W        W92779   8.221  25.710   3.787
21251W        W92780  24.649  42.997   0.102
21252W        W92781  25.191  14.079   1.932
21253W        W92782   9.163  13.877  11.088
21254W        W92783  41.849  34.321   3.440
21255W        W92784   6.363  39.134   4.540
21256W        W92785  24.624  34.078  10.404
21257W        W92786   8.925  31.526  12.814
21258W        W92787  15.584  10.200  11.154
21259W        W92788  26.604   9.313  11.561
21260W        W92789  40.770  33.904  11.567
21261W        W92790   1.984  10.293  13.919
21262W        W92791  36.125  29.470  13.162
21263W        W92792  41.849  44.229  12.002
21264W        W92793  37.845  27.757  14.984
21265W        W92794   9.833  42.468  14.237
21266W        W92795  40.246   1.715  11.167
21267W        W92796  19.699  29.467  14.957
21268W        W92797  36.139  23.772   1.828
21269W        W92798   0.398  11.674   0.311
21270W        W92799   5.681  19.487  14.031
21271W        W92800  39.587  29.037  10.537
21272W        W92801  29.160  31.494   3.481
21273W        W92802  28.544  20.542  13.098
21274W        W92803  38.611  24.286  12.392
21275W        W92804  21.500  20.494  14.066
21276W        W92805  28.523  24.534  11.372
21277W        W92806  14.191  28.763   1.228
21278W        W92807   6.985  10.402   1.280
21279W        W92808  37.320  23.581   0.981
21280W        W92809  21.701  31.883   0.704
21281W        W92810  19.424  26.081  10.494
21282W        W92811  36.980   8.966   2.887
21283W        W92812   4.935   1.018  12.526
21284W        W92813  20.768  16.604  11.126
21285W        W92814  42.156  19.683   2.747
21286W        W92815  28.054   6.323  13.181
21287W        W92816  39.489  26.229  14.389
21288W        W92817  32.562  41.457   4.194
21289W        W92818  22.679   9.266  10.693
21290W        W92819  11.719  17.159   0.447
21291W        W92820  10.440  20.983  14.913
21292W        W92821   4.704  16.762   3.452
21293W        W92822  41.037   2.724   4.875
21294W        W92823  22.468  39.858   2.325
21295W        W92824  16.086  12.034  14.604
21296W        W92825   9.351  38.975   1.019
21297W        W92826  33.804  43.873  14.990
21298W        W92827  12.820  18.456   3.096
21299W        W92828  36.047  18.735  12.312
21300W        W92829   9.362  28.167   0.906
21301W        W92830   1.264  35.998  11.081
21302W        W92831  41.843  35.340  13.853
21303W        W92832   7.628  33.727  13.298
21304W        W92833  29.668  17.216  13.031
21305W        W92834  21.869  42.185   4.966
21306W        W92835  16.585  20.249   0.453
21307W        W92836  29.009   7.678   1.937
21308W        W92837   6.289  28.027   4.115
21309W        W92838  19.688  30.826  14.769
21310W        W92839  11.802  13.121  13.958
21311W        W92840   0.521  16.414  11.118
21312W        W92841   5.723  43.363   2.874
21313W        W92842  15.923  27.597  12.943
21314W        W92843  39.671  29.202  13.546
21315W        W92844  37.578  36.544  14.655
21316W        W92845  28.369   4.953   1.311
21317W        W92846  19.776  36.540  11.999
21318W        W92847  42.849  44.047   0.923
21319W        W92848  19.148  27.381  14.373
21320W        W92849  43.746  36.813  11.956
21321W        W92850  40.060   1.288  14.819
21322W        W92851  42.041   4.633  11.294
21323W        W92852  29.415  43.027  14.875
21324W        W92853  28.946  43.704   4.679
21325W        W92854  42.713  29.954  11.549
21326W        W92855  15.020  18.724   4.378
21327W        W92856  34.423  43.015   2.779
21328W        W92857  27.091  26.433  11.247
21329W        W92858  16.743  21.480  11.437
21330W        W92859   9.025  15.664  12.894
21331W        W92860   8.797   5.819   3.754
21332W        W92861  20.495  20.613   0.722
21333W        W92862   6.934  14.552  11.639
21334W        W92863  25.570  32.384   0.383
21335W        W92864  44.837   9.460   3.637
21336W        W92865  32.069  26.392   2.742
21337W        W92866  31.456  24.524  14.376
21338W        W92867  16.762  42.528   3.158
21339W        W92868  17.521  38.783   3.272
21340W        W92869  40.458   6.350  13.367
21341W        W92870  10.830  29.554   4.770
21342W        W92871  24.101  10.314   4.446
21343W        W92872   5.397  41.044   1.810
21344W        W92873  15.148  31.322  13.435
21345W        W92874  21.682  13.857  10.242
21346W        W92875  30.164  23.805   4.583
21347W        W92876  33.015  22.473  10.574
21348W        W92877  39.603  29.097   3.685
21349W        W92878  11.822  13.342   1.926
21350W        W92879  20.014  33.663   1.469
21351W        W92880   3.032  22.161  11.899
21352W        W92881  34.526  11.080  13.180
21353W        W92882  42.921  22.083  13.450
21354W        W92883  27.372  30.404   1.721
21355W        W92884  39.478  24.631   0.513
21356W        W92885  34.801  33.501   5.049
21357W        W92886  33.514  24.185  13.472
21358W        W92887  15.959  37.848  12.601
21359W        W92888  22.733   9.689  14.371
21360W        W92889  26.924  43.730  11.531
21361W        W92890  42.974  13.142  14.776
21362W        W92891  14.900   2.728   4.004
21363W        W92892   1.476  40.303  10.867
21364W        W92893  28.502   1.750   1.644
21365W        W92894  24.612  17.551  11.198
21366W        W92895  22.311  31.631  12.151
21367W        W92896  41.773  28.034  14.811
21368W        W92897   5.297  39.466  13.360
21369W        W92898  10.384  14.814   4.370
21370W        W92899   3.179  12.811   3.135
21371W        W92900  14.158  43.876   0.307
21372W        W92901   1.318  33.911  14.884
21373W        W92902  41.808  20.692  11.464
21374W        W92903  15.608  24.092  11.745
21375W        W92904  33.741  42.906  12.518
21376W        W92905  43.051  13.184   1.957
21377W        W92906  28.097  34.687   3.216
21378W        W92907   6.986  26.673  11.445
21379W        W92908  16.505   4.267  14.706
21380W        W92909  41.358  18.234  14.939
21381W        W92910  11.239  25.949  11.615
21382W        W92911  13.115  38.567   0.295
21383W        W92912   6.123  36.886  13.722
21384W        W92913  18.263  18.674   2.693
21385W        W92914  44.458  44.058  10.246
21386W        W92915  19.619   3.133  11.574
21387W        W92916  27.806  13.158  13.028
21388W        W92917  34.113  22.488  14.313
21389W        W92918  21.747  27.947   4.076
21390W        W92919  27.737  22.684  12.537
21391W        W92920  37.110  32.150   2.697
21392W        W92921   7.885  14.320  13.372
21393W        W92922  29.728  38.504   0.219
21394W        W92923  39.292  37.934   0.832
21395W        W92924  36.584  25.030  12.401
21396W        W92925   5.962  20.074  11.976
21397W        W92926  26.034  42.033   1.464
21398W        W92927   8.186  44.490   0.783
21399W        W92928  39.007  38.468  13.030
21400W        W92929  17.788  27.941  11.692
21401W        W92930  30.237  29.573  14.299
21402W        W92931  27.063   0.905  13.200
21403W        W92932  27.845  30.686  14.503
21404W        W92933   1.641   1.306  13.500
21405W        W92934  25.491   7.410   4.077
21406W        W92935  14.216  12.100  12.059
21407W        W92936  35.568  31.359   0.698
21408W        W92937  19.823  40.665   9.878
21409W        W92938  33.921  14.622  14.793
21410W        W92939  22.481  30.419   0.363
21411W        W92940  15.226   2.823  10.702
21412W        W92941  24.653   6.367   1.466
21413W        W92942  42.240  14.099   2.820
21414W        W92943  39.103  24.666   1.455
21415W        W92944  41.103  21.466   0.918
21416W        W92945   1.916  40.300  14.386
21417W        W92946  34.491  40.062  12.454
21418W        W92947  18.908  21.377   4.912
21419W        W92948  24.224  19.729  10.210
21420W        W92949  13.711   1.961   4.650
21421W        W92950  42.246  42.433  11.638
21422W        W92951  33.825  31.161   3.748
21423W        W92952  28.015  40.637   4.013
21424W        W92953  37.435   1.988  11.505
21425W        W92954   5.291   9.885  14.467
21426W        W92955  12.302  23.644   3.448
21427W        W92956  18.883   3.234   0.812
21428W        W92957  10.090  11.811   2.274
21429W        W92958   3.663  38.585   3.742
21430W        W92959  39.805  19.817  11.693
21431W        W92960   4.889   4.834  11.144
21432W        W92961  40.414  26.973   4.336
21433W        W92962  43.378  13.102  13.883
21434W        W92963  25.669  18.056  12.655
21435W        W92964  42.321  23.413   2.255
21436W        W92965  16.530  13.409   1.835
21437W        W92966   4.851   0.481  13.987
21438W        W92967  12.748   0.326  11.536
21439W        W92968  42.948  10.038   1.412
21440W        W92969  37.319   1.592  13.513
21441W        W92970  27.258  41.816   1.695
21442W        W92971   2.162   8.812  13.998
21443W        W92972  26.566  23.679   0.484
21444W        W92973  14.923  41.666  14.752
21445W        W92974  13.328  22.881  14.446
21446W        W92975  44.788   3.649   0.726
21447W        W92976  44.070  33.932  14.757
21448W        W92977  12.405  24.131   2.355
21449W        W92978   7.772  31.008   1.019
21450W        W92979   0.211  29.010  11.921
21451W        W92980  38.428  37.833  11.573
21452W        W92981  19.457   1.909  14.910
21453W        W92982  42.337  26.060  11.688
21454W        W92983   6.802  40.353  12.895
21455W        W92984   5.297  28.541   2.193
21456W        W92985  31.169  17.061  12.048
21457W        W92986   8.776  15.746   1.359
21458W        W92987  14.991  15.673   4.193
21459W        W92988   2.818   9.630  10.720
21460W        W92989  21.249  32.268  10.242
21461W        W92990   7.298  29.342  14.619
21462W        W92991  22.041  31.583   2.160
21463W        W92992  44.009   6.944   3.293
21464W        W92993  28.200  40.838  10.704
21465W        W92994  13.625  40.855   1.193
21466W        W92995  32.680  15.732  11.230
21467W        W92996  34.072  30.004   0.273
21468W        W92997  35.107  24.498  14.881
21469W        W92998   3.617  20.089  10.756
21470W        W92999  20.467  20.466  13.910
21471W        W93000  27.001  17.221  12.427
21472W        W93001  20.021   1.821  13.470
21473W        W93002  41.704  13.400   2.323
21474W        W93003  26.071  41.481  14.608
21475W        W93004  39.166   7.834  14.793
21476W        W93005  44.343  18.335   4.755
21477W        W93006  33.450  38.648  13.941
21478W        W93007   8.667  38.591  12.875
21479W        W93008  30.618  18.285   0.240
21480W        W93009   4.422  33.575  11.018
21481W        W93010  36.659  28.430  12.511
21482W        W93011  20.636  37.631   1.891
21483W        W93012  41.919  14.776  13.182
21484W        W93013  38.261   3.958   1.856
21485W        W93014   9.640  28.202   4.727
21486W        W93015  17.775   1.513  13.950
21487W        W93016  32.786  25.889   2.609
21488W        W93017  24.008  15.660  11.211
21489W        W93018   7.209   9.283  12.549
21490W        W93019  11.376  14.873   3.242
21491W        W93020   2.742   8.363   4.878
21492W        W93021  22.948   5.244  12.196
21493W        W93022  12.814  28.125   1.226
21494W        W93023  35.611   0.351  12.953
21495W        W93024   8.201  21.074  10.897
21496W        W93025  27.203  41.471   3.238
21497W        W93026  12.395  28.155  12.432
21498W        W93027  39.350  20.828  14.394
21499W        W93028   6.396  22.763   2.338
21500W        W93029  23.788   3.903  13.297
21501W        W93030  40.965  39.316   0.898
21502W        W93031   5.331  35.843   0.583
21503W        W93032   3.935  27.485  14.024
21504W        W93033  20.321  42.355   0.816
21505W        W93034  33.913  16.817   4.445
21506W        W93035   3.967   3.854  11.652
21507W        W93036  20.716  11.378   1.805
21508W        W93037  42.509  44.783   3.749
21509W        W93038   1.533   8.663  13.408
21510W        W93039  10.821  40.273  10.732
21511W        W93040  14.962  33.951   4.015
21512W        W93041  38.389  18.061  14.362
21513W        W93042   3.330  12.653  10.985
21514W        W93043  43.881  27.101  13.463
21515W        W93044   3.886  26.166  12.456
21516W        W93045   5.001  32.451  14.475
21517W        W93046  40.110   5.817   4.168
21518W        W93047  18.638  21.161   2.722
21519W        W93048  26.993   0.123  14.576
21520W        W93049  40.757  40.236   4.213
21521W        W93050  23.462  42.506   1.392
21522W        W93051  10.476  40.540  11.966
21523W        W93052  44.773  19.528  12.171
21524W        W93053  12.192  42.901   5.137
21525W        W93054  40.018   5.121  12.070
21526W        W93055   2.488  31.886  11.641
21527W        W93056  29.851   1.280   4.157
21528W        W93057  19.035  36.464  13.111
21529W        W93058  34.709  43.859   1.054
21530W        W93059  28.225  12.596  13.619
21531W        W93060  37.967  43.310  10.676
21532W        W93061  39.387   7.189   2.259
21533W        W93062  10.447  17.857   1.772
21534W        W93063  22.989  17.749  11.067
21535W        W93064  37.593  35.604  10.712
21536W        W93065  10.163  24.692  13.512
21537W        W93066  33.436  24.041   3.195
21538W        W93067  42.407  27.123  12.330
21539W        W93068  39.833  10.910   0.245
21540W        W93069  20.686  24.786   3.995
21541W        W93070  31.436   6.863   3.728
21542W        W93071   1.418   8.719  11.006
21543W        W93072  21.014  33.379   0.382
21544W        W93073  19.043  12.938  12.108
21545W        W93074  14.251  29.638   0.867
21546W        W93075  23.239  40.918   1.058
21547W        W93076  30.357   0.474   4.519
21548W        W93077  32.787  34.638  14.222
21549W        W93078  10.660  20.739  11.073
21550W        W93079  33.535  42.420   2.904
21551W        W93080  33.513  28.278  12.666
21552W        W93081  34.617  22.192  13.549
21553W        W93082  44.335  26.486   3.803
21554W        W93083  38.775   9.398  13.568
21555W        W93084   3.784  37.985  12.562
21556W        W93085  25.228  28.446   4.087
21557W        W93086  40.624  12.670   1.320
21558W        W93087  32.645  14.237  12.166
21559W        W93088  33.226  13.277  12.608
21560W        W93089  35.589  29.192   4.424
21561W        W93090  32.912  21.586   3.265
21562W        W93091  13.588  27.948   4.217
21563W        W93092  23.957  25.504  11.906
21564W        W93093  10.622  20.607   0.202
21565W        W93094  17.530  28.526   3.670
21566W        W93095  17.530  40.378  14.449
21567W        W93096   3.344   4.701  13.914
21568W        W93097  33.716  38.812  11.078
21569W        W93098   9.963  18.798   3.813
21570W        W93099  37.032  38.330  11.966
21571W        W93100   2.460  13.148   4.394
21572W        W93101  24.234   8.497  14.398
21573W        W93102  18.941  37.461  14.993
21574W        W93103  37.930   7.281   2.670
21575W        W93104   3.689  17.253  13.455
21576W        W93105   7.110  37.437  14.445
21577W        W93106  16.673  13.312   0.249
21578W        W93107   1.746  19.225  11.139
21579W        W93108   6.393  16.984  11.953
21580W        W93109   4.456  22.188   0.463
21581W        W93110  41.542   8.174  10.673
21582W        W93111  27.119  18.574   3.228
21583W        W93112  11.356  31.417   3.651
21584W        W93113  42.600  11.820  11.981
21585W        W93114  19.264   1.962  10.703
21586W        W93115  10.171  17.942   2.993
21587W        W93116   1.069  44.319  10.321
21588W        W93117  29.119  24.762   2.275
21589W        W93118  23.751  23.211  13.947
21590W        W93119  38.920  44.434  13.052
21591W        W93120  10.255   2.553   3.726
21592W        W93121  24.811  25.700  14.791
21593W        W93122  32.055  42.043   0.028
21594W        W93123  31.187   1.294   3.750
21595W        W93124  42.742   7.805   2.689
21596W        W93125  44.652  38.083   2.182
21597W        W93126  38.819  19.207  13.006
21598W        W93127  18.093   5.156   3.214
21599W        W93128  14.177   8.202   1.411
21600W        W93129  11.053  44.374   4.029
21601W        W93130  21.269  42.340  13.952
21602W        W93131  35.009  16.819   3.363
21603W        W93132   5.216  31.590  14.357
21604W        W93133   5.284  41.465  10.710
21605W        W93134   5.952   0.075   2.077
21606W        W93135  29.568  40.207  12.961
21607W        W93136  32.303  36.015   1.846
21608W        W93137   4.774  23.939   2.006
21609W        W93138   8.813  24.767   1.368
21610W        W93139   3.952  27.730   3.326
21611W        W93140  25.941  29.030   4.686
21612W        W93141   7.270   1.487  12.863
21613W        W93142   4.314  23.330  11.491
21614W        W93143  44.810  33.718  14.006
21615W        W93144   5.739  24.824  14.221
21616W        W93145  19.627  37.053  12.107
21617W        W93146  40.525  39.932   0.276
21618W        W93147   0.522  40.518  11.375
21619W        W93148   8.150  17.130   1.482
21620W        W93149  17.505  26.565   1.995
21621W        W93150   2.406  11.590   1.694
21622W        W93151  39.432  41.163  11.126
21623W        W93152  13.868   9.642   2.444
21624W        W93153  37.524   3.865   0.395
21625W        W93154  20.143  14.196  13.488
21626W        W93155  12.885  12.675  14.286
21627W        W93156  28.704  27.629  11.729
21628W        W93157  25.070  29.975  11.437
21629W        W93158  20.418  36.959   2.736
21630W        W93159  20.102  43.353  10.943
21631W        W93160   0.765  44.546  13.508
21632W        W93161  38.466  33.987   3.954
21633W        W93162  21.771  19.808  12.583
21634W        W93163   7.472   7.857  14.273
21635W        W93164  15.475  11.093  14.426
21636W        W93165  40.564  23.233   2.398
21637W        W93166  14.575  44.260  11.704
21638W        W93167  32.405   7.750   2.702
21639W        W93168  21.608  29.176   3.348
21640W        W93169  10.899  33.024  13.512
21641W        W93170  17.239  38.093   3.715
21642W        W93171  27.103  39.877   2.918
21643W        W93172  35.847  26.131  10.752
21644W        W93173  22.563  22.575   1.675
21645W        W93174  29.444  27.741   1.935
21646W        W93175   8.374  10.572   2.182
21647W        W93176  32.438  31.208  10.894
21648W        W93177  25.501  28.716   3.182
21649W        W93178   1.674  18.389   4.205
21650W        W93179   2.721  17.146   2.649
21651W        W93180  30.073  14.898  12.071
21652W        W93181  44.998   4.338  12.081
21653W        W93182   8.773  24.616   3.547
21654W        W93183  25.816  42.776   1.929
21655W        W93184  10.805  10.305   2.764
21656W        W93185  28.375  19.743  12.204
21657W        W93186  26.117  32.489  12.958
21658W        W93187  43.900  28.630   2.228
21659W        W93188  20.566   5.824  14.254
21660W        W93189   8.827   4.344  14.224
21661W        W93190  15.314   3.228   4.631
21662W        W93191  24.007  39.675   4.007
21663W        W93192  16.780  27.219   3.105
21664W        W93193  33.943  43.875  14.049
21665W        W93194  21.789  41.529   3.767
21666W        W93195   1.240  35.791   5.578
21667W        W93196  42.226   0.525  14.360
21668W        W93197  26.632  16.131   1.321
21669W        W93198  28.438  26.174  13.574
21670W        W93199  16.586  38.723  10.969
21671W        W93200   2.422   1.504   4.492
21672W        W93201  41.984  14.796   3.816
21673W        W93202  21.610   1.452   2.160
21674W        W93203  20.782  28.649  14.451
21675W        W93204  22.815  20.164   3.149
21676W        W93205   5.219  26.289   0.644
21677W        W93206  36.922  27.552  12.740
21678W        W93207  32.122  12.094   4.212
21679W        W93208  19.143  40.681  11.805
21680W        W93209  35.548  21.567   4.374
21681W        W93210  12.815  16.849   1.391
21682W        W93211  36.095  37.024   1.420
21683W        W93212  31.425   2.639  11.247
21684W        W93213  19.196  28.340  12.350
21685W        W93214  27.924  36.782   1.878
21686W        W93215  19.638  44.861  12.858
21687W        W93216   6.789  30.230   0.521
21688W        W93217  43.961  27.992   4.558
21689W        W93218  23.102  26.504  14.036
21690W        W93219   5.379  41.491   1.469
21691W        W93220  25.439   2.147  12.549
21692W        W93221   6.838   3.342   0.543
21693W        W93222   8.801  17.068  10.631
21694W        W93223   9.368  16.189   0.773
21695W        W93224  15.038   6.346  13.657
21696W        W93225  21.216  13.884  13.278
21697W        W93226   4.499   7.859  12.499
21698W        W93227   8.838  29.892  11.996
21699W        W93228   7.146   0.132   3.331
21700W        W93229  40.470  29.748  11.588
21701W        W93230  26.536  31.276  11.630
21702W        W93231  13.706  33.647  12.048
21703W        W93232  32.694  33.364   1.832
21704W        W93233  20.149  20.403   1.055
21705W        W93234  41.246  27.475  13.738
21706W        W93235  10.190  35.366   1.075
21707W        W93236  37.955  22.058  14.853
21708W        W93237  22.691  23.930   0.235
21709W        W93238  20.129  35.899   4.587
21710W        W93239  40.452  36.240   4.665
21711W        W93240  26.826   4.883   0.423
21712W        W93241   6.590  15.033  11.641
21713W        W93242  44.758  31.763   2.590
21714W        W93243  38.861  36.865  14.754
21715W        W93244  14.110  29.240  13.919
21716W        W93245   8.884  20.574  11.379
21717W        W93246   7.870  38.939   3.847
21718W        W93247  43.539  42.931  14.953
21719W        W93248  25.074  13.330   4.577
21720W        W93249   3.425  36.808   0.285
21721W        W93250  19.255   2.830  13.628
21722W        W93251  40.610  30.941  13.963
21723W        W93252  17.345  23.042  14.406
21724W        W93253   7.072  32.138  10.678
21725W        W93254  42.970  33.130  13.811
21726W        W93255  43.097   8.326  14.740
21727W        W93256  15.800  29.044   3.993
21728W        W93257   0.324  24.449  11.615
21729W        W93258  24.272  44.095  11.617
21730W        W93259  31.095   6.476  12.544
21731W        W93260  32.489  11.932   1.939
21732W        W93261  27.066   3.430   1.729
21733W        W93262  21.102  26.171  13.055
21734W        W93263  30.146  37.155  12.567
21735W        W93264   2.993  43.450   4.153
21736W        W93265  31.353  35.934   0.831
21737W        W93266  31.093  29.380   0.281
21738W        W93267  15.046  11.281  10.680
21739W        W93268  41.535   0.977  10.433
21740W        W93269   7.217  14.795  14.549
21741W        W93270  37.410   4.712  14.289
21742W        W93271  36.551   5.545   0.963
21743W        W93272  21.721  37.351  13.316
21744W        W93273  30.658  38.946  12.847
21745W        W93274  21.133  13.863  12.385
21746W        W93275  32.500  23.781  11.456
21747W        W93276   0.861  34.188  11.636
21748W        W93277  43.456   7.935  14.678
21749W        W93278  42.792  10.635  11.639
21750W        W93279   1.497  28.067   4.720
21751W        W93280   3.873  21.943  13.459
21752W        W93281  34.678  15.172  14.421
21753W        W93282   6.269  38.302   2.388
21754W        W93283  20.118  30.852  10.933
21755W        W93284  36.448  37.592  13.605
21756W        W93285  20.239  30.361  12.458
21757W        W93286   9.920  15.185  13.101
21758W        W93287  24.017  38.993   0.646
21759W        W93288  17.372  19.552   1.375
21760W        W93289   3.011  13.307   3.063
21761W        W93290  34.108   0.749  12.013
21762W        W93291  29.524  28.972  14.438
21763W        W93292   7.761  37.047   3.750
21764W        W93293  18.507  39.068   3.269
21765W        W93294  29.533   3.749   3.119
21766W        W93295   2.094  33.606   0.490
21767W        W93296  11.156  23.189  12.869
21768W        W93297   2.661  21.202   3.436
21769W        W93298  30.041  18.327   4.393
21770W        W93299  11.544  15.753  12.040
21771W        W93300  13.900   4.839   3.697
21772W        W93301  16.006  32.366  14.145
21773W        W93302  25.535   7.439  13.449
21774W        W93303  15.873  34.627   3.291
21775W        W93304  11.397  30.492  13.486
21776W        W93305  30.122   8.885   2.358
21777W        W93306  19.962  22.819  13.690
21778W        W93307  31.959  28.976   1.322
21779W        W93308  26.636  30.659   0.299
21780W        W93309  23.335  25.009  11.182
21781W        W93310  22.657  22.454  11.693
21782W        W93311  44.763  38.863   1.109
21783W        W93312  13.189  12.576  10.695
21784W        W93313   5.839   2.328  12.234
21785W        W93314   4.518  29.945   2.847
21786W        W93315  43.726   0.749   2.780
21787W        W93316  36.875   1.980  14.876
21788W        W93317  44.477  40.890  11.991
21789W        W93318  10.227  33.999   0.011
21790W        W93319  17.187  15.341  11.616
21791W        W93320  11.385  16.170  14.619
21792W        W93321  35.671  35.090  12.580
21793W        W93322  21.464  44.861  10.476
21794W        W93323  38.122  39.913   2.520
21795W        W93324  36.971  26.949   2.583
21796W        W93325  18.093  19.209   0.942
21797W        W93326  23.577  21.267   4.384
21798W        W93327  44.455  11.277  12.282
21799W        W93328  29.046  32.557  12.511
21800W        W93329  13.672  26.498  12.449
21801W        W93330  43.021  40.948   0.219
21802W        W93331  27.629  17.249   1.426
21803W        W93332  17.656  11.741   1.986
21804W        W93333   5.122  33.409  12.725
21805W        W93334  37.265  34.059  11.996
21806W        W93335  42.517  27.698   3.252
21807W        W93336  12.878   2.258   1.851
21808W        W93337  29.119  40.862  14.733
21809W        W93338  24.803  19.870   3.156
21810W        W93339   5.325  25.276  14.477
21811W        W93340  10.327  25.957  13.904
21812W        W93341  29.222  29.885   4.148
21813W        W93342  16.401  22.087  13.458
21814W        W93343  39.643  18.734  12.964
21815W        W93344   4.963  17.209   0.770
21816W        W93345  11.152  16.616  14.555
21817W        W93346  44.573  24.111  14.012
21818W        W93347  14.647  27.376   0.492
21819W        W93348  33.463  28.471   4.676
21820W        W93349  23.475  18.750   4.435
21821W        W93350  41.794  18.296   3.669
21822W        W93351  44.146  43.302   3.582
21823W        W93352   1.569  13.855  13.900
21824W        W93353  13.382  30.244  14.532
21825W        W93354  38.136  39.398  13.488
21826W        W93355  42.462  15.278  11.120
21827W        W93356  31.992  19.942   2.260
21828W        W93357  11.605  34.505  10.064
21829W        W93358  22.065  33.699   4.891
21830W        W93359  25.938  40.547  12.975
21831W        W93360  15.843  12.651   9.877
21832W        W93361  21.175  33.074   4.129
21833W        W93362  21.776  29.193  14.701
21834W        W93363  23.970  12.682   4.048
21835W        W93364   3.812  34.902   0.710
21836W        W93365   2.588  28.424   4.799
21837W        W93366  16.562  42.921  14.909
21838W        W93367  10.344  10.095   2.758
21839W        W93368  33.619  24.589   0.985
21840W        W93369  28.374  13.084   0.090
21841W        W93370  33.481  11.885  10.658
21842W        W93371  24.091  29.409  11.069
21843W        W93372  13.593  44.424  12.277
21844W        W93373  32.301  12.938  11.621
21845W        W93374   4.383  44.483  10.096
21846W        W93375  12.408   4.911  12.646
21847W        W93376  11.313  16.766   4.615
21848W        W93377  36.878  32.593  13.828
21849W        W93378  28.994  30.153   1.235
21850W        W93379  23.499  25.991   2.134
21851W        W93380  44.214  17.779   0.685
21852W        W93381  31.219  24.108   4.461
21853W        W93382  18.622  43.823  11.645
21854W        W93383   1.816  37.860   0.260
21855W        W93384   7.037  10.211  12.022
21856W        W93385   9.188  17.099   2.700
21857W        W93386  32.995  32.964  12.972
21858W        W93387  42.807  25.597  13.578
21859W        W93388  20.988   1.996   3.143
21860W        W93389  39.321  27.906  11.117
21861W        W93390  43.308  37.871   0.497
21862W        W93391  27.429  37.356   4.510
21863W        W93392  19.725  44.642   3.109
21864W        W93393  13.753  30.388   1.759
21865W        W93394   5.776  41.149  13.376
21866W        W93395  31.813   3.821   0.818
21867W        W93396  25.182  29.175  13.504
21868W        W93397  29.869  31.446  11.258
21869W        W93398  11.360   9.665   3.580
21870W        W93399  42.060   1.859  12.420
21871W        W93400  35.370  36.076   3.387
21872W        W93401  16.991  17.686   0.436
21873W        W93402  24.463   9.663   0.322
21874W        W93403  34.882  25.351  12.283
21875W        W93404  36.912   0.771   3.630
21876W        W93405   4.442  20.160  14.851
21877W        W93406  19.505  23.983   2.721
21878W        W93407  43.784  12.373  14.432
21879W        W93408  17.231  10.081  14.358
21880W        W93409  13.772  12.696  10.565
21881W        W93410  41.324   3.959   1.713
21882W        W93411  40.795  14.319   1.015
21883W        W93412  29.237  10.945  10.730
21884W        W93413  44.799  26.361  10.702
21885W        W93414  11.574  11.701   3.248
21886W        W93415  10.191  39.584  10.834
21887W        W93416  29.231   7.631   4.436
21888W        W93417   8.339   3.767   1.184
21889W        W93418  16.688   6.900   1.768
21890W        W93419  11.540  28.780  13.393
21891W        W93420   4.792  34.512   2.147
21892W        W93421  13.242  10.909   1.891
21893W        W93422  16.350  36.616  12.975
21894W        W93423  18.604  23.545   1.056
21895W        W93424  37.087  32.698   2.685
21896W        W93425  25.910  14.707  12.523
21897W        W93426  28.532   1.947   4.532
21898W        W93427  22.893  34.344   5.010
21899W        W93428  23.316  44.144   2.795
21900W        W93429   6.389  18.508  14.332
21901W        W93430  39.947   2.455   2.313
21902W        W93431  32.367  25.260   3.203
21903W        W93432  21.505  18.762  13.217
21904W        W93433  19.115  36.109   0.781
21905W        W93434  22.840  35.523   4.595
21906W        W93435   7.902  42.542   2.884
21907W        W93436   4.356  28.037   2.203
21908W        W93437  28.525  44.032   1.460
21909W        W93438  15.659  25.669   2.688
21910W        W93439  22.078  12.832   3.063
21911W        W93440   9.689   1.545   2.288
21912W        W93441  39.083  14.791   3.475
21913W        W93442  33.138  43.063   1.134
21914W        W93443  39.023  30.089  12.839
21915W        W93444   7.703  14.240   4.743
21916W        W93445  24.251  28.310  12.618
21917W        W93446  41.578  39.350  11.619
21918W        W93447  18.726  21.601   0.412
21919W        W93448  33.923  21.320   0.447
21920W        W93449  30.973  29.598  11.688
21921W        W93450  43.942  17.688   2.423
21922W        W93451  16.536  23.572  10.268
21923W        W93452   0.741  21.653   3.469
21924W        W93453  41.478  24.141   4.242
21925W        W93454   5.344   7.956  12.401
21926W        W93455  35.613   5.662   3.861
21927W        W93456  32.564  33.337   2.411
21928W        W93457  22.186  32.820   3.636
21929W        W93458  13.588   0.898  12.416
21930W        W93459   5.138  10.686   2.758
21931W        W93460   3.822  26.981   0.135
21932W        W93461  27.523  37.713   3.689
21933W        W93462   4.708   3.673  13.601
21934W        W93463   5.958  22.458  12.455
21935W        W93464  20.672   4.694   0.723
21936W        W93465  23.079  27.467  14.823
21937W        W93466   7.226  13.309   4.589
21938W        W93467  18.174  11.711   1.858
21939W        W93468  14.735  25.921   2.680
21940W        W93469  44.950   7.950  12.311
21941W        W93470  10.717  16.149   0.457
21942W        W93471  28.457  36.572  10.696
21943W        W93472   6.903  26.860   2.705
21944W        W93473  28.877  23.143   0.441
21945W        W93474   6.776   8.670   4.864
21946W        W93475   7.355  26.693  11.062
21947W        W93476  27.522  26.973  10.684
21948W        W93477  16.828  31.893  13.979
21949W        W93478   1.764   1.292  12.463
21950W        W93479  25.583  32.090   3.224
21951W        W93480  31.076  13.352   0.605
21952W        W93481   5.351  10.375   4.590
21953W        W93482  12.247   7.211  13.099
21954W        W93483  17.221  23.070   1.796
21955W        W93484  43.514   8.202  12.053
21956W        W93485  40.419  32.332   1.815
21957W        W93486  21.183   7.773   3.743
21958W        W93487   3.933  27.241   1.886
21959W        W93488   9.471  23.752   2.110
21960W        W93489  44.224  29.955   0.767
21961W        W93490   0.519  18.035  10.654
21962W        W93491  43.730  33.567  11.515
21963W        W93492  16.315  15.397  14.375
21964W        W93493  10.127  40.925  11.987
21965W        W93494  28.050  18.298  10.808
21966W        W93495   3.053  21.448  11.710
21967W        W93496  43.673  20.260  13.508
21968W        W93497   9.450  15.924  12.765
21969W        W93498  15.679   9.901  10.374
21970W        W93499  33.492  28.916   2.371
21971W        W93500  31.784  20.422   2.141
21972W        W93501  10.232  44.747  13.459
21973W        W93502  10.330  24.104   4.658
21974W        W93503  12.349  42.012   3.167
21975W        W93504  33.986  32.562   2.613
21976W        W93505   5.669  30.603   1.313
21977W        W93506  28.850  22.937   2.836
21978W        W93507  13.954  33.447  14.517
21979W        W93508  14.688  14.629  11.355
21980W        W93509   3.424  40.285   4.393
21981W        W93510  16.552  22.774   1.983
21982W        W93511  38.101  13.239   2.804
21983W        W93512  18.668  20.354   3.093
21984W        W93513  17.790   0.869   2.230
21985W        W93514  32.568  19.824  14.789
21986W        W93515   7.243   0.986  12.921
21987W        W93516   1.216  12.343   2.664
21988W        W93517  41.365   3.935   0.060
21989W        W93518  30.910  43.907  11.879
21990W        W93519  40.229  40.406  11.098
21991W        W93520  33.703  35.985   1.932
21992W        W93521  11.641  16.732   2.753
21993W        W93522  37.537  22.575  14.327
21994W        W93523  44.020   2.438   0.034
21995W        W93524   7.623  20.753   3.815
21996W        W93525  42.538  32.530  10.855
21997W        W93526   8.151  16.587   3.284
21998W        W93527   9.137  38.392  12.968
21999W        W93528  13.387   3.568   2.571
22000W        W93529  38.422  36.484   4.232
22001W        W93530  11.718  43.483   1.985
22002W        W93531  21.087  41.651  11.118
22003W        W93532  32.379  26.561  13.002
22004W        W93533  41.352   1.785   0.928
22005W        W93534  30.974  44.391  10.034
22006W        W93535  20.217  29.470   5.832
22007W        W93536  42.287  15.761   0.419
22008W        W93537  39.444   8.080   1.808
22009W        W93538   2.825  16.584  10.374
22010W        W93539  25.717  37.455  13.682
22011W        W93540  33.427  30.880   2.508
22012W        W93541  28.736  44.966   1.296
22013W        W93542  19.700  15.364   1.225
22014W        W93543   7.175  38.784   2.236
22015W        W93544  29.829   8.843  10.924
22016W        W93545  14.796  34.372   4.666
22017W        W93546  44.216  29.511  14.100
22018W        W93547  15.744   1.881  11.566
22019W        W93548  39.457  17.616   4.910
22020W        W93549  26.770  26.607   4.190
22021W        W93550  25.400   7.789  12.801
22022W        W93551  31.942   0.729  11.039
22023W        W93552  18.524  37.982  12.533
22024W        W93553  10.141  36.002  13.848
22025W        W93554  26.272  21.177   0.691
22026W        W93555  36.118  20.640   2.313
22027W        W93556  42.264  15.805   3.247
22028W        W93557  31.523  16.219   1.359
22029W        W93558  13.477  24.037   0.833
22030W        W93559  32.425  27.315  11.471
22031W        W93560   3.558  28.503  12.118
22032W        W93561   1.386   1.438  14.780
22033W        W93562  43.327  16.167   0.946
22034W        W93563   1.298  44.883   1.852
22035W        W93564  22.732  22.792   3.663
22036W        W93565   3.958  34.925  10.656
22037W        W93566   9.656  38.913   0.065
22038W        W93567   9.570  18.131   0.391
22039W        W93568  40.516   5.355  13.336
22040W        W93569  31.335  29.031   4.208
22041W        W93570  41.937  37.788  13.834
22042W        W93571   1.547  37.422  12.951
22043W        W93572  40.997  23.416  13.062
22044W        W93573   1.923  23.699  13.300
22045W        W93574  26.975  32.461   0.479
22046W        W93575  19.803  17.870   4.613
22047W        W93576  24.545  17.374   0.808
22048W        W93577  43.674  12.327  10.616
22049W        W93578  22.075  33.831   3.556
22050W        W93579  24.946  14.600   2.684
22051W        W93580  38.325  44.595  12.322
22052W        W93581  26.671  34.330   2.201
22053W        W93582   2.739  44.892  12.123
22054W        W93583  30.706  23.630  14.611
22055W        W93584  41.668   6.585   2.157
22056W        W93585  33.833  17.520  12.016
22057W        W93586  35.035   2.971  14.466
22058W        W93587  37.797   5.570   0.303
22059W        W93588   8.627  21.321   4.337
22060W        W93589   3.502  44.988  13.110
22061W        W93590  12.095   8.742   1.911
22062W        W93591  16.300  13.831   2.573
22063W        W93592  34.595  36.154  14.407
22064W        W93593  32.584  24.034  11.026
22065W        W93594   6.083  26.402   4.830
22066W        W93595  36.866  41.925  13.594
22067W        W93596  14.406  19.514  12.573
22068W        W93597  11.119  29.547  11.535
22069W        W93598  32.178  36.556   1.814
22070W        W93599  32.557  15.998  10.682
22071W        W93600   7.811   3.273  12.002
22072W        W93601  41.116  18.744  12.011
22073W        W93602  20.315  37.939   3.654
22074W        W93603  16.276  24.403   5.086
22075W        W93604  38.895  12.651  10.711
22076W        W93605   1.420   6.609  14.038
22077W        W93606  26.590  40.745  11.424
22078W        W93607  13.637  24.550  12.454
22079W        W93608   4.903   8.713  12.598
22080W        W93609  35.478  24.678   0.622
22081W        W93610  11.807  29.143  14.501
22082W        W93611  26.910  40.360   2.919
22083W        W93612  25.148   9.207  10.773
22084W        W93613   0.409  28.300  12.639
22085W        W93614  22.515  13.569  11.478
22086W        W93615  30.512  12.165   1.739
22087W        W93616  20.709  37.018  10.590
22088W        W93617   3.484  43.819  11.467
22089W        W93618   1.556  21.143   1.543
22090W        W93619  34.279  29.740  10.803
22091W        W93620  28.880  33.906   4.486
22092W        W93621  34.879  23.501   2.225
22093W        W93622  22.929  33.350  11.532
22094W        W93623  38.490  43.375   3.464
22095W        W93624  42.619   6.908  12.827
22096W        W93625  42.794  12.231   2.339
22097W        W93626  15.534  23.984   0.665
22098W        W93627  38.425   5.315   2.177
22099W        W93628  22.670  30.576   0.832
22100W        W93629   7.423   0.729   2.365
22101W        W93630  21.246  21.124   5.112
22102W        W93631  23.592  34.111  13.414
22103W        W93632  23.278  39.911   1.894
22104W        W93633   4.253  21.776   3.114
22105W        W93634  15.913   3.282   0.292
22106W        W93635  31.569  20.076  13.444
22107W        W93636   2.129  15.229  11.577
22108W        W93637   0.418   6.415   4.072
22109W        W93638  26.568  25.523  10.633
22110W        W93639  33.362   9.564   4.324
22111W        W93640  41.838  16.355  10.006
22112W        W93641  25.508  15.813   0.391
22113W        W93642  32.991  33.709   3.209
22114W        W93643  17.244   7.173  13.775
22115W        W93644  32.357  16.709  11.116
22116W        W93645   7.885   7.420  11.201
22117W        W93646  31.398   4.499  13.946
22118W        W93647  30.342  43.747  13.404
22119W        W93648   4.330  24.341   0.791
22120W        W93649  25.281  17.073   2.328
22121W        W93650  44.911  42.859   1.875
22122W        W93651   5.828  11.731   0.190
22123W        W93652  19.732  14.229   2.732
22124W        W93653  15.617  23.712   2.047
22125W        W93654  29.841  19.704  10.322
22126W        W93655  40.441  15.775  11.650
22127W        W93656  22.389  36.562   0.329
22128W        W93657  39.363  14.346   1.105
22129W        W93658  17.803  19.252   1.383
22130W        W93659   0.259   2.462  13.194
22131W        W93660  14.804   6.159   1.658
22132W        W93661  44.733  37.415   2.719
22133W        W93662  24.013  10.141   3.149
22134W        W93663  35.117  18.423   4.100
22135W        W93664  31.798  20.541   3.107
22136W        W93665   3.001   2.798  12.123
22137W        W93666   8.418  38.435   0.000
22138W        W93667  30.339  20.012   1.336
22139W        W93668  31.690   2.141  13.553
22140W        W93669  29.159   0.398  12.934
22141W        W93670  16.666  10.313   2.830
22142W        W93671  16.780  39.755   1.908
22143W        W93672  31.348   4.259  11.410
22144W        W93673  40.810  35.947  14.461
22145W        W93674  29.654  22.450  12.973
22146W        W93675  24.798  12.690   4.433
22147W        W93676  23.427  38.577   1.642
22148W        W93677  44.708  27.909  12.656
22149W        W93678  43.503  28.935   3.693
22150W        W93679  44.145  22.797  14.452
22151W        W93680  25.632  21.974   2.715
22152W        W93681  10.076  40.406   0.433
22153W        W93682  35.191  26.894  14.381
22154W        W93683  26.480  14.258   3.128
22155W        W93684  27.938  16.216  13.930
22156W        W93685  40.424  13.772  13.876
22157W        W93686   8.478  27.780  14.262
22158W        W93687  20.532  31.086  14.211
22159W        W93688   4.745  39.562  14.811
22160W        W93689  18.791  37.134  10.735
22161W        W93690  42.398  39.865   3.204
22162W        W93691   0.495  10.437  12.428
22163W        W93692  21.826  43.980  13.409
22164W        W93693  12.837  36.898   0.042
22165W        W93694  18.299  38.517   2.687
22166W        W93695  32.290  42.826   0.966
22167W        W93696   7.543  42.996   1.040
22168W        W93697  40.966  38.399  11.975
22169W        W93698  10.302   2.292   4.338
22170W        W93699  32.554  16.094   4.147
22171W        W93700  40.220  31.650   4.081
22172W        W93701  18.792  35.259   4.126
22173W        W93702   6.312  17.246  13.991
22174W        W93703  27.242   3.835   2.001
22175W        W93704  19.071  33.409  11.871
22176W        W93705  25.610  38.321   3.787
22177W        W93706  36.253  42.989   3.145
22178W        W93707  35.011  36.490   3.381
22179W        W93708  29.637  19.598   0.406
22180W        W93709  18.345  22.339   4.159
22181W        W93710  22.101  26.456   3.174
22182W        W93711  33.943   5.493   2.626
22183W        W93712  30.670   0.288  14.471
22184W        W93713  28.442  20.629   3.530
22185W        W93714  34.821   9.692  11.107
22186W        W93715  16.364  39.451   3.801
22187W        W93716  30.058  28.214  14.964
22188W        W93717  15.846  13.172   1.435
22189W        W93718  14.805  24.372   4.108
22190W        W93719  40.006  33.014  12.864
22191W        W93720  39.458  41.777   4.120
22192W        W93721  19.780  40.719  12.079
22193W        W93722  33.401   0.764  13.065
22194W        W93723  16.285  20.715  13.631
22195W        W93724  34.298  41.362  12.470
22196W        W93725  10.110  28.032  12.450
22197W        W93726   2.429  30.104   3.376
22198W        W93727   7.259  35.191   3.367
22199W        W93728  18.647   9.113  13.543
22200W        W93729  34.493  33.756  11.346
22201W        W93730   5.850  39.995  14.207
22202W        W93731  14.391  24.010  13.952
22203W        W93732  12.437  15.297   3.141
22204W        W93733  30.478  36.596   5.068
22205W        W93734  34.531  41.061   0.483
22206W        W93735  17.381  43.840  11.177
22207W        W93736  24.699  30.776   0.230
22208W        W93737  43.439  39.993  11.196
22209W        W93738   3.000  13.706  11.726
22210W        W93739  44.325  12.365   1.651
22211W        W93740   4.956   9.309  13.363
22212W        W93741  15.868   8.479  13.316
22213W        W93742   1.784   8.905   0.615
22214W        W93743   6.713  41.460   2.888
22215W        W93744  23.537  38.393  13.656
22216W        W93745   5.188  34.904  12.800
22217W        W93746  13.219  35.122  12.759
22218W        W93747  25.678  30.810  14.449
22219W        W93748  36.364  44.485   1.477
22220W        W93749  19.269  26.963   3.229
22221W        W93750  26.610   4.480  12.874
22222W        W93751   8.224  40.492   3.292
22223W        W93752  26.823   4.486   4.327
22224W        W93753  25.849  15.702   2.065
22225W        W93754  14.573   4.461   2.129
22226W        W93755  25.462  11.197   1.364
22227W        W93756  37.152  24.359  11.276
22228W        W93757  44.071  44.784  13.145
22229W        W93758  24.304  16.083  11.206
22230W        W93759  31.505   7.885  13.969
22231W        W93760  12.344  15.608  14.865
22232W        W93761   1.395  12.300  11.743
22233W        W93762  34.031   2.495  13.885
22234W        W93763  33.087  15.586  11.527
22235W        W93764  35.596   1.244   2.283
22236W        W93765  34.607  19.803   0.920
22237W        W93766  31.080  23.667  14.979
22238W        W93767  24.536  36.067   1.612
22239W        W93768   4.269  14.829  12.316
22240W        W93769   0.447  10.178  12.861
22241W        W93770  31.981   6.000   0.209
22242W        W93771  12.359  16.156  14.931
22243W        W93772  41.586  24.735  10.663
22244W        W93773  40.920   8.396   1.743
22245W        W93774  13.620   7.809  13.279
22246W        W93775  26.590   6.866   0.144
22247W        W93776   2.098  18.594   1.728
22248W        W93777   5.681  31.133   2.723
22249W        W93778  40.460  27.702  11.560
22250W        W93779  22.793  13.654  14.890
22251W        W93780  38.871  18.794  13.767
22252W        W93781   4.717   6.404   4.533
22253W        W93782  24.101  30.485  14.205
22254W        W93783  11.209  14.387   3.262
22255W        W93784  14.803  13.839  13.286
22256W        W93785  41.968  29.196  11.552
22257W        W93786  21.347   3.485   3.635
22258W        W93787   7.870  18.361  11.474
22259W        W93788  17.122  32.309  13.981
22260W        W93789  34.894   5.013   4.604
22261W        W93790  31.926  32.002  11.615
22262W        W93791   2.919  16.695  12.126
22263W        W93792  26.416  26.005  10.751
22264W        W93793   1.375  14.136   1.228
22265W        W93794   5.410  18.291   0.344
22266W        W93795  10.448  26.056  10.985
22267W        W93796  44.718  44.286  14.691
22268W        W93797   1.230  14.066   3.162
22269W        W93798  28.605  27.972  10.688
22270W        W93799  43.786  21.778   4.857
22271W        W93800  25.600  32.372  12.846
22272W        W93801  31.451  12.548  12.873
22273W        W93802  24.925  10.941  10.702
22274W        W93803  27.398  24.008  11.138
22275W        W93804  42.167  39.547   4.263
22276W        W93805  13.699  33.331  14.082
22277W        W93806  33.038   0.466  10.423
22278W        W93807  42.596   8.177  14.774
22279W        W93808   2.462  24.275   4.404
22280W        W93809  40.887  35.556  13.503
22281W        W93810  19.985   1.210   3.812
22282W        W93811  27.089  37.126   0.386
22283W        W93812   9.693   6.729  10.905
22284W        W93813  10.165  28.963   3.236
22285W        W93814   4.941  13.294   5.042
22286W        W93815   9.746   6.976  12.657
22287W        W93816  38.177  41.520  14.965
22288W        W93817  24.139  39.347   5.017
22289W        W93818  36.865  31.495  13.471
22290W        W93819  30.690  39.624  12.671
22291W        W93820   1.226  20.582   2.914
22292W        W93821  22.002   5.857   2.402
22293W        W93822  39.343  18.325  13.121
22294W        W93823  39.161  30.086   2.224
22295W        W93824  39.823  39.378   2.140
22296W        W93825  39.264  24.612  11.528
22297W        W93826  20.084   8.313  14.398
22298W        W93827  20.181  35.164  12.213
22299W        W93828   3.105  35.963   0.045
22300W        W93829   8.801  23.706  12.046
22301W        W93830   9.779  41.062   0.266
22302W        W93831  16.276  37.449   4.656
22303W        W93832  29.597  17.767   3.202
22304W        W93833   0.446  20.081  13.028
22305W        W93834  38.963  29.368  11.130
22306W        W93835  40.453  26.616  14.443
22307W        W93836  29.059  42.751   2.236
22308W        W93837  30.152  37.918   1.756
22309W        W93838  28.649  27.036  14.876
22310W        W93839   6.613  31.481   2.339
22311W        W93840  43.473  29.628  10.998
22312W        W93841  11.504  41.951  10.995
22313W        W93842  21.605  38.514   1.148
22314W        W93843  44.238  12.158  14.345
22315W        W93844  44.678  41.420   3.310
22316W        W93845  43.344  33.184  12.332
22317W        W93846  21.787   5.921   0.484
22318W        W93847   9.831   1.682   2.789
22319W        W93848  21.635  42.082   1.431
22320W        W93849  31.224  13.583   1.293
22321W        W93850  39.659  26.572  11.936
22322W        W93851  31.200  28.435  14.026
22323W        W93852  26.246   6.179   1.346
22324W        W93853  41.010  20.292  14.250
22325W        W93854   8.264  13.063   4.542
22326W        W93855  39.585  30.646  12.196
22327W        W93856  21.792  19.124  14.528
22328W        W93857  30.512   9.109   4.067
22329W        W93858   4.411  36.908   4.450
22330W        W93859  36.862  11.770  13.393
22331W        W93860   2.983  13.667   1.310
22332W        W93861  41.455  42.808  10.870
22333W        W93862   9.661  44.240  13.490
22334W        W93863  26.011  20.722  14.869
22335W        W93864   9.508  22.496  10.277
22336W        W93865  38.474   5.821   2.351
22337W        W93866  29.626   9.975   2.977
22338W        W93867  18.205  19.765   4.033
22339W        W93868  35.320   7.485   3.763
22340W        W93869  30.558  44.205   2.556
22341W        W93870   1.938  40.278  12.664
22342W        W93871  15.382  16.541  14.370
22343W        W93872  36.294  15.273  12.570
22344W        W93873  10.178   7.228  14.821
22345W        W93874  39.362  38.071   0.331
22346W        W93875   3.796  12.580   4.152
22347W        W93876  24.459  28.629  13.454
22348W        W93877  38.307  38.007  14.050
22349W        W93878  29.138  23.938  10.828
22350W        W93879  15.153  12.932   1.781
22351W        W93880  43.381  14.514  14.506
22352W        W93881  44.978   9.476   1.711
22353W        W93882  13.643  21.678  11.043
22354W        W93883  31.588   0.959   4.183
22355W        W93884  31.934  18.277   4.602
22356W        W93885  39.748   1.184  12.440
22357W        W93886  14.944  30.396   0.837
22358W        W93887  35.534   9.389  10.750
22359W        W93888  34.862   3.238   4.631
22360W        W93889  35.334   2.761   2.401
22361W        W93890  38.590  20.482   1.250
22362W        W93891  34.371  40.357  14.178
22363W        W93892  43.713  39.790  10.806
22364W        W93893  37.991  26.785  14.044
22365W        W93894  28.107  16.683  12.525
22366W        W93895  13.641  38.948  13.823
22367W        W93896  35.253   2.804   1.301
22368W        W93897  20.693  27.959   0.205
22369W        W93898  14.645  44.422  10.962
22370W        W93899  28.436  24.920   0.967
22371W        W93900  17.767   0.531  10.718
22372W        W93901  13.020  34.136  14.720
22373W        W93902  33.646   4.161   0.280
22374W        W93903  29.103  43.842   2.403
22375W        W93904  36.416   4.102  11.606
22376W        W93905  23.495  29.549  14.194
22377W        W93906  21.661   9.868  13.352
22378W        W93907  21.515  18.310   4.035
22379W        W93908  42.450  24.721  12.156
22380W        W93909  13.590   3.938  14.930
22381W        W93910  42.952   2.369   3.294
22382W        W93911  16.780  31.078  10.740
22383W        W93912  37.571  32.077  12.894
22384W        W93913  37.046  18.472   3.370
22385W        W93914  12.423  12.387  12.125
22386W        W93915  16.734  11.865  11.539
22387W        W93916  14.643  28.462   1.182
22388W        W93917  26.084  34.664  13.646
22389W        W93918  25.956  33.515   4.465
22390W        W93919  10.215  29.587   0.048
22391W        W93920   0.069  20.004   4.097
22392W        W93921  28.172  14.607   1.869
22393W        W93922  33.573  29.343   1.423
22394W        W93923  10.398  23.577   4.634
22395W        W93924  37.967  37.732   2.413
22396W        W93925  29.133  11.826  12.927
22397W        W93926  32.879  31.135  12.194
22398W        W93927  19.177  26.765  13.850
22399W        W93928  42.188   6.828   3.214
22400W        W93929  20.066  39.844  13.973
22401W        W93930  36.140   3.406   1.416
22402W        W93931  13.827  32.440   2.153
22403W        W93932  11.358   1.880   2.729
22404W        W93933  34.051  11.201  14.552
22405W        W93934  35.001   0.933   0.914
22406W        W93935   7.676  19.004   3.098
22407W        W93936  39.807   4.248  14.497
22408W        W93937  17.251  42.752   2.237
22409W        W93938  26.906  32.504   4.829
22410W        W93939  21.725  14.005   4.609
22411W        W93940  10.185  14.446   4.060
22412W        W93941  28.767  35.589   2.362
22413W        W93942   0.413  28.751  10.762
22414W        W93943  15.856  24.039  11.310
22415W        W93944   6.483   5.474  11.071
22416W        W93945  23.718  11.106  12.495
22417W        W93946  24.964   7.378   3.369
22418W        W93947  44.383  43.319   1.480
22419W        W93948  14.244  10.211  12.907
22420W        W93949  26.547  37.386   5.307
22421W        W93950  27.937  28.644  13.760
22422W        W93951  38.327  41.468   2.384
22423W        W93952  12.489  21.145  14.251
22424W        W93953  25.220  43.323   3.598
22425W        W93954  43.206   7.187  12.555
22426W        W93955  32.136  15.774   3.171
22427W        W93956  12.201  44.937  12.997
22428W        W93957   7.849  26.677  14.521
22429W        W93958   1.328  27.468  13.368
22430W        W93959  14.079  21.533  10.244
22431W        W93960  38.347  18.797   2.135
22432W        W93961   6.061   3.821  10.726
22433W        W93962  37.828  10.836  10.550
22434W        W93963  26.279  43.238  12.676
22435W        W93964  23.842  20.830   2.900
22436W        W93965  33.696  12.734   2.763
22437W        W93966  12.264  35.921   4.290
22438W        W93967  30.199  31.383  12.056
22439W        W93968  28.195  34.095   1.332
22440W        W93969  44.291  37.860  13.430
22441W        W93970   0.973  39.304   0.962
22442W        W93971  19.684  30.953   1.191
22443W        W93972   2.533  16.650  13.123
22444W        W93973   1.006  23.467  13.495
22445W        W93974  24.962  31.019  12.828
22446W        W93975  33.099  30.457   1.054
22447W        W93976  41.395  13.792   4.146
22448W        W93977  14.885  24.117  11.202
22449W        W93978  30.426  28.605  12.392
22450W        W93979   3.797  33.614  10.333
22451W        W93980  18.471   8.910  14.501
22452W        W93981   4.185  17.037   5.149
22453W        W93982  30.043   0.242  11.203
22454W        W93983  12.182  14.670  11.591
22455W        W93984  32.320  21.172  11.331
22456W        W93985  11.926   1.973   3.734
22457W        W93986   0.531  11.755   0.831
22458W        W93987  44.854  39.337  14.383
22459W        W93988   0.693  28.044   1.672
22460W        W93989  37.280  34.927  13.918
22461W        W93990  33.699  34.138   1.361
22462W        W93991   1.982   4.177   1.352
22463W        W93992  42.809   5.666   0.166
22464W        W93993  39.829  33.458  13.472
22465W        W93994   5.840   0.559   3.409
22466W        W93995  36.021   0.287  11.577
22467W        W93996   5.121  15.716  11.118
22468W        W93997  26.597  31.554   0.075
22469W        W93998  37.634  38.216   2.877
22470W        W93999  43.058  32.467  14.451
22471W        W94000   4.168  38.250   4.617
22472W        W94001  21.785  11.315  11.513
22473W        W94002  27.218  40.170   4.436
22474W        W94003  26.535  23.213  13.829
22475W        W94004  41.191  27.165   3.625
22476W        W94005  37.077  16.744  11.623
22477W        W94006  25.123  20.979  11.428
22478W        W94007  28.120   7.501   1.993
22479W        W94008   7.691  31.733   0.063
22480W        W94009  36.660  38.108  13.717
22481W        W94010  33.763  20.088  11.162
22482W        W94011  16.375   9.198  14.012
22483W        W94012  23.050  13.364   0.537
22484W        W94013  26.536   9.733  11.921
22485W        W94014  25.646  14.809  14.299
22486W        W94015  12.411  12.323  13.839
22487W        W94016  30.928   6.912  14.831
22488W        W94017  27.915  19.202  11.684
22489W        W94018  26.781  39.258   0.885
22490W        W94019  29.515  35.181  11.596
22491W        W94020  42.949  34.615  10.755
22492W        W94021   8.951  10.594   3.092
22493W        W94022  26.507  34.352  13.778
22494W        W94023   0.404   9.128  14.539
22495W        W94024  44.239  41.739   2.387
22496W        W94025  20.636  38.876   4.165
22497W        W94026  43.546  37.024  12.446
22498W        W94027  39.772  40.019  13.866
22499W        W94028  32.970  34.084  13.506
22500W        W94029  27.090  29.489   3.620
22501W        W94030   5.254  20.121   1.972
22502W        W94031  26.930  16.526  12.861
22503W        W94032  19.162  37.323   1.277
22504W        W94033  26.181   2.240   1.985
22505W        W94034   1.738   7.379  12.505
22506W        W94035  38.442  42.556  12.922
22507W        W94036  22.209   9.020   3.183
22508W        W94037  39.617  44.997  14.017
22509W        W94038  39.492   5.457  13.928
22510W        W94039  38.539  18.182  13.475
22511W        W94040  25.742  10.325  13.888
22512W        W94041   0.412   2.970  13.296
22513W        W94042  17.257  25.102  13.970
22514W        W94043   4.670  34.964   1.914
22515W        W94044  12.277  16.580   3.270
22516W        W94045  32.068  41.510   2.381
22517W        W94046  43.414  19.842   0.043
22518W        W94047   9.602  41.588  12.252
22519W        W94048  15.246  29.459   3.665
22520W        W94049  28.407  44.569   0.907
22521W        W94050   9.165  19.674  10.302
22522W        W94051  28.258  34.916  14.983
22523W        W94052  21.507   0.355  13.392
22524W        W94053  21.388  33.252  12.416
22525W        W94054   0.007   9.760   2.166
22526W        W94055  28.476  21.532   0.465
22527W        W94056  26.976  35.999   3.428
22528W        W94057  39.768  33.234   3.019
22529W        W94058  29.551   3.963  11.582
22530W        W94059  14.293  33.655   3.169
22531W        W94060  11.824   8.851   3.652
22532W        W94061  22.362   5.672   3.308
22533W        W94062  15.105   3.749  12.886
22534W        W94063  21.414   3.979   2.296
22535W        W94064  40.051  23.591  10.577
22536W        W94065  36.571  37.293   4.875
22537W        W94066  35.024  18.626  14.875
22538W        W94067  25.293  24.021  13.922
22539W        W94068  39.123  31.776  14.842
22540W        W94069  41.505  10.903  12.510
22541W        W94070  10.713  31.700  11.499
22542W        W94071  38.348  31.212   1.275
22543W        W94072  27.444  14.850  14.109
22544W        W94073   0.567   9.404  12.070
22545W        W94074   9.429  23.874  10.452
22546W        W94075   6.936  24.535  14.877
22547W        W94076  10.912  12.065  11.003
22548W        W94077  43.754  30.681   0.421
22549W        W94078  19.460  36.784  11.696
22550W        W94079  35.338  33.882  13.858
22551W        W94080  40.393  38.990   3.006
22552W        W94081  11.082   8.843  14.961
22553W        W94082  23.248  16.739  14.073
22554W        W94083  37.568  39.606   0.214
22555W        W94084   8.494  14.368   3.144
22556W        W94085  30.022   6.311  11.701
22557W        W94086   2.452   9.455  11.054
22558W        W94087  35.036   0.865   3.248
22559W        W94088  36.033   2.517  10.223
22560W        W94089  30.511  33.807   0.235
22561W        W94090  10.939  22.560  10.874
22562W        W94091  31.450  19.291   0.259
22563W        W94092  17.897  27.431   1.751
22564W        W94093  26.615  32.226  11.318
22565W        W94094  40.734   0.839  11.231
22566W        W94095  22.637   1.020  13.869
22567W        W94096   1.512  16.747  13.035
22568W        W94097  31.862  21.088  14.325
22569W        W94098  34.875  10.340  10.588
22570W        W94099   2.928  37.624   5.052
22571W        W94100  21.287  17.602  13.597
22572W        W94101  39.921  29.570  14.487
22573W        W94102  36.177   5.380  13.586
22574W        W94103  18.355  36.782   2.340
22575W        W94104   0.805  17.815   4.702
22576W        W94105  23.789  29.678   3.672
22577W        W94106  33.997   5.413   1.758
22578W        W94107  13.757  18.958   1.345
22579W        W94108  19.402  35.874   0.294
22580W        W94109  41.892  44.668   1.868
22581W        W94110   9.385   8.321   0.729
22582W        W94111  30.422  32.024   1.021
22583W        W94112  14.669  22.954  12.530
22584W        W94113  29.676  23.193  12.539
22585W        W94114  22.678  29.545  14.757
22586W        W94115  26.581  11.231   2.196
22587W        W94116   5.182  18.219  14.873
22588W        W94117  23.769  35.055  10.868
22589W        W94118  26.983  20.547  13.972
22590W        W94119  32.651  29.136   3.580
22591W        W94120  12.905  18.929   3.360
22592W        W94121  21.297  24.662  11.651
22593W        W94122  16.136  12.186   5.112
22594W        W94123   1.379  32.639   0.410
22595W        W94124  12.268  43.004  12.064
22596W        W94125  18.186  39.089   2.411
22597W        W94126  33.889  13.690   3.680
22598W        W94127   9.179   8.333   2.238
22599W        W94128  24.708  13.697   1.367
22600W        W94129   2.277  31.937   4.352
22601W        W94130  14.898  18.355  12.135
22602W        W94131   3.060  43.160  11.483
22603W        W94132  14.040  17.546  10.648
22604W        W94133  37.964  32.857   2.875
22605W        W94134  38.564   4.732   4.635
22606W        W94135   3.446  43.692   4.261
22607W        W94136  11.462  26.465   2.623
22608W        W94137  35.383  12.828  10.974
22609W        W94138  17.153  35.778   3.806
22610W        W94139   5.692  39.919   0.065
22611W        W94140  10.185  44.521   4.245
22612W        W94141  14.678   4.450   0.300
22613W        W94142   6.279  12.264  14.779
22614W        W94143   9.513  26.143   3.701
22615W        W94144   0.934  44.830  11.511
22616W        W94145  33.990  12.993  11.952
22617W        W94146  26.211  30.418  13.154
22618W        W94147  13.030  25.482  11.068
22619W        W94148   9.231  23.105   1.252
22620W        W94149  14.217  25.688   2.752
22621W        W94150  43.663   8.839   4.171
22622W        W94151  44.929   5.369   0.312
22623W        W94152  44.342  34.560   9.925
22624W        W94153  14.243  42.953  12.912
22625W        W94154  32.215   9.078   4.541
22626W        W94155   1.227   7.083  13.916
22627W        W94156  27.601  37.794   2.658
22628W        W94157  35.348  36.038  11.782
22629W        W94158  32.663  31.035   0.349
22630W        W94159  10.374   9.103  14.422
22631W        W94160  23.216  34.023   1.400
22632W        W94161  14.766  42.374   0.850
22633W        W94162  13.314   1.963   4.178
22634W        W94163  43.462  27.579  12.957
22635W        W94164  38.610  10.854  14.487
22636W        W94165  44.516  35.463  11.268
22637W        W94166  26.599   2.801  11.221
22638W        W94167  11.373  21.892  13.523
22639W        W94168  20.318  30.870  12.363
22640W        W94169   6.414  28.434  14.383
22641W        W94170  19.623  24.531  12.420
22642W        W94171  33.136  39.020  12.009
22643W        W94172  26.967  40.130   0.906
22644W        W94173   0.581  35.957  12.562
22645W        W94174   8.391  34.007  13.710
22646W        W94175  38.631  35.394   1.797
22647W        W94176   6.724  39.955   4.525
22648W        W94177  43.057   2.859   0.264
22649W        W94178  18.400  30.679   2.935
22650W        W94179  34.513  19.545   0.460
22651W        W94180  35.020  26.294   3.642
22652W        W94181  15.329  35.115   1.627
22653W        W94182  36.141   9.700   1.340
22654W        W94183  18.519  17.169   3.639
22655W        W94184  10.302  24.450  10.441
22656W        W94185  35.888  26.374   2.761
22657W        W94186  33.671  41.795   1.957
22658W        W94187  35.022  34.581   0.949
22659W        W94188  30.314  30.776  12.826
22660W        W94189  13.418   9.339  11.576
22661W        W94190  34.772  27.477   2.431
22662W        W94191  16.761  43.077  13.380
22663W        W94192   6.785  35.503  10.971
22664W        W94193  17.021   0.844  10.682
22665W        W94194  16.081  13.043   0.921
22666W        W94195  23.132  12.363  11.924
22667W        W94196  32.321   3.745  13.333
22668W        W94197   2.384  24.567  12.421
22669W        W94198  16.831  38.481   1.447
22670W        W94199  30.995  12.179   3.305
22671W        W94200   3.662  29.149   3.439
22672W        W94201  15.730  26.648  10.735
22673W        W94202   9.639  25.220   0.379
22674W        W94203  35.884   0.493   4.551
22675W        W94204  43.996  24.131  13.213
22676W        W94205  14.362  24.672  12.338
22677W        W94206  13.897  44.387  13.256
22678W        W94207  40.414  34.636   0.804
22679W        W94208  14.338  37.926  14.886
22680W        W94209  13.551  29.473  10.830
22681W        W94210   4.549  26.529  11.541
22682W        W94211  14.546   8.541  12.612
22683W        W94212  24.492   6.804  13.502
22684W        W94213  14.142   0.354  12.141
22685W        W94214   7.314   8.150   0.241
22686W        W94215  18.353   8.503   5.155
22687W        W94216   2.350  30.148  11.969
22688W        W94217  17.994  33.703   2.828
22689W        W94218  35.498  29.151   4.947
22690W        W94219  16.842  38.652   2.911
22691W        W94220  37.825  30.306  12.924
22692W        W94221  11.363   7.830   4.132
22693W        W94222  24.234  44.102   3.234
22694W        W94223  42.733  19.159   3.039
22695W        W94224  34.271  27.874  11.685
22696W        W94225   6.828  32.404   2.358
22697W        W94226  12.936  24.301  13.991
22698W        W94227  10.778  44.288   1.797
22699W        W94228  43.435   4.677  10.053
22700W        W94229  33.528  28.501  14.429
22701W        W94230  21.218   9.738  11.983
22702W        W94231  28.654  26.980   0.849
22703W        W94232  18.743  30.402   2.653
22704W        W94233  21.220  16.331  11.126
22705W        W94234   7.571  39.529   3.160
22706W        W94235  17.012  16.549  13.288
22707W        W94236  16.772  40.673   4.260
22708W        W94237  31.526  18.503   0.898
22709W        W94238  11.590   8.617  12.548
22710W        W94239  11.899   5.654  11.563
22711W        W94240  13.564  29.663   4.927
22712W        W94241  17.273   0.933   2.333
22713W        W94242   4.271   4.396  12.720
22714W        W94243  13.554   0.181   3.431
22715W        W94244  42.755  12.569  10.778
22716W        W94245   5.440  35.478  14.273
22717W        W94246   5.119  27.928   0.490
22718W        W94247  12.418  39.397  12.574
22719W        W94248  33.544  37.587  10.084
22720W        W94249  26.633  24.026  14.233
22721W        W94250   7.371  28.174   0.382
22722W        W94251  38.027   7.798   1.426
22723W        W94252  32.796  12.974  10.093
22724W        W94253  17.835   6.208   3.354
22725W        W94254  19.876   5.257  12.335
22726W        W94255   2.425  32.078  10.743
22727W        W94256  34.388  21.166   3.609
22728W        W94257  29.279  18.581  13.897
22729W        W94258  12.359  36.883  10.892
22730W        W94259  14.240  23.312   3.297
22731W        W94260  12.854   3.361   4.949
22732W        W94261  21.429   0.196  12.906
22733W        W94262  42.768  35.541  13.528
22734W        W94263  24.136  38.516   3.472
22735W        W94264  33.369  33.993   1.781
22736W        W94265  42.252  17.152   1.386
22737W        W94266  34.512  31.484   1.295
22738W        W94267  22.504  37.005   0.039
22739W        W94268  23.673  31.924   2.698
22740W        W94269  35.286   4.190  13.847
22741W        W94270  19.196  16.404   3.894
22742W        W94271   0.507  20.699  12.039
22743W        W94272  34.674  39.496   4.493
22744W        W94273  24.064  34.666  14.200
22745W        W94274   5.357  12.395   3.219
22746W        W94275  42.847  37.137  11.564
22747W        W94276  26.359  25.177  13.900
22748W        W94277  43.295   2.124  14.848
22749W        W94278   6.712  37.529   0.373
22750W        W94279   5.138   8.345   3.758
22751W        W94280  38.641  34.650  14.961
22752W        W94281  14.542  19.624   3.683
22753W        W94282  35.778  28.603  12.612
22754W        W94283   1.816  14.966  14.667
22755W        W94284  16.345  22.974  11.101
22756W        W94285   2.426  22.027   4.584
22757W        W94286   4.215  19.343   4.269
22758W        W94287   4.803  44.160   0.054
22759W        W94288  30.151  17.238  12.839
22760W        W94289  32.157  17.266   0.914
22761W        W94290  16.594  43.949  10.727
22762W        W94291  38.178  21.099  14.603
22763W        W94292   0.420  31.376   2.392
22764W        W94293  18.815  36.397   0.364
22765W        W94294   5.867  18.029  13.811
22766W        W94295  44.726   9.178  13.406
22767W        W94296  21.082  34.645  11.201
22768W        W94297  39.342   9.065  12.852
22769W        W94298  12.235  26.744  14.721
22770W        W94299  11.942  24.491  12.920
22771W        W94300  20.900   0.711  11.257
22772W        W94301  10.896   1.045   9.988
22773W        W94302  33.639  42.425  11.466
22774W        W94303  36.917  38.317  14.514
22775W        W94304   7.404  22.979   3.478
22776W        W94305   4.912  30.567   0.745
22777W        W94306  35.158  20.516  12.261
22778W        W94307   4.986   9.751   4.120
22779W        W94308  21.598  11.838   0.231
22780W        W94309   8.167  42.525  14.519
22781W        W94310  11.147  17.643   0.781
22782W        W94311  32.552   9.889  12.978
22783W        W94312  10.908  26.916  11.528
22784W        W94313  22.671  29.679  12.038
22785W        W94314  35.448   8.306   0.456
22786W        W94315  18.792   2.878  13.424
22787W        W94316   2.647  35.588  10.719
22788W        W94317   8.860  33.974   0.814
22789W        W94318  16.675  12.294   4.417
22790W        W94319  24.691  41.547  13.489
22791W        W94320  30.084   2.235  11.671
22792W        W94321  14.779   3.136   1.646
22793W        W94322   2.787   8.631  11.590
22794W        W94323  20.200  29.571  11.988
22795W        W94324   8.070  12.555   1.261
22796W        W94325  31.268  10.175  11.632
22797W        W94326   5.369  33.440  14.637
22798W        W94327  32.582  41.043   2.271
22799W        W94328  21.190  36.277  13.003
22800W        W94329  25.203  14.013  13.448
22801W        W94330  29.998   6.413  13.156
22802W        W94331  31.650   2.269  14.548
22803W        W94332  24.006  26.684   0.999
22804W        W94333  26.246  42.813   0.933
22805W        W94334  37.835  14.818  12.993
22806W        W94335  38.998  12.753   1.940
22807W        W94336  35.009  25.562   0.840
22808W        W94337  16.732   4.039   0.747
22809W        W94338   2.775  32.365   2.838
22810W        W94339  11.657  30.952  13.066
22811W        W94340  36.589  40.396  13.442
22812W        W94341  20.524  36.922  11.072
22813W        W94342  12.928  13.703   0.684
22814W        W94343  33.463  19.575  10.660
22815W        W94344   8.514  39.665   0.959
22816W        W94345  30.217  25.234   3.816
22817W        W94346  21.307  31.535   1.345
22818W        W94347  44.363  21.515   3.677
22819W        W94348   0.965  30.853   1.417
22820W        W94349   9.055  25.181  14.245
22821W        W94350  34.429  35.012  12.412
22822W        W94351  20.133  16.919  11.824
22823W        W94352  38.146   4.691  10.738
22824W        W94353  31.433  32.323   0.877
22825W        W94354  39.435   4.582   4.593
22826W        W94355  15.165  37.769   3.093
22827W        W94356  35.041  36.444   1.941
22828W        W94357   7.130  15.724   3.252
22829W        W94358  33.260  24.895   4.280
22830W        W94359   8.785  27.397  14.483
22831W        W94360   9.133  19.041  11.642
22832W        W94361   6.769  40.922   1.466
22833W        W94362  16.651  35.616   3.712
22834W        W94363   7.171   6.337  14.805
22835W        W94364  15.630  17.650  12.161
22836W        W94365   7.736  37.446  11.664
22837W        W94366  28.665  35.080  13.809
22838W        W94367  16.113   8.320   3.709
22839W        W94368  27.079   6.216   4.015
22840W        W94369  14.228  14.679  12.658
22841W        W94370  39.644  31.038   0.179
22842W        W94371  26.967  14.586  14.974
22843W        W94372   8.093  11.678   2.896
22844W        W94373   3.668  17.314  12.394
22845W        W94374  39.063  29.869  13.796
22846W        W94375  11.207  31.179  12.247
22847W        W94376  32.452  22.736   2.382
22848W        W94377   3.293   1.271   4.297
22849W        W94378  20.286  14.790  14.411
22850W        W94379  40.952   0.545   2.775
22851W        W94380  32.960   8.154   1.408
22852W        W94381  24.478  40.014   1.222
22853W        W94382  26.713  28.022   3.864
22854W        W94383  42.197  27.732  13.474
22855W        W94384   3.350  32.493   3.980
22856W        W94385  15.907  23.179   0.824
22857W        W94386  24.989  14.323  11.346
22858W        W94387  14.081   5.791  12.878
22859W        W94388   9.399   0.412   3.255
22860W        W94389  37.338  16.986   2.653
22861W        W94390  36.587  10.382  11.672
22862W        W94391   1.528  11.578   3.351
22863W        W94392  41.908   2.168   2.112
22864W        W94393   8.373   7.641  11.109
22865W        W94394   0.756  38.728  10.991
22866W        W94395   0.231  33.876  12.089
22867W        W94396  26.011  37.684   2.105
22868W        W94397  41.762  37.368  13.573
22869W        W94398  33.524  26.041  11.008
22870W        W94399  16.186  27.513  13.684
22871W        W94400   5.701  42.932  12.076
22872W        W94401  20.992  22.625  11.533
22873W        W94402  39.094  19.629   1.748
22874W        W94403  19.731  22.048  13.477
22875W        W94404   6.008  35.647   0.840
22876W        W94405  10.059  33.885   3.054
22877W        W94406  25.594  44.344  10.595
22878W        W94407  32.509  22.155   3.136
22879W        W94408  25.184   0.010   1.783
22880W        W94409  21.023  21.675   4.416
22881W        W94410  28.107  39.487  13.513
22882W        W94411  25.138  34.480   0.768
22883W        W94412  12.111   7.192  13.983
22884W        W94413  14.374   4.103  12.682
22885W        W94414  20.625  17.338  13.426
22886W        W94415  32.464   6.726   2.805
22887W        W94416  22.722  13.927  12.410
22888W        W94417  25.653  24.061  14.891
22889W        W94418   6.370  17.158   0.935
22890W        W94419  43.223  18.825   5.000
22891W        W94420   6.324  43.820   2.488
22892W        W94421  21.696  28.892  11.068
22893W        W94422  20.573  14.844  13.078
22894W        W94423  18.373  24.280  13.129
22895W        W94424  23.135  40.077  12.018
22896W        W94425  39.294   2.395  10.822
22897W        W94426  13.832  21.179  10.901
22898W        W94427  41.898  31.144   4.295
22899W        W94428  15.858   5.307  10.508
22900W        W94429   8.174  11.213   4.787
22901W        W94430  34.855  33.539  13.456
22902W        W94431  36.931  13.309  12.825
22903W        W94432  20.122   0.651  14.484
22904W        W94433  14.094  20.124  14.362
22905W        W94434  19.530  32.369  13.451
22906W        W94435  43.222  41.632   3.880
22907W        W94436  37.132  16.155   3.212
22908W        W94437  31.004   3.793  11.279
22909W        W94438  43.834  17.362  12.407
22910W        W94439  21.110  38.372   1.113
22911W        W94440   8.666  41.940   1.719
22912W        W94441   2.161  38.819  14.307
22913W        W94442  21.100  12.609  12.925
22914W        W94443   3.646  42.081  11.093
22915W        W94444   5.608  44.310   1.974
22916W        W94445  13.287  24.168   5.208
22917W        W94446  34.423   4.176  12.493
22918W        W94447  43.491  34.364   1.213
22919W        W94448   1.414   2.940  13.727
22920W        W94449  44.464  36.057  13.401
22921W        W94450  40.619  15.690   2.347
22922W        W94451  25.262  22.491  11.574
22923W        W94452  13.809  15.053  14.497
22924W        W94453  39.229  12.331  12.468
22925W        W94454  26.037   1.439   2.828
22926W        W94455  41.322   3.553   2.023
22927W        W94456  34.589  16.918   1.689
22928W        W94457  31.090  38.367  11.176
22929W        W94458   7.675  17.735  12.013
22930W        W94459  11.129  28.067   2.805
22931W        W94460  20.802  44.286  14.757
22932W        W94461  27.093  37.989  11.561
22933W        W94462  29.382  17.136  12.114
22934W        W94463  38.391  28.738  12.867
22935W        W94464  23.834  15.437   1.182
22936W        W94465  36.200  36.820  13.259
22937W        W94466  42.383   0.457  13.475
22938W        W94467  42.362  41.075  10.827
22939W        W94468  39.816  14.409  13.731
22940W        W94469  42.523  33.985  13.429
22941W        W94470  19.770   6.321  11.198
22942W        W94471   5.814   2.192   2.858
22943W        W94472   7.654  29.382  12.900
22944W        W94473  13.337  36.817   2.393
22945W        W94474  15.881  35.787  13.749
22946W        W94475  36.630  39.023   1.869
22947W        W94476  24.744   0.956   1.858
22948W        W94477  19.874  38.787   3.535
22949W        W94478  23.313  16.150  11.949
22950W        W94479  33.915  22.892  10.665
22951W        W94480  29.173  18.038  11.048
22952W        W94481  38.798   8.842   2.842
22953W        W94482  27.119  23.456  14.864
22954W        W94483   7.358  25.952  12.321
22955W        W94484  20.068   4.405  11.971
22956W        W94485   0.110  22.037  12.411
22957W        W94486  38.488  32.053  12.961
22958W        W94487  17.102  20.448   0.408
22959W        W94488  29.090  17.657   4.357
22960W        W94489   9.328  11.232   4.540
22961W        W94490  38.403  44.440   2.389
22962W        W94491  38.529   8.796   1.599
22963W        W94492  43.522   0.927  10.045
22964W        W94493  19.159  42.430   2.179
22965W        W94494  15.245  13.102   4.828
22966W        W94495  17.179  10.846  12.561
22967W        W94496   2.505  27.529   4.183
22968W        W94497  30.842  43.325  12.597
22969W        W94498  41.380  30.987   2.662
22970W        W94499  23.379  37.376  12.900
22971W        W94500  26.271  30.641   1.252
22972W        W94501   8.162  38.881  10.925
22973W        W94502  41.767  42.031  12.419
22974W        W94503   9.839   5.219   1.475
22975W        W94504  30.281  10.605  13.057
22976W        W94505  18.179   1.394   4.080
22977W        W94506  35.789  37.049   2.425
22978W        W94507  32.092  40.967  14.860
22979W        W94508  26.275  29.609   2.713
22980W        W94509  17.561   8.339  12.148
22981W        W94510  14.281   4.995  14.508
22982W        W94511  26.586  32.180  11.924
22983W        W94512  12.997  38.760   0.848
22984W        W94513  12.676  11.137   0.722
22985W        W94514  44.785  28.481  13.808
22986W        W94515  10.713  44.238   1.299
22987W        W94516  29.230  22.513   3.994
22988W        W94517  21.276  40.487  10.165
22989W        W94518  21.199  30.666   2.236
22990W        W94519   8.408  34.562  11.870
22991W        W94520  15.777  15.715  13.499
22992W        W94521  44.955  23.319   3.575
22993W        W94522  33.617  33.048   0.824
22994W        W94523  36.455  21.093  14.771
22995W        W94524  29.429   1.334   0.223
22996W        W94525  19.493  42.041   1.819
22997W        W94526  16.654  23.888  11.175
22998W        W94527  19.445  28.531  11.073
22999W        W94528   0.429   6.377   2.631
23000W        W94529  32.353  33.859   0.935
23001W        W94530  44.376  21.218   5.023
23002W        W94531   8.457  23.525  11.305
23003W        W94532  26.360  29.132  14.063
23004W        W94533  17.656  10.566  11.516
23005W        W94534  21.598  34.494  10.723
23006W        W94535  33.604   0.680  12.147
23007W        W94536   2.508  31.928  13.503
23008W        W94537  17.408  36.461  11.224
23009W        W94538  40.327  16.916   2.630
23010W        W94539   9.934   5.814  14.495
23011W        W94540  29.775  41.545  11.474
23012W        W94541  43.802   2.851   2.213
23013W        W94542   4.590  32.037   3.332
23014W        W94543   0.719  36.936   3.339
23015W        W94544  40.278  39.283  14.253
23016W        W94545  20.230  38.814  13.952
23017W        W94546   1.779  41.292  14.314
23018W        W94547  24.771  22.443   4.246
23019W        W94548  38.816  41.855  11.123
23020W        W94549   1.665  39.465   2.223
23021W        W94550   1.114  20.411   0.923
23022W        W94551   1.838   7.892  14.284
23023W        W94552  13.042   2.372  10.177
23024W        W94553  10.800  35.803  14.833
23025W        W94554  39.921   7.142   2.898
23026W        W94555  41.022   8.827  12.015
23027W        W94556  10.155  39.936   0.150
23028W        W94557   6.559  20.307  10.158
23029W        W94558  24.184  19.095   1.233
23030W        W94559   4.928   3.116   0.456
23031W        W94560  13.709  30.588  12.745
23032W        W94561  17.771  26.522  11.020
23033W        W94562  41.715   2.283   4.505
23034W        W94563  19.288  27.721  13.880
23035W        W94564  38.969   7.753  12.534
23036W        W94565   7.954  20.565   3.170
23037W        W94566  40.538  21.409  12.973
23038W        W94567   6.459  33.624  12.615
23039W        W94568  26.465  11.563   1.364
23040W        W94569  28.058  13.737   4.296
23041W        W94570  14.190  21.753   4.544
23042W        W94571  36.482   8.728   2.742
23043W        W94572   0.436   8.530  13.433
23044W        W94573  42.651  33.729   4.359
23045W        W94574  31.903  14.262  11.583
23046W        W94575   4.701  20.650   2.703
23047W        W94576  18.746  34.048  12.407
23048W        W94577  40.741  39.463   2.633
23049W        W94578  23.232  38.702  10.188
23050W        W94579  28.441  16.361   3.592
23051W        W94580  26.224  12.246   0.760
23052W        W94581  30.913  18.177   2.331
23053W        W94582  34.806  36.632  11.035
23054W        W94583  19.455  34.540  13.927
23055W        W94584  28.278  35.395  10.474
23056W        W94585  44.390  15.321   0.571
23057W        W94586  18.539  15.752   1.676
23058W        W94587  17.288   5.171  10.500
23059W        W94588  12.224  15.409  11.617
23060W        W94589   3.397  25.613  12.134
23061W        W94590  20.651   2.396  13.403
23062W        W94591  21.570  35.030  11.991
23063W        W94592  37.327  18.685  13.644
23064W        W94593  18.333  44.043   3.146
23065W        W94594  42.420  11.772  13.327
23066W        W94595  16.284  19.776  14.861
23067W        W94596   8.122  39.017  12.849
23068W        W94597   9.728  15.397  11.653
23069W        W94598  10.428  14.694   4.917
23070W        W94599  40.954  15.150   0.984
23071W        W94600  33.562  42.475  12.858
23072W        W94601  17.969  42.624  11.026
23073W        W94602  21.040  18.177  14.978
23074W        W94603  33.159  38.839   2.257
23075W        W94604  24.966  30.152  12.994
23076W        W94605   3.681  16.792   1.193
23077W        W94606  41.342  35.868   0.272
23078W        W94607  43.163   6.243   3.189
23079W        W94608  21.715  13.755  11.991
23080W        W94609  17.233  17.148   4.682
23081W        W94610  37.288   0.819   4.941
23082W        W94611  17.989  24.156   2.664
23083W        W94612  36.559  32.643   3.450
23084W        W94613   1.288  38.870   4.391
23085W        W94614  44.046   1.784  12.393
23086W        W94615  37.133  26.360  12.006
23087W        W94616   4.621  12.600   1.361
23088W        W94617  11.793  26.445  13.170
23089W        W94618  40.513  11.180  14.505
23090W        W94619   9.676   9.631  11.064
23091W        W94620   4.691  28.559  12.781
23092W        W94621   2.994   0.325   2.177
23093W        W94622   1.500  19.759   0.204
23094W        W94623  29.775   2.034  14.846
23095W        W94624  18.639   2.919  12.899
23096W        W94625  42.272   3.928  12.233
23097W        W94626  39.904  33.156   2.526
23098W        W94627  43.231  25.193  13.065
23099W        W94628   0.451   5.351   0.800
23100W        W94629  39.009  39.810  13.349
23101W        W94630  19.253   5.271   3.607
23102W        W94631  24.752   7.287  14.280
23103W        W94632  44.033   1.991  13.682
23104W        W94633   7.554  35.895  14.964
23105W        W94634  12.480   8.166  11.580
23106W        W94635   6.127   7.636  12.914
23107W        W94636  15.652   6.239   1.116
23108W        W94637  11.342  31.586  12.527
23109W        W94638   6.739  34.412   1.150
23110W        W94639   6.694  32.071  12.180
23111W        W94640  17.049  37.011  13.722
23112W        W94641  25.891  26.950   1.578
23113W        W94642  39.330   6.829   1.048
23114W        W94643  21.239  33.037   0.941
23115W        W94644   4.953   7.199   1.250
23116W        W94645  19.975  17.738  12.918
23117W        W94646  27.540  32.241   1.905
23118W        W94647  25.476  14.791   4.614
23119W        W94648  19.650  38.591   3.112
23120W        W94649  38.671  11.677   0.328
23121W        W94650   0.542  16.647  14.946
23122W        W94651  22.396  12.443   3.972
23123W        W94652  18.052   7.518   0.033
23124W        W94653  29.183  25.692  14.788
23125W        W94654  25.181   1.850  13.468
23126W        W94655  17.769   1.135   3.905
23127W        W94656  12.318  25.199  13.349
23128W        W94657   9.249  15.901   1.952
23129W        W94658  40.999   8.359  12.209
23130W        W94659  15.138  30.300  12.864
23131W        W94660  44.679   5.197   3.256
23132W        W94661   9.160  34.014  11.172
23133W        W94662  35.021  17.235   4.547
23134W        W94663  34.590   4.469   0.240
23135W        W94664  12.350   2.475  10.718
23136W        W94665  33.607  28.005   3.125
23137W        W94666  12.510  23.456   0.229
23138W        W94667  26.967  35.965  10.553
23139W        W94668  10.133  31.113  11.125
23140W        W94669  38.911  32.386   3.754
23141W        W94670  31.760   3.938   3.169
23142W        W94671  23.031  25.978  14.026
23143W        W94672   9.955  33.365  11.959
23144W        W94673   0.909  31.168   2.400
23145W        W94674   5.331   0.131  11.613
23146W        W94675   3.993   6.239   1.230
23147W        W94676  14.061  18.709   2.738
23148W        W94677  39.576  26.922   4.551
23149W        W94678  32.621   9.878   0.400
23150W        W94679  22.067  36.794  14.799
23151W        W94680  35.899  29.660  11.604
23152W        W94681  13.729  26.053   0.301
23153W        W94682  34.842  44.772  11.563
23154W        W94683  32.988   5.095  10.701
23155W        W94684  43.007  32.055   2.404
23156W        W94685   0.245   6.562  11.507
23157W        W94686  14.430  13.870   2.815
23158W        W94687  26.662  18.195   4.091
23159W        W94688   0.878  37.878  12.572
23160W        W94689  10.265   5.960   2.972
23161W        W94690   9.263  29.149  10.694
23162W        W94691  29.831  20.682   1.026
23163W        W94692  24.397  22.329  14.890
23164W        W94693   4.628  32.313  10.621
23165W        W94694   7.790   7.400   0.466
23166W        W94695   7.156   4.853  14.206
23167W        W94696  21.780  19.967  11.670
23168W        W94697  12.554  41.927   0.959
23169W        W94698  36.765  35.732  13.422
23170W        W94699  19.598  16.216  12.938
23171W        W94700  12.280   8.575   3.689
23172W        W94701  37.097  42.943  14.843
23173W        W94702   4.240  19.559   2.483
23174W        W94703  39.003  32.926   4.600
23175W        W94704  23.693   7.095   3.773
23176W        W94705  26.734  15.197  11.680
23177W        W94706   6.009  37.526  12.965
23178W        W94707   5.733  11.196   0.247
23179W        W94708  26.433   5.237  10.604
23180W        W94709  42.228  42.854   0.334
23181W        W94710   4.638  25.187   0.443
23182W        W94711  19.960  22.276  10.776
23183W        W94712  14.103  32.255   3.124
23184W        W94713  26.135  23.724   2.295
23185W        W94714  30.516   2.355   0.392
23186W        W94715  42.428  25.512  11.660
23187W        W94716   4.776  20.791   4.059
23188W        W94717  14.103   7.610  14.835
23189W        W94718  44.235   0.797   1.664
23190W        W94719   7.650  44.349  10.651
23191W        W94720   8.354   8.371   0.780
23192W        W94721  21.626   8.122   1.699
23193W        W94722  26.114  25.732   2.908
23194W        W94723  43.293   1.288  11.639
23195W        W94724  32.043  12.215  11.870
23196W        W94725  10.661  10.487  11.209
23197W        W94726  16.993  22.137  14.394
23198W        W94727   9.807   5.612   0.322
23199W        W94728  20.530  37.840  11.277
23200W        W94729  36.191   8.700  14.408
23201W        W94730  12.205  21.265  14.682
23202W        W94731  29.460   5.810   4.050
23203W        W94732  30.191  13.780   3.345
23204W        W94733   4.234   3.302  11.549
23205W        W94734  14.690  10.822   0.961
23206W        W94735  39.451  40.104  13.439
23207W        W94736  23.407  43.957  14.255
23208W        W94737  27.312  43.696   0.088
23209W        W94738  25.617   7.320  13.950
23210W        W94739   8.263  11.944  14.872
23211W        W94740  43.980   4.812   1.135
23212W        W94741  19.989   6.941  14.110
23213W        W94742  31.519  36.861   1.332
23214W        W94743  17.143  37.546  13.212
23215W        W94744  40.064  23.287   3.271
23216W        W94745  38.751  39.853   1.254
23217W        W94746  40.138  37.827   1.336
23218W        W94747  43.313  21.687  11.833
23219W        W94748   4.651  44.393   5.220
23220W        W94749  18.080  36.473  13.794
23221W        W94750   3.687  12.450   1.429
23222W        W94751  42.569  25.818   1.906
23223W        W94752  29.740  39.504  12.247
23224W        W94753  10.651  14.479   1.624
23225W        W94754   4.370   7.200  13.420
23226W        W94755  17.580   6.097   4.649
23227W        W94756  17.096  14.998  13.357
23228W        W94757  39.527  13.940   0.826
23229W        W94758   3.718  14.310   1.278
23230W        W94759  36.519  29.767  13.267
23231W        W94760  12.009  25.083  14.259
23232W        W94761  44.538  42.740   3.105
23233W        W94762  44.005  31.822  13.921
23234W        W94763  10.328  22.706  13.351
23235W        W94764  10.773  17.306  10.708
23236W        W94765  12.348  10.395  10.677
23237W        W94766  25.644  35.544   1.092
23238W        W94767   8.698  23.198  12.021
23239W        W94768  35.130   7.855  14.302
23240W        W94769  14.043  19.175   3.044
23241W        W94770  41.693  21.046  12.632
23242W        W94771  25.068  16.398   2.962
23243W        W94772  25.793  12.691   4.474
23244W        W94773  15.742   0.489   4.401
23245W        W94774   4.362   8.380   1.459
23246W        W94775  34.085  31.399   2.203
23247W        W94776  21.151  20.632   1.352
23248W        W94777  16.377  15.261  13.870
23249W        W94778  43.374  38.321   3.796
23250W        W94779   1.581   6.941   0.492
23251W        W94780  36.640   3.310  13.084
23252W        W94781   2.884   0.700  10.568
23253W        W94782  36.611  13.812   4.620
23254W        W94783  17.535  41.765   1.342
23255W        W94784  31.346   8.888   4.243
23256W        W94785  20.292  40.835   1.874
23257W        W94786  24.442   1.327  12.159
23258W        W94787  31.668  38.050  14.486
23259W        W94788   0.255  24.549  13.600
23260W        W94789  19.239  19.036   1.615
23261W        W94790   9.821  35.753  13.517
23262W        W94791  32.431   8.443   3.968
23263W        W94792  16.028  25.488  11.145
23264W        W94793  43.122   1.812   2.640
23265W        W94794   0.327  10.098   3.661
23266W        W94795   7.737  30.119   3.541
23267W        W94796   9.926  41.731  14.749
23268W        W94797  29.726  16.857  14.788
23269W        W94798   0.897  10.368  11.667
23270W        W94799  42.707  21.213  11.575
23271W        W94800  17.616  19.579   1.828
23272W        W94801   7.641  18.151   0.196
23273W        W94802  10.146  12.337   4.336
23274W        W94803  27.408  19.185   0.102
23275W        W94804  34.589  44.364  14.929
23276W        W94805   0.908  15.262   0.129
23277W        W94806  33.098  35.339  10.828
23278W        W94807  20.429  32.417  14.426
23279W        W94808  41.839   4.957  13.268
23280W        W94809  22.687  13.951   1.917
23281W        W94810   6.290  34.916  10.749
23282W        W94811   4.359  42.394  14.394
23283W        W94812  30.666   2.425  14.880
23284W        W94813  10.129  33.622  12.367
23285W        W94814  26.153  14.157  13.985
23286W        W94815   5.333  37.369   4.391
23287W        W94816   0.984  30.357  14.915
23288W        W94817  43.023  27.050  11.077
23289W        W94818   5.217  28.984  12.226
23290W        W94819  27.163  30.168  12.535
23291W        W94820  19.452  19.600  12.921
23292W        W94821  36.803  29.953  10.743
23293W        W94822   9.393  34.200  12.502
23294W        W94823   3.350  11.593   1.267
23295W        W94824   0.044   1.117   1.724
23296W        W94825  15.288   1.472  10.695
23297W        W94826  22.679  20.212  11.623
23298W        W94827  14.521  22.307  11.142
23299W        W94828  18.038  38.632  13.852
23300W        W94829  37.095  23.039  11.612
23301W        W94830  21.999  14.592  12.158
23302W        W94831  35.630   8.217   4.449
23303W        W94832  17.638   8.672   3.143
23304W        W94833  11.375  13.384  13.878
23305W        W94834  34.030   0.785  11.027
23306W        W94835  40.309   1.464   1.916
23307W        W94836  39.334  35.819  13.392
23308W        W94837  39.753  23.046   1.872
23309W        W94838   5.195  26.947  14.924
23310W        W94839  11.748  33.970  10.370
23311W        W94840  19.480  16.107   0.824
23312W        W94841  37.318  25.067   3.403
23313W        W94842  24.918  24.336  11.190
23314W        W94843  25.945   1.766  11.889
23315W        W94844  37.381  26.001  12.917
23316W        W94845  25.326   2.838   3.569
23317W        W94846  43.433  24.451  10.675
23318W        W94847  39.315   5.682  11.675
23319W        W94848  41.108   3.348  11.261
23320W        W94849  17.722  43.421   3.889
23321W        W94850   4.487  24.714   3.846
23322W        W94851   4.781  31.370  12.975
23323W        W94852  15.702  30.617  12.108
23324W        W94853  18.494  13.861  12.173
23325W        W94854  11.410  33.461  10.407
23326W        W94855  35.718   3.889  10.977
23327W        W94856  10.289  36.353   3.064
23328W        W94857  32.533  22.616  12.557
23329W        W94858   8.605  26.079  12.873
23330W        W94859  14.364   1.952   0.469
23331W        W94860   4.867  28.618  12.311
23332W        W94861  20.138   1.394  12.275
23333W        W94862  24.108  44.602   3.287
23334W        W94863  33.874  16.701   0.980
23335W        W94864  14.502  33.093  11.631
23336W        W94865  24.652   7.736  12.153
23337W        W94866   6.204   6.632  12.920
23338W        W94867  35.936  42.819   1.802
23339W        W94868   7.711  13.549  14.914
23340W        W94869   5.518  23.778  10.699
23341W        W94870   1.855   9.333  13.550
23342W        W94871  19.555  43.334   1.246
23343W        W94872   7.950  20.016   4.215
23344W        W94873  11.570  38.600  12.899
23345W        W94874  18.588   1.392   1.814
23346W        W94875  34.866  14.385   2.209
23347W        W94876  17.666  25.033  10.750
23348W        W94877  38.300  13.711   3.145
23349W        W94878  19.748  27.683   2.385
23350W        W94879  31.153  17.234   5.068
23351W        W94880  41.815  33.735   4.345
23352W        W94881  19.864  32.073   4.849
23353W        W94882   7.403  29.712   2.144
23354W        W94883  28.769  28.290   0.327
23355W        W94884   6.127   1.882   2.546
23356W        W94885  14.655  37.554   0.683
23357W        W94886  12.106   6.417  13.472
23358W        W94887   7.184   5.324  14.877
23359W        W94888  39.449  36.591  10.623
23360W        W94889  37.010   4.741  12.090
23361W        W94890   7.510  36.020  10.682
23362W        W94891  24.796  32.072  13.448
23363W        W94892  34.562  26.808   0.723
23364W        W94893   3.411  32.802   4.622
23365W        W94894  29.244  35.037  12.479
23366W        W94895  35.469   8.588   5.158
23367W        W94896  12.866  23.054  12.133
23368W        W94897   2.987   4.399   0.189
23369W        W94898  37.792  33.058  12.032
23370W        W94899  40.663   7.762   1.377
23371W        W94900  15.339  27.711  13.959
23372W        W94901  33.948  23.885  10.532
23373W        W94902  19.864   1.376   1.269
23374W        W94903   3.919   4.603  12.388
23375W        W94904  33.046  39.975  12.030
23376W        W94905  28.678   7.059   2.478
23377W        W94906   6.094  20.533   0.245
23378W        W94907   0.300  24.033  13.368
23379W        W94908  10.733  23.919   4.383
23380W        W94909  12.272  36.806   2.438
23381W        W94910  23.722   9.166  10.753
23382W        W94911   5.084  40.704   2.083
23383W        W94912  13.983  37.702   4.959
23384W        W94913   3.682  42.909   0.432
23385W        W94914  36.571  24.742   2.351
23386W        W94915  24.696  43.639   2.932
23387W        W94916  26.904  34.186  14.780
23388W        W94917  44.133  41.232  12.935
23389W        W94918   8.452  38.891   0.280
23390W        W94919  32.815   5.355  11.590
23391W        W94920  12.820  43.420   0.989
23392W        W94921  35.547  10.933   2.080
23393W        W94922  22.029   5.179  13.530
23394W        W94923  38.299  16.594   3.483
23395W        W94924  44.248  34.002  12.042
23396W        W94925   9.150  40.356  10.955
23397W        W94926  10.037  33.631   5.012
23398W        W94927  20.819  14.616   1.683
23399W        W94928   5.445  10.193   0.704
23400W        W94929  44.893   4.816  11.263
23401W        W94930  23.226  40.424   1.238
23402W        W94931   4.669  19.458  10.326
23403W        W94932  41.811  43.142  11.526
23404W        W94933  37.502  29.878  13.073
23405W        W94934  25.980  13.650  13.978
23406W        W94935  30.125  41.936   2.457
23407W        W94936  16.716  24.163  10.726
23408W        W94937   7.434  11.835   0.965
23409W        W94938  31.387  20.545  13.190
23410W        W94939  35.541  43.513   3.081
23411W        W94940  39.051  22.098  14.926
23412W        W94941   7.920  20.243   1.270
23413W        W94942  42.461  26.672  10.591
23414W        W94943  26.006  16.469  13.969
23415W        W94944  18.612  43.210   4.266
23416W        W94945   2.327  12.047  11.392
23417W        W94946   3.570  32.199  10.814
23418W        W94947  12.428  18.653   1.789
23419W        W94948  25.534  17.734   4.678
23420W        W94949  14.615  37.115   1.470
23421W        W94950  27.824  11.131   0.893
23422W        W94951  14.793  20.504   3.474
23423W        W94952  17.661   8.226   2.859
23424W        W94953  15.208  30.454   4.592
23425W        W94954  16.237  23.953   0.436
23426W        W94955   7.552   5.796  11.711
23427W        W94956  42.355  10.743   3.444
23428W        W94957  12.328  19.882   4.585
23429W        W94958  37.624  20.937   4.309
23430W        W94959  25.500  28.561  11.049
23431W        W94960  29.176  41.894   0.284
23432W        W94961   9.127  17.203   1.290
23433W        W94962   5.990  29.517  11.185
23434W        W94963  44.858  16.862  13.782
23435W        W94964   0.939   0.336  11.466
23436W        W94965   0.426   0.285  13.138
23437W        W94966   6.936  34.365   3.239
23438W        W94967  23.124  38.436  10.623
23439W        W94968  17.858  35.312   4.156
23440W        W94969  26.635  13.428  11.505
23441W        W94970  23.219  23.587  12.230
23442W        W94971  12.901  36.472  13.582
23443W        W94972  39.769  24.981   0.241
23444W        W94973  42.360  27.146   2.665
23445W        W94974  32.910  15.817   0.899
23446W        W94975  33.038  15.894   4.005
23447W        W94976   0.874  38.878   2.795
23448W        W94977  29.803  24.162  13.816
23449W        W94978  44.439  13.364   0.791
23450W        W94979  26.606   6.829   2.919
23451W        W94980   7.599   2.002   0.926
23452W        W94981  11.328  39.574  14.803
23453W        W94982  33.887  42.789   4.585
23454W        W94983  37.341  24.102   3.182
23455W        W94984  15.800   1.863   0.431
23456W        W94985  31.048  11.646   1.482
23457W        W94986  39.338  17.185   0.442
23458W        W94987  35.385  17.295   1.332
23459W        W94988   7.849  23.010  12.324
23460W        W94989  21.154  42.198   1.266
23461W        W94990  21.630  39.898  14.985
23462W        W94991  37.002   2.894   0.748
23463W        W94992   6.644  17.597   0.949
23464W        W94993   8.235  13.156  12.363
23465W        W94994  43.072  17.524  11.671
23466W        W94995  28.381  10.125  10.333
23467W        W94996  42.992  14.119  11.551
23468W        W94997  44.690  18.207   2.429
23469W        W94998  43.327  11.387   1.949
23470W        W94999  42.247  17.045  12.503
23471W        W95000  32.376   8.299   2.237
23472W        W95001  38.389   8.450  13.325
23473W        W95002  21.177  15.577  14.539
23474W        W95003   1.776  24.797   2.153
23475W        W95004  28.046  33.055  12.509
23476W        W95005  36.889  23.724   0.365
23477W        W95006  30.984  44.091  10.496
23478W        W95007  15.164  42.007  11.509
23479W        W95008  43.913   9.638  11.622
23480W        W95009  27.847  26.183  14.578
23481W        W95010  17.610   1.278   1.354
23482W        W95011  14.028   8.782  13.301
23483W        W95012   0.709  13.439   5.020
23484W        W95013  30.723   2.789  12.339
23485W        W95014   9.032  37.041  10.558
23486W        W95015  16.924   0.828  12.237
23487W        W95016  23.593  43.083   3.709
23488W        W95017  31.657   2.334  13.065
23489W        W95018  16.385   5.952  10.924
23490W        W95019  28.390   8.337   3.989
23491W        W95020  21.015  37.916  13.541
23492W        W95021  28.481   4.683   2.868
23493W        W95022  19.251  12.633   3.245
23494W        W95023  41.002   1.335   3.097
23495W        W95024  24.752   7.692   0.460
23496W        W95025  18.679   1.225   3.338
23497W        W95026  24.219  34.396  12.470
23498W        W95027   9.285  38.832   2.446
23499W        W95028   0.012   3.652  11.563
23500W        W95029  10.080   9.295  12.970
23501W        W95030  21.679  25.159   2.864
23502W        W95031  44.865  43.519   3.206
23503W        W95032  25.569  38.452   2.356
23504W        W95033   6.129  31.143   3.325
23505W        W95034  11.163  39.387  13.354
23506W        W95035  35.356  28.681  13.873
23507W        W95036  14.686  14.632   3.846
23508W        W95037  13.383  33.037   1.601
23509W        W95038  39.616  43.835  11.027
23510W        W95039  35.427  23.962  11.884
23511W        W95040  14.011  25.741   1.765
23512W        W95041  15.458  28.882   2.229
23513W        W95042  16.598  22.272  11.622
23514W        W95043   2.240  21.593   2.839
23515W        W95044  37.416  24.198  13.510
23516W        W95045  20.402  38.938   3.565
23517W        W95046  14.165  36.757   1.221
23518W        W95047  13.977   0.244  12.615
23519W        W95048  26.109   9.756  11.136
23520W        W95049  11.764  19.146   4.391
23521W        W95050  27.920  25.051   1.863
23522W        W95051  17.179  15.943   0.768
23523W        W95052  16.351   0.914  13.532
23524W        W95053  38.986  18.381   4.835
23525W        W95054  27.583  13.659  12.973
23526W        W95055  15.396  32.541  11.591
23527W        W95056  22.056  30.731  12.132
23528W        W95057  34.059  20.095  13.342
23529W        W95058  28.558  27.039   4.546
23530W        W95059  33.365  43.760   1.866
23531W        W95060  44.702  22.666   1.947
23532W        W95061  10.550  36.329   2.046
23533W        W95062  44.332  18.200  13.629
23534W        W95063   8.381  28.369   4.305
23535W        W95064   7.483  28.022  14.903
23536W        W95065  18.095  31.157  12.499
23537W        W95066  11.585  41.353   1.202
23538W        W95067   7.569  27.704   3.817
23539W        W95068  18.677   3.945   1.505
23540W        W95069  24.452  20.560  12.978
23541W        W95070  41.755  29.678   1.929
23542W        W95071   2.800  22.970   1.373
23543W        W95072  33.617  25.180  10.488
23544W        W95073  10.599   2.655   2.253
23545W        W95074  33.506  35.513   1.741
23546W        W95075  41.275  12.040  13.293
23547W        W95076  15.746   6.407  14.414
23548W        W95077  35.780  10.781  14.392
23549W        W95078  23.547  32.110  12.499
23550W        W95079  29.624  23.152   4.041
23551W        W95080  43.818  31.886   4.674
23552W        W95081  44.797  18.462  14.436
23553W        W95082  33.864  14.695  12.571
23554W        W95083  28.038  40.052  12.715
23555W        W95084  22.211   2.980  12.018
23556W        W95085  12.223  41.216  12.392
23557W        W95086   2.788   9.828  13.833
23558W        W95087  33.184  39.930   0.387
23559W        W95088  26.751  13.677   1.442
23560W        W95089  12.733  33.616  13.129
23561W        W95090   7.258  29.830  13.603
23562W        W95091  21.537  38.954   3.243
23563W        W95092  40.763  44.744  12.466
23564W        W95093  34.116  35.291   3.673
23565W        W95094  40.463   9.671   0.557
23566W        W95095   6.359  15.940  11.956
23567W        W95096  14.267  17.133   1.383
23568W        W95097  35.353  16.551  13.511
23569W        W95098   7.008  43.429   3.074
23570W        W95099  16.184  15.357  12.028
23571W        W95100  38.364   2.808  14.521
23572W        W95101  17.695  18.380  12.487
23573W        W95102  23.993  25.568   3.604
23574W        W95103   5.192  14.310  13.963
23575W        W95104  10.785  33.964   0.185
23576W        W95105  29.445  22.807  11.937
23577W        W95106   6.208   9.338  13.886
23578W        W95107  21.134  22.710   1.829
23579W        W95108  29.451  33.436   4.096
23580W        W95109  34.093  17.281   2.751
23581W        W95110  28.203   9.173  12.326
23582W        W95111  40.788  40.310   0.042
23583W        W95112  43.913  24.965   3.210
23584W        W95113  20.784  38.359  13.405
23585W        W95114  17.025  19.225   3.917
23586W        W95115   3.020  28.292  11.651
23587W        W95116  28.555  24.762   3.933
23588W        W95117  21.222  25.699  10.634
23589W        W95118  37.422   4.195   2.726
23590W        W95119   4.973   0.509   0.870
23591W        W95120  33.785   2.091  11.238
23592W        W95121  38.387  15.601   2.155
23593W        W95122  40.071   9.847  12.039
23594W        W95123  30.581   1.413   2.447
23595W        W95124  15.074   1.700   2.601
23596W        W95125  21.177  22.939   4.221
23597W        W95126  19.056  25.274   0.067
23598W        W95127  25.291  30.541  13.132
23599W        W95128  11.665   8.666   4.118
23600W        W95129  29.385  21.440   2.887
23601W        W95130   8.169  21.118   4.549
23602W        W95131  28.999  13.212  11.608
23603W        W95132  41.677   6.129  10.778
23604W        W95133  12.866  26.647   4.831
23605W        W95134  19.235  16.343  11.479
23606W        W95135   2.559   7.235  14.250
23607W        W95136  11.368  33.487   2.939
23608W        W95137  10.407  16.099   3.163
23609W        W95138  11.255  22.180  10.779
23610W        W95139   0.593  42.994  11.541
23611W        W95140   4.289  21.946  13.949
23612W        W95141  31.254  23.813   0.766
23613W        W95142   2.836  40.878   0.385
23614W        W95143   4.584  37.267  13.457
23615W        W95144  19.403   4.087   3.218
23616W        W95145  18.155  40.465  12.983
23617W        W95146  16.728  23.610  12.065
23618W        W95147   6.367   5.082   2.348
23619W        W95148  21.111  14.855  13.989
23620W        W95149  28.122  39.054   1.222
23621W        W95150  18.965  17.159   9.986
23622W        W95151   4.758  27.779  10.702
23623W        W95152   9.119   7.713   0.466
23624W        W95153  41.008  36.614   2.316
23625W        W95154  32.369  19.128  11.173
23626W        W95155  41.214   4.652   3.340
23627W        W95156   3.154  39.429   2.245
23628W        W95157  11.186  42.542  10.516
23629W        W95158  35.116   8.738   2.357
23630W        W95159   6.416   7.767   4.410
23631W        W95160  14.846  34.824  13.382
23632W        W95161   0.149  15.098   1.714
23633W        W95162  41.010  43.242  13.767
23634W        W95163  31.460   3.678  13.462
23635W        W95164  27.994  12.672  12.908
23636W        W95165  18.602  26.229  13.648
23637W        W95166  10.052  41.944  14.260
23638W        W95167   4.283  14.734  14.261
23639W        W95168  37.225  11.181   1.840
23640W        W95169  26.668  15.662  12.370
23641W        W95170   2.747   2.780   2.634
23642W        W95171   7.460  33.267   5.055
23643W        W95172  14.861  18.596   2.485
23644W        W95173  25.516  19.007  14.932
23645W        W95174   6.788   2.680  12.463
23646W        W95175  39.564  11.383   4.026
23647W        W95176  23.443  11.142  12.927
23648W        W95177  15.112  24.131  13.491
23649W        W95178  33.677  20.163  14.787
23650W        W95179   5.373  41.518   4.090
23651W        W95180  31.054  44.034  13.789
23652W        W95181  41.886  22.180  14.548
23653W        W95182  22.657  10.172   4.595
23654W        W95183  23.104  37.659   1.805
23655W        W95184  44.379  28.396  12.090
23656W        W95185  44.854  22.431   2.419
23657W        W95186   2.656   7.611  14.640
23658W        W95187  17.255   5.963  14.404
23659W        W95188  30.979  18.993   2.039
23660W        W95189  12.225  42.513  12.011
23661W        W95190  38.559  33.595  14.995
23662W        W95191  35.614  37.257  12.580
23663W        W95192  23.301  28.343  10.977
23664W        W95193  34.680  30.435  11.991
23665W        W95194  19.227  40.416  14.382
23666W        W95195   6.696   8.368  12.934
23667W        W95196  23.196  37.055   0.663
23668W        W95197  16.750  14.245   0.724
23669W        W95198  15.537   8.250   2.850
23670W        W95199  13.643  43.109  14.376
23671W        W95200  31.100  44.459   1.735
23672W        W95201   0.883  14.301   1.375
23673W        W95202  36.579  35.864  11.071
23674W        W95203  37.964  40.866  12.397
23675W        W95204  32.916  38.495  10.653
23676W        W95205  37.792  31.075   2.124
23677W        W95206  29.053  38.271   0.229
23678W        W95207   9.354   1.817   3.837
23679W        W95208  33.480  21.056  12.311
23680W        W95209  31.471  31.883  12.891
23681W        W95210  19.377  38.125  11.557
23682W        W95211  20.536   3.453   5.126
23683W        W95212  13.893  18.688  10.661
23684W        W95213  37.388  12.154   1.594
23685W        W95214  10.611  13.885  10.363
23686W        W95215  12.653  35.874  14.777
23687W        W95216  37.755   4.342  14.487
23688W        W95217  32.439  33.757  14.976
23689W        W95218  40.326   2.434   1.978
23690W        W95219   7.855  33.988   0.456
23691W        W95220  29.633  33.715   2.356
23692W        W95221  29.360   0.906  12.338
23693W        W95222  19.715  19.533   0.538
23694W        W95223   6.643  22.062  11.247
23695W        W95224  15.943  40.598  12.432
23696W        W95225  40.938  37.375  12.900
23697W        W95226  44.806  10.761   0.682
23698W        W95227  41.953  15.940   2.595
23699W        W95228  11.173  16.869  12.476
23700W        W95229  26.655  31.171   1.892
23701W        W95230  38.488  16.768  13.329
23702W        W95231  35.837  36.321  12.618
23703W        W95232   1.288  36.973   4.080
23704W        W95233  40.564  34.023   3.741
23705W        W95234  10.225  30.873   2.316
23706W        W95235  32.787  18.174   2.452
23707W        W95236  20.164  11.346   0.885
23708W        W95237  38.355  35.051  10.718
23709W        W95238   9.121  24.092   3.619
23710W        W95239  39.014   2.076   1.830
23711W        W95240  34.558  18.790  12.497
23712W        W95241  33.242  35.272  12.952
23713W        W95242  28.617   4.693   3.369
23714W        W95243  43.659  34.365   2.330
23715W        W95244  35.344  16.111  10.511
23716W        W95245   2.198   0.782   0.891
23717W        W95246  38.280  15.144  14.616
23718W        W95247  37.847   1.809  12.601
23719W        W95248  22.066  38.354   0.940
23720W        W95249  15.183  41.494   1.086
23721W        W95250  14.670  15.146   0.267
23722W        W95251  27.975  37.792  14.568
23723W        W95252  29.887  19.674  11.620
23724W        W95253   9.515  23.014   3.293
23725W        W95254  30.936  22.519   4.614
23726W        W95255  18.613  27.539   5.761
23727W        W95256   4.348  32.054   1.829
23728W        W95257   6.527  10.132  12.017
23729W        W95258  36.930  43.743   3.205
23730W        W95259  20.957  44.481  11.837
23731W        W95260  11.303  34.392   2.881
23732W        W95261   0.207  42.370  14.001
23733W        W95262  18.149  19.173   1.793
23734W        W95263   2.765  16.014  13.382
23735W        W95264  16.906  39.850  13.817
23736W        W95265   6.092   2.324  10.862
23737W        W95266   8.923  42.514  11.888
23738W        W95267   3.806  22.042   4.713
23739W        W95268  29.820  22.069  11.386
23740W        W95269   9.210  33.283   4.536
23741W        W95270   3.792  35.762   1.698
23742W        W95271  18.583  13.058   1.914
23743W        W95272  24.331  38.029  12.567
23744W        W95273  26.403  12.302  10.563
23745W        W95274  29.541  13.365  11.884
23746W        W95275  24.100   3.231   0.348
23747W        W95276  39.607  43.598   1.016
23748W        W95277  29.087  37.550  10.409
23749W        W95278   7.248  38.829  11.894
23750W        W95279   6.932  14.310  14.503
23751W        W95280   2.309  28.078   3.523
23752W        W95281  13.184  21.474   0.941
23753W        W95282  17.191  18.318  12.654
23754W        W95283   9.320  34.332  14.507
23755W        W95284  27.160  10.897   2.864
23756W        W95285  17.330  25.097   4.171
23757W        W95286  19.386  27.313   0.352
23758W        W95287  38.527  35.955  12.989
23759W        W95288  43.404  13.546  11.029
23760W        W95289   0.950  31.936   0.752
23761W        W95290  20.006  32.077   2.529
23762W        W95291   8.362  16.113  13.347
23763W        W95292  34.928  13.901   0.983
23764W        W95293  20.055  31.465  14.212
23765W        W95294  33.361  33.514  12.086
23766W        W95295  34.875   1.057  13.987
23767W        W95296  33.012   8.807  13.280
23768W        W95297   3.945  19.772   4.165
23769W        W95298  30.508  14.104   4.265
23770W        W95299  24.089  41.983   1.910
23771W        W95300  41.610  40.800   2.929
23772W        W95301  28.238  32.496  12.324
23773W        W95302  31.917  19.287   0.934
23774W        W95303  15.879   2.814   0.915
23775W        W95304   9.173  22.049  14.398
23776W        W95305  43.585  15.396  11.973
23777W        W95306  31.296  31.967   1.228
23778W        W95307  41.738  44.968  12.743
23779W        W95308   5.915   6.870  12.076
23780W        W95309  21.023   5.855  12.551
23781W        W95310  21.536  37.786   4.093
23782W        W95311  37.301  20.290  14.801
23783W        W95312  10.133  26.133  10.595
23784W        W95313   8.779  31.995   5.048
23785W        W95314  30.096  15.963   2.708
23786W        W95315   8.251  26.933  14.678
23787W        W95316  28.837  21.322   2.652
23788W        W95317  22.281   5.921   2.863
23789W        W95318   7.244  43.097  11.490
23790W        W95319  33.718  35.898   4.125
23791W        W95320  26.269   6.165   3.876
23792W        W95321   1.902  32.276   3.698
23793W        W95322  21.297   1.840   2.005
23794W        W95323  41.744  17.432  14.509
23795W        W95324  34.239   1.267  11.189
23796W        W95325  26.097  27.615  14.262
23797W        W95326  38.473  24.981   0.811
23798W        W95327  33.375   4.423  14.934
23799W        W95328  28.118   0.735  14.806
23800W        W95329  36.997  37.539   1.459
23801W        W95330  43.108  27.935  11.179
23802W        W95331  43.494  25.162  12.596
23803W        W95332  16.730   7.998   0.568
23804W        W95333  28.659  36.082  13.831
23805W        W95334  22.501   0.836   0.967
23806W        W95335  39.385  12.289  14.831
23807W        W95336  34.493  27.546   3.096
23808W        W95337  14.082  34.592  13.798
23809W        W95338  12.859   4.507   1.248
23810W        W95339  35.326  40.411  13.305
23811W        W95340  26.560   8.740   1.241
23812W        W95341  42.740  40.143   0.735
23813W        W95342  29.562   4.915   5.023
23814W        W95343  37.132  20.191  14.329
23815W        W95344  17.128  32.889  14.980
23816W        W95345  11.616   6.203   2.255
23817W        W95346  18.312  12.596   1.641
23818W        W95347   4.731  33.246  12.424
23819W        W95348  22.222   3.960  11.217
23820W        W95349  40.663  36.093   0.868
23821W        W95350  42.360  13.481  13.983
23822W        W95351   7.721  39.033  12.494
23823W        W95352   7.895   3.308   3.616
23824W        W95353   6.208  44.843  13.528
23825W        W95354  41.725  23.754   0.527
23826W        W95355   9.099  26.841  10.074
23827W        W95356   8.537  26.583  12.888
23828W        W95357   8.596  28.531   1.402
23829W        W95358  27.263  11.924   0.473
23830W        W95359  18.800   0.015   0.937
23831W        W95360  41.574  33.085   3.731
23832W        W95361  32.334   4.266  13.572
23833W        W95362  36.658  20.248  10.640
23834W        W95363  32.454  28.978  14.081
23835W        W95364   8.931  10.572   3.636
23836W        W95365  40.613  32.942  11.955
23837W        W95366  17.132   3.530  10.427
23838W        W95367  42.974  28.051  11.653
23839W        W95368  35.212   1.453   1.427
23840W        W95369  20.233  29.593   0.728
23841W        W95370  22.592  27.738   5.131
23842W        W95371   5.781   4.971   2.230
23843W        W95372  28.064  17.262  13.883
23844W        W95373   0.788  25.072   3.189
23845W        W95374   4.229   6.329  12.867
23846W        W95375  44.008  18.829  14.942
23847W        W95376   6.653  19.311  13.026
23848W        W95377  33.072  18.668   2.266
23849W        W95378  27.720  14.268  12.520
23850W        W95379  35.966  42.550   3.179
23851W        W95380  31.433  21.660   4.537
23852W        W95381  24.028  35.901   1.329
23853W        W95382  27.118  21.925   1.407
23854W        W95383  23.649  35.655  13.487
23855W        W95384  27.061  29.225  13.816
23856W        W95385  13.673  12.659  12.467
23857W        W95386  16.812   9.646   0.755
23858W        W95387  44.986   8.665  10.785
23859W        W95388  43.717  35.942   1.136
23860W        W95389  35.514   5.518   2.734
23861W        W95390   2.863  31.286  11.955
23862W        W95391   2.429   9.818   4.607
23863W        W95392  42.499  17.164   1.848
23864W        W95393  17.709  42.828  14.336
23865W        W95394   1.200  25.729  12.343
23866W        W95395  32.900  16.080  11.543
23867W        W95396  30.628   5.806   1.544
23868W        W95397   8.206  44.793  14.461
23869W        W95398   8.669  21.116  10.638
23870W        W95399  23.451  18.675   3.326
23871W        W95400  36.559   1.793  12.116
23872W        W95401   9.256  20.179  14.128
23873W        W95402  44.724   2.240   0.951
23874W        W95403  43.887  19.641  10.605
23875W        W95404   8.707  28.525  13.903
23876W        W95405  44.814  39.806   0.289
23877W        W95406   4.165  36.985   0.085
23878W        W95407  32.533  22.946   1.253
23879W        W95408  37.993  27.465  11.217
23880W        W95409  30.882  25.075   0.823
23881W        W95410   4.716   5.306   1.154
23882W        W95411   9.191  21.924   0.363
23883W        W95412  36.484  40.633   0.268
23884W        W95413   6.561   2.988   4.131
23885W        W95414   2.443  28.883   2.465
23886W        W95415  39.939  30.913  12.438
23887W        W95416   0.953  36.395  10.975
23888W        W95417   6.968  41.059   3.064
23889W        W95418  37.946  37.581  13.038
23890W        W95419  36.324  15.462  10.376
23891W        W95420  19.693  32.588   1.985
23892W        W95421  30.523  30.964  14.639
23893W        W95422   1.923   8.007   2.744
23894W        W95423   8.714  32.315  12.185
23895W        W95424  17.657  39.257   3.077
23896W        W95425  23.273   1.979   2.835
23897W        W95426  10.165  17.466  14.833
23898W        W95427   2.688  43.378  12.532
23899W        W95428  12.595  43.550   3.771
23900W        W95429  43.740  26.527   1.321
23901W        W95430  39.700  10.049   4.084
23902W        W95431  31.561  34.201  12.321
23903W        W95432  18.624  11.344   3.164
23904W        W95433  32.700  37.045   4.652
23905W        W95434   5.001  33.280  14.962
23906W        W95435  44.339  29.110   3.317
23907W        W95436  10.405  20.712   1.815
23908W        W95437  41.377   9.142   2.831
23909W        W95438   5.776  33.973  13.120
23910W        W95439   5.486  16.859  12.006
23911W        W95440  22.058  31.114   3.110
23912W        W95441  31.504  17.778  14.009
23913W        W95442  31.343  23.475   9.807
23914W        W95443  12.365  10.422  12.356
23915W        W95444  24.484  32.600   3.580
23916W        W95445  19.467   9.392  11.118
23917W        W95446  24.038  36.826  12.963
23918W        W95447  36.925   9.626  11.984
23919W        W95448  13.610  10.628  14.067
23920W        W95449  29.055  34.665   4.639
23921W        W95450  13.903  29.861   0.154
23922W        W95451  39.130   5.566  13.578
23923W        W95452   2.673   2.054  12.930
23924W        W95453   3.206  25.557  13.902
23925W        W95454  16.221   1.350  13.757
23926W        W95455   8.260   9.835   4.028
23927W        W95456  23.625  12.099  14.901
23928W        W95457  11.384  36.690  13.921
23929W        W95458  29.156  30.925   0.359
23930W        W95459  20.996  24.364   4.925
23931W        W95460  26.081  26.711  14.344
23932W        W95461  36.615  36.975   3.662
23933W        W95462   0.350  24.598   0.042
23934W        W95463  24.246  27.952   4.180
23935W        W95464  39.941  24.934  11.630
23936W        W95465  31.441   2.925  12.197
23937W        W95466  19.849  19.629  10.289
23938W        W95467  44.867  21.667   1.722
23939W        W95468  18.534  27.209   1.299
23940W        W95469  34.866   0.749  10.886
23941W        W95470  25.287  32.512   3.260
23942W        W95471  14.785   7.412  13.580
23943W        W95472  32.413  35.511   1.788
23944W        W95473  43.693  22.683   2.610
23945W        W95474  28.833   9.685  12.425
23946W        W95475  41.434   5.942  14.821
23947W        W95476   7.126  26.811  14.094
23948W        W95477  22.251   5.713  13.337
23949W        W95478  23.540  33.104  12.605
23950W        W95479  28.291  32.243   2.297
23951W        W95480  23.145   3.014   0.028
23952W        W95481   8.867   8.832   4.588
23953W        W95482  42.628  41.070  12.769
23954W        W95483  11.314  12.039  10.644
23955W        W95484   4.915   0.907   4.255
23956W        W95485  25.584   2.822   4.392
23957W        W95486   9.849  27.805  10.683
23958W        W95487   4.408  43.570  13.551
23959W        W95488  34.041  25.094  12.030
23960W        W95489  40.101   3.239   0.984
23961W        W95490  26.085   8.239   2.807
23962W        W95491   7.208  38.853  11.395
23963W        W95492  36.358   0.282   2.900
23964W        W95493   9.755  22.149   4.614
23965W        W95494   5.282  43.832   3.674
23966W        W95495  25.147  36.882   4.415
23967W        W95496  14.700  16.709  12.722
23968W        W95497  10.130  11.146  12.927
23969W        W95498  27.968  36.302  14.294
23970W        W95499  33.399  15.209  13.633
23971W        W95500  28.682  39.914  14.238
23972W        W95501   9.537  43.248   4.122
23973W        W95502  27.002  22.010  12.599
23974W        W95503  31.652  28.194  10.441
23975W        W95504  23.201  14.560   4.303
23976W        W95505  14.362   2.681  13.536
23977W        W95506  36.782  15.300  13.524
23978W        W95507   5.699  35.082   1.767
23979W        W95508  24.794  16.112  12.060
23980W        W95509   0.294  40.376  11.944
23981W        W95510  37.609  16.482  12.592
23982W        W95511  27.745  20.382  11.150
23983W        W95512  39.070  30.701  12.213
23984W        W95513  32.043  29.363   4.932
23985W        W95514  41.789  25.546   2.182
23986W        W95515   0.971  29.364   1.945
23987W        W95516   2.402  43.817  12.547
23988W        W95517  18.055  11.011  13.440
23989W        W95518  38.045  14.384  11.876
23990W        W95519  44.959  32.635  12.598
23991W        W95520   8.791  32.056   4.129
23992W        W95521   2.501   7.949  13.877
23993W        W95522  10.533   7.879   4.775
23994W        W95523  24.435   6.484   2.313
23995W        W95524   4.113  21.649   1.153
23996W        W95525  41.925  15.283  11.423
23997W        W95526   2.330   8.991  12.384
23998W        W95527  38.995  40.600   1.622
23999W        W95528  25.410   2.322  13.400
24000W        W95529   9.879   8.137  10.791
24001W        W95530   5.444  28.697   4.601
24002W        W95531  28.245  32.775   2.388
24003W        W95532  23.153   3.614   3.209
24004W        W95533  36.655  32.417   2.598
24005W        W95534  37.075  38.318   0.326
24006W        W95535   5.892  20.541   3.354
24007W        W95536   1.883  31.183   1.877
24008W        W95537  38.482  27.067  12.836
24009W        W95538  36.342  19.919   4.159
24010W        W95539   7.862  36.177  13.754
24011W        W95540   6.151  21.584   3.304
24012W        W95541   8.830  27.049   2.279
24013W        W95542  43.989  20.050  11.386
24014W        W95543  31.426  44.075   1.870
24015W        W95544  39.456  39.019   3.808
24016W        W95545  40.367  16.326  13.836
24017W        W95546  34.434  29.398   1.458
24018W        W95547   9.222  26.840   0.888
24019W        W95548  22.092   2.356   2.785
24020W        W95549  34.109  34.965  12.018
24021W        W95550  32.781  20.465  12.611
24022W        W95551   8.137  22.251   3.667
24023W        W95552  44.372  22.554   2.328
24024W        W95553  20.151   1.725   1.045
24025W        W95554  10.712  43.720  11.174
24026W        W95555  23.831   7.176  12.137
24027W        W95556  42.419   4.179   4.368
24028W        W95557  29.793  16.352   1.759
24029W        W95558  39.495  21.144  10.639
24030W        W95559   4.591  10.536   4.220
24031W        W95560  24.559   7.689  13.129
24032W        W95561   0.715  42.973  10.260
24033W        W95562   2.251  28.633  11.105
24034W        W95563  20.840  39.888   0.731
24035W        W95564  40.759   9.277  12.135
24036W        W95565  26.561  31.932  14.710
24037W        W95566  30.771  14.482   1.047
24038W        W95567  39.873  32.078  12.457
24039W        W95568   8.245  42.234   1.770
24040W        W95569  28.619  13.388  13.313
24041W        W95570  21.610   6.242  13.199
24042W        W95571  15.694  10.057   0.452
24043W        W95572   7.943   0.658   3.880
24044W        W95573  13.365  31.825   3.606
24045W        W95574   2.270   9.108  11.434
24046W        W95575  38.580  25.551   4.360
24047W        W95576  25.010  16.591  12.064
24048W        W95577  33.837  27.204   3.270
24049W        W95578  16.236  24.281  14.375
24050W        W95579  24.877  42.400  12.108
24051W        W95580  17.122  34.135   4.638
24052W        W95581  37.163  28.541  12.583
24053W        W95582  13.302  26.671   5.123
24054W        W95583  44.378  22.394  14.021
24055W        W95584  30.444  41.012  14.342
24056W        W95585  35.532  14.317  14.160
24057W        W95586   2.245  21.880  12.807
24058W        W95587   5.073  41.435   3.648
24059W        W95588  34.570  12.815  11.422
24060W        W95589   2.499   9.297   2.400
24061W        W95590  41.820  36.301   3.769
24062W        W95591   7.772  17.060  11.394
24063W        W95592   4.887  39.780  13.459
24064W        W95593   2.522  20.664  11.225
24065W        W95594  12.814  31.037   2.732
24066W        W95595  17.825  16.623   4.605
24067W        W95596  38.743  11.703   4.394
24068W        W95597  44.805  42.897  12.063
24069W        W95598  44.339  12.047   4.086
24070W        W95599  40.068  13.761  12.226
24071W        W95600  15.326  21.987  12.932
24072W        W95601  15.258   0.388  13.014
24073W        W95602  31.473  22.477  13.428
24074W        W95603  26.794  38.233  14.818
24075W        W95604  37.885   9.815   9.874
24076W        W95605  26.429   3.874  13.907
24077W        W95606   3.278  17.881   0.025
24078W        W95607  28.967  14.260  13.766
24079W        W95608  23.744   8.571   3.681
24080W        W95609   8.874   5.914  13.555
24081W        W95610  23.511  44.308   1.782
24082W        W95611  13.611  44.659   3.536
24083W        W95612  42.486  11.240   2.699
24084W        W95613  19.978  26.042   0.955
24085W        W95614  23.303  25.179  13.575
24086W        W95615  12.315  30.315  14.305
24087W        W95616  12.879  36.930  11.053
24088W        W95617  33.058   0.926   3.830
24089W        W95618  18.783   8.697   0.810
24090W        W95619  34.363  24.143   2.761
24091W        W95620  32.421  34.102   4.315
24092W        W95621  33.995  30.099   4.615
24093W        W95622   1.341  29.148  12.097
24094W        W95623  27.705  22.000  13.022
24095W        W95624   5.277  37.452  11.930
24096W        W95625  36.888  38.348   4.068
24097W        W95626  26.053   5.473  13.319
24098W        W95627   5.307  24.256   4.678
24099W        W95628  11.929  30.053  14.964
24100W        W95629  26.495  17.203   3.920
24101W        W95630   0.549  32.473   2.642
24102W        W95631  42.859  25.947   2.815
24103W        W95632  30.522  38.597  11.760
24104W        W95633  30.646  10.444   4.621
24105W        W95634  11.335   8.623  14.279
24106W        W95635  10.240  15.540  12.811
24107W        W95636  28.515   8.311  11.167
24108W        W95637  25.633  12.629  10.250
24109W        W95638   8.754  41.349  10.582
24110W        W95639   1.647  23.034   0.053
24111W        W95640  14.783  31.226   3.892
24112W        W95641   9.044  29.631  10.779
24113W        W95642  36.670  24.578  13.155
24114W        W95643  20.188  33.583  11.028
24115W        W95644  41.242  32.346  12.038
24116W        W95645  41.254  32.513   0.825
24117W        W95646  23.782  17.279  14.505
24118W        W95647  33.686  29.797  14.131
24119W        W95648  41.402  20.778  12.997
24120W        W95649  13.017  12.323   0.890
24121W        W95650  25.604  24.497  13.203
24122W        W95651  22.598  15.673  12.130
24123W        W95652  15.658  24.208   4.015
24124W        W95653  17.838  16.669  12.629
24125W        W95654  19.065  38.354   1.271
24126W        W95655  15.791  31.111  11.923
24127W        W95656  36.668  26.932   1.804
24128W        W95657  44.216  10.782  10.234
24129W        W95658   1.903  23.469  14.952
24130W        W95659  24.455  13.835   1.791
24131W        W95660   9.838  36.636  10.716
24132W        W95661  15.263  27.936  12.352
24133W        W95662  17.095  15.230   0.468
24134W        W95663  38.853  34.036  10.265
24135W        W95664  15.155  36.857   2.798
24136W        W95665   1.216  37.797   0.913
24137W        W95666  24.500  33.110   3.671
24138W        W95667   4.646  26.688   0.779
24139W        W95668  24.134  12.842  12.196
24140W        W95669  18.539  12.773   2.331
24141W        W95670   4.141  14.728   1.277
24142W        W95671  21.736  44.311  14.378
24143W        W95672  43.350  18.226   1.740
24144W        W95673  21.687  21.269  10.520
24145W        W95674  13.496  21.721   4.135
24146W        W95675  20.058  13.793   3.772
24147W        W95676   5.242   6.939  13.154
24148W        W95677   0.869   4.637   3.667
24149W        W95678  21.268  42.775  10.575
24150W        W95679  37.652  30.881   0.328
24151W        W95680  11.702  25.921  11.397
24152W        W95681  33.004  34.373   1.589
24153W        W95682   8.709  33.210   3.266
24154W        W95683  36.435  36.392   2.377
24155W        W95684  25.773   6.756   1.796
24156W        W95685  13.667  17.646   0.942
24157W        W95686  16.264  25.946  12.047
24158W        W95687  34.701  42.237   0.111
24159W        W95688  18.229  43.392  13.017
24160W        W95689  29.110  23.903   1.739
24161W        W95690   2.129   6.110   1.738
24162W        W95691  14.769  35.547   2.395
24163W        W95692  39.079  27.236  10.711
24164W        W95693   4.768  36.283  14.965
24165W        W95694   8.556  17.029   2.055
24166W        W95695  14.245  25.026  11.854
24167W        W95696  12.209   5.193   1.403
24168W        W95697  11.594  33.626  14.862
24169W        W95698  28.198  17.234  14.478
24170W        W95699   6.045  27.861   2.814
24171W        W95700  14.016   6.788  12.329
24172W        W95701   7.211  23.507   0.829
24173W        W95702  30.677  13.801   1.188
24174W        W95703  26.531  34.402   1.278
24175W        W95704  10.675   6.382  11.950
24176W        W95705  11.252  21.932  11.718
24177W        W95706  35.044   5.451  14.327
24178W        W95707  24.274  32.299  12.145
24179W        W95708   5.728  38.500   2.326
24180W        W95709   7.698  20.217  11.109
24181W        W95710  42.824  21.574  10.570
24182W        W95711  35.034  42.384   1.932
24183W        W95712   9.284  11.924  11.708
24184W        W95713  42.616   8.615  14.493
24185W        W95714  37.941  24.398  13.289
24186W        W95715   7.202  24.585  14.287
24187W        W95716  11.301  26.422  13.871
24188W        W95717  23.809   3.509   3.162
24189W        W95718  17.780  44.063   2.293
24190W        W95719   1.490  11.912   1.913
24191W        W95720  31.371  35.391   3.240
24192W        W95721  43.048  18.447  11.161
24193W        W95722  15.884  22.081  13.560
24194W        W95723   3.935  40.502  10.241
24195W        W95724  35.862  12.098   1.186
24196W        W95725   5.038  26.699  11.627
24197W        W95726  34.541  12.433  12.523
24198W        W95727  11.611  19.542  10.754
24199W        W95728  29.740   5.950  14.449
24200W        W95729  21.230  29.704  13.375
24201W        W95730   3.010  39.414   0.384
24202W        W95731  36.916  13.072  14.288
24203W        W95732  29.587  40.638   1.754
24204W        W95733  14.718   8.340  14.403
24205W        W95734   6.134  19.474  13.490
24206W        W95735  22.686  35.268   2.688
24207W        W95736  40.910   4.359   0.890
24208W        W95737   4.374  16.521   3.787
24209W        W95738  44.708  37.383  13.579
24210W        W95739  38.427  12.229   4.561
24211W        W95740  39.295  40.750   0.300
24212W        W95741   9.185  19.079  10.689
24213W        W95742  24.465   2.389   4.353
24214W        W95743  34.371  11.410  10.704
24215W        W95744  26.251  28.231   2.617
24216W        W95745   5.345  34.471  10.555
24217W        W95746   1.988  27.021  13.758
24218W        W95747  28.957  36.376  11.724
24219W        W95748  23.236  23.529  11.213
24220W        W95749  29.980  26.205   1.705
24221W        W95750  14.445   9.644  12.068
24222W        W95751  40.718  36.374  12.885
24223W        W95752  11.556  16.014   5.198
24224W        W95753  42.084  38.565  14.703
24225W        W95754  44.793  26.707   4.200
24226W        W95755  39.844  15.023   2.622
24227W        W95756  43.851  19.984  14.819
24228W        W95757   9.391  20.350   0.033
24229W        W95758  30.930  32.013   3.718
24230W        W95759  16.044   1.415   4.083
24231W        W95760   6.671  30.573   3.668
24232W        W95761  25.542  35.549  11.280
24233W        W95762  31.573  33.034   3.686
24234W        W95763  13.587  44.869   1.582
24235W        W95764  41.069  17.396   1.161
24236W        W95765  10.817  42.609   0.892
24237W        W95766  30.943   2.126   2.643
24238W        W95767  29.180  21.506   4.290
24239W        W95768  25.493  21.800  11.133
24240W        W95769  41.022  20.387  11.059
24241W        W95770  21.326  16.638   0.937
24242W        W95771   4.906  31.404  10.317
24243W        W95772  16.625  26.085   1.092
24244W        W95773  41.813   3.557   2.709
24245W        W95774  38.784  16.319   2.338
24246W        W95775  23.996  30.599   1.325
24247W        W95776  15.090   6.391   3.916
24248W        W95777  39.310  13.541   3.333
24249W        W95778  35.143  42.461   2.776
24250W        W95779  44.872  23.795   1.855
24251W        W95780   5.560  36.296   2.329
24252W        W95781  43.901  27.939  11.573
24253W        W95782  22.104  35.224   4.658
24254W        W95783  18.968  26.812  14.860
24255W        W95784  10.269  31.810   0.016
24256W        W95785  26.050  40.492   4.213
24257W        W95786  35.994  37.522  12.301
24258W        W95787  44.226  44.320   0.297
24259W        W95788  14.280  42.404   3.352
24260W        W95789  14.538  40.326   2.158
24261W        W95790   2.659  22.653  10.724
24262W        W95791  21.258  11.776  12.548
24263W        W95792  14.170  26.375  12.563
24264W        W95793  41.577  18.672  14.094
24265W        W95794   9.555  11.716   3.087
24266W        W95795  27.889   6.904   3.135
24267W        W95796  41.834  32.197   0.729
24268W        W95797  32.465  27.188   0.508
24269W        W95798  22.043   7.456  11.460
24270W        W95799  40.052   0.395   3.145
24271W        W95800  12.708  14.325  12.644
24272W        W95801  19.021   8.415  12.395
24273W        W95802  22.046  36.294  12.008
24274W        W95803  31.194   8.462   4.709
24275W        W95804  24.962  40.442  13.888
24276W        W95805  22.065   7.385   0.837
24277W        W95806  12.343  19.515  13.544
24278W        W95807  31.039  13.708  14.283
24279W        W95808  15.604   6.695   3.314
24280W        W95809  28.274  37.275  12.669
24281W        W95810  31.262  41.072   3.655
24282W        W95811  22.559  27.722  12.878
24283W        W95812  13.219  44.230  10.982
24284W        W95813  40.830  24.439   2.708
24285W        W95814  31.154  27.689   3.685
24286W        W95815  17.797  31.934  11.614
24287W        W95816  40.267   7.822  12.027
24288W        W95817  40.828  15.492   1.916
24289W        W95818  28.832  41.969  10.634
24290W        W95819   4.379  14.213   5.147
24291W        W95820  40.778   1.510  13.387
24292W        W95821   7.700  25.574  10.534
24293W        W95822  37.827  15.957  13.984
24294W        W95823  38.313  16.526  11.112
24295W        W95824  13.218  34.323   2.473
24296W        W95825  40.119  23.943   0.921
24297W        W95826  19.972  31.850   9.762
24298W        W95827  21.490   3.205   4.562
24299W        W95828   2.271  35.739   4.139
24300W        W95829   7.705  30.755   2.836
24301W        W95830  37.883  10.668   4.294
24302W        W95831  37.616  35.971   1.378
24303W        W95832  13.540  37.398  10.770
24304W        W95833  11.211  22.053   4.709
24305W        W95834   2.682  29.653   5.035
24306W        W95835  17.372  34.582   2.579
24307W        W95836  41.260   1.715  13.384
24308W        W95837   0.924  29.892   0.145
24309W        W95838  19.190  16.242   0.380
24310W        W95839  15.465   6.750   4.128
24311W        W95840  32.392  26.358  11.570
24312W        W95841  37.986  26.476   1.681
24313W        W95842  42.925  23.974   1.631
24314W        W95843  30.688  34.025  12.033
24315W        W95844  22.185  28.184  13.485
24316W        W95845  16.239  17.150  13.609
24317W        W95846  34.570  36.651  11.625
24318W        W95847  26.984  13.463   3.326
24319W        W95848  33.046  12.132  14.807
24320W        W95849   4.053  25.160  11.889
24321W        W95850   0.895   9.566   1.707
24322W        W95851   6.799   0.725   4.221
24323W        W95852  20.568  36.021  13.673
24324W        W95853  19.065  36.471  14.548
24325W        W95854   8.879  21.259   2.287
24326W        W95855  21.595  38.045   3.652
24327W        W95856   6.874  40.421   0.299
24328W        W95857   1.441  35.027   1.852
24329W        W95858  40.389  36.530   0.952
24330W        W95859  27.639  31.919   0.862
24331W        W95860  33.616   9.875  10.682
24332W        W95861  18.383  19.570   4.884
24333W        W95862   7.894  22.906   1.326
24334W        W95863  15.804  22.153  10.612
24335W        W95864  16.833  10.696   4.715
24336W        W95865  31.377   8.719  10.617
24337W        W95866  29.827  33.194  13.184
24338W        W95867  28.790  43.986   1.927
24339W        W95868  40.716  16.976   0.317
24340W        W95869  23.046  28.271   0.123
24341W        W95870  40.789  23.185   4.590
24342W        W95871  19.219  24.039   3.172
24343W        W95872  25.633  33.633  12.161
24344W        W95873   1.434   3.718  11.897
24345W        W95874  31.183  31.580  11.937
24346W        W95875  36.052  16.983   5.023
24347W        W95876   7.634  20.430   4.293
24348W        W95877  42.823   9.051   1.356
24349W        W95878  36.165  23.898   4.006
24350W        W95879   4.948  35.957  12.061
24351W        W95880  11.226  14.866  10.712
24352W        W95881  17.101   0.449  12.601
24353W        W95882  15.344  18.166  14.391
24354W        W95883  17.226  23.303   0.876
24355W        W95884  15.982  18.561  13.420
24356W        W95885   1.512  24.192   4.252
24357W        W95886   3.518  42.412   1.163
24358W        W95887  27.029  39.694  11.094
24359W        W95888  23.688  44.529   0.958
24360W        W95889  38.404  31.536   4.068
24361W        W95890   9.107   9.591   1.150
24362W        W95891  15.800  24.518   4.883
24363W        W95892  43.194  37.400   0.303
24364W        W95893  37.344  28.850   0.771
24365W        W95894   1.980  34.749   1.241
24366W        W95895  24.724   1.946  10.512
24367W        W95896  41.893  37.493   2.471
24368W        W95897   6.230  36.181  13.442
24369W        W95898   5.862  18.341   2.845
24370W        W95899   4.211   8.973   3.307
24371W        W95900  14.927  41.269   3.658
24372W        W95901  23.042   4.134   3.234
24373W        W95902  11.645  30.971   1.764
24374W        W95903  15.542  30.952   4.206
24375W        W95904   1.833  36.322   5.841
24376W        W95905   5.897   2.063  13.062
24377W        W95906   7.148  25.175  13.502
24378W        W95907  22.074  33.769  11.152
24379W        W95908  39.918  12.518  14.317
24380W        W95909  24.972  21.902   0.965
24381W        W95910  28.573  40.855   1.724
24382W        W95911  19.151   3.196  12.563
24383W        W95912  14.393  42.904  14.211
24384W        W95913   0.398  32.156   4.703
24385W        W95914  36.080  20.539   3.582
24386W        W95915  22.251  25.882   2.915
24387W        W95916  15.037   2.778   3.501
24388W        W95917  30.205  36.540   3.223
24389W        W95918  24.021  21.996   4.670
24390W        W95919  29.792  26.723   3.218
24391W        W95920  42.416  41.825   3.404
24392W        W95921  12.237  26.016  10.633
24393W        W95922   4.264  33.246  12.170
24394W        W95923  10.702   5.141  12.107
24395W        W95924  19.192  10.679  11.419
24396W        W95925  17.054  25.429  11.192
24397W        W95926  26.440  33.997   0.942
24398W        W95927  26.139   0.789   0.309
24399W        W95928  39.759  16.626   0.351
24400W        W95929  25.345  41.919  13.748
24401W        W95930  37.987   9.478   1.833
24402W        W95931   8.583  19.932  10.578
24403W        W95932  10.193   5.732  14.972
24404W        W95933   3.265   4.107  12.017
24405W        W95934  24.512  26.325  12.069
24406W        W95935  27.989  42.709  10.584
24407W        W95936  10.423  13.258   1.513
24408W        W95937  23.116  19.833  11.247
24409W        W95938  18.046   4.529  11.656
24410W        W95939  13.208  18.230  10.741
24411W        W95940  27.549  35.930  14.404
24412W        W95941  24.145   1.747  12.029
24413W        W95942   7.776   0.001  13.307
24414W        W95943  36.284  38.157  12.769
24415W        W95944   6.617  38.274  12.110
24416W        W95945  32.446   6.832   4.653
24417W        W95946  17.110  31.685  13.443
24418W        W95947   3.897  27.700  10.673
24419W        W95948  34.074  34.041  12.085
24420W        W95949   0.588  25.275  11.115
24421W        W95950   1.703   9.158   3.419
24422W        W95951  38.774  15.098  14.425
24423W        W95952  38.400  20.056  11.400
24424W        W95953  31.326  23.453  12.081
24425W        W95954  33.527   1.048   2.740
24426W        W95955  33.128  29.124   3.847
24427W        W95956  44.557  31.905  11.662
24428W        W95957  28.769  34.941  14.923
24429W        W95958  18.960  14.672  10.710
24430W        W95959  21.001   4.792   4.914
24431W        W95960  39.942   1.309   2.700
24432W        W95961  26.780  34.508  11.352
24433W        W95962   4.269  28.456  14.470
24434W        W95963   0.223  41.549   0.547
24435W        W95964  36.816  32.453   0.483
24436W        W95965  30.625  17.049  12.847
24437W        W95966  13.937  13.715  10.617
24438W        W95967   4.676  12.727  13.286
24439W        W95968   3.720  32.976  14.312
24440W        W95969   2.174  15.653   3.253
24441W        W95970  41.613   2.764  14.433
24442W        W95971  36.970  26.273   4.709
24443W        W95972  41.947  26.432   0.710
24444W        W95973   8.466  10.734   3.534
24445W        W95974  43.262  26.708   1.405
24446W        W95975  37.544  24.075   0.794
24447W        W95976  12.222  34.858   2.891
24448W        W95977  15.775  41.739   1.366
24449W        W95978  13.814  19.775  12.098
24450W        W95979  27.117  12.776  14.087
24451W        W95980  42.826  20.549  10.638
24452W        W95981  41.527  20.028  11.623
24453W        W95982  17.452  34.660   2.016
24454W        W95983   7.064  42.728   2.754
24455W        W95984  19.009  23.694  12.467
24456W        W95985  29.019  12.313   0.193
24457W        W95986  24.601  19.266  14.965
24458W        W95987  39.113  33.670   5.078
24459W        W95988  22.959  16.747   0.564
24460W        W95989   6.506  42.790   4.563
24461W        W95990   4.910   7.177   4.831
24462W        W95991  32.475   9.208   2.686
24463W        W95992  22.481  27.595  11.494
24464W        W95993   7.912  41.010   3.186
24465W        W95994  32.666  35.095  14.841
24466W        W95995  18.194  35.479   0.301
24467W        W95996  19.542  22.744   4.531
24468W        W95997  37.451  43.064   4.714
24469W        W95998  42.592  30.097  14.880
24470W        W95999  35.807  29.754  12.555
24471W        W96000  28.426  11.404   2.638
24472W        W96001  43.581  33.228   2.599
24473W        W96002  38.004  20.862  14.116
24474W        W96003  28.495  24.704  10.347
24475W        W96004   8.630  24.228   4.446
24476W        W96005  40.051  43.924  12.536
24477W        W96006   1.021  18.796  13.652
24478W        W96007   9.564  14.422   2.835
24479W        W96008  33.724  43.776  13.577
24480W        W96009  23.580  42.817  13.440
24481W        W96010   9.944  20.699  12.390
24482W        W96011   9.324  33.166  10.337
24483W        W96012  11.390  32.992   4.113
24484W        W96013   2.135  38.871  10.472
24485W        W96014  18.117   1.253  12.273
24486W        W96015  22.754  21.600  13.765
24487W        W96016   5.818   0.290  11.612
24488W        W96017   4.642  23.771   0.062
24489W        W96018  27.732   3.755   3.475
24490W        W96019  37.039   4.107   3.220
24491W        W96020  36.363  23.924   0.413
24492W        W96021  22.104  43.997  12.976
24493W        W96022   8.707   2.467  11.616
24494W        W96023  20.837  25.530  11.362
24495W        W96024  20.649   3.667  13.073
24496W        W96025  25.024  31.879  12.458
24497W        W96026   6.599  12.074   0.461
24498W        W96027  33.102  32.694   4.185
24499W        W96028  16.708  44.030  11.592
24500W        W96029  16.625  21.343  11.959
24501W        W96030  24.864  20.643   1.335
24502W        W96031  34.734  38.660  11.029
24503W        W96032  36.015  27.816   3.740
24504W        W96033  18.690  42.430   2.814
24505W        W96034  10.855  21.648   0.278
24506W        W96035  33.571  27.974   1.466
24507W        W96036   9.604  26.642  11.934
24508W        W96037   7.257  35.042  10.775
24509W        W96038   9.219  13.690   3.433
24510W        W96039  24.817  41.769   1.332
24511W        W96040  38.550  14.519   4.329
24512W        W96041   7.257   7.853  14.768
24513W        W96042  14.681  39.442   4.692
24514W        W96043  44.532  11.668   1.882
24515W        W96044  27.946  21.114  12.523
24516W        W96045  29.711   0.375  11.587
24517W        W96046  14.676   7.903  13.431
24518W        W96047  13.109  36.643   2.838
24519W        W96048  27.919  44.878   1.575
24520W        W96049  16.563   4.628   3.294
24521W        W96050  16.115   5.698   0.037
24522W        W96051   0.759   3.207   0.503
24523W        W96052   9.423  14.059  13.346
24524W        W96053  19.375  32.070   4.593
24525W        W96054  41.423  42.840  11.376
24526W        W96055   0.885  23.583   1.799
24527W        W96056  18.621  42.055  10.704
24528W        W96057  31.424  31.533   2.841
24529W        W96058  30.778  43.402   4.438
24530W        W96059   1.492  12.105  14.952
24531W        W96060   1.796  18.589   1.296
24532W        W96061  44.409  26.617  12.433
24533W        W96062  15.866  15.465  13.014
24534W        W96063  21.415  42.034  11.076
24535W        W96064  32.426  19.434  12.541
24536W        W96065  25.963  24.183  12.559
24537W        W96066   0.241  17.259   2.115
24538W        W96067   9.742  44.601  11.270
24539W        W96068  10.203   4.452  10.877
24540W        W96069  38.772  38.835   2.295
24541W        W96070  26.081  12.754  12.377
24542W        W96071  25.766   3.006  13.020
24543W        W96072   2.364   9.370  10.537
24544W        W96073   6.704  20.451  13.924
24545W        W96074  28.772  37.128  12.580
24546W        W96075  41.811  39.416   1.180
24547W        W96076  20.072  34.350   3.734
24548W        W96077   5.522  27.897   1.442
24549W        W96078  16.034   2.753  12.020
24550W        W96079   7.128  42.427  12.376
24551W        W96080  38.948  40.613  13.996
24552W        W96081  38.378  33.039  10.769
24553W        W96082  31.892   6.129   4.326
24554W        W96083  24.524  11.390   1.257
24555W        W96084  29.926  17.648  13.105
24556W        W96085  19.049  17.096   2.426
24557W        W96086   6.954  37.564  11.187
24558W        W96087  29.986   5.227   4.954
24559W        W96088  20.087  33.526   5.076
24560W        W96089  43.732  25.665  13.442
24561W        W96090  43.002  37.647  10.685
24562W        W96091  42.598  13.251  13.472
24563W        W96092  34.534   2.785  14.450
24564W        W96093  19.585  40.493   3.139
24565W        W96094  28.055  19.178   3.851
24566W        W96095  12.845  28.918   4.403
24567W        W96096   9.319  17.577   2.418
24568W        W96097  33.429  42.688   1.989
24569W        W96098  29.326  36.643  13.929
24570W        W96099  38.864   1.289  14.306
24571W        W96100  29.071  27.704   0.961
24572W        W96101  23.589  16.707   4.208
24573W        W96102   9.271  37.833   4.913
24574W        W96103  22.721  16.715  14.616
24575W        W96104  38.337  38.503   1.636
24576W        W96105  24.073  26.762  11.204
24577W        W96106  31.344  44.163   4.937
24578W        W96107   2.536  10.289  12.905
24579W        W96108   8.175   1.876   2.665
24580W        W96109  33.571  23.357  13.447
24581W        W96110   5.030  33.942  13.821
24582W        W96111  42.737  17.432   0.189
24583W        W96112  10.287  29.203  10.262
24584W        W96113  24.162  29.759  11.435
24585W        W96114  25.757   0.319   1.319
24586W        W96115   3.796  18.060   1.692
24587W        W96116  40.849  15.364  14.611
24588W        W96117  37.941   0.254  13.525
24589W        W96118  43.298  37.483  12.410
24590W        W96119  35.320  17.627   0.731
24591W        W96120  21.750   4.155  12.167
24592W        W96121  32.270  20.131  12.114
24593W        W96122  36.453  40.854   0.794
24594W        W96123  18.350  40.368   5.085
24595W        W96124   6.684  11.865   4.441
24596W        W96125   8.461  29.026   0.292
24597W        W96126  41.904  10.690   2.569
24598W        W96127  31.017  43.893   3.811
24599W        W96128   4.363  14.440   2.222
24600W        W96129   5.708   0.295  14.153
24601W        W96130  15.862  37.481   1.245
24602W        W96131   2.988  18.147  10.556
24603W        W96132  41.053  28.455   3.253
24604W        W96133  40.382  21.511  14.819
24605W        W96134  32.129  26.254   3.231
24606W        W96135  25.896  28.906   1.663
24607W        W96136  26.607  19.739   0.503
24608W        W96137  33.131  26.975   1.110
24609W        W96138  19.755   0.724  10.337
24610W        W96139   6.332   2.406   4.768
24611W        W96140  11.264   7.460   4.566
24612W        W96141  24.144  40.443   4.129
24613W        W96142  26.365  10.285   3.324
24614W        W96143  15.666  44.014  10.330
24615W        W96144   6.126  44.251   1.837
24616W        W96145  38.032   7.683  11.577
24617W        W96146  20.542  40.399  12.359
24618W        W96147  19.652  42.310  14.325
24619W        W96148  25.519  22.306   0.326
24620W        W96149  32.478  33.187   3.731
24621W        W96150  32.014  37.466   0.074
24622W        W96151  26.493  35.332  13.839
24623W        W96152   4.586  31.511  12.156
24624W        W96153  11.147  41.761  12.452
24625W        W96154  21.253  11.399  10.271
24626W        W96155   8.806  39.184   5.045
24627W        W96156  38.534  35.463  11.455
24628W        W96157  26.096  19.328  11.107
24629W        W96158  36.889  21.061  11.587
24630W        W96159  23.305   0.881   1.567
24631W        W96160  35.085  39.774  13.464
24632W        W96161   8.490  34.350  12.360
24633W        W96162  29.547  24.349   4.231
24634W        W96163  20.671  24.170   3.317
24635W        W96164  25.801   3.528  12.937
24636W        W96165  39.890  26.580  10.626
24637W        W96166  37.982   1.261  14.488
24638W        W96167   5.273  33.068   0.398
24639W        W96168  28.074  38.975  13.435
24640W        W96169  35.483  13.742  14.009
24641W        W96170   2.649  12.081  12.567
24642W        W96171  18.685  12.205  12.432
24643W        W96172  19.278  23.176  13.360
24644W        W96173  35.839  32.096  12.348
24645W        W96174   9.595  41.813   3.110
24646W        W96175  25.970  23.637   0.422
24647W        W96176  22.032  11.740   3.146
24648W        W96177  28.687  19.502   4.129
24649W        W96178   8.231  28.019  10.690
24650W        W96179  13.702  18.462  12.575
24651W        W96180  28.070  37.969  13.297
24652W        W96181  12.297  35.898  12.009
24653W        W96182  15.225  12.918   0.354
24654W        W96183  21.147  13.693   4.533
24655W        W96184  36.817  43.864   1.275
24656W        W96185  35.459  27.637   1.497
24657W        W96186  26.599   5.208  13.421
24658W        W96187  15.434  17.673   1.638
24659W        W96188   8.146  36.306   4.184
24660W        W96189  28.693  36.387   3.297
24661W        W96190   5.201  41.023   0.493
24662W        W96191  43.369  23.090  14.477
24663W        W96192  28.373  17.598  14.169
24664W        W96193   8.623  34.428  13.439
24665W        W96194  29.226  13.192   2.007
24666W        W96195  25.645   5.404   4.962
24667W        W96196   1.167  14.589  14.248
24668W        W96197  24.305  37.727  13.895
24669W        W96198   1.743  22.031  10.661
24670W        W96199   0.990  17.398  14.601
24671W        W96200  17.199  28.526   4.064
24672W        W96201  37.061  29.871   3.637
24673W        W96202  26.028  21.717   3.820
24674W        W96203  25.802  20.341  11.153
24675W        W96204  28.653  30.401   4.678
24676W        W96205  35.323  14.895   4.098
24677W        W96206  41.851  43.907   5.029
24678W        W96207  44.118  13.079   3.984
24679W        W96208  27.098   9.669  14.928
24680W        W96209  36.102  17.640   1.401
24681W        W96210  28.121   7.298   4.782
24682W        W96211  37.474  43.771   4.101
24683W        W96212  43.240   3.777  12.859
24684W        W96213  28.618  36.449   0.205
24685W        W96214   1.158  14.743   2.553
24686W        W96215  28.601  34.104   2.729
24687W        W96216   4.967  37.402   0.973
24688W        W96217   5.748  33.073  12.603
24689W        W96218  36.316  32.470  13.131
24690W        W96219  21.698  33.164   4.231
24691W        W96220  17.441   1.746  10.918
24692W        W96221  19.021  32.433  13.539
24693W        W96222  36.440  18.283   1.350
24694W        W96223  41.843  40.382   2.733
24695W        W96224  28.398  13.859   2.666
24696W        W96225  27.664  24.523   3.878
24697W        W96226   1.470  29.922   2.784
24698W        W96227  11.771  12.239   3.375
24699W        W96228  35.943  39.894   2.797
24700W        W96229  35.548  29.722   2.514
24701W        W96230  14.749  39.055  11.591
24702W        W96231   3.720  27.757  11.155
24703W        W96232  39.330  31.856   3.142
24704W        W96233  44.844   8.857   4.652
24705W        W96234  44.753  35.762  12.919
24706W        W96235  24.682  17.255  13.374
24707W        W96236  43.354   7.690  13.771
24708W        W96237  15.242   9.713   3.339
24709W        W96238  23.506   4.940   2.329
24710W        W96239  13.794  39.919   3.235
24711W        W96240  42.444   5.882   2.866
24712W        W96241  43.489  35.084  12.354
24713W        W96242  26.566  36.410   0.242
24714W        W96243  28.564  16.170  13.161
24715W        W96244  18.355  37.331  11.546
24716W        W96245   4.460  15.652   4.136
24717W        W96246  40.211  31.157  10.716
24718W        W96247   4.240  35.378   3.338
24719W        W96248  34.502  22.655  12.856
24720W        W96249  36.072  35.577  13.994
24721W        W96250  30.065  43.403  13.710
24722W        W96251  25.432  22.540  14.841
24723W        W96252  28.576  22.838   4.525
24724W        W96253  12.781   3.977   4.130
24725W        W96254  36.807  40.509  14.780
24726W        W96255   4.819  40.443  11.226
24727W        W96256  30.514  39.946   2.967
24728W        W96257  34.801  37.578   3.433
24729W        W96258  30.953  19.216   0.068
24730W        W96259  28.622  30.506  12.631
24731W        W96260  39.967  24.050   3.862
24732W        W96261  42.910   3.332   3.197
24733W        W96262  17.133  24.731   0.725
24734W        W96263  12.763  17.072  11.185
24735W        W96264   4.992  25.520   1.588
24736W        W96265  32.780  29.468  12.410
24737W        W96266  15.570  37.646   0.833
24738W        W96267  29.104  36.371  13.530
24739W        W96268  27.701  10.106  14.465
24740W        W96269  20.533  24.469  12.838
24741W        W96270  40.354   2.215  11.231
24742W        W96271  11.796   4.333   2.417
24743W        W96272  14.128  27.516  13.713
24744W        W96273  14.641   1.000  13.730
24745W        W96274  25.871  14.201   1.858
24746W        W96275  19.795  42.610  13.020
24747W        W96276  44.099  34.391   5.049
24748W        W96277   3.844   5.769   3.521
24749W        W96278  15.826   9.346  10.341
24750W        W96279   1.152  11.308  11.754
24751W        W96280  38.552   1.868  10.523
24752W        W96281  14.109  32.805   4.880
24753W        W96282  36.648  25.434  13.697
24754W        W96283   5.836  35.100  10.637
24755W        W96284  10.168  19.246  12.429
24756W        W96285  42.571  19.775  11.458
24757W        W96286  43.774  25.698  14.401
24758W        W96287  35.063  29.000   1.517
24759W        W96288  30.381   1.271   4.788
24760W        W96289  41.503  25.243  13.535
24761W        W96290  32.023  21.824  12.430
24762W        W96291   1.509  41.534   1.854
24763W        W96292  15.634  44.492  12.534
24764W        W96293  27.038  39.843  11.599
24765W        W96294  40.455  41.740   2.818
24766W        W96295  14.132  21.619  13.451
24767W        W96296  43.443  24.960  10.785
24768W        W96297  39.168  19.882  12.415
24769W        W96298  28.258   9.701   2.756
24770W        W96299  44.328  20.518   4.507
24771W        W96300  32.908  29.582   2.650
24772W        W96301  40.618  27.028   2.274
24773W        W96302  41.555  35.403   4.845
24774W        W96303  35.176  29.620   0.352
24775W        W96304  31.585  28.440   4.188
24776W        W96305  14.130  20.031  10.680
24777W        W96306  43.274  12.259   3.806
24778W        W96307  38.462  12.126  14.144
24779W        W96308  41.317  29.550   2.766
24780W        W96309   2.219   3.981  13.054
24781W        W96310  21.927  22.043   1.863
24782W        W96311  30.285  43.361  11.293
24783W        W96312  25.852  30.442  10.214
24784W        W96313  32.257  31.492  10.438
24785W        W96314  39.838  43.523   4.306
24786W        W96315  44.496  32.300   4.014
24787W        W96316  11.387  12.209  12.401
24788W        W96317  26.370   1.735  13.874
24789W        W96318  32.431  21.576   4.731
24790W        W96319   3.909   6.929  14.461
24791W        W96320  22.003  29.433  14.262
24792W        W96321  40.388  31.957  11.098
24793W        W96322  30.118  11.563   4.053
24794W        W96323  14.564   5.267   1.773
24795W        W96324  31.944   4.330   2.200
24796W        W96325  40.307   0.931   1.964
24797W        W96326   2.607  40.826  13.363
24798W        W96327   1.538  37.531  11.239
24799W        W96328  19.627  10.679  12.544
24800W        W96329   5.397  21.023  13.399
24801W        W96330  10.155  31.718  14.509
24802W        W96331   8.426  18.729  12.722
24803W        W96332  25.827  10.378   3.462
24804W        W96333  18.597  38.927  12.204
24805W        W96334   8.422   4.934  13.009
24806W        W96335   1.817  38.051  10.977
24807W        W96336  24.929   5.261  10.582
24808W        W96337  30.517  32.661   1.774
24809W        W96338   4.901  37.494   2.325
24810W        W96339  39.619   0.519  13.923
24811W        W96340  21.462  12.127  13.620
24812W        W96341   6.968  20.785  11.107
24813W        W96342  22.812  27.181  11.445
24814W        W96343  21.218  37.921  11.122
24815W        W96344  38.857  22.081  13.025
24816W        W96345  42.913   5.860   1.103
24817W        W96346   8.699  26.204   4.177
24818W        W96347  33.105  41.959   1.198
24819W        W96348   8.220  41.311   2.223
24820W        W96349  34.890  10.910   3.287
24821W        W96350  23.237  23.421  10.715
24822W        W96351  26.896   9.224  13.029
24823W        W96352  16.871  23.980   2.335
24824W        W96353   0.932  25.087   1.673
24825W        W96354  21.298   3.837  14.146
24826W        W96355  33.198  35.919   4.126
24827W        W96356  28.672  28.812  13.367
24828W        W96357   8.650   6.338   0.044
24829W        W96358  23.646  34.652   1.882
24830W        W96359  44.763  12.150   1.897
24831W        W96360  41.472  41.238  12.816
24832W        W96361  10.532  24.425   0.528
24833W        W96362  22.688   1.756  14.759
24834W        W96363  25.209  43.842   2.193
24835W        W96364  44.913  44.454  14.203
24836W        W96365  34.002  12.684  12.625
24837W        W96366  12.133   7.939  11.906
24838W        W96367  32.307   7.102  13.859
24839W        W96368  13.793   6.876   0.445
24840W        W96369  18.183  42.289   3.640
24841W        W96370  18.327  28.652  11.016
24842W        W96371  37.839  21.751   2.408
24843W        W96372  17.440  20.292  14.451
24844W        W96373   8.315   5.033   3.777
24845W        W96374  32.137  27.347   3.675
24846W        W96375  39.410  18.477  11.648
24847W        W96376  28.234  37.448   4.966
24848W        W96377  19.104   9.891   3.147
24849W        W96378  26.116  29.630  11.923
24850W        W96379  33.443  17.883   1.444
24851W        W96380  29.813   3.167   1.225
24852W        W96381  37.991  35.929   2.632
24853W        W96382   7.873  12.659   4.563
24854W        W96383  26.475   5.394  10.097
24855W        W96384  13.846  44.093   4.134
24856W        W96385  10.805   4.666  13.482
24857W        W96386  42.038   4.891  10.313
24858W        W96387   6.704  20.685  13.348
24859W        W96388  24.970  11.759  13.469
24860W        W96389  11.602  43.800  11.230
24861W        W96390  40.538  16.799  14.045
24862W        W96391   4.843  22.969   4.467
24863W        W96392   9.302  22.233  12.484
24864W        W96393  18.645  34.900  12.870
24865W        W96394   7.650  39.273  12.948
24866W        W96395  26.037  14.281   0.803
24867W        W96396  26.240  16.913   1.698
24868W        W96397  15.294  12.409   0.331
24869W        W96398  17.692  41.395   2.663
24870W        W96399  32.029  33.945   3.977
24871W        W96400  13.632  37.327   3.492
24872W        W96401  36.005   6.872  11.991
24873W        W96402  29.285  35.025  14.993
24874W        W96403  35.984  38.759  11.065
24875W        W96404  11.463  18.560  10.580
24876W        W96405  41.917  43.692   3.820
24877W        W96406  14.882  29.707   0.735
24878W        W96407  37.505   5.309  10.593
24879W        W96408  42.296  20.124  11.187
24880W        W96409   9.120   6.448   1.759
24881W        W96410  25.738  44.468   0.593
24882W        W96411   4.342  16.790   1.403
24883W        W96412   2.218   2.823  11.827
24884W        W96413  41.426  43.933  13.314
24885W        W96414  27.265  18.969   2.902
24886W        W96415  36.787  38.149  12.794
24887W        W96416  25.273  26.661  14.831
24888W        W96417  16.670  30.194   1.148
24889W        W96418   9.237  26.339  13.506
24890W        W96419  26.714   1.870   3.621
24891W        W96420  43.469  44.962   4.130
24892W        W96421  26.996  26.191   3.700
24893W        W96422  19.203  28.684  13.379
24894W        W96423  14.808  18.721   3.913
24895W        W96424  12.814  38.092  12.686
24896W        W96425   3.776  29.539   4.761
24897W        W96426   9.672  29.988   2.422
24898W        W96427  42.982  17.105   3.228
24899W        W96428  18.979  44.001   4.581
24900W        W96429   7.038  36.874  11.633
24901W        W96430  11.999   0.310  14.037
24902W        W96431  10.751  10.156   1.435
24903W        W96432  14.997  27.952  10.757
24904W        W96433  40.926  33.935  12.623
24905W        W96434  28.319  43.587   1.271
24906W        W96435  32.644  21.938   1.378
24907W        W96436  39.451  27.387   0.317
24908W        W96437  35.996   6.373  10.638
24909W        W96438  28.934  21.667   3.867
24910W        W96439  10.293   3.090  10.107
24911W        W96440  42.763  39.543   4.652
24912W        W96441  32.418   2.852  11.381
24913W        W96442  11.334   9.318  11.625
24914W        W96443  40.082   6.693   2.709
24915W        W96444  24.191  27.591   3.731
24916W        W96445  27.023   5.161   2.581
24917W        W96446  34.661  23.405   3.452
24918W        W96447  32.983  34.236  13.988
24919W        W96448  36.596   2.481   1.497
24920W        W96449  11.573  17.624   4.523
24921W        W96450  20.356  26.001  13.363
24922W        W96451  18.661  18.713  13.992
24923W        W96452  27.451  11.103  10.720
24924W        W96453   5.970  29.882  11.552
24925W        W96454  14.556   5.411   3.614
24926W        W96455  35.311  18.246   5.057
24927W        W96456  31.927  41.805  14.263
24928W        W96457  23.024  10.853  11.257
24929W        W96458   4.122  11.683  10.780
24930W        W96459   8.520  44.074   2.914
24931W        W96460  43.901  14.365   4.365
24932W        W96461  41.842  36.395   1.246
24933W        W96462   7.276   4.018   0.393
24934W        W96463  41.983  33.014  14.944
24935W        W96464   1.758  29.423  13.209
24936W        W96465   4.774   5.955   2.154
24937W        W96466   3.601  20.562  11.073
24938W        W96467  11.495  36.853  11.195
24939W        W96468  14.222   0.784  13.924
24940W        W96469  15.887  43.031   1.896
24941W        W96470  17.099  44.852   3.201
24942W        W96471   3.502   5.958  14.974
24943W        W96472   1.832  26.965   3.625
24944W        W96473  12.107  42.896  13.714
24945W        W96474  33.779  23.103   3.203
24946W        W96475  18.807  36.140   3.298
24947W        W96476  30.695  42.241  10.612
24948W        W96477  11.156  16.218  10.640
24949W        W96478  10.378  32.146  10.326
24950W        W96479  35.581   6.597  12.033
24951W        W96480  41.859  11.926  11.740
24952W        W96481  24.060  23.607  12.247
24953W        W96482  14.123  38.126  12.064
24954W        W96483  28.065  34.159   3.158
24955W        W96484  42.075  25.181   4.199
24956W        W96485   9.916   3.805  13.060
24957W        W96486  36.900  43.626  10.591
24958W        W96487  27.424  14.283  14.885
24959W        W96488  20.514  43.069  10.652
24960W        W96489  16.323  43.360   2.785
24961W        W96490  38.450   7.437  10.615
24962W        W96491   6.511  20.844   0.247
24963W        W96492  19.281   0.425   2.627
24964W        W96493  43.003  28.222  14.822
24965W        W96494  26.489  40.856   1.571
24966W        W96495   4.725  41.532   2.283
24967W        W96496  10.354  36.727   0.710
24968W        W96497   0.161   5.098  13.899
24969W        W96498   4.895  20.665   0.955
24970W        W96499  28.715  36.348  11.264
24971W        W96500  41.822  43.260   3.567
24972W        W96501  38.568  44.287   1.914
24973W        W96502  41.537  25.082  12.009
24974W        W96503  37.431  30.552   4.122
24975W        W96504   5.386   0.644  11.586
24976W        W96505  22.483  35.409   1.311
24977W        W96506  21.694  39.617  11.969
24978W        W96507  33.867  23.571   3.922
24979W        W96508  19.057  21.940  13.040
24980W        W96509   7.855   8.881  10.342
24981W        W96510  26.736  12.165  13.527
24982W        W96511  30.535  40.368  13.921
24983W        W96512   4.096  17.032   0.969
24984W        W96513  26.101  44.761   4.322
24985W        W96514  12.859  18.180  14.591
24986W        W96515  26.274  38.528   1.453
24987W        W96516   6.191  20.746  14.785
24988W        W96517  13.821  44.736   4.897
24989W        W96518  37.328  15.590   2.357
24990W        W96519  21.062  30.492  14.782
24991W        W96520  37.500  37.257   2.540
24992W        W96521  24.846  41.547  14.013
24993W        W96522  38.558  13.447  13.862
24994W        W96523   5.037  12.537   3.659
24995W        W96524  43.734  21.607   2.462
24996W        W96525  29.644  35.295   5.663
24997W        W96526  13.294  40.238   3.829
24998W        W96527  21.025   2.418   2.844
24999W        W96528  35.092  25.163  10.150
25000W        W96529  30.912   5.601   3.566
25001W        W96530   0.184   3.227  14.841
25002W        W96531  33.735  33.459  14.484
25003W        W96532  20.117  25.556  13.352
25004W        W96533  40.674  11.136  10.771
25005W        W96534  14.641  39.820  13.338
25006W        W96535  37.894  36.718   3.694
25007W        W96536  42.595  25.285   1.717
25008W        W96537  14.678   5.401   4.503
25009W        W96538  40.858  23.311  14.447
25010W        W96539  24.270   1.303   3.721
25011W        W96540  44.849  36.602  10.178
25012W        W96541  42.436   7.588   0.352
25013W        W96542  12.817  32.523   0.946
25014W        W96543  25.306  43.172   5.107
25015W        W96544  43.155  14.511  11.168
25016W        W96545  39.462  25.608  13.572
25017W        W96546   8.029  35.033  13.506
25018W        W96547   6.288  30.419  11.182
25019W        W96548  43.688  35.865  14.965
25020W        W96549  19.067  27.998  12.878
25021W        W96550  25.266  29.511   0.490
25022W        W96551   6.794  33.175   4.607
25023W        W96552   2.538  42.257  11.656
25024W        W96553  38.562  31.331   3.159
25025W        W96554   7.605  12.694   3.573
25026W        W96555  42.314  26.893  14.529
25027W        W96556  41.444  29.907  14.241
25028W        W96557  21.929  40.606   1.028
25029W        W96558  29.140  43.358  13.800
25030W        W96559   1.248  29.747  14.424
25031W        W96560   4.445  42.356  10.597
25032W        W96561  16.705  42.808   3.579
25033W        W96562   7.247   9.334   4.711
25034W        W96563  12.181  22.569   1.803
25035W        W96564  14.618  25.458   2.475
25036W        W96565  30.082  32.171  14.309
25037W        W96566  43.724   3.672   4.091
25038W        W96567  15.008  40.969  14.931
25039W        W96568  38.070   6.203   2.279
25040W        W96569   9.752  20.042  14.216
25041W        W96570  20.331  17.020  14.573
25042W        W96571  21.280   3.409   1.187
25043W        W96572  19.216  11.709   0.232
25044W        W96573  18.739  39.894  13.788
25045W        W96574   6.320  38.646  10.905
25046W        W96575  19.664  26.268  13.873
25047W        W96576  18.522  32.110   1.838
25048W        W96577  17.084  22.514   0.210
25049W        W96578   8.265   2.306  10.855
25050W        W96579  18.168  22.089   1.250
25051W        W96580   8.372  12.841   3.685
25052W        W96581  22.873  43.967  11.248
25053W        W96582  16.156   7.050   1.692
25054W        W96583  32.095  14.788  13.116
25055W        W96584  30.242  40.133   3.858
25056W        W96585  29.770  31.320   4.785
25057W        W96586   6.402  17.642  12.952
25058W        W96587  21.502  21.076   2.762
25059W        W96588  21.924  21.616   3.878
25060W        W96589   3.715  39.484  12.210
25061W        W96590   3.250  29.138   0.413
25062W        W96591  15.057  10.577   4.895
25063W        W96592  41.499  26.911  14.501
25064W        W96593  33.574   1.458  12.487
25065W        W96594  26.985  19.295  13.413
25066W        W96595  27.626  42.864   0.597
25067W        W96596  40.144   2.801  11.979
25068W        W96597  26.943  12.677  12.838
25069W        W96598  33.651  43.335  11.661
25070W        W96599  35.157  16.134   0.866
25071W        W96600  35.130  25.773   3.660
25072W        W96601  38.556  38.366  13.770
25073W        W96602  17.168  15.530  13.423
25074W        W96603  16.163  23.586   3.119
25075W        W96604  29.650  13.068   0.596
25076W        W96605  44.438   6.803   1.137
25077W        W96606  20.658  34.871   2.623
25078W        W96607  25.507  24.489   1.315
25079W        W96608   1.818   3.496  12.119
25080W        W96609  20.197  25.469   0.389
25081W        W96610   2.877  22.483   2.256
25082W        W96611  10.353   8.325  10.761
25083W        W96612  13.985  43.169   1.055
25084W        W96613  35.532  29.380   3.351
25085W        W96614   5.826  39.576   0.438
25086W        W96615  30.372   9.915  11.194
25087W        W96616  40.502  17.668  14.997
25088W        W96617   3.901  12.078   1.751
25089W        W96618  37.043  17.149   1.794
25090W        W96619  34.604  27.489  12.731
25091W        W96620  32.849  34.867  12.966
25092W        W96621  37.272  44.975   0.564
25093W        W96622  39.087  33.244  12.336
25094W        W96623  33.528  33.421  13.092
25095W        W96624  12.850  38.562   3.649
25096W        W96625   5.668   7.770   1.488
25097W        W96626  22.257  27.101   1.664
25098W        W96627   5.853  29.628   0.844
25099W        W96628  36.846  40.008   3.159
25100W        W96629  43.040  35.176  11.599
25101W        W96630  17.311   9.741   0.904
25102W        W96631  30.861  20.498   4.563
25103W        W96632   8.899  25.051  12.438
25104W        W96633  40.481  43.038   2.662
25105W        W96634   8.228  24.500  13.794
25106W        W96635  12.892  30.588   4.846
25107W        W96636  26.127   4.680   3.344
25108W        W96637  20.232  33.844   3.700
25109W        W96638  25.115  10.215  14.882
25110W        W96639  12.749  43.973   2.624
25111W        W96640  13.239  42.109  12.450
25112W        W96641  24.619  19.785   0.097
25113W        W96642  10.988  20.983   2.249
25114W        W96643  24.429   0.082  11.045
25115W        W96644  17.129   3.754   2.563
25116W        W96645   6.756   1.277   0.819
25117W        W96646   7.905   4.640  14.846
25118W        W96647   0.401  26.438  10.771
25119W        W96648  12.677  26.793  12.518
25120W        W96649  36.289  21.948   4.188
25121W        W96650  31.520   2.485   3.201
25122W        W96651  13.465  21.158  12.228
25123W        W96652  10.665  10.200  12.119
25124W        W96653   1.932  30.274  13.946
25125W        W96654  33.568  35.630   1.230
25126W        W96655  35.814  35.848  10.684
25127W        W96656  43.473  32.664   1.706
25128W        W96657  16.213   2.487   0.033
25129W        W96658  25.030   9.928   3.315
25130W        W96659  35.366  24.523  12.155
25131W        W96660  39.347  29.414   4.000
25132W        W96661  38.214  19.551  12.466
25133W        W96662  17.169   1.674  12.184
25134W        W96663  16.770  44.694  12.388
25135W        W96664   3.682  38.764  11.567
25136W        W96665  22.756  28.207   1.707
25137W        W96666  10.089  31.428  10.689
25138W        W96667  10.908   0.297   2.905
25139W        W96668  37.011  21.531  14.271
25140W        W96669  10.338  36.046   1.604
25141W        W96670  19.334  32.421  14.401
25142W        W96671  42.551  34.372   2.828
25143W        W96672  31.579  31.118   0.324
25144W        W96673  21.416  23.643   0.266
25145W        W96674  10.668  41.662   0.735
25146W        W96675   3.502   2.881  13.998
25147W        W96676  31.811  42.907   4.615
25148W        W96677  42.044  12.139  12.865
25149W        W96678  31.070  24.157  12.326
25150W        W96679  39.099  32.146   1.219
25151W        W96680  37.361  42.279   2.187
25152W        W96681  28.513  38.381   2.926
25153W        W96682  37.482  32.832   1.839
25154W        W96683  12.661   1.582   3.218
25155W        W96684  29.270  12.312   1.284
25156W        W96685   2.439   2.852  14.851
25157W        W96686  30.463  27.854  12.887
25158W        W96687   3.724  30.494   3.247
25159W        W96688  24.274  21.114   2.169
25160W        W96689  36.722  34.616   2.757
25161W        W96690  13.749  36.045  14.387
25162W        W96691  44.308  16.619   4.785
25163W        W96692  41.707  14.784   3.370
25164W        W96693  30.752   7.071   0.501
25165W        W96694  25.193  23.758   1.408
25166W        W96695  30.965  22.614  13.662
25167W        W96696   6.138   1.710   1.877
25168W        W96697  43.253  17.271  14.263
25169W        W96698  23.840  33.677   2.334
25170W        W96699  42.014  40.758  12.080
25171W        W96700  29.999   7.707  13.510
25172W        W96701  33.581  31.117   1.606
25173W        W96702  14.614  19.531  13.057
25174W        W96703  35.166   8.297   2.838
25175W        W96704  29.637  44.955  14.008
25176W        W96705  18.109  34.332  13.522
25177W        W96706  37.711  23.275  12.442
25178W        W96707   7.080  22.477   1.700
25179W        W96708  38.184   3.726  14.271
25180W        W96709   6.775  22.467   4.051
25181W        W96710  20.693  36.330  12.896
25182W        W96711   4.986  22.978   0.723
25183W        W96712  39.400   9.356  12.450
25184W        W96713  31.846   2.987   1.217
25185W        W96714   6.193  30.781  13.313
25186W        W96715  15.681   7.172   0.555
25187W        W96716  27.561  44.875   3.858
25188W        W96717  30.442  17.263   1.220
25189W        W96718  39.344  16.281   4.091
25190W        W96719  16.739   9.126  12.607
25191W        W96720   7.414  34.117   0.706
25192W        W96721  43.632  23.581   0.490
25193W        W96722  23.130   4.374   1.733
25194W        W96723  42.864  23.175  10.651
25195W        W96724   6.590  28.465   1.484
25196W        W96725  18.111  14.175  12.908
25197W        W96726   5.916  13.708  13.827
25198W        W96727  25.949  22.958  14.387
25199W        W96728   4.234  36.941  11.708
25200W        W96729  38.465  23.826   1.843
25201W        W96730  36.308  44.976   1.185
25202W        W96731  15.622  27.148  10.602
25203W        W96732  36.929  10.102  13.798
25204W        W96733  42.452  31.885  14.813
25205W        W96734  41.425  28.331   1.831
25206W        W96735  26.023  29.603  11.396
25207W        W96736  22.669  32.186  12.988
25208W        W96737  25.705  14.704  13.387
25209W        W96738   0.780  43.750  10.506
25210W        W96739  27.506  44.722   1.008
25211W        W96740  18.119  34.053   0.334
25212W        W96741  39.108   7.929   2.900
25213W        W96742  42.707  13.721  11.749
25214W        W96743   0.084  29.616   1.839
25215W        W96744  18.725  41.656  11.493
25216W        W96745  31.569  30.431  14.479
25217W        W96746  42.254  39.794  13.879
25218W        W96747  25.061  30.834  10.737
25219W        W96748   1.712  37.689   0.740
25220W        W96749  17.609  17.076   4.331
25221W        W96750  41.335   5.148  11.020
25222W        W96751  14.710  29.889   2.889
25223W        W96752  33.412  38.633  11.793
25224W        W96753   0.020  16.377  12.005
25225W        W96754  11.941  41.527  14.059
25226W        W96755  10.787  35.535  11.747
25227W        W96756  18.172  39.522   1.932
25228W        W96757  44.550  28.923   3.771
25229W        W96758  40.780  19.210   3.227
25230W        W96759  33.371  35.544   0.755
25231W        W96760   9.319  20.160  12.015
25232W        W96761  43.021  33.955   1.736
25233W        W96762  18.664  35.419   0.556
25234W        W96763  41.308   7.832   2.170
25235W        W96764  39.981  23.161   1.343
25236W        W96765  34.144  40.846   3.631
25237W        W96766   3.520  32.415   2.271
25238W        W96767   3.023  17.563   0.340
25239W        W96768  28.924  20.608   1.541
25240W        W96769  22.119  17.487  13.764
25241W        W96770  21.424  15.342   0.985
25242W        W96771   7.436  33.583   1.300
25243W        W96772   0.667  22.741  12.892
25244W        W96773  15.359   9.076  14.046
25245W        W96774  33.398  18.554   4.121
25246W        W96775  31.720  28.437   0.460
25247W        W96776  14.354  20.737   3.586
25248W        W96777  20.580   7.785   2.853
25249W        W96778  33.961  32.577  11.332
25250W        W96779  12.373  38.525   2.746
25251W        W96780   0.364  31.870  10.754
25252W        W96781  39.504   9.798   0.853
25253W        W96782  24.210  37.702  11.245
25254W        W96783  14.761  20.704  12.161
25255W        W96784   7.096  22.988   1.567
25256W        W96785  23.613   5.237   4.279
25257W        W96786  33.070  13.061   3.704
25258W        W96787  17.819  14.009   0.732
25259W        W96788   1.276  44.453  13.591
25260W        W96789   4.161  19.327   0.769
25261W        W96790  17.013  12.227   1.724
25262W        W96791  39.006  26.528   2.490
25263W        W96792  26.937  13.676   2.840
25264W        W96793  44.791   1.506  12.561
25265W        W96794  36.196  22.089   1.907
25266W        W96795  16.729  13.283  14.725
25267W        W96796  10.915  44.987  11.642
25268W        W96797  29.562   9.587  13.018
25269W        W96798  22.314  39.219   3.402
25270W        W96799  19.564  36.297  12.441
25271W        W96800  43.394  40.772   3.847
25272W        W96801   5.509   3.764  13.850
25273W        W96802   3.980  17.243   4.721
25274W        W96803  36.795  11.543   4.480
25275W        W96804  12.364  25.029   0.799
25276W        W96805   2.579   2.694  13.992
25277W        W96806  42.253  32.099   1.393
25278W        W96807  19.223  37.568   1.749
25279W        W96808  28.470   9.266  10.614
25280W        W96809  25.976  36.254   3.581
25281W        W96810  43.353  40.548   2.482
25282W        W96811   2.167  29.546  12.539
25283W        W96812  31.869  32.979   1.922
25284W        W96813  40.875  17.185  14.842
25285W        W96814  12.143  27.710  12.626
25286W        W96815  41.609   3.489  12.638
25287W        W96816  43.935  39.962  11.914
25288W        W96817  21.708   0.744   2.486
25289W        W96818  44.326   6.664   0.227
25290W        W96819   4.697  15.664  12.455
25291W        W96820  16.618  29.459   0.409
25292W        W96821  33.071  41.520   2.165
25293W        W96822  11.960  11.135  14.857
25294W        W96823  10.615  42.199  12.816
25295W        W96824  42.861  34.673  11.657
25296W        W96825   0.873  14.769   3.832
25297W        W96826  17.676  38.892  11.803
25298W        W96827  20.726   7.773  13.812
25299W        W96828  35.402  41.318  11.667
25300W        W96829  31.327  28.519  14.516
25301W        W96830  19.493   1.812   4.163
25302W        W96831   0.146  22.695  13.076
25303W        W96832  13.638  19.205  10.743
25304W        W96833  38.822   2.874  13.417
25305W        W96834  33.886   6.948   3.833
25306W        W96835  26.164   2.866  13.388
25307W        W96836   6.682   6.820  13.013
25308W        W96837   1.038  12.607  12.006
25309W        W96838   9.387  11.035   1.223
25310W        W96839   0.885  33.340  11.937
25311W        W96840  31.281   2.950   0.865
25312W        W96841  27.071   0.007   3.645
25313W        W96842  38.623  41.456   1.048
25314W        W96843  15.756   4.145   3.160
25315W        W96844  19.738  41.457   3.346
25316W        W96845  28.103  28.012  10.243
25317W        W96846  13.248   1.859   2.805
25318W        W96847  15.966  39.548  13.810
25319W        W96848  12.644   6.506  11.110
25320W        W96849  25.906  40.952   4.034
25321W        W96850  22.493  12.966   3.291
25322W        W96851  25.246  12.639  14.492
25323W        W96852  36.942  11.142   2.316
25324W        W96853  34.495  18.666   2.384
25325W        W96854  28.976  30.759  13.355
25326W        W96855  15.228  13.351  14.312
25327W        W96856  13.834  23.117  13.095
25328W        W96857   0.320  26.181  12.888
25329W        W96858  11.221  18.009   1.712
25330W        W96859  14.770  11.342   0.860
25331W        W96860   4.234  21.096  13.954
25332W        W96861  38.968  38.913  11.676
25333W        W96862  20.618   5.914   4.198
25334W        W96863  28.081  27.895  14.886
25335W        W96864  17.857  30.867   0.651
25336W        W96865  15.775   3.828   3.576
25337W        W96866  36.822   7.373  11.409
25338W        W96867  32.164  13.207  14.083
25339W        W96868   3.036  31.369   4.667
25340W        W96869  21.105  39.393   4.086
25341W        W96870   9.316   5.801   2.082
25342W        W96871  20.008  33.029  12.066
25343W        W96872  41.967  35.206   2.316
25344W        W96873  43.450  14.290  13.264
25345W        W96874  23.613  36.250  12.652
25346W        W96875  39.067   1.136  13.857
25347W        W96876   4.878   9.784  11.192
25348W        W96877   4.714   3.163  13.407
25349W        W96878  28.723  14.069   2.285
25350W        W96879  14.188  10.646   0.948
25351W        W96880  34.918  25.449  14.547
25352W        W96881  15.933  13.379   3.240
25353W        W96882  18.479  34.824  14.775
25354W        W96883  43.360  35.123   4.224
25355W        W96884  23.908  19.766  13.055
25356W        W96885  24.594   0.946  10.643
25357W        W96886  38.058   4.422   1.974
25358W        W96887   1.328  33.156   0.304
25359W        W96888  25.588  31.367   1.246
25360W        W96889  29.434  37.853  13.593
25361W        W96890  26.781  30.168   0.407
25362W        W96891  21.245  14.758  11.151
25363W        W96892  44.939  24.738   2.665
25364W        W96893   9.918   9.185   0.936
25365W        W96894  11.888  14.642  14.937
25366W        W96895  19.263  24.537  13.803
25367W        W96896  23.617  32.022   4.259
25368W        W96897  44.896   1.429   2.092
25369W        W96898  32.965  19.565   1.354
25370W        W96899  13.668  20.180  10.922
25371W        W96900  18.030   1.629   1.908
25372W        W96901  42.005  27.572   3.301
25373W        W96902  23.592  11.181   4.652
25374W        W96903  41.785  43.987  10.423
25375W        W96904  31.002  41.062  13.785
25376W        W96905  29.685  16.236  14.522
25377W        W96906  13.332  11.214  14.519
25378W        W96907  43.346  39.247  12.509
25379W        W96908  16.934   5.999  11.904
25380W        W96909  10.824  13.097   1.192
25381W        W96910  31.906  31.388  10.793
25382W        W96911  39.373  43.961  14.329
25383W        W96912  32.643   4.563  13.294
25384W        W96913  15.264   0.819   2.375
25385W        W96914   2.941   1.481  11.286
25386W        W96915  25.030   2.245  10.824
25387W        W96916   7.235  26.706   0.339
25388W        W96917  20.845  44.099   3.467
25389W        W96918  23.048  14.827  12.460
25390W        W96919  25.987  43.629  12.878
25391W        W96920  34.774  34.609  12.464
25392W        W96921  11.326  16.646  13.787
25393W        W96922  31.522   6.151   0.004
25394W        W96923   6.132  10.667   4.335
25395W        W96924  13.197  42.417   0.900
25396W        W96925  16.041  21.040  11.044
25397W        W96926  41.543  22.605  14.428
25398W        W96927  11.883  39.649  13.947
25399W        W96928  23.810  16.875   2.862
25400W        W96929  32.633  34.597  14.706
25401W        W96930  21.663  23.647   0.722
25402W        W96931  30.760  28.214   3.225
25403W        W96932  16.283   7.383   2.252
25404W        W96933   2.047  44.506  14.354
25405W        W96934  22.202  41.438   3.380
25406W        W96935  41.853  20.480  12.322
25407W        W96936   0.340   3.259  11.566
25408W        W96937  13.835  31.124  13.301
25409W        W96938  31.318  37.262  14.563
25410W        W96939   7.200  43.742  13.581
25411W        W96940  14.919   8.497   0.943
25412W        W96941  27.131  15.633   1.807
25413W        W96942  31.530  30.960  14.458
25414W        W96943  35.015   6.470   5.093
25415W        W96944  29.189  36.481  12.182
25416W        W96945  13.632  16.772  11.159
25417W        W96946  30.552  11.591  10.363
25418W        W96947   3.193  25.610   4.160
25419W        W96948  31.841   7.263   1.193
25420W        W96949  25.702   5.638  10.306
25421W        W96950  34.398  18.539  10.751
25422W        W96951  42.889   5.497  12.997
25423W        W96952  39.449  35.339  11.094
25424W        W96953  40.709   7.672  11.152
25425W        W96954  21.813  12.287  11.560
25426W        W96955  14.695  18.180   3.162
25427W        W96956  23.982  29.457   0.517
25428W        W96957  38.830  10.222  13.506
25429W        W96958  20.259  10.121   1.611
25430W        W96959  35.692  15.302   1.876
25431W        W96960   4.652  37.497   3.192
25432W        W96961  11.263  40.749   4.027
25433W        W96962  17.853  10.848   0.929
25434W        W96963  42.328  18.946   0.741
25435W        W96964  11.314   9.057  13.424
25436W        W96965  40.026  22.102   3.947
25437W        W96966  14.269  32.330  13.269
25438W        W96967  12.692  11.107  13.886
25439W        W96968  37.299   7.216   1.517
25440W        W96969  37.838  35.682   3.642
25441W        W96970   9.755   2.385  13.952
25442W        W96971  12.377  16.560  12.482
25443W        W96972   8.124   3.666  11.996
25444W        W96973  13.717  13.883  11.997
25445W        W96974  14.041  11.695   1.306
25446W        W96975   1.452  28.547  10.539
25447W        W96976  43.854  39.028  13.927
25448W        W96977  13.561  37.915   4.761
25449W        W96978  27.575  32.760  10.257
25450W        W96979   4.787  38.574  13.921
25451W        W96980  18.331  40.451  14.863
25452W        W96981  24.774  29.479  10.664
25453W        W96982  15.273  41.402   0.563
25454W        W96983  32.251   4.200  12.024
25455W        W96984   0.908  24.144  10.723
25456W        W96985  16.282  35.100  11.147
25457W        W96986   3.309   8.259   1.258
25458W        W96987  12.278   2.530  14.361
25459W        W96988  15.272  37.097   1.911
25460W        W96989  17.916  30.848   5.039
25461W        W96990   0.439   8.703   1.439
25462W        W96991  26.457  17.442   1.449
25463W        W96992  20.316  22.390  11.125
25464W        W96993   7.083  26.018   0.742
25465W        W96994  10.731  22.055  14.065
25466W        W96995  31.685  41.075  13.283
25467W        W96996   7.903  22.050   3.248
25468W        W96997  44.879  31.043  12.489
25469W        W96998  29.086  39.080  14.697
25470W        W96999  43.279  10.459  11.635
25471W        W97000  19.295  21.070  10.557
25472W        W97001  25.713  39.282   3.665
25473W        W97002   2.080  33.035   1.810
25474W        W97003  36.075   0.509  12.846
25475W        W97004   3.313  24.077   4.970
25476W        W97005  17.957  14.672  12.200
25477W        W97006  12.319  41.382  12.862
25478W        W97007  33.521   6.194   1.886
25479W        W97008  37.009  25.956  14.526
25480W        W97009  40.399  23.543  10.944
25481W        W97010  41.823   1.575   0.832
25482W        W97011   9.709   4.997  11.574
25483W        W97012  23.654  10.260  10.964
25484W        W97013  25.423  15.682  14.538
25485W        W97014  31.708  37.993  13.938
25486W        W97015  29.832  10.674  12.805
25487W        W97016   0.453  15.543   3.594
25488W        W97017  11.970  43.977  13.396
25489W        W97018   8.864  36.597  14.924
25490W        W97019  33.330  38.562  11.282
25491W        W97020  25.730   4.949  13.133
25492W        W97021  30.592   2.883   2.214
25493W        W97022  18.987  17.322  12.354
25494W        W97023  16.465   5.363   0.286
25495W        W97024  31.877  43.250   2.234
25496W        W97025  13.287   4.904  10.065
25497W        W97026  23.151   7.991  14.357
25498W        W97027   2.654  44.400   0.419
25499W        W97028  25.432  31.580   4.412
25500W        W97029   8.949  19.635   3.697
25501W        W97030   7.908   9.442   4.178
25502W        W97031  44.008  38.927   2.158
25503W        W97032  42.265  35.258  12.061
25504W        W97033  35.021  19.180   1.278
25505W        W97034  37.621  39.796  11.143
25506W        W97035  44.410  29.420   3.741
25507W        W97036  23.236   7.742  11.388
25508W        W97037   4.704  23.696   2.542
25509W        W97038  29.902  33.599  13.486
25510W        W97039  12.784  38.967  13.238
25511W        W97040   6.028  35.311  12.350
25512W        W97041  24.639   4.249   2.738
25513W        W97042  17.454   6.610  13.380
25514W        W97043   6.623  44.728   0.039
25515W        W97044  21.003   3.835  14.580
25516W        W97045  22.627   8.782  14.993
25517W        W97046  32.380   9.780  14.950
25518W        W97047   2.650  36.054   0.286
25519W        W97048  12.813  16.783  10.758
25520W        W97049  10.238  16.036  10.708
25521W        W97050  39.266  39.105  14.472
25522W        W97051  26.498  20.678   3.422
25523W        W97052   0.535  27.077  12.091
25524W        W97053  24.977  30.135   3.658
25525W        W97054  28.696  42.673  13.271
25526W        W97055   0.984   1.377   0.846
25527W        W97056  40.047  41.137   2.209
25528W        W97057  12.240  34.351   1.438
25529W        W97058  17.734   1.826  14.358
25530W        W97059  24.549  35.372   3.236
25531W        W97060   2.755  24.717   4.639
25532W        W97061  42.531   5.164   0.903
25533W        W97062  44.644  29.964  13.016
25534W        W97063   5.742  37.396  12.142
25535W        W97064  27.629   0.384   3.857
25536W        W97065   7.188  37.991   2.865
25537W        W97066  39.279  35.919   3.216
25538W        W97067  15.638  24.047   5.046
25539W        W97068  26.262  11.394  13.647
25540W        W97069  28.719  31.061  10.400
25541W        W97070  23.040   7.469   0.806
25542W        W97071  38.479  39.338   3.165
25543W        W97072  12.725  12.895  12.816
25544W        W97073  16.893  42.279   2.290
25545W        W97074  19.853  36.230  13.290
25546W        W97075  37.082  25.413  13.969
25547W        W97076  36.506  41.753  14.519
25548W        W97077  34.399  21.087  14.156
25549W        W97078  35.442  27.781  12.921
25550W        W97079   7.030  23.786  13.466
25551W        W97080  34.452   8.268  11.315
25552W        W97081  31.673  33.948  13.787
25553W        W97082  42.012   0.949   2.402
25554W        W97083  13.186   2.019  14.441
25555W        W97084  17.542   9.612   0.188
25556W        W97085  32.395  19.762  13.624
25557W        W97086  27.908  41.529  13.584
25558W        W97087  34.067   8.196  14.083
25559W        W97088  13.768   0.507   3.764
25560W        W97089   4.845   9.663  10.701
25561W        W97090   9.905  41.066   1.135
25562W        W97091  39.157  41.056   3.631
25563W        W97092   3.797  30.341  12.926
25564W        W97093  12.623   3.726  13.003
25565W        W97094  38.454   8.008  14.291
25566W        W97095   9.080   1.609   4.208
25567W        W97096  21.582  18.664  14.596
25568W        W97097  10.444  42.971  10.109
25569W        W97098  34.308  31.604   2.636
25570W        W97099  42.494  11.250   2.193
25571W        W97100  32.253  29.251  12.485
25572W        W97101  38.603  39.339  11.639
25573W        W97102  33.063   7.751   3.241
25574W        W97103   4.810   8.177  14.247
25575W        W97104  43.161  27.225   1.404
25576W        W97105  12.511  28.873   1.045
25577W        W97106  29.993  29.577  10.661
25578W        W97107   9.806  22.115  12.489
25579W        W97108  25.227  31.594  11.178
25580W        W97109  39.598   9.304   4.138
25581W        W97110  15.755  19.805   0.939
25582W        W97111  28.123  28.171  13.015
25583W        W97112  13.662  36.824   0.972
25584W        W97113  40.838  41.791  12.424
25585W        W97114  36.534  13.133  11.402
25586W        W97115   2.388  16.819  14.986
25587W        W97116  32.012   6.954   2.765
25588W        W97117  24.986  16.575   4.478
25589W        W97118  15.325   8.262  14.519
25590W        W97119  19.094   9.014  12.798
25591W        W97120  30.504   5.461  14.227
25592W        W97121  27.534  44.934  13.088
25593W        W97122   1.842   9.371  10.688
25594W        W97123  44.764  23.059  13.067
25595W        W97124  24.899  30.665  14.213
25596W        W97125  32.523  28.442  13.320
25597W        W97126  42.771  42.402   0.388
25598W        W97127  15.912  38.625  12.022
25599W        W97128  39.288   8.042   0.279
25600W        W97129  12.077  29.401  10.763
25601W        W97130  43.009  44.728  13.080
25602W        W97131  42.717  30.626   2.316
25603W        W97132  44.797  40.136   4.812
25604W        W97133  44.925  15.545   1.459
25605W        W97134  41.241  44.009  11.809
25606W        W97135  34.972  18.546   2.767
25607W        W97136   8.688  22.527   3.220
25608W        W97137   1.789  22.974  10.444
25609W        W97138   7.320   8.980  13.533
25610W        W97139  41.066   1.922  14.263
25611W        W97140  38.151  37.458  11.012
25612W        W97141  37.597  16.899  10.940
25613W        W97142  11.387  10.715  11.309
25614W        W97143  36.435   8.192   1.385
25615W        W97144  17.339  20.113   1.360
25616W        W97145  16.256  26.567  12.094
25617W        W97146   4.921   8.060   1.219
25618W        W97147  27.502  34.246   1.746
25619W        W97148   8.672  14.192   0.106
25620W        W97149  21.318   2.214   4.973
25621W        W97150  11.571  15.516  11.154
25622W        W97151  43.045  29.022  11.531
25623W        W97152  17.193  31.785  12.195
25624W        W97153  30.501  25.027   3.402
25625W        W97154  37.610  43.519   5.017
25626W        W97155  25.344  18.044   0.811
25627W        W97156   4.157  29.050  14.449
25628W        W97157  34.106  15.235  12.463
25629W        W97158  39.270  39.800   1.421
25630W        W97159   0.550   8.470  11.205
25631W        W97160  14.284  17.724   2.714
25632W        W97161  24.900  11.384   3.198
25633W        W97162  38.345  17.466   1.881
25634W        W97163  29.384   0.524   4.846
25635W        W97164  27.973  30.014  13.638
25636W        W97165  21.471  24.544   0.772
25637W        W97166   4.597   7.957   3.787
25638W        W97167   7.782  27.135  14.829
25639W        W97168  37.081  32.397  12.418
25640W        W97169   4.257  39.909  14.043
25641W        W97170   2.098  43.576   0.392
25642W        W97171  27.907  31.717   5.008
25643W        W97172  41.335  41.261   2.823
25644W        W97173  36.717  27.208   2.226
25645W        W97174   4.522   3.756  10.210
25646W        W97175  39.039  36.291   2.420
25647W        W97176   8.842  23.254   4.563
25648W        W97177  22.010  35.986  11.541
25649W        W97178  44.838  40.652  13.971
25650W        W97179  39.950   6.423  14.808
25651W        W97180  18.136   4.516  12.520
25652W        W97181  40.528  42.648   4.230
25653W        W97182  30.089  44.214  13.307
25654W        W97183   4.278  17.316  10.699
25655W        W97184   9.964  30.451  11.269
25656W        W97185  21.389  31.311   4.636
25657W        W97186  38.408  14.602   2.483
25658W        W97187  22.045   8.207  10.912
25659W        W97188   7.492  33.490   0.296
25660W        W97189  43.757  33.046  10.803
25661W        W97190   2.127  24.472   1.889
25662W        W97191  26.365   8.564  11.704
25663W        W97192  29.744  19.770  12.557
25664W        W97193  24.266  15.040  14.563
25665W        W97194  17.282  14.172  12.177
25666W        W97195  14.773  34.032   2.291
25667W        W97196   8.939  33.405  11.965
25668W        W97197  10.161   3.969   2.221
25669W        W97198  22.692  30.011  13.418
25670W        W97199  38.796  27.603  11.595
25671W        W97200  20.519  35.347  10.972
25672W        W97201  25.545   0.331  12.533
25673W        W97202  27.938   0.568   4.624
25674W        W97203  23.173  23.955  10.895
25675W        W97204   3.449   0.900   0.237
25676W        W97205  10.423  18.256  14.736
25677W        W97206  18.215   2.248  11.320
25678W        W97207  28.482  42.201  13.414
25679W        W97208  41.743  20.534   2.254
25680W        W97209   2.952  37.497  10.928
25681W        W97210   6.654  39.815   0.734
25682W        W97211  22.775  33.615  13.788
25683W        W97212  42.952  39.082   3.765
25684W        W97213  19.783  11.698  13.450
25685W        W97214  31.417  15.574   2.174
25686W        W97215  29.390  39.447  11.578
25687W        W97216  39.478  44.708   0.008
25688W        W97217  34.908  21.557  14.366
25689W        W97218  32.403  26.078  14.874
25690W        W97219   3.662  35.046  13.843
25691W        W97220  28.318  17.872   9.704
25692W        W97221  16.116  20.603   3.088
25693W        W97222  25.573   2.211   2.830
25694W        W97223  12.222  35.692  13.472
25695W        W97224  42.507  22.235  10.712
25696W        W97225  35.550  12.824  12.919
25697W        W97226   9.094  43.867   3.578
25698W        W97227  32.880  43.398  12.087
25699W        W97228  10.213  17.092  12.802
25700W        W97229  25.322   3.268   3.231
25701W        W97230  28.734  39.519   2.731
25702W        W97231   9.234  37.391  14.070
25703W        W97232  28.386  39.111  13.813
25704W        W97233  25.456  41.129  12.030
25705W        W97234  42.510  44.947   0.371
25706W        W97235  23.786   9.013   0.825
25707W        W97236  31.570  38.462  10.916
25708W        W97237  29.679  37.624  13.978
25709W        W97238  10.346  16.730   3.960
25710W        W97239  40.422   8.403   0.665
25711W        W97240  12.035  28.105   0.572
25712W        W97241  35.925  22.452   3.653
25713W        W97242  24.105  41.445  10.449
25714W        W97243   6.762  43.744   3.743
25715W        W97244   9.816  24.583  13.881
25716W        W97245   4.336  35.130   2.878
25717W        W97246   7.720   9.372  12.452
25718W        W97247  19.380   6.808   0.474
25719W        W97248   3.221  16.355  11.150
25720W        W97249  34.643  31.541  12.490
25721W        W97250   3.313  11.040  11.763
25722W        W97251  12.667  25.709   0.455
25723W        W97252   5.728  19.799   1.256
25724W        W97253  36.190  36.848  11.172
25725W        W97254  32.049  28.995  10.285
25726W        W97255  41.070  32.574   1.336
25727W        W97256  15.608  41.547  12.552
25728W        W97257   2.185  20.674   1.843
25729W        W97258  33.890  16.645  11.939
25730W        W97259  10.651   5.754   3.701
25731W        W97260  37.940  19.590   2.450
25732W        W97261  44.531   1.437  14.366
25733W        W97262   3.916  12.125  13.664
25734W        W97263  44.587  11.617   0.365
25735W        W97264   0.132  17.876  13.995
25736W        W97265  23.492  13.426   0.264
25737W        W97266  20.412   5.498   3.110
25738W        W97267  29.173  14.610  11.680
25739W        W97268  37.785  13.287   2.351
25740W        W97269   7.623   4.852   4.493
25741W        W97270  26.455  35.836  13.804
25742W        W97271  22.011  22.544   3.283
25743W        W97272  12.620  41.215   2.449
25744W        W97273  39.810  43.301   0.503
25745W        W97274   8.292   5.532  11.845
25746W        W97275  12.262  31.748  14.422
25747W        W97276  12.364  38.871   1.898
25748W        W97277   6.785  18.464   0.012
25749W        W97278   7.402  33.697  14.746
25750W        W97279  27.264  18.959  13.042
25751W        W97280  23.165  31.667   2.197
25752W        W97281   1.045  33.448   3.245
25753W        W97282   3.652  43.791   3.800
25754W        W97283   2.853  26.475  11.434
25755W        W97284  20.886  31.958   4.675
25756W        W97285   0.513  19.203   1.464
25757W        W97286   8.099  32.106  10.734
25758W        W97287   0.989  37.818  10.497
25759W        W97288   4.330  38.767   3.269
25760W        W97289   8.202   1.118   0.793
25761W        W97290  18.796  33.422   4.330
25762W        W97291   7.155   9.778  12.671
25763W        W97292  44.907  28.852   0.643
25764W        W97293  17.377  23.947   2.458
25765W        W97294  17.698  12.694  13.786
25766W        W97295  14.753   0.482   3.569
25767W        W97296  10.350  36.113  11.050
25768W        W97297  15.765  11.302  10.174
25769W        W97298  27.664  11.410  12.648
25770W        W97299  12.301  27.710  11.200
25771W        W97300  39.006  12.767   4.328
25772W        W97301  30.169  14.133   2.171
25773W        W97302  16.854  12.803  14.049
25774W        W97303   7.817  44.875   2.157
25775W        W97304  25.684  10.641  14.360
25776W        W97305  16.034  28.492  13.515
25777W        W97306  37.010  27.700   0.413
25778W        W97307  19.760  14.306  11.720
25779W        W97308  40.551   7.004   1.155
25780W        W97309  26.230  17.135   4.378
25781W        W97310  20.034   6.853   1.689
25782W        W97311  42.261  29.627  14.032
25783W        W97312  30.368   7.790  11.535
25784W        W97313  39.319  34.884  10.889
25785W        W97314  35.324  26.501  11.476
25786W        W97315   7.092  28.224  11.170
25787W        W97316  15.382  10.818  10.741
25788W        W97317  11.358  29.868  14.364
25789W        W97318  44.168  24.545  12.344
25790W        W97319  14.833  41.900   4.859
25791W        W97320   1.475  26.534   2.855
25792W        W97321  28.873  30.271   4.132
25793W        W97322  26.234  41.012   3.110
25794W        W97323  24.705  27.580  14.310
25795W        W97324   5.470  35.524   1.963
25796W        W97325  13.188  35.141   0.265
25797W        W97326  38.798  34.306   2.638
25798W        W97327  43.648  36.495   3.828
25799W        W97328  41.251   1.016   1.872
25800W        W97329  40.928  20.254   1.715
25801W        W97330  19.492  23.193   4.266
25802W        W97331  43.608  13.145   4.765
25803W        W97332  24.557  15.191  10.457
25804W        W97333  41.584  34.538  10.688
25805W        W97334  22.597   8.842   3.903
25806W        W97335  26.597   7.350  11.411
25807W        W97336  17.546  12.854   1.305
25808W        W97337   1.345  28.450   1.237
25809W        W97338  21.260  33.730   0.065
25810W        W97339  33.780  15.945  13.112
25811W        W97340  15.702  24.675   4.377
25812W        W97341   3.491  19.257   2.732
25813W        W97342  26.757  12.629   2.310
25814W        W97343  39.340   1.874   2.573
25815W        W97344  32.355  20.248   1.340
25816W        W97345  35.795  38.989  14.782
25817W        W97346  33.136  14.667  11.603
25818W        W97347  44.034  11.615   3.125
25819W        W97348  44.942  15.348   0.980
25820W        W97349   8.331  24.912   4.229
25821W        W97350  20.696  19.585   3.196
25822W        W97351  25.284   8.323  14.987
25823W        W97352  11.388  15.684   2.261
25824W        W97353  20.634   9.287   2.799
25825W        W97354  22.883  19.376   3.665
25826W        W97355  23.952   5.202   2.188
25827W        W97356  40.123  18.886  12.130
25828W        W97357  13.829  21.083   4.658
25829W        W97358  18.420  17.735  13.757
25830W        W97359  11.052  17.242  11.674
25831W        W97360   4.746   8.710  11.673
25832W        W97361  32.853  24.162  12.796
25833W        W97362  36.974   8.290   4.326
25834W        W97363   2.289  16.230   2.741
25835W        W97364   0.207  12.097  10.664
25836W        W97365  39.866  36.619   2.677
25837W        W97366   4.254  39.345  14.859
25838W        W97367  18.474   8.408   1.779
25839W        W97368   5.974  12.344  11.624
25840W        W97369  27.119   0.509   3.794
25841W        W97370  20.827  28.013   2.796
25842W        W97371  22.076  35.102   1.441
25843W        W97372  28.698  21.737   2.006
25844W        W97373   0.278   7.632   1.763
25845W        W97374  42.423   9.801  12.651
25846W        W97375  39.968  21.205   3.138
25847W        W97376   8.891   0.926  11.640
25848W        W97377  14.192  42.844   4.608
25849W        W97378  30.479   4.326  14.137
25850W        W97379  24.650  13.702   3.720
25851W        W97380   5.403  40.299   2.201
25852W        W97381  26.313  29.336   5.072
25853W        W97382   3.730  17.113   0.354
25854W        W97383  18.424   0.774  13.365
25855W        W97384  27.219  10.155  12.297
25856W        W97385  35.261  34.814  12.465
25857W        W97386  24.435  28.735  12.937
25858W        W97387   9.510  28.194  10.572
25859W        W97388  43.838   9.419   4.682
25860W        W97389  15.789  26.148   4.343
25861W        W97390  19.787  34.793   0.358
25862W        W97391  29.208   1.409  13.965
25863W        W97392  18.206  41.194   0.658
25864W        W97393  24.692  40.576  14.746
25865W        W97394   6.811  17.558  11.147
25866W        W97395   4.698   8.747  10.748
25867W        W97396   2.306   3.735   0.499
25868W        W97397  12.713   9.926   1.271
25869W        W97398  19.624   7.493  12.494
25870W        W97399  23.068  26.252  14.487
25871W        W97400  11.752  35.675  12.558
25872W        W97401   3.767  42.035   1.454
25873W        W97402  44.887  18.006  12.592
25874W        W97403   4.490  35.013  10.526
25875W        W97404  20.323  38.844   0.951
25876W        W97405  29.527  11.049   0.221
25877W        W97406  38.995  15.300  13.986
25878W        W97407   6.627  15.101  12.498
25879W        W97408   8.267  10.886  13.346
25880W        W97409  33.539  30.316   1.787
25881W        W97410  44.738  27.575   4.590
25882W        W97411  44.792  40.756   1.819
25883W        W97412  19.088  34.124  13.056
25884W        W97413  28.706  16.103   4.525
25885W        W97414  31.581   6.966  12.950
25886W        W97415  34.582  21.014   1.271
25887W        W97416  28.552   7.456  11.484
25888W        W97417  30.402  23.723   4.101
25889W        W97418  10.537   0.756  12.942
25890W        W97419  38.074  21.551  14.861
25891W        W97420   6.385  27.890   2.055
25892W        W97421   3.249  12.642   1.211
25893W        W97422   9.367  39.951  10.704
25894W        W97423  44.517  39.557   1.757
25895W        W97424  23.684  23.787  11.454
25896W        W97425   6.641   0.974   0.384
25897W        W97426  11.206   1.963  13.748
25898W        W97427   0.569  19.832   4.194
25899W        W97428  14.682  35.835   5.172
25900W        W97429  19.050   2.820   2.844
25901W        W97430  12.572   4.497   1.685
25902W        W97431   1.272  30.122   0.465
25903W        W97432  41.491  12.382   0.150
25904W        W97433   5.438   9.701   0.862
25905W        W97434  36.376  12.774   4.486
25906W        W97435   0.380  44.761  14.310
25907W        W97436   1.297  35.838   2.256
25908W        W97437  23.996  20.473   1.532
25909W        W97438  25.793  15.627  13.411
25910W        W97439   9.873  12.415  11.592
25911W        W97440   4.819  29.615   2.594
25912W        W97441  15.331  41.066   4.508
25913W        W97442  15.721  29.973   4.169
25914W        W97443   1.438  32.961   1.286
25915W        W97444  14.143  44.695   2.759
25916W        W97445   7.712   0.563  11.026
25917W        W97446   7.882  23.818   4.533
25918W        W97447  29.693  22.170  14.799
25919W        W97448  30.751   8.348   1.326
25920W        W97449  11.270  44.985  13.899
25921W        W97450   4.867   4.863   4.555
25922W        W97451  41.966   4.783  11.773
25923W        W97452  25.588  39.287  10.722
25924W        W97453  43.350   8.957   4.586
25925W        W97454  35.829  17.503   0.580
25926W        W97455  38.155  10.672   1.337
25927W        W97456  35.392  10.285   2.437
25928W        W97457   0.454   9.655  11.434
25929W        W97458  23.736  43.447  10.994
25930W        W97459  27.306   5.720  10.730
25931W        W97460  27.582   5.470  11.105
25932W        W97461  19.293  15.571   4.998
25933W        W97462  42.601   6.751   1.212
25934W        W97463   2.162  37.386  13.563
25935W        W97464  27.633  37.261   3.967
25936W        W97465   6.934  31.940   4.210
25937W        W97466   6.643  27.604  12.069
25938W        W97467  44.459   1.717  11.351
25939W        W97468  30.172   4.384   3.918
25940W        W97469   9.606   2.412   2.336
25941W        W97470  39.274  30.928   1.088
25942W        W97471  25.414   6.018  14.892
25943W        W97472   8.362  22.648   1.904
25944W        W97473  10.179  39.228  11.945
25945W        W97474  31.907  19.255   0.008
25946W        W97475  44.853   0.418  14.417
25947W        W97476   5.952   2.810  11.548
25948W        W97477  15.268  40.933   0.798
25949W        W97478  16.150  33.551   0.879
25950W        W97479  41.929  33.725  14.122
25951W        W97480  17.636  40.599   0.917
25952W        W97481  42.063   3.051  11.998
25953W        W97482  20.081  14.171   0.956
25954W        W97483   7.347   8.833  11.252
25955W        W97484  19.225  32.483   1.727
25956W        W97485   8.112   5.852  14.728
25957W        W97486  22.243  17.569  12.420
25958W        W97487   6.242  20.913  13.447
25959W        W97488  16.423  16.617   4.316
25960W        W97489  15.245  35.541  14.448
25961W        W97490   9.717  43.176   1.631
25962W        W97491  34.898  24.543  10.796
25963W        W97492  28.979  21.736   2.939
25964W        W97493  18.948  41.436   4.971
25965W        W97494   1.568   1.793  11.132
25966W        W97495  13.194  25.060   3.693
25967W        W97496  35.923   8.708   3.700
25968W        W97497  10.224  20.251  12.341
25969W        W97498  38.781  24.874  14.949
25970W        W97499  22.137  26.415  12.401
25971W        W97500  43.879  28.437   3.658
25972W        W97501  17.306  14.145  11.217
25973W        W97502  32.536  10.272   2.787
25974W        W97503  26.023   8.440   1.897
25975W        W97504  28.276  35.797  13.460
25976W        W97505  44.098  23.077   4.650
25977W        W97506  18.801  40.643   0.284
25978W        W97507  25.153  19.461   3.094
25979W        W97508  37.111   8.177   0.087
25980W        W97509   6.145  11.192   3.587
25981W        W97510  32.450   9.460   4.802
25982W        W97511  14.882  36.934   3.238
25983W        W97512  43.869  22.020   3.425
25984W        W97513  20.996  26.976   3.608
25985W        W97514   9.607  29.026   3.880
25986W        W97515  18.335  31.444   2.269
25987W        W97516  12.273  24.471  10.691
25988W        W97517  37.575   9.580  10.534
25989W        W97518  20.714  12.059  14.100
25990W        W97519  42.730  41.796  13.518
25991W        W97520  10.703  18.736  10.982
25992W        W97521  23.213  18.047   3.229
25993W        W97522  11.572  24.793   3.978
25994W        W97523  21.520  30.543   0.357
25995W        W97524  10.405  16.738   0.536
25996W        W97525   6.868  42.356  14.978
25997W        W97526  14.679  29.961  13.941
25998W        W97527  39.620   9.719   2.462
25999W        W97528  42.566   8.008   2.223
26000W        W97529  36.341  34.288   1.512
26001W        W97530  41.854  35.356   1.372
26002W        W97531   0.756  37.510  14.747
26003W        W97532  37.332   8.412  12.023
26004W        W97533  16.814  13.378   1.363
26005W        W97534  17.746  11.155   3.209
26006W        W97535  28.447  17.743  13.285
26007W        W97536   8.794   0.962   1.358
26008W        W97537  13.075  36.543   0.333
26009W        W97538  29.517  27.105   0.286
26010W        W97539  28.491  38.410  10.454
26011W        W97540  36.039  44.997  12.969
26012W        W97541  18.894   6.758   4.625
26013W        W97542  14.100  33.646  14.031
26014W        W97543  14.379  15.238   1.861
26015W        W97544  33.367  12.158   3.304
26016W        W97545  12.663  12.375   4.070
26017W        W97546  32.843  27.908  14.367
26018W        W97547   8.094  36.886   2.387
26019W        W97548  26.038   0.981   4.589
26020W        W97549  33.065  24.194  13.770
26021W        W97550  41.567  10.033   3.318
26022W        W97551  17.640  13.892  12.426
26023W        W97552   0.808  25.554   1.889
26024W        W97553  10.644  41.288  10.729
26025W        W97554  34.711  21.570   4.296
26026W        W97555  21.981  23.523  13.878
26027W        W97556  39.881  35.599  10.918
26028W        W97557  19.069  40.832  11.024
26029W        W97558  30.802  19.318  14.592
26030W        W97559  40.483  18.023  12.081
26031W        W97560  21.679  31.422  11.144
26032W        W97561   8.328  13.847   3.289
26033W        W97562  27.538  21.933   3.849
26034W        W97563  18.279  44.506  11.652
26035W        W97564   9.244  31.436  12.414
26036W        W97565  39.580  15.664   0.344
26037W        W97566  27.720  18.243  11.227
26038W        W97567  18.836   2.814  12.433
26039W        W97568  25.630   0.333   4.394
26040W        W97569   2.322  12.604  13.618
26041W        W97570  30.103  40.801  11.602
26042W        W97571   2.326  28.850   0.932
26043W        W97572  16.066  33.074   2.196
26044W        W97573  28.162  31.502   4.594
26045W        W97574  20.674  35.367   1.307
26046W        W97575  34.348  40.526   1.311
26047W        W97576  10.962  32.609   3.375
26048W        W97577  30.602  10.260  12.875
26049W        W97578  22.932  14.164  11.547
26050W        W97579   2.618  25.265   5.024
26051W        W97580  27.875   9.176   3.341
26052W        W97581  43.208  35.676   3.440
26053W        W97582  37.110  19.080   3.333
26054W        W97583  42.527   6.184  11.081
26055W        W97584  21.180  38.278   0.621
26056W        W97585  36.830  26.215   1.328
26057W        W97586  44.050  39.998   2.864
26058W        W97587  20.999   2.000  12.126
26059W        W97588  21.616  12.973   2.402
26060W        W97589  13.826  24.053  14.837
26061W        W97590  19.978  23.808   3.706
26062W        W97591  14.806  26.215   5.187
26063W        W97592  26.178  15.778  14.954
26064W        W97593  24.802  27.613   0.706
26065W        W97594  12.632  14.254   0.070
26066W        W97595  41.607  28.972  11.180
26067W        W97596  10.591  22.139   3.590
26068W        W97597  43.015  24.247   4.199
26069W        W97598  33.648  14.840   0.899
26070W        W97599  44.866  24.829  13.348
26071W        W97600   0.243  44.466   0.305
26072W        W97601  27.193  16.990  12.845
26073W        W97602  25.994   6.618   1.342
26074W        W97603  14.678  34.376   4.137
26075W        W97604  27.692  23.465   4.607
26076W        W97605  42.553  34.878  13.849
26077W        W97606   0.766  30.429  14.444
26078W        W97607  27.960   3.230   2.697
26079W        W97608  36.406   3.597  11.646
26080W        W97609  35.472  33.630  12.927
26081W        W97610   4.362  25.517  12.117
26082W        W97611  41.405  18.362   0.871
26083W        W97612  21.735  30.696   2.212
26084W        W97613  28.896  17.079  13.361
26085W        W97614  26.904   3.860   2.410
26086W        W97615  17.688  22.626  12.225
26087W        W97616   5.791   3.617   4.899
26088W        W97617  28.154  11.380   3.123
26089W        W97618   6.852  27.667   3.324
26090W        W97619   7.297   5.743  10.798
26091W        W97620  25.146   3.249   2.287
26092W        W97621  36.291  27.953   2.799
26093W        W97622   5.325  22.132   4.628
26094W        W97623   6.554   6.070   3.204
26095W        W97624   7.289  42.398  13.557
26096W        W97625  36.269  12.289   0.350
26097W        W97626  19.629  34.138  14.955
26098W        W97627   0.026   1.246   0.030
26099W        W97628  16.542  11.251   2.705
26100W        W97629  43.264  44.487   0.535
26101W        W97630   4.395   3.402   4.038
26102W        W97631  20.360  16.337  10.921
26103W        W97632  42.780   2.942  13.008
26104W        W97633  42.436  15.575   1.835
26105W        W97634  37.008   5.181   2.298
26106W        W97635  37.149  10.865   1.415
26107W        W97636  21.030  21.265   2.580
26108W        W97637   5.743  39.258  12.001
26109W        W97638   6.839  11.478   3.274
26110W        W97639   5.756   9.324  14.926
26111W        W97640   8.790  44.360   3.259
26112W        W97641   0.165  30.107  11.130
26113W        W97642  39.889  42.203  14.526
26114W        W97643  22.150  10.107   4.426
26115W        W97644  35.924  10.828  13.363
26116W        W97645  22.135   1.277  13.956
26117W        W97646  10.491   7.724  13.289
26118W        W97647  22.788   1.324   3.323
26119W        W97648  10.691  32.332  12.442
26120W        W97649  20.200   0.216   4.577
26121W        W97650  30.703  19.270   2.388
26122W        W97651  11.858  40.840   2.346
26123W        W97652  22.070  31.816   2.788
26124W        W97653  36.820  17.414   3.403
26125W        W97654  12.122  23.987   2.753
26126W        W97655  24.770  32.787   3.999
26127W        W97656  25.590  21.783   0.267
26128W        W97657   5.380  19.007  12.368
26129W        W97658  21.255  29.438  12.082
26130W        W97659  35.337  24.161  14.215
26131W        W97660   0.796  17.246   2.916
26132W        W97661   2.639  39.961  12.955
26133W        W97662  34.685  14.864   2.009
26134W        W97663   9.949  11.184  11.910
26135W        W97664  13.355  36.415  14.522
26136W        W97665  39.092  42.817  14.961
26137W        W97666  34.442  40.642  13.126
26138W        W97667  13.492  38.731   1.117
26139W        W97668  43.207  37.541   4.297
26140W        W97669   1.981   5.310   2.812
26141W        W97670   9.256  33.664  12.460
26142W        W97671  25.309  10.895   0.553
26143W        W97672  42.263  18.667  10.667
26144W        W97673  36.181  28.670   0.323
26145W        W97674  35.370  11.205   3.381
26146W        W97675   7.157  44.834  12.557
26147W        W97676  26.454  13.715   1.866
26148W        W97677  43.246  21.104   4.503
26149W        W97678  18.367  36.076  14.020
26150W        W97679  25.671  26.037   2.509
26151W        W97680  27.576  25.721   3.565
26152W        W97681  13.794  40.843  14.171
26153W        W97682   9.904   6.405   0.803
26154W        W97683  40.612  42.952  12.163
26155W        W97684  27.857  26.176   0.308
26156W        W97685  33.127  33.182   2.474
26157W        W97686  43.510   9.634   0.256
26158W        W97687  13.043  29.253   0.438
26159W        W97688   5.419  27.631  14.288
26160W        W97689   7.896  29.155   1.293
26161W        W97690  31.634  30.108  13.355
26162W        W97691   1.307   1.888  14.523
26163W        W97692  33.869  10.877  13.460
26164W        W97693  33.612  44.697  10.202
26165W        W97694  27.413  40.031   3.957
26166W        W97695  20.055  27.918  11.433
26167W        W97696   0.378  25.932   0.520
26168W        W97697  12.073   3.445   0.762
26169W        W97698  22.739  23.512   1.619
26170W        W97699  20.509  13.775  11.519
26171W        W97700   8.832  39.915  12.909
26172W        W97701  38.291  17.743  13.461
26173W        W97702  43.845   6.542  13.076
26174W        W97703  17.336   1.274  14.029
26175W        W97704   3.778  13.076  12.476
26176W        W97705  42.360  43.412   3.696
26177W        W97706  30.215  23.247  11.709
26178W        W97707   2.798  25.595  11.100
26179W        W97708  27.531  16.172   4.072
26180W        W97709  17.028  12.311  14.262
26181W        W97710  29.462   2.207   4.321
26182W        W97711  16.444  27.934   3.676
26183W        W97712  28.713   0.263  13.230
26184W        W97713  11.902  17.343  13.451
26185W        W97714  43.833  43.388   1.404
26186W        W97715  21.863  33.817   0.895
26187W        W97716  18.872  19.988  14.887
26188W        W97717   6.632  10.516   4.220
26189W        W97718  24.798  10.790  11.854
26190W        W97719  15.282  13.806  14.053
26191W        W97720  16.807  22.789  13.433
26192W        W97721   8.092  29.601  13.037
26193W        W97722  23.434  36.029  11.769
26194W        W97723  24.987  36.884  12.921
26195W        W97724  16.308  15.323  11.516
26196W        W97725  24.732  35.955  10.959
26197W        W97726  19.756  40.551   1.266
26198W        W97727  10.744  39.069  12.141
26199W        W97728   6.780  17.601   3.363
26200W        W97729  36.071   2.885  12.184
26201W        W97730   4.414  20.725  13.470
26202W        W97731   4.221  13.172   3.692
26203W        W97732  44.080  41.451   4.101
26204W        W97733   9.581  32.615  11.678
26205W        W97734   6.888  19.941   3.576
26206W        W97735  12.556  41.036   4.591
26207W        W97736  38.338  30.059   2.744
26208W        W97737  11.544  12.685  12.289
26209W        W97738  27.647  44.961   2.358
26210W        W97739   4.203  34.685   0.966
26211W        W97740  21.097  27.165  10.917
26212W        W97741   5.146  15.861   3.210
26213W        W97742  34.669  37.879  14.042
26214W        W97743  38.234   3.053   2.545
26215W        W97744  32.877  28.519   9.613
26216W        W97745   6.790  41.663   1.714
26217W        W97746   7.171  18.790   1.375
26218W        W97747  37.467  26.321  11.602
26219W        W97748   3.355  43.903   2.194
26220W        W97749  31.507  38.891  11.193
26221W        W97750   7.321   8.316  14.461
26222W        W97751   7.478  37.595  11.158
26223W        W97752  12.810  25.109   4.037
26224W        W97753  35.078   2.768  11.931
26225W        W97754  39.133  16.266   3.137
26226W        W97755  33.717  16.628  13.945
26227W        W97756  12.181  34.028  14.622
26228W        W97757  42.240   4.680  13.122
26229W        W97758  23.211  34.425   0.343
26230W        W97759  22.710  39.491  13.084
26231W        W97760  16.545   4.213  14.009
26232W        W97761  20.601  12.873   2.694
26233W        W97762  27.733   4.729   2.292
26234W        W97763   8.062  37.514   3.752
26235W        W97764  38.992   4.779  14.370
26236W        W97765  32.346  36.434  12.145
26237W        W97766   9.224  39.549  13.713
26238W        W97767  19.148   1.052  10.592
26239W        W97768  31.603  35.466  13.127
26240W        W97769  39.256  44.816  10.884
26241W        W97770  18.716  28.000   4.438
26242W        W97771  25.253  21.745   1.403
26243W        W97772  37.887  16.298   4.775
26244W        W97773   9.992  34.452   3.189
26245W        W97774  34.034  25.192   0.221
26246W        W97775   3.670  14.798  10.604
26247W        W97776  20.324  43.037   4.597
26248W        W97777   1.443  37.929  12.162
26249W        W97778  43.340  24.814   4.725
26250W        W97779  42.083  16.549   4.207
26251W        W97780  41.198  10.161  13.276
26252W        W97781   2.692  22.558   0.019
26253W        W97782   4.800  33.773  10.714
26254W        W97783   3.871  15.200  12.307
26255W        W97784  34.309   2.144  12.030
26256W        W97785  23.422  14.506  13.921
26257W        W97786   0.428   7.408   2.361
26258W        W97787  26.639  18.183   3.174
26259W        W97788  10.121  39.196  10.448
26260W        W97789  25.106  17.289  11.031
26261W        W97790  44.323   8.394   2.481
26262W        W97791  29.346  43.842  13.580
26263W        W97792  37.438  27.920   0.710
26264W        W97793  18.250   5.605  12.919
26265W        W97794  19.066  29.677  13.986
26266W        W97795  18.204  21.058   0.072
26267W        W97796  26.598  27.422   0.310
26268W        W97797  30.155  33.898   2.842
26269W        W97798  44.320  17.701  11.842
26270W        W97799  26.254  31.564  11.933
26271W        W97800   5.921  41.435  13.813
26272W        W97801  42.469   0.730  13.936
26273W        W97802  37.626  13.148   5.116
26274W        W97803  29.510  33.558  11.614
26275W        W97804  31.907  36.646  14.375
26276W        W97805   9.605  24.665   4.913
26277W        W97806   7.899  17.689   3.241
26278W        W97807  21.560  10.376   1.436
26279W        W97808  33.684  22.583   2.692
26280W        W97809   5.719  34.044  12.623
26281W        W97810   8.814  41.226  14.097
26282W        W97811   5.194  12.598  13.442
26283W        W97812  29.145  23.627   3.254
26284W        W97813  30.135   4.740  11.310
26285W        W97814  32.478  17.521  11.405
26286W        W97815  11.260  10.194   3.623
26287W        W97816  25.334  19.928   3.228
26288W        W97817  17.816  18.569   2.899
26289W        W97818  19.969  28.461  11.100
26290W        W97819  29.923  12.948  11.568
26291W        W97820  29.857  16.803  12.788
26292W        W97821  43.787  41.044  11.249
26293W        W97822  12.686  13.775   4.738
26294W        W97823  34.452  15.297   4.016
26295W        W97824   9.660  43.802  12.419
26296W        W97825  14.066  34.435   3.381
26297W        W97826  26.934  43.438  14.833
26298W        W97827   9.837  39.924  12.014
26299W        W97828  11.331  39.114   5.085
26300W        W97829  21.435  27.131  13.946
26301W        W97830  30.189  25.738   3.885
26302W        W97831   7.730  42.266   4.764
26303W        W97832  14.348  27.812  14.455
26304W        W97833   6.868  39.006   0.139
26305W        W97834   4.682  38.547  10.761
26306W        W97835  10.783  38.667  13.156
26307W        W97836  29.930   7.351   4.693
26308W        W97837  40.762   0.714  14.721
26309W        W97838   7.498  37.578   0.936
26310W        W97839  29.155  44.322   2.245
26311W        W97840   6.243   3.348  12.869
26312W        W97841  30.563  23.209  14.274
26313W        W97842  40.913  34.143  13.103
26314W        W97843  19.476   0.232  12.543
26315W        W97844  11.119  30.872  14.243
26316W        W97845  25.254  25.570   0.044
26317W        W97846  24.536  21.648  12.168
26318W        W97847  15.609  20.396   1.726
26319W        W97848  12.071  42.791  11.580
26320W        W97849  44.818  17.773  11.723
26321W        W97850   9.703  23.763   0.378
26322W        W97851  20.795  37.451   0.283
26323W        W97852   7.325  29.933  14.949
26324W        W97853  43.989  32.537   0.876
26325W        W97854  13.140  24.237  14.465
26326W        W97855   8.685  44.829   0.346
26327W        W97856  31.928  13.298   2.887
26328W        W97857  15.846  31.914  12.578
26329W        W97858  36.027  17.247  14.711
26330W        W97859  25.588  13.819   3.666
26331W        W97860  21.240  44.956  11.945
26332W        W97861  36.981  35.086   2.660
26333W        W97862  32.946  21.521   1.358
26334W        W97863  21.346  41.405   0.892
26335W        W97864  29.979  28.592  11.513
26336W        W97865  36.448  43.214   4.564
26337W        W97866  32.659  40.966   4.352
26338W        W97867   0.400   9.457  13.359
26339W        W97868  10.233   3.681  13.802
26340W        W97869  39.041  14.586  14.510
26341W        W97870  34.511   4.331   2.976
26342W        W97871   5.050  21.520   2.192
26343W        W97872  10.746  21.039  14.483
26344W        W97873   5.432  25.993   3.326
26345W        W97874  21.312  13.675   1.925
26346W        W97875  14.180   3.176  14.094
26347W        W97876  25.146  10.298   2.308
26348W        W97877  38.267  28.636   3.656
26349W        W97878   6.155  15.238  14.808
26350W        W97879   5.910   6.834  14.970
26351W        W97880  14.881   4.714   3.774
26352W        W97881  31.089  10.829   1.964
26353W        W97882  30.702  34.709   3.178
26354W        W97883   5.350  38.876   2.392
26355W        W97884  30.549  34.230  12.494
26356W        W97885  30.689  28.457   0.359
26357W        W97886  11.285   9.430   0.796
26358W        W97887   5.722  12.049   4.607
26359W        W97888  11.300  13.330   1.316
26360W        W97889   6.847  33.037  12.143
26361W        W97890  18.680   1.923   1.657
26362W        W97891  18.394   8.247  11.669
26363W        W97892  38.108  34.519  14.967
26364W        W97893  40.833   4.716   3.727
26365W        W97894  21.790  35.964  13.734
26366W        W97895  19.778  15.373   2.862
26367W        W97896  16.638   9.645   2.947
26368W        W97897   8.872   3.206  10.713
26369W        W97898  39.843   2.870  11.548
26370W        W97899  19.536  14.682  14.898
26371W        W97900  41.071   8.744   1.387
26372W        W97901   3.858  18.019   3.110
26373W        W97902  19.995  15.640  13.749
26374W        W97903   0.509   0.278  11.761
26375W        W97904   8.083  30.760   4.963
26376W        W97905  29.995  37.633  12.550
26377W        W97906  37.533  19.834  14.894
26378W        W97907   0.987  42.202   3.641
26379W        W97908   7.515  37.422   4.480
26380W        W97909  38.346  21.663  13.938
26381W        W97910  28.371   6.406   4.798
26382W        W97911  21.073  37.354   2.002
26383W        W97912  22.154  25.045  12.174
26384W        W97913  15.451  26.968  12.055
26385W        W97914   3.786  40.562   1.853
26386W        W97915  16.024  14.659  12.519
26387W        W97916  41.545  18.721   1.939
26388W        W97917  24.036   2.869   3.827
26389W        W97918  38.299   3.133  12.596
26390W        W97919  31.445  36.611  10.587
26391W        W97920  32.107  15.244   3.716
26392W        W97921  36.628   4.984  10.789
26393W        W97922  25.556   6.812   3.439
26394W        W97923  30.576  33.971  13.961
26395W        W97924  33.963  38.045   4.842
26396W        W97925  31.148  44.939  13.050
26397W        W97926  18.776  10.567   2.711
26398W        W97927  11.646  34.835   0.523
26399W        W97928  12.605  22.533   0.267
26400W        W97929   3.260  17.072  12.200
26401W        W97930   4.300  22.923  14.936
26402W        W97931   8.099   1.685  13.420
26403W        W97932  13.245  27.610   2.153
26404W        W97933  19.893  23.740   2.391
26405W        W97934  23.994  38.117   2.961
26406W        W97935  39.283  20.284   0.842
26407W        W97936  41.100  26.396  12.068
26408W        W97937  43.312   6.915   2.699
26409W        W97938   7.682  44.478   0.955
26410W        W97939  41.327  43.328  14.824
26411W        W97940  14.434  13.702  10.791
26412W        W97941  28.716  40.514  12.464
26413W        W97942  41.371  19.372  14.388
26414W        W97943  16.595  10.623  10.890
26415W        W97944  33.893  18.458   4.237
26416W        W97945   6.243  11.161   1.725
26417W        W97946   0.481  44.078   0.565
26418W        W97947  10.770   6.767   0.319
26419W        W97948  10.582  35.411   0.733
26420W        W97949  33.870  33.545  12.103
26421W        W97950  43.412  39.358   3.585
26422W        W97951  22.920  24.218  13.377
26423W        W97952  34.411   7.752   4.039
26424W        W97953  16.186  30.963  13.782
26425W        W97954  21.060  16.032  11.537
26426W        W97955  13.493  40.961   4.558
26427W        W97956   4.687  27.125   4.969
26428W        W97957  12.865  39.974   3.737
26429W        W97958  39.533  39.469   4.608
26430W        W97959  22.176  29.541   0.654
26431W        W97960  18.243  23.076   4.591
26432W        W97961  15.273  33.463  12.505
26433W        W97962  36.159  17.922   1.828
26434W        W97963  15.403   7.964  11.120
26435W        W97964   4.703  33.559  13.984
26436W        W97965  13.223  13.081  10.630
26437W        W97966   9.358  33.955   2.224
26438W        W97967  41.622  30.282   1.902
26439W        W97968   1.879  38.163  12.014
26440W        W97969  27.913  43.574  14.561
26441W        W97970   8.592  18.337   3.089
26442W        W97971  33.226  32.650  10.618
26443W        W97972  44.702  17.338  12.043
26444W        W97973  28.033  13.795  14.453
26445W        W97974   7.443  44.459   2.286
26446W        W97975  15.834  17.092  10.352
26447W        W97976  18.245  31.300   5.715
26448W        W97977  14.334  27.794   1.305
26449W        W97978  30.052   0.813   3.942
26450W        W97979  11.142  31.866   1.949
26451W        W97980  39.801   3.292   0.581
26452W        W97981  39.362  43.595   0.536
26453W        W97982  15.744  14.689  14.550
26454W        W97983   7.280  29.585  11.345
26455W        W97984  44.977  19.410  13.428
26456W        W97985  40.269  29.680   3.562
26457W        W97986   9.406  44.882   3.291
26458W        W97987   7.825  16.601   2.880
26459W        W97988  14.657  27.685  11.075
26460W        W97989  12.545  41.347   1.437
26461W        W97990  38.502  40.354   1.893
26462W        W97991  33.512  29.183  13.100
26463W        W97992   4.367   3.456   2.961
26464W        W97993  39.105  15.135  12.235
26465W        W97994  30.689  35.333  10.274
26466W        W97995  38.895  41.062  12.593
26467W        W97996  27.140  44.370   2.305
26468W        W97997  29.488  10.887   2.327
26469W        W97998  31.971  28.453   1.796
26470W        W97999  40.560  38.138  13.160
26471W        W98000   5.100   8.464   5.058
26472W        W98001  19.250  39.155   4.888
26473W        W98002  16.945  35.450   3.173
26474W        W98003  43.057  23.069   3.429
26475W        W98004  27.947  40.653   9.935
26476W        W98005   8.389  22.974   3.210
26477W        W98006  29.893  17.696   0.854
26478W        W98007  32.702  16.662   1.733
26479W        W98008   4.840  16.657  10.663
26480W        W98009  23.908   2.201  11.963
26481W        W98010  31.375  16.355  13.950
26482W        W98011  39.358  44.788  11.373
26483W        W98012  43.585  37.072  11.062
26484W        W98013  32.417  22.587   0.904
26485W        W98014  28.412   5.960   4.053
26486W        W98015   1.739  34.871   4.934
26487W        W98016  28.147  15.709   0.788
26488W        W98017   3.521   2.366  14.081
26489W        W98018   6.714  10.238   1.885
26490W        W98019  27.283  34.692  11.524
26491W        W98020  15.130  12.384  14.317
26492W        W98021  23.665  27.557  14.408
26493W        W98022  38.591  31.918   4.551
26494W        W98023  12.128   1.306  14.897
26495W        W98024  43.763   0.335   0.326
26496W        W98025  39.988   0.033   0.510
26497W        W98026  35.224  39.850  14.420
26498W        W98027   7.774  13.690  11.741
26499W        W98028  24.662   7.801   4.540
26500W        W98029  10.823   7.180   0.808
26501W        W98030  13.424  26.065   2.975
26502W        W98031  33.678  23.701   1.728
26503W        W98032  11.099   4.866  11.130
26504W        W98033  35.158  20.575   3.604
26505W        W98034  24.285  42.505   0.959
26506W        W98035  23.604  36.933   1.633
26507W        W98036  29.161  38.878  12.778
26508W        W98037  40.451  44.424   1.658
26509W        W98038   2.956  31.807   2.762
26510W        W98039  26.860  42.977   1.808
26511W        W98040  30.046  42.955  10.916
26512W        W98041   2.106   2.029   3.392
26513W        W98042   2.142   3.895   1.778
26514W        W98043  10.257   8.659   3.990
26515W        W98044  27.615  26.134   3.195
26516W        W98045   9.906  25.965   4.155
26517W        W98046  37.237   3.302  13.852
26518W        W98047  22.791   8.826  11.620
26519W        W98048  17.509   9.819   1.395
26520W        W98049  31.468  21.414   4.088
26521W        W98050   4.940   7.737   0.024
26522W        W98051  12.574  24.840  11.944
26523W        W98052  26.160  16.283  14.948
26524W        W98053  22.504  25.458   3.660
26525W        W98054  40.531  31.053  12.379
26526W        W98055  44.682  39.872   2.128
26527W        W98056  42.460  31.694  11.133
26528W        W98057   6.325  16.627  14.521
26529W        W98058  10.857  30.828  12.087
26530W        W98059   7.068  17.699  11.631
26531W        W98060   5.956  20.588   0.759
26532W        W98061  27.966  24.163  13.540
26533W        W98062  40.070  36.978   1.020
26534W        W98063   7.186  14.330   2.717
26535W        W98064   8.629   5.286   0.937
26536W        W98065  42.039  21.524  10.977
26537W        W98066   9.586  19.797   1.434
26538W        W98067  15.360  18.106   1.924
26539W        W98068  33.174  25.046  11.683
26540W        W98069   4.426  19.240  14.240
26541W        W98070  12.225   4.437  12.458
26542W        W98071  24.872   2.834  14.875
26543W        W98072  14.609  29.561   3.286
26544W        W98073   2.505  19.544  12.603
26545W        W98074   5.033  29.722  14.785
26546W        W98075  10.631  37.882   4.101
26547W        W98076  44.779  37.315  14.093
26548W        W98077  25.196  43.791   1.344
26549W        W98078  34.558  44.335   0.879
26550W        W98079   0.683  31.091  14.039
26551W        W98080  23.869  22.580  10.400
26552W        W98081  42.819  11.640  11.539
26553W        W98082  20.882  35.231  14.384
26554W        W98083   5.322  32.234   1.661
26555W        W98084  18.551  33.107   3.171
26556W        W98085  11.709  14.828  13.284
26557W        W98086  31.632  22.723  11.717
26558W        W98087  31.903  11.311  14.437
26559W        W98088  37.659   8.960  12.997
26560W        W98089  14.081  35.599  11.267
26561W        W98090  27.437  37.915   2.185
26562W        W98091  19.590  15.576  11.207
26563W        W98092  41.394  35.695   0.763
26564W        W98093  35.990  31.103  14.979
26565W        W98094  36.866   5.552  14.448
26566W        W98095  13.066  42.000  14.501
26567W        W98096  42.818  13.334  12.428
26568W        W98097  41.799  31.206  10.767
26569W        W98098   0.713   0.297   2.984
26570W        W98099  33.086  29.985   4.054
26571W        W98100  37.890   0.029   1.804
26572W        W98101  31.190   6.198  14.375
26573W        W98102  20.607  26.453  14.080
26574W        W98103  14.937  34.980   1.283
26575W        W98104  21.340  11.756   4.553
26576W        W98105  10.660   0.939   0.049
26577W        W98106   8.386  17.614   1.414
26578W        W98107  42.874   2.841   2.900
26579W        W98108  20.624  12.291   1.890
26580W        W98109  39.133  12.886   0.929
26581W        W98110   0.471  10.647   3.366
26582W        W98111  30.636  26.554  14.987
26583W        W98112  32.055   5.957  13.771
26584W        W98113  20.274   1.058   1.256
26585W        W98114  12.687  26.705   2.864
26586W        W98115  44.116  39.056   4.602
26587W        W98116   9.701  27.691   4.625
26588W        W98117   4.136  10.621   2.663
26589W        W98118  19.669  41.139  11.093
26590W        W98119  32.489  23.752   3.436
26591W        W98120  31.720  43.625   4.135
26592W        W98121  44.703  10.699  10.973
26593W        W98122  43.458  29.017  13.305
26594W        W98123  17.788  19.629   3.751
26595W        W98124  12.487  19.002   3.677
26596W        W98125  26.396  28.836   0.392
26597W        W98126  14.747  17.038  13.122
26598W        W98127  20.903   4.045   2.347
26599W        W98128  17.176   2.757   2.252
26600W        W98129  38.223   6.779  11.105
26601W        W98130  19.755  21.714  12.576
26602W        W98131   1.684  35.018   0.379
26603W        W98132   3.224  10.120   0.336
26604W        W98133  42.508   0.781   0.424
26605W        W98134  15.118  35.500   2.775
26606W        W98135   1.480  16.739   0.555
26607W        W98136  41.364   3.691   3.391
26608W        W98137   7.039  15.689  13.480
26609W        W98138  29.947  16.668   2.329
26610W        W98139  29.343  20.407  14.900
26611W        W98140  29.764   9.687   4.786
26612W        W98141  43.251  21.219  11.575
26613W        W98142  39.008  40.292   1.158
26614W        W98143  28.057  35.009   4.428
26615W        W98144  10.746   3.179  10.669
26616W        W98145   8.178   0.260  13.139
26617W        W98146  35.549   4.537   2.828
26618W        W98147  33.728  37.362   1.318
26619W        W98148  36.651  31.837   1.814
26620W        W98149  28.405  11.457  11.421
26621W        W98150  11.839  34.209  12.411
26622W        W98151  20.307   1.358   4.956
26623W        W98152  34.334  18.185   2.402
26624W        W98153  30.702   1.982  10.581
26625W        W98154   7.651  16.557  11.250
26626W        W98155  17.017  40.330  13.618
26627W        W98156  23.295   8.785  12.842
26628W        W98157   5.354  40.004   3.717
26629W        W98158  33.909  38.726  13.399
26630W        W98159   3.531   5.391   2.631
26631W        W98160  26.443   5.339  12.477
26632W        W98161  39.399  16.538  11.373
26633W        W98162  22.163  13.100  12.991
26634W        W98163  23.675  19.774   1.660
26635W        W98164  26.429  22.679  14.630
26636W        W98165   7.242   0.405   4.204
26637W        W98166  32.039  34.561  14.803
26638W        W98167  20.822  24.926   0.237
26639W        W98168  12.285   6.689  13.044
26640W        W98169  34.387  24.722  13.104
26641W        W98170  41.942  27.163   2.977
26642W        W98171  44.788   5.344   3.800
26643W        W98172  24.712  15.083   1.602
26644W        W98173   0.817  38.541  14.479
26645W        W98174  16.075  35.103   3.264
26646W        W98175   0.546  41.447   3.703
26647W        W98176   0.590   0.721  11.542
26648W        W98177   1.517  27.954  11.085
26649W        W98178   0.191  36.283   0.728
26650W        W98179   8.670   6.758   3.507
26651W        W98180   8.116  40.415  14.881
26652W        W98181  44.403   2.949   0.390
26653W        W98182  12.104   9.670  11.731
26654W        W98183  37.361   8.076   4.929
26655W        W98184  38.425  24.397   2.529
26656W        W98185  36.198  33.159   2.312
26657W        W98186   6.223  40.872  13.421
26658W        W98187   5.684  26.022  12.043
26659W        W98188  39.945  43.772   3.655
26660W        W98189   4.839   4.868   3.083
26661W        W98190   7.288  29.195  12.147
26662W        W98191  36.318  27.732   3.304
26663W        W98192  18.680  33.577  10.035
26664W        W98193  10.158  20.584   2.302
26665W        W98194  34.592  25.529  11.597
26666W        W98195  17.681  41.193   4.219
26667W        W98196  18.622  42.518  12.558
26668W        W98197  38.358  31.732   1.395
26669W        W98198  42.479  28.153  13.337
26670W        W98199  28.693  10.386   2.294
26671W        W98200   3.348  21.745  14.327
26672W        W98201   9.155   8.235   1.233
26673W        W98202  39.118   1.324  14.751
26674W        W98203   1.366  38.209  10.414
26675W        W98204  39.119  24.105  14.844
26676W        W98205  42.894  30.642   1.229
26677W        W98206  32.077  13.195   3.384
26678W        W98207  22.037  10.090  12.027
26679W        W98208   1.186  43.326   4.407
26680W        W98209   4.026  26.455  10.814
26681W        W98210  22.481   4.891  13.380
26682W        W98211   6.583   8.661   4.013
26683W        W98212  19.649  40.803   0.515
26684W        W98213  17.316  32.176  13.462
26685W        W98214  19.273  13.662   3.349
26686W        W98215  23.617  34.107   0.407
26687W        W98216  30.937   5.991   9.671
26688W        W98217  14.071  43.753  11.125
26689W        W98218  31.723  10.848   4.563
26690W        W98219  42.229  10.946  11.080
26691W        W98220  37.518  19.254  10.597
26692W        W98221  14.055  12.021  13.999
26693W        W98222  40.125  10.341   3.947
26694W        W98223  41.178  23.484  14.794
26695W        W98224  37.087   5.405   1.826
26696W        W98225  39.867   8.365   2.928
26697W        W98226  30.926  37.731  11.801
26698W        W98227  19.262   6.344   3.729
26699W        W98228  35.092  10.316   0.511
26700W        W98229  18.430  16.535   2.292
26701W        W98230  44.437  29.973  13.947
26702W        W98231  29.912  23.934   4.151
26703W        W98232  41.452  31.425   4.351
26704W        W98233  10.887  42.786   0.303
26705W        W98234  22.578  32.491  11.205
26706W        W98235  33.363  24.310  11.912
26707W        W98236   3.522  17.977  11.952
26708W        W98237  28.877  24.221   3.281
26709W        W98238   9.323  23.476  14.736
26710W        W98239  16.336  24.421   0.614
26711W        W98240  38.531   7.810   1.202
26712W        W98241  39.070  22.113  12.542
26713W        W98242  17.316   9.728   2.329
26714W        W98243  19.685   1.973   0.375
26715W        W98244  15.884  23.475   4.267
26716W        W98245  38.465  16.176   4.845
26717W        W98246  14.720  24.093   1.807
26718W        W98247   2.811  36.359  13.327
26719W        W98248  41.987  43.052  12.414
26720W        W98249  11.220  38.005  13.628
26721W        W98250  34.114  44.405  10.476
26722W        W98251  15.653  31.179   2.340
26723W        W98252  22.974  32.325   2.673
26724W        W98253  24.607  25.730   1.737
26725W        W98254  33.278  15.778   1.706
26726W        W98255   8.644   0.445   3.658
26727W        W98256  37.783   3.010   2.319
26728W        W98257   4.150   1.155   4.150
26729W        W98258  30.382  21.621   0.050
26730W        W98259  25.546  44.410   4.855
26731W        W98260  22.458  18.583  13.961
26732W        W98261  25.999  41.969  14.394
26733W        W98262  29.522   6.572   9.523
26734W        W98263  37.779  26.922   0.335
26735W        W98264  25.108  36.766   4.922
26736W        W98265   9.352  23.576  13.699
26737W        W98266  40.971  35.438   4.311
26738W        W98267  41.874  19.672   2.008
26739W        W98268   3.410  21.550  10.936
26740W        W98269  26.563  36.174  14.765
26741W        W98270   2.447   0.928  14.536
26742W        W98271   2.260  15.642   2.338
26743W        W98272   6.619  36.639  12.855
26744W        W98273  40.036  17.952  13.279
26745W        W98274  18.687  39.358   4.583
26746W        W98275  40.480   3.740   0.258
26747W        W98276   8.920   8.359   0.316
26748W        W98277  24.817  20.638  11.158
26749W        W98278  34.921  43.981  13.827
26750W        W98279   1.754  28.922   1.849
26751W        W98280  20.402   7.607  11.641
26752W        W98281  16.583  37.613  11.906
26753W        W98282  35.672   9.194   2.778
26754W        W98283  44.321  16.185   3.986
26755W        W98284  11.326  13.587  11.519
26756W        W98285  10.598   5.839   1.850
26757W        W98286  42.050  23.748  12.191
26758W        W98287  42.797  22.534  13.215
26759W        W98288  25.528  10.478  12.061
26760W        W98289   9.404  27.928  13.469
26761W        W98290  19.894  36.052  12.077
26762W        W98291  21.524   0.362   2.178
26763W        W98292   3.267  23.610  11.943
26764W        W98293   1.881   1.406  12.986
26765W        W98294   8.251  13.677  10.539
26766W        W98295  11.686   1.494   0.955
26767W        W98296  32.411  30.534  10.338
26768W        W98297  10.807  20.234   0.967
26769W        W98298  40.962  16.559   0.476
26770W        W98299  10.487  24.974   3.666
26771W        W98300  32.550  14.232  14.910
26772W        W98301  19.720   9.837  11.006
26773W        W98302  43.509  25.602  12.870
26774W        W98303  19.209  19.577   1.670
26775W        W98304  32.504  12.724  12.900
26776W        W98305  37.868  28.969  12.156
26777W        W98306  25.485  25.600  11.666
26778W        W98307  10.709  16.631  14.797
26779W        W98308  32.509  15.893  13.623
26780W        W98309  19.242   1.028  13.871
26781W        W98310   5.252  32.514   4.156
26782W        W98311  30.462   7.271   2.846
26783W        W98312  11.560  16.244   3.907
26784W        W98313  27.465  28.313  11.957
26785W        W98314   3.759  38.567   4.630
26786W        W98315  24.624  23.815  14.914
26787W        W98316   0.735   8.199   3.133
26788W        W98317  36.477   1.478   0.182
26789W        W98318  19.145  38.591  11.549
26790W        W98319   3.286  18.170  11.543
26791W        W98320  27.942  36.130  14.784
26792W        W98321   9.202   7.206   4.646
26793W        W98322  36.057   8.963  13.466
26794W        W98323  39.353  30.863  11.802
26795W        W98324   8.724  12.401   4.317
26796W        W98325  22.573   7.303  13.494
26797W        W98326  17.579  26.055   3.654
26798W        W98327  26.981  10.908  10.722
26799W        W98328  15.638   0.057  11.558
26800W        W98329  16.700   0.435  14.906
26801W        W98330  10.454   5.998  14.580
26802W        W98331   3.479  14.862  14.084
26803W        W98332  12.201   1.124   2.169
26804W        W98333  35.363  22.780   4.244
26805W        W98334  33.147   8.351  13.050
26806W        W98335  21.848   0.846  13.534
26807W        W98336  25.257  36.636  13.976
26808W        W98337  13.834   8.943   3.656
26809W        W98338  39.821  39.691  11.818
26810W        W98339  31.939   4.974   0.405
26811W        W98340   0.038   0.008   0.347
26812W        W98341  13.096  33.456   1.685
26813W        W98342  38.543  38.315   3.348
26814W        W98343  22.231   2.436  12.069
26815W        W98344  31.078  26.229   3.401
26816W        W98345  21.243  43.949   2.425
26817W        W98346  18.699   7.108  12.496
26818W        W98347   9.290  16.245  11.967
26819W        W98348   1.390   4.278   3.075
26820W        W98349  16.011   2.009  14.986
26821W        W98350   1.950   2.783   3.581
26822W        W98351   6.247  31.420  11.147
26823W        W98352  35.137  34.920   3.143
26824W        W98353  42.555  36.679  11.624
26825W        W98354  21.420  42.687  12.575
26826W        W98355  35.423  30.046  12.342
26827W        W98356  17.976   1.892  11.606
26828W        W98357  35.469  13.214  13.971
26829W        W98358  24.304  43.428  13.525
26830W        W98359  30.939  27.698   0.742
26831W        W98360   4.765   0.737   1.399
26832W        W98361  13.628  10.378  11.093
26833W        W98362  37.961  38.019  11.706
26834W        W98363  26.881  37.625   2.725
26835W        W98364  35.021   9.890  11.534
26836W        W98365  19.899   5.800  13.438
26837W        W98366  41.353  40.535  13.606
26838W        W98367   5.493   1.674   0.371
26839W        W98368  29.147  27.159  12.442
26840W        W98369  21.284  16.063  13.247
26841W        W98370  18.587  14.149  12.647
26842W        W98371  41.425  39.961  12.397
26843W        W98372  14.336   8.280  12.118
26844W        W98373  17.181   1.649   0.630
26845W        W98374  20.517  29.934  11.851
26846W        W98375  34.591  40.031   0.315
26847W        W98376  18.501  22.389   4.960
26848W        W98377  24.775  39.960   1.742
26849W        W98378  25.012  15.231  11.884
26850W        W98379  15.718   6.960   3.730
26851W        W98380  29.544  26.858  13.258
26852W        W98381   7.376  24.085  14.271
26853W        W98382  41.542  42.060   3.681
26854W        W98383  39.998  16.683  13.905
26855W        W98384  22.137   3.967  13.022
26856W        W98385  27.207  36.337  11.192
26857W        W98386  34.378  30.776  10.659
26858W        W98387   8.823  20.132   3.808
26859W        W98388   4.906  21.443  10.167
26860W        W98389  14.482   7.282  10.712
26861W        W98390   5.961  22.081   0.300
26862W        W98391  38.844  38.972  13.040
26863W        W98392  26.217  21.456  13.854
26864W        W98393  40.822  11.127   3.583
26865W        W98394  32.599  16.761  13.032
26866W        W98395  32.485  32.223  12.874
26867W        W98396  35.380  14.244   3.650
26868W        W98397  21.652  21.606   1.863
26869W        W98398  10.553   6.213   2.222
26870W        W98399  34.254  29.298  13.301
26871W        W98400  24.088  11.328   4.924
26872W        W98401  36.857  28.487  10.659
26873W        W98402  41.780  15.335   1.119
26874W        W98403   0.545  27.847  14.892
26875W        W98404  30.477  18.744   3.657
26876W        W98405  38.568  43.992  14.119
26877W        W98406  17.134   1.188   0.889
26878W        W98407  38.337  19.762   2.186
26879W        W98408   8.126  26.547   0.026
26880W        W98409  17.795   0.339  13.972
26881W        W98410  34.368  22.422   0.905
26882W        W98411  35.841  14.454   2.283
26883W        W98412   3.459  30.726  11.554
26884W        W98413   6.381  41.185  14.709
26885W        W98414  38.494  35.970  12.089
26886W        W98415   7.452  37.549  13.144
26887W        W98416  17.503  17.752   0.472
26888W        W98417  31.835  43.744  11.379
26889W        W98418  23.552  19.628   0.645
26890W        W98419  17.611  11.647   3.238
26891W        W98420  13.893  42.347   4.766
26892W        W98421  15.385  28.226  11.475
26893W        W98422  15.687  10.389  10.694
26894W        W98423  29.078   0.218   4.596
26895W        W98424  20.284  13.214  13.208
26896W        W98425  30.156  20.505  13.866
26897W        W98426   0.750  12.501   0.446
26898W        W98427  37.025  10.170  12.417
26899W        W98428   4.448  21.695   0.711
26900W        W98429  13.744   8.217   1.698
26901W        W98430  33.888  20.167  13.909
26902W        W98431  30.703  32.146   5.189
26903W        W98432  25.903  37.255  11.627
26904W        W98433  28.455  13.776  14.164
26905W        W98434  42.846  32.222   3.354
26906W        W98435   8.337  19.710  11.530
26907W        W98436  43.287   8.505   1.844
26908W        W98437  23.919  44.711  13.851
26909W        W98438  43.326  42.129   3.697
26910W        W98439  40.551   4.113   4.625
26911W        W98440  21.020  37.479   5.185
26912W        W98441  42.454  29.117  14.882
26913W        W98442  42.444  20.700   3.895
26914W        W98443  30.131   9.378  12.515
26915W        W98444   8.203  23.115  11.495
26916W        W98445  38.436  26.652   1.405
26917W        W98446  29.114  23.738   4.544
26918W        W98447  26.077  30.960  13.724
26919W        W98448   5.874   0.894   3.792
26920W        W98449  14.915   8.147  10.989
26921W        W98450  10.900  17.688  13.894
26922W        W98451   8.745   2.868   4.894
26923W        W98452  30.624  14.396  13.822
26924W        W98453   5.599  29.894  14.546
26925W        W98454  25.231   2.703  14.075
26926W        W98455  41.971   9.230  11.092
26927W        W98456  24.553  36.683  14.283
26928W        W98457  38.380  35.100  13.759
26929W        W98458  26.094  10.812   3.478
26930W        W98459  35.511  13.979   4.089
26931W        W98460  32.019  44.569   4.286
26932W        W98461  21.648  37.088   3.224
26933W        W98462  33.991  14.790  11.656
26934W        W98463  26.505  22.336  10.564
26935W        W98464  19.013  17.173   1.247
26936W        W98465  38.893  44.648  14.407
26937W        W98466  12.123  35.395  13.944
26938W        W98467  38.375  11.554   4.047
26939W        W98468  33.600   2.715  11.964
26940W        W98469  21.171  43.204   2.825
26941W        W98470  42.612  11.333  13.568
26942W        W98471  35.084  22.981   0.271
26943W        W98472  43.796  22.991   1.656
26944W        W98473   0.690  20.701  11.549
26945W        W98474  25.731   7.215  14.453
26946W        W98475  20.228  13.062   4.794
26947W        W98476  24.946  13.251  14.089
26948W        W98477  37.605  39.028  10.683
26949W        W98478  23.529  24.338  12.222
26950W        W98479  17.253  17.502   4.278
26951W        W98480  30.754   5.875  11.664
26952W        W98481  22.579  15.305   3.829
26953W        W98482  17.694   1.559  10.517
26954W        W98483  10.370  38.534  13.414
26955W        W98484  44.893  11.121  10.733
26956W        W98485  16.800  36.767   4.057
26957W        W98486  40.316  26.644   2.124
26958W        W98487  35.528   8.314   3.408
26959W        W98488  14.713  43.124  10.414
26960W        W98489  18.475   6.102  13.488
26961W        W98490  31.670  32.825  14.330
26962W        W98491  43.416  38.981   0.349
26963W        W98492  29.525  17.461   3.656
26964W        W98493  12.942  17.607  11.558
26965W        W98494  28.972  38.858   2.182
26966W        W98495   1.933  13.321   0.189
26967W        W98496  21.744  31.619  14.340
26968W        W98497  26.467  37.475  13.001
26969W        W98498  36.184   8.677   1.794
26970W        W98499  31.821  15.347  10.378
26971W        W98500   1.239  19.048   0.756
26972W        W98501  20.051  37.442   3.578
26973W        W98502  25.040  10.151   0.390
26974W        W98503  23.547  25.462  14.456
26975W        W98504  31.437  44.294  12.453
26976W        W98505  21.718  35.181   2.811
26977W        W98506  42.511   0.336  11.141
26978W        W98507  29.235   8.334  14.734
26979W        W98508  33.859  17.708   2.952
26980W        W98509   3.446  35.537   2.698
26981W        W98510  21.703   6.400   2.276
26982W        W98511  26.262   9.280  11.167
26983W        W98512  26.584  32.959  10.180
26984W        W98513  11.439  21.477  14.754
26985W        W98514  24.123   0.965  14.853
26986W        W98515  29.107  10.173  12.470
26987W        W98516  11.231  43.853   2.674
26988W        W98517  31.921  26.715   4.826
26989W        W98518  18.331  44.736   0.911
26990W        W98519   1.258  18.663   1.472
26991W        W98520   0.846  11.874   1.241
26992W        W98521  34.552   7.795  11.674
26993W        W98522   3.790  10.294  11.450
26994W        W98523  29.658  10.618  10.694
26995W        W98524  23.624  15.344  12.976
26996W        W98525  14.349   5.187  14.982
26997W        W98526  26.155  18.259   4.113
26998W        W98527  11.188  22.556   4.643
26999W        W98528  43.101   6.976  13.013
27000W        W98529  19.054  38.313   3.493
27001W        W98530  30.620   3.764  12.555
27002W        W98531  10.177  12.278   3.331
27003W        W98532  43.578  28.292   3.241
27004W        W98533  29.790   6.745   1.952
27005W        W98534  11.845   3.616   1.269
27006W        W98535  22.930  41.971   0.794
27007W        W98536   4.762  34.210  14.763
27008W        W98537  36.794  18.987   4.252
27009W        W98538   1.796  38.887   0.442
27010W        W98539   8.160  38.493  12.923
27011W        W98540   7.832  22.458   4.111
27012W        W98541  26.110  10.929  13.444
27013W        W98542  28.737  40.803   2.243
27014W        W98543   6.191  17.854  10.717
27015W        W98544  36.066  10.922  11.543
27016W        W98545  36.282  16.110   2.899
27017W        W98546  41.933  37.404   1.532
27018W        W98547  31.150  34.215   4.446
27019W        W98548  24.453  27.476   4.175
27020W        W98549  39.836  31.401  14.258
27021W        W98550  35.136  24.992   4.577
27022W        W98551   7.759  13.783  11.224
27023W        W98552   3.909  14.493   1.720
27024W        W98553  25.283  28.544   0.069
27025W        W98554  10.853  10.343  10.741
27026W        W98555  10.170  32.567   1.346
27027W        W98556  23.802  38.045  13.351
27028W        W98557  34.942  24.643   4.892
27029W        W98558  22.160  19.089   3.192
27030W        W98559   1.749  25.738  14.992
27031W        W98560  29.531   2.969  10.585
27032W        W98561  40.043  13.900   0.965
27033W        W98562  11.789  27.151   0.364
27034W        W98563  28.588  11.236  14.851
27035W        W98564   4.876  12.261   4.843
27036W        W98565  42.454  31.073  12.448
27037W        W98566  12.742   2.384  12.628
27038W        W98567  40.682  36.355   0.419
27039W        W98568  14.565  32.464   2.651
27040W        W98569  13.647  33.138  12.058
27041W        W98570  15.620  39.018  14.680
27042W        W98571   9.106  34.608   1.259
27043W        W98572  11.736  12.109  14.753
27044W        W98573  30.530   0.569  13.018
27045W        W98574  24.795  35.002  13.038
27046W        W98575  20.163   0.842  13.001
27047W        W98576  33.642  26.963   3.706
27048W        W98577  26.939  13.642   1.981
27049W        W98578  11.754   9.670   4.268
27050W        W98579  24.027  38.621  13.802
27051W        W98580  14.661  33.540  13.913
27052W        W98581  33.007  25.073  13.775
27053W        W98582  26.733  13.133   0.283
27054W        W98583  20.720  12.039  11.074
27055W        W98584  25.095  28.177   1.926
27056W        W98585  39.719  38.824  12.094
27057W        W98586   5.180   8.518  14.952
27058W        W98587  39.491   3.898  14.786
27059W        W98588   6.746  17.654   0.442
27060W        W98589  19.695   1.224  12.502
27061W        W98590   7.225  36.306   2.439
27062W        W98591  14.683  30.140  11.191
27063W        W98592  22.061   0.836   3.779
27064W        W98593  12.279   7.341   2.386
27065W        W98594  26.584  36.907   2.201
27066W        W98595  13.723  11.467   3.319
27067W        W98596  20.274  23.195   4.554
27068W        W98597   8.745  29.082   1.927
27069W        W98598  37.115  23.764  14.849
27070W        W98599  35.888  12.940   0.798
27071W        W98600   6.015  28.887   2.730
27072W        W98601  38.637  37.342  10.913
27073W        W98602  30.468  22.610   0.892
27074W        W98603  10.842  29.814  14.475
27075W        W98604   8.693  10.823   0.461
27076W        W98605  37.661  11.851   4.512
27077W        W98606  42.504  35.402  12.622
27078W        W98607   2.890   2.860  12.637
27079W        W98608  13.404   7.781  13.787
27080W        W98609  25.524  27.834   1.270
27081W        W98610   7.385   0.978   0.004
27082W        W98611   6.348   7.762  12.051
27083W        W98612  37.682  32.000  14.666
27084W        W98613  28.170  35.360   0.779
27085W        W98614  42.831  13.817  12.646
27086W        W98615  17.470   0.068   2.857
27087W        W98616   1.913   0.110   1.374
27088W        W98617   4.727  33.021  11.938
27089W        W98618   8.864  12.285   1.912
27090W        W98619  23.198  40.899  11.202
27091W        W98620  29.606  11.229   1.184
27092W        W98621  29.409  40.057   3.415
27093W        W98622  33.109  40.598  12.663
27094W        W98623  33.246  29.729  12.483
27095W        W98624  36.077   0.547  11.147
27096W        W98625  32.532  36.525   2.817
27097W        W98626  31.181  17.084   2.552
27098W        W98627  13.815  36.251   0.378
27099W        W98628  42.273   5.980   4.661
27100W        W98629  15.656  34.421   2.859
27101W        W98630  33.175  16.590   3.282
27102W        W98631  20.070  10.596   4.267
27103W        W98632  44.889  43.708  10.529
27104W        W98633   3.485   9.833   4.649
27105W        W98634  21.724  43.511  12.417
27106W        W98635  10.566  41.501  13.470
27107W        W98636  39.971   5.273  11.558
27108W        W98637  30.132  16.120  10.494
27109W        W98638  25.779   0.412  14.882
27110W        W98639  38.283   7.482   4.133
27111W        W98640   4.852  33.854  11.654
27112W        W98641  11.046  29.433   3.129
27113W        W98642  30.677  37.500   4.174
27114W        W98643  17.780  30.603   2.542
27115W        W98644  35.923  29.962   0.587
27116W        W98645  37.538   7.430   2.948
27117W        W98646  16.953  13.239  10.996
27118W        W98647  43.356  27.479   1.862
27119W        W98648  32.226  27.891   2.889
27120W        W98649  42.919   3.970  10.661
27121W        W98650  24.813  18.833   0.722
27122W        W98651  33.400   1.958  12.341
27123W        W98652   4.473  25.169  13.944
27124W        W98653  18.723  41.054   0.606
27125W        W98654  36.171  25.276  13.532
27126W        W98655  30.077  44.555   4.676
27127W        W98656  39.440  22.072  10.296
27128W        W98657   1.169  14.591  12.907
27129W        W98658  36.797   9.750   2.347
27130W        W98659   9.731  20.665   0.241
27131W        W98660  32.486  16.308  13.294
27132W        W98661  19.182  18.067  13.769
27133W        W98662  30.947  40.155   4.588
27134W        W98663  35.496  15.848   2.591
27135W        W98664  22.709   7.083   4.669
27136W        W98665  25.955   2.799  12.010
27137W        W98666  43.961  29.198   2.683
27138W        W98667  35.778  16.340  11.967
27139W        W98668  41.723  30.755   2.272
27140W        W98669   1.459  28.338   3.871
27141W        W98670   4.892   2.307  11.945
27142W        W98671  18.154   1.026   4.924
27143W        W98672   6.851  21.880  13.362
27144W        W98673   8.496  15.612  14.884
27145W        W98674  18.691  20.334   1.220
27146W        W98675  34.624  39.539  11.791
27147W        W98676  22.248   7.245  14.532
27148W        W98677  18.528  42.932  12.931
27149W        W98678  33.422  42.296  10.606
27150W        W98679  22.426   5.889   1.477
27151W        W98680  41.453  44.788  11.040
27152W        W98681  30.135  26.170  14.330
27153W        W98682  15.105  40.044   0.211
27154W        W98683  13.910  38.614  11.155
27155W        W98684  30.571  35.026   2.361
27156W        W98685  14.849  17.049  14.461
27157W        W98686   9.717  10.242   1.181
27158W        W98687   6.256  43.449   2.866
27159W        W98688  36.569  30.795  13.471
27160W        W98689  22.512  22.482  13.458
27161W        W98690  21.692  38.032  14.957
27162W        W98691  44.713  17.196  12.941
27163W        W98692  19.302   6.736  12.958
27164W        W98693  27.793  24.976  11.382
27165W        W98694  38.481  42.263   0.558
27166W        W98695  34.433  26.092  10.739
27167W        W98696  23.962   0.983   2.359
27168W        W98697   6.365  27.917   3.301
27169W        W98698  39.455  30.963   2.633
27170W        W98699  11.744  30.955   1.263
27171W        W98700  40.277  15.650   4.025
27172W        W98701  15.862  43.532  14.017
27173W        W98702  35.650  14.697  12.485
27174W        W98703   6.748   7.152   4.806
27175W        W98704   9.885   2.196   2.723
27176W        W98705  38.526  11.692   1.530
27177W        W98706   3.376  12.163   2.577
27178W        W98707  18.250  41.446   1.462
27179W        W98708  28.604  43.371   3.733
27180W        W98709  36.869  39.429  11.672
27181W        W98710  41.309  44.954  13.987
27182W        W98711   1.001  32.444  10.310
27183W        W98712  25.207   5.689  11.963
27184W        W98713  24.562  34.172  11.594
27185W        W98714  41.394   6.343  14.454
27186W        W98715  24.532  23.457   3.157
27187W        W98716  28.970  43.714   0.965
27188W        W98717  26.150  35.338   3.828
27189W        W98718  30.728  40.815   1.008
27190W        W98719   8.099  30.380  14.648
27191W        W98720  22.146  38.543  14.409
27192W        W98721  20.523  32.631   4.358
27193W        W98722  21.825  23.289  12.875
27194W        W98723  19.141  27.323  13.502
27195W        W98724   7.316  19.171   0.094
27196W        W98725  32.497   7.199   3.143
27197W        W98726   6.189   5.639  11.490
27198W        W98727  26.271  24.287   2.158
27199W        W98728  44.946  24.740  12.759
27200W        W98729  16.878  13.757   1.737
27201W        W98730  38.592  16.008  14.327
27202W        W98731  30.095  11.557  12.009
27203W        W98732  37.666  18.475  13.975
27204W        W98733   7.397  14.791  11.477
27205W        W98734  35.997  19.057   3.788
27206W        W98735   3.470  44.187   4.122
27207W        W98736   6.693   5.311  13.071
27208W        W98737  43.058  16.801  14.346
27209W        W98738   5.227  31.106  12.572
27210W        W98739  16.623  36.588   2.728
27211W        W98740  21.658  11.404   0.542
27212W        W98741  43.662  20.658  12.575
27213W        W98742  25.118  17.084  10.545
27214W        W98743  22.160  23.500   0.769
27215W        W98744  35.443   0.328   4.794
27216W        W98745  13.090  28.570  10.934
27217W        W98746  38.393  33.983  13.800
27218W        W98747  15.662  41.068   1.865
27219W        W98748  15.527  35.611   1.686
27220W        W98749  34.567  34.154   2.250
27221W        W98750  43.901  39.773   0.313
27222W        W98751  15.816   5.883  14.383
27223W        W98752  33.952  18.129  11.402
27224W        W98753  16.061  26.074   1.033
27225W        W98754  41.842  31.011  14.358
27226W        W98755   6.777  23.341   1.765
27227W        W98756   0.190  35.698   4.228
27228W        W98757  17.178  31.553   2.628
27229W        W98758   3.868  13.146   1.660
27230W        W98759  40.465  34.863   1.339
27231W        W98760  35.894  23.699   2.296
27232W        W98761   8.917  19.218  10.273
27233W        W98762  32.424   3.850  13.831
27234W        W98763  30.509  35.622  10.702
27235W        W98764   8.762  25.980  14.622
27236W        W98765  23.550  43.715   4.447
27237W        W98766  26.530  16.567  14.051
27238W        W98767  33.927   3.767  10.542
27239W        W98768  23.026  15.327  11.374
27240W        W98769   2.339  39.296   2.767
27241W        W98770  11.566  28.144   0.301
27242W        W98771  20.630  34.861  11.084
27243W        W98772  18.776  40.359  11.955
27244W        W98773  28.054  44.938  14.237
27245W        W98774  17.212  36.504   3.073
27246W        W98775  40.047  35.902   1.768
27247W        W98776  12.284  13.830  10.803
27248W        W98777  26.265  33.912   2.223
27249W        W98778  30.001  33.048   0.612
27250W        W98779  16.548   1.739  13.790
27251W        W98780  35.642  14.485   4.087
27252W        W98781  19.173  28.535  12.856
27253W        W98782  13.596  35.929  11.945
27254W        W98783  16.702  39.599  13.373
27255W        W98784  44.214  23.705  10.700
27256W        W98785  25.528   8.715  14.732
27257W        W98786   1.298   9.312  14.786
27258W        W98787  23.402  10.082  10.550
27259W        W98788  22.630  32.448   3.471
27260W        W98789  30.485  42.551  12.888
27261W        W98790  17.824  13.369   4.667
27262W        W98791  20.290  15.517  11.262
27263W        W98792   6.568  34.769  14.485
27264W        W98793   1.899   2.378  11.983
27265W        W98794   5.263  19.275  12.828
27266W        W98795  37.125  41.750   3.468
27267W        W98796  41.594  10.294  14.894
27268W        W98797  38.464  32.344   2.124
27269W        W98798  39.609  20.145  11.335
27270W        W98799  37.808  31.857  11.615
27271W        W98800  37.396  37.065  13.432
27272W        W98801   8.738  33.456  11.373
27273W        W98802  24.222   9.694   3.027
27274W        W98803  27.065   8.605   3.853
27275W        W98804  19.620  33.144   3.306
27276W        W98805   8.306  42.340   3.609
27277W        W98806  10.372  12.801   1.174
27278W        W98807  30.426  42.706  10.649
27279W        W98808   3.824  27.969  13.897
27280W        W98809   8.328  38.738  13.337
27281W        W98810  40.854  43.391  12.346
27282W        W98811   3.419   6.491   2.917
27283W        W98812  15.275   0.285   0.744
27284W        W98813  21.080  14.752   2.803
27285W        W98814   4.489   3.866   0.301
27286W        W98815  20.091  27.516   2.825
27287W        W98816   3.210   7.787   3.288
27288W        W98817  39.436   4.300  10.519
27289W        W98818  12.931  20.821   2.214
27290W        W98819  21.593   2.195  13.769
27291W        W98820   1.443  28.998  10.794
27292W        W98821  10.896  21.581   3.424
27293W        W98822  43.918  19.988  11.888
27294W        W98823  24.946  36.460  12.608
27295W        W98824   7.845   6.218  10.723
27296W        W98825  37.237  43.288  13.602
27297W        W98826  26.274  42.500  11.993
27298W        W98827   9.733  39.708  11.116
27299W        W98828  16.230  38.546  10.663
27300W        W98829  18.720  43.904  14.123
27301W        W98830   6.016  42.385  14.051
27302W        W98831   9.020   0.713  11.101
27303W        W98832  15.586  34.924   2.971
27304W        W98833  27.451  33.722   1.732
27305W        W98834  27.671  17.628  11.167
27306W        W98835  13.371  18.967   0.364
27307W        W98836  23.617  41.097   3.725
27308W        W98837   6.456   9.609  12.078
27309W        W98838   3.814  33.107   4.505
27310W        W98839  41.367  40.017   3.162
27311W        W98840  34.502  29.753  11.626
27312W        W98841   0.540  33.573   3.050
27313W        W98842  25.703  26.550   0.992
27314W        W98843  10.070  34.460   4.515
27315W        W98844  39.817   4.932   1.735
27316W        W98845  11.410  13.486  14.766
27317W        W98846   4.904   6.106   0.809
27318W        W98847  33.366  44.720  10.662
27319W        W98848  14.243  24.687   0.763
27320W        W98849  20.815  35.157  11.458
27321W        W98850  42.110  37.449   2.001
27322W        W98851  24.615  32.867   0.873
27323W        W98852  35.517  12.149   0.767
27324W        W98853  42.419   8.403   4.548
27325W        W98854  18.518   8.790   2.887
27326W        W98855  32.932  39.395  12.793
27327W        W98856  21.633   5.093  11.450
27328W        W98857   2.970  40.551  11.181
27329W        W98858  16.767  29.417  11.494
27330W        W98859   7.985  33.082  12.150
27331W        W98860  16.151  19.096   2.397
27332W        W98861  23.184  22.767   2.900
27333W        W98862  22.179  42.413   0.314
27334W        W98863  22.445   0.405  10.225
27335W        W98864  31.377  13.366  13.380
27336W        W98865  21.735  27.617  12.759
27337W        W98866  30.654   3.366   2.435
27338W        W98867  12.289  15.447   3.985
27339W        W98868   7.146  39.639   1.362
27340W        W98869  37.035  12.641   3.737
27341W        W98870  17.743  19.914   4.675
27342W        W98871  28.033  29.889   0.006
27343W        W98872  13.261   8.842  14.343
27344W        W98873  10.126  43.418   3.262
27345W        W98874  16.646  43.462  12.050
27346W        W98875   6.450   8.642   0.396
27347W        W98876  28.291   8.932  12.777
27348W        W98877  13.083  16.062  10.623
27349W        W98878  15.219  14.287   1.794
27350W        W98879  26.744  16.059  10.654
27351W        W98880  25.612  26.921   3.722
27352W        W98881  24.572  22.619   3.459
27353W        W98882   8.653  26.019  11.640
27354W        W98883  39.655  25.659   3.056
27355W        W98884  42.877  28.050   5.018
27356W        W98885   1.929  26.493   4.755
27357W        W98886   4.363  24.815   1.886
27358W        W98887  30.620   4.275   1.836
27359W        W98888  32.645  41.054   3.849
27360W        W98889  44.200  24.349   3.825
27361W        W98890  25.085   9.803  14.544
27362W        W98891  20.543   4.687   4.704
27363W        W98892  42.468  39.090   2.392
27364W        W98893  39.292  27.364   4.486
27365W        W98894   0.688  37.858   2.791
27366W        W98895   3.206  26.765   1.934
27367W        W98896  29.591  36.849  11.094
27368W        W98897  13.334   6.946   4.069
27369W        W98898  43.597  14.830   2.893
27370W        W98899  44.402  43.279  11.195
27371W        W98900  41.846  14.117   0.976
27372W        W98901  23.179  23.102  11.513
27373W        W98902   2.768  37.715  12.467
27374W        W98903  37.005   1.554   4.096
27375W        W98904   8.694  19.320  11.579
27376W        W98905  37.326  31.317   3.652
27377W        W98906  41.602  35.089   3.764
27378W        W98907  21.080  11.577   1.459
27379W        W98908  28.046  28.521   3.694
27380W        W98909  18.713  44.384  14.819
27381W        W98910  34.500  41.631  13.579
27382W        W98911   0.207  27.484   1.396
27383W        W98912  17.241  44.527  12.561
27384W        W98913  33.325  31.449  12.117
27385W        W98914   4.497  43.637   4.940
27386W        W98915  21.721  11.069   2.903
27387W        W98916  41.440  29.302  11.563
27388W        W98917  10.587  39.168   1.254
27389W        W98918  15.228  25.952  13.396
27390W        W98919  16.222  41.959   2.902
27391W        W98920  25.233   6.743   4.204
27392W        W98921   4.710  20.328  11.445
27393W        W98922  18.076  38.948  12.146
27394W        W98923   6.171  23.820   0.564
27395W        W98924   6.179   4.399   2.728
27396W        W98925   9.547  34.975  13.137
27397W        W98926   2.007  11.355  12.120
27398W        W98927  37.450  17.495   2.772
27399W        W98928  28.980   0.607   3.508
27400W        W98929  21.511  20.690   0.847
27401W        W98930  16.988  23.955  12.379
27402W        W98931  12.361  43.929   4.503
27403W        W98932   4.851  16.645  13.367
27404W        W98933  23.504   8.296   3.297
27405W        W98934  43.310  44.907   3.149
27406W        W98935  28.407  28.498  14.907
27407W        W98936   3.641   2.830  10.410
27408W        W98937  36.086  39.375   2.788
27409W        W98938  19.204  10.148  14.374
27410W        W98939  33.170  36.063   3.245
27411W        W98940  37.266  31.706  14.930
27412W        W98941  42.946  41.260  14.434
27413W        W98942  12.536   7.304  12.375
27414W        W98943  37.855  10.925  11.498
27415W        W98944  37.910   8.969   0.973
27416W        W98945   9.273  16.324   4.574
27417W        W98946   6.953  39.571   1.829
27418W        W98947  13.512  43.971  12.033
27419W        W98948  21.604  19.076  11.908
27420W        W98949  44.926  22.098  11.099
27421W        W98950  29.622  34.121  14.061
27422W        W98951  31.502  31.685  10.894
27423W        W98952  20.605   1.146  12.971
27424W        W98953   5.514  26.527   3.116
27425W        W98954   7.647  32.112  13.428
27426W        W98955  38.961  37.456  12.209
27427W        W98956   9.756  10.405  13.547
27428W        W98957  20.740  44.499   0.230
27429W        W98958   5.312  34.357   1.400
27430W        W98959  44.011   7.685  10.829
27431W        W98960  29.173  16.753   4.251
27432W        W98961  25.727  23.613   5.019
27433W        W98962  10.967  22.469   2.396
27434W        W98963  10.592  30.490   0.940
27435W        W98964  29.620  16.369   0.024
27436W        W98965  27.228  13.215   1.916
27437W        W98966   2.905  30.889  14.347
27438W        W98967  17.284  16.109   2.694
27439W        W98968  23.215  23.574  11.705
27440W        W98969  14.357  20.097  11.622
27441W        W98970  34.840  39.351  14.967
27442W        W98971  13.153  10.101   2.729
27443W        W98972   9.283  41.910   1.279
27444W        W98973  26.259  26.538   0.876
27445W        W98974  38.428  25.232  14.886
27446W        W98975  23.907  27.153   1.894
27447W        W98976  30.149  11.310   4.491
27448W        W98977  32.411  33.213  14.915
27449W        W98978  30.120   2.257   2.605
27450W        W98979  28.483  10.444  12.127
27451W        W98980  39.877  30.932   2.930
27452W        W98981  22.329  34.452  13.811
27453W        W98982   1.552   2.310   0.314
27454W        W98983  40.067  23.875   4.900
27455W        W98984  14.364  29.925   0.440
27456W        W98985   2.252  32.494   3.107
27457W        W98986  28.235  18.785  13.962
27458W        W98987  13.526   8.776   3.287
27459W        W98988   3.373  28.535  14.249
27460W        W98989   4.777   1.169   2.718
27461W        W98990   2.461  24.184   2.220
27462W        W98991  40.795   1.183  11.617
27463W        W98992  34.702  20.682  11.203
27464W        W98993  21.190  17.369   3.167
27465W        W98994  20.509  19.203   4.303
27466W        W98995   4.739  37.023  12.602
27467W        W98996  10.677  23.940   2.661
27468W        W98997  27.892  12.069   1.245
27469W        W98998  30.930   8.254  12.607
27470W        W98999   2.474  34.542  10.270
27471W        W99000  18.739  35.661   3.072
27472W        W99001  17.614  38.871  10.132
27473W        W99002  39.362  26.092  10.955
27474W        W99003  29.490   2.684  11.004
27475W        W99004  23.079  38.966  14.381
27476W        W99005  22.167   6.640   2.389
27477W        W99006   1.831  31.990   4.609
27478W        W99007  27.460  36.522  10.774
27479W        W99008  33.849   9.757   1.900
27480W        W99009  22.039  28.891   3.223
27481W        W99010  31.481  34.357  11.793
27482W        W99011  19.128  28.196   2.219
27483W        W99012   2.392  31.022   3.218
27484W        W99013  14.164  37.636  12.899
27485W        W99014  11.580  14.861  11.863
27486W        W99015  11.928   5.731   3.187
27487W        W99016  38.897  27.970  12.673
27488W        W99017  22.607  38.488   4.601
27489W        W99018   7.624  31.710   2.623
27490W        W99019  42.094  31.141   0.737
27491W        W99020  15.822  10.470   5.397
27492W        W99021  13.601  34.782  13.805
27493W        W99022   4.384  32.726   0.379
27494W        W99023   7.158  17.059   4.497
27495W        W99024   1.060  19.330   3.406
27496W        W99025  12.375  31.880  12.070
27497W        W99026  19.772  28.576  12.951
27498W        W99027  15.209   1.798   3.651
27499W        W99028  27.597  28.659   2.053
27500W        W99029   7.244  28.431  11.621
27501W        W99030  37.463  34.585  14.267
27502W        W99031  10.062  11.825  13.542
27503W        W99032  15.068  41.445   4.268
27504W        W99033  12.113   7.167   0.408
27505W        W99034  23.635   8.080   2.470
27506W        W99035  22.179   0.748  13.940
27507W        W99036  14.080   8.143  12.552
27508W        W99037   3.768  32.065   4.819
27509W        W99038  15.171  20.509  11.877
27510W        W99039   1.546  38.106   4.123
27511W        W99040  43.077   4.063   3.721
27512W        W99041  31.415  34.671   0.217
27513W        W99042   4.506   2.800   4.660
27514W        W99043  19.054  33.363   3.813
27515W        W99044  29.671   8.188  11.858
27516W        W99045  24.202  22.779   2.691
27517W        W99046  32.465   9.205  11.100
27518W        W99047  41.756  10.965  13.265
27519W        W99048  17.082  26.040   3.884
27520W        W99049  19.043  29.767  12.976
27521W        W99050  34.671  29.227   2.804
27522W        W99051   4.843  22.487   2.158
27523W        W99052  32.610  21.131   2.760
27524W        W99053  15.381  10.284  13.428
27525W        W99054  22.513  28.106   4.045
27526W        W99055  30.604  41.544   4.556
27527W        W99056  11.567  34.348   1.198
27528W        W99057  11.613  33.476   0.687
27529W        W99058  31.154   8.920  11.073
27530W        W99059  29.638  43.257   2.695
27531W        W99060  17.789  14.752  11.703
27532W        W99061  21.544  33.700   0.489
27533W        W99062  12.062  23.232  14.780
27534W        W99063  39.739  10.528   4.268
27535W        W99064   5.626  26.038  14.308
27536W        W99065  38.002  16.791   0.274
27537W        W99066  32.950   2.620  12.101
27538W        W99067   0.567  23.160  11.930
27539W        W99068  34.089   9.694   0.490
27540W        W99069  26.424  34.805   2.268
27541W        W99070  36.769  16.659  11.213
27542W        W99071  17.304  26.004   0.333
27543W        W99072  37.849  36.260   1.788
27544W        W99073  43.802  32.362  12.083
27545W        W99074   8.163   9.855   4.528
27546W        W99075  41.907  42.856   2.350
27547W        W99076   5.296   1.479   3.332
27548W        W99077  31.108  37.426   4.422
27549W        W99078  18.689   0.535   0.902
27550W        W99079  18.234  27.912   4.595
27551W        W99080  42.480  10.236   0.701
27552W        W99081  29.649   8.760   3.124
27553W        W99082  32.176   5.061  11.139
27554W        W99083  36.501   5.497  10.603
27555W        W99084  26.345   4.498   4.153
27556W        W99085  13.303  30.042  12.695
27557W        W99086  32.799  40.649   1.997
27558W        W99087  22.652   0.828   2.561
27559W        W99088  11.892  29.783  13.753
27560W        W99089  30.031  40.052  12.518
27561W        W99090  10.634  32.964  14.314
27562W        W99091  19.044  22.982   4.408
27563W        W99092   6.563  35.871  14.994
27564W        W99093  13.676  38.118   3.678
27565W        W99094  38.999  28.586  13.362
27566W        W99095  12.383  22.940   3.390
27567W        W99096   8.634  19.399   3.023
27568W        W99097  28.456  27.525  14.927
27569W        W99098   4.091  39.259  14.363
27570W        W99099  43.812  23.739   2.796
27571W        W99100  15.760  21.217   2.399
27572W        W99101  38.661  35.044  11.711
27573W        W99102  32.600  34.079  14.565
27574W        W99103   4.263  23.316   1.698
27575W        W99104   3.645  27.046  13.819
27576W        W99105   8.604  27.550  12.047
27577W        W99106  34.113  38.493   3.913
27578W        W99107  23.074  28.546  12.907
27579W        W99108  41.219  39.096   4.040
27580W        W99109  13.585  10.198   2.170
27581W        W99110   7.696   8.649  14.413
27582W        W99111  25.710  31.323  14.424
27583W        W99112  11.357  32.589   0.790
27584W        W99113  20.317  32.540  12.035
27585W        W99114  10.757  34.150  11.175
27586W        W99115  25.597  20.260   2.647
27587W        W99116  25.123  29.969   0.696
27588W        W99117  32.956  29.155  11.103
27589W        W99118  23.558   3.240  10.491
27590W        W99119  28.116  28.933   3.382
27591W        W99120  22.941  42.999  12.919
27592W        W99121  34.516  22.500  11.458
27593W        W99122  24.956  24.268   3.511
27594W        W99123  39.422  12.562   1.665
27595W        W99124  24.944  17.305  14.864
27596W        W99125  24.764  37.454  13.929
27597W        W99126  21.549  43.537  14.798
27598W        W99127  18.798  23.732   3.224
27599W        W99128  38.235  28.501   4.539
27600W        W99129  35.118  10.195  12.597
27601W        W99130   1.018   4.785   0.546
27602W        W99131  13.853  24.111   2.297
27603W        W99132  38.965   9.367   4.234
27604W        W99133  30.020   5.315   3.936
27605W        W99134   4.226   3.651  13.959
27606W        W99135   6.887  26.204   3.316
27607W        W99136  31.143   7.416   3.264
27608W        W99137  20.015   8.225  13.541
27609W        W99138  41.530  39.534  12.103
27610W        W99139  22.033   5.889  14.561
27611W        W99140  32.591   3.415  12.649
27612W        W99141  27.869   1.262   3.291
27613W        W99142  34.352  17.408   0.348
27614W        W99143  27.703  25.517  13.284
27615W        W99144  13.708  42.988  14.915
27616W        W99145  38.096  31.601   0.971
27617W        W99146  13.350  24.026   2.343
27618W        W99147  31.990  37.574  11.294
27619W        W99148  41.124  18.411  12.595
27620W        W99149  13.032   8.884   3.247
27621W        W99150  28.866  13.123  11.123
27622W        W99151   2.451  10.283   2.422
27623W        W99152  20.250  41.958  11.465
27624W        W99153   6.217  43.420  14.289
27625W        W99154  27.888  32.254   0.504
27626W        W99155  10.294  27.005  10.631
27627W        W99156  29.579  16.828  11.392
27628W        W99157   1.051  39.932  13.876
27629W        W99158   5.612  12.627  13.002
27630W        W99159  28.082  29.001   2.393
27631W        W99160  40.704  26.977  14.186
27632W        W99161  22.192   2.531   3.269
27633W        W99162   4.168  37.826  11.671
27634W        W99163  33.532  33.088  11.866
27635W        W99164  25.931  37.570  12.956
27636W        W99165  13.378  11.970   1.793
27637W        W99166  10.347  21.573   4.148
27638W        W99167  42.732   9.412   0.019
27639W        W99168  25.281  33.345   5.208
27640W        W99169   5.384  14.325   1.445
27641W        W99170  23.425  36.893  14.920
27642W        W99171  21.180  42.570  11.606
27643W        W99172  34.493  34.347  13.609
27644W        W99173  29.573  21.138  13.340
27645W        W99174   9.597  22.212   0.144
27646W        W99175  26.243  29.070  10.124
27647W        W99176  19.834  35.957  11.092
27648W        W99177  22.499   0.268   1.827
27649W        W99178  33.860  29.615  11.062
27650W        W99179  18.371  27.095  10.510
27651W        W99180  40.530  24.265  11.574
27652W        W99181  32.547  27.969  13.518
27653W        W99182  20.654  34.336  11.164
27654W        W99183  23.031   5.386   1.807
27655W        W99184   7.422  14.229  10.685
27656W        W99185  33.877  17.780  10.526
27657W        W99186  11.059  13.268  14.277
27658W        W99187  20.211   3.440   2.780
27659W        W99188  42.997  11.326  10.534
27660W        W99189   9.494  31.451  11.945
27661W        W99190  23.128  44.291  10.957
27662W        W99191  35.290  25.127   0.833
27663W        W99192   4.197  19.704  13.453
27664W        W99193   5.818  39.851  13.732
27665W        W99194  32.514  37.309  13.931
27666W        W99195   4.388  18.040  13.288
27667W        W99196   6.001  33.582   0.324
27668W        W99197  28.037   5.161   2.226
27669W        W99198  21.174  32.348  13.855
27670W        W99199  42.857  18.684  12.447
27671W        W99200  13.847  30.561  11.319
27672W        W99201   4.007   7.837  14.559
27673W        W99202  16.826   9.118  14.256
27674W        W99203  17.275  24.655  12.330
27675W        W99204  13.163   6.185   4.554
27676W        W99205  14.314  41.129  12.513
27677W        W99206  32.442  38.636  13.293
27678W        W99207  14.308  11.622   0.842
27679W        W99208  15.152   5.356  13.415
27680W        W99209  20.476   1.660  11.108
27681W        W99210   1.345   1.201   4.227
27682W        W99211   5.475   1.178  13.027
27683W        W99212   4.686  36.449  11.072
27684W        W99213  18.607   7.328   0.643
27685W        W99214  27.265  30.971  13.921
27686W        W99215  20.053   2.403  12.069
27687W        W99216  30.600  22.572  12.614
27688W        W99217  30.008  14.624   0.385
27689W        W99218  25.524  22.569   2.096
27690W        W99219  40.020  29.878  12.864
27691W        W99220  22.011  15.349   1.563
27692W        W99221  14.678  30.636   5.277
27693W        W99222  23.499   7.887  14.727
27694W        W99223  24.589   6.426  14.764
27695W        W99224  37.139  19.647   4.792
27696W        W99225  38.282  32.463   0.146
27697W        W99226  19.833  23.170  14.865
27698W        W99227  24.218  28.252  14.420
27699W        W99228  27.075  14.826   3.764
27700W        W99229   8.612  41.150   4.422
27701W        W99230  20.732   2.221   4.693
27702W        W99231  31.546  12.094   0.806
27703W        W99232  40.943  39.350   3.094
27704W        W99233   3.858  18.350   3.528
27705W        W99234  24.487  43.741  12.879
27706W        W99235  15.632  29.640   3.378
27707W        W99236  29.766   7.274   0.353
27708W        W99237  34.305  37.520   3.763
27709W        W99238   4.915  41.775   4.148
27710W        W99239   2.118  40.744  13.534
27711W        W99240  32.464  10.669   3.163
27712W        W99241  14.892  29.695  11.007
27713W        W99242   8.967   0.129  12.568
27714W        W99243  29.392  24.083  14.742
27715W        W99244  38.810  21.136  12.343
27716W        W99245   8.889  42.302  13.861
27717W        W99246  24.779  22.237  13.089
27718W        W99247   2.157  11.987  14.360
27719W        W99248  29.422  37.109   3.183
27720W        W99249  37.684  40.321   2.669
27721W        W99250  19.604   6.451   3.225
27722W        W99251  37.795  40.461   4.122
27723W        W99252  44.816  22.329  14.894
27724W        W99253  24.698  14.076  12.662
27725W        W99254  23.913  43.016  12.760
27726W        W99255  26.905  11.329   2.598
27727W        W99256  36.194  44.296   3.327
27728W        W99257  20.631  11.177  12.999
27729W        W99258   5.931   0.496   0.089
27730W        W99259   3.401  19.149   1.423
27731W        W99260  40.072   9.134   4.299
27732W        W99261   6.288  44.452  14.284
27733W        W99262  30.944  42.720   0.904
27734W        W99263  15.119  17.090  11.995
27735W        W99264   6.410  16.684  10.175
27736W        W99265  38.424  32.613  14.161
27737W        W99266  19.353  32.693   3.246
27738W        W99267   5.845  34.864   2.743
27739W        W99268   5.514  10.409  11.092
27740W        W99269  44.695  20.356   0.709
27741W        W99270  13.902  15.140  11.599
27742W        W99271  33.444   5.827   4.681
27743W        W99272  12.364  22.264  11.210
27744W        W99273  43.220  24.667   2.185
27745W        W99274   0.863  19.089  11.459
27746W        W99275   8.395  38.936   0.791
27747W        W99276   9.201  22.235   0.863
27748W        W99277  21.236  38.429   5.520
27749W        W99278  40.312  12.223   1.276
27750W        W99279  38.042  34.251  13.537
27751W        W99280  42.702  15.319   4.857
27752W        W99281  41.455  27.809   0.791
27753W        W99282  42.925  44.058  14.395
27754W        W99283   5.226  44.071   1.753
27755W        W99284  21.224   4.313  13.926
27756W        W99285  34.353  14.926   3.353
27757W        W99286  30.579  24.683  11.502
27758W        W99287  29.593  36.027  14.777
27759W        W99288  20.222  29.300  12.418
27760W        W99289  12.654  42.000   3.716
27761W        W99290   3.959  35.669  11.387
27762W        W99291   7.960  15.838  13.505
27763W        W99292  36.964  21.470   1.172
27764W        W99293  35.357  28.483   1.988
27765W        W99294  42.353  41.514   1.996
27766W        W99295   4.735  14.808   2.082
27767W        W99296   6.147  17.624  14.331
27768W        W99297  37.375   2.959   2.714
27769W        W99298  15.946  30.866   2.022
27770W        W99299  42.978  41.866  13.069
27771W        W99300  10.258   3.549  12.022
27772W        W99301  44.753  29.904  12.486
27773W        W99302  10.946  42.598   2.831
27774W        W99303  19.552  32.359  11.112
27775W        W99304  25.739   2.576  12.446
27776W        W99305   1.700   2.160  14.327
27777W        W99306  34.772   0.595  12.674
27778W        W99307  31.049   0.312  13.807
27779W        W99308  34.051  39.707  11.080
27780W        W99309  31.140  37.046  12.399
27781W        W99310  26.963  35.242   1.152
27782W        W99311  44.553  25.307  13.445
27783W        W99312  26.366  13.779   4.056
27784W        W99313  16.286  18.647  11.382
27785W        W99314  43.465  33.428   0.330
27786W        W99315  11.965  22.502  10.986
27787W        W99316  27.774  36.952   3.600
27788W        W99317   7.795  17.604  11.552
27789W        W99318  37.988  30.460   4.577
27790W        W99319  32.106  27.205  13.135
27791W        W99320   4.336  30.877   3.740
27792W        W99321   9.265  30.978  11.943
27793W        W99322  33.584  43.498   3.718
27794W        W99323  25.742   7.222   0.396
27795W        W99324  33.845   9.736   4.669
27796W        W99325   6.447   6.842   2.455
27797W        W99326  23.027   6.156  12.530
27798W        W99327  40.558  37.912  14.530
27799W        W99328  26.177  14.014   0.354
27800W        W99329  18.253  41.951   0.602
27801W        W99330  42.850   7.938  10.567
27802W        W99331  20.404  34.943   3.339
27803W        W99332  28.113   2.380  10.778
27804W        W99333  29.754  36.302   1.684
27805W        W99334   8.409  13.535   2.845
27806W        W99335  41.572  32.426   3.225
27807W        W99336  12.146  30.966   0.343
27808W        W99337   5.818  11.156   4.580
27809W        W99338   4.203   9.281   3.713
27810W        W99339  42.998  38.693   5.137
27811W        W99340  33.382  33.285   3.741
27812W        W99341  37.472  18.709   3.623
27813W        W99342  31.009  15.887   4.888
27814W        W99343  35.952  25.236   0.127
27815W        W99344  43.370  41.603   2.849
27816W        W99345   8.133  15.266  14.834
27817W        W99346  29.916  43.179  14.925
27818W        W99347  27.310  34.181  11.596
27819W        W99348  38.758  38.888  11.219
27820W        W99349   7.431   4.923   3.379
27821W        W99350  32.124  22.484  13.995
27822W        W99351  39.409  26.392   3.319
27823W        W99352  37.302  11.279  13.747
27824W        W99353  23.757   7.981   2.949
27825W        W99354   7.729  36.608  14.056
27826W        W99355  37.389  35.511   4.326
27827W        W99356  14.837   4.625  11.927
27828W        W99357  10.076   2.417  14.470
27829W        W99358  18.679  38.404   0.863
27830W        W99359  22.728  25.004   3.760
27831W        W99360   8.160   5.846  11.032
27832W        W99361  12.350   6.729   3.203
27833W        W99362  40.700  21.134  14.541
27834W        W99363   6.264  23.281  12.986
27835W        W99364   9.273  22.842  12.667
27836W        W99365  36.287  35.844  13.591
27837W        W99366  27.519  25.726  11.083
27838W        W99367   2.462  33.187  14.758
27839W        W99368  41.324  31.686   2.353
27840W        W99369   6.972  44.316  14.934
27841W        W99370   1.367  26.654   1.765
27842W        W99371  27.072  23.692   0.316
27843W        W99372  25.427  37.599  13.218
27844W        W99373  13.771  31.429  12.398
27845W        W99374  15.220  33.436   3.711
27846W        W99375  40.509   7.659   4.052
27847W        W99376   1.308  14.595  14.751
27848W        W99377  44.538  35.606  14.120
27849W        W99378  13.261  11.108  13.593
27850W        W99379  19.400  10.675  10.406
27851W        W99380  15.926   9.592   0.939
27852W        W99381  31.024  26.481   0.770
27853W        W99382  32.749  41.155  14.332
27854W        W99383   8.611  38.435   3.721
27855W        W99384  11.763  44.489   1.829
27856W        W99385  18.733  38.832  14.993
27857W        W99386  31.632  10.345  13.851
27858W        W99387  15.658  11.377  14.022
27859W        W99388  19.412  17.072   4.183
27860W        W99389  13.795  16.583   3.168
27861W        W99390  30.423  29.523   3.213
27862W        W99391  34.966  33.886  11.108
27863W        W99392   5.085   3.658  12.412
27864W        W99393  33.402   2.330   0.652
27865W        W99394  22.502  24.396   0.306
27866W        W99395  39.712   6.771   1.387
27867W        W99396  26.598  31.938  10.440
27868W        W99397  37.965  41.905   4.518
27869W        W99398  12.153   3.261   2.716
27870W        W99399  20.150  10.871   3.205
27871W        W99400  36.563   9.881  10.421
27872W        W99401  42.126  16.228   1.547
27873W        W99402  42.735  27.718   4.444
27874W        W99403  42.564  27.997   2.828
27875W        W99404  42.999  41.852  10.747
27876W        W99405  11.067   6.334  14.508
27877W        W99406  26.895   7.775  11.527
27878W        W99407  29.127   2.231  13.198
27879W        W99408   2.127  20.417  12.980
27880W        W99409   5.038   0.897   0.263
27881W        W99410  33.586   8.263  13.305
27882W        W99411   6.814  44.605  14.530
27883W        W99412  20.245   4.840   4.309
27884W        W99413  25.000  33.001   0.164
27885W        W99414  43.848  35.137   2.959
27886W        W99415  30.998  23.794   3.201
27887W        W99416  18.588  43.467  11.293
27888W        W99417  18.709  11.239  10.717
27889W        W99418  26.588  43.335  11.665
27890W        W99419   3.776  30.933  14.329
27891W        W99420  43.095  42.818   1.268
27892W        W99421   9.374  43.425   0.734
27893W        W99422  38.540  11.905  10.745
27894W        W99423  10.953  36.949  11.219
27895W        W99424  27.988   2.494  13.448
27896W        W99425   2.321   5.362   1.474
27897W        W99426   1.723  42.412  11.157
27898W        W99427  37.190  37.829   1.909
27899W        W99428   8.238   9.398  11.958
27900W        W99429  19.927  27.951   5.035
27901W        W99430  18.312  31.212   4.658
27902W        W99431  20.016  37.846   3.250
27903W        W99432  27.447   3.329   2.729
27904W        W99433  32.601  15.505  12.676
27905W        W99434   3.025   6.788   3.634
27906W        W99435  25.587  13.214   4.590
27907W        W99436  14.341  26.315  13.070
27908W        W99437  44.479   1.992   1.405
27909W        W99438  43.750  27.739   4.135
27910W        W99439  35.462   7.813  11.219
27911W        W99440  16.998  25.930  14.355
27912W        W99441  30.953  37.263  12.879
27913W        W99442  36.625  23.156   2.194
27914W        W99443   3.393  11.215  13.767
27915W        W99444   2.698  19.709   2.724
27916W        W99445  27.149   3.918  13.319
27917W        W99446   9.247  39.913  11.199
27918W        W99447  11.867  36.236  11.622
27919W        W99448  44.969   8.273  12.971
27920W        W99449   6.869  28.486   4.748
27921W        W99450   8.339  18.485  13.173
27922W        W99451  33.041   7.433  12.577
27923W        W99452  29.551  26.434   3.615
27924W        W99453   7.339  33.055   1.435
27925W        W99454  25.159   6.016  11.510
27926W        W99455  17.368   9.923  10.048
27927W        W99456  16.863  33.045  13.596
27928W        W99457  39.868  42.305  13.590
27929W        W99458  22.132  39.656   2.693
27930W        W99459  28.087  10.825   0.090
27931W        W99460  24.588  13.309   4.809
27932W        W99461  42.814  41.066  13.966
27933W        W99462   5.972  31.282  14.416
27934W        W99463  44.429   4.865   1.432
27935W        W99464  26.099  19.147  12.007
27936W        W99465  11.979  14.154   3.753
27937W        W99466  14.131  35.410   0.830
27938W        W99467  15.581  43.994   3.620
27939W        W99468  32.328  11.596   2.787
27940W        W99469  23.263  31.031   0.419
27941W        W99470  15.233  35.412  10.708
27942W        W99471  20.132   0.310  14.967
27943W        W99472  43.051  16.489  12.479
27944W        W99473  21.559  33.564  14.017
27945W        W99474  41.880  23.778   2.741
27946W        W99475  23.304   3.744   1.439
27947W        W99476   7.757  10.688  13.302
27948W        W99477  35.449   5.197  12.979
27949W        W99478  30.032  16.445   2.763
27950W        W99479  40.337  42.019  13.288
27951W        W99480  17.714  33.197   2.187
27952W        W99481  25.010  35.864   4.912
27953W        W99482  32.499   4.078  11.042
27954W        W99483  26.083   4.164   1.259
27955W        W99484  32.874  27.428  11.985
27956W        W99485  41.846  18.014   1.716
27957W        W99486  30.578  37.949   3.940
27958W        W99487  35.283  25.456  12.656
27959W        W99488  10.306  32.956   2.369
27960W        W99489  12.418  16.639  13.897
27961W        W99490  17.744  40.007  14.754
27962W        W99491   4.431  11.195  14.053
27963W        W99492   1.719  37.523   1.240
27964W        W99493  37.285  33.776   3.643
27965W        W99494  32.878  18.741   1.662
27966W        W99495  44.964   2.217  11.450
27967W        W99496  36.847  33.372  12.926
27968W        W99497  25.145  24.862  12.327
27969W        W99498   8.793  12.764   1.749
27970W        W99499  22.809  11.898   1.815
27971W        W99500  39.001  22.403  13.441
27972W        W99501  30.593   6.542  11.028
27973W        W99502   9.688  15.328   3.802
27974W        W99503  44.731  23.979   1.374
27975W        W99504  35.847  24.836  10.783
27976W        W99505   9.857  29.912   2.912
27977W        W99506  18.946   3.405   3.262
27978W        W99507  28.932  17.521   1.345
27979W        W99508  19.253   7.300   2.660
27980W        W99509  35.086  21.067   1.468
27981W        W99510  27.028  32.956  13.816
27982W        W99511  34.012  43.814   4.374
27983W        W99512  33.504  15.150   4.319
27984W        W99513  27.986   1.721  12.967
27985W        W99514   0.475  39.516  12.430
27986W        W99515  23.199  24.509  11.612
27987W        W99516  35.521  19.490   2.778
27988W        W99517  30.692  38.560  13.662
27989W        W99518  31.992   7.663  13.993
27990W        W99519  34.900  19.578  11.502
27991W        W99520   1.659  35.186  13.969
27992W        W99521  30.950  30.938  13.360
27993W        W99522   0.788   1.173   3.068
27994W        W99523  41.809  27.422   4.768
27995W        W99524  26.582  28.159  10.315
27996W        W99525  27.233   0.468  14.907
27997W        W99526  43.035  40.250  12.631
27998W        W99527  15.360  19.578  11.084
27999W        W99528  19.220  22.389  12.115
28000W        W99529  18.833  11.710  13.757
28001W        W99530  23.092   9.127  13.360
28002W        W99531  44.057   1.011  12.805
28003W        W99532  31.378  17.736  12.836
28004W        W99533  37.922  24.637   1.814
28005W        W99534  11.363  27.126   4.040
28006W        W99535  14.927   9.350  11.617
28007W        W99536  32.570  30.461  11.170
28008W        W99537   0.329   1.381  11.238
28009W        W99538  34.683   9.915  14.284
28010W        W99539  14.215  32.174  10.823
28011W        W99540  20.476  27.954   1.672
28012W        W99541  25.689  42.281  14.735
28013W        W99542   2.677  25.501  13.872
28014W        W99543  22.644  29.689   0.795
28015W        W99544  16.780  22.515   3.318
28016W        W99545   5.910  23.444   2.290
28017W        W99546   9.631  28.089  12.595
28018W        W99547   2.522  17.674   0.345
28019W        W99548  23.956  12.106   2.852
28020W        W99549  32.496   5.080   2.823
28021W        W99550   5.255  44.599   1.731
28022W        W99551   3.080  25.276   2.795
28023W        W99552  30.217   5.283  12.529
28024W        W99553  23.180  41.002  12.090
28025W        W99554  21.991   8.583   4.051
28026W        W99555  11.477  32.730  11.591
28027W        W99556  40.881   6.170   4.110
28028W        W99557  28.972  21.111  12.481
28029W        W99558   0.529   4.208  14.507
28030W        W99559   9.901  25.780   1.490
28031W        W99560  10.733  13.035  11.170
28032W        W99561  42.081   6.352  14.462
28033W        W99562   7.522  40.380   2.621
28034W        W99563  27.428  38.972  11.083
28035W        W99564  38.084  15.636   4.264
28036W        W99565  21.074  27.125  14.316
28037W        W99566   1.069  27.962  13.397
28038W        W99567  30.689  16.632  11.583
28039W        W99568   7.309  19.580  13.900
28040W        W99569  13.188  38.700  13.971
28041W        W99570  17.694  10.343  10.637
28042W        W99571   3.291  35.596   4.553
28043W        W99572  39.468  32.610  11.305
28044W        W99573   2.329  32.825  13.866
28045W        W99574  20.812  10.390  14.752
28046W        W99575  43.902  28.109   2.379
28047W        W99576   3.683   2.949  11.528
28048W        W99577   9.701  22.166  13.794
28049W        W99578  35.225  22.485   4.772
28050W        W99579  12.418  10.620   0.316
28051W        W99580   4.880  17.689   0.607
28052W        W99581  28.756  17.740   1.806
28053W        W99582  41.028  15.772  14.343
28054W        W99583   6.815  38.212   4.516
28055W        W99584   5.692  39.330   1.299
28056W        W99585  37.417  18.818   2.176
28057W        W99586  36.430  34.430   1.025
28058W        W99587   3.502  23.693  12.669
28059W        W99588  40.994  30.082   3.552
28060W        W99589  40.818   2.151  12.130
28061W        W99590  41.539  16.752  12.585
28062W        W99591  32.687  16.404   2.744
28063W        W99592  18.888  17.182   4.418
28064W        W99593  30.437  40.118  11.151
28065W        W99594  22.914  37.803  14.483
28066W        W99595  36.094  20.284  14.029
28067W        W99596   7.609  28.746  10.711
28068W        W99597  33.489  40.416   1.665
28069W        W99598  24.760  26.547  14.752
28070W        W99599  14.259  14.702   3.226
28071W        W99600  17.421   6.436  14.464
28072W        W99601  37.758  29.391   3.824
28073W        W99602  12.920  39.564  13.971
28074W        W99603  35.029  24.435   4.433
28075W        W99604  11.479  24.487   1.347
28076W        W99605  22.145  28.523  11.673
28077W        W99606  36.353  28.439  14.889
28078W        W99607   5.876  40.362  13.772
28079W        W99608  29.973  33.946   0.726
28080W        W99609  37.223  27.178  11.129
28081W        W99610  13.888  33.996   3.150
28082W        W99611  13.734  18.733  13.578
28083W        W99612   2.048  36.127  13.149
28084W        W99613  27.672  30.603   2.156
28085W        W99614  31.840   5.906  10.727
28086W        W99615  38.905  30.555  11.742
28087W        W99616  29.605  19.734   1.807
28088W        W99617  23.177  41.515   3.303
28089W        W99618  13.816   4.295   4.678
28090W        W99619   9.205   4.979  12.579
28091W        W99620  11.605  37.537   2.192
28092W        W99621   6.732  13.449   2.405
28093W        W99622  23.876  32.753   1.899
28094W        W99623  18.094  27.339   2.253
28095W        W99624  21.341  16.044  14.676
28096W        W99625  41.919   4.163   0.486
28097W        W99626  37.511  19.407   1.273
28098W        W99627   3.211  38.897  13.950
28099W        W99628  23.751  30.151   1.319
28100W        W99629  38.970  27.402   2.642
28101W        W99630   6.454  13.680   4.302
28102W        W99631  31.164  42.465  12.109
28103W        W99632  28.697   5.501   0.356
28104W        W99633  39.705  17.177   4.985
28105W        W99634   2.782   2.882   3.155
28106W        W99635  41.265  25.698  13.542
28107W        W99636   5.102  27.632   1.811
28108W        W99637  38.097  31.798  14.337
28109W        W99638  26.211  40.990  12.906
28110W        W99639  17.616   3.463  13.965
28111W        W99640  30.715  13.487  11.434
28112W        W99641  36.497  22.918   0.240
28113W        W99642   6.668   3.285   1.860
28114W        W99643  35.694  13.072  11.325
28115W        W99644  43.760   9.184   2.333
28116W        W99645  13.283   0.495   3.136
28117W        W99646  36.391  35.886   4.172
28118W        W99647  29.633   9.420   0.686
28119W        W99648  42.343  16.072  12.733
28120W        W99649  24.517  26.750   1.147
28121W        W99650  19.658  30.419   1.921
28122W        W99651   3.182   4.006  14.897
28123W        W99652   0.860  32.316   3.640
28124W        W99653  10.051   6.801   3.771
28125W        W99654  23.617  39.528   2.029
28126W        W99655  29.925  20.114   4.638
28127W        W99656  30.206   1.390  12.153
28128W        W99657  38.272  22.277   4.058
28129W        W99658   5.718  11.537   2.825
28130W        W99659   3.638  15.859  12.603
28131W        W99660  30.090   2.981  12.832
28132W        W99661  29.499   6.622   3.683
28133W        W99662  24.105  35.126   3.164
28134W        W99663  27.044   8.117   4.764
28135W        W99664   0.234   9.556   4.371
28136W        W99665   6.812  26.517   1.077
28137W        W99666  20.820  14.350  10.719
28138W        W99667   5.356  35.942  10.740
28139W        W99668  36.868  25.104   1.278
28140W        W99669  18.656  25.366   1.288
28141W        W99670   5.852  42.751   4.943
28142W        W99671  21.064  13.814   0.674
28143W        W99672  30.955  30.970  10.745
28144W        W99673  24.457   1.009  13.511
28145W        W99674  38.384  18.804   2.675
28146W        W99675  35.641   0.272   2.306
28147W        W99676  27.754  42.299  13.100
28148W        W99677   6.210  17.477   0.344
28149W        W99678  19.312   5.283   2.735
28150W        W99679  15.630   9.853  13.210
28151W        W99680   3.897  41.318  10.695
28152W        W99681  40.065  38.327   0.719
28153W        W99682  28.568  38.036  14.000
28154W        W99683  13.140   4.227  11.503
28155W        W99684  41.879  10.470   3.593
28156W        W99685  12.348  39.180   1.457
28157W        W99686   4.130   1.594  12.902
28158W        W99687  41.197   7.209  14.532
28159W        W99688  21.331  41.687   9.886
28160W        W99689  30.482   6.266  11.485
28161W        W99690  13.263  19.144   1.383
28162W        W99691  15.807  39.957  10.696
28163W        W99692  18.582  26.715   1.428
28164W        W99693  11.134  25.123   2.444
28165W        W99694  41.864  41.714   4.057
28166W        W99695   4.362  16.705  13.490
28167W        W99696   7.373   7.676   4.316
28168W        W99697  30.515  27.555  14.493
28169W        W99698  18.810  33.963   2.714
28170W        W99699  14.070  12.134  14.512
28171W        W99700  30.236   5.815  12.488
28172W        W99701  28.481  16.673  12.888
28173W        W99702   0.117  33.451  14.338
28174W        W99703   3.452  39.913   3.464
28175W        W99704  28.659  20.716  10.753
28176W        W99705  17.104  18.596   5.127
28177W        W99706  31.674  43.139  10.663
28178W        W99707  40.595  24.616  12.527
28179W        W99708  42.935  16.996  12.540
28180W        W99709   7.229  35.682   3.249
28181W        W99710  28.004  18.341  14.284
28182W        W99711  37.490  15.361  10.825
28183W        W99712   7.130  16.974   1.827
28184W        W99713  21.653  13.802   3.775
28185W        W99714  17.990   9.435  12.757
28186W        W99715  14.693  12.931   1.159
28187W        W99716  12.042  10.403  10.209
28188W        W99717  36.855  37.564  11.417
28189W        W99718  21.613  21.208   0.926
28190W        W99719  31.942  34.178   0.870
28191W        W99720  32.378  43.723  10.023
28192W        W99721  39.231  17.240   5.384
28193W        W99722  26.447  12.161   0.278
28194W        W99723  37.952   5.764   3.599
28195W        W99724   3.594   2.785  13.459
28196W        W99725  39.633  36.477   0.472
28197W        W99726   0.743  41.037   0.862
28198W        W99727  30.678  17.205   2.692
28199W        W99728  20.840  24.979   3.164
28200W        W99729  21.683  21.003  13.964
28201W        W99730  11.846   1.475   0.410
28202W        W99731  29.187   1.913   3.484
28203W        W99732  10.540  12.586   2.097
28204W        W99733  33.893  31.395  13.858
28205W        W99734  41.081  13.344  14.425
28206W        W99735  10.731   5.265   0.934
28207W        W99736   9.367  10.858   3.675
28208W        W99737  35.833  44.314  12.450
28209W        W99738  28.392  44.437   2.840
28210W        W99739  30.617  19.290   0.482
28211W        W99740  41.937  36.352  12.984
28212W        W99741  41.950  13.645  12.322
28213W        W99742   4.918  22.757  14.737
28214W        W99743   1.676  38.614   4.177
28215W        W99744  26.103  14.683   4.196
28216W        W99745  12.242  10.831  13.991
28217W        W99746  10.846   2.792  13.329
28218W        W99747  43.770  24.068   3.745
28219W        W99748  21.176   8.364   4.696
28220W        W99749  43.904  13.561  11.154
28221W        W99750   8.784  15.270  13.162
28222W        W99751   8.503  30.014  12.397
28223W        W99752  28.899  16.256   1.938
28224W        W99753   1.885  12.152  11.637
28225W        W99754  24.977  19.146   0.320
28226W        W99755  36.376  41.850   3.783
28227W        W99756   8.845  15.874  13.355
28228W        W99757  10.852  33.490   2.930
28229W        W99758  17.265  43.430  13.091
28230W        W99759  13.564  44.502  14.251
28231W        W99760  24.526  42.643   3.176
28232W        W99761  12.411  33.591  11.389
28233W        W99762  32.029  20.796  12.450
28234W        W99763   0.998  18.791   3.408
28235W        W99764  10.463  33.467  11.995
28236W        W99765  21.672  11.636  14.334
28237W        W99766  12.567  11.229   4.053
28238W        W99767   5.583  23.911   3.118
28239W        W99768  38.512   2.357  14.715
28240W        W99769  10.087  28.612   3.640
28241W        W99770  18.257   6.808   0.567
28242W        W99771   9.839  36.852   2.722
28243W        W99772  21.963  17.664  10.928
28244W        W99773  23.956  32.363   2.747
28245W        W99774  13.900  20.216   5.053
28246W        W99775  10.686  31.917   4.624
28247W        W99776  19.458  11.097  11.178
28248W        W99777  17.488   7.725  10.746
28249W        W99778   6.195   8.545  13.660
28250W        W99779  25.119  44.122  10.672
28251W        W99780  31.792  41.344   3.835
28252W        W99781  14.324   9.896   1.754
28253W        W99782  25.978  42.854  13.923
28254W        W99783   5.304  44.320   1.290
28255W        W99784  16.255   1.913  11.473
28256W        W99785  30.922  21.188  12.991
28257W        W99786  21.564  42.034  13.034
28258W        W99787  20.131   4.213  11.497
28259W        W99788  35.505  10.686  11.873
28260W        W99789  21.307  40.029  11.474
28261W        W99790  22.521  17.555   0.754
28262W        W99791  34.454  12.350   0.220
28263W        W99792   5.202  42.697  10.918
28264W        W99793  42.815  42.904   1.715
28265W        W99794   3.159  40.048  11.545
28266W        W99795  41.476  12.648   3.438
28267W        W99796  21.388   3.379  13.928
28268W        W99797  23.281  24.958   4.060
28269W        W99798  15.191  34.897   3.795
28270W        W99799   4.757  37.693  14.498
28271W        W99800   7.739  32.977   4.732
28272W        W99801  10.568  39.241  10.693
28273W        W99802  19.763  11.596   1.790
28274W        W99803   0.371  20.970  13.979
28275W        W99804   5.861  24.980   3.720
28276W        W99805  40.121   2.372   0.908
28277W        W99806  21.169  36.225  11.518
28278W        W99807  15.735  42.998  10.646
28279W        W99808  36.488  42.972   1.203
28280W        W99809  39.003  42.705   3.180
28281W        W99810  17.464  43.745   2.947
28282W        W99811  23.275  25.049  14.341
28283W        W99812  22.596  15.058  11.298
28284W        W99813   1.249  18.076   3.401
28285W        W99814  21.641  44.297   1.846
28286W        W99815  17.298  30.101   1.928
28287W        W99816   4.509   5.479   2.938
28288W        W99817  13.207  29.075   3.583
28289W        W99818  26.996   6.424  11.896
28290W        W99819  22.648  11.284  11.180
28291W        W99820  12.465  38.940  14.438
28292W        W99821   7.367   7.390   0.770
28293W        W99822  40.767  24.012   0.306
28294W        W99823  22.545   4.608  11.509
28295W        W99824  24.557  12.235   4.592
28296W        W99825  26.467  32.334   1.326
28297W        W99826   1.744  15.653   2.368
28298W        W99827  21.068   6.207   1.597
28299W        W99828   7.633  29.483  13.834
28300W        W99829  20.639  14.029  12.442
28301W        W99830  23.605  10.279   1.604
28302W        W99831  20.284  17.614  11.242
28303W        W99832  20.816  34.447  12.541
28304W        W99833   1.999  25.485  14.567
28305W        W99834  42.677  27.043   4.054
28306W        W99835   8.640  34.413   3.870
28307W        W99836  15.425  29.688  10.915
28308W        W99837  38.908   1.555  11.976
28309W        W99838  38.992   5.354  14.014
28310W        W99839  36.368  43.411  14.168
28311W        W99840  23.998   4.431   4.071
28312W        W99841   1.328  21.487  13.034
28313W        W99842  16.534  20.111   3.271
28314W        W99843  27.259  33.199   0.883
28315W        W99844  25.164   8.689  12.530
28316W        W99845   3.686   2.272  10.498
28317W        W99846  38.051   2.326  14.459
28318W        W99847  17.325  25.680  12.517
28319W        W99848  34.038  20.228   4.386
28320W        W99849  37.807  30.185   4.178
28321W        W99850  20.979   0.300  14.976
28322W        W99851  25.493  29.107   2.812
28323W        W99852  44.225   0.863  10.682
28324W        W99853  43.213  24.759  12.702
28325W        W99854  23.179  26.706   0.332
28326W        W99855  14.458  10.734  14.367
28327W        W99856  41.273  40.266   0.987
28328W        W99857  34.451  10.301  11.651
28329W        W99858  17.540   9.042   0.416
28330W        W99859  17.274  32.104   4.599
28331W        W99860  36.730   4.756   0.339
28332W        W99861  29.167  43.677  14.561
28333W        W99862  25.115  22.185  14.394
28334W        W99863  36.313  32.057   5.008
28335W        W99864  42.331  31.700  13.097
28336W        W99865  36.152   1.483   3.665
28337W        W99866  17.559  16.289   0.817
28338W        W99867  13.292   7.614   3.714
28339W        W99868  39.903   3.869  11.512
28340W        W99869   9.380  44.196  11.494
28341W        W99870  27.795  22.255  12.202
28342W        W99871  36.933  30.215  11.987
28343W        W99872  10.041  41.027   2.777
28344W        W99873   5.588   7.614  11.603
28345W        W99874  13.754  35.965  11.465
28346W        W99875  16.378   4.604  14.301
28347W        W99876  34.104  10.755  14.813
28348W        W99877  32.362  17.187  13.251
28349W        W99878   1.054   3.408  14.356
28350W        W99879   9.335  33.773   4.371
28351W        W99880  31.489  26.771   1.898
28352W        W99881   4.195  11.590   1.864
28353W        W99882  30.880  24.146   0.942
28354W        W99883  38.125  22.170   2.587
28355W        W99884  18.156  19.667   2.688
28356W        W99885  41.252  29.899  14.706
28357W        W99886   3.895  32.738   9.709
28358W        W99887  42.834  31.652  11.518
28359W        W99888  19.004   8.220  14.493
28360W        W99889  15.662  36.660  10.519
28361W        W99890  35.070  30.419  11.121
28362W        W99891  36.990   8.147  11.708
28363W        W99892  26.179  15.283   4.350
28364W        W99893   4.891  17.577  13.820
28365W        W99894  19.560   3.404   4.127
28366W        W99895   2.414  41.950   3.269
28367W        W99896   0.507   5.622   9.906
28368W        W99897  19.797  37.789   4.752
28369W        W99898  35.308  22.267  14.181
28370W        W99899  17.535   9.589  14.463
28371W        W99900  11.126  30.939   3.612
28372W        W99901   6.642  11.571   0.446
28373W        W99902  43.409  26.534  12.363
28374W        W99903   5.984  35.261   4.917
28375W        W99904  10.732  32.057  12.889
28376W        W99905  26.425  18.677   3.923
28377W        W99906  21.281  36.458   1.224
28378W        W99907  36.591   9.444   4.520
28379W        W99908  15.591  15.248  10.651
28380W        W99909  10.815  25.702   3.163
28381W        W99910  12.707  23.359   3.342
28382W        W99911  15.956   7.052   1.215
28383W        W99912  19.356  38.225   2.532
28384W        W99913  35.569  38.039   1.398
28385W        W99914  43.746  24.453   2.069
28386W        W99915  27.138   8.147  12.832
28387W        W99916  43.515  37.483  14.322
28388W        W99917   3.299  35.057  13.032
28389W        W99918  19.488  43.640  11.505
28390W        W99919  16.752   5.709  11.525
28391W        W99920  19.097  14.145  12.504
28392W        W99921  10.937  20.741  11.543
28393W        W99922   6.482  41.266  12.163
28394W        W99923  22.220  23.048  10.424
28395W        W99924  44.258  20.673  14.005
28396W        W99925  38.387  43.822   0.389
28397W        W99926  11.154   4.374   1.174
28398W        W99927  38.787  16.388  12.977
28399W        W99928  43.481   2.681  14.011
28400W        W99929  35.163  43.679  10.747
28401W        W99930  35.588  25.497  13.067
28402W        W99931  35.318  29.574   3.807
28403W        W99932  24.113  25.075  10.319
28404W        W99933   9.735  20.175  12.923
28405W        W99934  40.530   3.956  10.708
28406W        W99935  15.047  24.332   3.651
28407W        W99936   9.291  36.868  14.796
28408W        W99937  19.495   1.392   2.460
28409W        W99938  31.126  32.210  10.047
28410W        W99939  24.160  10.374   3.572
28411W        W99940   6.912  30.570  14.394
28412W        W99941  35.735  15.773   1.166
28413W        W99942  41.844  30.602   4.699
28414W        W99943   4.703  41.965   0.523
28415W        W99944   2.245  36.146   3.752
28416W        W99945  10.633  18.925   1.473
28417W        W99946  32.799  37.361  11.557
28418W        W99947  13.707  18.211  13.533
28419W        W99948   3.506  16.355  13.743
28420W        W99949  33.854  17.646   4.905
28421W        W99950  36.535   4.316   3.202
28422W        W99951  15.858  26.442   1.330
28423W        W99952  17.584   2.466   4.152
28424W        W99953   9.792  10.087  12.730
28425W        W99954  27.177  12.580   4.368
28426W        W99955  43.749  18.057   0.854
28427W        W99956  26.624  31.764  14.222
28428W        W99957  36.378  17.011   0.035
28429W        W99958  23.179  10.949   0.290
28430W        W99959  43.318  37.039   0.630
28431W        W99960  23.062  18.968  13.257
28432W        W99961  16.600  29.438   1.838
28433W        W99962  37.326  36.096   1.805
28434W        W99963  13.238   1.028   4.102
28435W        W99964  14.282   9.638   3.137
28436W        W99965  44.229  13.777  13.639
28437W        W99966   7.501  28.651   4.337
28438W        W99967  11.597   9.756  11.671
28439W        W99968   6.363  28.074   0.297
28440W        W99969  41.947  31.632   2.636
28441W        W99970   3.915  28.215   3.125
28442W        W99971  34.586   3.966   0.049
28443W        W99972   8.677  18.374  11.893
28444W        W99973  32.685   4.395   0.072
28445W        W99974  19.599  29.122   0.366
28446W        W99975  25.830  42.583  13.322
28447W        W99976   9.256   7.387  10.701
28448W        W99977  26.589  21.985  11.961
28449W        W99978   1.136   6.759  11.320
28450W        W99979  13.331  35.532  13.471
28451W        W99980  37.772  25.195   4.651
28452W        W99981   1.964  35.382  11.517
28453W        W99982  27.878  21.062   1.428
28454W        W99983   5.713  14.294   4.032
28455W        W99984  35.364   7.766  13.540
28456W        W99985   7.358   8.374   1.606
28457W        W99986  33.354   3.859  13.938
28458W        W99987  20.035  33.393  14.426
28459W        W99988  27.757  31.018  13.731
28460W        W99989  32.991  13.059  13.532
28461W        W99990  13.578  28.901  12.045
28462W        W99991  42.267   0.857   3.430
28463W        W99992   4.563   4.181  14.879
28464W        W99993  25.824  23.780  14.495
28465W        W99994  11.762  42.885   2.244
28466W        W99995  38.522  30.861   3.358
28467W        W99996   7.195  22.282  13.532
28468W        W99997  10.247  28.157   4.097
28469W        W99998   9.121  40.809  12.199
28470W        W99999   5.273   1.359   4.912
28471W        W    0  38.342  34.882   0.334
28472W        W    1  30.466   6.744   2.719
28473W        W    2   1.715  17.600  12.982
28474W        W    3  37.941  16.256   1.140
28475W        W    4  18.542  19.231   2.686
28476W        W    5   0.220  18.647   4.592
28477W        W    6  21.785  14.300   3.764
28478W        W    7   1.144   9.373  12.947
28479W        W    8  39.929  26.963   2.227
28480W        W    9   5.496  24.388   3.355
28481W        W   10  33.920   8.838   1.691
28482W        W   11  36.660   8.175  14.847
28483W        W   12  34.207  22.147   0.507
28484W        W   13  28.381  24.991  11.170
28485W        W   14  20.473   4.392  14.407
28486W        W   15   0.957  22.710   2.358
28487W        W   16  35.353  11.869   0.054
28488W        W   17  19.557  28.709  14.453
28489W        W   18  18.892  18.209   3.729
28490W        W   19  28.794   2.195   3.288
28491W        W   20  30.202  29.589  12.912
28492W        W   21  25.024   0.272  13.259
28493W        W   22   9.940  24.512  14.910
28494W        W   23   3.341  38.106   4.178
28495W        W   24  12.845  44.631  10.661
28496W        W   25  41.423  44.322  10.546
28497W        W   26  43.550  32.438  14.315
28498W        W   27  10.880  38.762  10.661
28499W        W   28  12.560  38.539   3.217
28500W        W   29   3.824   3.377  12.879
28501W        W   30  27.613  20.190   0.970
28502W        W   31   2.674   6.284  10.930
28503W        W   32  15.231  27.366  14.326
28504W        W   33   2.365  29.208  14.750
28505W        W   34  29.518  39.321  12.654
28506W        W   35  32.577  15.035   5.576
28507W        W   36  36.660   0.807  14.408
28508W        W   37  14.802  12.694  10.672
28509W        W   38  17.051  40.033   0.472
28510W        W   39   6.129  13.120  14.943
28511W        W   40  43.799  29.559   1.451
28512W        W   41  43.205  32.667  13.939
28513W        W   42  20.768  16.654   4.146
28514W        W   43  16.673  26.799  14.345
28515W        W   44  35.355  22.952   3.337
28516W        W   45  22.070  14.547  14.961
28517W        W   46  41.062  26.658   1.177
28518W        W   47  30.098  25.117   4.679
28519W        W   48   2.702  10.693  14.290
28520W        W   49   4.032  18.982  14.429
28521W        W   50  11.066  32.505  11.844
28522W        W   51  42.816  27.841  12.519
28523W        W   52  11.602  36.316   0.280
28524W        W   53  41.582  12.330   1.212
28525W        W   54  16.835  22.504   1.032
28526W        W   55  39.123  17.925  12.865
28527W        W   56  23.576  41.230   1.752
28528W        W   57  43.868  42.513   2.400
28529W        W   58  23.015  25.033   1.138
28530W        W   59   8.009  12.289  13.920
28531W        W   60  29.388  25.948   3.769
28532W        W   61  43.260  15.121   1.637
28533W        W   62  41.314  20.001   3.373
28534W        W   63  19.673   8.784  14.755
28535W        W   64  38.556  34.361  14.101
28536W        W   65  44.687  16.969   4.062
28537W        W   66   6.744  41.429   4.764
28538W        W   67   9.423  14.238   4.060
28539W        W   68  21.448  16.733   3.279
28540W        W   69  12.154  44.090   3.251
28541W        W   70   1.937  26.919  12.777
28542W        W   71  15.686   4.413   1.767
28543W        W   72  43.369  26.015   2.881
28544W        W   73  29.959  18.141  14.413
28545W        W   74  43.862   5.432   3.425
28546W        W   75  13.888  12.180   0.473
28547W        W   76   9.081   8.727  11.943
28548W        W   77  13.904  40.822   1.628
28549W        W   78  12.841  29.890  12.863
28550W        W   79   4.357  13.285   1.439
28551W        W   80  36.545  19.454   4.215
28552W        W   81  24.621  29.030  12.076
28553W        W   82   9.708   8.942   1.902
28554W        W   83  14.304  12.705   0.905
28555W        W   84  38.927  23.954  12.648
28556W        W   85  38.266  10.436   0.890
28557W        W   86   6.702  44.575  10.527
28558W        W   87  39.509  33.980  11.955
28559W        W   88  32.637  38.279   0.421
28560W        W   89  42.175   6.557  11.157
28561W        W   90  14.192  23.257   0.264
28562W        W   91  19.159  39.292   5.399
28563W        W   92   2.619  40.571   1.695
28564W        W   93   9.711  12.117  14.419
28565W        W   94  24.979  27.467  13.882
28566W        W   95   7.850  43.381  11.541
28567W        W   96  27.862  11.146   1.738
28568W        W   97  29.682  21.602  10.677
28569W        W   98  24.501  29.267  12.929
28570W        W   99   8.713  36.059   1.680
28571W        W  100  12.739  44.399   1.896
28572W        W  101  13.278  26.093   0.569
28573W        W  102  39.847   4.280   0.988
28574W        W  103  25.231  27.763  13.501
28575W        W  104  24.120  41.846   0.202
28576W        W  105  30.546  34.835  11.125
28577W        W  106   7.334  18.143   4.459
28578W        W  107  40.329  19.767  13.415
28579W        W  108  39.425  44.748  14.428
28580W        W  109   4.897   3.244   3.781
28581W        W  110  27.020   5.251   3.104
28582W        W  111  30.665  19.806   1.742
28583W        W  112  10.835  35.875   2.826
28584W        W  113  12.265  12.576  10.716
28585W        W  114  20.650  44.714  14.439
28586W        W  115  18.705   8.362   4.345
28587W        W  116  25.422   3.500  11.149
28588W        W  117  42.993  10.852  13.521
28589W        W  118  42.039  25.064  12.066
28590W        W  119  35.724  33.149  14.884
28591W        W  120  12.751   2.068   0.852
28592W        W  121  17.119   6.231  13.553
28593W        W  122  30.240  10.126   4.043
28594W        W  123  23.457  24.136  13.497
28595W        W  124  29.508  26.898   4.481
28596W        W  125  20.993  36.961   5.176
28597W        W  126  34.595   9.346  12.585
28598W        W  127  14.864  43.522   2.910
28599W        W  128   7.900  27.489   4.614
28600W        W  129  37.405  38.884  13.428
28601W        W  130  39.671   0.544  11.174
28602W        W  131  42.775   9.435  14.348
28603W        W  132  12.902  19.390   5.257
28604W        W  133  21.315   3.440  14.463
28605W        W  134  37.003  26.203  10.734
28606W        W  135  30.952  28.489  11.502
28607W        W  136  16.587  10.707   3.791
28608W        W  137  16.891   2.535   1.004
28609W        W  138  16.282  36.844  14.779
28610W        W  139  18.135  43.541  12.504
28611W        W  140  44.900  11.399   3.376
28612W        W  141  13.401   7.461  12.532
28613W        W  142  39.045  33.968   4.632
28614W        W  143  22.580   2.909  13.948
28615W        W  144  29.528  16.393   4.450
28616W        W  145  28.571   6.085   0.989
28617W        W  146  41.060  18.675  14.942
28618W        W  147  16.643  19.454   1.785
28619W        W  148  31.863  40.503  14.992
28620W        W  149  25.710  17.224   0.429
28621W        W  150  37.988  28.258   3.254
28622W        W  151  20.649  26.623   2.391
28623W        W  152  29.034  37.501   0.767
28624W        W  153  21.297  30.558  13.776
28625W        W  154  33.247  20.078  11.223
28626W        W  155  33.982  38.439  12.938
28627W        W  156  34.841  28.191  14.391
28628W        W  157  10.035  22.910   3.313
28629W        W  158   9.643  26.009  10.684
28630W        W  159   5.295  14.279  14.936
28631W        W  160  42.990   9.708  11.478
28632W        W  161   3.857  13.605  11.539
28633W        W  162  19.304   8.268   3.829
28634W        W  163   0.484   2.735   0.827
28635W        W  164   7.553  29.178   4.300
28636W        W  165  34.129  34.091   0.257
28637W        W  166  36.060  22.216   0.097
28638W        W  167  30.653  22.204  14.493
28639W        W  168  32.490  28.055  14.028
28640W        W  169  12.271  35.094   2.387
28641W        W  170  26.955  15.125   1.822
28642W        W  171  33.367  24.482  14.818
28643W        W  172  38.399  19.384  14.965
28644W        W  173  17.878  17.863   1.405
28645W        W  174  30.106   2.294   1.583
28646W        W  175   5.858  37.366   1.429
28647W        W  176  29.417  29.527  14.698
28648W        W  177  14.228  14.830   2.221
28649W        W  178  31.660   8.889  10.999
28650W        W  179  37.943  44.389   1.871
28651W        W  180   5.241  23.576   3.310
28652W        W  181   7.632  19.765   2.451
28653W        W  182  42.007  25.049   2.200
28654W        W  183  11.278  16.340  12.207
28655W        W  184  11.312  37.547  14.889
28656W        W  185  15.830  23.629  11.648
28657W        W  186  16.855  38.577   0.435
28658W        W  187  29.560  16.889   1.465
28659W        W  188  13.823  11.623  14.711
28660W        W  189  22.948   7.352  11.617
28661W        W  190  39.436  32.901   0.368
28662W        W  191  42.517  27.668   2.402
28663W        W  192  14.178  26.553   2.637
28664W        W  193   9.740   4.908   2.741
28665W        W  194  35.894  32.369  12.839
28666W        W  195  13.859  20.721  12.244
28667W        W  196   1.352   9.114  14.235
28668W        W  197  42.604  31.043   0.243
28669W        W  198  26.597  33.660  13.760
28670W        W  199  43.828  26.181   2.697
28671W        W  200  17.223  12.533   2.161
28672W        W  201  43.414  17.561   2.439
28673W        W  202   5.067  11.033   0.922
28674W        W  203  23.995  15.884   3.997
28675W        W  204  31.494  39.866   1.824
28676W        W  205  41.801  34.046   2.121
28677W        W  206  26.979  35.659  11.636
28678W        W  207  42.831  15.729  13.033
28679W        W  208  26.487  21.109   2.623
28680W        W  209  42.998  19.857   4.983
28681W        W  210  12.319  21.715   0.636
28682W        W  211  38.705  15.931   0.716
28683W        W  212  18.314   5.281   4.045
28684W        W  213   9.494   5.642  14.201
28685W        W  214  42.149  11.208   4.123
28686W        W  215  22.500  13.149   1.431
28687W        W  216   9.256   0.395   1.815
28688W        W  217  14.438  25.691  11.513
28689W        W  218  18.476  16.683  13.815
28690W        W  219  43.902  42.023  12.067
28691W        W  220  11.835   4.134  11.634
28692W        W  221  13.417  16.117   2.775
28693W        W  222  38.967  34.973   1.845
28694W        W  223  37.185  37.809  11.101
28695W        W  224  15.414  42.879  12.005
28696W        W  225   9.976  39.650   1.162
28697W        W  226  41.883  26.051   2.335
28698W        W  227   6.442  28.149  12.067
28699W        W  228  25.989  13.972  14.440
28700W        W  229  40.726  30.466   3.735
28701W        W  230   7.355  26.448   2.653
28702W        W  231  17.960  38.559  14.714
28703W        W  232   1.539   9.678   2.205
28704W        W  233  38.349  23.319  12.071
28705W        W  234  35.454  21.835  13.216
28706W        W  235   2.854  36.849   4.852
28707W        W  236  31.123  11.723   2.236
28708W        W  237  21.687   9.689  14.220
28709W        W  238   7.812   2.506   0.858
28710W        W  239  32.131  22.064   1.349
28711W        W  240  21.250  30.701  13.279
28712W        W  241   9.449   1.081   2.323
28713W        W  242   4.777  40.004   2.813
28714W        W  243  44.870  12.188   0.887
28715W        W  244  14.104   3.300  14.779
28716W        W  245  30.372  21.732   2.824
28717W        W  246  38.992  44.185   1.256
28718W        W  247  27.875  19.696  12.407
28719W        W  248  20.515  10.910  11.617
28720W        W  249   9.801   9.699  13.088
28721W        W  250  15.662  44.570  13.967
28722W        W  251   2.320  16.597   0.989
28723W        W  252  37.514  21.693   0.778
28724W        W  253  16.766  16.089  10.536
28725W        W  254  34.088  14.697   1.188
28726W        W  255   4.395  16.939   4.685
28727W        W  256  30.634  16.183  14.421
28728W        W  257  33.345  27.325  13.841
28729W        W  258   9.623  39.393   3.756
28730W        W  259  26.144  15.872  11.192
28731W        W  260  31.166  13.851   4.143
28732W        W  261  40.503   9.806   3.204
28733W        W  262  29.256  29.128  10.561
28734W        W  263  13.645   5.202  10.826
28735W        W  264  14.797  29.719   4.587
28736W        W  265  35.574  20.826  12.395
28737W        W  266  18.607  10.184  10.643
28738W        W  267   3.063   8.284   0.799
28739W        W  268  21.146  28.876   2.396
28740W        W  269  29.588  32.493   1.689
28741W        W  270  33.510  36.384  10.932
28742W        W  271   9.663  24.227  11.902
28743W        W  272  21.425  44.800  13.271
28744W        W  273  12.274  27.490   2.623
28745W        W  274  13.327  25.513  12.297
28746W        W  275  15.740  18.214   4.852
28747W        W  276  34.507  26.486  12.008
28748W        W  277  10.425   7.872   3.415
28749W        W  278  42.179   6.267  10.710
28750W        W  279  11.263   1.272  12.528
28751W        W  280  13.630  40.116   4.356
28752W        W  281  44.533  39.866   1.299
28753W        W  282  42.693  27.109   0.675
28754W        W  283  28.740   3.673  13.572
28755W        W  284  17.762  13.807   1.376
28756W        W  285   0.168   5.428   1.259
28757W        W  286   9.298  29.369  11.172
28758W        W  287  17.012  42.714   1.338
28759W        W  288  16.436  23.405  12.460
28760W        W  289  14.775   2.265   0.528
28761W        W  290  37.580  15.246  11.949
28762W        W  291  39.140  44.821  13.947
28763W        W  292  27.221   5.487  14.147
28764W        W  293  41.445  39.106   4.500
28765W        W  294   2.330  36.495  13.429
28766W        W  295  16.622  16.765   2.717
28767W        W  296  11.446  27.580   3.769
28768W        W  297  29.545  19.663  12.045
28769W        W  298  25.695   9.858  10.854
28770W        W  299  21.484  19.431   0.431
28771W        W  300   7.688  40.895   1.714
28772W        W  301  24.702  28.932  12.562
28773W        W  302   5.508   9.418  12.700
28774W        W  303  24.826  24.776  14.479
28775W        W  304   1.960  43.084  11.683
28776W        W  305  43.497  18.535  14.608
28777W        W  306  44.180   7.483   1.765
28778W        W  307  13.539  41.040   4.050
28779W        W  308  31.629  44.956   4.270
28780W        W  309  29.386  32.527   4.283
28781W        W  310  18.200  21.703  10.742
28782W        W  311  39.355  40.421   4.419
28783W        W  312   8.869   9.930   0.242
28784W        W  313  35.399   3.263  13.158
28785W        W  314  15.363   5.250  11.350
28786W        W  315   9.618  37.311   0.661
28787W        W  316  23.713  14.933   0.317
28788W        W  317  20.715   5.702   2.739
28789W        W  318  43.974  22.585   4.557
28790W        W  319  28.336  10.678  12.975
28791W        W  320  18.622  29.035  13.525
28792W        W  321  10.686  34.870  12.307
28793W        W  322  12.104  13.528  13.879
28794W        W  323  13.260  24.295   1.512
28795W        W  324  22.080   4.844  13.039
28796W        W  325  16.054   1.307   1.193
28797W        W  326  33.667  22.949   2.300
28798W        W  327   3.878  32.206   4.325
28799W        W  328  30.092   3.312   1.645
28800W        W  329  31.918  12.877   4.241
28801W        W  330  42.764  37.485  12.428
28802W        W  331  15.321  35.489  12.606
28803W        W  332  35.823   2.479  11.986
28804W        W  333  26.165  43.353  11.352
28805W        W  334  17.990   0.466   0.288
28806W        W  335  25.415   0.530   3.350
28807W        W  336  29.623  28.230   3.220
28808W        W  337  32.115  28.484   0.121
28809W        W  338   6.786   1.877   2.335
28810W        W  339  42.415  22.322   4.406
28811W        W  340   4.344  23.485  12.366
28812W        W  341  12.707  26.511  14.761
28813W        W  342  13.527  10.384   3.170
28814W        W  343  21.082  41.492   3.375
28815W        W  344  31.430   9.321  12.993
28816W        W  345  39.392  31.634   0.641
28817W        W  346  35.139  21.694   2.810
28818W        W  347  14.413   1.282   4.689
28819W        W  348  32.373   6.789  14.989
28820W        W  349  44.210  42.931  10.642
28821W        W  350  32.068  15.635  14.845
28822W        W  351  18.620  26.004  12.578
28823W        W  352  13.615  32.832  12.490
28824W        W  353  41.409  30.495   0.481
28825W        W  354  20.028  18.372  14.848
28826W        W  355   3.413  15.838   4.600
28827W        W  356   9.874  27.425   2.939
28828W        W  357  23.738  25.461  13.486
28829W        W  358   5.731  25.039  13.327
28830W        W  359  18.171  16.854  14.194
28831W        W  360  37.264   5.711  13.482
28832W        W  361  35.317  36.637  13.920
28833W        W  362  34.425  17.931  11.543
28834W        W  363   6.660  40.365   3.793
28835W        W  364  25.190  28.637  12.363
28836W        W  365  16.576  10.317  13.998
28837W        W  366   0.221  23.418   4.337
28838W        W  367  38.142   0.023  13.974
28839W        W  368  30.109  29.929   3.720
28840W        W  369  37.439  18.069   1.311
28841W        W  370  41.114  35.485  12.512
28842W        W  371  14.502   4.142   1.731
28843W        W  372  31.182  30.420   0.285
28844W        W  373  19.905  35.727   0.258
28845W        W  374  28.514   6.715  13.570
28846W        W  375  42.091  10.522   0.907
28847W        W  376  42.979  12.225   3.348
28848W        W  377  20.204  17.159   0.540
28849W        W  378  43.644  37.012   4.944
28850W        W  379   9.331  44.465   4.641
28851W        W  380  18.098  22.851   3.227
28852W        W  381  30.865  18.703  14.560
28853W        W  382  30.901  29.613  13.453
28854W        W  383  21.494   6.521   3.197
28855W        W  384  41.676   2.231  14.680
28856W        W  385  23.703  20.279  11.533
28857W        W  386  37.114  42.543   0.815
28858W        W  387  39.023   7.717   3.381
28859W        W  388  37.882  29.584  10.976
28860W        W  389  10.325  15.090   2.222
28861W        W  390  19.071   2.348   1.822
28862W        W  391  32.623  31.921   0.789
28863W        W  392   2.775  18.679  12.909
28864W        W  393  33.874  35.997   2.582
28865W        W  394  30.562  28.520   2.183
28866W        W  395  38.866  38.349   4.019
28867W        W  396  10.155  34.233   0.457
28868W        W  397   1.137  28.672  12.080
28869W        W  398  20.104  21.140   1.619
28870W        W  399  42.290  19.443   1.828
28871W        W  400  25.941  26.036  10.925
28872W        W  401  20.105  22.836   2.937
28873W        W  402  42.926  18.754   3.291
28874W        W  403  12.587   3.311  12.510
28875W        W  404  37.980  42.454   2.186
28876W        W  405  36.164  31.612  14.121
28877W        W  406   7.092  34.669  11.104
28878W        W  407  41.269  39.316   2.689
28879W        W  408  30.263  12.768   3.145
28880W        W  409  39.219  13.590   1.542
28881W        W  410  30.823  29.153   4.246
28882W        W  411  35.511  42.556   1.923
28883W        W  412  29.543  19.907  14.981
28884W        W  413  24.700  39.710   0.809
28885W        W  414  29.170  13.679  11.691
28886W        W  415  10.623   1.206   2.415
28887W        W  416  11.742  41.452   3.559
28888W        W  417   1.952  37.654  12.127
28889W        W  418  10.379  25.979   3.966
28890W        W  419   1.823   3.761   4.056
28891W        W  420   2.833   7.112   0.400
28892W        W  421   4.613  15.620  11.139
28893W        W  422  10.200  42.542  12.919
28894W        W  423  18.410   5.426   1.875
28895W        W  424  40.622  25.897   1.701
28896W        W  425  16.071  43.127  10.237
28897W        W  426  24.257   2.475  11.602
28898W        W  427   7.213  28.945   3.437
28899W        W  428  13.068  19.713   3.099
28900W        W  429  22.742  32.401  12.517
28901W        W  430   6.672   3.957  11.937
28902W        W  431   1.332   4.689   3.350
28903W        W  432  44.800  44.018   3.955
28904W        W  433   4.906  36.004  11.179
28905W        W  434  23.246  15.111  13.606
28906W        W  435  25.929  37.560   2.597
28907W        W  436   0.219  36.225   4.122
28908W        W  437  29.931   3.926   3.374
28909W        W  438  33.271  23.102   3.384
28910W        W  439  29.142  16.898  14.823
28911W        W  440  26.604   8.240   2.787
28912W        W  441   9.388  42.461  14.878
28913W        W  442  40.837   2.346  14.463
28914W        W  443  29.697  41.996   4.095
28915W        W  444  34.418   1.631   3.003
28916W        W  445  24.617   9.601   3.336
28917W        W  446  19.704  28.391   1.042
28918W        W  447   3.063  22.694   0.365
28919W        W  448  34.160   4.632   2.344
28920W        W  449  20.005  34.499  14.975
28921W        W  450  19.813  32.712   1.484
28922W        W  451  37.392  10.287   2.734
28923W        W  452  34.186  19.340  11.592
28924W        W  453  22.162  35.723   3.613
28925W        W  454  19.591  39.130   1.337
28926W        W  455  42.244  44.935   4.169
28927W        W  456  42.845  34.461   9.525
28928W        W  457  22.127  15.819  14.326
28929W        W  458  12.804  35.174   1.291
28930W        W  459  33.570  38.466   0.426
28931W        W  460  26.935  28.185   0.787
28932W        W  461  14.151  16.780   4.225
28933W        W  462  27.539   4.974  11.073
28934W        W  463  44.746  23.485   4.524
28935W        W  464  17.715  22.248  13.138
28936W        W  465  23.051  40.885   4.964
28937W        W  466   9.062  10.744  14.043
28938W        W  467  24.568  33.362  14.082
28939W        W  468  14.913  37.056  13.768
28940W        W  469  18.114   3.580   1.125
28941W        W  470  43.919  29.608  13.312
28942W        W  471  33.043   7.163   0.409
28943W        W  472  13.392  34.344  14.414
28944W        W  473  19.973   6.269   4.092
28945W        W  474  39.474  22.232   2.111
28946W        W  475  41.867  10.215   2.391
28947W        W  476   4.787  34.016  14.271
28948W        W  477  35.542  22.575  13.840
28949W        W  478  44.439  43.317  12.084
28950W        W  479  20.789   6.262  11.228
28951W        W  480   1.329   4.726  12.489
28952W        W  481  11.115  32.502  11.322
28953W        W  482  34.515   0.886   4.044
28954W        W  483  20.940  35.724  14.785
28955W        W  484  44.356  25.265   2.386
28956W        W  485  11.548   0.855   3.013
28957W        W  486  21.145  43.784  13.906
28958W        W  487  34.583  30.192   1.703
28959W        W  488  23.779  14.775   4.927
28960W        W  489  38.978  32.901   0.724
28961W        W  490   6.886  28.044   1.918
28962W        W  491  31.957  41.364   0.913
28963W        W  492  20.106   7.694  11.145
28964W        W  493   1.264  16.537  13.432
28965W        W  494   0.952   9.357   3.897
28966W        W  495  23.037   6.943   0.782
28967W        W  496  10.720  41.151   0.655
28968W        W  497   4.364  19.226  14.762
28969W        W  498   8.734  13.230   1.932
28970W        W  499  23.569  29.581   4.132
28971W        W  500  13.301  24.811   2.798
28972W        W  501  44.354  32.489   4.454
28973W        W  502   8.995  37.726  11.170
28974W        W  503  21.256  22.582  11.967
28975W        W  504   9.185  10.399  11.838
28976W        W  505   7.186  41.437  13.372
28977W        W  506  13.531  19.225  12.149
28978W        W  507  24.139   4.564   0.388
28979W        W  508  25.608  32.138  14.906
28980W        W  509  15.817  23.271   1.862
28981W        W  510   4.951  34.417   2.646
28982W        W  511  20.012  34.870   3.698
28983W        W  512  33.061  22.573  12.537
28984W        W  513  23.514  38.324  12.133
28985W        W  514  42.965  11.314  14.302
28986W        W  515  28.645  43.053   0.640
28987W        W  516  26.521  26.656   1.455
28988W        W  517  41.427  22.602  11.172
28989W        W  518  29.625  39.285   3.612
28990W        W  519  33.923  39.645   4.748
28991W        W  520  38.844   3.877   0.521
28992W        W  521  14.838  36.575  10.484
28993W        W  522  44.494   0.314   4.826
28994W        W  523  20.525  35.540  10.438
28995W        W  524  13.616   4.892   3.199
28996W        W  525  37.037  19.274   3.840
28997W        W  526   4.821  13.385   2.648
28998W        W  527  31.049  27.026  12.061
28999W        W  528  27.017  37.440  10.723
29000W        W  529  22.926  35.564  11.146
29001W        W  530   4.406  24.118  13.545
29002W        W  531  25.288  21.273   2.234
29003W        W  532  17.701  31.936  12.134
29004W        W  533  13.825   0.343   4.244
29005W        W  534  21.773  38.360  11.119
29006W        W  535   2.031   2.483  11.486
29007W        W  536   0.773   1.414   1.335
29008W        W  537  42.751  37.054   2.740
29009W        W  538  27.153  10.682   3.733
29010W        W  539  39.220  37.798  14.920
29011W        W  540  30.989  29.606   4.487
29012W        W  541  22.791  21.268   1.312
29013W        W  542  40.779  11.369   2.143
29014W        W  543  25.103  34.914  11.651
29015W        W  544  31.322  36.403  14.975
29016W        W  545   9.669  36.483   1.837
29017W        W  546  19.072  36.272   2.877
29018W        W  547  15.355  40.795   2.190
29019W        W  548  34.618   7.753   1.771
29020W        W  549  29.112  27.546  11.427
29021W        W  550  12.130  33.866   4.147
29022W        W  551  14.221   1.333  11.862
29023W        W  552  28.380  34.902  12.277
29024W        W  553  34.069  30.532  13.072
29025W        W  554  35.620  20.076  10.633
29026W        W  555  36.346  31.863   0.034
29027W        W  556   6.418  16.213   2.050
29028W        W  557  32.590  27.767   5.076
29029W        W  558  26.432  32.839  10.677
29030W        W  559  13.621  31.125   2.405
29031W        W  560   6.256  22.578   0.986
29032W        W  561  11.184  10.175  14.243
29033W        W  562  12.845   6.258   0.874
29034W        W  563  38.927  37.834  14.487
29035W        W  564  28.547  38.217   1.995
29036W        W  565  25.264  23.022   4.132
29037W        W  566   2.445  19.402   1.250
29038W        W  567  25.928  36.886   1.718
29039W        W  568  12.816   6.722  13.078
29040W        W  569  27.754  18.252   2.460
29041W        W  570  14.219  17.669   4.259
29042W        W  571   9.688   0.947   4.099
29043W        W  572  28.127  32.917   1.890
29044W        W  573   3.671  39.874  11.489
29045W        W  574  28.461  23.528  13.558
29046W        W  575  25.767  42.041   3.115
29047W        W  576  41.200  31.358   0.242
29048W        W  577   8.694  42.281  12.835
29049W        W  578   4.845  34.139  11.228
29050W        W  579  36.559  18.619  11.485
29051W        W  580  22.664   3.779  11.017
29052W        W  581  25.086  30.184   3.141
29053W        W  582  35.559   3.391   4.117
29054W        W  583  44.962  35.442  10.977
29055W        W  584   3.647  32.451  14.817
29056W        W  585  18.330  27.708   4.100
29057W        W  586  22.079  42.823  11.144
29058W        W  587  37.859  26.562   4.107
29059W        W  588   3.049   4.398   4.031
29060W        W  589   4.875  10.404  14.836
29061W        W  590   6.161  15.357  12.511
29062W        W  591  36.857   1.074  13.857
29063W        W  592  22.840  22.999  13.320
29064W        W  593   1.218   5.815   1.722
29065W        W  594  17.345  26.018  13.954
29066W        W  595  35.583   8.696   4.678
29067W        W  596  43.892   2.924   3.675
29068W        W  597   3.142  13.598  13.583
29069W        W  598  16.139   5.570   1.637
29070W        W  599  36.774  15.693  11.223
29071W        W  600  33.942  21.290  12.443
29072W        W  601  17.836  18.582   1.800
29073W        W  602  32.124   2.735   2.864
29074W        W  603  29.443   7.135   3.775
29075W        W  604  43.526  22.988   0.826
29076W        W  605  35.264  35.460   3.141
29077W        W  606  14.647  36.699  11.619
29078W        W  607  32.820  24.422   0.040
29079W        W  608  11.799  25.761  10.096
29080W        W  609   0.201  39.995  14.039
29081W        W  610   9.377  43.371  10.898
29082W        W  611   1.413  34.667   4.040
29083W        W  612  24.962   2.557  12.135
29084W        W  613  39.255  16.127   2.203
29085W        W  614  19.937  27.149  13.855
29086W        W  615  10.186   9.607  10.925
29087W        W  616  15.765  13.851   3.355
29088W        W  617  36.480  14.136  11.233
29089W        W  618  25.138   7.230   4.432
29090W        W  619   7.848  19.749  11.387
29091W        W  620   4.720   6.916  10.923
29092W        W  621  39.414  44.759   4.740
29093W        W  622  40.295   2.542   3.134
29094W        W  623  33.375  40.396   1.138
29095W        W  624  42.920  20.446  14.277
29096W        W  625  18.160  10.663   0.552
29097W        W  626  28.964  33.519  13.401
29098W        W  627   3.679  18.754   1.195
29099W        W  628  11.166  35.575  13.161
29100W        W  629  10.348   1.989  14.319
29101W        W  630  27.497  42.464   3.883
29102W        W  631  21.744  41.803   2.280
29103W        W  632  35.141  14.707   3.642
29104W        W  633  37.253   2.492   1.809
29105W        W  634  35.735  41.739  14.813
29106W        W  635  27.998  17.503  13.398
29107W        W  636  34.190  39.374  11.574
29108W        W  637   1.780  27.907  12.168
29109W        W  638   9.059  19.702   3.156
29110W        W  639  38.834  19.031   2.761
29111W        W  640   6.732  16.193  10.327
29112W        W  641  42.890  25.038  12.355
29113W        W  642  20.760  20.892  12.080
29114W        W  643  15.758  25.690   1.795
29115W        W  644   4.864  33.060  13.894
29116W        W  645  35.455  23.414  10.724
29117W        W  646  17.504   3.399  10.768
29118W        W  647  37.179  40.010  10.242
29119W        W  648  21.418  27.917  14.499
29120W        W  649  36.986  35.835   0.730
29121W        W  650  29.677   2.845  12.172
29122W        W  651  17.065   6.993  10.939
29123W        W  652  28.040  32.438   2.734
29124W        W  653  23.488  30.640  13.357
29125W        W  654  40.045  25.704   1.001
29126W        W  655  33.103   2.509  12.887
29127W        W  656  23.647  21.625   1.969
29128W        W  657  40.997  44.860   4.722
29129W        W  658   0.878  43.756  13.004
29130W        W  659  20.655  21.097   0.869
29131W        W  660  25.513  23.294   0.399
29132W        W  661  27.467   8.845  12.417
29133W        W  662  38.637  12.699   4.672
29134W        W  663  28.501  10.126  13.549
29135W        W  664   9.201  17.072  14.592
29136W        W  665  24.844  28.660  10.195
29137W        W  666  37.338  23.338  12.799
29138W        W  667  10.793   4.395  13.944
29139W        W  668   1.598  15.684  13.368
29140W        W  669   8.240  21.249   3.032
29141W        W  670  15.187  24.728   3.024
29142W        W  671  35.924  37.408  11.807
29143W        W  672  19.301   5.257   0.311
29144W        W  673   0.357  43.707  13.452
29145W        W  674  32.823  40.421  13.503
29146W        W  675  23.992  29.645  12.409
29147W        W  676  37.711  27.077   3.355
29148W        W  677  44.583  37.957  12.453
29149W        W  678  22.939  40.887  11.648
29150W        W  679  20.342   8.779   5.042
29151W        W  680  44.255   5.904  13.817
29152W        W  681  40.425  18.539   4.808
29153W        W  682  17.305  12.741   0.855
29154W        W  683  43.512  34.609   1.683
29155W        W  684   5.323  28.643  11.278
29156W        W  685  15.653  43.930   4.507
29157W        W  686   4.013  29.958   4.975
29158W        W  687  10.357   8.887   0.812
29159W        W  688  10.856  16.611   0.287
29160W        W  689  18.419   4.506  12.948
29161W        W  690  21.370  19.762  10.736
29162W        W  691   5.840  16.112   2.163
29163W        W  692  23.822  26.616  11.637
29164W        W  693  12.623   8.638   1.082
29165W        W  694   3.923  38.025   2.722
29166W        W  695   2.350  23.245  12.814
29167W        W  696  39.272   5.507   3.672
29168W        W  697  39.423  32.623   0.836
29169W        W  698   9.602   8.471  13.025
29170W        W  699  41.780  18.435  14.544
29171W        W  700  34.347  39.824   2.543
29172W        W  701  30.337   1.715  14.368
29173W        W  702   8.763  25.724   0.092
29174W        W  703  44.780   8.970  14.223
29175W        W  704  43.603  31.616  11.638
29176W        W  705   0.822   9.902   1.341
29177W        W  706   2.419  23.046   2.718
29178W        W  707   1.387  40.163   2.939
29179W        W  708  35.087   4.420  10.441
29180W        W  709  16.101  17.646   3.280
29181W        W  710  28.114  43.444  11.237
29182W        W  711   8.816  11.128   1.791
29183W        W  712  15.245  20.111   0.896
29184W        W  713  29.477  19.840   3.973
29185W        W  714  44.576  23.003  14.657
29186W        W  715  24.470  38.371   4.440
29187W        W  716  19.555   2.522  11.941
29188W        W  717  33.026  31.826  12.888
29189W        W  718   3.267  38.095   0.819
29190W        W  719  37.055  19.453   4.321
29191W        W  720   2.401  12.109  10.382
29192W        W  721  27.446   2.489   1.044
29193W        W  722  33.979  28.994  12.967
29194W        W  723  25.294  27.155   4.076
29195W        W  724   2.194  39.551   3.181
29196W        W  725   8.998   4.806  10.356
29197W        W  726   8.188  41.696  12.095
29198W        W  727  40.074  14.712   3.642
29199W        W  728  15.606  32.267  11.220
29200W        W  729  14.919   3.720   0.465
29201W        W  730  38.804  27.949  11.201
29202W        W  731  38.608   8.353  12.454
29203W        W  732  12.259  27.915   1.444
29204W        W  733  34.977  18.392  14.024
29205W        W  734  30.597  27.703  12.402
29206W        W  735  12.291  11.273   1.393
29207W        W  736   1.991   9.364   3.839
29208W        W  737   5.410  35.824  12.961
29209W        W  738  20.817   9.302   0.251
29210W        W  739  41.728  42.851   1.409
29211W        W  740  17.040   7.326   3.613
29212W        W  741   4.457  21.105   2.749
29213W        W  742   1.323  25.494   4.717
29214W        W  743  28.415  41.407  14.970
29215W        W  744  42.888  33.539   0.990
29216W        W  745  26.234  13.624  12.156
29217W        W  746  32.563  44.925   4.640
29218W        W  747  40.283  22.149   2.791
29219W        W  748  13.095  31.529   4.346
29220W        W  749  15.653  16.255  12.058
29221W        W  750  36.608  42.582   0.750
29222W        W  751  42.204  10.106  13.314
29223W        W  752  25.077   8.685  13.402
29224W        W  753   7.611  37.272  14.371
29225W        W  754  14.531  24.643   0.350
29226W        W  755  33.991   9.934  13.719
29227W        W  756  39.001  29.342   2.753
29228W        W  757  24.458  44.702   2.869
29229W        W  758  21.559  15.766  10.736
29230W        W  759  10.564  22.982   1.490
29231W        W  760  22.712   6.912  13.853
29232W        W  761   7.195   1.428  14.816
29233W        W  762  21.002   2.986   1.389
29234W        W  763  31.458  22.487   4.114
29235W        W  764  14.695   9.066   0.430
29236W        W  765  25.775  10.748  13.005
29237W        W  766  18.614  31.048  12.370
29238W        W  767  34.866  31.429  12.975
29239W        W  768  41.502  27.690   3.651
29240W        W  769  36.632   7.311  10.955
29241W        W  770   8.969   2.554   4.117
29242W        W  771   0.804   8.869  14.278
29243W        W  772  14.684  16.426   2.187
29244W        W  773  18.086  33.182   2.856
29245W        W  774  40.009  36.107  13.825
29246W        W  775   2.366   2.709   3.924
29247W        W  776  33.524   2.548  13.194
29248W        W  777  37.542  21.563   2.794
29249W        W  778  38.819  38.515   4.490
29250W        W  779  16.051  14.969  12.952
29251W        W  780  28.677  27.176   4.056
29252W        W  781  42.799  44.518   2.339
29253W        W  782  30.934  10.857  14.064
29254W        W  783   3.358  13.701   2.825
29255W        W  784  18.901  22.528   2.282
29256W        W  785   6.860   8.210   2.725
29257W        W  786  40.559  31.437  14.896
29258W        W  787  44.510  28.198  14.396
29259W        W  788   8.605  21.520   1.315
29260W        W  789   4.493  23.014  13.162
29261W        W  790  14.032   7.227  10.489
29262W        W  791  44.336  28.207  10.668
29263W        W  792  38.538  19.231   2.382
29264W        W  793  31.670  25.822  13.951
29265W        W  794  18.813  28.077   4.941
29266W        W  795   9.051   5.918   4.602
29267W        W  796  25.042  43.005  14.766
29268W        W  797  38.684  25.676  14.724
29269W        W  798   2.347  25.701   1.007
29270W        W  799  32.128  39.298   2.880
29271W        W  800  43.138   3.707   2.771
29272W        W  801  30.156  28.434  11.976
29273W        W  802   3.180  37.236  13.453
29274W        W  803  14.786  33.141   3.758
29275W        W  804   0.851  36.942  14.814
29276W        W  805  44.177  34.424   2.274
29277W        W  806  10.487  33.680  11.122
29278W        W  807  32.068  23.352   0.489
29279W        W  808   8.327  21.961   0.468
29280W        W  809  16.265  32.383  13.419
29281W        W  810   5.170  13.661   3.127
29282W        W  811  38.231   4.283  13.412
29283W        W  812   4.524  26.501   3.300
29284W        W  813  20.328  20.508   4.964
29285W        W  814   7.684  29.632  13.351
29286W        W  815   2.825   4.031   3.718
29287W        W  816   7.790   9.425  14.839
29288W        W  817  43.064  29.643   3.290
29289W        W  818  43.844  20.256   2.838
29290W        W  819  42.659  25.953   4.573
29291W        W  820  24.192  39.572   4.521
29292W        W  821   0.840  42.766   0.141
29293W        W  822  21.152  40.482  14.520
29294W        W  823  43.242  25.334  11.094
29295W        W  824  37.449   9.860  11.943
29296W        W  825   5.694   7.841  12.761
29297W        W  826  18.615  32.408   3.771
29298W        W  827  18.857  12.575  12.997
29299W        W  828  15.594  37.950   0.393
29300W        W  829  27.170  17.335  14.289
29301W        W  830  17.247  21.097   1.329
29302W        W  831  17.292  12.236   3.316
29303W        W  832   1.858  20.145   2.684
29304W        W  833  27.013  15.502  11.982
29305W        W  834   7.194  44.244  14.463
29306W        W  835  19.506  10.446   4.915
29307W        W  836  31.022  21.101   0.433
29308W        W  837  23.501  26.993  12.559
29309W        W  838  18.942  24.118   3.608
29310W        W  839   0.465  14.854  12.039
29311W        W  840   2.787  18.115  11.011
29312W        W  841  20.876  24.533  12.419
29313W        W  842  44.953  37.922   3.314
29314W        W  843   1.991  43.857   0.857
29315W        W  844  27.746  17.344   0.510
29316W        W  845  28.036  31.191   5.004
29317W        W  846  13.675   0.406   2.329
29318W        W  847  11.406  37.406   0.365
29319W        W  848  12.282  24.628  14.538
29320W        W  849  18.733  16.199   1.925
29321W        W  850  40.327  43.683  12.119
29322W        W  851   2.433   9.743   3.154
29323W        W  852  26.372   5.115   0.145
29324W        W  853  20.037   8.697  12.960
29325W        W  854  16.781  20.347   2.163
29326W        W  855  15.666   4.302  14.261
29327W        W  856  35.050  33.847  10.270
29328W        W  857  11.831  33.971  11.942
29329W        W  858  16.008  32.637  14.885
29330W        W  859  23.918  44.621  10.242
29331W        W  860  33.937  22.579   4.323
29332W        W  861  35.452   7.549  10.721
29333W        W  862  23.623  33.696   1.455
29334W        W  863  31.059   0.701   4.156
29335W        W  864  41.937   1.705  12.916
29336W        W  865  24.283  13.689   2.257
29337W        W  866  40.987   3.973   4.870
29338W        W  867  12.828  32.666  13.986
29339W        W  868  30.457  19.510   4.362
29340W        W  869  14.148  16.917  14.766
29341W        W  870  19.831   5.235   2.664
29342W        W  871  36.025  32.021  10.333
29343W        W  872  32.978  38.186  11.145
29344W        W  873  12.923  21.204   4.794
29345W        W  874  44.597  37.080  11.040
29346W        W  875  25.191  27.581  11.031
29347W        W  876  34.994  23.319  12.254
29348W        W  877  32.649  23.098  11.849
29349W        W  878  42.947  23.579   3.324
29350W        W  879  35.028  17.357   4.069
29351W        W  880  36.653   0.493   0.426
29352W        W  881  35.536  27.578   3.709
29353W        W  882   9.909  25.876   2.043
29354W        W  883  26.831  43.906  14.998
29355W        W  884  17.908  44.164  11.987
29356W        W  885  27.936  14.375   2.710
29357W        W  886   6.800   8.705   2.796
29358W        W  887  24.497  34.167   0.182
29359W        W  888   8.228   8.923  11.685
29360W        W  889   8.285  16.809   2.789
29361W        W  890   1.209  43.471  14.455
29362W        W  891   7.875  42.956   0.033
29363W        W  892  31.854   1.269   1.938
29364W        W  893  18.094   0.343   3.218
29365W        W  894  29.999  28.071  14.391
29366W        W  895   0.888  13.731   2.474
29367W        W  896   3.785   1.950   3.139
29368W        W  897  36.953  39.890  13.525
29369W        W  898   5.365  21.439  12.533
29370W        W  899  33.035  29.059   2.628
29371W        W  900  41.095  35.942  10.827
29372W        W  901  29.696  14.261  14.822
29373W        W  902  22.584  35.565   2.258
29374W        W  903  35.496  18.776   2.294
29375W        W  904   1.012  20.618  12.003
29376W        W  905  28.220  32.500  13.636
29377W        W  906  27.947   7.862  13.553
29378W        W  907  11.371   2.836   2.729
29379W        W  908   5.743  14.359   2.727
29380W        W  909  42.434  21.740   1.897
29381W        W  910   0.917  29.838   2.734
29382W        W  911  22.970  11.813   4.114
29383W        W  912  16.105  25.084  13.579
29384W        W  913   3.060  33.993   1.453
29385W        W  914  24.881   3.629  12.394
29386W        W  915   6.124   8.745  10.381
29387W        W  916  10.414  13.748   1.229
29388W        W  917  20.812  20.212   0.972
29389W        W  918  24.214   0.001  13.505
29390W        W  919  19.709  20.274  14.855
29391W        W  920  18.853  21.869   3.384
29392W        W  921   5.901   9.911   0.743
29393W        W  922   4.346  31.790   0.196
29394W        W  923  34.818   6.841   4.214
29395W        W  924   9.933  43.685  12.835
29396W        W  925   5.294  37.117  13.919
29397W        W  926  38.461  10.329   2.679
29398W        W  927   8.670   0.866   0.871
29399W        W  928  14.774  32.423  13.240
29400W        W  929  16.737   5.720   3.796
29401W        W  930   4.931  16.754  14.381
29402W        W  931  27.705  24.011   2.223
29403W        W  932  30.965   0.687   2.832
29404W        W  933   9.715  40.060   3.240
29405W        W  934   7.214   9.560   0.793
29406W        W  935  11.775  26.072   2.081
29407W        W  936   7.386  20.975   0.423
29408W        W  937  34.791  25.628  13.469
29409W        W  938   4.821   7.906   2.929
29410W        W  939   5.200  21.190  12.954
29411W        W  940  34.782  33.046  13.250
29412W        W  941  19.844  14.859   0.328
29413W        W  942   2.920  29.986  13.088
29414W        W  943  11.382  29.093  11.620
29415W        W  944   1.187  18.617   0.095
29416W        W  945  33.471   7.432  10.710
29417W        W  946  25.603  41.440   3.613
29418W        W  947  17.763  27.082  13.057
29419W        W  948  21.956  42.388   4.503
29420W        W  949  27.240  16.697  11.857
29421W        W  950  14.607   5.832  12.842
29422W        W  951  24.668  42.024  14.788
29423W        W  952  39.342  28.166   3.200
29424W        W  953  42.465  32.901  10.513
29425W        W  954  29.090  22.199  11.001
29426W        W  955  12.684   6.306  10.637
29427W        W  956  42.245  33.998  11.520
29428W        W  957  25.890  37.406   3.083
29429W        W  958  42.005   6.109  11.995
29430W        W  959  20.843   0.916  12.496
29431W        W  960  25.500  25.915   3.772
29432W        W  961  44.936  11.231  12.096
29433W        W  962  17.689  22.486   0.733
29434W        W  963  29.697   2.955   1.714
29435W        W  964  30.874  16.368  14.006
29436W        W  965   1.843  30.912   3.825
29437W        W  966  10.802  35.091  10.953
29438W        W  967  29.044  22.597  12.166
29439W        W  968  41.906  27.066  14.818
29440W        W  969  36.600  43.848  11.971
29441W        W  970  31.256   0.310  11.962
29442W        W  971  28.856  23.540  11.656
29443W        W  972  32.370  18.635   4.150
29444W        W  973  32.276  15.737  12.132
29445W        W  974   2.031  28.664   0.502
29446W        W  975  32.396  31.496  13.552
29447W        W  976  33.037  29.420  13.987
29448W        W  977   0.062  35.736   0.701
29449W        W  978  38.861  33.727   4.200
29450W        W  979   3.096  20.278  13.812
29451W        W  980  17.797   7.362   4.206
29452W        W  981  33.963  43.847   3.867
29453W        W  982  43.692  37.564   0.311
29454W        W  983  27.515  15.291  13.180
29455W        W  984  29.021  15.750  10.917
29456W        W  985  27.909  31.072  11.018
29457W        W  986  29.470  34.327  13.392
29458W        W  987  39.692  42.112   3.258
29459W        W  988   9.634  13.799   0.762
29460W        W  989  25.737  36.833  14.920
29461W        W  990   8.359   1.447   2.898
29462W        W  991  27.712  10.661  11.963
29463W        W  992   5.923  35.080   3.870
29464W        W  993  43.116   4.912   3.946
29465W        W  994  15.709  30.223  14.829
29466W        W  995  28.784  44.951  12.414
29467W        W  996  25.211  26.662  10.822
29468W        W  997  23.613  19.743  11.416
29469W        W  998  30.554   3.398   1.399
29470W        W  999  30.385  41.907  14.099
29471W        W 1000  38.827  34.911  12.934
29472W        W 1001   9.844  44.281   1.860
29473W        W 1002   0.379  31.393   0.781
29474W        W 1003  36.784   2.419  11.950
29475W        W 1004  16.777   9.036  13.135
29476W        W 1005  44.752  24.529  13.776
29477W        W 1006  13.565  39.604  13.054
29478W        W 1007  28.569  28.346  12.732
29479W        W 1008   6.801  27.573   2.116
29480W        W 1009  14.311  19.905   4.958
29481W        W 1010   8.434  43.228   1.711
29482W        W 1011  29.585   3.688   3.686
29483W        W 1012  20.899   5.528  13.456
29484W        W 1013  39.742  44.769  11.029
29485W        W 1014  30.196  41.995  11.117
29486W        W 1015  16.198  42.325  14.990
29487W        W 1016  19.221  12.135  12.449
29488W        W 1017  44.890   0.806  13.388
29489W        W 1018  31.463  35.973   1.362
29490W        W 1019  33.885  34.061   2.691
29491W        W 1020  34.044   3.666   4.136
29492W        W 1021  19.730  21.938   3.441
29493W        W 1022  37.782  18.780  14.406
29494W        W 1023  35.076  11.585  12.801
29495W        W 1024  26.411  12.213   2.330
29496W        W 1025  15.643  31.882   1.046
29497W        W 1026  42.970  16.513  11.730
29498W        W 1027  31.561  16.719   4.716
29499W        W 1028  44.068  42.314   4.357
29500W        W 1029  23.480   4.723   4.217
29501W        W 1030  10.473  30.747  12.438
29502W        W 1031   5.107  10.824  11.104
29503W        W 1032  27.705  14.658  12.850
29504W        W 1033  18.362  10.216  13.047
29505W        W 1034  41.598  37.688   4.979
29506W        W 1035   7.298   3.259  13.608
29507W        W 1036  16.321  27.545   4.033
29508W        W 1037  38.085  29.126   3.498
29509W        W 1038  20.320  14.891  11.274
29510W        W 1039  38.944  23.561   4.609
29511W        W 1040  34.747  11.313   1.838
29512W        W 1041  15.655  37.040   1.524
29513W        W 1042  22.898  10.288   1.031
29514W        W 1043  11.719   9.988  10.311
29515W        W 1044  23.239   0.187  10.849
29516W        W 1045  19.962  42.856   3.671
29517W        W 1046  12.847  21.647   3.299
29518W        W 1047  34.601  13.320  12.662
29519W        W 1048  27.187   7.443   2.345
29520W        W 1049   6.895  41.907  12.889
29521W        W 1050  11.635  24.703  14.181
29522W        W 1051  13.124  22.497   3.586
29523W        W 1052  41.244   9.719  11.629
29524W        W 1053  24.524  38.963   0.512
29525W        W 1054  33.107  28.348  12.023
29526W        W 1055  37.508  43.753  13.060
29527W        W 1056  17.820  16.299   0.341
29528W        W 1057  41.388  24.546   3.911
29529W        W 1058  39.061  37.274   5.017
29530W        W 1059  16.564  40.080  13.486
29531W        W 1060  15.540  23.517  12.605
29532W        W 1061   9.028   7.671  11.952
29533W        W 1062  28.457  31.654   4.170
29534W        W 1063  13.119   9.592   2.795
29535W        W 1064  28.430  10.840   2.336
29536W        W 1065   5.680  42.403  12.866
29537W        W 1066  34.384  36.313  13.491
29538W        W 1067  17.184  26.251   2.304
29539W        W 1068   2.053  42.381   0.566
29540W        W 1069   9.142  30.112   5.229
29541W        W 1070  38.144  21.558  13.444
29542W        W 1071  31.013  22.790   0.842
29543W        W 1072  21.736  24.514  12.601
29544W        W 1073  13.162  26.407  11.565
29545W        W 1074  31.946  41.968   5.186
29546W        W 1075  29.879   7.381   1.482
29547W        W 1076  17.109  27.201   0.260
29548W        W 1077  24.286  32.617  12.549
29549W        W 1078  13.513  20.984  12.704
29550W        W 1079  31.981   3.832   1.313
29551W        W 1080   8.909   6.309   3.646
29552W        W 1081  34.024  17.180  11.222
29553W        W 1082   1.591  13.418   4.067
29554W        W 1083  20.954  19.685   1.002
29555W        W 1084  29.078  22.283   1.104
29556W        W 1085  18.994   3.755  10.509
29557W        W 1086  24.980  25.620   3.667
29558W        W 1087  11.807  21.235   0.024
29559W        W 1088   1.269  33.973   1.065
29560W        W 1089   6.153  38.036  12.993
29561W        W 1090  39.137  35.174  12.616
29562W        W 1091  14.607  18.278   1.243
29563W        W 1092   9.034  35.045   3.311
29564W        W 1093   2.430  42.015   1.924
29565W        W 1094  36.890  20.171   0.618
29566W        W 1095   7.331  10.832   2.259
29567W        W 1096  31.564  16.956   2.237
29568W        W 1097  11.854  44.234  14.156
29569W        W 1098   6.335   0.566   0.388
29570W        W 1099  20.901  38.011  13.008
29571W        W 1100   2.529  29.424   1.850
29572W        W 1101  34.631  31.101  14.831
29573W        W 1102  40.144  16.717  12.503
29574W        W 1103   7.185  40.643   1.271
29575W        W 1104  31.931  42.605  12.564
29576W        W 1105  37.578  38.393   3.808
29577W        W 1106   4.638  17.206   4.215
29578W        W 1107  44.834  25.758  11.255
29579W        W 1108  11.379  18.174   2.906
29580W        W 1109  22.744  14.272   4.559
29581W        W 1110  44.928  13.549  14.444
29582W        W 1111  40.476  34.669  14.849
29583W        W 1112  43.052  11.616  12.385
29584W        W 1113   1.927  28.570  12.934
29585W        W 1114  32.091  15.571  12.628
29586W        W 1115  19.344  36.302   1.228
29587W        W 1116  21.693   2.437   2.479
29588W        W 1117   4.835  30.152   4.099
29589W        W 1118  13.021   2.601  13.671
29590W        W 1119  43.295  18.492   2.232
29591W        W 1120   1.925  21.185   4.362
29592W        W 1121  16.533  27.529   2.179
29593W        W 1122  12.747  30.355  13.092
29594W        W 1123  15.130  12.713   1.297
29595W        W 1124  37.449  19.734   2.278
29596W        W 1125  32.331  28.154   5.296
29597W        W 1126   6.661  44.364   0.920
29598W        W 1127  22.132  29.447   2.543
29599W        W 1128  35.453  39.511   0.569
29600W        W 1129  26.224  26.235  13.908
29601W        W 1130  41.881  21.142  11.655
29602W        W 1131  10.058  33.049   1.476
29603W        W 1132  18.163   2.656  12.898
29604W        W 1133  28.724  21.779   4.348
29605W        W 1134  10.431  25.737  14.412
29606W        W 1135  39.747   6.849  13.944
29607W        W 1136  21.219  37.127   4.697
29608W        W 1137  10.330   1.693  10.635
29609W        W 1138  31.472   9.637   2.160
29610W        W 1139  28.723  20.114   2.709
29611W        W 1140  30.961  14.677   2.396
29612W        W 1141  38.561  13.933   0.217
29613W        W 1142  40.085   2.797  12.874
29614W        W 1143   8.097  22.627   4.528
29615W        W 1144  34.269   4.032  10.818
29616W        W 1145  44.230  32.679  11.456
29617W        W 1146  26.517  28.890  11.106
29618W        W 1147  25.074  20.184  10.950
29619W        W 1148  21.956   8.761   4.528
29620W        W 1149   0.166  43.444   4.530
29621W        W 1150  39.975  24.761   1.490
29622W        W 1151  20.509  23.257   1.941
29623W        W 1152   1.934  39.907   2.211
29624W        W 1153  19.600   0.700  11.704
29625W        W 1154  32.039   5.596  11.911
29626W        W 1155  25.163   3.801  13.245
29627W        W 1156  18.633  25.991   2.464
29628W        W 1157  26.770  24.154   2.085
29629W        W 1158   9.868  16.758  12.536
29630W        W 1159   5.249  27.484   2.285
29631W        W 1160   3.867  43.376  12.323
29632W        W 1161  22.538  19.093   1.889
29633W        W 1162  38.324   5.529   4.076
29634W        W 1163  17.101  23.507   2.256
29635W        W 1164  35.085  19.199  14.458
29636W        W 1165  31.178   4.901  10.488
29637W        W 1166  44.823  35.036   2.341
29638W        W 1167  31.614  35.848  14.496
29639W        W 1168  44.751   4.132  13.903
29640W        W 1169  40.261  35.710  10.379
29641W        W 1170  21.632  22.226  11.873
29642W        W 1171  27.927   2.933   1.897
29643W        W 1172  33.930  11.728  14.449
29644W        W 1173  25.617  39.012  13.056
29645W        W 1174  40.491  33.900  13.845
29646W        W 1175  26.033  14.214   3.382
29647W        W 1176  43.873  23.234  14.563
29648W        W 1177  15.708  12.146   4.821
29649W        W 1178  28.483  42.371  12.486
29650W        W 1179   5.730  19.893   2.127
29651W        W 1180  27.101  20.731  12.047
29652W        W 1181  40.020   0.406  13.212
29653W        W 1182  41.543  30.807   1.764
29654W        W 1183  32.476  10.934  13.633
29655W        W 1184  26.691  37.554   1.861
29656W        W 1185  28.017  17.708  12.909
29657W        W 1186  32.438  38.250  14.727
29658W        W 1187  30.504  36.417   3.678
29659W        W 1188   5.599  20.682   0.324
29660W        W 1189  21.190  29.938   4.265
29661W        W 1190  26.234  21.640   3.343
29662W        W 1191  39.769  22.504   4.155
29663W        W 1192  13.615  23.255  13.521
29664W        W 1193  18.055   2.755  12.019
29665W        W 1194   3.249  28.011   3.310
29666W        W 1195   4.797   4.869  12.059
29667W        W 1196  29.367  11.159   0.708
29668W        W 1197  23.912  35.847   3.616
29669W        W 1198   4.929  38.579   0.049
29670W        W 1199  16.746   9.703  12.383
29671W        W 1200  34.098  19.501  14.516
29672W        W 1201  24.120  18.583  10.852
29673W        W 1202  36.968  29.075  11.835
29674W        W 1203  15.710  35.809   0.422
29675W        W 1204  30.962  19.559  13.825
29676W        W 1205  33.532  12.543  12.453
29677W        W 1206  43.671  34.699   5.049
29678W        W 1207  26.804  43.918  13.088
29679W        W 1208  30.683   0.887   4.613
29680W        W 1209  19.593   0.261   3.821
29681W        W 1210  18.344  42.954  11.716
29682W        W 1211   0.531  32.721  14.918
29683W        W 1212  20.365   4.008   2.379
29684W        W 1213  35.418  18.979   2.774
29685W        W 1214  16.178  37.542  14.811
29686W        W 1215   5.568  43.681  12.450
29687W        W 1216  28.599  38.078  11.472
29688W        W 1217   8.599   3.413  12.602
29689W        W 1218  42.405  43.433  12.381
29690W        W 1219  25.953  16.092  13.631
29691W        W 1220  11.357  33.780  13.999
29692W        W 1221   5.803  21.215   4.450
29693W        W 1222  28.751  42.284  12.918
29694W        W 1223  12.248  19.348   4.499
29695W        W 1224  35.160   5.202   3.697
29696W        W 1225   9.368   3.991  14.063
29697W        W 1226  16.234  22.253  14.832
29698W        W 1227  32.555   8.412  10.707
29699W        W 1228  34.364  41.274  14.899
29700W        W 1229   8.030  36.093  10.687
29701W        W 1230  19.026  43.528  11.732
29702W        W 1231  40.298  28.317   0.009
29703W        W 1232  26.692  44.201   4.529
29704W        W 1233  31.295  19.566  11.537
29705W        W 1234   6.307  17.524   2.630
29706W        W 1235  17.579  24.689   1.010
29707W        W 1236  44.007  17.190   4.177
29708W        W 1237  23.932  36.984  14.921
29709W        W 1238  43.873  13.081  14.046
29710W        W 1239  15.517  10.644   1.234
29711W        W 1240  41.514  22.601   4.534
29712W        W 1241   1.692  34.513   0.495
29713W        W 1242  36.875  14.939   1.348
29714W        W 1243  25.810  20.397  11.900
29715W        W 1244  36.342  39.305   0.028
29716W        W 1245  21.746  44.946   0.809
29717W        W 1246  29.551  42.520   2.224
29718W        W 1247  37.586  33.240   2.162
29719W        W 1248  35.488   3.492   0.758
29720W        W 1249  16.282  44.786   0.337
29721W        W 1250  41.813  36.909   0.358
29722W        W 1251  43.747  10.796  12.950
29723W        W 1252  44.049  16.661  14.620
29724W        W 1253  14.565   0.942  12.519
29725W        W 1254  35.950  23.507   4.537
29726W        W 1255  42.763  44.886  13.510
29727W        W 1256   8.895  30.433   0.411
29728W        W 1257  20.795  10.816   0.421
29729W        W 1258   7.405   9.100  14.937
29730W        W 1259  14.446  14.128  14.057
29731W        W 1260   6.154  22.497  11.626
29732W        W 1261  23.490  34.055   3.189
29733W        W 1262  36.359   1.278   2.866
29734W        W 1263  28.595  43.685  11.121
29735W        W 1264  23.995  18.433   3.742
29736W        W 1265  24.553  25.974   3.620
29737W        W 1266  19.528  13.614   1.044
29738W        W 1267   1.681  23.066   0.574
29739W        W 1268  34.796  43.329  10.655
29740W        W 1269   8.404  20.601  13.911
29741W        W 1270   9.083   8.305   2.751
29742W        W 1271  24.582  37.493   3.485
29743W        W 1272  39.476  21.051  11.547
29744W        W 1273  40.474   4.625   4.653
29745W        W 1274  36.547  23.723   1.288
29746W        W 1275  33.134   4.733  10.320
29747W        W 1276  29.508  40.520   0.824
29748W        W 1277  13.811  37.823   1.222
29749W        W 1278  37.028  17.221   0.738
29750W        W 1279  33.355  31.518   3.191
29751W        W 1280   8.023  27.566   0.819
29752W        W 1281  18.609  41.428  12.379
29753W        W 1282  10.386  14.365   0.516
29754W        W 1283   1.469  27.098  11.838
29755W        W 1284  23.031  19.358  12.426
29756W        W 1285  30.638  26.292   1.926
29757W        W 1286  40.780   2.729   3.087
29758W        W 1287  44.175  26.645  11.957
29759W        W 1288   4.219  25.484   0.484
29760W        W 1289  19.858  22.126  14.837
29761W        W 1290  34.277  16.461   2.307
29762W        W 1291  38.820  39.656  13.899
29763W        W 1292  16.527   3.212   2.342
29764W        W 1293  38.105  35.907   2.118
29765W        W 1294   6.248  44.588   4.197
29766W        W 1295   5.391  15.252  11.135
29767W        W 1296  35.994  39.475  14.693
29768W        W 1297  16.562  36.423  12.521
29769W        W 1298  10.704  40.002   1.564
29770W        W 1299  42.964  34.550   1.022
29771W        W 1300  29.331  32.449  10.303
29772W        W 1301   9.459  25.542  12.966
29773W        W 1302  44.609  36.032   0.846
29774W        W 1303  36.832  34.845  13.003
29775W        W 1304   6.414  19.313   1.419
29776W        W 1305  34.585   4.727   1.214
29777W        W 1306   0.588  44.962  10.604
29778W        W 1307  33.133  33.420  12.774
29779W        W 1308  42.059  14.797  13.676
29780W        W 1309  13.604  29.217   3.903
29781W        W 1310  11.289  20.752  14.440
29782W        W 1311  26.533  35.856   2.221
29783W        W 1312  40.605  42.926  13.647
29784W        W 1313   8.597  40.410  13.552
29785W        W 1314  10.340  16.184   4.653
29786W        W 1315  19.294  42.966  11.162
29787W        W 1316  39.061  15.540   5.062
29788W        W 1317  26.585  28.904   4.116
29789W        W 1318  30.557  32.505   2.837
29790W        W 1319  41.544  24.077   1.750
29791W        W 1320  41.394   8.151   1.743
29792W        W 1321  38.518   5.980  11.554
29793W        W 1322  34.431   4.759   4.637
29794W        W 1323  35.264   9.867   3.203
29795W        W 1324  36.829  39.928   1.848
29796W        W 1325  18.595  10.628   4.860
29797W        W 1326   3.313   5.396   4.496
29798W        W 1327   6.906  34.336   0.681
29799W        W 1328  27.483  39.822   1.522
29800W        W 1329  31.340  17.292  14.095
29801W        W 1330   1.168  20.572  14.622
29802W        W 1331  12.241   4.825   0.016
29803W        W 1332  26.702   4.252   3.864
29804W        W 1333  16.117  31.752   0.407
29805W        W 1334   9.228  34.569  11.683
29806W        W 1335   4.335  37.573   2.632
29807W        W 1336  29.865  25.767  14.498
29808W        W 1337  24.763   8.864  13.763
29809W        W 1338  23.061  32.910   3.560
29810W        W 1339   2.547  14.131  13.039
29811W        W 1340   0.169  25.987  10.659
29812W        W 1341  30.996   3.469  13.458
29813W        W 1342  35.046  41.224   1.709
29814W        W 1343  13.173  25.181  13.591
29815W        W 1344  13.697   0.361   0.833
29816W        W 1345  39.347  25.529   4.516
29817W        W 1346  40.803  12.375  11.070
29818W        W 1347  34.559  41.076   4.321
29819W        W 1348  24.275  16.024  12.044
29820W        W 1349   3.695  30.376   4.128
29821W        W 1350   1.932  20.496  14.298
29822W        W 1351  34.619   4.424   2.495
29823W        W 1352  10.261  29.661   2.744
29824W        W 1353  14.671  17.338   1.664
29825W        W 1354   3.273  20.565  12.614
29826W        W 1355   2.057  29.066   2.780
29827W        W 1356  40.920  24.628   3.194
29828W        W 1357  39.343  14.613   1.939
29829W        W 1358   3.265  28.942  12.043
29830W        W 1359  42.628  24.152   0.870
29831W        W 1360  16.583  31.082  14.081
29832W        W 1361  17.566  12.030  11.699
29833W        W 1362   6.236  13.533  10.180
29834W        W 1363  24.200  11.284  13.462
29835W        W 1364  34.099  15.092   2.109
29836W        W 1365   1.845  36.103   0.683
29837W        W 1366  36.121  11.845   2.814
29838W        W 1367  37.627  38.652  10.292
29839W        W 1368   6.233  10.391  14.388
29840W        W 1369  36.267  31.476  14.622
29841W        W 1370   3.726  11.274  11.923
29842W        W 1371  39.302  39.982  14.637
29843W        W 1372  14.159  33.206  13.283
29844W        W 1373  34.030  44.759   4.813
29845W        W 1374  20.597  31.522   3.476
29846W        W 1375   3.967   0.990  11.298
29847W        W 1376  40.633  43.266   0.738
29848W        W 1377   2.862  18.553  11.730
29849W        W 1378  22.926  37.378  11.841
29850W        W 1379  17.028  37.251   4.103
29851W        W 1380  13.482  32.515   1.770
29852W        W 1381  41.583  24.763   1.974
29853W        W 1382  18.611  23.283  12.963
29854W        W 1383  44.321  22.285  13.485
29855W        W 1384   6.244  36.370  10.676
29856W        W 1385  24.116  23.127   3.954
29857W        W 1386  26.634   7.495   0.240
29858W        W 1387  16.570  40.466   4.688
29859W        W 1388  29.183  32.227   1.911
29860W        W 1389  10.866  26.759   3.196
29861W        W 1390  30.536  18.255  10.876
29862W        W 1391  42.158  27.760  13.993
29863W        W 1392  29.814   4.368   2.915
29864W        W 1393  43.946  12.058  12.025
29865W        W 1394  40.288  15.342  13.389
29866W        W 1395   4.783  27.272  10.572
29867W        W 1396  33.097   9.161  10.375
29868W        W 1397  29.119  42.855   4.199
29869W        W 1398   3.594  35.095  12.132
29870W        W 1399  27.530  31.900  12.339
29871W        W 1400  30.975  18.678   0.072
29872W        W 1401  25.906  37.303   0.838
29873W        W 1402   7.751  36.624   0.401
29874W        W 1403  41.283  18.272  11.718
29875W        W 1404  44.505  38.810   0.668
29876W        W 1405  28.531  32.123  13.081
29877W        W 1406  18.088  34.647  14.459
29878W        W 1407   5.955  11.208  11.491
29879W        W 1408  17.354  12.688  14.150
29880W        W 1409  14.685   5.631  13.317
29881W        W 1410   7.397  17.420   4.204
29882W        W 1411   7.513   2.427   1.277
29883W        W 1412  26.821  40.415  12.828
29884W        W 1413  14.215  25.732  13.287
29885W        W 1414  44.394  15.677   2.206
29886W        W 1415   3.474  29.389  14.021
29887W        W 1416  42.460  37.414   2.390
29888W        W 1417  34.556  33.959   1.216
29889W        W 1418  37.947   7.732   3.618
29890W        W 1419  37.060  22.017  12.573
29891W        W 1420   1.015   4.871  13.997
29892W        W 1421  44.224  40.379  13.838
29893W        W 1422   4.829  42.312   2.867
29894W        W 1423   5.442  17.761  14.721
29895W        W 1424   9.438  23.771  12.840
29896W        W 1425  11.760  17.762  14.814
29897W        W 1426  17.759   4.377  14.591
29898W        W 1427  25.285  20.838  14.260
29899W        W 1428   2.883  11.256   4.124
29900W        W 1429   1.098   8.137  13.898
29901W        W 1430  11.984  21.711   4.006
29902W        W 1431  43.041  29.685   1.938
29903W        W 1432  16.276  43.261   2.257
29904W        W 1433  18.681  29.546  13.323
29905W        W 1434   2.839  13.799   3.956
29906W        W 1435  26.976  32.433   1.283
29907W        W 1436   8.422   6.155  13.355
29908W        W 1437  11.541  14.312   1.825
29909W        W 1438  32.915  36.043  11.473
29910W        W 1439  34.057  15.810  10.704
29911W        W 1440   6.207  28.467  10.746
29912W        W 1441  16.765  32.194   4.521
29913W        W 1442  35.975  32.032  11.335
29914W        W 1443  28.753   3.025   1.442
29915W        W 1444   3.256  22.238   3.717
29916W        W 1445  18.017  40.107  11.736
29917W        W 1446  17.071   0.937   2.814
29918W        W 1447  30.962   7.409   4.644
29919W        W 1448  27.535   4.923  12.906
29920W        W 1449   6.323  17.357   4.571
29921W        W 1450  33.307  21.879  11.976
29922W        W 1451   7.313   4.789  11.013
29923W        W 1452  41.730  41.383  14.113
29924W        W 1453  16.156  38.339  12.625
29925W        W 1454  10.638  24.715   4.124
29926W        W 1455  34.900  24.961   2.256
29927W        W 1456  29.708   1.492  14.098
29928W        W 1457  15.046  23.798   3.627
29929W        W 1458  17.561  32.151  10.796
29930W        W 1459  38.333  42.776   1.512
29931W        W 1460  19.771   3.673   4.584
29932W        W 1461  36.913  14.676   0.827
29933W        W 1462  15.717   1.525   0.796
29934W        W 1463   7.912  10.967  12.902
29935W        W 1464  25.787  18.848  11.686
29936W        W 1465  34.124   0.920  11.541
29937W        W 1466   6.291  18.109  10.271
29938W        W 1467   6.315  14.474   3.715
29939W        W 1468   8.849   7.758  10.897
29940W        W 1469  18.571   1.753   3.330
29941W        W 1470  13.096  20.630   3.608
29942W        W 1471  16.792  33.479   2.168
29943W        W 1472  10.091   7.283  13.813
29944W        W 1473  20.759   4.664   3.521
29945W        W 1474  31.004  35.135  14.310
29946W        W 1475  14.749  12.862   3.617
29947W        W 1476  40.917  29.618   4.104
29948W        W 1477  14.604  16.770   0.838
29949W        W 1478  11.268   3.235  10.705
29950W        W 1479  35.770  40.518  13.988
29951W        W 1480  35.394  10.710  13.324
29952W        W 1481  41.982   8.419  10.490
29953W        W 1482  17.300  20.579  13.141
29954W        W 1483  24.949  19.595   3.570
29955W        W 1484  37.510  11.856  12.087
29956W        W 1485  33.077  20.871   3.954
29957W        W 1486  22.961   6.747   4.322
29958W        W 1487  26.048  15.126   3.396
29959W        W 1488  31.092  13.079   1.433
29960W        W 1489   9.944  19.221  14.771
29961W        W 1490  18.116  14.693   4.064
29962W        W 1491  40.980  15.586  12.334
29963W        W 1492   6.594  34.016  10.839
29964W        W 1493   2.929  34.697  14.912
29965W        W 1494  21.010  26.079   5.123
29966W        W 1495  16.036  24.478   2.613
29967W        W 1496  33.784  18.803  13.453
29968W        W 1497  10.291   6.379   2.664
29969W        W 1498  18.191  26.156   0.887
29970W        W 1499  44.411  22.730   0.434
29971W        W 1500   2.829  14.597   4.477
29972W        W 1501  37.964  28.470  11.969
29973W        W 1502  14.763  26.229   2.268
29974W        W 1503  10.561   8.418   1.384
29975W        W 1504  39.912   6.819   1.856
29976W        W 1505  35.047  33.598   0.925
29977W        W 1506  32.927   2.446  13.838
29978W        W 1507  15.336  41.348   2.238
29979W        W 1508  20.228   3.369  10.936
29980W        W 1509   3.280  16.017  13.384
29981W        W 1510  15.174  37.197  12.876
29982W        W 1511  24.004  21.504  14.593
29983W        W 1512  12.862  10.860   0.308
29984W        W 1513  28.371  13.711   3.483
29985W        W 1514  20.709  25.122  12.216
29986W        W 1515  24.279  13.397  13.316
29987W        W 1516   0.060  21.678  14.373
29988W        W 1517  35.722  23.587  13.078
29989W        W 1518  14.178   7.769   0.890
29990W        W 1519   5.731   7.623   4.676
29991W        W 1520  29.126  14.671   0.938
29992W        W 1521  37.193  40.538  12.163
29993W        W 1522  34.690   1.077  14.503
29994W        W 1523  15.335   3.341   3.685
29995W        W 1524  24.763  31.908   2.631
29996W        W 1525   2.688   3.993  13.280
29997W        W 1526  36.823  30.614   3.623
29998W        W 1527   2.731  40.491   3.888
29999W        W 1528   6.384  41.901   4.591
30000W        W 1529   4.855  44.328   4.309
30001W        W 1530  18.696  34.285  13.494
30002W        W 1531  13.697  24.036  12.569
30003W        W 1532  43.495   8.162   2.196
30004W        W 1533  30.226  30.395   4.688
30005W        W 1534  38.391   1.049  13.335
30006W        W 1535  44.787   4.258  10.689
30007W        W 1536  34.191  40.651   0.767
30008W        W 1537  14.821  19.679   2.306
30009W        W 1538  33.002   4.420  12.430
30010W        W 1539  11.181  14.118   2.770
30011W        W 1540  33.825  38.916   3.759
30012W        W 1541  25.762  12.670  11.984
30013W        W 1542   0.261  22.693  12.564
30014W        W 1543  22.100  10.469   1.427
30015W        W 1544  15.617   9.250  14.451
30016W        W 1545  16.847  18.272  12.253
30017W        W 1546  30.100   3.531   0.324
30018W        W 1547  28.866  25.958  11.503
30019W        W 1548  22.582  33.184   1.873
30020W        W 1549   6.254  38.538  13.052
30021W        W 1550  38.778  13.239  14.285
30022W        W 1551   3.819   9.215   4.051
30023W        W 1552  14.297  33.432   3.646
30024W        W 1553  18.210  15.951  12.085
30025W        W 1554  23.860  16.597   0.734
30026W        W 1555   9.801  30.984  10.732
30027W        W 1556  32.743  42.443   0.439
30028W        W 1557  16.340   6.519   3.877
30029W        W 1558  39.767   5.711   4.672
30030W        W 1559  43.474   1.628   0.766
30031W        W 1560   5.948  16.904  12.733
30032W        W 1561  23.959  44.608   1.802
30033W        W 1562   0.311   2.736   3.682
30034W        W 1563  13.167  23.136   4.498
30035W        W 1564  25.685  15.905   0.872
30036W        W 1565  43.864  10.653  13.839
30037W        W 1566  32.855  29.913  13.962
30038W        W 1567  41.237  32.763  11.143
30039W        W 1568  39.717  30.394  14.038
30040W        W 1569  17.071  16.195   4.899
30041W        W 1570  34.826  37.985   2.261
30042W        W 1571  33.491  19.203  14.442
30043W        W 1572   8.299  31.029  14.693
30044W        W 1573   9.701  37.247  13.207
30045W        W 1574  14.092  13.128   0.662
30046W        W 1575  40.137   7.273   3.760
30047W        W 1576   0.437  15.853  14.413
30048W        W 1577   5.666  20.846   9.427
30049W        W 1578   7.327  17.188   0.955
30050W        W 1579   6.336  15.551   2.826
30051W        W 1580  43.726  21.062  10.464
30052W        W 1581  38.131   7.027   1.714
30053W        W 1582  34.693   4.886   2.716
30054W        W 1583  36.585   1.964  11.108
30055W        W 1584  14.109   8.409   0.340
30056W        W 1585   2.558  14.203  12.180
30057W        W 1586  24.530  21.029   2.734
30058W        W 1587   6.432   6.826  14.888
30059W        W 1588   1.739  19.581  12.916
30060W        W 1589   8.009  17.648   9.865
30061W        W 1590  11.296   8.793   2.313
30062W        W 1591  32.335  29.139   3.171
30063W        W 1592  13.872   6.981   1.492
30064W        W 1593  41.772   6.749  14.270
30065W        W 1594  37.531  42.405  10.999
30066W        W 1595  34.830  18.637   1.331
30067W        W 1596  39.398   5.896   3.308
30068W        W 1597   3.898   6.656   3.104
30069W        W 1598  44.164  27.087  14.997
30070W        W 1599   7.303  24.641   0.216
30071W        W 1600  42.609  17.774  11.614
30072W        W 1601  10.167  10.711  12.631
30073W        W 1602   2.534  42.338  12.159
30074W        W 1603  44.827  18.040   1.978
30075W        W 1604  36.797  24.774   2.820
30076W        W 1605  14.601  24.460   2.604
30077W        W 1606   2.250  16.118  10.660
30078W        W 1607  11.620   2.907   2.214
30079W        W 1608  19.051   4.170  14.511
30080W        W 1609   6.859  20.760   5.038
30081W        W 1610  24.833  22.676  13.525
30082W        W 1611  24.466  25.937   3.119
30083W        W 1612  13.099  44.838  12.361
30084W        W 1613   5.168  35.910  12.535
30085W        W 1614   7.919  28.437  13.030
30086W        W 1615  11.175  36.416   4.805
30087W        W 1616  21.173  41.160  11.177
30088W        W 1617  13.296  37.923   2.337
30089W        W 1618  26.109   1.977   1.506
30090W        W 1619  12.269  34.698   1.064
30091W        W 1620  32.605  42.489  13.906
30092W        W 1621  20.186  13.899   0.536
30093W        W 1622   6.861  16.178  11.271
30094W        W 1623   5.418  25.587  14.900
30095W        W 1624   9.773  36.041   4.764
30096W        W 1625  43.240  43.748  14.667
30097W        W 1626  11.878  22.756  12.409
30098W        W 1627   4.635  21.221  11.559
30099W        W 1628  23.519  33.932  12.507
30100W        W 1629  14.578  18.312   4.133
30101W        W 1630   0.126  15.625   4.451
30102W        W 1631  24.733  44.094   2.195
30103W        W 1632  28.577  12.120  14.913
30104W        W 1633  13.549  35.458  12.998
30105W        W 1634  21.963  12.890  14.733
30106W        W 1635  18.463   9.097   0.965
30107W        W 1636   0.811  42.404   1.356
30108W        W 1637  22.857   2.609  11.437
30109W        W 1638   3.580   1.690   1.458
30110W        W 1639  23.662  27.115  11.539
30111W        W 1640  26.161  13.895  11.235
30112W        W 1641  39.053   4.998   4.585
30113W        W 1642   9.643  34.494   1.239
30114W        W 1643  42.019   2.441  14.337
30115W        W 1644  12.052  44.206   4.149
30116W        W 1645  44.949  13.559   4.833
30117W        W 1646  31.885  37.326   4.931
30118W        W 1647  16.181  10.139   2.109
30119W        W 1648  30.905   3.961   2.443
30120W        W 1649  32.884  32.682  11.612
30121W        W 1650  34.739  44.424  14.082
30122W        W 1651  37.890  25.742  11.462
30123W        W 1652   1.036  29.503  14.815
30124W        W 1653  14.775  39.580  11.392
30125W        W 1654   0.585  17.524  11.531
30126W        W 1655  15.405   4.981   4.666
30127W        W 1656  19.901  23.146  14.208
30128W        W 1657  15.910  35.537   3.028
30129W        W 1658  19.999   0.248   0.890
30130W        W 1659  11.933  34.414   0.295
30131W        W 1660  23.592   1.424  11.174
30132W        W 1661   7.410  21.100  14.929
30133W        W 1662  10.732  26.074  14.694
30134W        W 1663  39.816   5.202  10.596
30135W        W 1664  13.181  30.946  12.741
30136W        W 1665  43.336   3.333   4.201
30137W        W 1666  15.043  25.587  14.873
30138W        W 1667  27.419  31.835  11.428
30139W        W 1668  17.306  39.827  10.749
30140W        W 1669  33.923  30.152  11.010
30141W        W 1670   4.871   5.607   0.687
30142W        W 1671  44.717  13.694  13.487
30143W        W 1672   7.830  43.462   3.560
30144W        W 1673  15.686  35.028  14.473
30145W        W 1674  12.561  18.638   4.586
30146W        W 1675  13.233  33.189  11.290
30147W        W 1676  42.352  39.503  10.684
30148W        W 1677   3.743  14.223  11.251
30149W        W 1678  31.177  33.240   1.184
30150W        W 1679  21.476  11.297   1.017
30151W        W 1680  36.725  14.235  10.298
30152W        W 1681  38.617  32.712  11.153
30153W        W 1682  20.268   4.875  14.457
30154W        W 1683  43.312  41.496  13.170
30155W        W 1684  41.931  43.067  14.964
30156W        W 1685  11.431  25.974   2.451
30157W        W 1686  18.920   7.336  11.594
30158W        W 1687  15.800  25.160  14.028
30159W        W 1688  29.574  11.602  13.137
30160W        W 1689  27.064  35.341   4.103
30161W        W 1690   0.726   2.270   0.698
30162W        W 1691  16.822  25.220   4.282
30163W        W 1692   2.210   3.424   9.966
30164W        W 1693   6.744  15.361  11.270
30165W        W 1694  30.961  21.069  13.975
30166W        W 1695   8.345  29.715   2.277
30167W        W 1696  25.607  25.211  13.901
30168W        W 1697   8.882  26.893  13.028
30169W        W 1698  36.525  24.221   3.768
30170W        W 1699  39.613  31.709   4.708
30171W        W 1700  20.299  32.840   3.110
30172W        W 1701  17.651  26.024   2.082
30173W        W 1702  17.473  21.991  14.425
30174W        W 1703  31.591   0.990  10.660
30175W        W 1704  18.195  43.660  14.818
30176W        W 1705  31.772  34.350   0.406
30177W        W 1706  43.312   5.839   4.394
30178W        W 1707  38.623  18.764  11.203
30179W        W 1708  41.905  24.165  14.440
30180W        W 1709   7.653   0.961  13.301
30181W        W 1710  34.099  11.622   4.551
30182W        W 1711  24.015  36.947  13.485
30183W        W 1712  20.106  33.919  12.408
30184W        W 1713  23.772  36.664   4.700
30185W        W 1714  11.708   9.628   4.785
30186W        W 1715  17.932  27.700  14.964
30187W        W 1716  30.977  36.716  11.988
30188W        W 1717  39.354  30.944  12.577
30189W        W 1718  19.112  15.378  11.177
30190W        W 1719  10.731  14.392   2.637
30191W        W 1720  21.948  39.039  11.985
30192W        W 1721   5.877  27.626  11.699
30193W        W 1722  32.522  13.895   0.847
30194W        W 1723  36.724  17.587  11.221
30195W        W 1724  16.514   7.350   3.633
30196W        W 1725  21.089  43.271  14.834
30197W        W 1726  20.169  28.297   0.838
30198W        W 1727  36.292  27.094   1.503
30199W        W 1728  31.317   6.369  11.214
30200W        W 1729  29.453   4.542   1.907
30201W        W 1730  31.023  10.321   1.802
30202W        W 1731  30.099  23.226   2.172
30203W        W 1732  11.108   4.694  10.638
30204W        W 1733  19.322  18.654   0.702
30205W        W 1734   6.207  36.921   4.630
30206W        W 1735  29.966   0.460  12.021
30207W        W 1736  33.385   4.280  11.416
30208W        W 1737  27.214  40.898  14.833
30209W        W 1738   6.782  31.438   1.847
30210W        W 1739   0.301  15.095  10.698
30211W        W 1740   3.336  22.243   2.345
30212W        W 1741  41.319  34.614   1.861
30213W        W 1742  19.922  18.232  12.622
30214W        W 1743  23.251  37.035   3.400
30215W        W 1744  33.628  40.909   4.345
30216W        W 1745  38.320   4.700   0.194
30217W        W 1746   9.064  11.585   1.913
30218W        W 1747  25.195   5.304   2.103
30219W        W 1748  34.109  26.448  10.516
30220W        W 1749  39.279  42.733   1.368
30221W        W 1750  13.888  39.739  12.613
30222W        W 1751   2.264  44.066  14.140
30223W        W 1752  18.758   3.749  13.353
30224W        W 1753  28.159  11.250   2.194
30225W        W 1754  30.753  33.026   2.763
30226W        W 1755  10.268  17.406  10.581
30227W        W 1756  18.664   6.885  11.538
30228W        W 1757  26.634   8.212  14.492
30229W        W 1758   4.658  44.043  12.588
30230W        W 1759  44.173  15.630  11.202
30231W        W 1760  22.324  11.841   4.887
30232W        W 1761  39.871  20.914  13.954
30233W        W 1762  27.216  15.859  11.264
30234W        W 1763  13.216   9.170   3.691
30235W        W 1764  16.992   4.375  11.151
30236W        W 1765  39.564   5.678  10.649
30237W        W 1766  24.424  31.042   4.489
30238W        W 1767  11.184  18.557  13.372
30239W        W 1768  14.834  39.303  14.449
30240W        W 1769  10.874  30.421  12.526
30241W        W 1770  16.841  28.952  11.313
30242W        W 1771  25.408  24.761  10.655
30243W        W 1772  40.421  43.466  14.460
30244W        W 1773  27.765  14.975   4.570
30245W        W 1774  24.182  27.852   5.046
30246W        W 1775  35.842  11.966  11.462
30247W        W 1776  21.776  43.757   0.248
30248W        W 1777   2.467   0.407   2.189
30249W        W 1778   0.799  19.733  13.133
30250W        W 1779   4.785  36.002  13.999
30251W        W 1780  28.546   9.774   1.780
30252W        W 1781  44.491   4.904   2.392
30253W        W 1782  37.491   7.582   1.164
30254W        W 1783  14.157  32.357   1.338
30255W        W 1784  31.375  36.420   1.086
30256W        W 1785  19.186  16.784  11.832
30257W        W 1786  20.041  14.669   2.681
30258W        W 1787  13.353  11.835  11.984
30259W        W 1788  28.271  43.501  10.761
30260W        W 1789  25.332  15.867  11.221
30261W        W 1790  44.060   7.392   0.537
30262W        W 1791  14.635  18.554  14.450
30263W        W 1792   7.667  39.018   2.199
30264W        W 1793  11.479  13.393   0.821
30265W        W 1794  16.186  23.643  11.217
30266W        W 1795  25.048  34.849   2.730
30267W        W 1796  19.685  35.291   2.600
30268W        W 1797   8.280  22.632  11.590
30269W        W 1798   2.074  21.101   1.553
30270W        W 1799  39.761  29.514  10.701
30271W        W 1800  27.461  18.215   0.099
30272W        W 1801  44.753  20.158  12.061
30273W        W 1802  21.557  40.133   2.276
30274W        W 1803  21.190  24.148  13.932
30275W        W 1804  35.990  41.026  11.170
30276W        W 1805  37.194  16.810   2.173
30277W        W 1806  20.755  14.656   3.206
30278W        W 1807  30.674  38.025  12.995
30279W        W 1808  22.274  44.967  12.711
30280W        W 1809   4.900  21.548  13.318
30281W        W 1810  18.528  15.679   2.217
30282W        W 1811  28.651  23.049  11.529
30283W        W 1812  37.444   0.779   2.107
30284W        W 1813  42.872  29.408  13.308
30285W        W 1814  28.062  15.066  10.555
30286W        W 1815   9.182  29.035   1.003
30287W        W 1816  21.517  17.366  10.798
30288W        W 1817  31.432  25.756   1.763
30289W        W 1818  43.204   4.470   0.848
30290W        W 1819   5.038   9.376  12.875
30291W        W 1820  40.375  43.507   4.625
30292W        W 1821  44.730   9.336   2.299
30293W        W 1822   4.955  10.239   4.928
30294W        W 1823  40.781   0.501  10.864
30295W        W 1824  26.106   3.743  14.315
30296W        W 1825   9.455  31.033   1.175
30297W        W 1826   4.327  12.363  13.448
30298W        W 1827  40.825  24.473  10.574
30299W        W 1828  26.636   2.191   4.021
30300W        W 1829  26.019  41.888   2.285
30301W        W 1830  40.731  13.700   2.260
30302W        W 1831  24.317  22.650   1.353
30303W        W 1832  43.265  36.580  13.843
30304W        W 1833   5.203  34.066   0.020
30305W        W 1834  38.958  22.588   3.630
30306W        W 1835  18.909  30.397   0.679
30307W        W 1836  33.833  11.182  11.612
30308W        W 1837  31.424   7.681   0.953
30309W        W 1838   4.889  37.479   9.863
30310W        W 1839   5.698   9.499  11.009
30311W        W 1840  29.431  28.716   0.822
30312W        W 1841  27.447   7.405  11.170
30313W        W 1842   6.502  39.315   0.864
30314W        W 1843  34.791  40.914  11.600
30315W        W 1844  42.932  40.485  12.173
30316W        W 1845  11.110  30.934  11.509
30317W        W 1846  26.022  41.406   4.233
30318W        W 1847  14.718  33.501   2.394
30319W        W 1848  37.331  37.870   1.246
30320W        W 1849  15.800  14.750   4.344
30321W        W 1850  33.058  21.538   1.866
30322W        W 1851   0.952  43.932  11.135
30323W        W 1852  32.372   3.632   2.829
30324W        W 1853  27.162  17.220  13.311
30325W        W 1854  18.788  41.835   4.641
30326W        W 1855  13.172  14.567   3.675
30327W        W 1856  32.701  12.720   3.471
30328W        W 1857  39.504  24.216   2.317
30329W        W 1858  43.307  21.776  10.420
30330W        W 1859   8.796  38.360   2.251
30331W        W 1860   9.660  19.285  11.576
30332W        W 1861  10.177  33.486  10.703
30333W        W 1862   5.253  11.305   1.353
30334W        W 1863  22.568  17.831   1.225
30335W        W 1864  27.235  14.388   2.261
30336W        W 1865   4.438  19.711  14.432
30337W        W 1866  12.464   1.839  13.868
30338W        W 1867  44.057  44.252   1.260
30339W        W 1868  39.469  29.501   2.612
30340W        W 1869  23.192  43.346   3.221
30341W        W 1870  19.314  18.057   0.255
30342W        W 1871  20.765  12.161   2.373
30343W        W 1872  35.062   3.733   0.383
30344W        W 1873  15.760  43.588  11.624
30345W        W 1874  33.048  39.961  14.464
30346W        W 1875   6.937  39.927   3.530
30347W        W 1876  20.541   7.398   0.227
30348W        W 1877  34.086   1.798   0.846
30349W        W 1878   4.865  14.814  14.924
30350W        W 1879   1.515  20.499   4.843
30351W        W 1880  11.867   6.760  14.790
30352W        W 1881  27.928  12.090  12.078
30353W        W 1882   0.222  36.740   4.212
30354W        W 1883  43.775  32.798  14.039
30355W        W 1884  14.001  38.670   1.057
30356W        W 1885  20.556  44.946   0.425
30357W        W 1886  29.075  39.500  11.173
30358W        W 1887  10.275  35.504   1.569
30359W        W 1888   0.286  34.531  12.499
30360W        W 1889  30.530  10.271  11.876
30361W        W 1890  23.525  19.520  12.627
30362W        W 1891  42.440  20.239  14.873
30363W        W 1892   7.240  31.941   3.377
30364W        W 1893   8.324  43.293   4.509
30365W        W 1894   6.413  16.527   2.900
30366W        W 1895  31.954   8.688   0.251
30367W        W 1896  15.796  34.674   3.831
30368W        W 1897  24.498   2.926   3.260
30369W        W 1898  33.030   8.691   2.228
30370W        W 1899  30.540   1.539  12.740
30371W        W 1900  11.794   9.866   3.777
30372W        W 1901  43.787  14.078  11.069
30373W        W 1902   4.064   8.527   0.822
30374W        W 1903  31.878  23.247  10.581
30375W        W 1904   4.898   0.653  13.480
30376W        W 1905  42.983  14.156  14.554
30377W        W 1906  18.478   0.786  12.445
30378W        W 1907  25.142  40.454   0.531
30379W        W 1908  41.967  43.598   0.906
30380W        W 1909   4.980  32.069  14.851
30381W        W 1910  33.170   9.407  11.434
30382W        W 1911   7.692   1.231   4.533
30383W        W 1912  17.010  37.415   1.821
30384W        W 1913  18.706   0.743   4.245
30385W        W 1914   4.782  22.109   4.708
30386W        W 1915  28.728  24.283   3.836
30387W        W 1916  30.418  43.763   0.427
30388W        W 1917  38.640  20.513   2.813
30389W        W 1918  22.632  33.781  12.399
30390W        W 1919  38.646  33.577  13.990
30391W        W 1920  33.727  14.096   0.376
30392W        W 1921  28.544  21.987   2.930
30393W        W 1922  13.342  29.893  11.671
30394W        W 1923  13.212  24.260  12.581
30395W        W 1924  44.957  26.604  11.524
30396W        W 1925   0.733  35.553   1.440
30397W        W 1926  18.098   3.905  13.357
30398W        W 1927  28.939   3.196   0.674
30399W        W 1928  36.241   4.810  12.570
30400W        W 1929  23.295  21.671   3.590
30401W        W 1930  32.257  42.058   1.664
30402W        W 1931  30.843   3.977   0.855
30403W        W 1932  28.018  38.083   0.855
30404W        W 1933  25.062  34.044   1.006
30405W        W 1934   4.407  38.854  14.938
30406W        W 1935  29.355  10.847  12.922
30407W        W 1936  17.357  16.616   4.339
30408W        W 1937   5.247   1.663   2.401
30409W        W 1938  13.229  28.852   2.641
30410W        W 1939  34.766   6.566   4.662
30411W        W 1940   5.424  13.175  10.751
30412W        W 1941  42.951  35.824   0.362
30413W        W 1942  39.159   1.070   2.732
30414W        W 1943  17.027  11.692   2.233
30415W        W 1944  15.212  23.988   4.774
30416W        W 1945  28.351  41.439  12.351
30417W        W 1946  34.708  14.390  12.633
30418W        W 1947  19.023  16.815  11.347
30419W        W 1948   7.329  39.597   4.532
30420W        W 1949  10.930  15.620   3.725
30421W        W 1950   5.678   2.060   0.653
30422W        W 1951  35.440   7.867   3.145
30423W        W 1952  10.182   4.175   5.216
30424W        W 1953  16.315   9.764  11.011
30425W        W 1954  33.046  22.206   0.050
30426W        W 1955   8.330  28.469  11.468
30427W        W 1956  22.496  44.281  11.975
30428W        W 1957   1.941  36.283  12.602
30429W        W 1958   5.214  26.940   3.216
30430W        W 1959  44.316  17.045   2.142
30431W        W 1960   9.344  30.624  14.814
30432W        W 1961  20.525  37.275  14.858
30433W        W 1962  33.312   2.971  12.968
30434W        W 1963  23.746   1.381   3.701
30435W        W 1964  44.660   3.292  13.006
30436W        W 1965  25.938  39.659  10.734
30437W        W 1966  17.499  11.714   0.932
30438W        W 1967  22.364  33.331  12.367
30439W        W 1968  35.073  15.788  13.097
30440W        W 1969  16.392   5.251   1.210
30441W        W 1970  12.654  15.648  10.515
30442W        W 1971  14.581  38.913  13.740
30443W        W 1972  32.126  35.106  11.087
30444W        W 1973   0.760  27.622   3.157
30445W        W 1974  27.929  35.132   4.924
30446W        W 1975  27.001  39.589   2.330
30447W        W 1976   6.845  36.913  12.123
30448W        W 1977  35.992  42.978   1.313
30449W        W 1978   8.709  24.612   0.884
30450W        W 1979  28.933  26.324   1.434
30451W        W 1980  33.611  25.570   4.572
30452W        W 1981   1.455   7.462   0.386
30453W        W 1982  43.000  20.504   1.787
30454W        W 1983  27.545  26.559   2.909
30455W        W 1984   3.899  36.417   0.850
30456W        W 1985  29.120  30.466  11.427
30457W        W 1986  14.293   4.385  13.104
30458W        W 1987   0.700  41.431   3.216
30459W        W 1988   3.387  42.170   0.311
30460W        W 1989  17.674   2.865   0.884
30461W        W 1990  22.374  42.123  13.404
30462W        W 1991  26.140  28.142  13.602
30463W        W 1992   6.255  34.391   0.096
30464W        W 1993  27.043  23.946  14.827
30465W        W 1994  40.137  37.985  12.814
30466W        W 1995  23.551  32.421   4.684
30467W        W 1996  27.984  31.916   2.646
30468W        W 1997   1.873  21.059   1.087
30469W        W 1998  27.237  15.137   1.390
30470W        W 1999   6.643   0.978   3.223
30471W        W 2000  22.197   4.473  11.122
30472W        W 2001  40.123  43.419   0.903
30473W        W 2002  15.416  15.186   5.005
30474W        W 2003   6.610   4.652  13.839
30475W        W 2004  19.568  32.527  13.948
30476W        W 2005  40.849  18.172   1.695
30477W        W 2006  44.907  18.970  12.495
30478W        W 2007  44.320  26.579   1.179
30479W        W 2008   0.217   5.640  13.041
30480W        W 2009  25.885  39.864   0.255
30481W        W 2010  19.383  17.790  14.552
30482W        W 2011   5.269   6.778   4.105
30483W        W 2012  11.650  14.451   4.563
30484W        W 2013   9.362   5.654   2.605
30485W        W 2014  12.279   1.386   3.769
30486W        W 2015   8.459   6.806  13.975
30487W        W 2016  24.293   5.868  11.159
30488W        W 2017   7.338  28.105  14.037
30489W        W 2018  24.512  42.127   3.187
30490W        W 2019  40.114  32.563   1.237
30491W        W 2020   7.971   3.213  14.360
30492W        W 2021   7.283  11.235   3.188
30493W        W 2022  42.349  23.104   4.874
30494W        W 2023  21.746  31.531  11.707
30495W        W 2024  23.623  41.304  14.286
30496W        W 2025  22.825  12.089  11.613
30497W        W 2026  30.232  19.750   2.673
30498W        W 2027  24.757  44.779  11.316
30499W        W 2028  24.539  36.408   4.132
30500W        W 2029   5.430   3.235  10.657
30501W        W 2030  34.007  26.357   3.812
30502W        W 2031  29.243  40.556  12.413
30503W        W 2032  25.490  25.063  14.826
30504W        W 2033   3.272  42.509  11.221
30505W        W 2034  38.871  19.312   9.737
30506W        W 2035  13.118  41.224   3.714
30507W        W 2036  30.103  27.550  11.617
30508W        W 2037  31.460  26.007  14.430
30509W        W 2038  15.014  24.756   2.340
30510W        W 2039   2.407  24.560   0.267
30511W        W 2040  38.966  38.370   2.695
30512W        W 2041  37.058  38.860   0.338
30513W        W 2042   6.330  35.430  10.702
30514W        W 2043  26.895  18.792   4.644
30515W        W 2044  30.999   9.700   4.377
30516W        W 2045  17.546  13.977  14.847
30517W        W 2046   3.236  44.933   4.622
30518W        W 2047   3.185  38.355   3.742
30519W        W 2048  25.008  44.172  14.455
30520W        W 2049  35.949  15.632  13.496
30521W        W 2050  10.867  15.806   2.243
30522W        W 2051   2.473  27.770  10.591
30523W        W 2052  35.890   6.384  11.638
30524W        W 2053  36.603  23.548   3.195
30525W        W 2054  22.873   4.471  14.983
30526W        W 2055  25.121  40.423  12.071
30527W        W 2056   6.397   0.397   0.884
30528W        W 2057  34.079  11.092   3.690
30529W        W 2058   2.011   9.929   0.285
30530W        W 2059  26.453  43.250   4.933
30531W        W 2060  21.952  27.635  11.463
30532W        W 2061   4.427   0.897   4.497
30533W        W 2062   4.959  35.259  10.509
30534W        W 2063  39.929  44.940   4.037
30535W        W 2064  22.038  11.925  11.191
30536W        W 2065  22.112  22.608  13.097
30537W        W 2066   1.745  28.837  14.362
30538W        W 2067  10.953  26.155  10.857
30539W        W 2068  19.577   4.904   4.609
30540W        W 2069  34.463  43.989   3.783
30541W        W 2070  31.619  14.365  12.501
30542W        W 2071   9.456   4.918   0.663
30543W        W 2072  25.519  40.267  12.999
30544W        W 2073  30.178  11.767   3.575
30545W        W 2074  36.105  36.328  13.474
30546W        W 2075  43.509  25.206  13.589
30547W        W 2076  12.458  41.845  12.654
30548W        W 2077   0.509   8.778   1.936
30549W        W 2078  11.866  33.415   0.256
30550W        W 2079  15.372  40.832  13.959
30551W        W 2080  21.197  33.467   1.732
30552W        W 2081  29.308  11.713  14.543
30553W        W 2082  33.965  30.157   2.039
30554W        W 2083  15.657  43.009   2.724
30555W        W 2084  21.014  10.423  10.757
30556W        W 2085  26.073  30.737   4.323
30557W        W 2086  25.706  29.886   4.633
30558W        W 2087   8.799  10.569  12.938
30559W        W 2088  19.656  37.031  14.925
30560W        W 2089   2.469  20.163  14.910
30561W        W 2090  18.801  12.591   1.851
30562W        W 2091  10.818  34.983   0.574
30563W        W 2092  38.612  26.891   3.211
30564W        W 2093  22.208   7.182  12.362
30565W        W 2094   2.311   8.390   1.674
30566W        W 2095  31.040   1.796   3.992
30567W        W 2096  10.105  44.378  13.130
30568W        W 2097  30.630  29.193  13.590
30569W        W 2098  11.701  12.050   4.283
30570W        W 2099   9.019  38.425  12.484
30571W        W 2100  22.729   5.455   4.191
30572W        W 2101  31.652  35.965   2.295
30573W        W 2102  39.450  35.589  10.624
30574W        W 2103  40.817  15.445  13.321
30575W        W 2104  33.718   6.720  11.219
30576W        W 2105  28.840  15.164  13.861
30577W        W 2106  37.335  35.463   1.229
30578W        W 2107   6.387  31.918  11.230
30579W        W 2108  21.287  28.172  11.751
30580W        W 2109  34.973  29.359  12.073
30581W        W 2110  26.149  38.978   1.261
30582W        W 2111  41.522   7.380   3.901
30583W        W 2112  32.920  13.545   0.813
30584W        W 2113  41.704  22.125  11.712
30585W        W 2114  12.120  23.284   4.245
30586W        W 2115  25.252   1.067   3.286
30587W        W 2116  36.311   3.115   3.692
30588W        W 2117  19.644   1.530  12.109
30589W        W 2118  41.400  24.283  13.607
30590W        W 2119   4.850  18.072  13.540
30591W        W 2120  28.653  15.280  12.443
30592W        W 2121  33.495   8.745   2.487
30593W        W 2122  31.933   1.310  14.002
30594W        W 2123   2.603  21.122  10.433
30595W        W 2124  37.114   1.316   2.398
30596W        W 2125  39.159   1.187   3.647
30597W        W 2126  23.737  36.007  10.821
30598W        W 2127  13.959  10.869  14.363
30599W        W 2128  33.405  10.174  12.534
30600W        W 2129  22.548  31.802  13.970
30601W        W 2130  18.151  24.024   0.267
30602W        W 2131  16.270  11.929  11.062
30603W        W 2132  24.388   9.635   4.068
30604W        W 2133  24.696  23.304   0.942
30605W        W 2134  20.349   7.469   2.291
30606W        W 2135  12.528  39.334   2.165
30607W        W 2136  36.323  28.944  14.797
30608W        W 2137  31.413  19.444   0.788
30609W        W 2138  15.310  14.128  12.983
30610W        W 2139   3.036  18.227  12.853
30611W        W 2140   5.377  39.978  13.410
30612W        W 2141  23.580  19.171   3.289
30613W        W 2142   1.733  20.685  13.834
30614W        W 2143  29.590  15.797  14.263
30615W        W 2144   2.347   0.426  14.270
30616W        W 2145  13.752  11.390   4.205
30617W        W 2146  36.355  18.518   0.827
30618W        W 2147  33.680  37.508   0.829
30619W        W 2148  14.621  31.018   2.164
30620W        W 2149  22.371  24.968  11.201
30621W        W 2150  34.893  28.148   3.204
30622W        W 2151   6.250  23.653  11.168
30623W        W 2152  31.061  11.040  12.555
30624W        W 2153  34.037  29.384  11.484
30625W        W 2154   5.192  22.629   4.243
30626W        W 2155  25.525  41.489  12.942
30627W        W 2156   3.062  24.077  14.042
30628W        W 2157  26.554   8.272  10.467
30629W        W 2158   6.891  19.912  10.123
30630W        W 2159  24.476  40.795   1.665
30631W        W 2160  37.222  22.755   4.233
30632W        W 2161  38.043  23.912  11.250
30633W        W 2162  36.380  17.699  13.378
30634W        W 2163  19.432   0.916   2.753
30635W        W 2164   4.338  30.615   1.909
30636W        W 2165  41.318   2.719  11.465
30637W        W 2166  22.927  29.548  11.565
30638W        W 2167   4.246  44.431  12.738
30639W        W 2168  16.833  24.850   5.039
30640W        W 2169  41.965  32.326  11.481
30641W        W 2170  35.277  11.421  14.787
30642W        W 2171  12.857  35.106  14.354
30643W        W 2172   0.650  12.343   4.580
30644W        W 2173  35.170  15.333  14.502
30645W        W 2174  15.680   4.453   4.032
30646W        W 2175   4.252  33.056  11.688
30647W        W 2176   9.796  37.566   1.637
30648W        W 2177  27.852  23.235   4.162
30649W        W 2178   1.955   2.469   0.049
30650W        W 2179  15.607  19.229   1.108
30651W        W 2180  44.766  36.545   0.915
30652W        W 2181   8.873  26.805   4.138
30653W        W 2182  16.606  42.278   1.689
30654W        W 2183  41.555  34.770   3.364
30655W        W 2184  28.665  33.343  12.445
30656W        W 2185  34.133   8.213   4.063
30657W        W 2186  42.284  36.529  10.748
30658W        W 2187  33.078  22.751  12.044
30659W        W 2188  27.569   9.485  11.127
30660W        W 2189   6.171  22.948  12.508
30661W        W 2190  44.313  13.440   1.742
30662W        W 2191  11.239  37.507   4.043
30663W        W 2192  29.220   1.329  12.973
30664W        W 2193  25.755  22.103  14.874
30665W        W 2194   2.728  43.767  14.238
30666W        W 2195  44.682   3.878   3.134
30667W        W 2196   2.805  43.546   1.787
30668W        W 2197  11.030   6.779  10.823
30669W        W 2198  29.481  35.171   5.181
30670W        W 2199  16.341  11.147   3.219
30671W        W 2200  16.271  20.348   0.886
30672W        W 2201  28.108  26.537   1.835
30673W        W 2202  36.558   2.235  10.651
30674W        W 2203  15.739  37.294   4.567
30675W        W 2204  10.615  38.615   4.673
30676W        W 2205  31.536  40.965  11.545
30677W        W 2206   9.185  23.710   4.056
30678W        W 2207  24.701  32.225   0.010
30679W        W 2208  19.130  30.156  13.348
30680W        W 2209  24.418  20.216   0.298
30681W        W 2210  31.188  11.676   3.446
30682W        W 2211  38.916   3.604   9.844
30683W        W 2212  30.604  36.568  12.912
30684W        W 2213  39.050  23.076   0.012
30685W        W 2214   6.163  26.508   3.841
30686W        W 2215   3.121  43.811   3.794
30687W        W 2216   7.466   1.158  12.459
30688W        W 2217   2.016  31.995  13.388
30689W        W 2218   0.998  41.321   4.091
30690W        W 2219   9.069   5.050   4.078
30691W        W 2220  35.926  13.122  14.269
30692W        W 2221  44.946   1.874   2.334
30693W        W 2222   6.234  42.939   1.721
30694W        W 2223  36.804   2.802  11.472
30695W        W 2224  22.712  36.513  13.873
30696W        W 2225   8.721  21.446  12.539
30697W        W 2226   5.930   5.288   3.478
30698W        W 2227  22.176  44.497  12.932
30699W        W 2228  31.213  17.997  10.664
30700W        W 2229  33.451   5.060   0.368
30701W        W 2230   3.981  20.245   4.348
30702W        W 2231  28.336  20.920  14.798
30703W        W 2232  32.657   9.780  13.484
30704W        W 2233  21.568  17.612   4.621
30705W        W 2234  14.645  33.465   4.128
30706W        W 2235  36.112   8.761   2.333
30707W        W 2236  30.704   4.865  10.674
30708W        W 2237  33.209  28.918   1.733
30709W        W 2238  32.585  15.832  14.713
30710W        W 2239  20.021  24.204   2.754
30711W        W 2240  19.779   5.677  10.585
30712W        W 2241  29.513  29.710  13.862
30713W        W 2242   5.818  26.251   9.967
30714W        W 2243  12.606  36.234   0.216
30715W        W 2244  14.536  11.206  10.720
30716W        W 2245  27.056  31.096  14.378
30717W        W 2246  32.925  14.228  11.731
30718W        W 2247  24.162  18.590   4.212
30719W        W 2248  36.071  33.863   1.770
30720W        W 2249  21.722  28.434  11.945
30721W        W 2250  22.103  12.581   2.623
30722W        W 2251  26.021  19.602  12.970
30723W        W 2252  43.044  21.651  13.091
30724W        W 2253  44.927  28.440  12.799
30725W        W 2254  42.290   2.994  14.943
30726W        W 2255  40.962  18.261  12.118
30727W        W 2256   8.008  41.322   1.100
30728W        W 2257   1.906  24.415  14.521
30729W        W 2258  18.646  28.480   4.248
30730W        W 2259   4.016  27.454  14.531
30731W        W 2260  14.284  21.221   2.790
30732W        W 2261  20.657   4.154  14.834
30733W        W 2262  19.020  44.325  14.344
30734W        W 2263  14.230  38.148   0.726
30735W        W 2264  42.793  43.360  12.741
30736W        W 2265  42.459  16.173  11.266
30737W        W 2266  34.540  40.511   1.853
30738W        W 2267  43.027  31.605   0.971
30739W        W 2268  23.092  33.579  10.380
30740W        W 2269  34.871  11.102  12.788
30741W        W 2270  40.295   8.803  13.161
30742W        W 2271  28.894   9.928  14.393
30743W        W 2272   7.880  22.404   1.343
30744W        W 2273  10.663  42.058  11.151
30745W        W 2274  39.398  23.195   3.321
30746W        W 2275   3.107  14.370  14.731
30747W        W 2276   7.688  42.069  11.819
30748W        W 2277  10.727  14.811   2.077
30749W        W 2278  36.372  30.379   3.807
30750W        W 2279  27.066  34.191   3.740
30751W        W 2280  16.301   6.554   1.739
30752W        W 2281  14.016   5.713   1.349
30753W        W 2282  41.121  29.060   4.903
30754W        W 2283  40.819  13.888   3.708
30755W        W 2284  31.507  27.994   3.888
30756W        W 2285  21.279  41.691   1.343
30757W        W 2286  29.130  28.634  13.559
30758W        W 2287   4.920  15.365  12.056
30759W        W 2288  40.492  27.345  10.681
30760W        W 2289  44.243  12.778  13.124
30761W        W 2290  37.550   0.792  14.761
30762W        W 2291   8.557  10.229   3.808
30763W        W 2292   2.384  28.568  11.592
30764W        W 2293  12.144  25.996   0.267
30765W        W 2294   9.077  17.234  12.500
30766W        W 2295   6.773  11.334   0.927
30767W        W 2296   2.692  43.320  14.557
30768W        W 2297  13.656  34.471  11.638
30769W        W 2298   8.952  31.658  13.308
30770W        W 2299  23.065  26.684   4.592
30771W        W 2300  40.456   8.658   1.797
30772W        W 2301  38.313  37.044   4.576
30773W        W 2302   9.390   2.380   2.790
30774W        W 2303   1.563  26.646  11.607
30775W        W 2304  31.411  19.491   3.637
30776W        W 2305  10.189  28.463  13.833
30777W        W 2306  24.275  13.656  14.684
30778W        W 2307  44.562  12.714  12.423
30779W        W 2308   2.312  15.561  11.252
30780W        W 2309  22.649  41.965  14.871
30781W        W 2310   4.816  33.312  14.434
30782W        W 2311   8.295  41.885   3.911
30783W        W 2312  27.656  31.583  13.110
30784W        W 2313  42.812  29.863  12.905
30785W        W 2314   5.196  39.482   1.269
30786W        W 2315  32.356  23.070  13.358
30787W        W 2316  36.879  11.718  14.842
30788W        W 2317  18.693   8.419  10.875
30789W        W 2318  31.705  32.109  13.845
30790W        W 2319   5.983  24.873  10.680
30791W        W 2320  23.302  36.329   2.232
30792W        W 2321   5.597  24.008   2.607
30793W        W 2322  31.271   3.231   4.466
30794W        W 2323   6.370  16.183  14.927
30795W        W 2324  24.069  17.532   1.764
30796W        W 2325  31.549  13.847  12.467
30797W        W 2326   1.491  39.059  11.430
30798W        W 2327  39.826  40.929  12.138
30799W        W 2328   6.522  40.064   4.981
30800W        W 2329  36.436  35.347   1.169
30801W        W 2330  44.254  26.294   2.450
30802W        W 2331   4.288  25.434  13.408
30803W        W 2332  30.192  44.928  14.026
30804W        W 2333   3.226  35.798  12.569
30805W        W 2334  35.145  29.010   2.732
30806W        W 2335  37.564  30.784   4.551
30807W        W 2336  35.499  12.625  10.512
30808W        W 2337  11.848  42.008  13.898
30809W        W 2338  23.943  13.858   1.877
30810W        W 2339   0.842   8.583  14.722
30811W        W 2340  40.971   6.372  13.514
30812W        W 2341  34.092  12.667   2.394
30813W        W 2342   5.256  31.008   2.374
30814W        W 2343  23.146  24.941   3.190
30815W        W 2344  28.037  32.081  10.172
30816W        W 2345  38.070   7.752  14.555
30817W        W 2346  41.680   2.442  13.450
30818W        W 2347   8.421  42.505   2.724
30819W        W 2348  33.601   0.998   1.756
30820W        W 2349   4.958  35.496   0.675
30821W        W 2350  42.885  22.217  14.434
30822W        W 2351   3.218   9.608   4.220
30823W        W 2352  32.434  37.860   0.148
30824W        W 2353  27.007  39.019   0.465
30825W        W 2354  35.571  41.337   4.561
30826W        W 2355   3.638  30.593   1.274
30827W        W 2356  10.318  33.375   0.798
30828W        W 2357  17.232   1.215   4.106
30829W        W 2358  16.510  14.751   4.407
30830W        W 2359  34.519   0.927   4.561
30831W        W 2360  20.547  37.903   0.412
30832W        W 2361  15.723  44.270   5.274
30833W        W 2362  25.141  35.136  14.998
30834W        W 2363  11.162  39.874  10.785
30835W        W 2364  39.780  28.649  14.396
30836W        W 2365  17.875  39.891   3.850
30837W        W 2366  29.987  28.859  13.541
30838W        W 2367  13.680  41.437   4.952
30839W        W 2368  13.431  11.434   0.006
30840W        W 2369  31.334  42.439   3.845
30841W        W 2370  24.857  28.979  13.143
30842W        W 2371  29.176  34.537  14.844
30843W        W 2372  11.743  32.878   1.380
30844W        W 2373  29.719  37.361   3.989
30845W        W 2374  24.176  39.859  10.423
30846W        W 2375  22.532   0.932   3.601
30847W        W 2376  30.983  32.541   3.658
30848W        W 2377  32.150   0.397  11.974
30849W        W 2378   8.135  40.014   4.639
30850W        W 2379  43.301  41.784  12.464
30851W        W 2380  23.018  29.502   2.763
30852W        W 2381  21.051  27.647  11.107
30853W        W 2382  12.219  23.029  13.861
30854W        W 2383  17.577  24.966   3.658
30855W        W 2384  31.176  10.352   3.480
30856W        W 2385   9.820  20.191   2.130
30857W        W 2386   1.750  27.034  10.486
30858W        W 2387  31.928  16.966   1.286
30859W        W 2388   4.205  11.237   3.657
30860W        W 2389   7.903   5.902   3.938
30861W        W 2390  41.071  14.673   4.863
30862W        W 2391  22.276  39.751   1.839
30863W        W 2392  41.200  41.910  11.260
30864W        W 2393  12.870  14.876   1.363
30865W        W 2394  12.630  42.987   4.629
30866W        W 2395  41.491   5.320  12.914
30867W        W 2396  44.941  32.420  13.086
30868W        W 2397  18.193  23.928   1.777
30869W        W 2398  35.493  18.334   1.369
30870W        W 2399   1.990  24.253   1.405
30871W        W 2400  44.940  20.312   1.167
30872W        W 2401  21.294  34.395  13.465
30873W        W 2402  40.939  36.126   4.826
30874W        W 2403  15.051  28.400  13.239
30875W        W 2404  23.108  21.462   0.935
30876W        W 2405  18.998  30.498   1.623
30877W        W 2406  23.428  17.229  13.887
30878W        W 2407   3.707   7.714   4.133
30879W        W 2408   9.251   3.233   3.648
30880W        W 2409   4.206  24.555  12.134
30881W        W 2410  14.726  10.626   0.197
30882W        W 2411  13.638  13.666   1.273
30883W        W 2412   6.332  43.166  11.540
30884W        W 2413  42.019   2.590   2.409
30885W        W 2414  29.671  14.221   2.059
30886W        W 2415  28.975  28.082   2.968
30887W        W 2416  37.337  15.169  14.482
30888W        W 2417  17.576  27.598   3.595
30889W        W 2418   4.296  22.060   4.943
30890W        W 2419  15.851   1.426   2.116
30891W        W 2420   5.871  24.750  11.451
30892W        W 2421  29.470  33.171  14.931
30893W        W 2422  18.748   4.213   2.402
30894W        W 2423  25.995  15.568   5.000
30895W        W 2424  29.229  26.572  10.327
30896W        W 2425  22.691   7.763   0.083
30897W        W 2426  34.048  15.839  14.439
30898W        W 2427  36.512  17.822   2.221
30899W        W 2428  37.625   8.048  11.680
30900W        W 2429  26.496  10.884  12.292
30901W        W 2430  17.016  17.710   3.382
30902W        W 2431  24.596   8.431  13.476
30903W        W 2432  31.615  44.757   1.272
30904W        W 2433  10.665   0.974  11.660
30905W        W 2434  27.958   6.341  11.076
30906W        W 2435   7.674  33.875   1.844
30907W        W 2436  42.246   5.815   3.347
30908W        W 2437  13.789  36.943  10.815
30909W        W 2438  43.938  33.420  13.577
30910W        W 2439  29.150  18.634   3.933
30911W        W 2440  25.034  42.991   1.870
30912W        W 2441  35.714   4.188  12.104
30913W        W 2442  37.015   5.610  11.150
30914W        W 2443  16.272   8.298  13.993
30915W        W 2444   6.145  10.819   2.961
30916W        W 2445   2.941  13.116  14.850
30917W        W 2446  42.196  18.976   1.692
30918W        W 2447  24.921   9.701   1.201
30919W        W 2448  27.501  11.574   0.863
30920W        W 2449  42.301  16.389   4.695
30921W        W 2450  36.904  21.810   0.223
30922W        W 2451  37.821  44.333   3.689
30923W        W 2452   6.285  30.208  12.533
30924W        W 2453  40.672   5.730   1.858
30925W        W 2454  22.302   8.641  10.753
30926W        W 2455  14.675  40.965  13.454
30927W        W 2456  13.217  21.684  12.200
30928W        W 2457  17.832  17.758  11.148
30929W        W 2458   1.642  19.730  14.709
30930W        W 2459  25.924   1.351  14.413
30931W        W 2460  13.119  12.411   2.364
30932W        W 2461  29.954  39.076   4.670
30933W        W 2462  26.979  32.206  14.998
30934W        W 2463  13.507  22.088   0.527
30935W        W 2464  28.433  22.192   1.834
30936W        W 2465  12.192  13.341   5.005
30937W        W 2466   0.315  20.209  12.039
30938W        W 2467  39.970   1.824  12.900
30939W        W 2468  28.182  29.562  13.431
30940W        W 2469   3.442  24.295   1.054
30941W        W 2470  39.381  43.397  11.716
30942W        W 2471  20.916   0.088   4.010
30943W        W 2472  26.028  35.013   4.689
30944W        W 2473   1.546  25.963   1.116
30945W        W 2474  15.097  44.409  11.210
30946W        W 2475   7.628  42.022  13.592
30947W        W 2476   1.319   0.882  13.515
30948W        W 2477  37.343  21.483   0.310
30949W        W 2478  20.205  24.955   1.731
30950W        W 2479  25.551   7.391   2.663
30951W        W 2480   9.837  27.930  14.803
30952W        W 2481   9.752  11.959  12.521
30953W        W 2482  36.421  35.004   0.275
30954W        W 2483  39.466  10.065  13.024
30955W        W 2484  25.127  20.181   2.834
30956W        W 2485  10.075  28.588   0.703
30957W        W 2486  16.820   7.986  11.172
30958W        W 2487   1.248   7.235  13.418
30959W        W 2488  27.949  31.870  13.478
30960W        W 2489  40.814   3.441   2.795
30961W        W 2490  30.692  14.398  11.128
30962W        W 2491   9.570   7.351   5.210
30963W        W 2492  35.973  20.435  14.536
30964W        W 2493  10.371   0.225   1.184
30965W        W 2494  21.768  23.410   4.067
30966W        W 2495   7.906  17.489   4.143
30967W        W 2496  38.486  33.700   2.588
30968W        W 2497  35.436  29.635  11.390
30969W        W 2498  24.567  28.299   4.572
30970W        W 2499  12.942   3.886  13.499
30971W        W 2500  30.683  27.572   1.431
30972W        W 2501   1.685  30.440   0.600
30973W        W 2502  14.309  38.901   0.696
30974W        W 2503   9.287   6.900  12.421
30975W        W 2504  12.245   4.158   0.307
30976W        W 2505  32.029  42.881  10.382
30977W        W 2506  11.924   2.292  13.018
30978W        W 2507  17.800  27.645  12.515
30979W        W 2508  28.489  22.560  13.418
30980W        W 2509  38.451   8.461   4.776
30981W        W 2510  20.944   9.287  11.982
30982W        W 2511  24.235  27.939   1.531
30983W        W 2512   1.255   8.246   3.163
30984W        W 2513  23.239  27.947  14.763
30985W        W 2514  17.253  43.235   1.305
30986W        W 2515  29.615   3.785  12.544
30987W        W 2516   3.425  10.370   5.060
30988W        W 2517  35.113   1.799   0.819
30989W        W 2518  18.109  31.467  10.934
30990W        W 2519  42.583  32.615   3.140
30991W        W 2520  37.372  16.301  11.664
30992W        W 2521  35.921  33.927  14.476
30993W        W 2522  30.568  16.356  10.687
30994W        W 2523   3.391  10.479  11.668
30995W        W 2524   5.582  29.028   4.205
30996W        W 2525  23.182  21.055   4.137
30997W        W 2526   9.865   8.275   3.330
30998W        W 2527  31.952  24.624   2.717
30999W        W 2528   6.738  43.321  10.624
31000W        W 2529  37.524   7.068   4.158
31001W        W 2530  30.935   5.873   3.108
31002W        W 2531  37.121  28.996  10.483
31003W        W 2532  17.664  13.333  11.741
31004W        W 2533  24.987  33.493   0.351
31005W        W 2534  39.988  33.610  14.474
31006W        W 2535  36.420  10.100  12.966
31007W        W 2536  27.065   6.448   2.276
31008W        W 2537  26.110  27.151  13.993
31009W        W 2538  43.830   4.332  12.163
31010W        W 2539  15.721  10.986   5.439
31011W        W 2540  39.224   0.089   0.245
31012W        W 2541  33.022   6.726  13.257
31013W        W 2542   9.666   6.465   0.011
31014W        W 2543  26.027  37.994   2.851
31015W        W 2544  44.534  17.126   1.678
31016W        W 2545  17.122  32.647   1.792
31017W        W 2546   7.649  42.314  12.326
31018W        W 2547  43.915   8.377  14.330
31019W        W 2548  39.154  14.072   3.302
31020W        W 2549  15.772  13.515  10.976
31021W        W 2550  34.408  32.708  13.988
31022W        W 2551  43.381  27.522   3.768
31023W        W 2552  11.190  28.398  10.540
31024W        W 2553  23.561  13.869  12.908
31025W        W 2554  15.340  38.842  13.869
31026W        W 2555  12.862  19.178  11.369
31027W        W 2556  33.843   8.095  11.933
31028W        W 2557   1.518  35.090   2.742
31029W        W 2558  34.861  25.985   4.715
31030W        W 2559  20.168  37.253  12.000
31031W        W 2560  12.321  13.093   0.697
31032W        W 2561  11.131   2.352  13.417
31033W        W 2562  42.073  30.024   2.801
31034W        W 2563  20.588  23.294   3.664
31035W        W 2564  28.464   2.475   1.234
31036W        W 2565  39.544  15.538  10.582
31037W        W 2566  19.788   8.162  11.102
31038W        W 2567  41.247  37.520  11.985
31039W        W 2568  12.851  20.057  11.451
31040W        W 2569   3.924   5.460  12.074
31041W        W 2570  34.129  36.788   0.517
31042W        W 2571   5.285  36.496  11.896
31043W        W 2572   3.966  14.199   4.785
31044W        W 2573  42.406   0.638  10.674
31045W        W 2574  18.481  34.939   2.440
31046W        W 2575  38.204   9.489  11.608
31047W        W 2576  41.232  37.281   2.746
31048W        W 2577  16.874  41.830  14.332
31049W        W 2578  42.053   8.482   4.142
31050W        W 2579  17.234  35.352  14.104
31051W        W 2580  30.304   8.804   4.439
31052W        W 2581  21.276  38.991  11.173
31053W        W 2582  10.021  34.399  11.977
31054W        W 2583  37.159  21.060   4.503
31055W        W 2584  35.423  11.081   1.110
31056W        W 2585  39.306  19.699  14.187
31057W        W 2586  27.634   5.162  12.097
31058W        W 2587  36.660  37.583   0.435
31059W        W 2588  36.525  15.390   4.655
31060W        W 2589   1.094   8.803  10.421
31061W        W 2590   0.085  18.778  11.089
31062W        W 2591  28.263  23.422  14.448
31063W        W 2592  15.848  41.474  10.909
31064W        W 2593  21.472  37.467   2.872
31065W        W 2594  18.978  43.255   0.254
31066W        W 2595  27.091   5.191   4.575
31067W        W 2596   8.203  17.015  11.104
31068W        W 2597   0.885  33.660   0.875
31069W        W 2598  16.122  24.908   5.011
31070W        W 2599   6.334  20.258   1.393
31071W        W 2600  23.763  21.304  11.589
31072W        W 2601  30.981  35.585  12.517
31073W        W 2602  17.893  19.553   5.039
31074W        W 2603  28.559   3.863  12.629
31075W        W 2604   3.000  17.973   1.250
31076W        W 2605  17.249  42.449  12.966
31077W        W 2606  12.301  25.888   2.565
31078W        W 2607  30.282  20.340   0.128
31079W        W 2608   4.195  40.256  13.009
31080W        W 2609   5.059   3.100   1.402
31081W        W 2610  39.711   4.707   3.137
31082W        W 2611   3.845   9.598  13.076
31083W        W 2612   7.603  21.960   1.896
31084W        W 2613  38.660  14.106   3.199
31085W        W 2614  44.485   2.886  10.739
31086W        W 2615  26.229   0.297   0.173
31087W        W 2616   1.300  44.637   4.059
31088W        W 2617   0.947   2.828  10.732
31089W        W 2618  24.117  42.607   4.914
31090W        W 2619  20.681  38.575  12.459
31091W        W 2620  40.018   0.495   0.814
31092W        W 2621  23.638  20.283   4.256
31093W        W 2622  34.809  33.927   3.408
31094W        W 2623  32.624  26.855  11.570
31095W        W 2624  18.581  22.115   3.757
31096W        W 2625   3.893  18.614   2.185
31097W        W 2626  17.585  14.628  13.995
31098W        W 2627  39.729  20.155   3.305
31099W        W 2628   4.657  39.865   1.673
31100W        W 2629  44.934  23.020   0.540
31101W        W 2630  11.438  22.494  12.372
31102W        W 2631  30.521  20.169   2.703
31103W        W 2632  13.827  20.580   4.690
31104W        W 2633  41.996  25.209   0.237
31105W        W 2634  11.822   6.152  10.689
31106W        W 2635  20.830  26.083   3.236
31107W        W 2636  14.622  23.660   2.356
31108W        W 2637  23.129  15.111  11.832
31109W        W 2638  36.521   1.798   1.721
31110W        W 2639   2.274  41.403  12.341
31111W        W 2640  44.728  34.235  14.054
31112W        W 2641  23.519  39.578   0.216
31113W        W 2642  42.555  37.344   0.926
31114W        W 2643  44.742  28.660  14.290
31115W        W 2644  26.616  17.300  13.547
31116W        W 2645  26.604   7.344  12.851
31117W        W 2646  41.772   1.310  11.621
31118W        W 2647  26.649  31.976  12.492
31119W        W 2648  15.398  20.595   0.880
31120W        W 2649   5.471  27.859  11.921
31121W        W 2650  29.603  33.094  14.216
31122W        W 2651  24.019  18.084  13.314
31123W        W 2652  26.242  19.121  13.006
31124W        W 2653  41.996  34.398  10.388
31125W        W 2654  37.950  26.002   1.401
31126W        W 2655  37.669  21.321  11.220
31127W        W 2656  31.123  35.585  11.152
31128W        W 2657  28.394  34.409  12.517
31129W        W 2658  38.464   3.269  14.311
31130W        W 2659  40.561  39.075   2.085
31131W        W 2660  27.192  39.406  13.446
31132W        W 2661  18.192   3.173  12.810
31133W        W 2662  20.163  31.890  10.715
31134W        W 2663  39.870  34.899   1.248
31135W        W 2664  28.560  21.052  13.123
31136W        W 2665   2.306   6.201   0.285
31137W        W 2666  33.803   9.406  13.037
31138W        W 2667  35.496  12.572   1.592
31139W        W 2668  16.801  11.362  11.500
31140W        W 2669  41.270  40.521   3.284
31141W        W 2670  23.447  25.216  12.675
31142W        W 2671  19.130   6.872   2.379
31143W        W 2672   0.030  15.209  11.139
31144W        W 2673   1.593  34.558   1.527
31145W        W 2674  41.470  14.682   0.501
31146W        W 2675   2.439  17.386   3.272
31147W        W 2676  37.625  10.858  12.954
31148W        W 2677  32.557  39.951   3.440
31149W        W 2678  17.578  16.230   3.224
31150W        W 2679  33.350  25.444  13.558
31151W        W 2680  16.149  30.107  11.212
31152W        W 2681  37.945  10.331   2.684
31153W        W 2682  15.569  40.250   0.391
31154W        W 2683  33.082   1.938   1.367
31155W        W 2684  30.867  29.666  14.911
31156W        W 2685   0.018  40.423   0.825
31157W        W 2686  34.480  35.341   1.629
31158W        W 2687  36.975  11.164  14.998
31159W        W 2688  23.952  16.812   4.587
31160W        W 2689  41.458  28.491  10.804
31161W        W 2690  17.310  22.754  11.362
31162W        W 2691  30.514  39.697   1.981
31163W        W 2692   8.937  33.896   4.666
31164W        W 2693  10.312  25.533  12.418
31165W        W 2694  12.364  25.159   1.855
31166W        W 2695  33.724  13.089  12.410
31167W        W 2696  42.468  22.912   2.225
31168W        W 2697  41.788  24.435  12.884
31169W        W 2698  40.481  11.890  12.499
31170W        W 2699  21.852  22.219   0.744
31171W        W 2700   0.187  29.461   2.350
31172W        W 2701  21.650  15.744   2.936
31173W        W 2702  37.960  18.836   3.744
31174W        W 2703  16.260  24.576  13.193
31175W        W 2704   2.009  10.663   3.380
31176W        W 2705  37.179  23.813  12.974
31177W        W 2706  10.331  38.287   1.751
31178W        W 2707  31.954  21.217   4.078
31179W        W 2708   5.900   2.828  11.024
31180W        W 2709  27.740   3.905  11.579
31181W        W 2710  22.419  21.587   4.130
31182W        W 2711   9.357  40.163   4.891
31183W        W 2712  11.604  37.592  12.956
31184W        W 2713  41.555  37.637   1.819
31185W        W 2714   9.636  29.596   1.694
31186W        W 2715   0.294  18.136  12.871
31187W        W 2716   7.823   8.301  12.158
31188W        W 2717  14.091  15.181  12.559
31189W        W 2718  31.438  42.617   3.057
31190W        W 2719  27.679   8.774   3.104
31191W        W 2720  23.796  38.285   2.400
31192W        W 2721  31.651  14.178   0.959
31193W        W 2722  27.881  13.883   2.810
31194W        W 2723  39.074   2.958   4.658
31195W        W 2724  11.628  43.240  12.978
31196W        W 2725  44.950  27.979   0.778
31197W        W 2726   4.974  39.020   3.742
31198W        W 2727  14.534  12.437   1.313
31199W        W 2728  35.900  39.222  13.728
31200W        W 2729  31.955  33.941   0.124
31201W        W 2730  30.875  23.178  11.974
31202W        W 2731  40.081  17.320   1.280
31203W        W 2732  31.274   7.245  14.674
31204W        W 2733  11.948  17.823   2.857
31205W        W 2734  20.513  29.647   2.426
31206W        W 2735   7.826  42.577   0.382
31207W        W 2736  19.421  30.184   0.709
31208W        W 2737   6.534   8.316  14.645
31209W        W 2738  10.342  35.115  12.590
31210W        W 2739   5.921  38.292  12.589
31211W        W 2740  36.474   3.179   3.212
31212W        W 2741  28.707  20.105  12.920
31213W        W 2742   5.496  28.466  13.016
31214W        W 2743  38.106  30.240   5.030
31215W        W 2744  31.497   5.614  14.999
31216W        W 2745  37.537  20.448   0.254
31217W        W 2746  38.229  35.935   3.382
31218W        W 2747  31.529  18.310   1.772
31219W        W 2748  29.077   1.779  11.603
31220W        W 2749  25.428  28.721  13.323
31221W        W 2750  13.357  15.571  12.207
31222W        W 2751   5.706   4.850  14.788
31223W        W 2752  12.599   1.453  10.281
31224W        W 2753   6.710  15.709  14.323
31225W        W 2754  11.389  18.268  11.256
31226W        W 2755  27.578  36.861   1.481
31227W        W 2756  25.465  12.813   0.774
31228W        W 2757   5.963  23.958  10.873
31229W        W 2758  20.875  11.883   2.800
31230W        W 2759  35.049  17.292  13.446
31231W        W 2760  26.317  18.232  10.465
31232W        W 2761  23.124  34.596   3.140
31233W        W 2762  35.978  36.446   1.756
31234W        W 2763  24.280  39.532  10.026
31235W        W 2764  34.142  24.692   0.305
31236W        W 2765  38.150  14.750   4.988
31237W        W 2766  23.681  11.214   2.272
31238W        W 2767   8.711   8.657  13.027
31239W        W 2768   9.950  43.042  14.903
31240W        W 2769  41.998  40.370   1.411
31241W        W 2770   3.886   7.531   0.805
31242W        W 2771  38.041  22.534  12.984
31243W        W 2772  17.625  17.521   0.924
31244W        W 2773  10.103  10.588   1.799
31245W        W 2774  34.057   5.820  13.623
31246W        W 2775  13.062  15.615   1.528
31247W        W 2776  33.430  17.814  11.489
31248W        W 2777  13.750   7.746  11.018
31249W        W 2778  11.393   5.235  13.803
31250W        W 2779  30.603  31.369  14.283
31251W        W 2780  40.736  10.375  13.389
31252W        W 2781  25.435  41.332   0.878
31253W        W 2782  11.402  16.479   0.086
31254W        W 2783  10.913  18.928   3.420
31255W        W 2784   5.274  31.503  13.049
31256W        W 2785  44.477  14.514  13.945
31257W        W 2786  39.549  21.786  14.314
31258W        W 2787  19.766  19.564  10.791
31259W        W 2788  28.473  35.930   2.103
31260W        W 2789   8.881  17.683   1.211
31261W        W 2790   9.161  39.962  14.933
31262W        W 2791  23.102   8.937   3.274
31263W        W 2792  32.634  29.573   0.716
31264W        W 2793  19.855  33.186  10.893
31265W        W 2794  42.244  11.212   1.759
31266W        W 2795  42.567   2.383   0.837
31267W        W 2796  37.101  14.711  14.864
31268W        W 2797  36.450  43.123   2.643
31269W        W 2798  33.814  34.370  10.439
31270W        W 2799   8.070  23.171  12.775
31271W        W 2800  25.624  37.069   2.614
31272W        W 2801  19.919   5.504   0.967
31273W        W 2802  17.833   7.382  14.413
31274W        W 2803  23.620  30.149  13.486
31275W        W 2804  28.260  14.354  10.654
31276W        W 2805  22.804  19.857   1.688
31277W        W 2806   5.929  25.108  12.358
31278W        W 2807  31.334  39.475   0.090
31279W        W 2808  17.609  33.086  10.926
31280W        W 2809  24.186  12.784   1.256
31281W        W 2810  38.317  41.968  11.140
31282W        W 2811  37.781  12.347   1.332
31283W        W 2812  29.251  38.887   1.752
31284W        W 2813  20.852  44.370   4.734
31285W        W 2814  14.691  32.784  11.270
31286W        W 2815  17.533  43.969   1.145
31287W        W 2816  10.813  22.718  11.687
31288W        W 2817  16.602   7.558   4.532
31289W        W 2818  27.880  30.577   3.117
31290W        W 2819  32.615   8.870   1.404
31291W        W 2820  18.558  20.826   1.117
31292W        W 2821  11.319  38.883   2.145
31293W        W 2822  30.888  32.557   2.151
31294W        W 2823   9.212  28.531  12.847
31295W        W 2824  30.274  20.694  12.553
31296W        W 2825  30.399  19.063   4.060
31297W        W 2826  21.721  38.428   5.750
31298W        W 2827  42.704  14.282  11.160
31299W        W 2828   2.842   7.198  10.753
31300W        W 2829  37.156  38.956   1.698
31301W        W 2830  29.662  12.354  12.613
31302W        W 2831  24.996  32.535  13.434
31303W        W 2832  37.537  19.909   5.017
31304W        W 2833  18.668  11.264   4.058
31305W        W 2834  41.307  31.610  13.563
31306W        W 2835   1.835   7.452  13.777
31307W        W 2836  17.101  14.870   4.202
31308W        W 2837   7.629  22.493   3.212
31309W        W 2838  26.478  42.822  11.598
31310W        W 2839   6.904   8.113  11.606
31311W        W 2840   7.693  38.243  12.853
31312W        W 2841  35.811  21.798   1.678
31313W        W 2842  42.751  13.095  12.945
31314W        W 2843  16.995  34.375   2.257
31315W        W 2844  43.006  37.934  12.588
31316W        W 2845  23.442  38.411   0.060
31317W        W 2846  26.532  25.617   1.164
31318W        W 2847  12.600  32.977   0.268
31319W        W 2848  10.449  17.573   2.187
31320W        W 2849  39.597  20.973   1.876
31321W        W 2850  10.720  11.350  13.422
31322W        W 2851  23.880  30.537   2.619
31323W        W 2852  20.618  38.384   2.330
31324W        W 2853   7.011  18.041  11.212
31325W        W 2854  28.566  38.797   1.179
31326W        W 2855   9.391  32.713  12.360
31327W        W 2856  21.188  17.020   2.186
31328W        W 2857  32.144  26.766  11.733
31329W        W 2858   0.202  26.029   2.867
31330W        W 2859  25.479  25.736   2.147
31331W        W 2860  10.222   3.923   0.887
31332W        W 2861  23.036  34.018   1.916
31333W        W 2862  30.025  23.830  10.955
31334W        W 2863  36.184  41.514  11.155
31335W        W 2864  19.797  22.726   1.611
31336W        W 2865  12.874  33.974   4.350
31337W        W 2866  20.205   7.803   1.910
31338W        W 2867  33.513  33.011  14.392
31339W        W 2868   8.902   1.330   0.870
31340W        W 2869  33.146  21.269  14.872
31341W        W 2870  25.549  12.628  13.922
31342W        W 2871   1.894  19.827  13.332
31343W        W 2872  33.059  42.545   3.098
31344W        W 2873   8.130  21.737  13.367
31345W        W 2874  28.994   4.764   0.373
31346W        W 2875  17.093  17.904  13.908
31347W        W 2876  39.362  42.589   0.388
31348W        W 2877  20.650  23.016  11.555
31349W        W 2878  22.655  39.400   1.929
31350W        W 2879  34.919  13.914  11.771
31351W        W 2880  16.535  14.762  13.870
31352W        W 2881  44.123   3.048  11.097
31353W        W 2882   1.211   9.658   4.195
31354W        W 2883  20.698  43.226   0.841
31355W        W 2884  38.263   2.346   3.258
31356W        W 2885  40.998   5.051   2.425
31357W        W 2886   7.317   9.230   4.206
31358W        W 2887   0.166  25.214  11.925
31359W        W 2888  41.481  28.943  13.348
31360W        W 2889  22.177   9.897  14.241
31361W        W 2890  15.258  11.394   4.528
31362W        W 2891  14.522  44.763  14.423
31363W        W 2892   1.725   5.474  13.751
31364W        W 2893  16.314  39.513  11.886
31365W        W 2894  16.678  11.625  11.080
31366W        W 2895  14.420  34.847   1.393
31367W        W 2896   6.891  24.129   2.314
31368W        W 2897   8.813   4.323   0.223
31369W        W 2898  32.080  39.740  10.810
31370W        W 2899  31.931   8.328   3.938
31371W        W 2900  27.514   2.018  10.666
31372W        W 2901  26.551  21.720   2.258
31373W        W 2902  27.514  16.193   2.181
31374W        W 2903  35.909  14.241   0.042
31375W        W 2904  29.447  38.090   0.510
31376W        W 2905   2.224  12.548   0.513
31377W        W 2906  37.745  25.878  13.923
31378W        W 2907   0.201   4.241   4.627
31379W        W 2908  23.465   2.784  12.962
31380W        W 2909  36.736  11.332  11.173
31381W        W 2910   6.643  11.232   3.667
31382W        W 2911  28.981  14.537   0.059
31383W        W 2912  18.241  37.082   4.816
31384W        W 2913  24.178  41.423   2.327
31385W        W 2914  27.497   0.105  13.985
31386W        W 2915  27.534  24.640   1.415
31387W        W 2916  12.329  29.956  13.929
31388W        W 2917  15.835  19.512  13.827
31389W        W 2918  22.079   6.763  14.350
31390W        W 2919  39.999  33.655   2.370
31391W        W 2920  33.755   3.664   0.253
31392W        W 2921  39.906  43.442   4.804
31393W        W 2922  39.040  39.820  10.946
31394W        W 2923  15.735  38.547   4.048
31395W        W 2924  22.219  19.012  12.595
31396W        W 2925  10.354  37.858   3.303
31397W        W 2926  29.184  39.403  13.597
31398W        W 2927  23.959  28.662   2.351
31399W        W 2928  21.435  33.046  13.869
31400W        W 2929  23.187  34.478  12.474
31401W        W 2930  44.292  40.965  11.030
31402W        W 2931  18.222  33.105  11.632
31403W        W 2932  17.195  12.381  10.986
31404W        W 2933  19.260   9.710  13.417
31405W        W 2934  39.460  14.759   2.863
31406W        W 2935  10.060  34.978   3.242
31407W        W 2936  14.091   1.204  14.310
31408W        W 2937  35.365   9.322   2.189
31409W        W 2938   4.258  12.568  12.995
31410W        W 2939  39.421   6.852  10.772
31411W        W 2940  31.896   0.501  14.794
31412W        W 2941  21.799  27.767   4.933
31413W        W 2942  16.742  27.217   4.006
31414W        W 2943  23.240  22.996   0.858
31415W        W 2944  14.832  17.764   3.465
31416W        W 2945  16.309   7.785  11.216
31417W        W 2946  12.328   1.487  10.729
31418W        W 2947  29.222  39.820  12.825
31419W        W 2948  14.781  18.775  10.530
31420W        W 2949  43.399  40.322   3.582
31421W        W 2950  10.805   9.803   2.898
31422W        W 2951   1.258  12.421   1.810
31423W        W 2952  37.804  25.947   0.240
31424W        W 2953  31.064  17.764   4.021
31425W        W 2954  27.246  19.644   3.253
31426W        W 2955  34.745  19.235  12.671
31427W        W 2956  42.525  20.223  13.952
31428W        W 2957  31.902   7.894  14.458
31429W        W 2958  35.046  38.784  13.085
31430W        W 2959  33.365  41.818   4.239
31431W        W 2960  14.919   9.672   2.270
31432W        W 2961  44.322  39.033  11.015
31433W        W 2962  17.818   7.313   0.978
31434W        W 2963  19.394  19.719   5.251
31435W        W 2964   0.828  27.914   2.673
31436W        W 2965  21.768  23.165   0.896
31437W        W 2966  38.314  28.434   2.141
31438W        W 2967  16.901  27.580  14.023
31439W        W 2968   5.443  10.295   2.599
31440W        W 2969  13.671   6.795  12.999
31441W        W 2970  35.538   2.221   1.757
31442W        W 2971  39.218  44.787   1.576
31443W        W 2972  12.386  33.898   4.588
31444W        W 2973  34.891  41.906   2.766
31445W        W 2974  20.105  14.439   0.529
31446W        W 2975   1.329  32.077   4.536
31447W        W 2976   0.956  16.765   0.259
31448W        W 2977   5.203  23.244   1.660
31449W        W 2978  13.638  44.350   4.531
31450W        W 2979   2.814  42.967   3.979
31451W        W 2980   4.036  41.570   1.561
31452W        W 2981   9.723  38.869  12.101
31453W        W 2982   7.678  29.897  12.911
31454W        W 2983  14.670  34.507  10.212
31455W        W 2984  36.117  30.991   4.601
31456W        W 2985  20.629   7.855  14.856
31457W        W 2986  42.997  35.076  12.090
31458W        W 2987  40.960   1.936   0.620
31459W        W 2988  27.590  22.969   4.695
31460W        W 2989  43.736  11.621   0.830
31461W        W 2990  30.804  43.388  12.092
31462W        W 2991  12.049  21.505  12.837
31463W        W 2992  30.360  36.663   0.902
31464W        W 2993  22.195  18.225   0.340
31465W        W 2994  33.447  19.807   0.092
31466W        W 2995  44.468  24.843  12.639
31467W        W 2996  30.129  41.348   4.669
31468W        W 2997   9.365  15.275  13.953
31469W        W 2998  38.101  40.410   3.545
31470W        W 2999   5.646  15.906   3.057
31471W        W 3000  32.505   5.701  12.603
31472W        W 3001  13.579  17.242   2.686
31473W        W 3002  12.977  13.910  12.818
31474W        W 3003  25.759  24.831   4.627
31475W        W 3004  36.552  18.513   1.807
31476W        W 3005  40.084  15.227  11.946
31477W        W 3006  15.819  39.427   3.801
31478W        W 3007  35.914  30.627  14.780
31479W        W 3008   3.298  30.950  11.141
31480W        W 3009  39.971  25.248   1.269
31481W        W 3010  19.703  21.359  11.602
31482W        W 3011   1.460   8.866   3.804
31483W        W 3012   8.631  15.691   0.607
31484W        W 3013   6.753  22.734   2.750
31485W        W 3014  20.049   2.872   0.949
31486W        W 3015   8.275   3.008   4.673
31487W        W 3016   7.766  12.731  10.295
31488W        W 3017  10.049  18.973  11.997
31489W        W 3018   3.764  14.124  12.494
31490W        W 3019  25.516   5.388  13.362
31491W        W 3020  38.629  12.632   0.300
31492W        W 3021  18.334  42.740  12.184
31493W        W 3022  19.088  11.563  14.217
31494W        W 3023   8.571  12.102  11.748
31495W        W 3024   0.272   1.781   3.213
31496W        W 3025  18.606  22.863   3.126
31497W        W 3026  39.373  36.197   4.685
31498W        W 3027  29.442   0.499  13.991
31499W        W 3028  21.989  30.603  14.474
31500W        W 3029   8.088  19.110  14.393
31501W        W 3030  21.271  22.196  12.710
31502W        W 3031  27.957   7.679   0.541
31503W        W 3032  13.715  22.599  10.515
31504W        W 3033  23.582  12.944   3.142
31505W        W 3034  41.620  18.698   2.456
31506W        W 3035  25.833  36.977  12.533
31507W        W 3036  33.658  15.300   2.493
31508W        W 3037  34.814  40.549   3.498
31509W        W 3038  41.444  29.021  12.439
31510W        W 3039  33.141  33.109  10.327
31511W        W 3040  22.143   6.198   2.048
31512W        W 3041  32.067  23.856   0.349
31513W        W 3042  41.008  42.920   3.567
31514W        W 3043   1.517  43.339  10.697
31515W        W 3044   1.687  42.586  13.008
31516W        W 3045   2.708   3.673  12.188
31517W        W 3046  21.323   3.755  11.633
31518W        W 3047   8.975  43.388  12.035
31519W        W 3048  13.650  24.210  14.363
31520W        W 3049  39.288   6.561  13.926
31521W        W 3050  22.762  42.966   1.303
31522W        W 3051  27.740  22.709   0.483
31523W        W 3052  35.974  36.208   2.232
31524W        W 3053  27.458   0.779  12.339
31525W        W 3054  35.713  30.136   1.791
31526W        W 3055   2.008   5.290   3.332
31527W        W 3056  15.088  10.560   2.823
31528W        W 3057  11.193  30.222  11.186
31529W        W 3058   4.169   9.004   0.900
31530W        W 3059  17.716  44.888  14.477
31531W        W 3060  16.643  41.026  10.630
31532W        W 3061   5.167  29.491  12.825
31533W        W 3062  32.335  31.075  12.989
31534W        W 3063   9.606   0.214   2.302
31535W        W 3064  13.278  39.219  14.081
31536W        W 3065  31.881   6.987  14.916
31537W        W 3066  24.126  21.191   3.155
31538W        W 3067  16.174  10.751   3.497
31539W        W 3068  19.225  41.247   0.691
31540W        W 3069  34.594   4.385  10.666
31541W        W 3070  36.834  17.816  12.582
31542W        W 3071   5.624  20.074   3.343
31543W        W 3072  22.106  23.561  12.526
31544W        W 3073  44.241   4.535   0.774
31545W        W 3074  39.871  42.483   2.954
31546W        W 3075  39.976  43.405   1.433
31547W        W 3076  37.454  29.858   1.072
31548W        W 3077  25.496  12.795   3.148
31549W        W 3078  28.427  15.779  12.844
31550W        W 3079   8.783  30.922  10.387
31551W        W 3080  38.391   8.177  13.801
31552W        W 3081  16.699  22.393   1.538
31553W        W 3082  41.362  21.337  12.319
31554W        W 3083  15.232  32.088   0.812
31555W        W 3084  12.448  34.600  12.888
31556W        W 3085  30.296  16.129   3.164
31557W        W 3086  33.946  34.920   0.340
31558W        W 3087  43.797  30.387  11.175
31559W        W 3088  39.887   8.339   1.944
31560W        W 3089  10.617   6.855   3.844
31561W        W 3090  17.863  37.446   2.958
31562W        W 3091  28.162   9.360  11.836
31563W        W 3092  34.534  23.582  13.420
31564W        W 3093  13.735  44.859   4.405
31565W        W 3094   2.961  16.983  14.825
31566W        W 3095  41.298  35.114  10.820
31567W        W 3096  37.866   9.335  13.426
31568W        W 3097  37.482  25.969   3.326
31569W        W 3098   3.527  18.210  13.067
31570W        W 3099  28.079  30.592  13.762
31571W        W 3100   6.730  12.324  14.510
31572W        W 3101  25.221  44.953  14.753
31573W        W 3102   5.160  17.712   3.269
31574W        W 3103  34.604  40.092   2.168
31575W        W 3104  18.225   8.194  13.830
31576W        W 3105  44.557  24.118  10.637
31577W        W 3106  32.063   1.301   2.415
31578W        W 3107  21.531   2.995   1.347
31579W        W 3108  38.543  19.570   3.892
31580W        W 3109  24.558  41.996   2.256
31581W        W 3110  30.066  40.109   4.910
31582W        W 3111   8.917   9.849  13.788
31583W        W 3112  15.800  28.448  10.308
31584W        W 3113  17.228  41.091  13.994
31585W        W 3114  30.494   3.232   0.538
31586W        W 3115  35.542   2.752   1.907
31587W        W 3116  20.728  42.845  14.853
31588W        W 3117  29.561  35.018  12.081
31589W        W 3118  28.177   8.151   1.391
31590W        W 3119  39.582  33.377   1.324
31591W        W 3120  31.517  24.453  13.024
31592W        W 3121  13.267  18.090  14.275
31593W        W 3122   6.873  44.017  12.761
31594W        W 3123  28.410  17.525  11.054
31595W        W 3124  22.057  29.704   1.580
31596W        W 3125  37.572  20.570  14.432
31597W        W 3126  42.913  30.661   2.809
31598W        W 3127  43.367  31.603  11.182
31599W        W 3128  38.831  37.343  13.078
31600W        W 3129  42.279   9.677  14.937
31601W        W 3130  31.594   7.657   4.900
31602W        W 3131  22.147  21.992  11.963
31603W        W 3132  10.688  26.478   3.650
31604W        W 3133  32.417   4.751   4.562
31605W        W 3134  15.047  18.088   2.337
31606W        W 3135   1.947   3.725   2.662
31607W        W 3136  24.944   2.782   2.275
31608W        W 3137   2.266   4.902  10.609
31609W        W 3138  17.629   7.786   3.175
31610W        W 3139  16.857  41.096  11.579
31611W        W 3140  15.851  14.293  11.661
31612W        W 3141   4.916  21.014   3.082
31613W        W 3142   6.351  40.361   1.642
31614W        W 3143  15.832  28.117  14.429
31615W        W 3144   7.139   1.956  14.942
31616W        W 3145   7.761  32.076  14.303
31617W        W 3146   3.463  36.722  12.183
31618W        W 3147  22.606  12.286   4.810
31619W        W 3148  10.829   8.871  14.262
31620W        W 3149  11.002  27.507  14.477
31621W        W 3150   8.175  43.005  11.757
31622W        W 3151   6.819  20.869  14.243
31623W        W 3152  10.010  27.408   1.114
31624W        W 3153  22.774  26.671   3.765
31625W        W 3154  28.731  26.677   3.311
31626W        W 3155  32.952  33.621  13.780
31627W        W 3156   9.174  14.406   3.612
31628W        W 3157   6.821  26.156   1.439
31629W        W 3158  38.733   8.351  10.945
31630W        W 3159  34.529  26.954  11.474
31631W        W 3160  35.376  19.648   2.223
31632W        W 3161  37.311  13.666  11.101
31633W        W 3162  13.283  24.540   4.815
31634W        W 3163   0.038  17.189   1.639
31635W        W 3164   5.475  20.564  14.297
31636W        W 3165  14.210  24.694  11.392
31637W        W 3166   2.462   8.731  11.969
31638W        W 3167  10.587  15.204  14.815
31639W        W 3168   8.766  22.547  13.383
31640W        W 3169  19.078   0.078   3.216
31641W        W 3170  18.657   1.273  12.438
31642W        W 3171  19.686  16.693  11.536
31643W        W 3172  21.584  19.480  13.553
31644W        W 3173  29.591  29.507   2.114
31645W        W 3174  28.582   4.986  13.958
31646W        W 3175  41.937   6.361  11.556
31647W        W 3176  41.917  20.774   1.789
31648W        W 3177  33.134   6.308   3.693
31649W        W 3178   4.230  30.797   0.425
31650W        W 3179  35.291   3.430   3.666
31651W        W 3180  10.645  22.463   4.670
31652W        W 3181  40.458  14.892  10.496
31653W        W 3182   6.793  26.473   1.884
31654W        W 3183  34.327   2.729  11.289
31655W        W 3184  29.007  18.968  11.158
31656W        W 3185  30.090  37.402  13.023
31657W        W 3186  20.917   0.035  12.369
31658W        W 3187  35.418   7.747   0.473
31659W        W 3188  34.575  24.655   1.988
31660W        W 3189  29.498  33.848   0.468
31661W        W 3190  38.868  23.518   1.813
31662W        W 3191  27.090  42.805   0.557
31663W        W 3192  28.653   7.486  13.865
31664W        W 3193  20.551  27.562  12.016
31665W        W 3194   5.721  38.087  11.232
31666W        W 3195  25.419   4.790  12.095
31667W        W 3196  29.019   9.433  14.504
31668W        W 3197  41.376  28.655   1.311
31669W        W 3198  12.074  21.214  13.939
31670W        W 3199   2.170  24.465   3.296
31671W        W 3200  33.930   6.489   4.798
31672W        W 3201   2.117   5.386  10.693
31673W        W 3202   5.514  12.079  11.655
31674W        W 3203  44.016   1.413  12.044
31675W        W 3204  34.031  20.671   0.925
31676W        W 3205  12.089  15.320   4.451
31677W        W 3206  26.282  29.126  12.693
31678W        W 3207  42.778  43.877  13.417
31679W        W 3208  22.742   6.178  14.462
31680W        W 3209  34.447  25.659  14.424
31681W        W 3210  36.415   6.585  11.918
31682W        W 3211   8.885  35.569  12.635
31683W        W 3212  35.459  12.342   4.617
31684W        W 3213  18.666  39.196  13.036
31685W        W 3214  30.064  16.668  11.558
31686W        W 3215  13.319  14.768  11.054
31687W        W 3216  27.028   0.047   0.663
31688W        W 3217  22.852  28.557   0.500
31689W        W 3218  38.998  43.915   4.510
31690W        W 3219  24.740  26.013  13.029
31691W        W 3220   3.532  29.801   1.139
31692W        W 3221  25.654  36.611  12.078
31693W        W 3222  26.154  33.316  12.454
31694W        W 3223  14.205  24.482  13.152
31695W        W 3224  40.348  34.467  12.019
31696W        W 3225   4.813  39.405   4.057
31697W        W 3226  25.525  24.520   2.299
31698W        W 3227  13.298  44.903  14.517
31699W        W 3228  32.033  38.998   3.491
31700W        W 3229  23.169  29.382  11.105
31701W        W 3230  42.448  40.415   4.380
31702W        W 3231  22.459   7.892  13.481
31703W        W 3232  21.992  32.510   1.620
31704W        W 3233  35.126   9.304  12.600
31705W        W 3234  11.830  15.300  11.947
31706W        W 3235  39.306  34.964   3.240
31707W        W 3236  19.801  13.843   4.232
31708W        W 3237  20.470   9.352  11.004
31709W        W 3238  43.073  42.882   2.165
31710W        W 3239   9.491  29.260   1.327
31711W        W 3240  37.776  33.940  14.480
31712W        W 3241  19.303  31.682  14.876
31713W        W 3242  11.524  28.571   4.643
31714W        W 3243  26.570   0.559   1.392
31715W        W 3244  37.483  33.583  12.342
31716W        W 3245  30.128  28.265   2.022
31717W        W 3246  22.291  17.493  10.583
31718W        W 3247  10.454   0.239  12.930
31719W        W 3248  32.834  27.118  11.037
31720W        W 3249   3.807  15.773  11.610
31721W        W 3250  12.687  17.565   3.781
31722W        W 3251  11.782  22.324   0.980
31723W        W 3252  36.604   0.712  12.197
31724W        W 3253  25.942  36.482  12.479
31725W        W 3254   5.678  32.233  12.020
31726W        W 3255  25.169  14.539  12.068
31727W        W 3256  24.725  20.056   3.643
31728W        W 3257  32.837  25.780  12.916
31729W        W 3258  42.807  38.856  11.149
31730W        W 3259  20.778  10.271  14.255
31731W        W 3260  13.999  10.602   4.922
31732W        W 3261  34.629  38.564  12.791
31733W        W 3262   9.602   1.954  11.909
31734W        W 3263   8.443  15.599  11.420
31735W        W 3264  40.927  27.479   2.351
31736W        W 3265  38.314  25.658   1.245
31737W        W 3266  31.674  11.027  12.133
31738W        W 3267  19.684  11.117   4.569
31739W        W 3268  39.884   1.415   0.689
31740W        W 3269  14.234   3.004  11.563
31741W        W 3270  44.446  15.017   4.167
31742W        W 3271  42.127  11.043  13.732
31743W        W 3272  34.051  20.903   1.382
31744W        W 3273   0.013   7.794   4.101
31745W        W 3274  16.012  33.070   0.741
31746W        W 3275  11.858  25.049   3.643
31747W        W 3276  37.092  11.293  13.291
31748W        W 3277  18.111  42.095  13.719
31749W        W 3278  12.489  18.560  10.654
31750W        W 3279  28.111  20.253   0.236
31751W        W 3280  36.092  28.454  11.190
31752W        W 3281  11.908  36.059   1.746
31753W        W 3282  35.033  35.761  14.036
31754W        W 3283  11.342   3.525  11.117
31755W        W 3284  14.243  33.493  12.365
31756W        W 3285   1.061  10.125   4.118
31757W        W 3286  33.562  11.691   0.698
31758W        W 3287  32.891  25.950  14.728
31759W        W 3288  27.090  27.529   0.468
31760W        W 3289  30.089  15.762   3.728
31761W        W 3290  10.793  16.876  12.125
31762W        W 3291  10.066  26.427  13.889
31763W        W 3292  44.345  13.557   4.029
31764W        W 3293  37.932  27.022   4.356
31765W        W 3294  37.467   1.381   1.336
31766W        W 3295  44.930   1.374   3.109
31767W        W 3296   4.442  26.925   0.338
31768W        W 3297  23.405  42.478   2.224
31769W        W 3298  29.955   4.430   3.427
31770W        W 3299  40.302   8.008   3.742
31771W        W 3300  14.706  23.010   0.270
31772W        W 3301  41.675  33.034  11.124
31773W        W 3302  11.301  27.599  12.040
31774W        W 3303  23.404  13.838   4.899
31775W        W 3304   0.050  28.792   0.134
31776W        W 3305  19.722  34.633   4.074
31777W        W 3306   8.389  15.913  13.955
31778W        W 3307  15.663  13.331  12.863
31779W        W 3308  17.837  31.677  13.960
31780W        W 3309  12.829  24.959   1.697
31781W        W 3310  33.032   7.312  10.957
31782W        W 3311  41.654   1.745   2.314
31783W        W 3312  10.802  27.143  10.646
31784W        W 3313  16.194  35.101   4.708
31785W        W 3314  18.632  43.496   0.983
31786W        W 3315  42.406  28.467  14.326
31787W        W 3316  19.474  31.684  13.052
31788W        W 3317  36.113  30.578  13.379
31789W        W 3318  10.139   7.305  13.293
31790W        W 3319  17.361  40.081  13.943
31791W        W 3320   7.719  29.431   1.712
31792W        W 3321  36.831  25.887  11.110
31793W        W 3322  33.468   4.859   4.223
31794W        W 3323   0.876  11.476   0.429
31795W        W 3324  25.118  22.083   4.354
31796W        W 3325  17.014  17.858  10.846
31797W        W 3326  44.411  14.226   1.233
31798W        W 3327  29.470  34.549   0.913
31799W        W 3328  43.818  12.544   3.187
31800W        W 3329  23.950  24.483   0.731
31801W        W 3330  37.529  20.439   3.337
31802W        W 3331  38.272  13.737   2.238
31803W        W 3332  31.062  20.083  10.700
31804W        W 3333  27.483  44.506   0.420
31805W        W 3334  17.181   5.137  14.672
31806W        W 3335  25.114  22.300  12.167
31807W        W 3336  28.536   5.477  11.194
31808W        W 3337   8.781  44.448  14.555
31809W        W 3338  31.949  13.825   1.760
31810W        W 3339  23.925  35.996  10.347
31811W        W 3340   6.876  19.867   2.800
31812W        W 3341   4.904  13.053  12.426
31813W        W 3342  43.434  43.427  13.014
31814W        W 3343   9.125  23.161  12.273
31815W        W 3344  23.779   4.319   0.915
31816W        W 3345  30.282  29.365   2.284
31817W        W 3346  31.024   5.020   0.278
31818W        W 3347   4.866  13.876   2.779
31819W        W 3348  40.581  22.086  14.048
31820W        W 3349  26.098  22.954   1.042
31821W        W 3350  15.386   8.419  13.537
31822W        W 3351  25.471  29.991   4.192
31823W        W 3352   3.690   6.073  11.667
31824W        W 3353   6.816  24.062   0.024
31825W        W 3354  15.990  11.152   4.230
31826W        W 3355  41.168  34.334   4.119
31827W        W 3356  37.523  24.690  13.044
31828W        W 3357  36.623  32.394  12.183
31829W        W 3358  36.454  29.853   0.645
31830W        W 3359  37.869  43.348   4.068
31831W        W 3360  32.768  21.832  11.892
31832W        W 3361  40.931  24.201   4.958
31833W        W 3362  25.697  43.538  14.389
31834W        W 3363  14.234   2.997   0.440
31835W        W 3364  31.660   4.208   2.641
31836W        W 3365  12.464  25.954   4.085
31837W        W 3366  20.874  41.745   0.398
31838W        W 3367  16.699  26.139   2.087
31839W        W 3368  10.613  40.449   3.219
31840W        W 3369   5.233  20.129  14.408
31841W        W 3370  12.357  31.195   0.760
31842W        W 3371  23.661  42.768  14.529
31843W        W 3372  21.537   1.334  11.911
31844W        W 3373  20.598  14.449  12.747
31845W        W 3374  31.514  41.581   3.445
31846W        W 3375  41.031   8.277  10.778
31847W        W 3376  26.119  26.446  14.794
31848W        W 3377   5.452  10.830  14.921
31849W        W 3378  44.782   3.413  10.709
31850W        W 3379  10.021  30.719  10.309
31851W        W 3380  36.294   3.780  11.126
31852W        W 3381  34.155  13.383  14.532
31853W        W 3382   0.378   8.010   4.659
31854W        W 3383  13.063  10.817   3.227
31855W        W 3384  37.399  17.558  14.445
31856W        W 3385  27.656   0.907  14.980
31857W        W 3386   7.443   9.109   0.800
31858W        W 3387  10.566  29.087  13.647
31859W        W 3388  23.534   2.316   4.457
31860W        W 3389  11.801   0.641  11.119
31861W        W 3390  32.228   7.867  13.482
31862W        W 3391  43.231  10.316   3.832
31863W        W 3392  33.745  29.861  12.522
31864W        W 3393  43.121  28.583   1.421
31865W        W 3394  31.513  42.515   2.562
31866W        W 3395  12.104   5.826  13.914
31867W        W 3396  41.245   9.418  12.170
31868W        W 3397   8.245  32.499  11.441
31869W        W 3398   4.366   4.823   4.702
31870W        W 3399   5.998  29.625   1.325
31871W        W 3400  16.232  41.778  13.838
31872W        W 3401  25.678  17.752  12.016
31873W        W 3402   7.708   2.802   4.299
31874W        W 3403  43.093  16.078   0.488
31875W        W 3404  16.673  10.762  12.595
31876W        W 3405  31.807  14.880   0.284
31877W        W 3406  27.003   1.202  10.355
31878W        W 3407  16.503   9.145   3.366
31879W        W 3408   1.737  20.003  10.723
31880W        W 3409   6.320  26.178  10.586
31881W        W 3410  32.885  13.258  13.018
31882W        W 3411  17.339   1.190  12.235
31883W        W 3412  43.746  32.034  12.874
31884W        W 3413  31.642  15.226   1.151
31885W        W 3414  11.311  31.371   1.859
31886W        W 3415  22.249   5.324   4.586
31887W        W 3416  25.149  39.340   2.753
31888W        W 3417  24.764  42.444   0.777
31889W        W 3418  40.567   7.137   4.021
31890W        W 3419  26.046  21.560  14.348
31891W        W 3420  22.759  21.376   0.537
31892W        W 3421  29.249  25.942   4.267
31893W        W 3422  42.469  10.645  10.695
31894W        W 3423   2.771  32.853  14.998
31895W        W 3424  19.225  24.723   1.239
31896W        W 3425   7.658  42.967  12.160
31897W        W 3426  33.097  44.996  14.296
31898W        W 3427  41.412  16.028  11.431
31899W        W 3428  38.068  36.531  10.748
31900W        W 3429   2.177  41.081  10.901
31901W        W 3430  41.504  20.249  13.010
31902W        W 3431  21.280   2.564   1.212
31903W        W 3432  35.361   3.416  14.616
31904W        W 3433  19.122   9.700   0.948
31905W        W 3434  23.115  24.143  14.484
31906W        W 3435  42.399  12.369   3.847
31907W        W 3436  43.508   2.183  11.730
31908W        W 3437  21.952  37.052   1.406
31909W        W 3438  37.529   8.908   0.381
31910W        W 3439   3.014   4.318  13.994
31911W        W 3440  13.828   4.351   2.767
31912W        W 3441  28.148  39.804   3.228
31913W        W 3442  38.045  34.416   0.814
31914W        W 3443  42.097   2.964  14.234
31915W        W 3444   5.713  34.789   4.733
31916W        W 3445  12.390  23.540   4.717
31917W        W 3446  35.012  31.993  10.145
31918W        W 3447   0.774  43.947   3.081
31919W        W 3448  23.213   6.181   0.427
31920W        W 3449   4.978  10.312  11.839
31921W        W 3450   7.792  43.859  12.864
31922W        W 3451   3.325  10.893  13.215
31923W        W 3452   9.412   4.209   1.417
31924W        W 3453  18.045  13.161  12.070
31925W        W 3454  30.113  23.021  11.224
31926W        W 3455  43.970  15.576   0.404
31927W        W 3456  17.836  25.141   0.825
31928W        W 3457  23.411  13.753   0.720
31929W        W 3458  11.882  16.435  12.559
31930W        W 3459   5.924   0.709   2.884
31931W        W 3460  43.780  19.341  12.578
31932W        W 3461   7.421  29.451   3.372
31933W        W 3462  11.641  15.289  13.949
31934W        W 3463  10.639  35.587  11.251
31935W        W 3464  26.848  39.779   4.981
31936W        W 3465  28.691  10.642  12.576
31937W        W 3466  42.311   8.106   2.758
31938W        W 3467  21.517  22.700  13.417
31939W        W 3468  24.651  37.132  10.666
31940W        W 3469  37.972   6.432  12.853
31941W        W 3470  17.554   4.666  11.604
31942W        W 3471   4.862  42.289  14.447
31943W        W 3472  38.148  18.062  12.096
31944W        W 3473  34.452  38.454   4.335
31945W        W 3474  43.775  44.743  13.560
31946W        W 3475  30.230  15.214  14.022
31947W        W 3476  12.015  25.241  11.041
31948W        W 3477  18.301  10.569   1.056
31949W        W 3478  35.046  17.981   1.903
31950W        W 3479  43.131  41.008   4.216
31951W        W 3480   6.973  39.022   3.712
31952W        W 3481  44.454   1.514   3.729
31953W        W 3482   5.164  11.782  12.917
31954W        W 3483   8.425  20.052   0.178
31955W        W 3484  37.071  22.597  14.559
31956W        W 3485  26.040  43.952   2.768
31957W        W 3486  33.858  38.783   4.282
31958W        W 3487  34.378   8.608   4.847
31959W        W 3488  39.321  34.736  13.625
31960W        W 3489  18.478  34.855  11.200
31961W        W 3490  34.661  14.194   0.330
31962W        W 3491   4.426  27.696   0.147
31963W        W 3492  35.385  42.480   0.969
31964W        W 3493  43.430  26.543  13.226
31965W        W 3494  18.555   7.160   2.087
31966W        W 3495  38.898  32.916   3.760
31967W        W 3496  33.265  25.741   0.293
31968W        W 3497  35.952  23.953  13.486
31969W        W 3498   1.526  30.997  10.497
31970W        W 3499  35.010  25.260   1.272
31971W        W 3500  21.619   2.209   0.991
31972W        W 3501   4.953  17.307   0.255
31973W        W 3502  21.373  35.698  13.903
31974W        W 3503  13.735  20.500   1.279
31975W        W 3504  38.727   8.831   4.165
31976W        W 3505   1.798  22.076  13.556
31977W        W 3506  23.836   3.956   0.473
31978W        W 3507  36.026   3.485   0.038
31979W        W 3508  13.930   2.757  11.192
31980W        W 3509  32.304  29.803   1.461
31981W        W 3510  40.295  16.183  12.954
31982W        W 3511   0.441   3.853  13.359
31983W        W 3512  32.179   9.311   3.910
31984W        W 3513  34.832  43.163   1.243
31985W        W 3514  19.623  20.579   1.050
31986W        W 3515  13.659  40.859   0.676
31987W        W 3516  22.645  35.789  13.356
31988W        W 3517  38.440  22.369   0.724
31989W        W 3518  15.050  35.532   1.473
31990W        W 3519  11.047  13.678   0.961
31991W        W 3520  15.622  44.406   3.237
31992W        W 3521   0.927  21.118  11.799
31993W        W 3522   2.278  40.082  14.929
31994W        W 3523  35.876   9.365   2.329
31995W        W 3524  18.921  24.875  13.618
31996W        W 3525  22.153  14.058  11.929
31997W        W 3526  30.935   7.905   0.858
31998W        W 3527  15.122  15.274   2.909
31999W        W 3528  31.171  42.971   2.758
32000W        W 3529  11.520  23.746  12.068
32001W        W 3530  44.948  11.681  12.958
32002W        W 3531  35.146  11.045  12.357
32003W        W 3532   5.062  31.369   3.576
32004W        W 3533  38.043  18.061  14.801
32005W        W 3534   7.898  13.551  12.216
32006W        W 3535  31.440  12.646   4.109
32007W        W 3536   7.825  40.576   0.287
32008W        W 3537  34.098  22.238  11.601
32009W        W 3538  33.865   2.972  14.386
32010W        W 3539  14.244  21.316   4.858
32011W        W 3540  10.261   7.553   0.230
32012W        W 3541  42.218  30.967  14.732
32013W        W 3542  32.597   3.453   1.191
32014W        W 3543  30.667  39.308   3.709
32015W        W 3544  22.681  18.074  14.868
32016W        W 3545  15.904  20.251  10.710
32017W        W 3546   5.840   6.197   4.368
32018W        W 3547  20.196  11.366   0.340
32019W        W 3548  14.769   4.490   1.477
32020W        W 3549  30.490  15.135   0.520
32021W        W 3550  16.401  23.075   3.013
32022W        W 3551  28.474  20.220  12.369
32023W        W 3552  20.049  11.872   0.230
32024W        W 3553   8.913  36.086  12.717
32025W        W 3554  15.782  43.693   3.256
32026W        W 3555  19.724  10.952   0.249
32027W        W 3556  44.948   1.333   3.655
32028W        W 3557   6.609  27.021  11.611
32029W        W 3558  13.707  26.740  13.956
32030W        W 3559  16.723   3.029   0.971
32031W        W 3560  38.811  23.491  12.423
32032W        W 3561  39.123   9.809  12.244
32033W        W 3562  35.962  12.579  14.358
32034W        W 3563  40.635  23.777  13.077
32035W        W 3564   8.714  21.990  12.658
32036W        W 3565  29.983   7.786  12.047
32037W        W 3566  12.896  31.969  12.043
32038W        W 3567   9.799  37.137  12.723
32039W        W 3568  42.992  16.292   3.667
32040W        W 3569   2.760  17.211  10.932
32041W        W 3570  33.115  41.989   3.796
32042W        W 3571  31.681  32.494   1.876
32043W        W 3572  24.966  29.483   0.900
32044W        W 3573  28.870  41.339   0.964
32045W        W 3574  14.504   2.264  11.544
32046W        W 3575  44.445  30.500   4.995
32047W        W 3576  13.578   0.278  10.956
32048W        W 3577  32.452  38.615   1.775
32049W        W 3578  33.677  35.536   3.770
32050W        W 3579  33.457  30.497   0.304
32051W        W 3580  18.094  31.695   1.839
32052W        W 3581   2.886  42.159   3.257
32053W        W 3582  22.296  30.213   3.376
32054W        W 3583  31.437   1.402  14.745
32055W        W 3584  29.050  29.067   0.906
32056W        W 3585   3.762  39.967   0.530
32057W        W 3586  16.883  29.892  12.091
32058W        W 3587  27.162  18.079   4.129
32059W        W 3588  21.077  12.227   3.237
32060W        W 3589  32.398  12.276   3.529
32061W        W 3590   9.413  37.883   2.740
32062W        W 3591  34.718  30.579  14.844
32063W        W 3592  21.114   6.191  13.010
32064W        W 3593  30.000  44.250  11.346
32065W        W 3594  21.074  13.227   1.901
32066W        W 3595  18.186  24.643  12.303
32067W        W 3596  29.054  33.582   1.140
32068W        W 3597  14.230  38.848   4.168
32069W        W 3598  30.725  36.850   2.525
32070W        W 3599  12.101  19.210   3.990
32071W        W 3600  15.552  21.130   0.604
32072W        W 3601   8.746   5.214   1.887
32073W        W 3602  37.437   3.343   3.836
32074W        W 3603  21.448   5.712  13.914
32075W        W 3604  24.932  34.954   0.924
32076W        W 3605   4.776   8.298   4.147
32077W        W 3606  28.094   1.249  14.860
32078W        W 3607  42.980  26.455  11.904
32079W        W 3608  36.273  18.001   0.949
32080W        W 3609  32.900  37.533   2.339
32081W        W 3610  20.395  37.900   2.305
32082W        W 3611   9.365  38.651  11.271
32083W        W 3612  35.674  23.011  13.574
32084W        W 3613  28.759  31.961   1.719
32085W        W 3614  21.558  30.603  14.218
32086W        W 3615  22.110   1.025   1.320
32087W        W 3616  38.151  10.235   4.162
32088W        W 3617  18.053  16.131   0.772
32089W        W 3618  16.654  25.952   3.593
32090W        W 3619   7.836  27.456  11.144
32091W        W 3620  17.590  27.967   0.377
32092W        W 3621  24.956   3.235  13.972
32093W        W 3622  26.784  11.789  12.843
32094W        W 3623  17.822  41.456  13.956
32095W        W 3624  20.114   7.832  12.021
32096W        W 3625  27.241  12.777   1.361
32097W        W 3626  20.483   7.198  14.342
32098W        W 3627   4.948  21.790  13.770
32099W        W 3628  18.867   6.260  12.712
32100W        W 3629  17.236  21.994  10.927
32101W        W 3630  10.363  42.391  14.220
32102W        W 3631   3.275   7.258   3.294
32103W        W 3632  44.770  19.827   4.542
32104W        W 3633  10.192   3.300   4.294
32105W        W 3634  26.325  37.120  11.225
32106W        W 3635  20.654   6.155   3.732
32107W        W 3636   2.618  13.502  14.519
32108W        W 3637  22.874  20.352  11.157
32109W        W 3638  21.944  41.437   1.919
32110W        W 3639  30.125   0.892   1.829
32111W        W 3640  27.405  32.168   0.367
32112W        W 3641  15.737  36.129  13.349
32113W        W 3642  17.266  18.652   1.042
32114W        W 3643  10.764   3.274  12.161
32115W        W 3644  15.840   3.461  12.511
32116W        W 3645  33.035  41.687   2.657
32117W        W 3646  37.526  27.406  13.548
32118W        W 3647  14.835  19.234  12.465
32119W        W 3648  22.751  11.228   0.073
32120W        W 3649   9.983  18.221  11.054
32121W        W 3650  37.473  29.476  11.286
32122W        W 3651  30.463  40.349   2.609
32123W        W 3652  13.895  38.599   3.697
32124W        W 3653  24.741   2.280   4.794
32125W        W 3654  30.766  37.884   0.604
32126W        W 3655  27.026   8.639   1.490
32127W        W 3656  17.215   8.028   0.267
32128W        W 3657  15.864  44.254   0.251
32129W        W 3658  40.399  23.162   0.189
32130W        W 3659  13.887  35.363   3.114
32131W        W 3660  10.610  19.141   2.317
32132W        W 3661   1.830  42.992   4.978
32133W        W 3662  23.690  29.716  13.222
32134W        W 3663  27.739  38.191   4.242
32135W        W 3664  33.574  42.092  13.898
32136W        W 3665  11.300  19.775   1.797
32137W        W 3666  36.889  14.310   3.584
32138W        W 3667  18.770  27.233   3.268
32139W        W 3668  19.997  36.915  11.014
32140W        W 3669  32.801  20.521   4.228
32141W        W 3670  29.398  17.152  13.470
32142W        W 3671  26.616  38.153  13.424
32143W        W 3672  27.709  40.794   2.101
32144W        W 3673  26.870  42.076  14.072
32145W        W 3674  22.935  23.237  11.962
32146W        W 3675  14.010   1.821  13.635
32147W        W 3676  18.321  43.883   0.872
32148W        W 3677  25.606  36.112  11.238
32149W        W 3678  40.399  40.947   4.574
32150W        W 3679  34.281  32.972   0.034
32151W        W 3680   3.665  22.390   1.761
32152W        W 3681  37.912  40.642  12.875
32153W        W 3682  19.058  35.168  13.118
32154W        W 3683   4.246  38.125  13.281
32155W        W 3684   6.852  43.966  12.249
32156W        W 3685  19.023  38.947  11.919
32157W        W 3686  17.046  12.798  14.558
32158W        W 3687  16.026  20.559   1.354
32159W        W 3688  41.781  11.469   2.293
32160W        W 3689  32.182  39.454  12.120
32161W        W 3690  34.124  41.063   1.698
32162W        W 3691   3.412  10.396  10.639
32163W        W 3692  10.801  15.122   0.382
32164W        W 3693   8.548  44.846  10.234
32165W        W 3694  16.259  13.656   3.555
32166W        W 3695  12.213  29.405  13.944
32167W        W 3696   3.884  40.222   2.247
32168W        W 3697  43.288  40.597  11.825
32169W        W 3698   1.006   5.401  11.388
32170W        W 3699  33.419  35.057   0.944
32171W        W 3700   7.905  31.057   3.709
32172W        W 3701  34.131  14.293  14.432
32173W        W 3702  27.170  27.254  11.495
32174W        W 3703  36.484   4.102  13.784
32175W        W 3704  17.069  27.615   2.695
32176W        W 3705  37.172  28.124   1.280
32177W        W 3706  38.976  41.257   0.708
32178W        W 3707  16.054  17.146  11.596
32179W        W 3708  33.383  21.699   3.074
32180W        W 3709  38.570  36.098   5.075
32181W        W 3710  13.152  23.120   3.207
32182W        W 3711  14.718  16.105  11.538
32183W        W 3712  35.917  41.754   1.795
32184W        W 3713  21.533  41.220  12.544
32185W        W 3714   8.610  36.542  11.931
32186W        W 3715  36.899  26.086   4.034
32187W        W 3716  24.738  14.588   1.346
32188W        W 3717  11.544  23.139  11.568
32189W        W 3718  38.532   9.425  11.191
32190W        W 3719   9.260  23.520   0.249
32191W        W 3720  12.776  44.610   2.959
32192W        W 3721  26.730  31.691  12.044
32193W        W 3722  25.698  27.498  10.687
32194W        W 3723  11.016  43.189   2.954
32195W        W 3724  26.246  36.936  14.461
32196W        W 3725  13.249   0.276  14.923
32197W        W 3726  23.493  17.655   0.472
32198W        W 3727  42.376  17.558  10.574
32199W        W 3728  38.957  25.446  11.134
32200W        W 3729  41.041  38.107   2.631
32201W        W 3730  30.135  17.335   4.330
32202W        W 3731  37.103  27.959  11.913
32203W        W 3732  26.108  29.977  10.653
32204W        W 3733  19.280   9.388  14.947
32205W        W 3734  18.730  17.563   1.469
32206W        W 3735  21.854  19.565  10.756
32207W        W 3736  22.958  11.759  11.207
32208W        W 3737  14.903  41.010   0.447
32209W        W 3738  34.479  39.916  10.857
32210W        W 3739  13.500  38.921  13.328
32211W        W 3740  25.805  30.359   4.806
32212W        W 3741  18.718  29.029  14.035
32213W        W 3742  25.148  16.947  11.439
32214W        W 3743   4.400   6.754   4.234
32215W        W 3744  32.185  34.800   2.176
32216W        W 3745  39.521   3.793  13.304
32217W        W 3746   4.431  10.032   4.148
32218W        W 3747  12.687  42.047   0.471
32219W        W 3748   5.732  19.593  14.887
32220W        W 3749   4.112   8.004   2.300
32221W        W 3750  19.195  20.990   0.400
32222W        W 3751   0.259  37.579   1.754
32223W        W 3752  33.865   7.494   2.680
32224W        W 3753  30.432   8.132   4.266
32225W        W 3754  17.919  17.945   3.706
32226W        W 3755   8.927  10.091  10.333
32227W        W 3756  29.239  29.658   1.774
32228W        W 3757  25.992  15.219   2.220
32229W        W 3758   2.361  36.008  12.467
32230W        W 3759  31.889   1.424  10.723
32231W        W 3760  42.340  12.152  12.445
32232W        W 3761  29.565  37.589  10.659
32233W        W 3762  31.626  13.758  14.843
32234W        W 3763   1.367  34.344   0.132
32235W        W 3764  31.007  44.732   2.352
32236W        W 3765  39.765  16.156  13.015
32237W        W 3766  12.740  32.957  12.478
32238W        W 3767   4.275  15.450   3.217
32239W        W 3768   6.868  28.178   0.492
32240W        W 3769  40.423  15.858   0.707
32241W        W 3770   9.408   5.247   2.960
32242W        W 3771  12.272  18.954  12.684
32243W        W 3772  27.570  28.243  11.447
32244W        W 3773  13.242  24.593   2.301
32245W        W 3774  31.499   4.737   0.269
32246W        W 3775   0.723  27.191   4.116
32247W        W 3776   2.176  22.583   0.139
32248W        W 3777  33.303  34.752   1.349
32249W        W 3778  21.559  34.356   3.159
32250W        W 3779  32.907  27.408   0.350
32251W        W 3780  27.559   6.353   3.886
32252W        W 3781  41.387  35.883   1.241
32253W        W 3782  14.595  41.247  14.811
32254W        W 3783  24.334  32.034  13.655
32255W        W 3784  10.800   5.670  14.305
32256W        W 3785  23.633  43.974   1.075
32257W        W 3786   3.843  15.192  13.351
32258W        W 3787   8.495  16.686  11.946
32259W        W 3788  25.721  25.539  12.139
32260W        W 3789  44.534  24.188   1.839
32261W        W 3790  20.237  14.130   1.453
32262W        W 3791   8.911   6.433   4.662
32263W        W 3792  18.102  18.880  11.898
32264W        W 3793  41.708  13.017   3.140
32265W        W 3794  35.016  28.689  14.257
32266W        W 3795  43.738   4.764  12.425
32267W        W 3796  27.270  40.767  13.969
32268W        W 3797  15.062  18.662   4.898
32269W        W 3798  23.615  35.633   0.219
32270W        W 3799   7.259  16.772  13.757
32271W        W 3800  36.396   0.956   0.301
32272W        W 3801  31.372  22.448   3.234
32273W        W 3802  26.208   1.723  11.436
32274W        W 3803  25.238  37.892   1.769
32275W        W 3804  40.258  39.370   4.306
32276W        W 3805  35.569  31.553  10.818
32277W        W 3806  39.077   2.907   1.568
32278W        W 3807  18.338  27.170   1.813
32279W        W 3808   9.320  15.153  14.466
32280W        W 3809   4.672   7.691  12.999
32281W        W 3810  38.767  32.456  11.750
32282W        W 3811   4.282  27.479   5.086
32283W        W 3812   1.659  41.777  12.464
32284W        W 3813  18.719  10.685   0.782
32285W        W 3814  22.125  12.245   3.063
32286W        W 3815  26.151  29.213   4.171
32287W        W 3816  21.682   1.307  10.361
32288W        W 3817  16.062   3.995   1.313
32289W        W 3818  24.887  17.723   3.709
32290W        W 3819   8.523  34.732  12.797
32291W        W 3820  18.865   9.453   3.392
32292W        W 3821  21.626   7.438  13.496
32293W        W 3822  24.424  21.080   3.645
32294W        W 3823   0.419  11.320  14.470
32295W        W 3824  29.983  35.059   5.242
32296W        W 3825  34.038  17.812  13.804
32297W        W 3826  12.010   9.879  14.417
32298W        W 3827  26.613  29.421  11.886
32299W        W 3828  17.179  42.240  12.005
32300W        W 3829  36.175  38.806   2.354
32301W        W 3830  20.212  25.521  10.690
32302W        W 3831  40.012   1.399   1.276
32303W        W 3832   0.945   1.118  11.150
32304W        W 3833  14.799  24.627  13.298
32305W        W 3834  40.290   6.697   0.171
32306W        W 3835  22.654  32.933  12.524
32307W        W 3836   3.307  14.389  12.499
32308W        W 3837  17.301   7.198   1.049
32309W        W 3838  15.139   3.131   2.475
32310W        W 3839  22.933   4.144   1.312
32311W        W 3840  19.250  32.559  13.065
32312W        W 3841   0.808  12.521  10.210
32313W        W 3842  19.192   9.902  14.977
32314W        W 3843  36.445  18.817   0.357
32315W        W 3844  24.888  42.021   3.794
32316W        W 3845  31.963  36.619   3.244
32317W        W 3846  15.657  39.259  10.234
32318W        W 3847  18.797  11.323  14.595
32319W        W 3848  14.631  35.426  13.918
32320W        W 3849  27.364  28.631  10.813
32321W        W 3850   6.735  28.398  11.492
32322W        W 3851  19.514  38.144  13.900
32323W        W 3852  43.784  10.105  12.459
32324W        W 3853  43.404   4.367   0.367
32325W        W 3854  27.587  17.263  13.605
32326W        W 3855   0.049   7.423   3.338
32327W        W 3856  14.332  36.223   1.184
32328W        W 3857  14.852  25.113  13.072
32329W        W 3858  29.099   3.977   2.945
32330W        W 3859  25.170  18.225  11.993
32331W        W 3860  26.703  40.279  11.620
32332W        W 3861  15.625  29.939   1.233
32333W        W 3862  39.137   3.381   1.212
32334W        W 3863  13.725  32.035   5.220
32335W        W 3864  18.068   9.321  13.260
32336W        W 3865  34.691  21.688  11.041
32337W        W 3866  33.497   3.876   4.572
32338W        W 3867  38.479  36.664   1.146
32339W        W 3868   0.975   5.391  11.912
32340W        W 3869  13.680  36.562   1.860
32341W        W 3870  27.229  10.325   1.007
32342W        W 3871  15.159  44.514   1.354
32343W        W 3872  21.198  37.641  13.948
32344W        W 3873  39.196  24.465  14.248
32345W        W 3874  30.196   0.025   0.456
32346W        W 3875   8.321  17.218  13.546
32347W        W 3876  36.082   0.007  11.127
32348W        W 3877  34.991  13.927  14.823
32349W        W 3878  36.590   8.966  10.979
32350W        W 3879  21.852   2.427  12.475
32351W        W 3880  35.018   4.934  11.135
32352W        W 3881   1.731  20.548  10.689
32353W        W 3882  24.575  35.640   3.699
32354W        W 3883  29.152   5.284   0.293
32355W        W 3884  10.853  37.293  11.879
32356W        W 3885  25.216  26.009  13.877
32357W        W 3886  44.359  25.134  14.775
32358W        W 3887  14.230  40.565  14.343
32359W        W 3888  17.115   8.432   2.830
32360W        W 3889  29.700  28.587   2.150
32361W        W 3890  41.029  40.867   0.495
32362W        W 3891  31.115  21.990  11.623
32363W        W 3892  33.134  32.005  10.668
32364W        W 3893   2.955  28.139   1.368
32365W        W 3894   6.085  11.213  11.996
32366W        W 3895  11.835  21.054   3.406
32367W        W 3896   3.319  44.148  14.879
32368W        W 3897  43.992  14.663  14.766
32369W        W 3898  15.795  35.613  13.246
32370W        W 3899  18.306   6.420   3.310
32371W        W 3900  14.209   3.969  14.442
32372W        W 3901  35.561   2.924  14.491
32373W        W 3902  42.732  11.663   3.461
32374W        W 3903   9.120  24.004  13.907
32375W        W 3904  25.261   8.360  11.238
32376W        W 3905  28.661  31.851   3.119
32377W        W 3906  42.219  24.681  13.622
32378W        W 3907  19.838  10.217  12.536
32379W        W 3908  32.078  44.030   4.548
32380W        W 3909  16.265  24.505  12.076
32381W        W 3910  35.126  13.730  13.182
32382W        W 3911   2.802  17.254  12.417
32383W        W 3912  11.779  40.356   0.057
32384W        W 3913  16.271  37.608   0.317
32385W        W 3914  16.295  10.290   3.644
32386W        W 3915  21.202   5.602  10.813
32387W        W 3916  11.176   2.414   4.341
32388W        W 3917  14.130  40.043   1.333
32389W        W 3918   2.186  40.469   0.721
32390W        W 3919  44.451   1.859  12.732
32391W        W 3920   5.953  15.242  14.329
32392W        W 3921  21.650  42.485   1.060
32393W        W 3922  33.071  19.648  12.892
32394W        W 3923   9.194  36.071   0.338
32395W        W 3924  14.222  21.704   3.542
32396W        W 3925  23.772  20.684  14.547
32397W        W 3926   0.232  44.001   3.675
32398W        W 3927   9.838  15.142  14.436
32399W        W 3928  43.897  14.712  13.900
32400W        W 3929  31.058  35.056  11.144
32401W        W 3930  43.828  15.086   0.472
32402W        W 3931  19.491   7.610   1.379
32403W        W 3932  15.750  18.033  12.454
32404W        W 3933   8.218  34.084  10.770
32405W        W 3934  26.400  33.479   0.911
32406W        W 3935  22.018  11.776   4.165
32407W        W 3936   8.366  14.706  10.932
32408W        W 3937  44.424  12.912   2.628
32409W        W 3938  27.830  13.008   0.103
32410W        W 3939   9.415  20.467   2.942
32411W        W 3940  12.686  12.131   2.350
32412W        W 3941  27.674  37.034  14.272
32413W        W 3942  38.047  10.444   3.638
32414W        W 3943   4.932  30.662  11.832
32415W        W 3944  33.916  41.576  14.884
32416W        W 3945  11.261   4.214  10.759
32417W        W 3946  30.592  32.915  14.329
32418W        W 3947   0.166   8.917   5.090
32419W        W 3948  23.234  32.847   1.266
32420W        W 3949   1.824   5.443  12.833
32421W        W 3950  10.681  41.559  11.151
32422W        W 3951  11.618  25.183  10.701
32423W        W 3952   7.757  17.416   2.218
32424W        W 3953  25.551   4.211   2.369
32425W        W 3954   1.798  12.083  12.535
32426W        W 3955  30.147  40.400  11.940
32427W        W 3956  25.758  18.085   1.767
32428W        W 3957  37.445   1.778   4.234
32429W        W 3958  26.917  25.565  14.408
32430W        W 3959  34.430  43.057   3.768
32431W        W 3960  33.569   8.258  12.779
32432W        W 3961  10.185  20.640  11.957
32433W        W 3962   3.830  32.164   1.802
32434W        W 3963  38.808  35.930  13.424
32435W        W 3964  44.602  34.485   5.156
32436W        W 3965  38.067   4.855   1.128
32437W        W 3966  19.913  33.666   4.092
32438W        W 3967   0.506   9.145   4.044
32439W        W 3968  19.921  11.170  11.911
32440W        W 3969  30.145   9.292   4.658
32441W        W 3970  32.957   3.421   2.948
32442W        W 3971  26.954  31.872  11.176
32443W        W 3972   9.144  19.129   4.720
32444W        W 3973  22.565  27.205   0.831
32445W        W 3974  30.726   6.966  14.364
32446W        W 3975   2.908  10.856   3.733
32447W        W 3976  28.754  30.044   0.781
32448W        W 3977  14.809   3.936   2.150
32449W        W 3978  43.964   6.657   0.947
32450W        W 3979   0.132  38.044   1.950
32451W        W 3980  13.131  13.915  11.145
32452W        W 3981  19.673   0.152   3.263
32453W        W 3982  23.753  43.276  14.366
32454W        W 3983   6.332  14.003   9.970
32455W        W 3984   9.636   7.600   2.212
32456W        W 3985  34.015  34.529   0.003
32457W        W 3986  29.142  14.125   3.719
32458W        W 3987  11.334   0.283   0.190
32459W        W 3988  29.107  36.117   4.505
32460W        W 3989  38.052  20.295   0.285
32461W        W 3990  29.737  31.651   2.279
32462W        W 3991   3.395   0.770   2.625
32463W        W 3992  26.122  42.017  11.689
32464W        W 3993   6.531  28.264   3.686
32465W        W 3994  33.404  36.173   2.349
32466W        W 3995   4.257  25.555   4.181
32467W        W 3996  30.166  16.699   1.863
32468W        W 3997  37.178  39.373   0.474
32469W        W 3998  42.457  32.489   3.629
32470W        W 3999   9.283  30.949  10.567
32471W        W 4000   1.188  36.483  13.935
32472W        W 4001   4.767  16.114   3.651
32473W        W 4002   6.897   2.996   2.217
32474W        W 4003  13.363   4.321   1.268
32475W        W 4004  22.701  43.824   3.926
32476W        W 4005   0.526  11.270  13.929
32477W        W 4006  20.904   7.357   2.909
32478W        W 4007  40.037  34.349  10.338
32479W        W 4008  19.145  27.641   0.762
32480W        W 4009  34.400   3.149  12.280
32481W        W 4010  10.173  38.688   4.338
32482W        W 4011  14.063  44.135  11.903
32483W        W 4012   6.698  26.211   4.631
32484W        W 4013  42.492  38.822   3.863
32485W        W 4014  43.250  26.129  11.598
32486W        W 4015   8.713   9.428   0.358
32487W        W 4016  33.957  12.841  13.115
32488W        W 4017  16.680  23.044   5.067
32489W        W 4018  17.265  24.989   2.352
32490W        W 4019  21.110  23.905   4.526
32491W        W 4020   6.870  25.672  11.443
32492W        W 4021   6.327  15.111  12.072
32493W        W 4022  42.881  27.178  13.352
32494W        W 4023   2.462  34.986   1.849
32495W        W 4024  44.598  22.508  14.471
32496W        W 4025   1.499  35.135  14.883
32497W        W 4026  36.197  11.069  14.449
32498W        W 4027  33.036  39.618  10.359
32499W        W 4028  41.788  29.196   1.704
32500W        W 4029   4.365  11.517  11.633
32501W        W 4030  43.152  14.287   0.448
32502W        W 4031  19.595  33.626   1.776
32503W        W 4032  28.580  32.346  13.982
32504W        W 4033  43.546  40.115   2.756
32505W        W 4034  35.627   5.848   3.153
32506W        W 4035  30.387  43.162  11.831
32507W        W 4036  22.756   8.277  13.326
32508W        W 4037   5.429  11.645   1.698
32509W        W 4038  37.031  33.864  11.065
32510W        W 4039  12.590   5.189  14.858
32511W        W 4040  41.792  37.440   2.968
32512W        W 4041  22.724  26.164   1.705
32513W        W 4042  29.401   4.979  14.454
32514W        W 4043  20.258  27.804   0.871
32515W        W 4044  40.956  26.570  13.865
32516W        W 4045  40.251  38.065   3.918
32517W        W 4046  27.020  34.633  10.540
32518W        W 4047  43.587  18.731  11.753
32519W        W 4048  27.374  13.798   3.134
32520W        W 4049  20.403  35.116  12.972
32521W        W 4050  30.739  34.563   5.271
32522W        W 4051  21.836   0.855   4.760
32523W        W 4052  28.883  28.163   1.283
32524W        W 4053  12.134  37.160  12.574
32525W        W 4054  30.862  14.144   2.857
32526W        W 4055  17.834  14.213  14.412
32527W        W 4056  23.945  42.845  12.260
32528W        W 4057  21.554  27.155   2.807
32529W        W 4058  18.266  41.765   4.759
32530W        W 4059   6.055   3.476  13.325
32531W        W 4060  13.535  32.073   4.750
32532W        W 4061   8.779  41.751   3.732
32533W        W 4062   2.873  43.195  11.980
32534W        W 4063  40.903  12.195  12.520
32535W        W 4064  14.056   3.612   3.327
32536W        W 4065  31.706  34.009  12.846
32537W        W 4066   1.947   1.166  11.974
32538W        W 4067  31.415  18.654  12.649
32539W        W 4068  40.248  27.806  14.880
32540W        W 4069  34.025  34.436   3.165
32541W        W 4070  12.113   8.368   1.196
32542W        W 4071  35.864  19.684   1.292
32543W        W 4072   6.797  19.790   0.552
32544W        W 4073  21.312  14.043  10.659
32545W        W 4074   8.265  32.613  13.014
32546W        W 4075  28.416   3.946   1.345
32547W        W 4076  22.893  41.365  12.350
32548W        W 4077   4.629  28.951  13.108
32549W        W 4078  14.337  34.306  10.585
32550W        W 4079  14.851  11.939  11.175
32551W        W 4080  27.499  22.059  11.354
32552W        W 4081   2.690  25.256   3.686
32553W        W 4082   4.874   9.082  14.246
32554W        W 4083   5.634  19.209   3.689
32555W        W 4084  20.623  35.370  12.459
32556W        W 4085  31.581   0.264  12.968
32557W        W 4086  23.456  42.368   4.109
32558W        W 4087  34.086  26.886   2.941
32559W        W 4088  24.565   5.206   3.865
32560W        W 4089  31.541  11.145  11.219
32561W        W 4090  16.112  41.476   0.595
32562W        W 4091  32.180  15.588  11.463
32563W        W 4092  13.580  22.206  11.127
32564W        W 4093  40.460   7.858   3.295
32565W        W 4094  33.074  28.605  12.491
32566W        W 4095  32.421  32.406  12.337
32567W        W 4096  28.252   2.863   4.702
32568W        W 4097  43.917  18.763   1.452
32569W        W 4098  30.484  31.861  14.484
32570W        W 4099  27.623  38.594  12.181
32571W        W 4100  14.627  10.089   2.133
32572W        W 4101  28.096  34.288   2.248
32573W        W 4102  19.106  40.860  10.425
32574W        W 4103   2.849  44.183   4.762
32575W        W 4104  20.268  10.941   3.689
32576W        W 4105  33.941  13.875   0.823
32577W        W 4106  14.428  43.456   3.192
32578W        W 4107  15.583   1.430  14.420
32579W        W 4108  15.710  11.766  10.391
32580W        W 4109  13.155  28.335   2.809
32581W        W 4110   2.666  27.765   0.408
32582W        W 4111  32.712  28.679  11.990
32583W        W 4112  39.009   4.793   1.282
32584W        W 4113  40.297   8.770  11.767
32585W        W 4114   1.104  24.492   4.158
32586W        W 4115  30.957  35.562   0.947
32587W        W 4116  34.386   0.377  10.944
32588W        W 4117   3.888  20.550   1.762
32589W        W 4118  41.164  28.190  12.986
32590W        W 4119  42.986  11.895   0.336
32591W        W 4120  14.787  18.693   1.977
32592W        W 4121  29.182  32.349   2.421
32593W        W 4122  25.086   0.520  11.755
32594W        W 4123  34.146  12.902   4.210
32595W        W 4124  29.009  24.729  10.305
32596W        W 4125  10.134  33.008   2.874
32597W        W 4126  43.740  13.078  11.279
32598W        W 4127  31.322  22.192   2.783
32599W        W 4128   0.330  21.269  13.411
32600W        W 4129   3.525  33.232   0.231
32601W        W 4130  10.225  36.152   0.311
32602W        W 4131  24.729  25.470   2.379
32603W        W 4132  33.961  16.088   1.472
32604W        W 4133  20.780  29.042   1.780
32605W        W 4134  32.488   8.824  14.557
32606W        W 4135   9.311  21.597  11.699
32607W        W 4136  41.533  12.764  11.678
32608W        W 4137  33.471  16.183   1.426
32609W        W 4138   3.027   6.651   4.137
32610W        W 4139  17.045  11.265  13.846
32611W        W 4140  31.517  31.477   3.363
32612W        W 4141  23.791  16.354   2.721
32613W        W 4142  16.921   1.780  10.835
32614W        W 4143  26.457  38.726   4.084
32615W        W 4144  12.789  43.958  13.845
32616W        W 4145   1.516  37.010  11.194
32617W        W 4146   5.221  14.240  11.142
32618W        W 4147  17.792  21.224  12.346
32619W        W 4148  39.023   4.512  10.725
32620W        W 4149  22.010   2.246   1.678
32621W        W 4150   5.414  38.276   4.094
32622W        W 4151   2.806   7.269   2.349
32623W        W 4152  37.125   0.785  14.185
32624W        W 4153  44.705  13.959   0.385
32625W        W 4154   5.447  16.652   4.018
32626W        W 4155  15.056  21.727   2.779
32627W        W 4156  14.239   2.245  11.008
32628W        W 4157  20.302  26.252   2.235
32629W        W 4158   0.482   4.841   3.962
32630W        W 4159  22.544  23.884  12.432
32631W        W 4160  24.686  33.779   2.361
32632W        W 4161  40.370  37.406  11.632
32633W        W 4162  15.697  33.525  10.646
32634W        W 4163  33.205  10.641   4.062
32635W        W 4164  25.742   5.772  10.802
32636W        W 4165  41.792  25.510  11.202
32637W        W 4166  37.803  34.565   0.373
32638W        W 4167  26.011  31.944   3.699
32639W        W 4168  27.931  44.237  13.894
32640W        W 4169  23.338  16.618   3.771
32641W        W 4170  18.009  42.418   4.641
32642W        W 4171  22.685  35.298  12.443
32643W        W 4172  18.554  29.180   1.295
32644W        W 4173  28.742  27.534   4.728
32645W        W 4174   5.822   9.247   2.934
32646W        W 4175  21.737  16.036   2.109
32647W        W 4176  33.611   9.731   0.272
32648W        W 4177   6.302  28.130   0.823
32649W        W 4178  16.180  43.399   1.250
32650W        W 4179  31.590  29.075   3.741
32651W        W 4180  29.466  15.808   0.487
32652W        W 4181  42.997  13.289  11.927
32653W        W 4182   1.830  17.327  10.897
32654W        W 4183   8.764  11.859   0.330
32655W        W 4184  32.385  24.037  14.020
32656W        W 4185  21.635  42.413  14.401
32657W        W 4186  26.878  30.673  14.081
32658W        W 4187   2.200   9.322   3.392
32659W        W 4188  19.323  13.684  12.492
32660W        W 4189  44.453   9.872  12.500
32661W        W 4190   0.885  14.438   3.292
32662W        W 4191  24.925  12.258  14.330
32663W        W 4192  17.901  30.497  14.371
32664W        W 4193  39.317  29.548   3.521
32665W        W 4194  40.165  22.007  11.606
32666W        W 4195  34.802   4.845  10.625
32667W        W 4196  24.715  35.355  14.793
32668W        W 4197  16.333   7.702  13.472
32669W        W 4198   9.268  39.315   3.260
32670W        W 4199  19.696  11.398  10.655
32671W        W 4200   6.479  35.557   1.760
32672W        W 4201   5.931  21.500  14.179
32673W        W 4202  33.348  18.233  14.946
32674W        W 4203  13.486  40.397  13.707
32675W        W 4204  18.657  14.515   4.122
32676W        W 4205   3.264   3.913   3.979
32677W        W 4206  20.328  41.940   3.285
32678W        W 4207  12.856  11.860   4.540
32679W        W 4208   8.364   2.660  11.295
32680W        W 4209  38.950   0.878   4.548
32681W        W 4210  10.073   9.868  11.775
32682W        W 4211  16.000  27.216   0.829
32683W        W 4212  31.447  24.636   3.601
32684W        W 4213  19.701  14.679  12.959
32685W        W 4214  27.350  27.133   3.844
32686W        W 4215   9.873   2.911   1.576
32687W        W 4216  21.851  40.353  14.811
32688W        W 4217  30.341   1.959  13.502
32689W        W 4218  10.755  38.838  12.656
32690W        W 4219  15.012   0.872  13.356
32691W        W 4220  16.860   5.324   1.459
32692W        W 4221  40.424   0.949  10.802
32693W        W 4222  25.808  30.601  12.899
32694W        W 4223  30.622  37.920   0.018
32695W        W 4224  13.094  17.266   3.815
32696W        W 4225  28.513   8.741   2.738
32697W        W 4226  38.718  42.894   5.058
32698W        W 4227   3.910  39.758  10.661
32699W        W 4228   3.740  36.044   3.691
32700W        W 4229  43.913   0.339  12.188
32701W        W 4230   1.873  10.896   4.744
32702W        W 4231  37.748  44.879  11.101
32703W        W 4232  29.074  12.847   0.227
32704W        W 4233  26.691  13.425   4.594
32705W        W 4234  37.534  28.028  11.653
32706W        W 4235  34.576  40.834  10.777
32707W        W 4236   3.385   5.714  10.812
32708W        W 4237  20.211   3.991   3.422
32709W        W 4238  35.467   4.714  11.174
32710W        W 4239  18.228   1.226  13.258
32711W        W 4240  11.735  13.473  12.580
32712W        W 4241  16.554  18.205  11.373
32713W        W 4242  12.291  31.412  14.023
32714W        W 4243  32.097  16.751   0.669
32715W        W 4244  43.470   3.825   1.598
32716W        W 4245  20.686   8.477  14.006
32717W        W 4246  38.584  15.795  13.442
32718W        W 4247  12.108  23.525  10.997
32719W        W 4248  21.078   3.335   4.878
32720W        W 4249   8.619  39.892  14.827
32721W        W 4250  13.079  21.791  12.686
32722W        W 4251  23.668  10.146   0.369
32723W        W 4252   0.367  20.339   0.231
32724W        W 4253   0.390  43.440  11.676
32725W        W 4254  31.909  12.160   3.756
32726W        W 4255   9.565  11.663  10.527
32727W        W 4256  37.119  34.219   2.978
32728W        W 4257   9.560  22.003  13.329
32729W        W 4258  19.148  10.712   1.861
32730W        W 4259  34.840  18.223   2.354
32731W        W 4260  27.047  38.286   0.669
32732W        W 4261  29.012  40.627   4.191
32733W        W 4262  23.510  43.522  13.975
32734W        W 4263  43.507  25.519   2.896
32735W        W 4264  17.600   8.409   1.910
32736W        W 4265  36.085  38.989  11.564
32737W        W 4266  33.559  30.623  13.086
32738W        W 4267  13.885  13.570  14.905
32739W        W 4268  30.342  23.161   2.764
32740W        W 4269  41.067  11.805   3.758
32741W        W 4270   6.759   4.014   2.337
32742W        W 4271  38.010  40.294  12.506
32743W        W 4272  41.854  35.584   3.216
32744W        W 4273  38.323  10.892  10.711
32745W        W 4274  10.618  41.031  11.915
32746W        W 4275  20.278   6.720  14.813
32747W        W 4276  28.204  12.392   2.793
32748W        W 4277  35.851   4.894   1.663
32749W        W 4278  41.273  15.833  12.986
32750W        W 4279  22.368   3.017   4.552
32751W        W 4280  10.625   3.183   2.193
32752W        W 4281  10.852  16.026  12.367
32753W        W 4282  26.503  19.557  13.954
32754W        W 4283  14.905  44.615   4.545
32755W        W 4284  38.763   3.828   1.903
32756W        W 4285  23.803  24.479  13.236
32757W        W 4286   6.142  14.780   3.322
32758W        W 4287  11.989  29.618   1.775
32759W        W 4288  34.582  39.044  11.774
32760W        W 4289  10.856  18.046   2.883
32761W        W 4290  36.716  15.162   2.729
32762W        W 4291  38.854  14.671  12.017
32763W        W 4292  13.301  34.843  14.250
32764W        W 4293  22.378  19.353  11.475
32765W        W 4294   0.556  38.562  11.438
32766W        W 4295   6.608  11.228  14.374
32767W        W 4296  16.836  16.923   0.867
32768W        W 4297   7.258  39.307  11.643
32769W        W 4298  22.686  22.215  10.844
32770W        W 4299  34.377  11.834   1.569
32771W        W 4300  37.119   0.056   4.155
32772W        W 4301  26.504   5.311  14.689
32773W        W 4302   1.009  31.400   4.750
32774W        W 4303  26.123  40.500  14.854
32775W        W 4304  21.908   2.899  14.934
32776W        W 4305  25.854  44.377   2.984
32777W        W 4306  31.393  24.686  10.281
32778W        W 4307  14.272  23.380  14.379
32779W        W 4308   0.887  20.530  12.498
32780W        W 4309  43.322  24.699   1.238
32781W        W 4310  19.075  24.647   4.120
32782W        W 4311   6.180   6.968  11.646
32783W        W 4312  35.415  16.509   3.175
32784W        W 4313  18.730  25.622   2.878
32785W        W 4314  20.212   2.660  12.510
32786W        W 4315  26.560  17.713  12.639
32787W        W 4316  29.551  23.907   0.887
32788W        W 4317   5.318  26.071  10.975
32789W        W 4318  24.708   1.367   4.404
32790W        W 4319   6.962  34.042   2.829
32791W        W 4320   7.036   0.775  11.245
32792W        W 4321  13.264  32.181  11.129
32793W        W 4322   9.150  14.369  10.993
32794W        W 4323  19.673  37.540   1.383
32795W        W 4324  40.489   5.457  13.837
32796W        W 4325  21.012  39.482   1.023
32797W        W 4326  32.015  23.255   0.999
32798W        W 4327  27.258   9.219   1.778
32799W        W 4328  21.644  27.372  11.108
32800W        W 4329   9.971   7.779   3.153
32801W        W 4330  21.617   4.717   1.002
32802W        W 4331   2.956   9.356  11.129
32803W        W 4332   2.893   5.321   4.095
32804W        W 4333  24.112  13.696   1.407
32805W        W 4334  10.643  38.644   1.270
32806W        W 4335  44.550  39.990  13.423
32807W        W 4336  31.666  20.265  14.936
32808W        W 4337  32.281   0.469   2.882
32809W        W 4338  26.200  28.186  10.688
32810W        W 4339  29.592  28.767  12.980
32811W        W 4340   6.305  42.317  11.222
32812W        W 4341  25.785  11.562   2.893
32813W        W 4342  10.870  15.150  12.306
32814W        W 4343  38.764  18.493   2.840
32815W        W 4344  23.689  31.130  14.216
32816W        W 4345  31.817  27.119   1.274
32817W        W 4346  22.095   3.701   4.088
32818W        W 4347  17.394  15.992  10.256
32819W        W 4348   5.088  40.085  14.397
32820W        W 4349  35.280  27.158   1.382
32821W        W 4350  29.287  36.864  13.460
32822W        W 4351  37.108  31.413  14.444
32823W        W 4352  40.918  44.103  11.255
32824W        W 4353   8.614   1.412   2.274
32825W        W 4354  21.730  14.562   1.590
32826W        W 4355  12.282   4.327  11.455
32827W        W 4356  35.851   4.270  13.125
32828W        W 4357   2.893  15.170  13.536
32829W        W 4358  10.323   5.987  11.048
32830W        W 4359  12.745   4.911   0.916
32831W        W 4360  41.310  37.569   4.583
32832W        W 4361  44.142  41.409  11.219
32833W        W 4362  33.487  23.665   2.635
32834W        W 4363  13.643  10.664   3.652
32835W        W 4364  22.458   4.163   0.014
32836W        W 4365   1.345  15.232  12.687
32837W        W 4366  19.288  24.566  12.825
32838W        W 4367  16.276  16.297   2.900
32839W        W 4368  37.917  42.359  13.479
32840W        W 4369  31.774  22.431  14.392
32841W        W 4370  15.233  19.057  10.633
32842W        W 4371  33.077  17.284   0.696
32843W        W 4372   3.225  42.893   3.671
32844W        W 4373   6.311  29.796   3.722
32845W        W 4374  13.125  43.763   1.270
32846W        W 4375  12.749  30.212  14.028
32847W        W 4376   2.266  38.786   2.257
32848W        W 4377  42.009  34.881   2.693
32849W        W 4378  12.201  23.491  14.097
32850W        W 4379   9.323  14.686  14.721
32851W        W 4380   4.934  32.682   3.793
32852W        W 4381  38.086  42.020  14.854
32853W        W 4382  22.201   3.861   2.684
32854W        W 4383  21.986   6.455   0.841
32855W        W 4384  28.924  43.201   1.057
32856W        W 4385   1.570  18.590   0.452
32857W        W 4386  32.148  12.095   2.322
32858W        W 4387   4.711  43.979  11.531
32859W        W 4388   1.999  15.764  12.930
32860W        W 4389  24.367  30.693  11.819
32861W        W 4390  42.761   3.762   2.353
32862W        W 4391  44.750  39.412  13.455
32863W        W 4392  30.639  42.057   3.820
32864W        W 4393  33.625   7.812  14.161
32865W        W 4394  22.282  15.208  10.525
32866W        W 4395  12.727  20.120   3.151
32867W        W 4396   3.990   8.459  12.652
32868W        W 4397   6.793  10.433  12.861
32869W        W 4398   2.018  34.244   1.413
32870W        W 4399  23.303   1.016  13.341
32871W        W 4400  44.816  29.498  12.848
32872W        W 4401  14.619   3.131  13.336
32873W        W 4402  33.643  22.587  13.859
32874W        W 4403  34.580  23.770   1.875
32875W        W 4404  36.367  26.554   2.722
32876W        W 4405  31.542  31.553  13.289
32877W        W 4406  26.105  30.831   0.647
32878W        W 4407   6.868  43.287   3.551
32879W        W 4408  17.588   3.218  14.939
32880W        W 4409  24.592  27.177   2.832
32881W        W 4410  43.330  39.995   0.177
32882W        W 4411  14.804  10.610  12.061
32883W        W 4412  44.372  44.370   4.536
32884W        W 4413  23.543   1.501  12.585
32885W        W 4414   0.045   3.318  11.156
32886W        W 4415  26.261  22.967  11.197
32887W        W 4416   4.298   1.367  13.373
32888W        W 4417  31.952  21.022   0.289
32889W        W 4418  39.760  43.399   2.309
32890W        W 4419  35.562   7.254  11.119
32891W        W 4420  31.644  36.832   2.372
32892W        W 4421  33.669  37.082   2.346
32893W        W 4422  25.500  36.685  14.474
32894W        W 4423  31.578   1.515   2.310
32895W        W 4424  28.621  37.452  13.868
32896W        W 4425  28.483  13.609   3.996
32897W        W 4426   4.354  19.146   2.205
32898W        W 4427   2.660  26.520  14.876
32899W        W 4428   8.453  32.436  14.310
32900W        W 4429  14.323  19.466   0.937
32901W        W 4430  12.766  35.942   4.365
32902W        W 4431  27.746   5.394  14.069
32903W        W 4432  34.633  15.568   0.365
32904W        W 4433  23.544   8.735   1.823
32905W        W 4434  42.187   0.950  13.563
32906W        W 4435  13.055  21.617   2.794
32907W        W 4436  12.317  35.414  10.676
32908W        W 4437   8.558  32.437   4.672
32909W        W 4438   8.407  40.085  13.141
32910W        W 4439  11.653  23.774  10.731
32911W        W 4440  33.062  17.064   1.172
32912W        W 4441  14.636  17.250   2.705
32913W        W 4442   9.652  41.835   2.210
32914W        W 4443   9.879  30.143  14.292
32915W        W 4444  34.331   2.639  14.892
32916W        W 4445  21.621  21.164  12.985
32917W        W 4446  42.717  41.879   2.204
32918W        W 4447   3.159  29.960   0.767
32919W        W 4448  10.668  28.416   2.692
32920W        W 4449   0.549   1.983   0.277
32921W        W 4450   8.722  37.825  13.503
32922W        W 4451  14.295  10.769  12.244
32923W        W 4452  29.054  42.810  11.994
32924W        W 4453  24.170  24.995   0.750
32925W        W 4454  35.861   2.212   0.336
32926W        W 4455  44.462  42.098   4.628
32927W        W 4456  26.711  35.910   0.856
32928W        W 4457  11.598  41.063   2.718
32929W        W 4458  43.717   5.211  10.677
32930W        W 4459  31.025   3.179  13.884
32931W        W 4460  10.175  16.177  13.593
32932W        W 4461  17.950  21.630   3.111
32933W        W 4462  29.593  35.641  10.692
32934W        W 4463   9.457  26.564   1.296
32935W        W 4464  21.549  29.495   2.732
32936W        W 4465  38.366  39.277  11.185
32937W        W 4466  24.476  43.051  10.900
32938W        W 4467   4.485  37.016   3.307
32939W        W 4468  36.991  37.071  11.538
32940W        W 4469  28.917  40.398  14.511
32941W        W 4470  10.150  13.705   1.677
32942W        W 4471  38.431   5.237   1.080
32943W        W 4472  44.952  23.286   0.978
32944W        W 4473   7.106  27.104  11.779
32945W        W 4474   6.230  35.967  10.326
32946W        W 4475  33.051  18.099  11.892
32947W        W 4476  37.670   1.252   4.587
32948W        W 4477  19.443  15.604  14.803
32949W        W 4478  22.657  34.643  13.430
32950W        W 4479   7.634  17.724   3.719
32951W        W 4480  11.360  39.493   3.527
32952W        W 4481   6.495  12.653   2.852
32953W        W 4482   7.641   9.142   1.895
32954W        W 4483  43.890  35.029  13.417
32955W        W 4484  40.622   7.082  14.903
32956W        W 4485  19.107  44.401  11.717
32957W        W 4486   3.705  17.727   4.907
32958W        W 4487   0.151  32.610   2.940
32959W        W 4488  38.801  44.048   4.965
32960W        W 4489  22.981   4.341  13.373
32961W        W 4490   1.839  33.930  14.832
32962W        W 4491  27.085  25.635  11.692
32963W        W 4492  38.543  19.829  11.967
32964W        W 4493  41.067  39.761  12.104
32965W        W 4494  26.581   1.633   2.766
32966W        W 4495  42.416   3.669   4.457
32967W        W 4496  18.072  24.015  10.932
32968W        W 4497  14.581  16.001   0.343
32969W        W 4498   1.268  28.951  14.999
32970W        W 4499  37.535  33.656   4.488
32971W        W 4500  24.501  16.074  14.293
32972W        W 4501  11.222   3.434  12.346
32973W        W 4502  15.786  13.313  14.684
32974W        W 4503   6.523  33.611   0.341
32975W        W 4504   8.334   5.687  14.279
32976W        W 4505   3.228   0.714  13.356
32977W        W 4506  23.606  13.653  11.946
32978W        W 4507  12.319  17.774   3.281
32979W        W 4508  38.840  43.569   0.394
32980W        W 4509  12.149  40.410   2.305
32981W        W 4510  43.544   7.314   0.444
32982W        W 4511  43.867  32.545  12.626
32983W        W 4512   5.905   4.473   0.273
32984W        W 4513   6.648  44.345   1.812
32985W        W 4514  25.311  36.401   3.682
32986W        W 4515  21.113  18.668  10.588
32987W        W 4516  21.199  13.572  14.205
32988W        W 4517  17.760  42.404  14.946
32989W        W 4518  40.552  29.526   2.323
32990W        W 4519   9.600   9.535   1.242
32991W        W 4520  30.338   6.753   0.803
32992W        W 4521  39.407   5.810  12.646
32993W        W 4522  30.083  11.555  12.913
32994W        W 4523  15.243   2.611   2.422
32995W        W 4524  10.251  21.360  13.484
32996W        W 4525   8.122  15.191  11.618
32997W        W 4526  34.989  28.941   0.574
32998W        W 4527  13.231  23.469   2.414
32999W        W 4528  11.580  43.015   4.731
33000W        W 4529  37.428  34.293   3.688
33001W        W 4530  42.736  15.716  11.163
33002W        W 4531   6.739  15.338  12.970
33003W        W 4532  10.337  10.718  13.112
33004W        W 4533  42.535  26.295   2.620
33005W        W 4534  27.738  11.318  13.971
33006W        W 4535  40.167  20.998   0.366
33007W        W 4536  17.153  16.742   0.484
33008W        W 4537   2.289   1.416   2.268
33009W        W 4538  11.785  35.047   4.090
33010W        W 4539  44.998  32.161  13.917
33011W        W 4540   5.809   9.675  13.047
33012W        W 4541  27.943  40.358  14.924
33013W        W 4542  37.891  37.284  13.502
33014W        W 4543   4.897   0.120   4.728
33015W        W 4544  25.486  33.695   4.357
33016W        W 4545  38.559  34.538  10.503
33017W        W 4546  20.796  43.279   4.550
33018W        W 4547  33.136  40.960   3.726
33019W        W 4548   2.274   3.739  10.392
33020W        W 4549  33.309  26.960   2.413
33021W        W 4550  24.729  44.054   1.317
33022W        W 4551  34.863  36.380   0.761
33023W        W 4552  43.630  43.189   3.588
33024W        W 4553  10.832  14.106   0.333
33025W        W 4554  32.959  20.276  10.857
33026W        W 4555  39.858  42.125   4.764
33027W        W 4556  33.590  10.852  14.775
33028W        W 4557  18.744   8.216   2.204
33029W        W 4558  19.790   8.419   1.663
33030W        W 4559  31.497  31.199   4.728
33031W        W 4560  24.500  18.524  13.034
33032W        W 4561   0.631  37.520  11.666
33033W        W 4562  11.656  44.212   0.973
33034W        W 4563  15.705  34.080  10.607
33035W        W 4564  42.383   0.273   3.725
33036W        W 4565  39.559  34.906   1.661
33037W        W 4566  25.473  39.467  13.293
33038W        W 4567  19.528  18.531   0.257
33039W        W 4568  30.119  30.587   3.284
33040W        W 4569  22.523  31.396  12.599
33041W        W 4570  21.297  17.029   1.252
33042W        W 4571  13.447  28.243  12.421
33043W        W 4572  18.614  37.495   1.917
33044W        W 4573   2.493  39.220  11.397
33045W        W 4574  11.218  32.037   0.301
33046W        W 4575   5.250  31.890  13.392
33047W        W 4576  29.019   7.436  13.145
33048W        W 4577   4.368  11.124   1.764
33049W        W 4578  44.662  16.164   0.406
33050W        W 4579   8.812   1.215   1.820
33051W        W 4580  32.632  26.403   1.846
33052W        W 4581  35.340  22.454  10.775
33053W        W 4582  35.540  32.967  12.146
33054W        W 4583  18.870   0.499   2.928
33055W        W 4584  44.885  19.988   3.213
33056W        W 4585  22.231  42.905   1.373
33057W        W 4586  11.112  21.209   0.688
33058W        W 4587  18.957  17.651  13.123
33059W        W 4588  29.345   1.733  14.376
33060W        W 4589   4.423  12.144  10.756
33061W        W 4590   0.971  15.338  10.736
33062W        W 4591  16.449  19.512   4.040
33063W        W 4592  22.244  28.051   3.136
33064W        W 4593  39.531   5.175  11.868
33065W        W 4594  43.527  44.722  13.098
33066W        W 4595  42.745   3.281  14.937
33067W        W 4596  13.620  38.381   4.550
33068W        W 4597  41.972  28.080   0.791
33069W        W 4598  26.007  37.656  14.512
33070W        W 4599  10.808   8.567   3.075
33071W        W 4600   4.440  43.738  13.060
33072W        W 4601   1.969  14.215   2.743
33073W        W 4602  20.721  40.888  12.473
33074W        W 4603   0.367  28.084   3.452
33075W        W 4604   2.846  39.937   4.853
33076W        W 4605  38.583   7.559   3.725
33077W        W 4606  31.250  21.638  12.885
33078W        W 4607   0.194  40.504   1.583
33079W        W 4608  22.053  42.114  10.574
33080W        W 4609   5.773  29.471  13.292
33081W        W 4610  17.554  26.744  14.751
33082W        W 4611  35.453   1.040  14.142
33083W        W 4612  19.537   4.419  13.554
33084W        W 4613  15.315   8.763   3.739
33085W        W 4614  11.424  12.425  13.745
33086W        W 4615  16.323  15.780  14.015
33087W        W 4616  25.438   3.623   1.494
33088W        W 4617  29.277   3.397   2.323
33089W        W 4618  40.338  38.513  11.224
33090W        W 4619  31.795  19.184  11.996
33091W        W 4620  40.871  18.033  12.920
33092W        W 4621  43.756  25.755   0.277
33093W        W 4622  15.623  33.141   4.325
33094W        W 4623   6.841  32.953   2.890
33095W        W 4624  43.717  15.630  10.975
33096W        W 4625  30.845  22.685  12.165
33097W        W 4626   7.651  31.665  10.739
33098W        W 4627  33.119   3.748  14.511
33099W        W 4628   2.237  29.604   4.775
33100W        W 4629  29.253  33.407  14.407
33101W        W 4630   9.920  43.254  10.673
33102W        W 4631  17.588  37.082   0.273
33103W        W 4632  19.144  25.389  13.641
33104W        W 4633  27.560  27.284  11.102
33105W        W 4634  33.790  16.753  14.705
33106W        W 4635  11.623  27.185   3.125
33107W        W 4636  19.884  36.914  13.416
33108W        W 4637  16.152   4.127  14.324
33109W        W 4638  29.418  33.566   2.795
33110W        W 4639   2.023  23.555  12.560
33111W        W 4640  17.984   4.194  12.928
33112W        W 4641  39.577   1.815   0.541
33113W        W 4642  24.096   9.391   0.658
33114W        W 4643  14.257  27.703  12.172
33115W        W 4644  23.100  22.569   2.407
33116W        W 4645  13.896  16.286   2.699
33117W        W 4646   9.869   7.742  11.103
33118W        W 4647  41.924  44.512  12.560
33119W        W 4648   0.842  17.633   1.925
33120W        W 4649   5.669  34.657  11.397
33121W        W 4650   6.854  16.754  12.004
33122W        W 4651   5.742  17.138   3.937
33123W        W 4652  40.316  40.413   2.893
33124W        W 4653  28.422  33.786   3.113
33125W        W 4654  22.607  43.374  10.574
33126W        W 4655  12.786  32.650   4.949
33127W        W 4656  28.081  36.121   3.171
33128W        W 4657  35.286  29.480   1.539
33129W        W 4658  19.501   9.324   0.923
33130W        W 4659  36.937  18.201   1.259
33131W        W 4660   3.005  25.195  12.045
33132W        W 4661  36.369   6.311  14.893
33133W        W 4662  16.158  21.630   3.134
33134W        W 4663  38.428  28.770  11.991
33135W        W 4664   4.767  14.157   3.251
33136W        W 4665   0.820  25.755   3.312
33137W        W 4666  33.797  20.467   3.476
33138W        W 4667  32.551   7.718   3.252
33139W        W 4668  44.850  21.258   0.727
33140W        W 4669   4.413   6.577  11.184
33141W        W 4670  43.779   2.058   1.841
33142W        W 4671  28.241  12.814  12.489
33143W        W 4672  39.104   3.358  13.444
33144W        W 4673  43.296  33.842   2.213
33145W        W 4674   9.278  17.275   3.777
33146W        W 4675  36.174  19.311   2.192
33147W        W 4676  11.863   3.032   5.105
33148W        W 4677  25.675  23.751  11.120
33149W        W 4678  36.479   7.061   1.710
33150W        W 4679  30.463  24.584  14.382
33151W        W 4680  16.866  37.359  11.473
33152W        W 4681  18.529  37.410  13.717
33153W        W 4682  18.048  33.474  13.449
33154W        W 4683  35.142  40.899  10.794
33155W        W 4684  24.317  36.675  14.737
33156W        W 4685  31.314  27.022  10.813
33157W        W 4686   5.495  32.322  13.020
33158W        W 4687  10.253  39.443   0.747
33159W        W 4688   8.745  44.069   4.230
33160W        W 4689  10.264  24.464   3.865
33161W        W 4690  39.471   4.790  10.708
33162W        W 4691  24.914  19.640  12.942
33163W        W 4692  20.569  19.514  11.118
33164W        W 4693  25.428   1.285   1.348
33165W        W 4694  44.469  22.590   9.754
33166W        W 4695  11.798  40.395   3.617
33167W        W 4696  22.614  16.575  11.188
33168W        W 4697  20.650  34.558   1.642
33169W        W 4698   3.358  21.837   4.871
33170W        W 4699  18.027  32.136   3.262
33171W        W 4700  36.184  44.312  11.575
33172W        W 4701  11.231  37.576  11.659
33173W        W 4702  40.564  43.719   2.136
33174W        W 4703  10.137  32.666  13.498
33175W        W 4704  25.371  44.171  11.619
33176W        W 4705  35.262  15.066  13.496
33177W        W 4706  40.044  37.018  14.483
33178W        W 4707  20.857  14.795  13.512
33179W        W 4708  40.586  17.871   0.483
33180W        W 4709  19.679  26.039   1.802
33181W        W 4710  32.864   1.896   2.256
33182W        W 4711  20.980  27.580  10.585
33183W        W 4712  15.743  25.162   4.178
33184W        W 4713   0.797  20.500  14.965
33185W        W 4714  20.535  18.992  11.211
33186W        W 4715  41.354  36.497  11.130
33187W        W 4716  30.978  21.696  13.325
33188W        W 4717  32.447  24.694   0.331
33189W        W 4718  38.550  39.556   3.697
33190W        W 4719  27.901   5.695  11.468
33191W        W 4720   1.189  28.947  11.237
33192W        W 4721   2.893  42.834  14.823
33193W        W 4722  34.498  28.162   3.568
33194W        W 4723  40.128  44.449   4.251
33195W        W 4724  27.085  23.943  13.933
33196W        W 4725   1.875   3.292  12.592
33197W        W 4726  13.311  24.731  12.800
33198W        W 4727  13.161  21.242   0.465
33199W        W 4728  27.750   7.932  14.048
33200W        W 4729  22.352  39.756  11.629
33201W        W 4730  33.489  44.306   3.285
33202W        W 4731  23.394   7.425  12.351
33203W        W 4732  38.549  40.468  13.552
33204W        W 4733   4.046  17.558  11.286
33205W        W 4734  42.026  36.767  11.579
33206W        W 4735  18.786  39.177   0.494
33207W        W 4736  42.350  30.653  12.943
33208W        W 4737  23.941  42.389  12.036
33209W        W 4738  44.896  10.864   4.122
33210W        W 4739   8.425   0.698   3.103
33211W        W 4740  23.010   7.779  10.302
33212W        W 4741   1.629   6.826  11.457
33213W        W 4742  32.061  27.387  11.082
33214W        W 4743  19.281  12.495  10.814
33215W        W 4744  12.207   0.312   0.547
33216W        W 4745  27.541   5.812   2.594
33217W        W 4746  16.876  39.533   3.697
33218W        W 4747  19.101  38.140  14.414
33219W        W 4748   6.747  40.897   4.869
33220W        W 4749   8.289  39.312   4.926
33221W        W 4750  12.110  41.201   4.891
33222W        W 4751  28.000  30.108   2.947
33223W        W 4752  33.903  11.040   1.353
33224W        W 4753  22.227  36.160  11.123
33225W        W 4754  12.102   1.088   2.666
33226W        W 4755   5.957  15.836  11.626
33227W        W 4756   7.269  31.117  10.624
33228W        W 4757  13.321  19.247   3.231
33229W        W 4758  41.796  16.331   0.319
33230W        W 4759   9.592  22.937   1.578
33231W        W 4760   7.728   4.314   1.241
33232W        W 4761  11.200   6.128   1.436
33233W        W 4762  14.170  34.948   4.694
33234W        W 4763  17.814   6.963   4.544
33235W        W 4764  28.685  29.408   4.670
33236W        W 4765  20.004  41.502   4.556
33237W        W 4766  14.867   3.046  14.889
33238W        W 4767  16.488  23.239  13.507
33239W        W 4768  31.894  34.882   0.209
33240W        W 4769  32.083  20.814   0.782
33241W        W 4770  23.532  33.543  14.472
33242W        W 4771  27.968  41.116   3.832
33243W        W 4772  16.760   7.750   2.798
33244W        W 4773  39.285  23.157  13.034
33245W        W 4774  20.249  12.222   2.400
33246W        W 4775  12.840  44.425  14.977
33247W        W 4776  39.217  18.712   2.920
33248W        W 4777  42.688   8.871  11.240
33249W        W 4778  16.728  40.145   4.298
33250W        W 4779   1.696  33.850   1.306
33251W        W 4780  34.098  32.010  10.754
33252W        W 4781  16.860  30.922   2.742
33253W        W 4782  34.019  16.717   0.492
33254W        W 4783  12.895  18.256  13.146
33255W        W 4784  38.886  10.179  10.657
33256W        W 4785  15.115  15.023   4.005
33257W        W 4786   5.341  16.128   3.788
33258W        W 4787  40.869  42.386  14.368
33259W        W 4788  12.437  42.886  10.195
33260W        W 4789  19.106  22.154  10.580
33261W        W 4790  16.662  14.615   2.895
33262W        W 4791  26.600   5.938   2.802
33263W        W 4792   2.338  37.074   3.995
33264W        W 4793  30.160  10.871   1.867
33265W        W 4794  16.861   2.927  13.292
33266W        W 4795  32.131  18.126  12.867
33267W        W 4796  35.131  42.884   4.072
33268W        W 4797   2.268  16.403  11.494
33269W        W 4798  34.204   7.852   3.571
33270W        W 4799   7.685  19.083  14.740
33271W        W 4800  14.824  16.412   0.517
33272W        W 4801  40.280  38.785  10.414
33273W        W 4802   0.796   0.980  13.524
33274W        W 4803   4.210  22.561   1.183
33275W        W 4804  36.517   1.161  11.333
33276W        W 4805  29.121   9.774   3.042
33277W        W 4806  27.086  37.973   3.754
33278W        W 4807  31.961   9.298  11.215
33279W        W 4808   9.308   2.848   0.761
33280W        W 4809  43.589  32.387   1.290
33281W        W 4810  23.518  39.753   1.127
33282W        W 4811   1.904   9.174  12.175
33283W        W 4812  44.518  36.992  14.409
33284W        W 4813  12.393  15.892  10.923
33285W        W 4814  14.359  11.606  12.013
33286W        W 4815   9.153  38.569   0.252
33287W        W 4816  44.992   0.218   1.686
33288W        W 4817  30.193  22.102  13.840
33289W        W 4818   6.952  42.892  14.890
33290W        W 4819  14.616  33.252  13.502
33291W        W 4820   4.413  28.535   1.861
33292W        W 4821  27.338  35.075   3.764
33293W        W 4822   3.733  24.067  10.531
33294W        W 4823  38.016  23.720  12.291
33295W        W 4824  26.234  32.653   1.865
33296W        W 4825  13.060  11.100  10.711
33297W        W 4826   6.974  22.986  10.726
33298W        W 4827  11.250   1.746  14.812
33299W        W 4828  41.815  20.233   3.442
33300W        W 4829  44.366  33.433  10.862
33301W        W 4830  39.423  16.563  11.880
33302W        W 4831  14.644  26.209   0.690
33303W        W 4832   0.798  14.195   1.859
33304W        W 4833  40.066  39.782  14.242
33305W        W 4834  35.651  35.488  11.935
33306W        W 4835  23.635  44.501   2.625
33307W        W 4836  11.591   2.669   1.718
33308W        W 4837  30.128   3.950   4.363
33309W        W 4838  39.858   6.826   3.719
33310W        W 4839  12.828  12.254   3.241
33311W        W 4840  28.595  40.283   2.383
33312W        W 4841   0.585  19.261  12.420
33313W        W 4842  10.395  43.866   3.184
33314W        W 4843  44.419  11.807  10.372
33315W        W 4844   8.919  24.795  11.992
33316W        W 4845  18.288  31.917   3.672
33317W        W 4846  22.271   3.039   3.202
33318W        W 4847  14.418   8.155  10.803
33319W        W 4848  25.566   8.450  13.376
33320W        W 4849  30.102  20.267  10.802
33321W        W 4850  37.540  25.039  12.313
33322W        W 4851  22.605  39.717   1.392
33323W        W 4852   6.976  14.439   3.184
33324W        W 4853  13.334   5.312   3.285
33325W        W 4854  25.008  10.194  13.561
33326W        W 4855   0.983  34.627   3.741
33327W        W 4856   0.684   7.729  14.369
33328W        W 4857  17.151  10.396  12.306
33329W        W 4858  28.254  29.379   0.874
33330W        W 4859   7.915  37.302   4.185
33331W        W 4860   6.360  14.388   1.193
33332W        W 4861  35.599  21.707  12.101
33333W        W 4862  22.233  42.553  14.374
33334W        W 4863   2.375  36.829  11.389
33335W        W 4864  38.419  23.840  12.646
33336W        W 4865  40.806  41.206   3.071
33337W        W 4866  23.556   4.340   2.364
33338W        W 4867  44.435  12.797   3.678
33339W        W 4868  41.854   8.505  12.353
33340W        W 4869  31.075  42.902  12.883
33341W        W 4870  18.286  35.807   1.290
33342W        W 4871  20.238  32.036   4.125
33343W        W 4872  16.106  24.660  14.724
33344W        W 4873  36.844  23.207  12.027
33345W        W 4874  15.792  13.704   2.849
33346W        W 4875  23.265  13.687  13.914
33347W        W 4876  42.937  36.076   3.279
33348W        W 4877  36.996  41.934  14.099
33349W        W 4878   5.455  12.757  13.872
33350W        W 4879   3.248  38.938   2.381
33351W        W 4880   7.664  18.676   2.702
33352W        W 4881  36.006  25.848  14.395
33353W        W 4882  36.773  35.008  13.912
33354W        W 4883   7.417  10.825  14.816
33355W        W 4884   7.387   4.133   4.048
33356W        W 4885  40.280  29.482   0.060
33357W        W 4886  36.841  33.331   1.871
33358W        W 4887   5.654   1.191   4.590
33359W        W 4888  38.753  17.524  13.419
33360W        W 4889   1.973  39.350  10.651
33361W        W 4890  34.937  29.165  12.547
33362W        W 4891  38.019   3.967   4.164
33363W        W 4892  26.681  26.471  13.392
33364W        W 4893  17.739   4.741  12.069
33365W        W 4894  37.173  36.580  14.341
33366W        W 4895  32.788  37.643  14.229
33367W        W 4896   1.399  19.987   1.079
33368W        W 4897  23.259  23.250  14.931
33369W        W 4898  31.824  41.591  12.465
33370W        W 4899  12.248  19.239  11.877
33371W        W 4900  18.736   2.974   4.188
33372W        W 4901   1.341  14.756   1.187
33373W        W 4902  17.737  16.083   1.904
33374W        W 4903  38.996  17.257  14.695
33375W        W 4904  19.332   4.332  10.809
33376W        W 4905  15.555  20.779   1.375
33377W        W 4906   3.069   4.539   3.005
33378W        W 4907  13.177  15.984   2.338
33379W        W 4908  18.037  40.413  13.493
33380W        W 4909  22.936   0.508   1.700
33381W        W 4910  27.458  20.178   4.082
33382W        W 4911  15.158  38.422  10.645
33383W        W 4912  38.573  33.473  14.484
33384W        W 4913  37.362  22.350   1.245
33385W        W 4914  12.242  31.019   3.605
33386W        W 4915  37.532  19.507   4.112
33387W        W 4916   3.317  33.884  12.617
33388W        W 4917  30.680  21.479  13.737
33389W        W 4918  38.538  27.249   2.390
33390W        W 4919  35.625   8.228  13.399
33391W        W 4920  14.969  25.142   3.234
33392W        W 4921   9.835   9.220   3.338
33393W        W 4922  29.711  15.717  13.764
33394W        W 4923  40.510  29.188   0.487
33395W        W 4924  44.458  11.786  12.022
33396W        W 4925  27.356  31.176   4.692
33397W        W 4926  11.430   7.658  14.327
33398W        W 4927  20.910  28.038  14.273
33399W        W 4928  12.018   8.402  11.687
33400W        W 4929  25.963  30.095   4.019
33401W        W 4930  40.731  41.113   4.002
33402W        W 4931   9.751   2.475  11.194
33403W        W 4932  31.978  28.903  13.840
33404W        W 4933  41.942  43.812  13.053
33405W        W 4934  43.472  36.456  14.318
33406W        W 4935  30.587  25.477  12.904
33407W        W 4936  27.971  37.941  14.059
33408W        W 4937  11.144  31.735  13.005
33409W        W 4938  36.855  26.066   0.012
33410W        W 4939   4.994  36.858  11.115
33411W        W 4940  22.562  38.397   3.749
33412W        W 4941  44.288  16.784   2.900
33413W        W 4942  32.035  14.588   3.164
33414W        W 4943  21.133  43.913  12.964
33415W        W 4944  31.248  32.070  11.729
33416W        W 4945  34.139  16.495   0.018
33417W        W 4946  41.554  41.080   3.718
33418W        W 4947  27.362  19.688  12.478
33419W        W 4948  16.702  29.955  12.575
33420W        W 4949  34.109   0.279  11.860
33421W        W 4950   4.210   2.195   3.292
33422W        W 4951  14.229  20.130  13.810
33423W        W 4952  19.633  12.809  13.778
33424W        W 4953  41.176  13.552  10.601
33425W        W 4954  10.171  10.096   1.848
33426W        W 4955  12.433  14.182   4.514
33427W        W 4956   4.698   6.167   4.992
33428W        W 4957   9.007  22.737  13.811
33429W        W 4958   8.280   9.899  12.113
33430W        W 4959   5.121  23.628  14.912
33431W        W 4960  41.417  26.377   3.290
33432W        W 4961   6.641  30.068   2.479
33433W        W 4962  29.082  18.152   1.809
33434W        W 4963  33.388  36.455   1.235
33435W        W 4964   3.734  33.478   3.739
33436W        W 4965  23.186  12.274  13.517
33437W        W 4966  17.141   6.685   4.077
33438W        W 4967  25.219   1.812  10.560
33439W        W 4968   1.444  14.705   4.853
33440W        W 4969  12.645   6.903   1.004
33441W        W 4970  20.805   8.831  11.769
33442W        W 4971  26.495  37.946   1.160
33443W        W 4972  29.538  44.061   5.116
33444W        W 4973  30.380  32.631   3.302
33445W        W 4974   8.241  13.380  11.894
33446W        W 4975  26.820   7.209   4.864
33447W        W 4976  37.314  40.391  10.574
33448W        W 4977  22.058  20.790  11.217
33449W        W 4978  44.728   2.650  11.607
33450W        W 4979  29.683  27.595  14.438
33451W        W 4980  34.748  22.694  13.461
33452W        W 4981  33.619   1.059  14.422
33453W        W 4982  37.634   0.237   0.299
33454W        W 4983  31.534  22.986  12.588
33455W        W 4984  19.032   1.563   4.106
33456W        W 4985  28.086  24.764   3.154
33457W        W 4986  37.788  38.530   0.766
33458W        W 4987  31.483   1.718   3.745
33459W        W 4988  11.136   0.633  10.247
33460W        W 4989  15.448  41.846   3.045
33461W        W 4990  10.061  22.657   0.819
33462W        W 4991   7.862   0.510  11.877
33463W        W 4992  10.782   3.561  12.605
33464W        W 4993  28.701  23.024  13.440
33465W        W 4994  20.651  13.404  14.442
33466W        W 4995   3.930  23.641   0.457
33467W        W 4996   0.167  27.146   2.804
33468W        W 4997  35.902   7.629  11.033
33469W        W 4998  39.368  43.511  14.045
33470W        W 4999  17.845  20.396   2.222
33471W        W 5000  38.423  22.337  11.972
33472W        W 5001  28.543  25.402   0.770
33473W        W 5002   4.123   0.801  11.756
33474W        W 5003  38.729   9.470  12.161
33475W        W 5004  26.600  40.327  10.380
33476W        W 5005   6.419  39.562  10.604
33477W        W 5006   9.502  12.908  12.397
33478W        W 5007  27.149  19.525   1.389
33479W        W 5008  37.266   6.987  13.834
33480W        W 5009   6.266  38.124   2.875
33481W        W 5010  39.553   2.476  11.250
33482W        W 5011  11.677  12.535   4.418
33483W        W 5012   5.028  25.952   4.153
33484W        W 5013  41.820  19.471  12.578
33485W        W 5014  13.901  12.045   1.691
33486W        W 5015  26.316   9.040   0.329
33487W        W 5016  32.208  16.183   4.787
33488W        W 5017  22.918   5.184  12.705
33489W        W 5018  34.106  28.117  12.092
33490W        W 5019  17.227  14.481   4.501
33491W        W 5020   1.734   7.811   2.290
33492W        W 5021  31.073  35.529  13.868
33493W        W 5022  18.668  28.909  10.734
33494W        W 5023  44.849  21.317   2.814
33495W        W 5024  14.171  33.933   3.576
33496W        W 5025  10.578  26.524   2.388
33497W        W 5026  14.766  11.459  12.290
33498W        W 5027  39.655   0.388  12.073
33499W        W 5028   9.913   7.866   3.653
33500W        W 5029  11.622  27.918  12.913
33501W        W 5030  44.037   1.799   2.818
33502W        W 5031   7.287  22.341  12.558
33503W        W 5032  18.089   4.455  13.385
33504W        W 5033  19.644  15.216  12.861
33505W        W 5034  16.168  12.723  10.588
33506W        W 5035  15.104   2.272  14.807
33507W        W 5036  25.904  11.764   2.037
33508W        W 5037  21.018  16.713  13.917
33509W        W 5038  28.567   1.485  14.872
33510W        W 5039  20.558  29.782  14.923
33511W        W 5040  34.056  42.140   3.747
33512W        W 5041  11.832  41.418   4.051
33513W        W 5042  10.593  11.348  12.799
33514W        W 5043  21.513  19.072   2.691
33515W        W 5044  37.091  15.699   1.891
33516W        W 5045   6.363  12.275   3.181
33517W        W 5046  17.637   5.782  13.053
33518W        W 5047  44.533  12.493  10.313
33519W        W 5048   8.616   4.796   0.347
33520W        W 5049  27.539  29.485  13.007
33521W        W 5050  22.817  44.279  12.409
33522W        W 5051  34.870  28.413   2.321
33523W        W 5052  30.920  11.252   3.366
33524W        W 5053  10.210  40.413   1.929
33525W        W 5054  19.200  30.959   1.829
33526W        W 5055  27.542  12.327  11.162
33527W        W 5056  18.275  24.976  13.743
33528W        W 5057  23.329  20.803  12.378
33529W        W 5058  21.702  24.571  14.402
33530W        W 5059   2.251  44.891   0.946
33531W        W 5060  36.857  44.277  13.394
33532W        W 5061   9.213  43.011  10.578
33533W        W 5062  28.673  23.590  14.726
33534W        W 5063   8.622  28.613   3.314
33535W        W 5064  37.822  19.209   1.647
33536W        W 5065  12.933  18.885   3.948
33537W        W 5066  37.202  35.577   2.628
33538W        W 5067  43.296   4.995   0.884
33539W        W 5068  24.214  37.554   4.810
33540W        W 5069  35.447  32.630   1.991
33541W        W 5070  10.502  21.674  13.808
33542W        W 5071  12.432  21.774  14.814
33543W        W 5072   0.925  26.330   1.151
33544W        W 5073  15.727  12.437   0.043
33545W        W 5074  26.115  38.045  13.289
33546W        W 5075  27.706  29.026  10.781
33547W        W 5076   0.200  27.248   4.179
33548W        W 5077  11.604  23.950   3.656
33549W        W 5078  28.470  14.843  13.272
33550W        W 5079  36.072  26.135  11.756
33551W        W 5080  39.888  21.940  13.949
33552W        W 5081   6.324  37.941   0.185
33553W        W 5082  30.698  13.411   1.557
33554W        W 5083  32.132  35.099  14.794
33555W        W 5084  19.563  16.430  12.413
33556W        W 5085   0.983   4.318  10.509
33557W        W 5086  35.432  39.784  11.556
33558W        W 5087   5.403  38.045   3.608
33559W        W 5088  43.119  22.658  14.311
33560W        W 5089  32.903  12.349  12.833
33561W        W 5090  12.150  41.620  14.523
33562W        W 5091  44.440  29.287  14.532
33563W        W 5092  22.093  11.334   3.917
33564W        W 5093  25.565  37.971   2.169
33565W        W 5094  43.911  34.562   3.770
33566W        W 5095  15.918  15.478  13.977
33567W        W 5096  21.007  12.658   2.340
33568W        W 5097  14.157  40.545   1.235
33569W        W 5098  15.318  36.483   4.001
33570W        W 5099  29.663   1.371  12.180
33571W        W 5100  13.591  28.529   1.913
33572W        W 5101  11.825   0.798   2.041
33573W        W 5102  29.586   1.709  12.573
33574W        W 5103  36.971  14.293   0.426
33575W        W 5104  35.357  40.954  13.494
33576W        W 5105  22.797   9.661  13.460
33577W        W 5106  43.539  36.003   3.682
33578W        W 5107  42.517  37.823   3.252
33579W        W 5108   6.092  18.621   0.859
33580W        W 5109  11.886  41.277   3.086
33581W        W 5110  19.818  33.060  11.444
33582W        W 5111  25.924  34.121  12.098
33583W        W 5112   5.789  42.781   1.151
33584W        W 5113  15.040  34.975   0.733
33585W        W 5114  21.423   1.773   0.780
33586W        W 5115  11.567  31.175   4.503
33587W        W 5116  24.658  36.914   4.199
33588W        W 5117  33.005  44.387   4.491
33589W        W 5118  20.101   0.401  11.186
33590W        W 5119  36.143  44.815  13.958
33591W        W 5120  14.215   9.275  13.337
33592W        W 5121  33.628  44.828   3.276
33593W        W 5122   8.661  35.663  14.016
33594W        W 5123  34.661  14.715  11.264
33595W        W 5124  15.528  26.432   3.112
33596W        W 5125   3.871  41.529   3.941
33597W        W 5126  32.059  42.491  11.684
33598W        W 5127  23.664  33.520  11.635
33599W        W 5128  42.468  23.740  14.507
33600W        W 5129   8.152  27.996  12.140
33601W        W 5130  42.302   5.660  13.844
33602W        W 5131   8.879  36.582  14.021
33603W        W 5132  34.491  27.724   4.860
33604W        W 5133  42.769   7.607   3.267
33605W        W 5134  12.792  36.158   1.590
33606W        W 5135  14.486   0.872   2.810
33607W        W 5136  33.933  19.845  10.736
33608W        W 5137  13.407  32.402   0.195
33609W        W 5138  28.681  26.549  14.506
33610W        W 5139   8.482  35.220   1.464
33611W        W 5140  15.274  18.619   1.797
33612W        W 5141  41.539  15.107  11.748
33613W        W 5142  14.856  36.053   2.305
33614W        W 5143  37.943  38.032   0.639
33615W        W 5144  27.608  27.359  13.768
33616W        W 5145  29.654  29.977   1.833
33617W        W 5146   5.970  10.649   3.842
33618W        W 5147  12.790  19.680  13.292
33619W        W 5148   5.693  44.896  11.951
33620W        W 5149   2.229  31.346   1.475
33621W        W 5150  23.333   0.014   4.886
33622W        W 5151  11.614  28.032   2.565
33623W        W 5152  41.029  21.853  11.104
33624W        W 5153  14.126  44.593  11.600
33625W        W 5154  17.495   4.344   2.855
33626W        W 5155  29.021  41.383   2.900
33627W        W 5156   5.634  21.000  11.616
33628W        W 5157  33.094  40.983  12.313
33629W        W 5158  16.285  25.104  10.936
33630W        W 5159  24.689  33.492   1.449
33631W        W 5160  23.728  11.410  13.253
33632W        W 5161   5.385   9.266  11.976
33633W        W 5162  27.501  20.697   4.954
33634W        W 5163  12.071  11.817   3.324
33635W        W 5164  35.661  38.372  12.122
33636W        W 5165  26.380  29.230  11.476
33637W        W 5166  10.732  36.865  12.152
33638W        W 5167   8.209   3.270   2.480
33639W        W 5168  27.137  23.279   2.288
33640W        W 5169  25.940  28.132   0.588
33641W        W 5170   1.398  35.918  14.414
33642W        W 5171  38.949  36.000   2.839
33643W        W 5172  23.650  35.435   3.376
33644W        W 5173  20.172  38.034  10.158
33645W        W 5174  38.858   1.242  11.209
33646W        W 5175  11.892   5.106  10.699
33647W        W 5176  20.582  18.412   0.877
33648W        W 5177   9.303  21.262  13.358
33649W        W 5178  21.327  35.953  11.115
33650W        W 5179  34.899  29.571  14.888
33651W        W 5180  32.086  34.789  13.480
33652W        W 5181  29.735   7.700  12.505
33653W        W 5182  10.503  12.752  13.345
33654W        W 5183  18.140  23.843  11.732
33655W        W 5184  34.578   9.199  11.204
33656W        W 5185  39.438  31.391   2.344
33657W        W 5186  13.541   8.301  13.809
33658W        W 5187  26.179  35.633  13.360
33659W        W 5188  37.569  20.757  10.549
33660W        W 5189   6.312  39.937  14.429
33661W        W 5190  42.461  24.227  13.606
33662W        W 5191  11.675  23.498   9.926
33663W        W 5192  36.674  42.661  14.834
33664W        W 5193  30.168  33.586  14.919
33665W        W 5194  29.558  43.618  13.022
33666W        W 5195  26.063  35.987  12.506
33667W        W 5196   7.708  14.207   0.451
33668W        W 5197  20.161  13.353   0.543
33669W        W 5198   0.886  12.743   2.864
33670W        W 5199  24.548   0.668  14.835
33671W        W 5200  44.096   0.220   4.064
33672W        W 5201   0.518  21.822  12.653
33673W        W 5202  39.309   8.947   2.792
33674W        W 5203   1.197  15.598  12.353
33675W        W 5204  35.603  19.294  11.927
33676W        W 5205  43.219   8.332   0.951
33677W        W 5206  38.010  33.778   4.166
33678W        W 5207   2.091  43.341   4.268
33679W        W 5208   8.435   3.067   1.256
33680W        W 5209  26.637   4.507  11.968
33681W        W 5210  26.963  37.602   4.524
33682W        W 5211  25.796   8.395   0.058
33683W        W 5212   5.768  28.536  10.503
33684W        W 5213  23.646   8.854  11.218
33685W        W 5214  22.287  29.687  13.388
33686W        W 5215  19.612   2.516  12.993
33687W        W 5216  23.188   8.079   3.656
33688W        W 5217   9.190  26.602  11.593
33689W        W 5218  10.713  31.293   1.467
33690W        W 5219   9.888  36.947   3.902
33691W        W 5220  23.949  25.325   2.661
33692W        W 5221  35.387  22.004   3.162
33693W        W 5222  37.094  29.367  14.482
33694W        W 5223  20.192  16.802  13.345
33695W        W 5224  10.210  27.785   3.679
33696W        W 5225   1.293  14.519   3.977
33697W        W 5226  25.577   6.867  13.717
33698W        W 5227  39.019  27.465  11.156
33699W        W 5228  40.715  43.289  10.762
33700W        W 5229  43.474  31.838   2.327
33701W        W 5230  34.024  41.926  13.297
33702W        W 5231  29.163  44.919   3.084
33703W        W 5232  35.844  30.889   0.546
33704W        W 5233  24.655  20.941  14.844
33705W        W 5234  12.804  21.042  12.880
33706W        W 5235  37.220  14.315  14.530
33707W        W 5236  19.259  44.423   4.740
33708W        W 5237  38.218  10.012  11.805
33709W        W 5238   0.245  20.969   0.926
33710W        W 5239  42.467  13.411  11.035
33711W        W 5240  28.422  20.899  13.961
33712W        W 5241  40.602  25.109   4.568
33713W        W 5242  29.952  20.305  13.425
33714W        W 5243  29.578  12.373   3.555
33715W        W 5244  42.022  30.616  12.473
33716W        W 5245   6.236  33.570  13.872
33717W        W 5246  32.639  42.177  12.244
33718W        W 5247  29.871   8.772  14.973
33719W        W 5248  36.394  33.073   3.182
33720W        W 5249   7.836  41.323  12.152
33721W        W 5250  38.418  10.071   4.617
33722W        W 5251  24.221   0.944   1.911
33723W        W 5252  11.832  20.227   0.128
33724W        W 5253  12.314   1.352  13.095
33725W        W 5254  25.630  21.002   2.533
33726W        W 5255  23.255   9.804  14.425
33727W        W 5256  16.012  16.352  11.004
33728W        W 5257  40.548  20.799   2.711
33729W        W 5258  10.862  38.565   1.760
33730W        W 5259  41.274  39.490  10.793
33731W        W 5260  36.462  39.548   1.879
33732W        W 5261  21.530   7.561  11.749
33733W        W 5262  11.717  26.790  14.563
33734W        W 5263  39.801  37.948   2.554
33735W        W 5264  18.260  15.075   3.431
33736W        W 5265  44.034  42.938   3.219
33737W        W 5266  43.936  44.302  11.428
33738W        W 5267  13.337   8.060  11.952
33739W        W 5268  18.723  18.778   2.903
33740W        W 5269  32.303  37.111  11.054
33741W        W 5270   4.833   1.051  14.799
33742W        W 5271  23.087  34.035  12.213
33743W        W 5272  29.422  18.105  10.607
33744W        W 5273  17.354   0.955  13.562
33745W        W 5274  27.551  33.671   2.581
33746W        W 5275  39.423  13.622  13.774
33747W        W 5276  25.189   2.345   0.291
33748W        W 5277  32.045  29.498  12.961
33749W        W 5278  11.545  40.051  13.921
33750W        W 5279  24.613  39.272  13.467
33751W        W 5280  18.618  40.883  14.834
33752W        W 5281   9.728  13.933   2.825
33753W        W 5282  24.780  26.373   3.125
33754W        W 5283  11.332  31.608   1.193
33755W        W 5284   8.254   3.780  11.519
33756W        W 5285   7.726  27.238   3.131
33757W        W 5286  17.609   4.697  13.387
33758W        W 5287  32.866   3.752  14.063
33759W        W 5288   4.965  18.011   4.107
33760W        W 5289  16.036  23.547  12.153
33761W        W 5290  31.484  23.736  11.594
33762W        W 5291  10.846  16.544  11.189
33763W        W 5292   6.531  12.696  11.214
33764W        W 5293   1.332  37.421   4.381
33765W        W 5294  21.964  16.497   2.286
33766W        W 5295  11.839  19.216   4.901
33767W        W 5296  15.202   6.951  11.054
33768W        W 5297  22.310  33.757  13.542
33769W        W 5298  43.747  22.506   3.600
33770W        W 5299   1.357  38.026   0.472
33771W        W 5300  35.871  31.570   1.390
33772W        W 5301  32.423   6.989  13.119
33773W        W 5302  11.494   3.393   2.011
33774W        W 5303  38.413  44.553   2.893
33775W        W 5304  14.163  40.943   3.259
33776W        W 5305  42.047   0.840  10.336
33777W        W 5306  22.944  41.393  11.846
33778W        W 5307  37.798  27.139   2.844
33779W        W 5308  28.589   2.464   4.596
33780W        W 5309   5.401  44.516   3.242
33781W        W 5310  37.521   4.695   2.834
33782W        W 5311  27.710  12.712   2.260
33783W        W 5312  12.058  23.781   4.420
33784W        W 5313  26.705   5.922   1.255
33785W        W 5314  22.296   6.501  12.954
33786W        W 5315  31.584  24.156  10.272
33787W        W 5316   4.237  26.920  11.669
33788W        W 5317   2.454  20.043   4.375
33789W        W 5318  31.452  24.312  13.896
33790W        W 5319  25.341  43.287  13.559
33791W        W 5320  28.900  28.624  14.952
33792W        W 5321  38.581  24.714  12.095
33793W        W 5322  37.021  44.340   1.972
33794W        W 5323  27.995  13.143  11.189
33795W        W 5324   0.316  36.085  11.004
33796W        W 5325   3.199  36.733  13.287
33797W        W 5326   7.675  21.973   4.139
33798W        W 5327  37.619  19.735   4.549
33799W        W 5328  11.374  16.240   4.756
33800W        W 5329  20.635  37.059  12.151
33801W        W 5330   2.576   1.896   1.222
33802W        W 5331   1.800  24.644  12.125
33803W        W 5332   5.896  36.888  12.368
33804W        W 5333  14.164  29.425   0.372
33805W        W 5334  13.611  39.119  12.865
33806W        W 5335  23.990  26.820  12.508
33807W        W 5336  19.776  21.140   3.207
33808W        W 5337  27.122  27.810  14.983
33809W        W 5338  11.853   3.690   4.571
33810W        W 5339  34.440  18.978   3.133
33811W        W 5340  43.704   6.702  10.755
33812W        W 5341  33.963  23.446   1.393
33813W        W 5342  19.614  32.546  12.637
33814W        W 5343  22.187  10.265  12.914
33815W        W 5344  27.082  42.736  12.674
33816W        W 5345  41.486   3.641   0.495
33817W        W 5346  40.070  23.674   1.383
33818W        W 5347  43.813  41.046   0.857
33819W        W 5348  34.723   6.360  11.650
33820W        W 5349   5.646  22.891  12.454
33821W        W 5350  27.943  25.227  12.006
33822W        W 5351  37.604  34.776   3.703
33823W        W 5352   2.523  43.959   1.700
33824W        W 5353  10.269   5.865   2.478
33825W        W 5354   9.793  31.530  11.536
33826W        W 5355  20.633  24.151  11.212
33827W        W 5356  32.683   1.791  10.714
33828W        W 5357  10.718  30.960  14.552
33829W        W 5358  35.508  16.524   0.068
33830W        W 5359   6.275  43.916  10.518
33831W        W 5360  41.899   3.720   0.829
33832W        W 5361  44.139  42.990  12.452
33833W        W 5362  16.512  41.932  14.818
33834W        W 5363  10.816  41.449   4.253
33835W        W 5364  37.017  11.388   1.388
33836W        W 5365  35.266  26.741   3.727
33837W        W 5366  32.876  25.504  14.460
33838W        W 5367  31.630  24.125  13.447
33839W        W 5368  19.099  17.670   3.148
33840W        W 5369  36.506  39.958   0.818
33841W        W 5370  29.585  29.051   3.651
33842W        W 5371  24.346  25.189  11.143
33843W        W 5372  43.866  32.169   2.312
33844W        W 5373  12.697   8.302  11.137
33845W        W 5374  22.989  27.110  12.323
33846W        W 5375   9.323  40.774  14.520
33847W        W 5376   0.847  30.170   2.326
33848W        W 5377  32.517   1.116  13.548
33849W        W 5378  41.247  25.543  12.114
33850W        W 5379   8.469  32.984   2.842
33851W        W 5380  27.310  23.655  12.091
33852W        W 5381  25.523  39.003  13.549
33853W        W 5382   8.197  41.986   4.966
33854W        W 5383  13.331  29.602   2.686
33855W        W 5384   1.031  23.377   3.000
33856W        W 5385   3.752  40.023   1.034
33857W        W 5386  10.129   1.985  11.029
33858W        W 5387  12.650  15.674   4.297
33859W        W 5388  26.084   0.473  12.069
33860W        W 5389  33.072  10.093  11.991
33861W        W 5390  16.542  11.398  10.653
33862W        W 5391  20.748  44.517   3.112
33863W        W 5392  18.457   3.951  12.939
33864W        W 5393  27.343  22.624  11.168
33865W        W 5394  42.020  35.327  12.839
33866W        W 5395  40.859  13.359   3.665
33867W        W 5396  40.830  38.873   3.262
33868W        W 5397  19.293  22.813   3.537
33869W        W 5398  14.075   4.414   1.919
33870W        W 5399  15.993  38.924   0.009
33871W        W 5400  22.366  15.184  12.515
33872W        W 5401  11.155  27.171   0.825
33873W        W 5402  17.147  43.828   3.337
33874W        W 5403  22.559  14.718   0.033
33875W        W 5404  40.898  20.557   3.732
33876W        W 5405   1.790  36.898   2.706
33877W        W 5406  11.173  15.632  13.425
33878W        W 5407  32.089   7.141   2.235
33879W        W 5408  44.903  13.665   2.719
33880W        W 5409   4.341  44.335   0.316
33881W        W 5410   6.716   6.231   2.695
33882W        W 5411  19.236  13.748  11.206
33883W        W 5412  21.601  12.138  11.064
33884W        W 5413  30.941  26.491  12.109
33885W        W 5414  31.891   3.691  11.254
33886W        W 5415  43.843  21.923  14.786
33887W        W 5416   6.791  33.553  12.236
33888W        W 5417  34.441   5.562  10.811
33889W        W 5418   1.699  10.806   1.841
33890W        W 5419  34.127  39.823   0.101
33891W        W 5420  36.516  43.610   2.461
33892W        W 5421  24.829  42.461  13.453
33893W        W 5422  44.915  17.671  12.992
33894W        W 5423  37.345  12.954   4.685
33895W        W 5424  39.305  24.377  13.074
33896W        W 5425  11.312  18.604   0.488
33897W        W 5426  41.035  34.516  10.541
33898W        W 5427  26.777  16.816  13.641
33899W        W 5428   4.863  16.622  11.529
33900W        W 5429  21.785   9.134   2.910
33901W        W 5430  14.872  11.416   3.183
33902W        W 5431  39.427  12.370  14.314
33903W        W 5432  25.513  32.095   4.254
33904W        W 5433  26.105   5.054  10.218
33905W        W 5434  22.190  37.004  10.677
33906W        W 5435  41.935  20.643   3.735
33907W        W 5436  32.467   3.900  10.564
33908W        W 5437   0.509  10.631   4.804
33909W        W 5438  19.843  15.869   1.247
33910W        W 5439  19.710  21.000   0.300
33911W        W 5440  41.579  25.698   1.485
33912W        W 5441  41.549  35.887   1.997
33913W        W 5442   0.832  44.291   4.643
33914W        W 5443  36.363  27.210   3.228
33915W        W 5444  26.228  37.805   3.281
33916W        W 5445  23.571  33.097   0.420
33917W        W 5446  36.575  33.151   0.234
33918W        W 5447  18.404   2.303   0.909
33919W        W 5448  26.012   8.732  12.036
33920W        W 5449   3.027  10.808   1.917
33921W        W 5450  26.056  22.094  10.666
33922W        W 5451  41.796   5.065  11.202
33923W        W 5452  42.964   1.618   1.424
33924W        W 5453  43.786   3.849   3.216
33925W        W 5454   1.948  42.590  11.587
33926W        W 5455  18.588   1.870   1.113
33927W        W 5456  42.892  31.476   4.574
33928W        W 5457  19.255  38.736   2.728
33929W        W 5458  19.169   1.813  14.479
33930W        W 5459  25.498  17.969   4.017
33931W        W 5460  14.521  25.956  12.376
33932W        W 5461  25.968  26.942  12.945
33933W        W 5462  31.916  24.545  10.210
33934W        W 5463  24.093  31.493  14.931
33935W        W 5464  24.992  42.944  13.298
33936W        W 5465  25.481  15.617  12.996
33937W        W 5466   2.791  38.929   0.468
33938W        W 5467   9.957   1.274   0.850
33939W        W 5468   6.585   1.816   2.829
33940W        W 5469   7.643  34.243  13.361
33941W        W 5470   8.809  30.248  13.511
33942W        W 5471  17.624  36.880  14.791
33943W        W 5472   0.354  33.693  14.711
33944W        W 5473  16.215  28.224  10.035
33945W        W 5474   1.819  23.210   3.330
33946W        W 5475  33.612  30.935  13.874
33947W        W 5476  36.089  10.315   4.708
33948W        W 5477  15.335  31.644   2.410
33949W        W 5478   2.988  42.925  14.319
33950W        W 5479  28.787   8.695  11.922
33951W        W 5480  33.179  22.765  14.416
33952W        W 5481  15.720   5.122  14.834
33953W        W 5482  34.818  39.755   2.730
33954W        W 5483  22.357  44.273   4.714
33955W        W 5484   9.258   9.083  14.789
33956W        W 5485  23.698  22.742   0.807
33957W        W 5486  42.382   4.521   3.225
33958W        W 5487  10.679  32.718  11.525
33959W        W 5488   6.943  19.794  11.712
33960W        W 5489  39.095  36.991   0.948
33961W        W 5490  16.370  11.483   1.700
33962W        W 5491  27.530  23.783  14.767
33963W        W 5492  13.874  13.221  14.111
33964W        W 5493  43.352  14.618  12.892
33965W        W 5494   7.800  29.221  10.641
33966W        W 5495  37.757   6.590   3.150
33967W        W 5496  42.510  36.102   4.568
33968W        W 5497  23.015  22.638  10.891
33969W        W 5498  23.211  23.952  13.045
33970W        W 5499  12.791   7.208   2.180
33971W        W 5500  18.981  18.711   4.192
33972W        W 5501   8.362  13.329   0.194
33973W        W 5502  26.590  37.301  13.925
33974W        W 5503  20.460   1.770  14.800
33975W        W 5504  39.426  40.413  13.902
33976W        W 5505   3.177  25.019   4.670
33977W        W 5506   0.032  36.804  11.079
33978W        W 5507  14.523  33.485   9.647
33979W        W 5508   8.231  12.374  12.031
33980W        W 5509  36.918  10.857   4.357
33981W        W 5510  37.066  11.292   4.108
33982W        W 5511  10.854  41.321  11.578
33983W        W 5512  33.564   9.290   3.897
33984W        W 5513   1.982  15.387  10.675
33985W        W 5514   2.243   8.337   3.621
33986W        W 5515  26.929  10.614  14.892
33987W        W 5516  39.290  10.885   2.838
33988W        W 5517   9.272  13.856  12.166
33989W        W 5518  15.406  40.940   0.286
33990W        W 5519  33.509  25.436   3.648
33991W        W 5520   7.701  17.139   2.704
33992W        W 5521  13.116  21.603  13.625
33993W        W 5522  31.515  17.576  10.829
33994W        W 5523  26.998  17.806  10.702
33995W        W 5524  12.304  39.324   3.110
33996W        W 5525   6.369  30.970  14.587
33997W        W 5526   9.859  35.147  12.754
33998W        W 5527  33.171   7.430   0.840
33999W        W 5528  22.321   6.843  10.703
34000W        W 5529  26.531  19.290  11.735
34001W        W 5530  32.834  16.877  10.642
34002W        W 5531   1.954  17.394   4.179
34003W        W 5532  13.388   2.302  10.565
34004W        W 5533  29.528   9.642   3.374
34005W        W 5534  37.226  33.589  13.267
34006W        W 5535  41.301  29.877   1.827
34007W        W 5536  43.023  19.577   2.856
34008W        W 5537  28.870  37.078  10.641
34009W        W 5538  18.396  39.817   3.855
34010W        W 5539  17.651   6.276   2.328
34011W        W 5540  21.831   8.223  12.999
34012W        W 5541  24.099   2.817   4.352
34013W        W 5542  24.056  40.629   5.033
34014W        W 5543  15.653  33.816  11.063
34015W        W 5544  27.348  17.603   0.839
34016W        W 5545  41.806  39.789   3.957
34017W        W 5546   3.005   3.285  10.973
34018W        W 5547  33.075  31.647   4.122
34019W        W 5548  37.382   6.812   0.191
34020W        W 5549   0.475   1.925   1.423
34021W        W 5550   2.246  16.587  14.510
34022W        W 5551  25.748   7.323   1.258
34023W        W 5552  37.699  42.446  13.975
34024W        W 5553  36.941  24.719   0.427
34025W        W 5554  27.100  31.091   4.231
34026W        W 5555   4.707   1.546  14.785
34027W        W 5556  42.773  19.569  11.891
34028W        W 5557  20.072  29.897   2.762
34029W        W 5558   3.337   5.009   2.966
34030W        W 5559  11.672  28.221   2.093
34031W        W 5560  24.859  38.266  11.005
34032W        W 5561  37.597  35.617  14.427
34033W        W 5562  31.002  12.668  14.996
34034W        W 5563  30.590  24.955   1.326
34035W        W 5564  17.658  37.836   5.197
34036W        W 5565  36.492  12.222   3.236
34037W        W 5566  23.777   9.448  13.525
34038W        W 5567  29.248  12.087  12.503
34039W        W 5568  28.378  28.021   1.219
34040W        W 5569  26.948  34.187   0.915
34041W        W 5570  27.646  26.610  14.341
34042W        W 5571  16.095  18.474   3.593
34043W        W 5572  16.653   2.694   2.361
34044W        W 5573  35.223  10.664   0.153
34045W        W 5574  19.720  10.300  10.235
34046W        W 5575  26.572  17.194  12.708
34047W        W 5576  26.890  42.690   5.274
34048W        W 5577  44.805  10.276  12.586
34049W        W 5578  11.831  24.445  11.608
34050W        W 5579  16.425  42.433  12.638
34051W        W 5580  22.957   1.594   5.215
34052W        W 5581  33.182  16.548   1.627
34053W        W 5582   7.318  27.455   3.358
34054W        W 5583  38.734  23.914   3.204
34055W        W 5584  33.449  32.564  13.844
34056W        W 5585  43.971  22.196   3.981
34057W        W 5586  16.533  11.655   3.200
34058W        W 5587  23.304  42.016   1.534
34059W        W 5588  10.814  18.425   1.453
34060W        W 5589   8.960  16.700   4.819
34061W        W 5590  35.588  31.698  11.601
34062W        W 5591   2.291  18.202  12.498
34063W        W 5592  44.336  27.667   3.161
34064W        W 5593  31.021  29.070   2.747
34065W        W 5594  18.273  32.087  11.500
34066W        W 5595  40.630   7.919   0.546
34067W        W 5596  41.864  40.004   4.421
34068W        W 5597  11.140  27.120  12.177
34069W        W 5598  22.498  13.047   2.169
34070W        W 5599  12.208  41.426   4.435
34071W        W 5600  26.458  22.038   3.100
34072W        W 5601  44.873   2.888   3.940
34073W        W 5602  44.756  32.552  10.766
34074W        W 5603  32.244  15.811  10.014
34075W        W 5604  44.023  22.453  11.009
34076W        W 5605  16.751  14.693   1.008
34077W        W 5606  22.070  41.831   1.574
34078W        W 5607  28.517  30.367   1.166
34079W        W 5608  22.184  39.489  12.054
34080W        W 5609   0.070  25.365  13.335
34081W        W 5610   4.299  32.560  11.555
34082W        W 5611   4.210  20.176  14.269
34083W        W 5612  38.411   6.837  10.632
34084W        W 5613  31.555  38.510  10.404
34085W        W 5614  31.681  22.219   2.404
34086W        W 5615   4.937  16.408   4.036
34087W        W 5616  35.338   2.357  12.062
34088W        W 5617  14.237  44.738   4.568
34089W        W 5618  18.972  30.848   5.036
34090W        W 5619   1.497  44.990  11.538
34091W        W 5620  13.702  38.138  11.191
34092W        W 5621  35.496  21.639   3.861
34093W        W 5622  37.922  15.587  12.142
34094W        W 5623  33.045  30.188  11.130
34095W        W 5624  19.108  15.028  14.014
34096W        W 5625  41.916   2.886   1.212
34097W        W 5626  44.388  15.711   1.677
34098W        W 5627  31.288  12.625   1.310
34099W        W 5628  40.320  37.069   1.478
34100W        W 5629  40.422  26.620  13.914
34101W        W 5630  31.246  33.518   3.740
34102W        W 5631  16.080  42.909  12.777
34103W        W 5632  15.287  18.839   2.675
34104W        W 5633  29.275  28.923  11.019
34105W        W 5634  38.493  28.163  10.813
34106W        W 5635  32.156   0.236   1.120
34107W        W 5636  30.632  14.598  13.333
34108W        W 5637   3.354  30.556   1.834
34109W        W 5638  16.306  22.835  12.431
34110W        W 5639  27.916   6.342  12.674
34111W        W 5640  20.573  35.842  10.846
34112W        W 5641  21.533  14.728  11.949
34113W        W 5642   3.260  44.720   3.309
34114W        W 5643   3.948  29.131  14.906
34115W        W 5644  35.565  36.362  13.561
34116W        W 5645  28.511  27.557   2.323
34117W        W 5646  43.439  21.665  11.344
34118W        W 5647  42.545   7.152   1.960
34119W        W 5648  38.327  38.486  12.298
34120W        W 5649   9.023  32.890   2.876
34121W        W 5650   7.674  18.504   0.618
34122W        W 5651  17.811  44.814   0.922
34123W        W 5652  31.377  17.968   2.183
34124W        W 5653  16.441   6.109   0.013
34125W        W 5654   5.183  30.567  14.108
34126W        W 5655  15.165  11.569  11.997
34127W        W 5656  19.003  35.542   4.911
34128W        W 5657   6.704  31.896  14.259
34129W        W 5658   2.682  16.327  11.843
34130W        W 5659   5.234  39.727   4.136
34131W        W 5660  41.661   2.725  11.984
34132W        W 5661  34.123  33.866  13.491
34133W        W 5662  11.718  15.386   2.681
34134W        W 5663  26.634  25.543   0.647
34135W        W 5664   5.114   4.262   0.737
34136W        W 5665   6.684  24.666  14.444
34137W        W 5666  39.558   1.212  11.668
34138W        W 5667  34.328  34.519  12.200
34139W        W 5668  30.508  41.639  13.130
34140W        W 5669  30.226  43.881  11.618
34141W        W 5670  16.164  22.253  10.248
34142W        W 5671  19.758  27.707  10.872
34143W        W 5672  14.660  30.616   3.448
34144W        W 5673  33.548  15.991  11.899
34145W        W 5674  37.890  30.963  10.681
34146W        W 5675  43.874  21.426  11.200
34147W        W 5676  12.618  20.934  11.108
34148W        W 5677   2.270   8.138   0.448
34149W        W 5678  24.757  43.327   3.926
34150W        W 5679  41.949  10.187  12.023
34151W        W 5680   4.369  37.939   1.253
34152W        W 5681  29.470   0.790   2.745
34153W        W 5682   5.974  27.554   3.234
34154W        W 5683  31.432  30.522   0.734
34155W        W 5684  27.038  13.735   0.989
34156W        W 5685   9.225  25.046   4.648
34157W        W 5686   6.286  10.890   2.181
34158W        W 5687   4.319  30.038   4.222
34159W        W 5688   5.150  30.073   1.431
34160W        W 5689  10.135   3.443  13.335
34161W        W 5690  27.681  21.510  12.844
34162W        W 5691  44.039  35.728  14.048
34163W        W 5692  20.217   4.061   0.289
34164W        W 5693  35.909  32.550   4.332
34165W        W 5694  13.100  21.773   0.476
34166W        W 5695  22.947   8.257  11.948
34167W        W 5696   8.929  11.769  12.433
34168W        W 5697  40.947  15.257  11.025
34169W        W 5698  22.538  29.179   0.809
34170W        W 5699  11.215  21.547   4.720
34171W        W 5700  26.981  37.010  11.967
34172W        W 5701  22.537  22.084  13.796
34173W        W 5702  36.827   1.741   3.664
34174W        W 5703  13.468  31.538   3.185
34175W        W 5704   3.478  32.203   0.429
34176W        W 5705   9.889   7.239   0.448
34177W        W 5706   1.853   4.196  14.278
34178W        W 5707   5.487  14.097   5.022
34179W        W 5708  42.965  36.328   0.188
34180W        W 5709  44.836  12.432   0.442
34181W        W 5710  24.738  43.581   2.304
34182W        W 5711  30.840   1.879  13.577
34183W        W 5712   5.536  43.632   0.183
34184W        W 5713  28.769   6.280  13.798
34185W        W 5714   2.813  27.915  14.038
34186W        W 5715  15.849  39.328  13.364
34187W        W 5716   3.953  19.808   0.613
34188W        W 5717   7.762  32.410   1.847
34189W        W 5718   1.540   9.152  11.483
34190W        W 5719  17.767  23.076  12.577
34191W        W 5720   9.196  30.653   2.752
34192W        W 5721  44.496  17.734   3.269
34193W        W 5722   3.848  38.424  14.335
34194W        W 5723  11.454  16.549   2.283
34195W        W 5724  40.661  16.823   3.196
34196W        W 5725  26.177   9.587   4.643
34197W        W 5726  22.966  17.335  11.800
34198W        W 5727  34.530  34.845   1.511
34199W        W 5728  36.286  13.704  10.970
34200W        W 5729  32.024  19.408  12.849
34201W        W 5730   8.901  39.458   1.384
34202W        W 5731   6.467  29.768   1.484
34203W        W 5732  36.607  26.041  10.437
34204W        W 5733   1.569  28.458   3.062
34205W        W 5734   4.915   1.075   1.853
34206W        W 5735  32.049  36.940   1.479
34207W        W 5736  31.521   2.426   4.897
34208W        W 5737  26.452  14.296   4.131
34209W        W 5738  26.791  12.415  11.648
34210W        W 5739  34.115  42.131   1.702
34211W        W 5740   3.775  43.036  10.302
34212W        W 5741   4.007  28.101  14.773
34213W        W 5742  36.815   4.309  12.953
34214W        W 5743  34.553  30.896   3.103
34215W        W 5744   8.601  36.017   3.772
34216W        W 5745  44.358   3.939  14.265
34217W        W 5746   0.803  12.836   4.445
34218W        W 5747  40.494  26.278  11.688
34219W        W 5748  16.666  30.533   1.881
34220W        W 5749  18.620  39.810  11.132
34221W        W 5750  35.002  12.101   4.724
34222W        W 5751   9.810   7.291  12.270
34223W        W 5752   5.310  21.635   0.444
34224W        W 5753  10.212  14.778  13.369
34225W        W 5754  35.891  14.961   2.413
34226W        W 5755  23.528  24.272   4.616
34227W        W 5756  27.544  44.190  13.423
34228W        W 5757  31.537   1.391   4.697
34229W        W 5758   8.607  24.117   2.766
34230W        W 5759  13.765  41.735  13.898
34231W        W 5760   9.275  37.065   1.418
34232W        W 5761  19.662  14.188  14.802
34233W        W 5762   0.866   8.664   9.902
34234W        W 5763  38.871  31.575  12.918
34235W        W 5764  20.541  43.394   4.120
34236W        W 5765   9.030  15.314  12.144
34237W        W 5766  15.731  30.591  14.293
34238W        W 5767  27.166  38.785   1.323
34239W        W 5768  18.899  13.482   1.889
34240W        W 5769  40.374  18.266  14.563
34241W        W 5770  34.033  13.636  11.293
34242W        W 5771  33.543   0.483   0.454
34243W        W 5772   6.184  30.073   4.997
34244W        W 5773  42.855   9.178   4.426
34245W        W 5774  42.433  32.698   2.239
34246W        W 5775   9.170   8.690  13.318
34247W        W 5776  39.031   1.313   2.273
34248W        W 5777  19.719  32.968  14.347
34249W        W 5778  39.855   4.234  12.193
34250W        W 5779   9.417  13.198  11.512
34251W        W 5780  31.474  41.600  12.959
34252W        W 5781  21.157  17.338  14.464
34253W        W 5782   7.820  29.713   1.278
34254W        W 5783  35.822  23.205   0.031
34255W        W 5784  41.890   7.013  11.176
34256W        W 5785   9.193  17.336   4.276
34257W        W 5786  14.616  29.015   0.433
34258W        W 5787   3.194  33.410  12.909
34259W        W 5788  12.697   4.123  11.709
34260W        W 5789   1.486  29.806   4.191
34261W        W 5790  11.150   2.761   1.373
34262W        W 5791  22.401  33.948  14.001
34263W        W 5792  24.788   6.447  13.243
34264W        W 5793  44.307  20.158   0.011
34265W        W 5794  22.518  34.346  14.299
34266W        W 5795  12.408  23.494   1.968
34267W        W 5796  18.748   7.466   3.056
34268W        W 5797  30.350  26.033   3.413
34269W        W 5798  32.488  19.998  12.560
34270W        W 5799   2.797  26.573   2.230
34271W        W 5800   2.252   5.789   2.702
34272W        W 5801  27.165  17.196  11.566
34273W        W 5802  31.511  11.318  13.432
34274W        W 5803  20.225   5.162  14.040
34275W        W 5804  19.773  14.624  14.394
34276W        W 5805  25.193  33.557  12.771
34277W        W 5806  29.644   0.751  10.416
34278W        W 5807  13.230  44.759   2.732
34279W        W 5808  18.173  36.291   3.851
34280W        W 5809   8.429  14.981   0.566
34281W        W 5810  33.547  36.480  12.879
34282W        W 5811  39.247  18.208   2.112
34283W        W 5812  17.222  29.177  13.530
34284W        W 5813   6.657  33.559   1.725
34285W        W 5814   3.461  15.532  13.522
34286W        W 5815  42.388  22.168   2.904
34287W        W 5816  22.495  17.619  12.880
34288W        W 5817   0.928  32.802   4.500
34289W        W 5818  15.462  34.083  13.834
34290W        W 5819   7.071  13.747  10.580
34291W        W 5820  11.098  11.436   4.151
34292W        W 5821  41.907   2.683  12.849
34293W        W 5822   4.344  32.836   2.163
34294W        W 5823  19.724  43.598  14.029
34295W        W 5824  31.511  17.290   4.723
34296W        W 5825  18.718  43.857  13.621
34297W        W 5826  37.520  23.586   0.515
34298W        W 5827  12.674  44.060   0.314
34299W        W 5828  40.144   8.111   0.337
34300W        W 5829   3.387  44.950  13.953
34301W        W 5830  23.682  42.905   2.330
34302W        W 5831  18.625  17.772  14.248
34303W        W 5832   6.314  42.406  13.530
34304W        W 5833  11.660  26.935   1.721
34305W        W 5834  27.237   6.100  13.478
34306W        W 5835  21.036  13.405   0.998
34307W        W 5836  44.975  29.000  10.616
34308W        W 5837  42.334  12.971  13.933
34309W        W 5838  15.765  33.387  12.663
34310W        W 5839  12.771   8.863   3.687
34311W        W 5840  16.854  28.982   2.502
34312W        W 5841   8.816  34.262   3.062
34313W        W 5842  35.713  20.036  11.499
34314W        W 5843  28.086   9.675   4.153
34315W        W 5844  23.989  27.467  13.988
34316W        W 5845  17.557  14.741   3.935
34317W        W 5846  21.777  23.009  12.439
34318W        W 5847  32.122  42.457   1.941
34319W        W 5848  22.605   1.413   2.656
34320W        W 5849   9.816  33.088   3.483
34321W        W 5850   5.642  41.857  13.965
34322W        W 5851  13.899  26.452  11.107
34323W        W 5852   9.041  19.020   2.917
34324W        W 5853  24.096  33.580  11.917
34325W        W 5854  30.501  42.510   4.054
34326W        W 5855   1.952  11.963   2.338
34327W        W 5856  36.305  23.232  11.948
34328W        W 5857  24.127  36.661   3.264
34329W        W 5858  38.336  31.885   3.086
34330W        W 5859  26.189   6.278   4.401
34331W        W 5860  24.048  23.463  13.197
34332W        W 5861  23.032   8.763   2.786
34333W        W 5862  15.215   8.332   2.435
34334W        W 5863  28.180  10.868  12.010
34335W        W 5864   7.755  21.523  14.821
34336W        W 5865  24.533  35.903   4.169
34337W        W 5866  40.417  37.486  10.569
34338W        W 5867  15.494  34.983  13.998
34339W        W 5868  36.388  27.591  11.461
34340W        W 5869  10.647  24.940   1.229
34341W        W 5870   2.797  24.436  14.311
34342W        W 5871  39.500   1.546  13.743
34343W        W 5872  16.852  33.026   4.362
34344W        W 5873  39.430  12.122  13.029
34345W        W 5874  13.162   2.754   0.192
34346W        W 5875  11.817  40.828  14.835
34347W        W 5876   2.676  34.701  10.714
34348W        W 5877  10.495   1.800   3.378
34349W        W 5878  41.237  28.132  12.036
34350W        W 5879  32.362  10.606   0.887
34351W        W 5880  37.489  42.777   2.149
34352W        W 5881   3.701  16.144  11.996
34353W        W 5882   9.147  15.884   9.784
34354W        W 5883   7.431  21.556  13.004
34355W        W 5884   5.460  40.028  12.522
34356W        W 5885  12.015  29.017  12.972
34357W        W 5886  40.016  23.001  11.679
34358W        W 5887  25.240  42.624   0.706
34359W        W 5888  36.654   8.132  13.894
34360W        W 5889  41.700   4.182   0.957
34361W        W 5890  30.223   8.382  14.951
34362W        W 5891  22.296  10.987  14.401
34363W        W 5892   1.189  44.100  12.792
34364W        W 5893  18.636  37.066   3.971
34365W        W 5894  13.535  38.363   3.195
34366W        W 5895  24.669   8.073   0.808
34367W        W 5896  33.060   9.209   3.871
34368W        W 5897  18.701  41.103   4.211
34369W        W 5898  19.474  32.105   2.212
34370W        W 5899   9.076  42.908  11.580
34371W        W 5900  35.335  17.198  13.033
34372W        W 5901   3.940   6.233  13.278
34373W        W 5902   6.849  19.204   4.065
34374W        W 5903   6.715  10.615  11.922
34375W        W 5904   1.406  20.821   1.126
34376W        W 5905  16.767  26.522  12.775
34377W        W 5906  29.471  16.783   2.486
34378W        W 5907  28.161  11.806   0.311
34379W        W 5908  11.048  32.791  14.554
34380W        W 5909   4.923  20.520   1.840
34381W        W 5910  33.559  42.438  12.338
34382W        W 5911  36.806  24.456   4.126
34383W        W 5912  24.240   3.731  12.077
34384W        W 5913  31.676  41.373   0.479
34385W        W 5914  42.839  14.164   0.052
34386W        W 5915  11.219   4.619   0.435
34387W        W 5916  23.469  37.952   3.839
34388W        W 5917  31.489  19.815   0.261
34389W        W 5918  42.252  40.330   3.346
34390W        W 5919   7.753   9.188   2.869
34391W        W 5920  15.770  18.243   0.725
34392W        W 5921  42.927  26.657  13.294
34393W        W 5922  14.029  38.024   4.546
34394W        W 5923   8.285  28.447   2.352
34395W        W 5924   7.194  32.023  14.358
34396W        W 5925  40.520  41.506   1.256
34397W        W 5926  15.100  38.479   2.360
34398W        W 5927   6.817   1.724  14.026
34399W        W 5928  16.297  32.696  12.236
34400W        W 5929  36.386  14.749  14.299
34401W        W 5930  37.945  12.708   3.592
34402W        W 5931   3.746  41.809  12.519
34403W        W 5932  35.150  39.852   1.418
34404W        W 5933  26.252  19.760  13.407
34405W        W 5934   8.072  18.401  10.995
34406W        W 5935  17.269  33.990   4.109
34407W        W 5936   9.782  25.035   2.737
34408W        W 5937  32.491   8.830   0.455
34409W        W 5938  17.692  39.878   0.761
34410W        W 5939  43.540  22.857   3.230
34411W        W 5940  18.131  19.691  11.581
34412W        W 5941  43.315  36.758  10.731
34413W        W 5942  21.626  12.338   1.859
34414W        W 5943   0.675  33.274  14.439
34415W        W 5944  30.596  35.115   0.738
34416W        W 5945   3.618   5.410   3.155
34417W        W 5946   0.536  29.438  11.932
34418W        W 5947  30.573   1.756   4.728
34419W        W 5948  10.266  34.037   4.769
34420W        W 5949  14.816   8.662   3.669
34421W        W 5950  28.675  39.562   4.115
34422W        W 5951  14.340  42.485  11.542
34423W        W 5952  13.088  32.018   4.512
34424W        W 5953  19.674   3.793   0.888
34425W        W 5954  11.896  17.721   4.132
34426W        W 5955  12.394   7.324   0.813
34427W        W 5956  17.118   6.247   0.444
34428W        W 5957   0.281   3.231   0.788
34429W        W 5958  17.267  29.011   0.860
34430W        W 5959  11.121   8.333  13.897
34431W        W 5960   0.353  21.463  10.629
34432W        W 5961  42.408  32.080   0.298
34433W        W 5962  17.962  23.372   3.236
34434W        W 5963  13.423   2.870   3.006
34435W        W 5964  20.206  33.977  14.285
34436W        W 5965  24.700  11.629   0.799
34437W        W 5966  15.744   5.695   3.212
34438W        W 5967  11.691  28.657  12.493
34439W        W 5968   1.396  12.853  13.970
34440W        W 5969   3.349  36.352   0.997
34441W        W 5970  41.351  11.866  11.684
34442W        W 5971  27.904  40.366   0.812
34443W        W 5972   0.240  38.142   0.987
34444W        W 5973  42.069  44.716  12.084
34445W        W 5974  44.208  32.959   1.617
34446W        W 5975  23.227  25.529   2.176
34447W        W 5976   6.900  10.855   4.567
34448W        W 5977  21.043  34.385  13.001
34449W        W 5978  16.443  19.749  10.178
34450W        W 5979   5.423  17.777   2.285
34451W        W 5980  26.056  30.177   3.493
34452W        W 5981   5.982  16.752  13.314
34453W        W 5982  38.449   9.367   0.403
34454W        W 5983  35.023  22.588  14.453
34455W        W 5984  12.732  15.358   1.229
34456W        W 5985  29.649  12.626   1.401
34457W        W 5986  26.379  40.267   0.919
34458W        W 5987  11.677  36.394   1.309
34459W        W 5988  26.293  10.871   4.377
34460W        W 5989   4.957   5.326  14.087
34461W        W 5990   7.929   5.362  12.498
34462W        W 5991  15.701  28.943  13.462
34463W        W 5992  25.534  42.938   4.125
34464W        W 5993  26.423  28.539  13.406
34465W        W 5994  41.970  36.826   4.625
34466W        W 5995   4.503  23.061   3.752
34467W        W 5996  38.008  37.546   0.839
34468W        W 5997   1.475  22.149   1.366
34469W        W 5998  22.847  34.522  13.923
34470W        W 5999  33.165  15.656  11.011
34471W        W 6000  12.495  38.041  12.271
34472W        W 6001   4.363  19.089  11.388
34473W        W 6002  16.833   6.162  10.790
34474W        W 6003  13.121  31.949   4.021
34475W        W 6004  18.355  30.274  14.397
34476W        W 6005  40.398  11.690  14.489
34477W        W 6006  15.581   0.361   3.216
34478W        W 6007   3.953   9.940   0.940
34479W        W 6008  29.655  15.037   3.491
34480W        W 6009  16.234  41.075   0.274
34481W        W 6010  10.278  40.728  12.443
34482W        W 6011  18.567  44.848  14.983
34483W        W 6012  12.562  15.591  13.309
34484W        W 6013   6.276  10.154   4.529
34485W        W 6014  28.211  26.688   0.980
34486W        W 6015   4.296  40.258   3.375
34487W        W 6016  25.964  29.372  12.351
34488W        W 6017  21.474  41.543   2.650
34489W        W 6018  24.751  23.017   1.379
34490W        W 6019  28.681  44.905  11.116
34491W        W 6020  42.811  41.948   3.758
34492W        W 6021  35.926  21.251  11.636
34493W        W 6022   2.955  25.126   4.130
34494W        W 6023  29.552  39.282  10.375
34495W        W 6024  22.017  40.966  13.804
34496W        W 6025  32.856  19.668  12.421
34497W        W 6026  37.474   5.318  12.804
34498W        W 6027  18.732  28.523  12.286
34499W        W 6028   5.235  26.917   4.092
34500W        W 6029   1.468  27.775  11.753
34501W        W 6030  43.665   5.083  12.807
34502W        W 6031  29.487  16.381   2.173
34503W        W 6032  40.256   4.338   1.459
34504W        W 6033   6.206  25.126  13.038
34505W        W 6034  11.648  24.965  14.631
34506W        W 6035  20.620  32.478  11.606
34507W        W 6036  15.212  20.597  14.526
34508W        W 6037  36.011  22.701   3.208
34509W        W 6038  26.354  14.081  12.996
34510W        W 6039   3.545  36.792   0.790
34511W        W 6040  40.371  20.148  12.127
34512W        W 6041   3.690  12.648   3.251
34513W        W 6042   5.914  28.951  12.385
34514W        W 6043  11.149   6.205  11.798
34515W        W 6044   2.427   5.802  10.656
34516W        W 6045   4.962  43.566  12.401
34517W        W 6046  24.309  28.139  11.735
34518W        W 6047  44.239   0.018  11.254
34519W        W 6048  39.195  13.799  12.311
34520W        W 6049   4.332  33.769  12.717
34521W        W 6050  15.248  16.323  14.817
34522W        W 6051  33.666  28.421  11.277
34523W        W 6052  12.424   6.048   2.687
34524W        W 6053   8.937  19.214  11.139
34525W        W 6054  22.820   4.553  14.071
34526W        W 6055  27.256   7.173   1.806
34527W        W 6056  19.833  32.875   3.823
34528W        W 6057  27.996  38.911   0.309
34529W        W 6058  39.071   7.746   1.371
34530W        W 6059  44.192  23.771  13.998
34531W        W 6060   3.351   7.798  13.992
34532W        W 6061  34.135   7.221   2.308
34533W        W 6062   3.889  27.045  12.843
34534W        W 6063  20.667  21.074  13.045
34535W        W 6064  41.247  14.107  13.401
34536W        W 6065  41.324   3.512  11.693
34537W        W 6066   7.296  19.046   2.735
34538W        W 6067  33.103  30.883   2.911
34539W        W 6068  29.105  32.151  11.023
34540W        W 6069  19.504   8.462   0.905
34541W        W 6070  13.761   3.861   1.184
34542W        W 6071   8.664  16.602   3.351
34543W        W 6072  23.174   1.478  14.977
34544W        W 6073  20.572  21.624   4.151
34545W        W 6074  42.052  42.912  13.040
34546W        W 6075  26.578  43.855   0.835
34547W        W 6076  28.592  10.098  11.757
34548W        W 6077  15.560   3.982   1.419
34549W        W 6078   3.281  10.861   2.399
34550W        W 6079   2.318  31.399  12.636
34551W        W 6080  14.240  40.268   4.176
34552W        W 6081  26.010   7.952  14.446
34553W        W 6082  11.176  23.011   2.794
34554W        W 6083  38.094   1.525   2.005
34555W        W 6084  21.541  30.271  14.607
34556W        W 6085  22.278   1.254   3.263
34557W        W 6086   2.542   1.839   0.201
34558W        W 6087   9.422  44.254  12.431
34559W        W 6088  16.241   8.727   0.884
34560W        W 6089  10.307   2.195  13.072
34561W        W 6090   3.143  34.023   2.795
34562W        W 6091  30.213  23.494  14.540
34563W        W 6092   3.905  19.228   1.244
34564W        W 6093  16.562   9.921   0.359
34565W        W 6094  41.737  32.902   3.285
34566W        W 6095   2.996  15.180   2.248
34567W        W 6096  18.516   4.711   4.557
34568W        W 6097  42.107  16.218  10.475
34569W        W 6098  35.019  11.072  11.028
34570W        W 6099  29.677  38.814   3.866
34571W        W 6100   5.767  30.114  11.100
34572W        W 6101   0.274  44.055   1.507
34573W        W 6102  40.608  10.993   2.846
34574W        W 6103   4.804  16.058   2.562
34575W        W 6104  32.695  32.872   2.058
34576W        W 6105  23.057  21.695   1.410
34577W        W 6106  17.170  41.824   3.257
34578W        W 6107  33.331  42.805   4.584
34579W        W 6108  25.775  20.920  11.190
34580W        W 6109  11.819  27.695   1.230
34581W        W 6110   2.284   6.190   1.165
34582W        W 6111   0.037  10.659  11.961
34583W        W 6112   9.356  12.453   1.831
34584W        W 6113   3.406   4.222  14.348
34585W        W 6114  18.925   3.330  13.952
34586W        W 6115   8.578   5.679   1.481
34587W        W 6116   4.907  17.756  12.016
34588W        W 6117  32.851  30.579  13.452
34589W        W 6118   3.220  26.513  10.242
34590W        W 6119   6.032  11.194   4.120
34591W        W 6120  26.957  19.809  10.750
34592W        W 6121  41.211  34.151  14.429
34593W        W 6122  37.981  25.465  11.052
34594W        W 6123  17.227  24.067  10.612
34595W        W 6124  20.130  17.594   4.336
34596W        W 6125   9.768  36.961  11.972
34597W        W 6126  35.380  23.564  12.510
34598W        W 6127   4.648  13.804  13.438
34599W        W 6128  18.602  17.007   3.135
34600W        W 6129  29.425  44.894  11.681
34601W        W 6130  15.823   4.273   2.246
34602W        W 6131  42.967  12.447   1.254
34603W        W 6132  22.776   9.232  12.375
34604W        W 6133  40.441  12.138  11.557
34605W        W 6134  19.724  28.566  13.461
34606W        W 6135  28.222  10.362   9.903
34607W        W 6136   4.455  13.529   4.887
34608W        W 6137   9.825  25.486   4.362
34609W        W 6138  33.968   4.880   3.389
34610W        W 6139   9.173  43.650   4.028
34611W        W 6140  24.820  33.285   4.083
34612W        W 6141   8.136  17.580   4.599
34613W        W 6142   2.765  23.213  13.591
34614W        W 6143   2.534  16.877   1.952
34615W        W 6144  31.670  35.100   4.016
34616W        W 6145   7.486  33.720  11.703
34617W        W 6146  34.667  40.211   4.832
34618W        W 6147  15.018  15.638  11.950
34619W        W 6148   1.035   3.719   0.286
34620W        W 6149  15.713  34.343  11.046
34621W        W 6150  35.924  41.514  12.985
34622W        W 6151   7.133  27.957   0.902
34623W        W 6152   4.267  14.912   2.413
34624W        W 6153  21.645  18.549   3.576
34625W        W 6154  43.236  22.736  11.499
34626W        W 6155  21.640  22.202  14.879
34627W        W 6156   9.701   8.923   0.012
34628W        W 6157   6.877  39.627  11.571
34629W        W 6158   7.446  13.977  13.945
34630W        W 6159  42.049  39.313  11.437
34631W        W 6160   3.729  41.499  12.947
34632W        W 6161  26.131  21.055  11.581
34633W        W 6162  16.559  25.566  13.778
34634W        W 6163  38.501   6.691   1.837
34635W        W 6164   0.712  14.624  11.638
34636W        W 6165  25.221  37.041   1.154
34637W        W 6166  37.647   6.590  11.643
34638W        W 6167  34.351  38.365   3.361
34639W        W 6168   6.889  29.491  13.799
34640W        W 6169  40.414  26.966  12.955
34641W        W 6170  23.171  30.966   2.590
34642W        W 6171  41.027   9.876  12.047
34643W        W 6172  37.198  11.901  11.646
34644W        W 6173  28.066  30.650   4.459
34645W        W 6174  34.519  35.943  10.696
34646W        W 6175   8.852  32.795  13.026
34647W        W 6176  13.124  36.786   1.903
34648W        W 6177  29.455  17.319  14.817
34649W        W 6178  28.205  40.473   1.803
34650W        W 6179  28.918  38.477   4.122
34651W        W 6180  13.365   7.380   3.237
34652W        W 6181   7.239  37.794   0.516
34653W        W 6182  34.269   5.455  13.915
34654W        W 6183  20.237   4.361  11.032
34655W        W 6184  37.463   0.372   3.266
34656W        W 6185  23.296   8.434   0.960
34657W        W 6186  11.186  14.844   2.334
34658W        W 6187  31.770  29.662  11.101
34659W        W 6188  16.650  18.027   4.127
34660W        W 6189  25.012  30.602   1.130
34661W        W 6190   7.834  28.245  11.570
34662W        W 6191  42.787   7.223  13.310
34663W        W 6192  23.699  44.341   4.421
34664W        W 6193   6.233  16.775   5.396
34665W        W 6194  41.781  16.263  14.235
34666W        W 6195  12.084  19.738  14.369
34667W        W 6196  17.325  27.539  10.652
34668W        W 6197  44.523  25.593  12.202
34669W        W 6198   4.333  33.932  14.536
34670W        W 6199  27.952  11.557   4.651
34671W        W 6200  26.035  12.863  11.096
34672W        W 6201  39.564   7.270  14.860
34673W        W 6202   2.385   6.676   0.855
34674W        W 6203  24.342  31.342   0.910
34675W        W 6204  17.388  20.170  11.631
34676W        W 6205  43.531  44.054   0.710
34677W        W 6206  36.968  12.564   4.621
34678W        W 6207  27.956  26.532  10.165
34679W        W 6208   0.344  22.444   2.285
34680W        W 6209  25.919   6.284  11.650
34681W        W 6210   9.210  24.213  14.397
34682W        W 6211  43.439  34.600  13.908
34683W        W 6212  15.037  31.870   1.832
34684W        W 6213  31.749  23.023  11.294
34685W        W 6214   2.215  14.858   3.678
34686W        W 6215  29.538  27.568  14.988
34687W        W 6216  22.139  12.575  12.906
34688W        W 6217  18.717   4.893  11.191
34689W        W 6218  42.314   6.799  12.399
34690W        W 6219  42.999  23.732   4.211
34691W        W 6220  35.978   8.302   2.152
34692W        W 6221  29.705  41.539   1.323
34693W        W 6222  15.813  10.251  14.391
34694W        W 6223   7.166  24.543   1.779
34695W        W 6224   1.670  27.082   2.839
34696W        W 6225  10.834   2.287  11.967
34697W        W 6226  19.230   4.328  11.311
34698W        W 6227  41.247  40.425   1.905
34699W        W 6228  30.034  38.297  14.299
34700W        W 6229  30.231  29.061   3.366
34701W        W 6230  35.706  38.012   1.923
34702W        W 6231  20.922  28.277  12.975
34703W        W 6232  35.569  29.037   1.395
34704W        W 6233  43.267   1.599   3.516
34705W        W 6234  43.565  35.114   1.754
34706W        W 6235  13.145  30.873   2.345
34707W        W 6236  34.652  12.201   1.852
34708W        W 6237  34.407  40.003   4.128
34709W        W 6238  19.454   7.916   4.193
34710W        W 6239   5.411  33.424   1.263
34711W        W 6240  32.501  37.712   4.181
34712W        W 6241  42.320   5.151  13.345
34713W        W 6242  24.791  38.121   1.972
34714W        W 6243   8.892   8.685  14.895
34715W        W 6244   6.834  38.064  11.406
34716W        W 6245   2.925  32.017   3.228
34717W        W 6246   1.174  26.668   0.843
34718W        W 6247  41.422  13.785   1.049
34719W        W 6248  35.654  27.530   1.026
34720W        W 6249  38.779  12.547  13.992
34721W        W 6250  36.305   1.106   3.344
34722W        W 6251   6.730  20.434   3.553
34723W        W 6252  27.075   5.926   2.324
34724W        W 6253  27.623   2.173   1.434
34725W        W 6254  38.036   2.045  13.960
34726W        W 6255   3.394  18.335  13.580
34727W        W 6256  25.881  19.013   1.715
34728W        W 6257   2.393  37.405   1.659
34729W        W 6258  16.715   7.831  12.034
34730W        W 6259  33.586  16.064   4.408
34731W        W 6260  34.964   2.409  10.739
34732W        W 6261  16.602  40.582  13.402
34733W        W 6262  35.350   0.007  10.702
34734W        W 6263  29.611   5.976   0.561
34735W        W 6264  42.850  20.069  10.477
34736W        W 6265  23.288  32.143  13.677
34737W        W 6266  33.492  11.106  14.314
34738W        W 6267  39.603  30.958   4.126
34739W        W 6268  40.919   0.175  14.267
34740W        W 6269  22.218  41.045  14.308
34741W        W 6270   9.348  33.809   0.905
34742W        W 6271   9.252  43.925  13.512
34743W        W 6272  36.219  42.917  13.848
34744W        W 6273  38.491  34.973   2.045
34745W        W 6274   4.276  23.920   2.771
34746W        W 6275   7.740  23.746  14.046
34747W        W 6276  25.969   7.383   1.798
34748W        W 6277  16.765  36.274  14.757
34749W        W 6278  20.786   1.971  11.673
34750W        W 6279  33.887   4.275  11.576
34751W        W 6280  39.458  40.850  11.515
34752W        W 6281  43.453  38.468  14.290
34753W        W 6282  28.732  26.627  13.598
34754W        W 6283  38.930  35.385  14.770
34755W        W 6284   4.192  30.538   4.144
34756W        W 6285  15.284  39.917   3.365
34757W        W 6286  38.375  41.741   1.941
34758W        W 6287  21.041  37.223   3.663
34759W        W 6288   4.705  31.078  11.585
34760W        W 6289  25.580  41.451  12.424
34761W        W 6290  31.620   4.584  12.521
34762W        W 6291  28.677  23.494  12.683
34763W        W 6292   0.555  37.063   3.817
34764W        W 6293  23.275  13.575  11.113
34765W        W 6294   4.270   4.833  14.700
34766W        W 6295  12.538  17.060  14.863
34767W        W 6296  10.194  20.667  10.217
34768W        W 6297  19.286  14.052  13.807
34769W        W 6298  16.228  28.452   1.282
34770W        W 6299   0.556  35.897   0.997
34771W        W 6300   2.784  36.123  11.715
34772W        W 6301  13.229  20.604  10.435
34773W        W 6302  11.800  12.277  12.070
34774W        W 6303  44.229   8.391   3.288
34775W        W 6304  36.143  18.664   3.499
34776W        W 6305  18.347  22.568   3.681
34777W        W 6306  32.801  34.037   0.754
34778W        W 6307   7.506  34.484  12.891
34779W        W 6308  10.800  26.104  11.348
34780W        W 6309  43.945  17.377   0.869
34781W        W 6310  41.944  26.583   3.227
34782W        W 6311  34.027   8.958  12.911
34783W        W 6312  15.561  42.476   2.702
34784W        W 6313  16.214  28.881   0.836
34785W        W 6314  10.856   7.859   4.343
34786W        W 6315  22.641  18.144   4.582
34787W        W 6316  36.922  13.847  12.761
34788W        W 6317  26.792  42.439   4.822
34789W        W 6318  19.681  35.010  13.872
34790W        W 6319   8.286  41.419   4.115
34791W        W 6320  11.708  20.488  10.121
34792W        W 6321  39.433  42.595  13.594
34793W        W 6322   8.319  34.492  11.093
34794W        W 6323  24.296  23.528  14.560
34795W        W 6324  33.020  44.027   0.724
34796W        W 6325   0.780   8.440  12.567
34797W        W 6326  26.919  34.499  11.859
34798W        W 6327  43.064  44.957   4.480
34799W        W 6328   3.910  13.534  14.842
34800W        W 6329  35.008  36.593  14.363
34801W        W 6330  44.690   1.830  13.506
34802W        W 6331  35.742   2.904  12.994
34803W        W 6332  29.780  12.529  14.302
34804W        W 6333  42.853  29.477  11.596
34805W        W 6334  13.714  44.953   2.579
34806W        W 6335   6.926  37.326  14.903
34807W        W 6336   6.421  19.752  11.941
34808W        W 6337  29.917   6.876   1.428
34809W        W 6338  12.390  19.649  11.087
34810W        W 6339  32.677  35.356   1.372
34811W        W 6340  24.157  37.830   0.306
34812W        W 6341   8.043  39.456   0.960
34813W        W 6342  36.014  38.407   2.653
34814W        W 6343  24.150  33.428  13.741
34815W        W 6344  44.838   6.942  11.474
34816W        W 6345  24.778   9.283   4.575
34817W        W 6346  34.365  42.672   3.161
34818W        W 6347  25.254  39.348  12.778
34819W        W 6348  10.049  30.533  11.973
34820W        W 6349   7.820  20.061  13.121
34821W        W 6350  39.024  14.213   2.001
34822W        W 6351  18.255   2.264  11.828
34823W        W 6352  15.110  31.843  14.346
34824W        W 6353   9.465  43.753  11.243
34825W        W 6354   9.119  22.755   0.858
34826W        W 6355   6.255  22.594  10.227
34827W        W 6356  21.743  37.863  11.101
34828W        W 6357  25.706  22.727   4.045
34829W        W 6358   9.435  21.265   2.194
34830W        W 6359  33.148   1.853   4.395
34831W        W 6360  21.220   8.858   1.459
34832W        W 6361  30.399  21.064  11.158
34833W        W 6362  24.277  44.281   2.350
34834W        W 6363  21.115  35.884  11.915
34835W        W 6364  34.548  34.974  10.908
34836W        W 6365  42.021  26.946  10.572
34837W        W 6366  20.346  14.219   3.818
34838W        W 6367  23.545   3.349  12.470
34839W        W 6368   0.776   0.551   0.352
34840W        W 6369  34.925  33.361   2.277
34841W        W 6370  38.045  12.860  12.876
34842W        W 6371  19.494  37.806  11.078
34843W        W 6372  15.545  43.642  14.398
34844W        W 6373   7.756  26.103  10.541
34845W        W 6374  15.715  12.598   0.591
34846W        W 6375  37.250  28.960  14.891
34847W        W 6376  19.130  30.135  14.865
34848W        W 6377  17.225  22.320  13.977
34849W        W 6378  42.881  44.426  14.022
34850W        W 6379   8.918  11.826   1.202
34851W        W 6380  11.132  22.333  13.225
34852W        W 6381   2.729   2.921   0.474
34853W        W 6382  10.132  31.824   1.850
34854W        W 6383  29.445  25.010  13.454
34855W        W 6384   6.240  12.136   4.532
34856W        W 6385  29.564  29.538   4.348
34857W        W 6386  10.164  15.824   0.028
34858W        W 6387  33.921  16.135   2.021
34859W        W 6388   8.434  32.884   2.304
34860W        W 6389   2.778  36.606  10.857
34861W        W 6390  27.397   7.009   2.550
34862W        W 6391   2.196   6.253  10.725
34863W        W 6392  43.561  40.567  11.208
34864W        W 6393   8.436   1.603   0.816
34865W        W 6394  34.992  28.639   3.344
34866W        W 6395  38.517   5.184  11.786
34867W        W 6396  10.080  10.882  10.840
34868W        W 6397  43.574  12.885  12.564
34869W        W 6398  31.928  30.151   2.227
34870W        W 6399  36.886  22.525  13.494
34871W        W 6400   4.011  26.030   2.215
34872W        W 6401  18.825  20.000   3.417
34873W        W 6402  35.063  34.899  13.384
34874W        W 6403  31.673  28.884  14.376
34875W        W 6404  41.971  23.212  12.920
34876W        W 6405   3.661  35.051  11.622
34877W        W 6406  18.182   1.825  10.585
34878W        W 6407  16.917  23.663  10.590
34879W        W 6408  26.576   0.339   1.853
34880W        W 6409   2.583  38.669  12.464
34881W        W 6410  20.525  38.385  11.476
34882W        W 6411  33.467  24.722  12.731
34883W        W 6412  13.104   6.845  11.928
34884W        W 6413  32.163  31.660   0.761
34885W        W 6414  23.141  43.293   0.866
34886W        W 6415  40.773  41.293   1.692
34887W        W 6416  21.711  15.369   1.973
34888W        W 6417  25.082  21.404   1.054
34889W        W 6418  14.694  42.085   3.699
34890W        W 6419  36.774   0.270  12.520
34891W        W 6420   2.646   7.355  11.222
34892W        W 6421  41.766  25.671   0.212
34893W        W 6422  14.035  44.784   1.804
34894W        W 6423  29.472  35.822  14.309
34895W        W 6424  22.284  41.600   3.885
34896W        W 6425  26.105   7.470  10.700
34897W        W 6426  37.472   5.503  13.932
34898W        W 6427  16.460  42.922   5.032
34899W        W 6428  38.521   4.334  10.771
34900W        W 6429  19.337  20.095   3.350
34901W        W 6430   7.943  15.639   2.792
34902W        W 6431  18.982  26.139   3.333
34903W        W 6432  21.907  41.937  11.256
34904W        W 6433   8.280  27.605  11.352
34905W        W 6434  28.841  13.738   1.223
34906W        W 6435  39.485  37.074   1.857
34907W        W 6436  22.096  32.477   4.784
34908W        W 6437  27.221   4.862   2.172
34909W        W 6438  40.038  14.142  14.439
34910W        W 6439  33.461  27.114   1.447
34911W        W 6440   1.416  11.934   5.004
34912W        W 6441   8.113  31.040   2.336
34913W        W 6442  44.352  43.409   4.176
34914W        W 6443  40.757  22.532  13.807
34915W        W 6444  19.352  36.896  13.898
34916W        W 6445  41.957  29.911  11.963
34917W        W 6446  36.585  23.170  10.562
34918W        W 6447  35.058  15.414   5.203
34919W        W 6448   4.161  35.459   4.305
34920W        W 6449   2.935   3.730   2.289
34921W        W 6450  39.123  21.492   3.264
34922W        W 6451   3.064  26.722  13.367
34923W        W 6452   4.739  12.137  11.176
34924W        W 6453  40.290  12.672  14.968
34925W        W 6454  41.920  24.143  12.500
34926W        W 6455  42.851  22.337   2.729
34927W        W 6456  40.021  43.886  11.467
34928W        W 6457  34.935  41.234  13.347
34929W        W 6458  14.878  10.768  10.734
34930W        W 6459  35.858   4.432  14.949
34931W        W 6460  44.901   9.117   3.234
34932W        W 6461  32.173   6.737   4.228
34933W        W 6462  31.421  32.954  13.894
34934W        W 6463   7.862  16.737  10.807
34935W        W 6464  32.679  29.691  11.949
34936W        W 6465   7.237   8.153  11.195
34937W        W 6466  35.982  15.322   4.664
34938W        W 6467  14.226  27.631   1.793
34939W        W 6468  17.200   0.023  14.305
34940W        W 6469  17.749   1.057  10.649
34941W        W 6470  26.126   9.551  11.621
34942W        W 6471  37.920   0.880   4.854
34943W        W 6472  36.444  21.416   4.186
34944W        W 6473   1.965   4.943  10.174
34945W        W 6474  36.661  41.920   4.224
34946W        W 6475  19.842  21.548  13.417
34947W        W 6476  38.492  25.151  11.863
34948W        W 6477  38.847  26.778   1.728
34949W        W 6478  28.208  17.588  14.867
34950W        W 6479  15.571   3.465  11.146
34951W        W 6480  15.131  30.406   3.660
34952W        W 6481  36.563   5.405  11.104
34953W        W 6482  18.723  34.139   3.603
34954W        W 6483  28.922  27.007  14.407
34955W        W 6484  18.495  11.856   2.304
34956W        W 6485  17.133  23.719  12.855
34957W        W 6486  13.421  41.951  14.906
34958W        W 6487  39.980  42.122  10.711
34959W        W 6488  21.223   9.391   3.753
34960W        W 6489  41.538  14.716  14.992
34961W        W 6490  23.938  24.429   2.057
34962W        W 6491  22.253   0.372   1.029
34963W        W 6492  37.708  10.215   3.170
34964W        W 6493  30.545   0.908  10.729
34965W        W 6494  17.859  16.942  11.924
34966W        W 6495  36.173  10.146   3.202
34967W        W 6496  13.134   1.890   0.547
34968W        W 6497  25.365  21.290   4.693
34969W        W 6498  41.826  22.358   1.835
34970W        W 6499   0.681  22.654   1.889
34971W        W 6500  35.576   4.474  13.516
34972W        W 6501  32.958  34.898   1.724
34973W        W 6502  31.002   3.970  13.499
34974W        W 6503  14.667   8.668   0.078
34975W        W 6504  28.124  19.161  11.083
34976W        W 6505  29.571  15.589   0.954
34977W        W 6506  35.393  43.899  11.571
34978W        W 6507  29.988  39.046  14.748
34979W        W 6508   2.343  21.190   2.533
34980W        W 6509  32.305  23.492  11.850
34981W        W 6510   2.744  38.918  14.933
34982W        W 6511  23.105  21.874  14.957
34983W        W 6512   0.093  10.186  12.197
34984W        W 6513  13.749  29.966   4.521
34985W        W 6514  35.386  42.056  12.086
34986W        W 6515   9.587   2.952  12.926
34987W        W 6516  30.899  27.758  14.817
34988W        W 6517  23.740  40.813  14.403
34989W        W 6518  22.936  18.036   3.669
34990W        W 6519  41.446  19.395   0.786
34991W        W 6520  25.181  21.689  12.476
34992W        W 6521  36.961   6.749   1.356
34993W        W 6522  38.791  34.586  11.938
34994W        W 6523  32.538  31.151  11.738
34995W        W 6524  38.372  14.796  12.145
34996W        W 6525  10.151  20.792  10.718
34997W        W 6526  16.798   3.209   0.003
34998W        W 6527  13.617  13.797  11.032
34999W        W 6528   2.304  14.668   4.590
35000W        W 6529  21.947  22.226  14.450
35001W        W 6530   3.392  32.937   2.209
35002W        W 6531  33.324  11.755   2.941
35003W        W 6532  11.708   5.247  13.370
35004W        W 6533  40.557  27.203  11.645
35005W        W 6534  40.788  28.648  14.327
35006W        W 6535  10.404  12.693   3.118
35007W        W 6536   1.441  38.114   3.222
35008W        W 6537  36.084  18.910  14.609
35009W        W 6538   3.699  42.335   3.070
35010W        W 6539  12.691  28.553  10.570
35011W        W 6540  39.490  23.972   2.788
35012W        W 6541  41.107  20.867  11.074
35013W        W 6542  29.991  14.547  13.072
35014W        W 6543   4.556  21.253  14.916
35015W        W 6544  20.548  21.488  14.855
35016W        W 6545  23.211  32.459  12.965
35017W        W 6546  17.911  17.883   2.332
35018W        W 6547  13.675  23.227   3.311
35019W        W 6548  18.054  23.786   2.290
35020W        W 6549  26.719   8.824   3.234
35021W        W 6550  19.562  41.443  11.473
35022W        W 6551  16.798  18.967   1.674
35023W        W 6552  43.691  44.267   2.350
35024W        W 6553  32.354  35.095  11.543
35025W        W 6554   1.422  38.245  11.755
35026W        W 6555  13.933  13.617   0.847
35027W        W 6556  10.515  38.204   3.695
35028W        W 6557  44.102  22.977  11.219
35029W        W 6558  37.025   8.130  13.115
35030W        W 6559  14.783  22.718  14.819
35031W        W 6560   3.727  24.111   4.574
35032W        W 6561  14.578  44.958  10.944
35033W        W 6562  42.493  19.530   4.623
35034W        W 6563   9.377  16.760   3.739
35035W        W 6564  14.766  27.445  10.638
35036W        W 6565  44.680  34.236   4.202
35037W        W 6566   9.183   9.841  14.483
35038W        W 6567  13.365  23.799  11.201
35039W        W 6568  32.291   5.275   4.408
35040W        W 6569  18.631  26.367   4.160
35041W        W 6570  35.393  15.639   2.133
35042W        W 6571  24.027  19.500   1.912
35043W        W 6572  17.365  40.022   4.974
35044W        W 6573  18.455   6.427  10.689
35045W        W 6574   8.356  28.464   3.793
35046W        W 6575  23.149  28.101   0.603
35047W        W 6576  31.118  28.071  10.608
35048W        W 6577  27.293  42.855   1.033
35049W        W 6578  11.908  41.820  11.325
35050W        W 6579  26.257  13.830  13.575
35051W        W 6580   0.625  30.115   1.094
35052W        W 6581  41.774   4.213  11.149
35053W        W 6582  29.688  34.328   0.491
35054W        W 6583   5.990  41.929   2.723
35055W        W 6584  21.294  28.956   1.881
35056W        W 6585  24.612  20.812   1.757
35057W        W 6586  37.945  34.983   1.977
35058W        W 6587  24.420  27.126   1.881
35059W        W 6588   5.702  31.006   0.921
35060W        W 6589  39.345  31.347   1.466
35061W        W 6590   2.683  38.411  13.120
35062W        W 6591  28.197   1.239  13.903
35063W        W 6592  12.861   4.840  10.453
35064W        W 6593  13.535  15.767   4.046
35065W        W 6594   4.943  18.567   0.206
35066W        W 6595   2.338  35.671  12.033
35067W        W 6596  30.196   4.108   4.860
35068W        W 6597  24.152  20.663   3.830
35069W        W 6598  13.069  15.316  12.554
35070W        W 6599  29.943  40.114   2.315
35071W        W 6600  42.840  29.154  10.598
35072W        W 6601  38.503  27.659  10.719
35073W        W 6602  23.767  17.195   2.331
35074W        W 6603  27.597   4.186   1.379
35075W        W 6604  29.846  37.811   3.732
35076W        W 6605  33.972  44.288   4.554
35077W        W 6606  24.413  13.168   2.272
35078W        W 6607  16.374  37.804  13.844
35079W        W 6608  43.574  19.565  14.631
35080W        W 6609  19.609   3.821  12.146
35081W        W 6610  11.106  44.382  11.655
35082W        W 6611   8.343  16.642   2.307
35083W        W 6612  19.678   1.194  10.628
35084W        W 6613  29.346   3.033  13.467
35085W        W 6614  28.472  18.708  11.984
35086W        W 6615  36.522  27.883  12.745
35087W        W 6616  10.788  40.747  12.862
35088W        W 6617  35.865  22.759   4.076
35089W        W 6618   4.550   1.804  13.460
35090W        W 6619  21.246  40.913   9.870
35091W        W 6620  42.790   0.057  14.475
35092W        W 6621  19.417  39.326  10.533
35093W        W 6622  20.813   7.767   0.490
35094W        W 6623  12.128  36.620   1.128
35095W        W 6624  23.226  24.282   1.363
35096W        W 6625   7.428   6.658   0.141
35097W        W 6626  43.722  33.967  14.367
35098W        W 6627   4.713  35.102   0.945
35099W        W 6628  24.044   5.712   4.458
35100W        W 6629   1.005  22.941  13.501
35101W        W 6630  29.060  42.781  13.885
35102W        W 6631   3.408  43.139   0.043
35103W        W 6632  30.393  16.151  12.907
35104W        W 6633   7.303  22.537  13.063
35105W        W 6634  13.171  10.855  12.670
35106W        W 6635   8.957   6.758  12.778
35107W        W 6636  12.646  30.124  13.537
35108W        W 6637  22.403  40.416  12.085
35109W        W 6638  11.888  11.648   4.575
35110W        W 6639  35.564  30.842  13.758
35111W        W 6640  25.637  34.912   3.381
35112W        W 6641   3.171  22.539   1.712
35113W        W 6642  10.035   0.051  13.808
35114W        W 6643  44.435  13.414  11.101
35115W        W 6644  34.411  24.221  13.042
35116W        W 6645  31.934  35.129   3.575
35117W        W 6646  36.646  19.052  13.912
35118W        W 6647  16.067  18.961   1.123
35119W        W 6648  26.385  35.268  13.080
35120W        W 6649  20.616  18.968  12.161
35121W        W 6650  21.914  41.460   2.917
35122W        W 6651  39.738  16.894  11.562
35123W        W 6652  24.590  37.856   1.051
35124W        W 6653   4.412  19.415   3.223
35125W        W 6654  35.091  42.560   0.033
35126W        W 6655  23.571   2.364   2.669
35127W        W 6656  29.399  41.898   1.127
35128W        W 6657   8.908  15.156  12.666
35129W        W 6658  41.383  22.541   2.127
35130W        W 6659  25.919   0.155  11.591
35131W        W 6660  21.446  39.993  10.219
35132W        W 6661  18.139  41.357  13.509
35133W        W 6662   2.924  21.673   1.812
35134W        W 6663  14.084  36.880  14.277
35135W        W 6664  11.275   4.278   2.268
35136W        W 6665  27.368  21.291   0.070
35137W        W 6666   5.937  29.913   3.075
35138W        W 6667  44.492  35.894   0.345
35139W        W 6668  11.110  40.365   2.337
35140W        W 6669  43.694  23.172  11.892
35141W        W 6670  44.556  36.071  12.500
35142W        W 6671  20.507  25.353   2.430
35143W        W 6672   2.640  14.639   1.395
35144W        W 6673  12.050  38.705  11.449
35145W        W 6674  32.103  41.639   0.402
35146W        W 6675   9.562  21.729  11.274
35147W        W 6676  19.690   1.774   2.172
35148W        W 6677  37.109   0.236  10.596
35149W        W 6678  37.926   9.170  11.270
35150W        W 6679  13.439   9.229  13.915
35151W        W 6680  18.853  40.883  13.521
35152W        W 6681   5.943  43.233   4.748
35153W        W 6682  17.246  14.640   2.854
35154W        W 6683   7.194   7.867  13.820
35155W        W 6684  29.260  42.009   1.599
35156W        W 6685   3.464  25.335  14.452
35157W        W 6686  36.494  21.861   1.495
35158W        W 6687  36.908  23.409   2.587
35159W        W 6688  25.043  42.968   1.051
35160W        W 6689   7.799  11.641   0.655
35161W        W 6690  36.929  44.783  12.467
35162W        W 6691  18.801  23.214  12.481
35163W        W 6692  32.761   2.116  12.925
35164W        W 6693  20.003  28.042   4.065
35165W        W 6694  38.497   5.509  11.390
35166W        W 6695  13.704  20.486  14.501
35167W        W 6696  30.673  37.749   2.372
35168W        W 6697  26.840   0.439   0.948
35169W        W 6698  11.006  31.625  12.108
35170W        W 6699  16.685  33.976  11.642
35171W        W 6700  10.867  29.612  13.064
35172W        W 6701   9.086   0.776   4.473
35173W        W 6702   8.470  22.159   4.823
35174W        W 6703  37.037   7.706   0.907
35175W        W 6704  42.824  24.894   1.340
35176W        W 6705  25.485  40.403  14.014
35177W        W 6706  33.380  28.452  14.911
35178W        W 6707  24.382   2.866  14.650
35179W        W 6708  20.155  17.242  10.890
35180W        W 6709   4.722   8.655  14.538
35181W        W 6710  39.953  25.445   3.841
35182W        W 6711   4.660  39.433   1.261
35183W        W 6712  12.179  26.953  12.447
35184W        W 6713  27.522  23.949  13.373
35185W        W 6714   3.277  17.426  13.156
35186W        W 6715   4.776  12.339   2.663
35187W        W 6716  25.469  24.705  13.976
35188W        W 6717  41.335  14.796  10.956
35189W        W 6718  30.010   3.153  10.736
35190W        W 6719  24.616  11.836  11.562
35191W        W 6720   4.329  16.431   4.559
35192W        W 6721  31.362   1.449  10.666
35193W        W 6722   7.902   1.419   2.657
35194W        W 6723  15.638  30.946   0.537
35195W        W 6724  32.136  33.968  10.764
35196W        W 6725  30.587  27.011   4.595
35197W        W 6726  17.835  15.630  12.215
35198W        W 6727   8.929  23.967  13.418
35199W        W 6728  33.867  10.239  11.795
35200W        W 6729  25.235  13.573  14.354
35201W        W 6730  44.019  40.949   9.895
35202W        W 6731  20.682  22.251  13.566
35203W        W 6732   8.463  40.429   4.774
35204W        W 6733  23.925   3.966  11.647
35205W        W 6734  36.348   1.838  12.996
35206W        W 6735  24.599  39.354   4.232
35207W        W 6736  26.702  26.188  12.044
35208W        W 6737   7.167  23.974  13.003
35209W        W 6738  25.230  32.468   1.726
35210W        W 6739  44.776   1.372  13.918
35211W        W 6740  41.512  18.364  13.216
35212W        W 6741  38.486   4.804  12.142
35213W        W 6742  16.211  27.956   2.236
35214W        W 6743  23.265  20.031   0.855
35215W        W 6744   1.381   3.746   4.351
35216W        W 6745  32.900  28.435   3.156
35217W        W 6746  42.547  39.399   3.067
35218W        W 6747   2.445   4.680  11.914
35219W        W 6748  21.285  38.866   5.002
35220W        W 6749  42.017  43.275  11.034
35221W        W 6750   4.185   3.669  12.104
35222W        W 6751   6.354  33.023  11.945
35223W        W 6752  40.870  39.215   5.109
35224W        W 6753  12.151  15.678  10.321
35225W        W 6754  14.110  28.961   2.676
35226W        W 6755   6.832  44.444   3.100
35227W        W 6756  23.033   9.850  13.917
35228W        W 6757  43.413   9.289   0.640
35229W        W 6758  37.529  22.037   4.529
35230W        W 6759   7.707  14.544   1.421
35231W        W 6760  11.983  13.408  14.364
35232W        W 6761  15.087  41.626  11.841
35233W        W 6762  14.277  18.821  11.903
35234W        W 6763   4.184  10.592  11.353
35235W        W 6764  24.024  27.482  13.070
35236W        W 6765  19.190   0.781  12.895
35237W        W 6766  25.490  19.658  11.665
35238W        W 6767  28.236   0.264  12.959
35239W        W 6768   8.804  39.358   2.809
35240W        W 6769   8.841  10.143   2.819
35241W        W 6770  29.810  35.480  11.959
35242W        W 6771   6.836  31.039   3.858
35243W        W 6772  28.655  26.022  12.473
35244W        W 6773  26.255  11.705  13.062
35245W        W 6774   0.267  36.781   0.950
35246W        W 6775  34.354  28.830   2.660
35247W        W 6776  36.059   8.173  12.458
35248W        W 6777  38.113  16.531  14.818
35249W        W 6778   1.447  19.544  13.448
35250W        W 6779  35.085  21.847   4.090
35251W        W 6780  14.106   9.099   4.091
35252W        W 6781   5.258  40.012   4.570
35253W        W 6782   0.073  36.930  12.347
35254W        W 6783  33.594  27.345  12.424
35255W        W 6784  22.117  22.444  11.138
35256W        W 6785  44.914   6.251   2.587
35257W        W 6786   1.350   8.632  12.497
35258W        W 6787  28.934  40.485   0.044
35259W        W 6788  12.867   3.024   0.697
35260W        W 6789   9.831  39.891   3.702
35261W        W 6790  38.031  39.126   3.318
35262W        W 6791  15.767  38.774   2.816
35263W        W 6792  20.212  12.188  14.076
35264W        W 6793   8.097  27.653   3.785
35265W        W 6794   8.375  19.845  10.090
35266W        W 6795   4.706   2.431   2.490
35267W        W 6796   9.142  11.798   0.732
35268W        W 6797  23.798   3.195  12.891
35269W        W 6798  17.330  30.020   4.470
35270W        W 6799  14.641  29.497  12.372
35271W        W 6800  44.021  11.569  12.167
35272W        W 6801  20.177  29.649   1.753
35273W        W 6802   6.323   5.449   4.872
35274W        W 6803   9.285  27.112  12.810
35275W        W 6804  35.487  20.601  10.650
35276W        W 6805   5.304  16.431   0.463
35277W        W 6806  38.066  40.327   1.584
35278W        W 6807   4.222  41.044  12.437
35279W        W 6808  33.979  27.188  14.815
35280W        W 6809  35.143  26.050   0.738
35281W        W 6810  35.601  44.363  14.461
35282W        W 6811  34.504  33.693  12.861
35283W        W 6812  28.554  32.849   3.346
35284W        W 6813  34.448  25.643   4.852
35285W        W 6814  24.190   7.165   1.244
35286W        W 6815  13.364  42.474  10.524
35287W        W 6816  39.819  40.276   1.732
35288W        W 6817  44.889  39.906   0.795
35289W        W 6818  37.393   9.094   1.265
35290W        W 6819  20.372  37.862   4.144
35291W        W 6820   4.635  20.079   1.827
35292W        W 6821  19.542   8.129   0.521
35293W        W 6822  34.830   1.315   0.591
35294W        W 6823  17.532  18.660   3.332
35295W        W 6824  19.772  44.358  12.958
35296W        W 6825  25.506  34.538  14.392
35297W        W 6826  31.930   5.305  14.406
35298W        W 6827  20.693  10.446   1.673
35299W        W 6828   8.183  30.674   1.884
35300W        W 6829  27.698   4.002   1.835
35301W        W 6830  18.363  28.556   1.454
35302W        W 6831   8.927  29.613   4.069
35303W        W 6832  21.491   7.995   1.224
35304W        W 6833  14.338  16.595  14.017
35305W        W 6834  16.362  32.397  12.649
35306W        W 6835  39.009   3.141  12.969
35307W        W 6836  10.933  28.859   2.694
35308W        W 6837   9.849   2.379  11.693
35309W        W 6838   4.286   5.347  14.802
35310W        W 6839   1.951  44.269   4.678
35311W        W 6840   8.667  18.843   3.267
35312W        W 6841  15.985  22.287   0.891
35313W        W 6842  17.969   9.831  14.346
35314W        W 6843  38.373  13.870  14.759
35315W        W 6844  34.043   4.871  11.190
35316W        W 6845  31.141   5.825   1.755
35317W        W 6846   4.811  41.784  11.723
35318W        W 6847  10.622  20.036  14.317
35319W        W 6848  43.700  31.357  12.078
35320W        W 6849  34.385  43.197  12.121
35321W        W 6850   9.134  15.312   2.765
35322W        W 6851  13.713  36.455   1.344
35323W        W 6852  29.509  15.355  14.538
35324W        W 6853  22.648  39.395  11.404
35325W        W 6854  40.101  22.430   3.179
35326W        W 6855  27.240   9.139  13.833
35327W        W 6856  35.353   0.909  10.742
35328W        W 6857  18.909  33.827  13.439
35329W        W 6858  32.149  41.079   4.134
35330W        W 6859  21.168   8.100   4.191
35331W        W 6860  26.626  35.582  10.328
35332W        W 6861  26.942   3.960  13.819
35333W        W 6862  28.708  41.342  12.000
35334W        W 6863  21.053  35.141  10.999
35335W        W 6864  22.636  24.821  12.191
35336W        W 6865  19.074  20.300   3.763
35337W        W 6866  12.721  19.384   3.965
35338W        W 6867  41.082  19.916  13.887
35339W        W 6868  39.849  18.756   3.553
35340W        W 6869  37.834  31.019   2.656
35341W        W 6870  42.366  30.633   3.154
35342W        W 6871  12.091  24.098   3.591
35343W        W 6872   7.252  38.465   2.655
35344W        W 6873  28.437  20.510   1.753
35345W        W 6874  13.750   4.992  10.356
35346W        W 6875  29.535  31.579  11.624
35347W        W 6876  17.560  30.550   2.046
35348W        W 6877  41.983  44.920   0.407
35349W        W 6878   6.865  19.004   3.102
35350W        W 6879  16.800  35.215  11.165
35351W        W 6880  18.766  21.996  11.451
35352W        W 6881  23.158  17.564   1.272
35353W        W 6882  38.040  12.923  11.962
35354W        W 6883  26.364  10.260  12.019
35355W        W 6884  43.289  14.851  10.777
35356W        W 6885  11.779  28.949  10.731
35357W        W 6886  25.902  26.719   0.554
35358W        W 6887  34.553  39.080  14.457
35359W        W 6888  16.642  43.929   3.524
35360W        W 6889   0.252  16.564   1.965
35361W        W 6890  43.470  28.205  11.618
35362W        W 6891  16.205  19.317  10.670
35363W        W 6892   2.910  34.427  11.277
35364W        W 6893  44.332  37.627   3.823
35365W        W 6894  23.673  19.221  11.576
35366W        W 6895  14.439  29.010  13.096
35367W        W 6896   3.842  13.373  12.932
35368W        W 6897   0.243   7.307   4.105
35369W        W 6898  30.533  26.574  13.474
35370W        W 6899   7.746  20.189  11.624
35371W        W 6900  40.252  17.051   0.857
35372W        W 6901  27.322  14.187   3.564
35373W        W 6902  29.374  21.183  13.894
35374W        W 6903   4.323   5.937   3.788
35375W        W 6904  33.089  23.934   4.603
35376W        W 6905  42.184  43.810  12.063
35377W        W 6906   3.408  38.615   4.210
35378W        W 6907  29.393  10.263   0.765
35379W        W 6908  13.696  19.539   2.329
35380W        W 6909  22.177  25.542   4.528
35381W        W 6910  17.895  43.907  11.145
35382W        W 6911  31.030  43.898   0.246
35383W        W 6912   2.430  42.290   1.485
35384W        W 6913  43.542  20.547   1.499
35385W        W 6914   9.205  43.705   1.211
35386W        W 6915   9.852  28.696  11.167
35387W        W 6916  28.471  11.676  12.654
35388W        W 6917  24.181  35.743   4.510
35389W        W 6918   8.411  16.187   3.083
35390W        W 6919  38.135  12.663   4.581
35391W        W 6920   3.219  28.490   2.721
35392W        W 6921  27.994  37.470  13.135
35393W        W 6922  12.115   6.095  11.448
35394W        W 6923   4.031  14.272   2.585
35395W        W 6924  25.463   8.032  12.064
35396W        W 6925  25.170  41.282   4.548
35397W        W 6926  17.130   9.395  14.997
35398W        W 6927  43.613  20.760   0.305
35399W        W 6928  30.933   2.995   4.154
35400W        W 6929  31.539  40.485   1.319
35401W        W 6930  38.991  30.860  13.513
35402W        W 6931  14.542  28.552  13.342
35403W        W 6932  27.662  38.637  13.508
35404W        W 6933  28.991  23.757   2.351
35405W        W 6934  34.237   0.633   3.204
35406W        W 6935  15.036   6.729  10.269
35407W        W 6936  14.317  39.389   0.202
35408W        W 6937  12.009  41.164   0.677
35409W        W 6938  26.258  41.797   3.964
35410W        W 6939   1.692  30.977  10.975
35411W        W 6940  20.138  11.715  14.352
35412W        W 6941  15.266  17.391  10.987
35413W        W 6942  21.197  33.968   1.842
35414W        W 6943  13.066   0.296  12.079
35415W        W 6944  29.164  42.396  10.648
35416W        W 6945  33.726  20.926   3.248
35417W        W 6946  39.033  14.274   4.169
35418W        W 6947  31.951  16.566   5.037
35419W        W 6948  12.680   5.410   4.535
35420W        W 6949  14.263  34.802  11.930
35421W        W 6950  37.801   9.459   3.562
35422W        W 6951   1.896  12.375   3.257
35423W        W 6952   3.469  34.670   1.206
35424W        W 6953  35.326  39.291   2.538
35425W        W 6954   8.203  15.955   0.390
35426W        W 6955  33.523  14.730  11.960
35427W        W 6956  27.930  38.862  11.139
35428W        W 6957  34.821   1.494   4.645
35429W        W 6958   7.164  14.500  11.108
35430W        W 6959  37.146   8.264  13.594
35431W        W 6960  23.692  18.236   3.318
35432W        W 6961   0.338  20.781  11.169
35433W        W 6962  18.102   0.488   0.797
35434W        W 6963  26.736  35.371  12.120
35435W        W 6964   2.950  27.022   4.324
35436W        W 6965  29.536   8.956   2.658
35437W        W 6966  21.150  17.324   4.509
35438W        W 6967  18.133  15.166  14.920
35439W        W 6968  26.250  33.870   4.700
35440W        W 6969  19.954  43.089  12.776
35441W        W 6970  29.387  24.406   2.879
35442W        W 6971  11.738  10.578  13.974
35443W        W 6972  39.777  17.614  13.610
35444W        W 6973  39.708  18.685   2.737
35445W        W 6974  28.980  15.407   3.230
35446W        W 6975  39.905   2.108  14.509
35447W        W 6976  23.484  31.108   4.277
35448W        W 6977  16.933  22.696  14.345
35449W        W 6978  16.588  28.029  10.919
35450W        W 6979  19.635  35.362  11.479
35451W        W 6980  25.061  15.111   2.415
35452W        W 6981  18.502  44.370  14.324
35453W        W 6982   9.753   5.211  12.042
35454W        W 6983  23.073  15.307   3.684
35455W        W 6984  38.089  22.628   1.849
35456W        W 6985  32.185  18.021  12.378
35457W        W 6986   9.602  19.359   2.203
35458W        W 6987  17.042  34.898  12.411
35459W        W 6988  29.935   3.672  12.139
35460W        W 6989  43.797  40.454   2.211
35461W        W 6990   0.103  37.621  13.854
35462W        W 6991  23.767  25.035   0.256
35463W        W 6992  21.481  26.131   2.175
35464W        W 6993  10.606  43.320  14.447
35465W        W 6994   6.701  41.246  10.630
35466W        W 6995  40.739  22.143  13.446
35467W        W 6996  31.455  24.431  12.117
35468W        W 6997  29.634   5.135   1.238
35469W        W 6998  18.176  23.416   1.947
35470W        W 6999  21.238  19.204  13.800
35471W        W 7000   5.820  42.482   4.058
35472W        W 7001  14.056   0.863  13.438
35473W        W 7002  24.151  27.013  11.656
35474W        W 7003  13.419  38.552  14.862
35475W        W 7004  30.571  27.059   0.297
35476W        W 7005  40.355   7.383   1.485
35477W        W 7006  30.543  44.086  13.058
35478W        W 7007  16.002  26.266  13.057
35479W        W 7008   5.251  29.380  13.328
35480W        W 7009   3.198  18.197   4.347
35481W        W 7010  31.256  23.727  11.126
35482W        W 7011   2.942  26.763   0.355
35483W        W 7012   9.940   7.206  10.018
35484W        W 7013  13.671  20.768   4.230
35485W        W 7014   7.722  17.046   1.236
35486W        W 7015   3.566  21.521  13.390
35487W        W 7016  34.870  28.442   1.397
35488W        W 7017  31.706  21.671  13.840
35489W        W 7018   8.994  23.790   2.314
35490W        W 7019  10.114  43.079   2.594
35491W        W 7020   0.920  43.755  13.920
35492W        W 7021  21.138  16.570   1.461
35493W        W 7022  26.438  28.503  12.042
35494W        W 7023   8.157   2.983   0.812
35495W        W 7024  24.178  14.569  13.421
35496W        W 7025  24.253  29.087   3.669
35497W        W 7026  38.520  38.120   2.875
35498W        W 7027   5.380  43.468  14.192
35499W        W 7028  20.269   1.339   2.832
35500W        W 7029  43.258   0.868   4.067
35501W        W 7030  16.042  21.043   0.468
35502W        W 7031  19.992   6.508  14.451
35503W        W 7032  16.038  41.305  13.488
35504W        W 7033  27.934  39.751  13.105
35505W        W 7034  43.068  32.045   2.920
35506W        W 7035  20.699   6.112   1.939
35507W        W 7036   2.737  27.877   3.258
35508W        W 7037  23.426  32.455  11.796
35509W        W 7038  32.894  42.088   3.301
35510W        W 7039   2.320  34.082   0.025
35511W        W 7040  27.687  41.353  11.759
35512W        W 7041  18.035  35.169  11.207
35513W        W 7042   2.585  22.566   4.546
35514W        W 7043   5.203   1.239  11.035
35515W        W 7044  26.055   5.314   2.714
35516W        W 7045  39.515  42.925  10.439
35517W        W 7046   2.514  12.825   0.867
35518W        W 7047   5.387   4.941  12.931
35519W        W 7048  31.643   0.674  12.625
35520W        W 7049  42.745  17.235   1.253
35521W        W 7050  19.944  41.775   0.948
35522W        W 7051  24.419  29.600   2.857
35523W        W 7052   1.493  44.038   0.799
35524W        W 7053  29.095  13.101  12.608
35525W        W 7054  12.097   8.371   4.144
35526W        W 7055  42.976  35.091   2.230
35527W        W 7056  32.462  20.821  11.693
35528W        W 7057  27.612  19.007  10.826
35529W        W 7058   9.038  11.830   3.413
35530W        W 7059  34.985  43.382  11.152
35531W        W 7060  20.888   3.333   3.382
35532W        W 7061  15.115  38.114  11.978
35533W        W 7062  41.918   9.713  13.489
35534W        W 7063  14.733  17.249  12.624
35535W        W 7064  10.188  19.300  11.621
35536W        W 7065  26.121  11.249  14.125
35537W        W 7066  35.416  10.222  11.652
35538W        W 7067   7.046  19.538  12.745
35539W        W 7068  40.352   4.819  10.197
35540W        W 7069  39.470   7.774   4.159
35541W        W 7070  15.173  38.965   1.249
35542W        W 7071   6.893  21.248  14.582
35543W        W 7072  10.357  31.311  11.547
35544W        W 7073  28.465  44.107  12.525
35545W        W 7074   8.341  18.298   3.900
35546W        W 7075  34.739   5.721  12.472
35547W        W 7076   2.671  32.391  10.368
35548W        W 7077  19.045  32.481   0.511
35549W        W 7078  34.420  29.145  13.757
35550W        W 7079  23.766  11.612   1.925
35551W        W 7080  21.610  39.013  11.567
35552W        W 7081  23.682  15.876  10.373
35553W        W 7082  27.831  10.018   2.908
35554W        W 7083  13.313  44.530   1.336
35555W        W 7084  33.052   2.720  13.365
35556W        W 7085  39.805  12.297   1.405
35557W        W 7086  35.961  15.300  13.908
35558W        W 7087   4.620  20.127  13.843
35559W        W 7088  33.512  24.689   2.693
35560W        W 7089  32.998  35.438  12.547
35561W        W 7090  15.954  43.866   1.372
35562W        W 7091  28.224  38.888  10.682
35563W        W 7092  28.992  32.023  11.918
35564W        W 7093  28.213  36.464  12.991
35565W        W 7094  12.422  11.534   4.449
35566W        W 7095   8.266  31.936  14.243
35567W        W 7096  20.538  37.553   3.402
35568W        W 7097  27.057  31.591  10.521
35569W        W 7098   4.057  43.986   1.577
35570W        W 7099  21.386  44.966  11.454
35571W        W 7100  41.354  10.788  11.658
35572W        W 7101  10.186  12.670  14.287
35573W        W 7102  42.935   9.171   4.933
35574W        W 7103  17.615   8.314   3.884
35575W        W 7104  16.554  13.119  11.389
35576W        W 7105  18.546  42.681   1.422
35577W        W 7106   1.879  23.095   2.832
35578W        W 7107  38.871  29.469   4.719
35579W        W 7108  26.003  17.720   4.424
35580W        W 7109  25.109   7.836  12.380
35581W        W 7110  12.357  29.963   0.243
35582W        W 7111  25.967  31.468   4.668
35583W        W 7112   2.506  34.980  14.983
35584W        W 7113  39.276  12.789  14.878
35585W        W 7114  20.336  23.199  13.402
35586W        W 7115  18.802   4.804  10.670
35587W        W 7116  41.415  42.931  13.771
35588W        W 7117  22.989  24.435  12.071
35589W        W 7118  42.392  29.644  12.584
35590W        W 7119  15.516  29.392   2.385
35591W        W 7120  20.045  38.025   1.924
35592W        W 7121  14.770  35.731  13.460
35593W        W 7122   7.479  35.532   0.932
35594W        W 7123  17.139  22.615   4.739
35595W        W 7124  42.558  43.413  11.905
35596W        W 7125  22.278  26.582   2.384
35597W        W 7126  39.340  18.857  14.936
35598W        W 7127  33.094  17.255  14.749
35599W        W 7128   3.452  43.174   4.324
35600W        W 7129  27.037  25.345  12.130
35601W        W 7130   3.431  33.019  13.487
35602W        W 7131  16.163  26.067   2.488
35603W        W 7132  17.210  26.490  12.069
35604W        W 7133  34.862  12.181   1.347
35605W        W 7134  30.460  18.554   4.169
35606W        W 7135  37.555   5.359   1.597
35607W        W 7136   1.362  13.651  14.402
35608W        W 7137   3.205  24.322   3.678
35609W        W 7138  22.937   0.958  14.290
35610W        W 7139  32.636  31.044  13.400
35611W        W 7140  29.504  10.252   2.554
35612W        W 7141   1.197  10.923  12.584
35613W        W 7142  40.576  44.546   1.152
35614W        W 7143   1.484  34.549  14.054
35615W        W 7144  32.229  10.348   4.261
35616W        W 7145  43.424  11.774   4.039
35617W        W 7146  28.212  34.522  11.434
35618W        W 7147   3.250  11.775   2.256
35619W        W 7148  10.949  33.831   4.529
35620W        W 7149   5.906  39.459  14.160
35621W        W 7150   3.508  31.169   4.536
35622W        W 7151   5.373  35.734  13.458
35623W        W 7152   7.932  37.543  13.505
35624W        W 7153  43.882  29.660  10.671
35625W        W 7154  24.356  15.501   4.154
35626W        W 7155   6.326  16.760  12.425
35627W        W 7156  37.316  32.918  13.002
35628W        W 7157  26.341  17.738   0.776
35629W        W 7158  43.382   4.503  12.673
35630W        W 7159  18.295  15.054   2.897
35631W        W 7160  24.914   1.371  11.469
35632W        W 7161  17.068  40.671   2.286
35633W        W 7162  32.106  25.058   4.072
35634W        W 7163  28.163  14.019  13.403
35635W        W 7164   1.821  10.575  14.792
35636W        W 7165  34.165  11.627   2.964
35637W        W 7166  26.585  11.954  11.507
35638W        W 7167  26.741  41.569  14.102
35639W        W 7168  24.618   1.879  12.223
35640W        W 7169  31.232  20.344   2.132
35641W        W 7170  33.329   1.350   0.814
35642W        W 7171  32.435  31.002  12.450
35643W        W 7172  20.947  27.050   2.289
35644W        W 7173  42.790  26.941   1.177
35645W        W 7174  40.374  42.596   3.037
35646W        W 7175   3.265  29.383   3.209
35647W        W 7176  23.148  44.768  12.997
35648W        W 7177  17.345  25.160   0.370
35649W        W 7178  25.066  18.860  13.417
35650W        W 7179  43.090  36.190  11.544
35651W        W 7180  41.512  20.756  14.968
35652W        W 7181  13.832  12.550   2.593
35653W        W 7182  20.987  29.086  13.880
35654W        W 7183  34.397  40.424  11.071
35655W        W 7184  43.616  22.072  12.521
35656W        W 7185  37.630   1.029  11.916
35657W        W 7186  33.453  30.171  12.843
35658W        W 7187  12.892  10.332  13.489
35659W        W 7188   2.243  44.990  14.993
35660W        W 7189   1.316  22.075   2.424
35661W        W 7190  37.803   8.268   1.495
35662W        W 7191   7.797  17.926   2.206
35663W        W 7192  19.578  19.645   4.067
35664W        W 7193  13.492   8.671   4.881
35665W        W 7194  24.159  44.717  13.085
35666W        W 7195  30.459  42.316   2.628
35667W        W 7196   7.411  10.289   2.394
35668W        W 7197  38.608  31.505   0.963
35669W        W 7198  33.915  24.727  12.368
35670W        W 7199  27.433  34.562   3.586
35671W        W 7200  23.384  32.133   2.331
35672W        W 7201  42.487  27.119  10.331
35673W        W 7202  38.311  13.231  11.609
35674W        W 7203  37.750  27.327   2.140
35675W        W 7204  11.696  23.507  14.418
35676W        W 7205   7.632   8.301  14.025
35677W        W 7206  17.110  17.024   4.141
35678W        W 7207   4.426  42.300  12.043
35679W        W 7208  15.547  17.677  14.329
35680W        W 7209  16.691  22.110   0.682
35681W        W 7210  34.851  16.573  13.519
35682W        W 7211   7.159   5.657  11.292
35683W        W 7212   8.322  29.492   4.651
35684W        W 7213  10.397  39.391  14.283
35685W        W 7214  14.908  21.473  11.488
35686W        W 7215  19.722  25.306  12.174
35687W        W 7216  13.601  44.886   2.091
35688W        W 7217  43.858  21.091  12.344
35689W        W 7218  23.130   7.975   0.847
35690W        W 7219  19.312  25.095   4.188
35691W        W 7220   5.514  18.457   3.589
35692W        W 7221  29.887   4.528   4.835
35693W        W 7222  42.780   2.409   1.882
35694W        W 7223   7.484  12.246  11.604
35695W        W 7224  30.135  12.856  12.454
35696W        W 7225  19.205  25.662   3.099
35697W        W 7226   0.984  42.921  11.195
35698W        W 7227  26.503   0.247  14.407
35699W        W 7228  43.284  34.570  14.886
35700W        W 7229  22.274  10.784  12.152
35701W        W 7230  24.162  39.145  10.985
35702W        W 7231  43.450  32.389   0.239
35703W        W 7232  38.388   7.424   0.273
35704W        W 7233  12.163  13.092  13.546
35705W        W 7234  42.104  15.593  12.523
35706W        W 7235  42.527  40.122   2.256
35707W        W 7236  12.300  17.286  11.128
35708W        W 7237  19.060   4.257  13.435
35709W        W 7238  11.834  31.569  12.396
35710W        W 7239   1.636   1.997   3.190
35711W        W 7240   9.246   9.205   0.309
35712W        W 7241   1.818  23.503  11.201
35713W        W 7242  37.746  12.233   3.740
35714W        W 7243  10.280  42.028   4.349
35715W        W 7244  39.567  20.061   0.445
35716W        W 7245  16.059  21.143   4.053
35717W        W 7246   4.348   8.365   1.973
35718W        W 7247  39.354  30.797   3.119
35719W        W 7248  29.607  35.545   4.830
35720W        W 7249  19.880  20.037   4.198
35721W        W 7250  36.608  19.744  14.985
35722W        W 7251  21.688  34.906   4.628
35723W        W 7252   3.346  20.127   3.506
35724W        W 7253  34.294  31.897   2.216
35725W        W 7254  29.453  30.549  13.385
35726W        W 7255  28.045  37.277  14.569
35727W        W 7256  27.607   0.888   3.841
35728W        W 7257  22.387  24.682   4.015
35729W        W 7258  21.952  12.362   1.454
35730W        W 7259  26.175  31.988  12.226
35731W        W 7260  12.973  14.400  11.165
35732W        W 7261   5.633  44.317   2.769
35733W        W 7262   3.254   5.803  12.504
35734W        W 7263   3.568  31.965  14.018
35735W        W 7264   9.921  26.645  14.477
35736W        W 7265  23.988  20.213  14.390
35737W        W 7266  14.806  14.310  13.018
35738W        W 7267  42.033  35.834  13.004
35739W        W 7268   3.743   4.985  14.823
35740W        W 7269   5.546  36.408  11.455
35741W        W 7270   6.404  13.313  12.140
35742W        W 7271  29.521  34.859  14.271
35743W        W 7272  11.714  33.408   1.552
35744W        W 7273  36.466  28.073   3.694
35745W        W 7274  41.401   0.852   4.602
35746W        W 7275  33.535  31.782  11.725
35747W        W 7276  27.683  14.033   0.260
35748W        W 7277  43.856  24.230   2.584
35749W        W 7278   1.745  41.319   4.679
35750W        W 7279  31.768  17.025  14.876
35751W        W 7280  29.789  36.986  13.450
35752W        W 7281  19.135  29.639   2.690
35753W        W 7282  43.790  14.013   2.247
35754W        W 7283  24.606  27.204   1.360
35755W        W 7284  26.643   5.496   3.380
35756W        W 7285  42.561   8.789   4.906
35757W        W 7286   0.038   4.204   0.918
35758W        W 7287   2.642  43.669  10.726
35759W        W 7288  17.002  30.753   0.333
35760W        W 7289  38.554  20.721  10.638
35761W        W 7290  25.902  17.324  12.993
35762W        W 7291  26.494   4.981   2.609
35763W        W 7292   5.811   2.010   0.146
35764W        W 7293   3.912   7.387   3.803
35765W        W 7294  41.603  12.201  10.609
35766W        W 7295  30.777  26.474   2.617
35767W        W 7296   6.703  40.663   1.959
35768W        W 7297  17.483  15.269   5.159
35769W        W 7298  23.030  34.904  14.274
35770W        W 7299  38.688  43.367  10.561
35771W        W 7300  23.178  14.613  10.629
35772W        W 7301  19.629  40.087  12.919
35773W        W 7302  40.329  37.597   2.301
35774W        W 7303  15.223  34.190  12.988
35775W        W 7304  11.322  24.236  12.928
35776W        W 7305  20.930  26.946   4.535
35777W        W 7306  32.436  30.173   4.192
35778W        W 7307   4.397   3.327   9.944
35779W        W 7308  18.792  25.149  14.292
35780W        W 7309  19.150  11.159   4.236
35781W        W 7310   4.289  13.827  11.669
35782W        W 7311  25.383  43.142   2.681
35783W        W 7312  42.920  29.127   4.553
35784W        W 7313  11.660  23.231  12.057
35785W        W 7314  11.641  28.157  14.225
35786W        W 7315   8.118   8.294   1.502
35787W        W 7316  37.040  10.638  14.956
35788W        W 7317  24.397  19.570  13.051
35789W        W 7318  26.746  18.175   2.176
35790W        W 7319  38.487  24.694  11.158
35791W        W 7320  24.274  10.400  12.445
35792W        W 7321  17.588  36.388   0.766
35793W        W 7322  38.407  40.618   0.450
35794W        W 7323   7.369  38.418  14.977
35795W        W 7324  41.556  25.616  12.578
35796W        W 7325   3.442  28.913   2.908
35797W        W 7326  36.047  29.625   0.955
35798W        W 7327  43.508  27.540   2.778
35799W        W 7328   3.769  31.953   2.302
35800W        W 7329  36.525  35.377   3.311
35801W        W 7330  22.585  35.492  13.808
35802W        W 7331   2.664   6.588  13.906
35803W        W 7332  26.956  16.738  11.441
35804W        W 7333  27.382   0.815  10.399
35805W        W 7334  36.939  24.916   1.815
35806W        W 7335  44.906   1.276   0.958
35807W        W 7336  18.799  13.767  13.465
35808W        W 7337  10.051  33.522   4.036
35809W        W 7338  16.593  26.287  14.306
35810W        W 7339  12.887  12.841   3.848
35811W        W 7340   1.141  34.242  10.780
35812W        W 7341   2.794  20.110   1.481
35813W        W 7342   5.556  39.360   0.047
35814W        W 7343   9.761  29.488  12.477
35815W        W 7344  40.530  27.478   4.273
35816W        W 7345  14.018  10.545   3.184
35817W        W 7346  15.783   6.719  13.963
35818W        W 7347  22.736   8.345   0.877
35819W        W 7348  34.875  16.175  11.693
35820W        W 7349   8.813  27.982   2.274
35821W        W 7350   1.784  30.322   1.631
35822W        W 7351  38.406  19.747   3.412
35823W        W 7352  30.706   4.844   2.439
35824W        W 7353  16.500  26.049  14.773
35825W        W 7354   3.195   6.637  12.006
35826W        W 7355  44.907  31.048   4.652
35827W        W 7356  39.786  16.277   3.821
35828W        W 7357  16.907  40.328  12.135
35829W        W 7358  17.302  37.146  10.543
35830W        W 7359  43.079  42.807  14.425
35831W        W 7360  18.677  24.613  11.281
35832W        W 7361  19.324  38.619  14.458
35833W        W 7362   7.802   8.656  11.702
35834W        W 7363   0.216  35.031  12.515
35835W        W 7364  33.404  15.065  13.150
35836W        W 7365  34.901  29.065  10.713
35837W        W 7366  23.312  24.648  13.399
35838W        W 7367  11.083   9.258   4.562
35839W        W 7368  38.747  31.468   4.738
35840W        W 7369   8.905  32.597   0.905
35841W        W 7370  32.412  34.409  10.726
35842W        W 7371  16.990  24.252   2.752
35843W        W 7372   1.391   0.969  14.983
35844W        W 7373   2.759  38.802  11.521
35845W        W 7374   9.119  23.444  10.492
35846W        W 7375   3.487   4.959   4.763
35847W        W 7376  21.298  42.802   4.090
35848W        W 7377  10.720   7.521  14.008
35849W        W 7378  37.454  33.465   1.220
35850W        W 7379  26.432   7.237  12.377
35851W        W 7380   4.283  43.219  11.477
35852W        W 7381  22.703  10.703   4.524
35853W        W 7382  19.096   9.448   2.284
35854W        W 7383  21.558  34.028  14.301
35855W        W 7384  24.267   5.243   4.497
35856W        W 7385  14.011  37.294   3.152
35857W        W 7386  11.310  29.470   1.256
35858W        W 7387  28.696  37.819  14.988
35859W        W 7388  36.963  37.152   1.119
35860W        W 7389  27.416  42.774   1.835
35861W        W 7390  37.118   7.623  13.882
35862W        W 7391  19.290   2.562   3.214
35863W        W 7392  28.447  41.968   3.321
35864W        W 7393  40.875  20.659  10.652
35865W        W 7394   2.730  22.174   3.692
35866W        W 7395   9.256   3.221  11.545
35867W        W 7396  34.711  35.567   4.859
35868W        W 7397  38.741  20.654  12.545
35869W        W 7398  17.658  23.016  11.627
35870W        W 7399  35.453  21.521  11.642
35871W        W 7400  17.057   7.438  12.040
35872W        W 7401  14.823  36.201  10.847
35873W        W 7402  33.987  36.196  13.786
35874W        W 7403  29.096  29.391  12.115
35875W        W 7404   5.985   1.014  12.358
35876W        W 7405  20.230  35.551   4.004
35877W        W 7406  21.634  42.781  11.445
35878W        W 7407   3.948   6.520  11.611
35879W        W 7408  32.386  21.490   1.434
35880W        W 7409  22.120   1.546   1.461
35881W        W 7410  37.658  44.926  11.601
35882W        W 7411  12.565   7.452   0.356
35883W        W 7412   9.933  34.398   4.027
35884W        W 7413  24.344  11.724   4.615
35885W        W 7414   8.910  28.450  14.922
35886W        W 7415  42.374  28.575  11.288
35887W        W 7416  39.939  37.455  11.368
35888W        W 7417   1.937  23.607   2.770
35889W        W 7418   5.984  10.290  12.040
35890W        W 7419  20.572   8.637  10.519
35891W        W 7420  28.489  35.595  13.874
35892W        W 7421  22.208  44.155   0.480
35893W        W 7422  39.784  17.064  12.517
35894W        W 7423  17.817  11.910  13.893
35895W        W 7424   0.340  33.401  11.332
35896W        W 7425  25.939  22.048   3.161
35897W        W 7426  23.673  35.750  12.554
35898W        W 7427  42.321   6.278  12.356
35899W        W 7428  14.635  20.543  11.166
35900W        W 7429   8.952  36.125  12.043
35901W        W 7430  38.526  14.264   2.116
35902W        W 7431  15.228  22.745   3.361
35903W        W 7432   7.654   5.771  14.467
35904W        W 7433  33.118   7.830  10.861
35905W        W 7434  15.930   9.224   3.586
35906W        W 7435  31.471  12.414   2.603
35907W        W 7436  26.637  43.962  13.984
35908W        W 7437   3.026   8.243  12.502
35909W        W 7438  10.541  42.956   1.243
35910W        W 7439  19.751  41.920  11.308
35911W        W 7440  15.534  16.849  11.596
35912W        W 7441  32.165  44.351   3.355
35913W        W 7442  15.292  39.988  10.750
35914W        W 7443  28.020   1.395   4.171
35915W        W 7444  10.349  10.754  11.610
35916W        W 7445  25.243  44.551   0.714
35917W        W 7446  38.475   7.685  13.839
35918W        W 7447   8.833  13.794   4.760
35919W        W 7448  42.516  22.113   1.107
35920W        W 7449  27.987  23.413   1.717
35921W        W 7450  24.862  12.167  12.498
35922W        W 7451   0.429  10.500  13.308
35923W        W 7452  35.860  33.160   3.239
35924W        W 7453  24.993  42.482  14.767
35925W        W 7454  30.125  11.434   3.191
35926W        W 7455  32.389   8.673   0.953
35927W        W 7456   7.993  44.523  14.914
35928W        W 7457  38.672  24.336   4.222
35929W        W 7458  19.219  33.721  14.179
35930W        W 7459  22.587  36.292  13.404
35931W        W 7460  33.038   8.358  12.534
35932W        W 7461  24.521  21.369  12.599
35933W        W 7462  19.801   4.762   2.864
35934W        W 7463  22.723  41.181   3.206
35935W        W 7464  17.358  16.658   4.858
35936W        W 7465  20.944   9.608   3.137
35937W        W 7466   0.867   3.243   0.999
35938W        W 7467  24.195   6.131   1.338
35939W        W 7468  42.453  19.545   4.088
35940W        W 7469   6.714  30.735  12.487
35941W        W 7470   9.815   7.785  13.833
35942W        W 7471   9.889  16.806   3.761
35943W        W 7472  22.686  26.892   1.834
35944W        W 7473  20.962  25.860   2.728
35945W        W 7474   0.907   0.068  12.610
35946W        W 7475  37.920  14.297   1.400
35947W        W 7476  38.988   2.194   0.941
35948W        W 7477  13.350  25.239  14.092
35949W        W 7478   6.222   6.961   0.798
35950W        W 7479  44.436  34.093   1.826
35951W        W 7480   1.616  10.400   4.843
35952W        W 7481  16.195  39.550   1.438
35953W        W 7482  43.819  21.050  12.853
35954W        W 7483  21.597  28.222   3.652
35955W        W 7484  38.063  12.297  11.561
35956W        W 7485  34.423  37.009   3.868
35957W        W 7486  30.623  25.613  13.884
35958W        W 7487  25.134  33.226  12.400
35959W        W 7488  20.925   2.678  14.745
35960W        W 7489  40.124  39.542  12.538
35961W        W 7490  39.771  30.884   1.257
35962W        W 7491   5.830   4.870  12.040
35963W        W 7492  20.365  28.812   2.007
35964W        W 7493  32.393  34.293   2.306
35965W        W 7494  44.831  18.933   1.871
35966W        W 7495  27.798  36.671  10.412
35967W        W 7496  42.963  15.739   2.735
35968W        W 7497  12.672  39.422   2.653
35969W        W 7498  34.387  14.766   2.416
35970W        W 7499  36.334   9.194   2.180
35971W        W 7500  15.305  16.218   0.736
35972W        W 7501  28.802  13.011   3.712
35973W        W 7502  33.362   7.999   0.435
35974W        W 7503  23.062  41.959   3.537
35975W        W 7504  21.533   9.174  12.859
35976W        W 7505  12.102   7.418  12.653
35977W        W 7506  26.090  36.618   0.274
35978W        W 7507  24.195  23.469  10.761
35979W        W 7508  24.524   4.374   2.207
35980W        W 7509   2.686  30.864  13.444
35981W        W 7510  34.903  11.296   3.635
35982W        W 7511  32.286  42.860   2.263
35983W        W 7512  41.819   0.213  11.773
35984W        W 7513  27.533  37.471  14.519
35985W        W 7514   0.231   9.405   0.857
35986W        W 7515  35.505  39.240  14.044
35987W        W 7516  35.583  14.711   4.564
35988W        W 7517  20.285  17.730  11.923
35989W        W 7518  23.497  25.953   3.009
35990W        W 7519   5.216  34.556  13.871
35991W        W 7520  38.559   1.267  13.893
35992W        W 7521  39.497  29.615  11.808
35993W        W 7522   7.094  42.041   0.884
35994W        W 7523  20.550  26.627   4.402
35995W        W 7524  19.834   6.957  14.610
35996W        W 7525  36.987  30.030  13.270
35997W        W 7526  19.824  38.400   1.646
35998W        W 7527  34.843   2.697  13.197
35999W        W 7528  10.277  25.504   0.772
36000W        W 7529  13.096   1.764  12.155
36001W        W 7530  21.889  10.951   4.207
36002W        W 7531   9.317  17.863   4.170
36003W        W 7532  29.545  30.170  13.042
36004W        W 7533  39.233   9.464   3.770
36005W        W 7534  10.640  11.811  12.458
36006W        W 7535  11.403  25.934  10.773
36007W        W 7536  30.011  39.629  13.953
36008W        W 7537  20.070  22.492   3.318
36009W        W 7538  23.582  44.357   0.462
36010W        W 7539  39.541   2.162  12.397
36011W        W 7540  33.900  22.057   4.268
36012W        W 7541  37.048  43.289   1.853
36013W        W 7542  14.257  13.380   2.829
36014W        W 7543  26.975  29.357  13.000
36015W        W 7544  36.753  23.716  11.965
36016W        W 7545  18.594   1.463  14.264
36017W        W 7546   7.551  22.528  14.026
36018W        W 7547  41.222  13.991   5.048
36019W        W 7548  16.841  11.876   4.177
36020W        W 7549  29.199   3.924   3.894
36021W        W 7550  11.815  28.665  14.251
36022W        W 7551   4.773  28.043  13.585
36023W        W 7552  28.615  24.632  14.738
36024W        W 7553  31.215   3.120  11.521
36025W        W 7554  44.387  12.359   2.548
36026W        W 7555  22.895  39.817  11.625
36027W        W 7556  24.649  28.580  14.373
36028W        W 7557  13.755  37.584  13.738
36029W        W 7558   5.586  24.339  11.552
36030W        W 7559  31.447  30.606   2.875
36031W        W 7560  13.176  39.621   2.803
36032W        W 7561  34.530  30.939  11.793
36033W        W 7562   4.907  13.259  10.649
36034W        W 7563  43.265  10.797   1.779
36035W        W 7564  25.860  16.121  12.365
36036W        W 7565  20.522   2.692  11.969
36037W        W 7566  34.063  11.845   1.015
36038W        W 7567  27.733  32.111  11.079
36039W        W 7568  25.273   6.738   1.920
36040W        W 7569   5.278  23.981   0.902
36041W        W 7570  32.564  27.218   0.002
36042W        W 7571  37.867  13.306   1.293
36043W        W 7572  13.672  24.601   3.167
36044W        W 7573  15.272  17.102   0.417
36045W        W 7574  27.938   6.227   5.002
36046W        W 7575   5.124  12.856  14.865
36047W        W 7576   5.044  19.960   1.536
36048W        W 7577   8.865  13.248   0.029
36049W        W 7578   9.879  44.222  12.208
36050W        W 7579  16.551   6.996  13.515
36051W        W 7580  32.187  20.017  11.603
36052W        W 7581  10.343  30.690   2.812
36053W        W 7582  42.361  37.078   4.420
36054W        W 7583  39.879  31.646  12.039
36055W        W 7584  25.741  25.703  14.974
36056W        W 7585  12.431   5.903   0.906
36057W        W 7586  16.161  38.432   2.193
36058W        W 7587  28.637  11.153   1.273
36059W        W 7588  14.271  40.643   3.834
36060W        W 7589  37.782  42.262   4.850
36061W        W 7590  11.080  41.767   2.437
36062W        W 7591  25.649  23.134  13.982
36063W        W 7592  10.398  35.427  10.833
36064W        W 7593  20.015  25.532   4.110
36065W        W 7594  43.925  18.424  11.515
36066W        W 7595  29.879  22.635  10.775
36067W        W 7596  15.618  18.775  14.816
36068W        W 7597  34.394  25.501  13.033
36069W        W 7598  12.704  36.831   4.979
36070W        W 7599  23.233  41.023   3.392
36071W        W 7600  29.727  26.694  10.638
36072W        W 7601   6.943  23.442   1.293
36073W        W 7602  33.602  31.573   1.179
36074W        W 7603  38.473  24.743   4.451
36075W        W 7604  15.782  35.667  12.366
36076W        W 7605  11.343  40.576   5.024
36077W        W 7606   6.846  13.186   3.764
36078W        W 7607  19.264  25.574   2.590
36079W        W 7608  34.205  42.888  11.156
36080W        W 7609  38.054  39.454  14.342
36081W        W 7610   3.935   2.982  12.533
36082W        W 7611  20.593  22.302   3.900
36083W        W 7612  41.534  38.172   1.785
36084W        W 7613  18.930   7.681   5.054
36085W        W 7614  25.691  43.319   3.827
36086W        W 7615  41.218  15.788   1.809
36087W        W 7616  20.968  29.553  14.710
36088W        W 7617  44.410  34.620  10.972
36089W        W 7618  14.867  23.673  13.648
36090W        W 7619   6.195  31.626  12.966
36091W        W 7620   9.289  20.643  10.622
36092W        W 7621  15.842  21.607  14.195
36093W        W 7622   6.946  36.149   0.950
36094W        W 7623  25.958  11.388   1.384
36095W        W 7624  30.762  21.971  14.938
36096W        W 7625   2.122  35.181  12.012
36097W        W 7626   8.842  44.662  12.111
36098W        W 7627  25.620  39.417   4.608
36099W        W 7628  33.161   2.351  14.328
36100W        W 7629   4.835  27.683  10.196
36101W        W 7630  16.411  37.948  12.861
36102W        W 7631  32.036   9.654  11.594
36103W        W 7632  11.022  28.587   4.489
36104W        W 7633  43.896  15.038   2.200
36105W        W 7634  30.965  12.852   4.112
36106W        W 7635   7.645  44.867   0.102
36107W        W 7636  40.350  17.118   4.610
36108W        W 7637  37.875   4.821   3.703
36109W        W 7638   7.655  15.213   2.731
36110W        W 7639  20.128  33.469  11.523
36111W        W 7640  20.730  27.509  14.961
36112W        W 7641  28.555  44.049   0.912
36113W        W 7642  31.969  43.435  12.090
36114W        W 7643   1.087  13.609  12.898
36115W        W 7644  29.879  19.686   2.274
36116W        W 7645  27.462  43.404   0.512
36117W        W 7646  15.829  21.004  12.466
36118W        W 7647  10.348  15.912  11.228
36119W        W 7648   3.480   8.637  11.220
36120W        W 7649  42.836  43.536  10.329
36121W        W 7650   2.692  32.059   4.606
36122W        W 7651  12.432   9.088  14.070
36123W        W 7652  40.255   9.887   1.004
36124W        W 7653   4.152  35.300   0.401
36125W        W 7654  22.218  22.215   1.460
36126W        W 7655  42.837  26.436   1.298
36127W        W 7656   9.981  21.366   1.289
36128W        W 7657  12.419  28.084  11.541
36129W        W 7658  10.570  15.703   4.770
36130W        W 7659  16.403  24.205   3.766
36131W        W 7660  10.924  24.250   2.314
36132W        W 7661  36.138  19.240   1.298
36133W        W 7662   0.880  44.719  14.891
36134W        W 7663   9.211  40.089   0.970
36135W        W 7664   0.629   6.170   3.120
36136W        W 7665  37.553   1.542  14.382
36137W        W 7666  28.819   7.146  13.516
36138W        W 7667  17.873  35.197   3.085
36139W        W 7668  13.266  20.595   2.581
36140W        W 7669  26.577  41.784  11.576
36141W        W 7670  20.030  31.501   1.711
36142W        W 7671  25.327  40.013   3.890
36143W        W 7672  26.936  36.443  10.776
36144W        W 7673   5.784   3.807  12.783
36145W        W 7674  15.826  27.314  13.385
36146W        W 7675   6.606   3.358  14.687
36147W        W 7676   2.836  17.803   0.783
36148W        W 7677  35.952  42.286   1.777
36149W        W 7678  36.108   6.971  14.534
36150W        W 7679  17.768  12.616   1.698
36151W        W 7680   4.822  44.278   1.500
36152W        W 7681  34.080  36.801   0.000
36153W        W 7682   2.870  30.629   0.795
36154W        W 7683  35.140  16.442  13.949
36155W        W 7684  39.835   2.870  12.423
36156W        W 7685   2.038  17.631   0.533
36157W        W 7686  18.522  31.679   4.524
36158W        W 7687  40.537  23.136  13.515
36159W        W 7688   2.726   3.750   4.734
36160W        W 7689  24.092  34.359   1.848
36161W        W 7690  13.977  17.518  11.508
36162W        W 7691  38.348   7.377  13.433
36163W        W 7692  26.509  13.935  11.599
36164W        W 7693  12.182  43.218   1.751
36165W        W 7694  42.014  26.749  11.538
36166W        W 7695  30.242  26.936  13.683
36167W        W 7696   3.821  20.592  10.606
36168W        W 7697  17.256  26.450   3.634
36169W        W 7698  21.069  29.206  12.491
36170W        W 7699  36.571  29.906  14.765
36171W        W 7700  40.265  38.542   0.280
36172W        W 7701  14.774  32.114   0.547
36173W        W 7702   1.017  33.943   3.058
36174W        W 7703  24.596   5.452  11.293
36175W        W 7704  38.218   8.422   1.836
36176W        W 7705   6.412   0.802  14.040
36177W        W 7706  31.947  38.805   0.795
36178W        W 7707  21.413  12.255  10.582
36179W        W 7708   7.512  30.186   2.707
36180W        W 7709   9.272   8.443  12.349
36181W        W 7710  36.322  17.652   4.798
36182W        W 7711  22.047   4.656  13.543
36183W        W 7712  22.641   0.405   4.945
36184W        W 7713  16.964  11.155   0.034
36185W        W 7714  28.768  37.812  11.903
36186W        W 7715  30.696   6.442  14.335
36187W        W 7716  37.832   2.888  11.516
36188W        W 7717  29.494  21.369  11.167
36189W        W 7718  16.593  34.180   2.910
36190W        W 7719  34.474   6.453  14.002
36191W        W 7720  19.094  40.451   3.426
36192W        W 7721   1.235  19.856   3.836
36193W        W 7722  28.986  19.135  14.966
36194W        W 7723  13.421  24.544  11.945
36195W        W 7724  21.804  18.049  13.107
36196W        W 7725  25.619  37.876  11.522
36197W        W 7726  19.321  17.055   4.700
36198W        W 7727  43.214  44.039  13.834
36199W        W 7728  10.417   6.293  10.643
36200W        W 7729  40.917   9.916  12.534
36201W        W 7730  44.928  12.676   4.296
36202W        W 7731  15.779  16.687   1.444
36203W        W 7732  41.834  31.170  13.050
36204W        W 7733  23.239  35.920   4.951
36205W        W 7734  31.015  15.239  12.050
36206W        W 7735  34.348  11.961  12.916
36207W        W 7736  34.499  12.647  14.813
36208W        W 7737   3.708  26.229   0.243
36209W        W 7738  13.671  41.428  14.831
36210W        W 7739  12.694  10.087  12.132
36211W        W 7740   7.006  23.054   0.970
36212W        W 7741  20.777   0.847  10.746
36213W        W 7742  38.850  43.849  10.727
36214W        W 7743  42.766  39.796  10.615
36215W        W 7744  40.435  16.034   3.237
36216W        W 7745  13.423  40.977   1.825
36217W        W 7746  42.764  19.672   1.114
36218W        W 7747  24.766  26.639  10.598
36219W        W 7748  21.395   0.937  12.563
36220W        W 7749   5.667   3.956  14.296
36221W        W 7750  22.239  24.526  14.843
36222W        W 7751  13.191   0.715  11.085
36223W        W 7752  17.699  42.265  14.448
36224W        W 7753  20.701  36.476  10.900
36225W        W 7754   3.898  37.938  11.200
36226W        W 7755   9.854  34.117   3.576
36227W        W 7756   5.145  44.990  13.612
36228W        W 7757  18.149  41.619  12.482
36229W        W 7758  41.069  29.513   2.316
36230W        W 7759   1.838  26.734   3.165
36231W        W 7760  43.860  26.949   4.547
36232W        W 7761  27.965  17.158  12.862
36233W        W 7762  31.130  31.545   3.676
36234W        W 7763  10.857  28.658   2.204
36235W        W 7764  12.129  25.743  11.073
36236W        W 7765  25.508  38.362   3.282
36237W        W 7766  25.049  34.809  13.457
36238W        W 7767  34.595  25.587  14.921
36239W        W 7768  25.022  16.211  14.181
36240W        W 7769  42.358  29.346   4.167
36241W        W 7770   8.686  19.304   4.015
36242W        W 7771  42.514   0.454  14.766
36243W        W 7772  10.966   9.945   0.411
36244W        W 7773  17.326  38.424   2.902
36245W        W 7774  29.101  36.371  14.974
36246W        W 7775  39.531  33.996   1.688
36247W        W 7776  31.422  43.407  12.153
36248W        W 7777  16.804  41.298  12.070
36249W        W 7778  28.920  34.656  13.032
36250W        W 7779  42.868  26.531   3.111
36251W        W 7780  16.171  30.757   0.438
36252W        W 7781  32.153  15.131   1.246
36253W        W 7782  26.066  44.048  10.567
36254W        W 7783  35.809  15.191  12.463
36255W        W 7784  28.918  36.144   1.882
36256W        W 7785  39.523  24.894   1.794
36257W        W 7786  28.394  37.425  12.074
36258W        W 7787  26.914   9.996  14.556
36259W        W 7788  25.205  12.795   1.234
36260W        W 7789  10.290  11.590   1.860
36261W        W 7790  37.033   1.225  12.540
36262W        W 7791  13.921  26.247   1.717
36263W        W 7792  33.654  26.101  11.964
36264W        W 7793  28.248  22.727  12.445
36265W        W 7794  27.675  30.037   0.733
36266W        W 7795  13.065  16.770  14.522
36267W        W 7796  35.024  44.364  14.669
36268W        W 7797   1.827   1.464   4.165
36269W        W 7798  34.894  13.598   1.409
36270W        W 7799  39.975  36.972  11.964
36271W        W 7800  15.078  18.621  11.500
36272W        W 7801  20.681  28.523  10.506
36273W        W 7802  10.236  42.804  10.612
36274W        W 7803  27.087  33.231  11.454
36275W        W 7804  14.227  35.632   2.821
36276W        W 7805  10.863  26.150  13.739
36277W        W 7806  18.282  28.040   3.657
36278W        W 7807  39.863  43.446   3.253
36279W        W 7808  25.218  20.687   3.790
36280W        W 7809  22.014  40.185  11.114
36281W        W 7810  14.935  17.186   0.823
36282W        W 7811  31.128  22.691   2.826
36283W        W 7812   2.330  15.013  10.462
36284W        W 7813  12.809  43.365  14.529
36285W        W 7814  21.512  17.742  14.446
36286W        W 7815  43.892   2.894  13.303
36287W        W 7816  32.365  41.789   3.238
36288W        W 7817  36.992  32.623   4.432
36289W        W 7818  43.134   6.876  14.019
36290W        W 7819  21.181  28.095   0.390
36291W        W 7820   8.047   7.615   3.638
36292W        W 7821   2.743   3.329   4.426
36293W        W 7822  28.088  44.187   4.619
36294W        W 7823  36.476  26.164  11.433
36295W        W 7824  22.698   9.582   2.751
36296W        W 7825  15.092  36.935   3.734
36297W        W 7826  19.633  21.453  10.559
36298W        W 7827  23.943  24.454  14.232
36299W        W 7828  17.498  37.128  11.056
36300W        W 7829  22.239   3.199   4.076
36301W        W 7830  37.944  22.597  14.910
36302W        W 7831  20.507  38.083  10.638
36303W        W 7832  28.546  25.480   0.251
36304W        W 7833   1.242   5.218  12.330
36305W        W 7834  28.686   1.508  10.872
36306W        W 7835   2.504   6.880  12.481
36307W        W 7836   9.694  18.680  11.085
36308W        W 7837   4.596  42.589   3.295
36309W        W 7838  44.360  23.451  14.795
36310W        W 7839  31.390  33.058  13.381
36311W        W 7840  16.576  32.233   5.012
36312W        W 7841  37.132  17.072  13.334
36313W        W 7842   0.340   1.791   0.715
36314W        W 7843  23.077  36.780   2.399
36315W        W 7844  17.575  32.965   3.103
36316W        W 7845  29.524  21.339  14.968
36317W        W 7846  34.402   3.660  12.455
36318W        W 7847  16.987  39.356   0.613
36319W        W 7848  22.250  18.747   0.319
36320W        W 7849  43.363   4.346  13.540
36321W        W 7850  21.986  30.202   1.463
36322W        W 7851  34.538  37.861   0.968
36323W        W 7852  42.783   7.628   5.078
36324W        W 7853   2.193   3.939  13.900
36325W        W 7854   2.512  16.061   3.187
36326W        W 7855  18.883   1.754  12.492
36327W        W 7856  21.507  24.175  11.666
36328W        W 7857  30.339  13.275  11.716
36329W        W 7858  30.495  43.584  12.890
36330W        W 7859  40.364  34.995  12.972
36331W        W 7860  26.595  20.231  14.448
36332W        W 7861  33.842  44.550  14.466
36333W        W 7862  44.942  42.422  12.006
36334W        W 7863   0.835  17.856  13.257
36335W        W 7864   0.898  31.471   3.274
36336W        W 7865  23.136  19.625   4.030
36337W        W 7866  10.779  20.664   3.795
36338W        W 7867  29.097  25.776   1.942
36339W        W 7868  34.977  34.640  11.620
36340W        W 7869  37.589  30.831  12.144
36341W        W 7870   7.668  36.568   2.370
36342W        W 7871  21.326  18.382   0.414
36343W        W 7872  36.535   7.663   1.655
36344W        W 7873   5.246  13.587   0.927
36345W        W 7874  18.694  31.199  14.175
36346W        W 7875  15.131  30.123  11.618
36347W        W 7876  26.119  33.462  13.900
36348W        W 7877  15.923   3.658   1.786
36349W        W 7878  14.385  44.499  12.107
36350W        W 7879  44.072  40.590  11.308
36351W        W 7880   7.733  40.788  10.685
36352W        W 7881  28.406  35.027   5.165
36353W        W 7882  44.074  25.978  11.112
36354W        W 7883  18.190  41.094  13.963
36355W        W 7884   7.461   8.026  13.376
36356W        W 7885  19.770  24.772  13.042
36357W        W 7886  16.397   8.818   3.812
36358W        W 7887  17.661  36.149   3.694
36359W        W 7888  18.188  38.015  14.896
36360W        W 7889  42.422  44.438  12.405
36361W        W 7890  35.640  40.025   1.369
36362W        W 7891  32.409  10.792   0.028
36363W        W 7892  38.092   5.824   2.670
36364W        W 7893  30.575  14.554   3.341
36365W        W 7894  27.919   0.037   1.058
36366W        W 7895  25.222  28.799   3.622
36367W        W 7896  17.986  34.852  14.950
36368W        W 7897   8.165  30.081   4.410
36369W        W 7898  34.443  18.672   0.977
36370W        W 7899  42.268  20.062  14.373
36371W        W 7900   8.822  19.780   4.193
36372W        W 7901  18.108  42.191   3.091
36373W        W 7902  25.045   1.125  13.979
36374W        W 7903  33.548  15.492  11.796
36375W        W 7904  33.706  17.179  12.544
36376W        W 7905   0.206  18.689   3.764
36377W        W 7906  43.433  30.647   4.740
36378W        W 7907  39.149  23.896  13.102
36379W        W 7908  30.857  34.865   4.836
36380W        W 7909   0.685  23.570  12.757
36381W        W 7910  14.081  13.535   0.364
36382W        W 7911  17.652  43.084   9.938
36383W        W 7912  21.381  31.831   4.584
36384W        W 7913  28.085   2.428   1.567
36385W        W 7914  40.076   0.432  13.714
36386W        W 7915  30.132  25.750  12.942
36387W        W 7916  44.014  31.711  10.761
36388W        W 7917  26.275   9.113   4.980
36389W        W 7918  39.369  28.624  11.737
36390W        W 7919  26.578  28.044   1.880
36391W        W 7920  40.987  30.531   0.786
36392W        W 7921   1.221  20.111  14.943
36393W        W 7922  20.181  33.326   3.741
36394W        W 7923  19.549  14.156  11.258
36395W        W 7924  21.725  42.567  12.991
36396W        W 7925  10.587  41.119   2.841
36397W        W 7926  32.288  24.774   0.926
36398W        W 7927   3.486  39.828  13.400
36399W        W 7928  30.500  39.203  12.450
36400W        W 7929  41.479  27.527   2.405
36401W        W 7930  37.509  12.393  11.249
36402W        W 7931  26.564  17.932   1.213
36403W        W 7932  26.808   2.222  12.672
36404W        W 7933  41.704   7.218   0.499
36405W        W 7934  20.657   8.262   2.599
36406W        W 7935  32.168  39.063   1.763
36407W        W 7936  29.886  21.038  11.157
36408W        W 7937  23.651  37.479   0.017
36409W        W 7938  34.549   1.278  13.636
36410W        W 7939  11.195  17.611  12.951
36411W        W 7940  17.611  15.731   2.852
36412W        W 7941  34.077  27.686  14.678
36413W        W 7942   0.638   2.295   4.629
36414W        W 7943  40.087  15.785   0.200
36415W        W 7944  32.880   3.110  14.717
36416W        W 7945  24.522  11.392   0.375
36417W        W 7946  32.909  21.115   1.021
36418W        W 7947  27.499  38.247   0.374
36419W        W 7948  16.318  15.886  14.524
36420W        W 7949  29.155  40.791  11.556
36421W        W 7950  16.178  35.472  14.478
36422W        W 7951  23.199   1.891  12.465
36423W        W 7952  37.325  36.006   4.536
36424W        W 7953   8.738   9.691   3.866
36425W        W 7954  36.425  10.365   3.608
36426W        W 7955  30.157   5.487  12.070
36427W        W 7956  25.672   3.246   4.731
36428W        W 7957  34.072  35.711  11.333
36429W        W 7958  34.458   7.279   1.903
36430W        W 7959  21.315   0.849  13.471
36431W        W 7960  16.675  32.912   1.673
36432W        W 7961  30.892  32.798  10.694
36433W        W 7962   9.811   0.407   4.133
36434W        W 7963  19.027   4.792   4.530
36435W        W 7964   6.670   3.043  14.251
36436W        W 7965  25.206  38.790  11.855
36437W        W 7966  26.645  41.440  12.949
36438W        W 7967  12.852  40.320  14.327
36439W        W 7968   6.329  42.731   1.243
36440W        W 7969  14.612  10.938  14.804
36441W        W 7970  26.265   7.761   2.857
36442W        W 7971  23.003  13.695   2.265
36443W        W 7972   7.777   1.819  10.688
36444W        W 7973  12.356  44.343  10.886
36445W        W 7974  22.665  34.793  12.606
36446W        W 7975  12.162  13.844   0.240
36447W        W 7976  43.674  24.534   3.951
36448W        W 7977  28.542   7.658  14.828
36449W        W 7978  12.693  10.593   0.762
36450W        W 7979  23.659  11.139   0.229
36451W        W 7980  38.292   4.477   2.523
36452W        W 7981  44.680   3.961   1.711
36453W        W 7982  44.261  19.191   4.723
36454W        W 7983  21.656  44.325  11.640
36455W        W 7984  35.532  16.674  11.262
36456W        W 7985  35.059  22.279  13.202
36457W        W 7986  11.597  24.498  12.084
36458W        W 7987  25.512  13.873  14.024
36459W        W 7988  20.712  33.553   3.716
36460W        W 7989  33.202  36.516  12.501
36461W        W 7990  31.406  30.999  12.494
36462W        W 7991   8.098   0.898   5.385
36463W        W 7992  29.165  21.651   3.407
36464W        W 7993  25.030   7.916   2.215
36465W        W 7994  28.149  14.929   1.290
36466W        W 7995  15.027  22.746  12.111
36467W        W 7996  17.460  17.960  13.411
36468W        W 7997   9.974   1.364  13.967
36469W        W 7998   4.718  14.679  10.162
36470W        W 7999  15.996  39.704  12.899
36471W        W 8000  32.572  40.114   3.954
36472W        W 8001  32.486  32.161   0.337
36473W        W 8002   7.146  13.158   2.529
36474W        W 8003   6.738  27.084   2.239
36475W        W 8004  23.218  36.040  12.395
36476W        W 8005   4.255  31.336   2.414
36477W        W 8006   1.595  14.300   4.338
36478W        W 8007  37.810   1.832   1.252
36479W        W 8008  20.095   8.682  11.108
36480W        W 8009  37.545   2.064  14.409
36481W        W 8010  15.211  37.060   0.416
36482W        W 8011  19.907  32.704  13.601
36483W        W 8012  34.530  25.642   1.744
36484W        W 8013  30.249  32.381  11.180
36485W        W 8014  44.366   2.405  12.919
36486W        W 8015  20.802  10.159  13.476
36487W        W 8016  10.299  14.278   3.579
36488W        W 8017  14.375  17.405   3.137
36489W        W 8018  16.201  22.314  13.913
36490W        W 8019  11.751   1.279  13.758
36491W        W 8020  13.747  17.754  14.737
36492W        W 8021  41.447  22.168   2.468
36493W        W 8022  39.626  14.492   4.974
36494W        W 8023  35.479  43.293  12.795
36495W        W 8024  40.469   5.979  12.529
36496W        W 8025  27.856   6.606   0.822
36497W        W 8026  31.584   7.441  14.236
36498W        W 8027  13.632  34.115   1.421
36499W        W 8028  42.839  11.131  14.763
36500W        W 8029  34.329  35.508   0.842
36501W        W 8030  39.048  11.625  12.193
36502W        W 8031  37.449   8.087   4.205
36503W        W 8032   1.433  19.617   0.693
36504W        W 8033  13.133  16.597  11.136
36505W        W 8034  14.290  44.304  10.605
36506W        W 8035   0.366   0.452   1.148
36507W        W 8036  33.863  24.163   4.113
36508W        W 8037   9.413  19.087   5.138
36509W        W 8038  13.225   1.040  10.695
36510W        W 8039  26.174  35.609   1.889
36511W        W 8040  30.133  35.453   3.602
36512W        W 8041  12.621   5.454   3.558
36513W        W 8042  34.398  37.632  11.587
36514W        W 8043   2.966  37.665  14.076
36515W        W 8044  36.420  10.167   1.268
36516W        W 8045   2.334   8.394   1.156
36517W        W 8046   9.800  27.151   3.794
36518W        W 8047  17.013  11.244   2.482
36519W        W 8048  44.667  32.845  10.333
36520W        W 8049   2.967  35.989   4.234
36521W        W 8050  36.944  37.507   0.026
36522W        W 8051   7.469  27.506  14.514
36523W        W 8052   8.615  27.124   1.307
36524W        W 8053  40.039   9.027   1.249
36525W        W 8054   0.200  41.853  14.753
36526W        W 8055  36.458   1.600   4.887
36527W        W 8056  26.696  37.457   0.279
36528W        W 8057   3.848  24.505   2.748
36529W        W 8058   5.301  37.556   2.639
36530W        W 8059   3.353  28.690   1.879
36531W        W 8060   4.056  20.718   2.297
36532W        W 8061  19.808  19.567  11.599
36533W        W 8062  29.420  29.022   2.227
36534W        W 8063   8.847   9.305   4.318
36535W        W 8064  22.173  20.572  12.121
36536W        W 8065  15.071  33.806   2.671
36537W        W 8066  37.350   2.293   4.368
36538W        W 8067  20.169  38.981   1.847
36539W        W 8068   9.084  43.669   2.722
36540W        W 8069  43.464  11.860  10.833
36541W        W 8070   4.722  10.685  12.097
36542W        W 8071  38.384  13.790  10.676
36543W        W 8072  22.425  41.106  10.703
36544W        W 8073  22.701  41.085   1.743
36545W        W 8074  26.284  15.825  12.674
36546W        W 8075  43.974  30.017   2.205
36547W        W 8076   1.647   2.320   3.597
36548W        W 8077  21.372  35.681   0.078
36549W        W 8078  35.341   6.555   2.531
36550W        W 8079  38.031  31.838  13.035
36551W        W 8080  22.746  19.075   2.367
36552W        W 8081  41.921  30.370  10.298
36553W        W 8082  12.562  33.737   0.780
36554W        W 8083  37.963  28.009   3.711
36555W        W 8084  20.117  20.622  14.278
36556W        W 8085  27.685  12.563  11.608
36557W        W 8086   2.457  37.536  12.091
36558W        W 8087  20.762  15.108  12.026
36559W        W 8088  25.691  17.129  13.423
36560W        W 8089  32.855  18.834   4.152
36561W        W 8090  25.998  12.297   1.266
36562W        W 8091  15.639  24.173   4.522
36563W        W 8092  17.062   0.831  14.884
36564W        W 8093  14.427  38.437  14.983
36565W        W 8094  32.531  29.281   5.062
36566W        W 8095  35.005  19.312   4.848
36567W        W 8096  15.139  33.513   1.762
36568W        W 8097  24.175  18.218  14.326
36569W        W 8098  24.103  37.621  14.835
36570W        W 8099  21.766  22.703  12.016
36571W        W 8100  27.415  38.556  11.390
36572W        W 8101  37.264  24.064   0.331
36573W        W 8102  17.622   6.458   4.281
36574W        W 8103  11.809  26.874  11.605
36575W        W 8104  39.978  34.167  11.180
36576W        W 8105  37.839  11.594  14.884
36577W        W 8106  30.560   3.860  10.543
36578W        W 8107   5.706  22.546  10.691
36579W        W 8108  44.834  41.144  14.890
36580W        W 8109  21.031  36.929   2.346
36581W        W 8110  16.186  24.555   4.568
36582W        W 8111  19.515  35.292  13.353
36583W        W 8112  40.003  13.908  13.123
36584W        W 8113  21.093  36.389   3.104
36585W        W 8114  37.788  29.214  11.666
36586W        W 8115   5.337  36.963   4.056
36587W        W 8116  30.606   1.536  14.779
36588W        W 8117  15.394  19.690  11.936
36589W        W 8118  42.985  39.310   4.226
36590W        W 8119   7.124  41.905  13.660
36591W        W 8120  16.844  11.212   3.135
36592W        W 8121  29.190  36.564  11.302
36593W        W 8122  37.951   8.493   0.081
36594W        W 8123  26.065   4.456  14.071
36595W        W 8124  35.925  20.872   1.901
36596W        W 8125  23.630  21.547  11.163
36597W        W 8126  33.381  23.397   0.777
36598W        W 8127  14.330  43.463  10.719
36599W        W 8128   3.474  35.963   4.201
36600W        W 8129  17.328  38.556   1.203
36601W        W 8130   0.881  22.508  11.327
36602W        W 8131  35.327   9.395  13.917
36603W        W 8132   1.932  42.046  14.676
36604W        W 8133  26.462   1.229   3.055
36605W        W 8134  14.284  28.661   0.183
36606W        W 8135  29.705   2.529  11.447
36607W        W 8136   7.726  26.435   1.436
36608W        W 8137  27.570   9.855  14.996
36609W        W 8138  17.492   7.293   0.578
36610W        W 8139  21.465  18.285   2.245
36611W        W 8140  10.591  36.937  11.617
36612W        W 8141  12.903   7.193   3.143
36613W        W 8142  13.551  27.013   2.268
36614W        W 8143  15.656  13.612   2.365
36615W        W 8144  33.984  41.254  11.163
36616W        W 8145   7.656  26.405  12.190
36617W        W 8146  26.002  31.442   3.770
36618W        W 8147  32.029  38.462  14.961
36619W        W 8148  24.975  11.140  13.862
36620W        W 8149  11.323   0.389  12.402
36621W        W 8150  33.111   3.722   4.218
36622W        W 8151  16.354  18.042  10.150
36623W        W 8152  21.385  35.046   3.660
36624W        W 8153  11.455  19.119  14.938
36625W        W 8154  33.839  31.518   4.842
36626W        W 8155  44.368  19.140  14.698
36627W        W 8156  39.357  31.848   4.159
36628W        W 8157   3.585  27.252  14.315
36629W        W 8158  13.006  31.510   2.835
36630W        W 8159  41.346   7.385  13.622
36631W        W 8160  15.566  34.386   0.740
36632W        W 8161  29.730  23.636   1.297
36633W        W 8162  36.475  17.194   3.074
36634W        W 8163   8.889  29.972  13.963
36635W        W 8164  10.962  20.115  13.940
36636W        W 8165   5.793  28.582  14.088
36637W        W 8166   2.729  32.949  12.799
36638W        W 8167  10.372  31.697   2.286
36639W        W 8168  41.748  30.500   3.615
36640W        W 8169  22.894  34.017  14.103
36641W        W 8170   5.471   1.733   4.603
36642W        W 8171  36.217  22.486   4.349
36643W        W 8172  24.954  17.693   0.945
36644W        W 8173  28.059  32.370   1.813
36645W        W 8174  19.622  14.240   4.559
36646W        W 8175  11.194  26.964  13.867
36647W        W 8176  37.791   9.941  11.516
36648W        W 8177  37.903  43.342  12.954
36649W        W 8178  23.075  19.009   3.354
36650W        W 8179  11.134  34.068   0.990
36651W        W 8180  15.281  16.694   2.593
36652W        W 8181   4.858  21.304   4.054
36653W        W 8182  14.728  39.701   0.259
36654W        W 8183  20.032  10.923  12.349
36655W        W 8184  24.526  33.660  11.594
36656W        W 8185  36.078   2.702   0.325
36657W        W 8186  37.166  36.769  11.124
36658W        W 8187   6.459  23.569   3.758
36659W        W 8188  34.318  20.230   0.955
36660W        W 8189  41.981  22.710  13.041
36661W        W 8190  14.766   6.121   3.551
36662W        W 8191  18.184  31.794  11.910
36663W        W 8192  36.331  24.445   1.098
36664W        W 8193  37.939   0.516  13.020
36665W        W 8194  32.971   0.269  11.464
36666W        W 8195  43.504  35.101  14.031
36667W        W 8196  43.458  23.971   4.137
36668W        W 8197  22.713   4.282   4.811
36669W        W 8198  18.483  14.144   1.846
36670W        W 8199  27.050   5.643   2.756
36671W        W 8200   4.417  25.503   2.768
36672W        W 8201  30.665  25.051   2.888
36673W        W 8202  26.438  39.114   2.685
36674W        W 8203  39.657  25.150   3.223
36675W        W 8204  43.568  40.882   0.138
36676W        W 8205  40.489  33.831  13.286
36677W        W 8206  12.245   3.450  12.158
36678W        W 8207  43.947   1.351   3.768
36679W        W 8208  15.733   1.491  13.786
36680W        W 8209  15.993   7.062   4.970
36681W        W 8210  42.295  38.734  11.195
36682W        W 8211   7.828  44.393   0.409
36683W        W 8212  35.360  31.391   4.783
36684W        W 8213  39.118  21.167   2.821
36685W        W 8214  28.091  22.737   4.717
36686W        W 8215  12.214  32.914  12.283
36687W        W 8216  43.041  37.260  14.270
36688W        W 8217  14.309   6.252   5.447
36689W        W 8218  27.940  39.357   0.017
36690W        W 8219  22.303  22.184  10.254
36691W        W 8220  43.434  42.668   3.638
36692W        W 8221   7.503  37.515  10.311
36693W        W 8222   1.816  37.942  10.477
36694W        W 8223  43.948  34.324  12.529
36695W        W 8224  23.864  25.456  12.424
36696W        W 8225   2.448  26.517  10.586
36697W        W 8226  41.225  11.426  13.896
36698W        W 8227  18.145  18.312  14.684
36699W        W 8228  12.048   3.227   4.693
36700W        W 8229  44.475  11.873  12.920
36701W        W 8230   1.324  42.964   0.150
36702W        W 8231  43.373   3.280  12.513
36703W        W 8232  19.321   8.670   3.117
36704W        W 8233  11.898  18.329   2.920
36705W        W 8234   7.428  24.402  12.815
36706W        W 8235   6.712  27.924  11.316
36707W        W 8236  38.941  33.369  13.403
36708W        W 8237  38.359  17.204  11.591
36709W        W 8238  40.589  35.388   4.963
36710W        W 8239   2.880  31.480   0.197
36711W        W 8240  24.010   3.240  14.831
36712W        W 8241   9.875  16.063  11.090
36713W        W 8242   0.439   7.221   0.985
36714W        W 8243  36.962  40.102  13.984
36715W        W 8244  34.853   0.476   3.576
36716W        W 8245  30.445  17.632   4.664
36717W        W 8246   5.267  11.160  10.677
36718W        W 8247  31.940  38.817  10.914
36719W        W 8248  21.963  26.294   2.082
36720W        W 8249   9.807  14.994  13.893
36721W        W 8250  20.568  18.748  13.602
36722W        W 8251  40.416  40.161  12.573
36723W        W 8252  33.316  31.106  14.708
36724W        W 8253  29.447  13.291   4.938
36725W        W 8254  38.641  44.241   3.270
36726W        W 8255  39.216  37.973  13.067
36727W        W 8256  31.733  23.745  12.492
36728W        W 8257  12.716   0.228   1.231
36729W        W 8258  31.888  31.920  10.601
36730W        W 8259  27.032  12.992  13.619
36731W        W 8260  29.714  12.834   3.737
36732W        W 8261  19.684  36.782   1.913
36733W        W 8262   0.291  31.238  11.686
36734W        W 8263  13.134  14.258  12.407
36735W        W 8264   7.744  20.222  10.601
36736W        W 8265   1.905  17.968   2.831
36737W        W 8266  12.698  29.883   0.888
36738W        W 8267  18.104  19.920  11.134
36739W        W 8268  12.629  40.447   4.629
36740W        W 8269  36.337  35.035  10.781
36741W        W 8270  10.795  19.225  11.620
36742W        W 8271  44.103  21.549  13.518
36743W        W 8272  11.859  42.304  11.133
36744W        W 8273  13.447  26.989  13.548
36745W        W 8274  11.295   3.216   0.065
36746W        W 8275   5.012  27.236   3.685
36747W        W 8276  10.227   7.110   4.517
36748W        W 8277  19.393   2.053   0.773
36749W        W 8278  26.644   8.291   1.492
36750W        W 8279  36.986   5.962  12.492
36751W        W 8280  35.692  29.663   4.204
36752W        W 8281   1.327   8.194  11.695
36753W        W 8282  22.643  18.068   1.694
36754W        W 8283  33.917  39.115   4.677
36755W        W 8284  38.203   5.827   4.547
36756W        W 8285  19.290  17.262  11.937
36757W        W 8286  38.440  22.590   2.235
36758W        W 8287   1.767  42.538  14.507
36759W        W 8288  15.564  42.846  12.822
36760W        W 8289  33.999  23.789  11.694
36761W        W 8290   5.714  22.227  11.480
36762W        W 8291  29.172   2.342  10.715
36763W        W 8292  11.132  17.766  12.067
36764W        W 8293   1.866   6.633  13.511
36765W        W 8294  28.212   1.247  11.607
36766W        W 8295  29.127  28.240   4.446
36767W        W 8296   5.439   8.897  14.091
36768W        W 8297  40.528   2.879   0.238
36769W        W 8298  14.007  25.956  12.290
36770W        W 8299  13.652  16.101  12.400
36771W        W 8300   5.430   3.848   0.850
36772W        W 8301  10.761  42.795  14.252
36773W        W 8302  22.504   5.190   3.213
36774W        W 8303  38.727  22.485  12.686
36775W        W 8304  30.214  32.524  12.040
36776W        W 8305  20.035  39.830   2.093
36777W        W 8306  33.366  34.796  13.093
36778W        W 8307  30.614  26.426   3.638
36779W        W 8308  37.394  21.111  12.999
36780W        W 8309  25.497  40.471  11.154
36781W        W 8310  37.977  25.162   2.558
36782W        W 8311  34.387  28.329   2.657
36783W        W 8312   6.463  39.412  11.352
36784W        W 8313  13.943  10.723   2.313
36785W        W 8314  13.703  35.489   4.274
36786W        W 8315   9.319  29.965   3.689
36787W        W 8316  20.279  24.798   4.518
36788W        W 8317  35.644  22.038   0.969
36789W        W 8318   3.124  32.676   2.592
36790W        W 8319  18.316  14.252   0.825
36791W        W 8320  29.071  28.672   4.751
36792W        W 8321  14.491  33.158  10.549
36793W        W 8322   2.113  40.517  10.236
36794W        W 8323  12.300  43.488  14.388
36795W        W 8324  18.210  12.332  12.581
36796W        W 8325  27.233   8.310   1.170
36797W        W 8326  35.047   0.905  11.339
36798W        W 8327  21.044  32.320   3.609
36799W        W 8328  18.655  15.081  11.352
36800W        W 8329  39.621  32.074  12.905
36801W        W 8330  37.979  44.586   1.334
36802W        W 8331   0.603  40.342   1.301
36803W        W 8332  21.955  35.284  11.180
36804W        W 8333   2.323  33.122   0.260
36805W        W 8334  12.313   0.407  12.733
36806W        W 8335   2.785  33.882  14.345
36807W        W 8336  33.546   2.973  10.709
36808W        W 8337  40.565   0.410  11.532
36809W        W 8338  22.577  10.827  12.598
36810W        W 8339  18.365  14.722   4.538
36811W        W 8340   9.815  24.708  12.128
36812W        W 8341  11.268  25.529   0.776
36813W        W 8342   8.449  25.265   2.874
36814W        W 8343  42.867   3.467  13.032
36815W        W 8344  18.255  33.936   3.727
36816W        W 8345  27.063   9.665   3.676
36817W        W 8346  18.322  10.280   3.746
36818W        W 8347   5.393   2.934  13.627
36819W        W 8348  20.362  43.705   1.733
36820W        W 8349  44.376  10.104   4.518
36821W        W 8350  23.286  19.744  12.228
36822W        W 8351  19.189   4.773  11.027
36823W        W 8352  30.861   1.515  10.818
36824W        W 8353  21.581  21.800  12.627
36825W        W 8354  26.419  44.899   2.886
36826W        W 8355  25.380  35.960   4.176
36827W        W 8356  28.887  34.231  12.456
36828W        W 8357   6.259  13.125  12.651
36829W        W 8358  17.248   3.477   2.981
36830W        W 8359  44.379  39.049  14.366
36831W        W 8360  17.823  16.193  12.423
36832W        W 8361  41.530  40.978  13.851
36833W        W 8362  21.897  19.115   0.402
36834W        W 8363  18.471  43.479  14.380
36835W        W 8364  41.844   5.034   4.473
36836W        W 8365   1.201  22.289   0.919
36837W        W 8366  29.000  41.434   3.805
36838W        W 8367  34.932  34.868   4.124
36839W        W 8368  41.324  25.422  14.408
36840W        W 8369  34.304  13.405   0.394
36841W        W 8370  33.065  39.279   1.976
36842W        W 8371  40.459   9.623   2.721
36843W        W 8372  15.710   3.395   2.658
36844W        W 8373  30.179  22.162   3.663
36845W        W 8374  32.703   0.711   1.678
36846W        W 8375  10.049  10.750  10.346
36847W        W 8376  37.209  41.571  13.789
36848W        W 8377  37.884  20.389  11.177
36849W        W 8378   1.320  33.057  13.939
36850W        W 8379  36.766   9.714  13.077
36851W        W 8380  43.880  29.566  11.539
36852W        W 8381  35.025  32.367  12.849
36853W        W 8382  24.801  37.990   4.278
36854W        W 8383  15.581  42.768   2.258
36855W        W 8384  11.684  42.750  10.584
36856W        W 8385  37.956   8.352  13.581
36857W        W 8386  38.081  12.305   0.922
36858W        W 8387  12.410  12.532   0.801
36859W        W 8388  39.777   2.780   0.864
36860W        W 8389  32.143   8.623   4.345
36861W        W 8390  13.154   4.412   0.231
36862W        W 8391  16.003   3.224  11.305
36863W        W 8392  42.364  27.543   0.296
36864W        W 8393  10.186  41.199   3.730
36865W        W 8394  20.232  12.770   0.742
36866W        W 8395  11.865  33.366  12.041
36867W        W 8396  18.346  12.725   0.798
36868W        W 8397  30.207   6.886  14.434
36869W        W 8398   1.910  38.872  12.636
36870W        W 8399  32.251  19.555   5.054
36871W        W 8400  43.141  18.799  14.958
36872W        W 8401  16.186  16.277  11.959
36873W        W 8402  30.496  43.264   4.831
36874W        W 8403  26.048  17.685   1.209
36875W        W 8404  23.999  18.199   0.989
36876W        W 8405  35.080  39.026  14.226
36877W        W 8406  20.688  24.937  12.704
36878W        W 8407  10.318  40.889   3.216
36879W        W 8408  21.294  33.361   2.886
36880W        W 8409   9.227  25.684  10.683
36881W        W 8410  38.542  16.732  13.842
36882W        W 8411   1.171  21.790   0.860
36883W        W 8412  17.478  39.520   3.881
36884W        W 8413   7.744  24.405   3.664
36885W        W 8414  42.173  31.609   3.172
36886W        W 8415   5.618  17.353  11.937
36887W        W 8416  10.474  26.530  10.835
36888W        W 8417   3.633  33.586  13.003
36889W        W 8418  12.134  13.026  11.547
36890W        W 8419   0.894   9.642  13.945
36891W        W 8420  11.653   2.395   0.936
36892W        W 8421   5.150  17.597   1.050
36893W        W 8422  18.826  13.722  14.435
36894W        W 8423  42.512   4.257  13.881
36895W        W 8424  26.606  18.861  14.292
36896W        W 8425  25.011  10.221   1.300
36897W        W 8426  14.674  31.481  10.871
36898W        W 8427   5.360  30.464   2.371
36899W        W 8428  16.005  37.353   0.706
36900W        W 8429  21.751  42.470  10.234
36901W        W 8430  36.791  43.512   3.662
36902W        W 8431  12.935  12.816   2.061
36903W        W 8432  11.551  18.086   4.281
36904W        W 8433  36.367   2.658  13.543
36905W        W 8434  34.893   1.867   2.314
36906W        W 8435   7.738  34.032   4.698
36907W        W 8436  32.002  39.355  13.145
36908W        W 8437  19.314   5.814   2.713
36909W        W 8438  24.069  22.759  12.274
36910W        W 8439   6.086   0.710  14.418
36911W        W 8440   3.391  41.558   3.696
36912W        W 8441  41.005  23.820  14.293
36913W        W 8442  31.179  42.975  12.388
36914W        W 8443   5.165  21.886  14.989
36915W        W 8444  41.729  41.874  11.149
36916W        W 8445  25.077  11.754  14.388
36917W        W 8446   2.766  21.191  13.526
36918W        W 8447  31.669  14.098  12.026
36919W        W 8448  13.571   3.374  14.933
36920W        W 8449  22.744  15.339  10.334
36921W        W 8450  12.338  25.268   3.165
36922W        W 8451   5.831  10.101   2.273
36923W        W 8452  15.079  18.879  13.804
36924W        W 8453  27.928  21.575   3.912
36925W        W 8454  42.801  17.720   2.017
36926W        W 8455  36.600  22.084   2.849
36927W        W 8456  38.341  18.674  14.411
36928W        W 8457  26.041  44.465  12.262
36929W        W 8458   1.956  27.668   4.224
36930W        W 8459  18.173  38.421   0.680
36931W        W 8460  10.214  44.554  12.029
36932W        W 8461  39.098  44.351   1.805
36933W        W 8462  40.582  35.861  10.770
36934W        W 8463  16.965  25.201   2.933
36935W        W 8464  29.418  30.995   1.896
36936W        W 8465  18.121  22.341   3.286
36937W        W 8466  35.866   4.126   2.846
36938W        W 8467  14.850  31.375   1.832
36939W        W 8468  17.056  21.975   0.295
36940W        W 8469   1.297   5.814  11.147
36941W        W 8470  24.841   4.259   3.646
36942W        W 8471  24.246   1.029  14.338
36943W        W 8472  34.399  12.509  14.333
36944W        W 8473   2.724  11.907  11.093
36945W        W 8474  40.635  16.716   2.265
36946W        W 8475  24.710   1.395   3.360
36947W        W 8476  23.913  37.338  12.137
36948W        W 8477  25.026  42.896   3.846
36949W        W 8478  26.084  23.446  11.157
36950W        W 8479  40.636  16.725   0.849
36951W        W 8480   8.731   2.468   0.326
36952W        W 8481   0.468  12.199   0.104
36953W        W 8482   1.789  22.084  14.086
36954W        W 8483  16.842   1.021  14.452
36955W        W 8484   4.741  25.178   3.745
36956W        W 8485  31.886   7.335   1.743
36957W        W 8486  21.707  33.069   3.727
36958W        W 8487   5.289  17.144   4.193
36959W        W 8488   9.126  13.154   3.277
36960W        W 8489  33.015  40.502   3.370
36961W        W 8490  42.879  29.453   4.141
36962W        W 8491  27.063  21.716  13.559
36963W        W 8492  44.229   7.670   2.771
36964W        W 8493  14.448  33.308   2.812
36965W        W 8494  36.349  13.688  11.482
36966W        W 8495   2.841  30.086   3.076
36967W        W 8496   1.114  15.759  10.462
36968W        W 8497   0.483  42.180  13.566
36969W        W 8498  43.309  17.694  12.095
36970W        W 8499  31.118  39.408   2.769
36971W        W 8500  37.970  43.606  14.757
36972W        W 8501   7.611  27.640  14.036
36973W        W 8502  10.429   8.869   2.279
36974W        W 8503  30.907  19.249  11.054
36975W        W 8504  39.335  22.249  12.063
36976W        W 8505  24.260   7.917   4.844
36977W        W 8506  28.711  17.163  14.507
36978W        W 8507  32.513  33.422  11.061
36979W        W 8508  35.077  43.989  11.158
36980W        W 8509   4.581   2.959   3.282
36981W        W 8510   9.207  37.661  14.981
36982W        W 8511  34.539  34.600   3.768
36983W        W 8512  31.473  18.779   0.228
36984W        W 8513   2.397  43.031  14.872
36985W        W 8514  42.828  26.765   0.289
36986W        W 8515  20.549  14.324   4.327
36987W        W 8516  38.019  12.294   3.259
36988W        W 8517  16.389   3.792   3.091
36989W        W 8518  21.520  37.697   4.588
36990W        W 8519   7.392   0.273  14.347
36991W        W 8520  33.483  41.889  11.532
36992W        W 8521   7.675  38.448   4.695
36993W        W 8522  29.428  18.815  14.883
36994W        W 8523  39.438  33.138   0.841
36995W        W 8524  15.720  30.170  12.398
36996W        W 8525  14.157  39.225  12.492
36997W        W 8526  44.434  21.277   3.145
36998W        W 8527   0.277  39.916  12.687
36999W        W 8528  31.395   6.644   4.638
37000W        W 8529   4.789  43.228  10.999
37001W        W 8530  13.147  10.889   4.853
37002W        W 8531  38.048  23.522   2.721
37003W        W 8532  17.322  13.327   1.342
37004W        W 8533  18.029  31.584   0.086
37005W        W 8534  14.021  23.034  11.224
37006W        W 8535   8.861  18.897   3.738
37007W        W 8536  12.535  10.159   3.265
37008W        W 8537  10.073  26.270   0.228
37009W        W 8538  20.792  25.743  13.083
37010W        W 8539  25.940  10.862   3.961
37011W        W 8540  31.180   7.257  13.087
37012W        W 8541  37.886   5.416   4.415
37013W        W 8542  18.067  31.986   2.270
37014W        W 8543  41.768  41.503  10.010
37015W        W 8544  43.748  37.445   4.126
37016W        W 8545  29.997  15.634  10.649
37017W        W 8546  44.264  11.777  13.659
37018W        W 8547   6.331   2.843   0.961
37019W        W 8548  42.287  23.055   2.726
37020W        W 8549  40.035  36.673   2.045
37021W        W 8550  12.822   2.017   3.995
37022W        W 8551  28.534  16.076  11.934
37023W        W 8552  17.170  22.021   4.152
37024W        W 8553  24.554  30.334   3.193
37025W        W 8554  41.311  40.447   0.083
37026W        W 8555  35.442  25.790  11.943
37027W        W 8556   4.281  41.230   4.592
37028W        W 8557  29.668  19.077   0.340
37029W        W 8558  20.252   1.662   3.626
37030W        W 8559  37.562  37.731   2.723
37031W        W 8560  21.246  10.927   2.758
37032W        W 8561   4.233  26.070  14.371
37033W        W 8562  42.939   0.709   5.125
37034W        W 8563  39.592  27.106  14.912
37035W        W 8564  11.801  34.948  11.242
37036W        W 8565   3.898   9.868   1.873
37037W        W 8566  27.024  25.600   2.883
37038W        W 8567  36.931   9.136  14.823
37039W        W 8568  44.300  23.320  14.293
37040W        W 8569   2.339  19.896   1.335
37041W        W 8570  34.148  33.741  14.345
37042W        W 8571  43.580  26.008  10.960
37043W        W 8572  25.403  21.230  12.547
37044W        W 8573  43.437  15.495  10.254
37045W        W 8574   4.634  24.308  11.947
37046W        W 8575   0.713   6.823   2.681
37047W        W 8576  37.623  13.082  10.528
37048W        W 8577  16.640   6.662   4.301
37049W        W 8578   9.079  26.127   2.442
37050W        W 8579   3.914  20.737  12.794
37051W        W 8580  31.162   2.700  13.953
37052W        W 8581  42.067  10.113  14.744
37053W        W 8582  33.938  32.192   1.142
37054W        W 8583  27.606  42.275  14.790
37055W        W 8584  35.498  41.003   0.447
37056W        W 8585  44.512   5.778   3.891
37057W        W 8586  40.247   9.660  11.567
37058W        W 8587   6.988  17.238   0.170
37059W        W 8588  37.271   3.686   3.485
37060W        W 8589   3.450   5.938   0.853
37061W        W 8590  18.118  13.934  13.887
37062W        W 8591  32.180  35.838   2.343
37063W        W 8592  25.639  18.233  12.195
37064W        W 8593  29.569  25.150  10.667
37065W        W 8594  32.345  18.285   0.016
37066W        W 8595   1.484  42.826  11.548
37067W        W 8596  29.432  25.570   0.283
37068W        W 8597  39.571  31.460  14.756
37069W        W 8598   4.004  37.090  14.594
37070W        W 8599  40.347   4.293  14.538
37071W        W 8600   1.374  10.666   1.442
37072W        W 8601  26.105  15.587  10.485
37073W        W 8602  20.039  14.057  12.086
37074W        W 8603   9.148   3.792   3.655
37075W        W 8604  42.686  10.760  11.150
37076W        W 8605  20.121   1.360  14.756
37077W        W 8606  41.776   3.988  12.427
37078W        W 8607  36.855  17.498  13.529
37079W        W 8608  41.467  41.538   3.288
37080W        W 8609  43.960  27.096  12.118
37081W        W 8610  30.691   7.506   2.401
37082W        W 8611  40.492  39.850   4.656
37083W        W 8612  26.583   8.086  13.419
37084W        W 8613  25.300   9.145   4.599
37085W        W 8614  24.967  38.400   3.219
37086W        W 8615  31.459  23.983  10.735
37087W        W 8616   2.225  38.799   2.807
37088W        W 8617  36.912  39.574  14.021
37089W        W 8618   5.650   6.743   3.727
37090W        W 8619  21.139  31.922   0.062
37091W        W 8620   8.910   1.204  11.219
37092W        W 8621  16.044  32.604  10.482
37093W        W 8622   3.702  11.277   3.771
37094W        W 8623   1.820  36.118  14.159
37095W        W 8624   3.973  38.967  12.365
37096W        W 8625  17.667  38.752   1.621
37097W        W 8626   2.727  41.107   2.360
37098W        W 8627   2.037  29.766  14.001
37099W        W 8628  31.597  32.309   4.477
37100W        W 8629   5.933  43.595  13.662
37101W        W 8630  27.217  25.025  14.054
37102W        W 8631  38.399   9.143   9.979
37103W        W 8632  24.196   3.566  10.861
37104W        W 8633   6.409  27.016  14.434
37105W        W 8634  22.675  24.226   0.757
37106W        W 8635   3.237  20.667  14.535
37107W        W 8636   2.314  17.564   4.519
37108W        W 8637  44.311  34.562  14.093
37109W        W 8638  18.557   5.423   3.123
37110W        W 8639  19.479   0.764   0.365
37111W        W 8640  32.567   8.883  13.541
37112W        W 8641  27.492  13.868  13.874
37113W        W 8642   4.036  43.396  10.598
37114W        W 8643  43.945  42.066   2.710
37115W        W 8644  38.428  33.906   4.456
37116W        W 8645  11.342  32.871   1.707
37117W        W 8646   9.622   3.322  14.726
37118W        W 8647  10.269  26.012  10.096
37119W        W 8648  42.275  28.248  13.857
37120W        W 8649  31.580  29.099  14.972
37121W        W 8650  12.750  39.038  12.737
37122W        W 8651   3.917   0.792  12.626
37123W        W 8652   6.879   8.810   3.600
37124W        W 8653  18.652  22.089   0.953
37125W        W 8654  15.904  18.740   0.697
37126W        W 8655   7.246  21.507   0.814
37127W        W 8656   5.201   3.418   2.618
37128W        W 8657  38.797  22.899   0.440
37129W        W 8658  27.934  36.179  13.372
37130W        W 8659  33.474  20.481   3.072
37131W        W 8660   7.921  13.666   2.630
37132W        W 8661  20.493  12.361   1.395
37133W        W 8662   4.189  14.882  12.798
37134W        W 8663  31.921  20.202  13.955
37135W        W 8664  43.778  34.996   4.576
37136W        W 8665  16.564  30.919   0.915
37137W        W 8666  21.267  12.692   3.373
37138W        W 8667  41.882  38.947  11.756
37139W        W 8668  15.870  27.334  14.884
37140W        W 8669  29.936  40.858  12.971
37141W        W 8670  20.178  16.494  11.573
37142W        W 8671  39.981  38.272  11.985
37143W        W 8672  44.245   4.775   1.944
37144W        W 8673  29.433  18.623  13.365
37145W        W 8674  43.172  29.564   0.177
37146W        W 8675  29.989  27.552   0.812
37147W        W 8676  13.676  27.467   2.466
37148W        W 8677  20.219  41.983  10.952
37149W        W 8678  35.834  42.451  10.850
37150W        W 8679  25.619  34.058  13.383
37151W        W 8680  34.009   4.372   0.675
37152W        W 8681  20.960  32.599   4.045
37153W        W 8682  27.942  30.428  10.691
37154W        W 8683   2.934  42.527   2.811
37155W        W 8684  18.576  41.353   3.746
37156W        W 8685  23.692  40.576  10.773
37157W        W 8686   2.471  23.075  10.970
37158W        W 8687  14.669  34.628   0.734
37159W        W 8688  25.999  43.187   1.712
37160W        W 8689  30.146  18.541   2.715
37161W        W 8690  26.059  30.903   1.648
37162W        W 8691  28.157  44.943   4.557
37163W        W 8692  37.050   9.704  10.511
37164W        W 8693  15.782  43.250  13.031
37165W        W 8694  10.833   9.330  14.522
37166W        W 8695  25.807  11.309  12.564
37167W        W 8696  42.246   3.428   1.831
37168W        W 8697  18.894  15.971   3.815
37169W        W 8698  14.334  19.732  12.016
37170W        W 8699   0.449  13.000  10.505
37171W        W 8700  23.977   8.176   0.265
37172W        W 8701  27.583  22.210   2.597
37173W        W 8702  15.790   0.919   2.330
37174W        W 8703   0.252   6.282   0.433
37175W        W 8704  36.852  28.952  13.462
37176W        W 8705   2.810  19.299  14.715
37177W        W 8706  29.495  42.534   3.320
37178W        W 8707  21.030  36.563  10.510
37179W        W 8708  19.903  26.012  11.123
37180W        W 8709  24.216  10.381  13.866
37181W        W 8710  32.023  38.418  11.216
37182W        W 8711  27.419  30.391   4.053
37183W        W 8712   1.178   3.718  13.889
37184W        W 8713  12.091  37.631   3.091
37185W        W 8714  37.130   0.230   1.450
37186W        W 8715  23.235  39.343   3.651
37187W        W 8716   7.888  33.580   2.214
37188W        W 8717  17.858  10.363  12.894
37189W        W 8718  27.330  19.976  13.786
37190W        W 8719  26.056   2.567  10.649
37191W        W 8720  31.619  21.002  13.375
37192W        W 8721  39.901  14.843   3.171
37193W        W 8722   5.957  37.051   3.254
37194W        W 8723   7.211  44.248   1.841
37195W        W 8724  31.380  25.744  12.074
37196W        W 8725  10.310   8.101   4.276
37197W        W 8726  20.902   6.789  13.948
37198W        W 8727  30.922  39.533   2.274
37199W        W 8728   0.988  29.035  11.711
37200W        W 8729  42.582  22.096   4.831
37201W        W 8730   3.260  42.797   1.438
37202W        W 8731  26.404   2.538  12.079
37203W        W 8732  14.236  23.702   4.269
37204W        W 8733  10.298  29.966   3.230
37205W        W 8734   8.315  32.083   0.848
37206W        W 8735  11.674   3.675  12.394
37207W        W 8736  15.120  19.903  13.527
37208W        W 8737  20.472  31.457  13.008
37209W        W 8738  24.769   8.682   4.246
37210W        W 8739  23.960  14.674   0.716
37211W        W 8740  29.887  16.907   5.623
37212W        W 8741   5.015  36.011   4.134
37213W        W 8742  43.422  29.669  12.514
37214W        W 8743  25.589  34.979  11.194
37215W        W 8744  41.338  17.050   1.438
37216W        W 8745   2.342  37.869   1.888
37217W        W 8746  42.452  30.444   1.010
37218W        W 8747  15.316  17.920   4.125
37219W        W 8748  24.087  22.501   2.259
37220W        W 8749  37.900   8.003   1.928
37221W        W 8750  28.412  15.664   4.472
37222W        W 8751  16.837  44.157   2.398
37223W        W 8752  22.111   2.818  14.289
37224W        W 8753  42.064   1.702   3.768
37225W        W 8754  12.696  32.462   0.410
37226W        W 8755  16.204  42.501   4.697
37227W        W 8756  39.422   3.182   3.253
37228W        W 8757  40.812  33.071   0.300
37229W        W 8758  25.045  34.207  14.421
37230W        W 8759   3.406  27.303   1.788
37231W        W 8760   7.205  32.088   5.059
37232W        W 8761  42.391  27.291  14.847
37233W        W 8762  44.369  13.177   1.288
37234W        W 8763  41.945   7.586   1.310
37235W        W 8764  19.732  26.861  11.094
37236W        W 8765  19.935   3.846   2.620
37237W        W 8766  24.026  22.174  13.534
37238W        W 8767  30.042  11.937  11.312
37239W        W 8768   4.318  38.420  14.091
37240W        W 8769  36.864  19.781  13.033
37241W        W 8770  15.540  36.953  12.640
37242W        W 8771   8.855  27.046  12.506
37243W        W 8772  44.263  13.658  12.622
37244W        W 8773  21.628  30.953   3.346
37245W        W 8774  16.779   6.784  12.911
37246W        W 8775  30.749  16.057   1.763
37247W        W 8776  32.529  30.462  12.540
37248W        W 8777  42.713  27.998  10.867
37249W        W 8778  39.419  30.128  13.511
37250W        W 8779   3.674  23.793   4.130
37251W        W 8780  44.255  15.802   0.761
37252W        W 8781  13.173  17.732  12.926
37253W        W 8782  42.354  44.772  14.443
37254W        W 8783  33.618  33.878  12.842
37255W        W 8784  32.869  32.747   3.313
37256W        W 8785  31.725  15.136   4.049
37257W        W 8786  30.037  43.370  13.206
37258W        W 8787  12.085  27.920  14.134
37259W        W 8788   6.726  10.157  14.398
37260W        W 8789  33.150  33.044  10.933
37261W        W 8790   5.615   8.264  13.037
37262W        W 8791  42.055  18.921   4.997
37263W        W 8792  28.927  11.272   1.733
37264W        W 8793   3.203  43.503   0.416
37265W        W 8794  36.378  27.834   0.904
37266W        W 8795  16.255   4.658   3.738
37267W        W 8796   1.366  19.737  13.964
37268W        W 8797  19.549  41.513   4.820
37269W        W 8798  33.575  28.762  13.436
37270W        W 8799   9.063   3.245   2.688
37271W        W 8800  25.696   5.740   0.811
37272W        W 8801  43.825  39.766  11.453
37273W        W 8802  44.460  43.795  11.222
37274W        W 8803  40.673  42.394   2.193
37275W        W 8804   6.681  12.931   3.284
37276W        W 8805  36.001  12.098   5.127
37277W        W 8806  10.699   6.155  13.522
37278W        W 8807  22.125   1.477   2.828
37279W        W 8808  44.607   9.405  14.928
37280W        W 8809   7.513  22.812  12.665
37281W        W 8810   0.215  21.956   0.998
37282W        W 8811  34.052  12.670   4.652
37283W        W 8812  14.651  22.977  13.433
37284W        W 8813  16.103   9.370  14.417
37285W        W 8814  33.430  28.852   2.889
37286W        W 8815  32.371  39.444   3.324
37287W        W 8816  17.626  27.089   2.020
37288W        W 8817  23.372  34.830   0.670
37289W        W 8818  34.404  36.462  10.723
37290W        W 8819  12.216  44.319   0.493
37291W        W 8820   2.012   8.607  12.186
37292W        W 8821  24.074   6.262   3.506
37293W        W 8822  41.894  25.605   3.070
37294W        W 8823  15.913   1.533   2.617
37295W        W 8824  38.544  15.128   0.746
37296W        W 8825   1.314  29.579   4.625
37297W        W 8826  43.036   4.551   3.587
37298W        W 8827  18.384  23.111  11.310
37299W        W 8828  12.765  34.337   4.699
37300W        W 8829  21.593   5.616  11.419
37301W        W 8830  31.868  19.236  11.108
37302W        W 8831   8.507  33.828   4.127
37303W        W 8832  42.274   4.933   0.485
37304W        W 8833  40.762  12.299  13.275
37305W        W 8834  10.425  11.357  14.914
37306W        W 8835  40.600  28.956   3.716
37307W        W 8836  20.235   4.896  13.000
37308W        W 8837   8.627  41.770  14.776
37309W        W 8838   3.097  31.692   3.725
37310W        W 8839  30.990  10.251  10.659
37311W        W 8840  37.918  20.719  12.591
37312W        W 8841  43.756   8.299   4.183
37313W        W 8842  23.985   2.227   1.780
37314W        W 8843   1.250   3.243   1.350
37315W        W 8844  11.775   7.673  11.041
37316W        W 8845  11.335  34.485   0.734
37317W        W 8846  12.126   2.994  12.477
37318W        W 8847   7.910   1.476   3.187
37319W        W 8848  23.628  39.311  12.435
37320W        W 8849   8.094  16.813   1.894
37321W        W 8850   4.020   8.078  10.566
37322W        W 8851  44.083  15.886  13.499
37323W        W 8852  10.633  36.560  11.150
37324W        W 8853   6.742  21.640   0.896
37325W        W 8854   4.840   4.197  13.495
37326W        W 8855  26.711  40.947  14.816
37327W        W 8856  40.041  15.307   1.463
37328W        W 8857  30.582  43.858  13.985
37329W        W 8858  35.372  19.153   0.877
37330W        W 8859   2.471  29.581  14.180
37331W        W 8860  41.561   0.473   4.161
37332W        W 8861  30.080  13.676   2.401
37333W        W 8862   2.988  36.461   0.287
37334W        W 8863  13.804  27.007   0.261
37335W        W 8864  40.010  36.582  13.598
37336W        W 8865  31.344  32.083   4.075
37337W        W 8866  14.982  34.926  13.871
37338W        W 8867  34.942   0.447  12.144
37339W        W 8868   1.786  21.133   3.263
37340W        W 8869  16.958  14.670  14.837
37341W        W 8870  22.507   9.704  13.888
37342W        W 8871  19.845   8.646  12.468
37343W        W 8872  20.604   2.161  12.943
37344W        W 8873   4.366  11.252  10.653
37345W        W 8874  13.427  16.820  14.111
37346W        W 8875   0.757  41.425   2.401
37347W        W 8876  12.117  43.837   3.742
37348W        W 8877  19.547  25.237  13.023
37349W        W 8878  17.746  13.006  14.910
37350W        W 8879  36.688  43.070  13.960
37351W        W 8880  43.359   3.026   4.623
37352W        W 8881  33.914  36.833   1.872
37353W        W 8882  43.962   4.449   3.351
37354W        W 8883  19.240   7.607  13.036
37355W        W 8884  15.222  17.637   2.621
37356W        W 8885   4.719  44.048  14.086
37357W        W 8886  20.281  20.789  12.866
37358W        W 8887  32.650  29.191   4.092
37359W        W 8888  16.907  24.224  13.731
37360W        W 8889  27.705  14.652  11.948
37361W        W 8890  41.336  13.575   2.639
37362W        W 8891   1.077  39.315   4.194
37363W        W 8892  33.394  38.772  10.654
37364W        W 8893  23.283  31.616   4.326
37365W        W 8894  37.065  38.674   2.169
37366W        W 8895  23.642  39.312   3.275
37367W        W 8896   4.242  25.020   4.663
37368W        W 8897  36.467  19.539   1.784
37369W        W 8898  24.071  32.286   3.630
37370W        W 8899  24.175  39.836   2.734
37371W        W 8900   4.808   4.708   2.602
37372W        W 8901  13.816  12.172   2.966
37373W        W 8902  14.839  30.937  11.552
37374W        W 8903   8.802   5.003  11.241
37375W        W 8904  40.166  44.479  14.029
37376W        W 8905  16.821  26.697   2.762
37377W        W 8906   7.892   4.928  12.926
37378W        W 8907  24.254  43.781   2.238
37379W        W 8908  33.510  26.265   3.150
37380W        W 8909   2.216  42.446   4.957
37381W        W 8910  23.043  15.375  14.608
37382W        W 8911  24.469  18.465  12.143
37383W        W 8912  40.203   1.518   0.310
37384W        W 8913  20.137  18.178   2.651
37385W        W 8914  27.355  37.831  11.967
37386W        W 8915  23.170  33.853   0.360
37387W        W 8916  42.047   1.786   1.368
37388W        W 8917  38.474  15.968   0.225
37389W        W 8918  24.633  18.850   4.231
37390W        W 8919   2.270   9.792  14.737
37391W        W 8920   4.256  17.783   2.828
37392W        W 8921  24.029   4.770  13.391
37393W        W 8922  21.224  42.361  10.235
37394W        W 8923  26.808   3.884   4.934
37395W        W 8924  35.826   5.315   1.342
37396W        W 8925  18.676  12.751  13.850
37397W        W 8926  41.476  25.125  10.974
37398W        W 8927  25.204  23.447  14.795
37399W        W 8928  11.380  37.578   0.866
37400W        W 8929  38.881  37.458  14.075
37401W        W 8930   2.502  31.592   2.695
37402W        W 8931   5.735  37.047  13.081
37403W        W 8932   4.218   1.734  14.749
37404W        W 8933  32.868  16.186   1.865
37405W        W 8934  41.060   0.621   4.287
37406W        W 8935  41.772  24.890  13.818
37407W        W 8936  38.319  26.912  11.994
37408W        W 8937  44.425  42.873   3.581
37409W        W 8938  18.581  18.513  10.254
37410W        W 8939  14.755  40.492   2.654
37411W        W 8940  10.229  26.428   4.966
37412W        W 8941  17.271  15.059  11.188
37413W        W 8942  20.200  20.264  11.052
37414W        W 8943   8.652  11.609   0.791
37415W        W 8944   9.701   6.638   3.394
37416W        W 8945  37.902  17.810  14.347
37417W        W 8946  17.095  40.418   1.787
37418W        W 8947  23.291  21.248  10.959
37419W        W 8948  33.614  10.844   3.627
37420W        W 8949  38.348   3.176   4.830
37421W        W 8950   6.568  16.666   0.966
37422W        W 8951   7.697  22.897  14.395
37423W        W 8952  36.415   4.898  14.288
37424W        W 8953  34.628  29.033   2.287
37425W        W 8954  24.711  42.440  12.585
37426W        W 8955  13.048  29.647  10.718
37427W        W 8956  18.793  31.441   2.583
37428W        W 8957  42.544  18.613   3.637
37429W        W 8958   5.877  40.207   1.955
37430W        W 8959  17.525   1.935   4.225
37431W        W 8960  17.953  44.422   1.750
37432W        W 8961  23.545  30.533  12.453
37433W        W 8962  22.616  33.452   1.422
37434W        W 8963  30.055  12.776  13.876
37435W        W 8964  30.397  32.969  10.781
37436W        W 8965  28.201  30.132  12.877
37437W        W 8966  41.523  31.214  12.008
37438W        W 8967   5.679  16.553   4.530
37439W        W 8968  36.372  39.302   0.883
37440W        W 8969  16.314  37.062  13.258
37441W        W 8970  20.072  24.620  12.657
37442W        W 8971   7.909  24.623   3.212
37443W        W 8972  22.714  24.055  12.906
37444W        W 8973  40.472   1.631  12.982
37445W        W 8974  21.283  13.394   2.863
37446W        W 8975  44.484   4.993  14.960
37447W        W 8976  15.344  37.949  13.346
37448W        W 8977  14.533   0.452   3.110
37449W        W 8978  29.551  24.584  13.968
37450W        W 8979  12.167   7.526   3.760
37451W        W 8980  34.108  27.172   5.085
37452W        W 8981  36.980  44.488  13.901
37453W        W 8982  21.545  21.239  14.470
37454W        W 8983  17.057   1.001   1.890
37455W        W 8984  35.215   0.046  12.979
37456W        W 8985  41.402   0.521   1.750
37457W        W 8986  34.577  24.206  12.127
37458W        W 8987  37.797   2.530   3.596
37459W        W 8988  21.439  44.600   1.477
37460W        W 8989  11.262  25.906  13.930
37461W        W 8990   1.361   0.932   0.496
37462W        W 8991   6.480  38.526   0.944
37463W        W 8992  36.457  24.672   3.210
37464W        W 8993  12.628   8.874  10.555
37465W        W 8994  24.068   5.404   4.035
37466W        W 8995   3.211  27.978   3.846
37467W        W 8996   8.130  23.149   3.636
37468W        W 8997  39.448  23.986   3.766
37469W        W 8998  18.813  43.076  11.518
37470W        W 8999  10.902  37.798   0.914
37471W        W 9000  34.289  25.023   0.684
37472W        W 9001  17.652   8.668  11.756
37473W        W 9002  40.397  26.178  12.191
37474W        W 9003   6.830  38.948   1.155
37475W        W 9004   9.779  12.473  12.457
37476W        W 9005  37.270  27.406  11.941
37477W        W 9006  27.924  29.500  10.798
37478W        W 9007  36.122   2.311  12.960
37479W        W 9008  25.114  42.743   0.215
37480W        W 9009  15.452  13.741  12.339
37481W        W 9010  23.433   1.351   1.751
37482W        W 9011  27.267  32.411   3.256
37483W        W 9012  12.912  34.907   1.745
37484W        W 9013  39.826   6.665   4.522
37485W        W 9014   6.283   9.983   2.541
37486W        W 9015   8.172  24.027  13.996
37487W        W 9016   2.244  10.316   0.909
37488W        W 9017  18.096  17.266  13.826
37489W        W 9018  21.470  23.185   0.476
37490W        W 9019   1.754  21.224   4.865
37491W        W 9020   4.472  40.279   1.411
37492W        W 9021  37.953  39.100  13.956
37493W        W 9022  25.520   6.923   2.936
37494W        W 9023  24.203  21.090   5.161
37495W        W 9024   0.122  44.880   3.113
37496W        W 9025  42.263  43.940   4.391
37497W        W 9026  14.745  38.906   1.965
37498W        W 9027   6.216  24.932  13.524
37499W        W 9028  15.014  30.918  12.653
37500W        W 9029  26.663  36.371   3.158
37501W        W 9030  36.983  23.438   1.833
37502W        W 9031  20.633  31.602   2.964
37503W        W 9032  28.859   0.873  11.506
37504W        W 9033  36.571  12.776   2.597
37505W        W 9034  20.897  23.470   2.273
37506W        W 9035   5.611   0.769   2.433
37507W        W 9036  41.566  36.640   2.339
37508W        W 9037  43.325  10.514   0.365
37509W        W 9038  10.395  43.257  14.905
37510W        W 9039  42.904   9.116   3.099
37511W        W 9040  16.257  25.850   4.302
37512W        W 9041  23.145  42.831   4.029
37513W        W 9042  27.205  20.211   3.621
37514W        W 9043  37.953  15.160   4.120
37515W        W 9044  19.295   3.482  11.001
37516W        W 9045  16.135  12.216  11.542
37517W        W 9046   6.802  20.114  14.323
37518W        W 9047   8.520  22.481  12.863
37519W        W 9048   4.196  13.813   0.497
37520W        W 9049  44.678  38.548   2.437
37521W        W 9050  20.284   4.912   2.693
37522W        W 9051  11.099  36.582   4.243
37523W        W 9052   8.389   5.184   1.474
37524W        W 9053  32.863  24.740   1.400
37525W        W 9054  38.057  22.622  14.399
37526W        W 9055  28.456  27.917  13.955
37527W        W 9056   0.391   4.938   4.463
37528W        W 9057  14.175  39.355  10.775
37529W        W 9058  22.749  35.166   1.700
37530W        W 9059  28.076  15.180   0.832
37531W        W 9060  30.105  24.497   2.238
37532W        W 9061  23.857  44.307   1.393
37533W        W 9062   1.388  29.215  14.567
37534W        W 9063  38.385  22.597   0.260
37535W        W 9064  20.523  24.593   0.564
37536W        W 9065   0.471  44.257  14.312
37537W        W 9066  15.111   7.943  12.666
37538W        W 9067   9.197   7.994   4.263
37539W        W 9068  15.579   8.901   3.296
37540W        W 9069  42.931  13.475  10.805
37541W        W 9070  38.854  21.076  13.863
37542W        W 9071  15.407  25.841  11.475
37543W        W 9072   9.369  22.304   4.303
37544W        W 9073  42.961  27.503   3.412
37545W        W 9074  10.635  15.739   0.918
37546W        W 9075   2.054   6.283   0.717
37547W        W 9076  39.449  44.305  14.701
37548W        W 9077  27.447   5.309  12.552
37549W        W 9078  29.580  28.992   2.715
37550W        W 9079  31.112  38.743  12.939
37551W        W 9080  36.854  36.283   4.056
37552W        W 9081  11.707  13.574  10.379
37553W        W 9082  14.863  43.812   1.014
37554W        W 9083  17.787  26.441   1.180
37555W        W 9084   3.968   6.883   4.564
37556W        W 9085   9.509  23.413  13.214
37557W        W 9086   0.747  17.089  10.686
37558W        W 9087  13.279  35.339   2.368
37559W        W 9088  42.511  26.408  14.516
37560W        W 9089  14.733  11.236  13.805
37561W        W 9090   7.207  42.190   3.296
37562W        W 9091  30.525  30.955   0.183
37563W        W 9092  37.933   0.791  12.551
37564W        W 9093   4.936  43.748  12.901
37565W        W 9094  34.067  41.954   0.199
37566W        W 9095  19.540  43.389  12.587
37567W        W 9096  25.941  28.535   0.268
37568W        W 9097  35.849   2.449  14.433
37569W        W 9098  18.827  10.840   2.259
37570W        W 9099  37.348  12.352  12.732
37571W        W 9100  41.264  31.918  10.959
37572W        W 9101  32.799  29.886  14.933
37573W        W 9102  15.370   8.973  11.000
37574W        W 9103  37.902   4.898   1.608
37575W        W 9104  36.941  21.068   0.555
37576W        W 9105   8.148  44.169  11.253
37577W        W 9106  25.423  44.631   2.794
37578W        W 9107  21.895  25.383  11.859
37579W        W 9108  19.218  21.728   1.167
37580W        W 9109  16.373  39.564   2.868
37581W        W 9110  28.911  18.461  11.240
37582W        W 9111  23.386   3.269  11.513
37583W        W 9112  36.098   3.345   4.098
37584W        W 9113   5.419   7.001  14.928
37585W        W 9114  26.304  18.989  13.856
37586W        W 9115  27.568  33.338  12.538
37587W        W 9116  32.536  38.838   1.306
37588W        W 9117  18.035   7.146   3.771
37589W        W 9118  42.067  29.424  12.003
37590W        W 9119   7.876  22.057   2.338
37591W        W 9120  31.197  30.428   1.174
37592W        W 9121  23.918  18.728   4.694
37593W        W 9122  28.358  18.113   3.062
37594W        W 9123   6.386  38.724  11.757
37595W        W 9124  12.152  17.577  11.965
37596W        W 9125  14.713   4.804  10.084
37597W        W 9126  16.576  13.678  12.069
37598W        W 9127   1.861  39.428   0.716
37599W        W 9128  29.626  11.337  12.064
37600W        W 9129  26.948  34.972   2.950
37601W        W 9130  26.715  36.731  11.171
37602W        W 9131  37.342   3.215   0.468
37603W        W 9132  41.564   6.693   1.227
37604W        W 9133  42.022   5.224   0.845
37605W        W 9134  33.463   9.248  14.290
37606W        W 9135  40.156  42.478   2.317
37607W        W 9136  33.476  44.230  11.925
37608W        W 9137   4.516  14.092   4.662
37609W        W 9138   5.290  34.978  14.505
37610W        W 9139  30.907   0.202  12.298
37611W        W 9140  39.549  19.375  13.849
37612W        W 9141  42.397  40.738   4.764
37613W        W 9142  19.746   3.176  14.460
37614W        W 9143  33.273   3.808   2.815
37615W        W 9144  40.930  32.215  13.059
37616W        W 9145  25.566   6.324  12.554
37617W        W 9146  14.595   8.935  11.659
37618W        W 9147   4.676   5.598  11.060
37619W        W 9148  15.824  21.218   3.246
37620W        W 9149  27.890  37.186  13.567
37621W        W 9150   5.497  35.077   2.253
37622W        W 9151  25.405  32.954   1.903
37623W        W 9152   2.767  44.446  11.303
37624W        W 9153  16.081  38.291   3.156
37625W        W 9154  42.329  18.395  14.977
37626W        W 9155   5.384  40.459  13.629
37627W        W 9156   2.531   6.146  14.837
37628W        W 9157  41.037  25.605  14.025
37629W        W 9158  32.524  10.748   4.056
37630W        W 9159  27.014   6.945   1.371
37631W        W 9160  44.146  14.073   3.813
37632W        W 9161  33.367  12.657  10.200
37633W        W 9162  37.413  38.061  13.545
37634W        W 9163  33.669  42.387  14.297
37635W        W 9164  30.923  30.471  10.594
37636W        W 9165  44.820  29.706  14.367
37637W        W 9166   5.844  32.226   2.839
37638W        W 9167  37.872  31.531   2.352
37639W        W 9168  44.833  28.315  12.325
37640W        W 9169  29.103  37.547  11.426
37641W        W 9170  19.651  44.365   4.409
37642W        W 9171  21.821  38.907   1.448
37643W        W 9172  33.979  30.546   2.381
37644W        W 9173  33.170  22.563   2.604
37645W        W 9174   3.947  18.267  12.567
37646W        W 9175  40.781  21.642  11.504
37647W        W 9176  29.659   0.121   1.307
37648W        W 9177  19.615  42.476   3.734
37649W        W 9178  30.470   3.681  12.064
37650W        W 9179  44.554   5.368  12.961
37651W        W 9180  12.524  21.489  13.834
37652W        W 9181  35.246  22.352   0.983
37653W        W 9182  42.980  24.184   2.080
37654W        W 9183  16.316  39.414  14.544
37655W        W 9184  19.508  24.565   0.821
37656W        W 9185  31.944   2.956   2.383
37657W        W 9186  36.327  38.572   4.132
37658W        W 9187   1.168   5.956   0.338
37659W        W 9188  42.823  26.596  10.938
37660W        W 9189   9.873  16.583   1.449
37661W        W 9190   0.235  13.166   0.495
37662W        W 9191  13.168  16.233  12.445
37663W        W 9192   6.729   4.272  11.542
37664W        W 9193  42.987  36.121  12.395
37665W        W 9194  19.885  28.251   3.233
37666W        W 9195  27.205  15.358  11.514
37667W        W 9196  10.902  44.390   2.688
37668W        W 9197  16.206  28.986  13.597
37669W        W 9198   8.784  37.597   9.794
37670W        W 9199  12.082   2.703   1.832
37671W        W 9200  29.823  25.120  11.104
37672W        W 9201  12.771  28.720   1.856
37673W        W 9202   9.350  20.522   1.925
37674W        W 9203  37.969  38.776  11.980
37675W        W 9204  20.735  11.189  10.719
37676W        W 9205  24.561  21.646  11.641
37677W        W 9206  32.128  21.209  14.831
37678W        W 9207  21.156  40.283   1.431
37679W        W 9208  26.921  12.296   3.984
37680W        W 9209  31.400  19.155   4.895
37681W        W 9210  15.112  27.183   4.326
37682W        W 9211  23.728  19.404  14.731
37683W        W 9212  30.489   0.551   3.683
37684W        W 9213  32.800  15.020  12.627
37685W        W 9214  31.042  21.768   3.216
37686W        W 9215  33.200  31.857   2.790
37687W        W 9216  44.273   1.494   1.386
37688W        W 9217  20.367   2.377   1.533
37689W        W 9218   0.548  15.798  13.027
37690W        W 9219  34.886  43.931  11.651
37691W        W 9220  37.601  10.195   2.258
37692W        W 9221   6.779   0.324   0.496
37693W        W 9222  27.188  14.435   3.155
37694W        W 9223  14.892  15.109   4.780
37695W        W 9224  32.100  26.571  14.398
37696W        W 9225   8.355  44.641  13.913
37697W        W 9226  41.109   3.435  12.555
37698W        W 9227  17.264  15.153   4.632
37699W        W 9228   4.593  31.633   2.143
37700W        W 9229  37.021   5.177   0.396
37701W        W 9230  15.083   4.322  12.527
37702W        W 9231  26.469  23.897   3.307
37703W        W 9232   7.239  16.577  12.893
37704W        W 9233  26.319  22.663   1.420
37705W        W 9234  19.702  18.138  11.196
37706W        W 9235   5.233  36.056   1.101
37707W        W 9236  29.612   6.881  11.892
37708W        W 9237  36.475  34.114   4.674
37709W        W 9238  33.197  35.281  12.053
37710W        W 9239  28.355  41.279   0.871
37711W        W 9240  30.064  27.715  14.764
37712W        W 9241  23.644  21.986  12.114
37713W        W 9242  32.745  27.039  12.340
37714W        W 9243   0.744  12.842   2.370
37715W        W 9244   0.051  39.835  13.572
37716W        W 9245  40.257  27.132   1.300
37717W        W 9246  29.223  19.668  14.625
37718W        W 9247   5.998  42.834   0.208
37719W        W 9248  10.187  33.987  13.309
37720W        W 9249  25.282  11.144   3.875
37721W        W 9250  34.486   2.795  13.581
37722W        W 9251  40.290  37.904  14.080
37723W        W 9252  13.371  16.867   2.996
37724W        W 9253  39.176  41.707   2.312
37725W        W 9254  11.744  42.733  14.544
37726W        W 9255   1.811  10.266  12.077
37727W        W 9256  23.477  40.587  12.924
37728W        W 9257  16.103  11.669  12.054
37729W        W 9258   0.802  40.686   0.435
37730W        W 9259  36.507  14.777  13.365
37731W        W 9260  22.632  43.390   0.908
37732W        W 9261  23.494  20.096   4.735
37733W        W 9262  19.071   8.701  11.972
37734W        W 9263  21.501  15.982   0.896
37735W        W 9264   9.171  37.363   0.972
37736W        W 9265  39.578   5.157   0.511
37737W        W 9266  44.389  21.472   0.949
37738W        W 9267   6.262  13.740  14.787
37739W        W 9268  15.346  18.631   3.984
37740W        W 9269  28.929  21.073  11.113
37741W        W 9270  15.204  26.229   3.911
37742W        W 9271  41.769  24.747   2.610
37743W        W 9272   8.168  16.278  12.012
37744W        W 9273  10.603   3.304   5.132
37745W        W 9274   0.792  11.666   2.852
37746W        W 9275   3.468  26.039  13.884
37747W        W 9276  24.641  21.288   3.209
37748W        W 9277  35.120  22.998  10.819
37749W        W 9278   6.397  35.334  11.668
37750W        W 9279  36.668   8.617   1.592
37751W        W 9280  34.833  35.301  14.203
37752W        W 9281  28.075  11.205  14.733
37753W        W 9282  12.788   0.964  13.965
37754W        W 9283  29.784  15.640  13.275
37755W        W 9284   2.989  27.030   3.368
37756W        W 9285  30.922  10.793  11.194
37757W        W 9286  21.728  43.905  11.963
37758W        W 9287   9.693  30.074  11.460
37759W        W 9288  30.311  32.135  11.623
37760W        W 9289  20.493  20.105  10.595
37761W        W 9290   1.706  41.865  13.746
37762W        W 9291   7.939  44.038  10.346
37763W        W 9292  34.954  39.632  11.053
37764W        W 9293   3.780   1.403  13.281
37765W        W 9294   8.697  26.116   1.099
37766W        W 9295  15.963  26.972  13.899
37767W        W 9296  25.444  17.316  12.189
37768W        W 9297  14.522   0.784   4.812
37769W        W 9298  19.008  26.928   4.520
37770W        W 9299   4.978  29.397   3.806
37771W        W 9300   8.638   9.732  14.782
37772W        W 9301  38.029  38.350  11.002
37773W        W 9302  26.711  20.212  12.675
37774W        W 9303  40.925   6.276   0.488
37775W        W 9304  24.211   5.369   3.047
37776W        W 9305   8.806  40.124  11.940
37777W        W 9306  10.136  26.202  12.950
37778W        W 9307  38.970  28.190   0.434
37779W        W 9308  19.718  35.773  14.404
37780W        W 9309  18.575  15.906   0.934
37781W        W 9310  20.692   2.222  14.966
37782W        W 9311  15.733   3.835  14.463
37783W        W 9312   3.567   4.220  12.459
37784W        W 9313   2.094  26.035   0.290
37785W        W 9314  12.167   3.990  11.022
37786W        W 9315  35.683  18.106  10.697
37787W        W 9316  34.058  10.333  11.334
37788W        W 9317  18.587  43.360  11.957
37789W        W 9318  42.976   7.180  14.830
37790W        W 9319  13.828  26.903   4.840
37791W        W 9320  21.172  35.245  14.846
37792W        W 9321   6.711   4.575   1.378
37793W        W 9322   5.858   3.384  10.956
37794W        W 9323  27.375  35.854   0.453
37795W        W 9324  28.365  27.300  12.864
37796W        W 9325  37.902   6.283   3.796
37797W        W 9326  28.387   9.942  14.474
37798W        W 9327  19.714  18.464  13.580
37799W        W 9328  15.911  24.661   0.845
37800W        W 9329  44.839   9.834  13.927
37801W        W 9330  39.739  12.829  13.950
37802W        W 9331  15.549  25.648  13.794
37803W        W 9332  30.895  22.286   3.127
37804W        W 9333   2.817  12.747   4.080
37805W        W 9334  35.591  16.250   2.247
37806W        W 9335  29.654  16.256  13.480
37807W        W 9336  14.895  32.370  11.521
37808W        W 9337  38.622  18.301  12.032
37809W        W 9338   6.811  14.112  12.551
37810W        W 9339  42.554  16.242  10.769
37811W        W 9340  41.495   5.046   1.810
37812W        W 9341  12.305   8.061   3.728
37813W        W 9342  14.268  17.848   2.191
37814W        W 9343  20.844  40.061   1.776
37815W        W 9344  21.544  13.246  11.893
37816W        W 9345  39.019  38.205   3.562
37817W        W 9346  31.633  44.959   2.102
37818W        W 9347  42.491   2.762   4.658
37819W        W 9348  21.671  12.691  10.731
37820W        W 9349  41.933   0.782  14.006
37821W        W 9350   3.330   5.459  11.274
37822W        W 9351   2.541  38.024   4.307
37823W        W 9352  12.246  13.329   1.632
37824W        W 9353  24.235  34.787  10.787
37825W        W 9354  26.514  29.109  13.174
37826W        W 9355  21.182   3.591  10.370
37827W        W 9356   5.222  39.303  12.048
37828W        W 9357   0.283  19.488  13.861
37829W        W 9358  38.888  40.976  12.085
37830W        W 9359   5.885  36.357  10.285
37831W        W 9360  28.919  44.397   4.195
37832W        W 9361  11.833  21.964  12.871
37833W        W 9362  29.331   4.830  10.703
37834W        W 9363  43.504  20.970  14.852
37835W        W 9364  27.636  25.041   0.469
37836W        W 9365  44.957  24.009  12.881
37837W        W 9366  26.591  43.595  11.167
37838W        W 9367  29.774  18.094  11.654
37839W        W 9368  12.123  26.442  10.222
37840W        W 9369   1.023  16.107  13.597
37841W        W 9370  28.660  26.436   0.971
37842W        W 9371  26.076   3.792  11.561
37843W        W 9372  34.668  24.430   2.441
37844W        W 9373  22.274  38.655  11.006
37845W        W 9374  23.596  31.121  11.612
37846W        W 9375  21.279   7.247  11.251
37847W        W 9376   8.479  34.801   0.584
37848W        W 9377  37.557  38.744   1.959
37849W        W 9378   4.980  20.794   4.948
37850W        W 9379  37.897  35.440   2.279
37851W        W 9380  15.211  37.695  12.895
37852W        W 9381  22.071  33.297   4.556
37853W        W 9382  14.645   1.470  12.573
37854W        W 9383  19.042  41.716   2.731
37855W        W 9384  10.962  15.472   4.514
37856W        W 9385  22.664  37.356   1.776
37857W        W 9386   6.947  41.555  12.123
37858W        W 9387  29.209  10.341  14.373
37859W        W 9388  15.582  42.781   3.194
37860W        W 9389   1.031  18.561   0.583
37861W        W 9390  37.900  20.066   2.227
37862W        W 9391  17.214  27.282   2.286
37863W        W 9392  30.944  15.148  12.548
37864W        W 9393   1.433   7.388   4.104
37865W        W 9394  28.170  37.622  13.676
37866W        W 9395  28.199  35.665   1.192
37867W        W 9396  18.149  37.779  13.518
37868W        W 9397  42.474  39.522  12.087
37869W        W 9398   0.645  40.294  13.889
37870W        W 9399  18.773  12.386   3.220
37871W        W 9400  15.298   9.405   2.569
37872W        W 9401   8.381  30.580   2.352
37873W        W 9402   5.284  22.039   3.077
37874W        W 9403  21.679   7.524   4.066
37875W        W 9404  32.052   8.698   2.131
37876W        W 9405   0.975  18.359  12.057
37877W        W 9406  16.296  17.617  11.657
37878W        W 9407  15.153  43.853  14.079
37879W        W 9408  32.526  11.404   1.942
37880W        W 9409  44.602   1.100   1.359
37881W        W 9410  43.373  26.427   4.291
37882W        W 9411  13.144  32.533   4.587
37883W        W 9412  22.826  40.758   1.339
37884W        W 9413  37.840  14.299  10.906
37885W        W 9414  15.643  31.651  13.391
37886W        W 9415  40.901   7.919  14.745
37887W        W 9416  44.585   7.371   0.718
37888W        W 9417   7.248  14.512  12.045
37889W        W 9418   0.464  30.201   4.412
37890W        W 9419  15.643  16.497   2.286
37891W        W 9420  22.647   7.305   5.166
37892W        W 9421  32.438  12.790  10.633
37893W        W 9422   6.232  27.075   3.154
37894W        W 9423  35.083  38.050   2.754
37895W        W 9424   0.089  33.037   4.511
37896W        W 9425  17.855  41.441  14.849
37897W        W 9426  34.924  22.754   0.874
37898W        W 9427  21.478  13.998   2.321
37899W        W 9428  17.538   3.959  13.847
37900W        W 9429  40.025  20.216   1.839
37901W        W 9430  25.977   7.676  14.006
37902W        W 9431   0.856  21.208   0.305
37903W        W 9432   9.359  14.909   3.693
37904W        W 9433  23.442  13.434   2.426
37905W        W 9434  37.870  30.478  11.904
37906W        W 9435  14.779  24.579   1.613
37907W        W 9436  15.275   0.353   1.723
37908W        W 9437  13.847  12.368   3.458
37909W        W 9438  40.455  41.563  13.470
37910W        W 9439  21.972   9.247  11.869
37911W        W 9440  28.963  21.577  13.417
37912W        W 9441  15.591  19.015  12.005
37913W        W 9442  31.461  16.174  12.957
37914W        W 9443  38.920  11.945  14.870
37915W        W 9444   9.270   7.750   1.472
37916W        W 9445  12.840  20.526   0.731
37917W        W 9446  37.399   8.422  12.945
37918W        W 9447  14.677  27.714   0.901
37919W        W 9448  11.664  22.604   4.443
37920W        W 9449  16.606  30.599  14.355
37921W        W 9450   7.921   0.337  14.461
37922W        W 9451  12.950  13.073  11.881
37923W        W 9452  36.122  12.175   2.134
37924W        W 9453  40.754   9.868  13.389
37925W        W 9454   3.412  42.265   2.636
37926W        W 9455   2.013  28.587  10.499
37927W        W 9456  21.133  37.870   1.833
37928W        W 9457  34.193  22.091   2.494
37929W        W 9458  40.751   3.826   3.738
37930W        W 9459  15.250  43.738   3.306
37931W        W 9460  26.137  42.367  13.787
37932W        W 9461  21.436  34.056  13.808
37933W        W 9462   9.052  44.793   2.757
37934W        W 9463  27.942   8.151   3.844
37935W        W 9464  25.437  19.278   1.785
37936W        W 9465  23.451   9.890  14.937
37937W        W 9466   7.348  16.766   1.411
37938W        W 9467   1.786   8.750   1.126
37939W        W 9468  18.488  11.306   0.023
37940W        W 9469  16.640  28.617   4.940
37941W        W 9470  23.325  18.665  11.276
37942W        W 9471  36.822  25.378  11.976
37943W        W 9472   4.303  10.449  10.725
37944W        W 9473  41.253  15.668  11.069
37945W        W 9474  25.970  18.784   0.025
37946W        W 9475  38.808  12.269   4.889
37947W        W 9476  34.856   6.968   1.893
37948W        W 9477  12.084  11.150   4.568
37949W        W 9478  18.307   2.966  13.297
37950W        W 9479  31.466   2.358   4.344
37951W        W 9480  13.641  16.125  11.519
37952W        W 9481  43.647  37.595  11.438
37953W        W 9482   4.543   6.076  11.179
37954W        W 9483  10.151  42.265   2.296
37955W        W 9484  19.187  14.174   1.163
37956W        W 9485  14.676  44.842  13.536
37957W        W 9486  43.804  16.861   0.015
37958W        W 9487  37.664  28.651  14.989
37959W        W 9488  23.159  25.376   0.774
37960W        W 9489  12.589  34.185  10.359
37961W        W 9490  42.766  37.807   2.270
37962W        W 9491  14.734  25.968   1.135
37963W        W 9492  27.634  10.323   0.260
37964W        W 9493  44.413  23.045   2.233
37965W        W 9494   3.585   5.924   1.350
37966W        W 9495  25.204  23.202   2.149
37967W        W 9496  14.173  26.071  10.896
37968W        W 9497  22.535   1.987  12.874
37969W        W 9498  29.851   9.823  12.576
37970W        W 9499  12.147  31.002   2.325
37971W        W 9500  38.749  39.442   4.161
37972W        W 9501  14.781  21.001   3.712
37973W        W 9502   6.441  27.221  13.506
37974W        W 9503  12.665   8.343   4.839
37975W        W 9504  39.928   8.777   0.381
37976W        W 9505  44.614  18.972   1.360
37977W        W 9506  29.086  13.200  13.452
37978W        W 9507  38.782   0.002  11.015
37979W        W 9508  29.976  15.334   1.799
37980W        W 9509   7.250  28.927   4.662
37981W        W 9510  15.668  41.727   0.491
37982W        W 9511  35.709   1.458   1.301
37983W        W 9512   0.845  16.608   1.270
37984W        W 9513  27.219   7.411  13.575
37985W        W 9514  13.287   0.017  10.592
37986W        W 9515   2.314  39.428   1.053
37987W        W 9516   0.893   7.614   0.501
37988W        W 9517  31.087   3.616   4.755
37989W        W 9518  24.557  34.588   1.910
37990W        W 9519   4.925   7.275  13.496
37991W        W 9520  34.556   9.702   0.145
37992W        W 9521  19.286  14.229  10.680
37993W        W 9522   2.235   4.701   4.242
37994W        W 9523  20.624  15.791   4.483
37995W        W 9524  24.008   8.286  13.050
37996W        W 9525   9.820  23.189  10.952
37997W        W 9526  30.774  34.955  12.871
37998W        W 9527  36.680  21.313   2.376
37999W        W 9528  42.070   2.332   0.688
38000W        W 9529  11.703   2.845   1.245
38001W        W 9530  28.557  24.509  11.869
38002W        W 9531   7.168  33.979   1.670
38003W        W 9532   8.293   9.416  10.615
38004W        W 9533  19.713   8.496   4.978
38005W        W 9534  34.981  20.127   4.466
38006W        W 9535  38.625  43.974   2.317
38007W        W 9536  24.855   0.055  12.509
38008W        W 9537  15.834   9.091  11.202
38009W        W 9538  25.488  41.266   4.088
38010W        W 9539   7.974  18.934  12.537
38011W        W 9540   5.532   7.776  10.747
38012W        W 9541  18.325  25.438  13.509
38013W        W 9542  28.927  31.442  12.484
38014W        W 9543  10.739  20.516   4.797
38015W        W 9544  40.579  21.360  13.532
38016W        W 9545  19.607  31.104  10.667
38017W        W 9546  11.381  18.535   1.791
38018W        W 9547  37.304  27.670   3.571
38019W        W 9548  25.680  40.236  14.933
38020W        W 9549   6.615  41.572  12.548
38021W        W 9550  38.849  17.169  12.427
38022W        W 9551  25.874  19.478  10.153
38023W        W 9552  40.844   2.008   4.178
38024W        W 9553  12.480  20.571   2.144
38025W        W 9554  20.439  39.434  14.469
38026W        W 9555   5.295  26.395   4.091
38027W        W 9556  15.560   6.574  11.185
38028W        W 9557  40.913  26.968  14.985
38029W        W 9558   2.966  42.000   1.850
38030W        W 9559  21.811   8.906  13.271
38031W        W 9560  41.542  33.982   0.722
38032W        W 9561  28.122  13.315   0.508
38033W        W 9562  11.692  40.866   0.974
38034W        W 9563   4.379  11.707  13.983
38035W        W 9564  25.410  29.042   0.273
38036W        W 9565  35.156   8.641   3.259
38037W        W 9566   3.395  12.473   2.142
38038W        W 9567  24.825  43.714   4.776
38039W        W 9568   3.847  34.785   4.899
38040W        W 9569  33.336  35.594  13.356
38041W        W 9570  19.458  34.633  14.996
38042W        W 9571  34.496  14.503  10.815
38043W        W 9572  18.497  41.764  13.523
38044W        W 9573   7.405  33.441   3.095
38045W        W 9574  26.157  16.322   2.718
38046W        W 9575  27.090   7.277  11.524
38047W        W 9576   9.289  16.343   1.681
38048W        W 9577  19.505  21.559  13.974
38049W        W 9578   5.528  37.908  12.075
38050W        W 9579   4.227  15.071  14.628
38051W        W 9580  31.158  29.633  14.450
38052W        W 9581  11.858  33.948   1.401
38053W        W 9582  23.014  42.415   4.380
38054W        W 9583  12.528  18.708   5.089
38055W        W 9584  20.845  29.032   3.796
38056W        W 9585  28.536  27.462  10.682
38057W        W 9586  11.819  31.962   2.567
38058W        W 9587  14.651  26.571   4.504
38059W        W 9588  19.676  17.322  10.679
38060W        W 9589  30.540  14.686   0.088
38061W        W 9590   3.142  37.875  11.580
38062W        W 9591  12.346  42.073  13.659
38063W        W 9592  44.240   6.253  12.473
38064W        W 9593  18.954  27.466  11.608
38065W        W 9594   8.165  17.988  13.116
38066W        W 9595  27.102  33.686   0.814
38067W        W 9596  22.762   9.854   3.201
38068W        W 9597  35.260  37.830   3.331
38069W        W 9598  33.994  11.924  13.569
38070W        W 9599   3.950   3.222   4.237
38071W        W 9600  33.897  21.451  14.482
38072W        W 9601  23.944  28.681   4.585
38073W        W 9602   5.836   0.753  10.714
38074W        W 9603  30.489  33.365  12.151
38075W        W 9604   8.870   3.047   0.977
38076W        W 9605   4.297  17.240  13.106
38077W        W 9606  14.658  12.118   3.807
38078W        W 9607  41.828  38.098  14.792
38079W        W 9608  37.333  39.491   2.434
38080W        W 9609   0.617  13.966   0.629
38081W        W 9610  16.278   2.285  12.112
38082W        W 9611  29.731  42.796   0.249
38083W        W 9612  43.305  12.160   2.365
38084W        W 9613  10.803  18.533   0.851
38085W        W 9614   9.116  39.390   3.779
38086W        W 9615  34.100  34.860  11.137
38087W        W 9616  14.289  29.234  11.557
38088W        W 9617   8.195  30.427  11.454
38089W        W 9618  13.345  38.615  12.492
38090W        W 9619  35.441  17.085   3.870
38091W        W 9620  10.047  28.731  11.632
38092W        W 9621  16.239  12.238   1.292
38093W        W 9622  30.386  28.260   2.854
38094W        W 9623  41.110  22.257  12.516
38095W        W 9624  36.936  44.988  14.779
38096W        W 9625  23.533  42.049   3.699
38097W        W 9626   1.637  14.809  12.873
38098W        W 9627  26.917  38.730   0.873
38099W        W 9628  43.328  30.371   2.812
38100W        W 9629  18.278  40.731  10.689
38101W        W 9630   5.693  27.206  11.437
38102W        W 9631  41.313  14.263   4.606
38103W        W 9632  35.068  33.524   4.110
38104W        W 9633  25.706  40.413  13.504
38105W        W 9634  38.054  36.576   4.600
38106W        W 9635  17.797  25.539  11.448
38107W        W 9636  40.204  43.210  12.027
38108W        W 9637  42.797   2.267  14.905
38109W        W 9638  36.790  32.753   3.953
38110W        W 9639  10.659  29.566  14.006
38111W        W 9640  43.824  25.532  11.009
38112W        W 9641  39.714  30.499   3.337
38113W        W 9642  21.193  30.849  10.735
38114W        W 9643  21.833  29.235   3.819
38115W        W 9644  29.850  20.317  14.817
38116W        W 9645  21.309  19.252   3.673
38117W        W 9646  28.266   4.728   2.384
38118W        W 9647  11.759  42.123   0.358
38119W        W 9648  29.435  39.154   2.166
38120W        W 9649  32.990  21.168  13.595
38121W        W 9650  28.765  24.097  13.006
38122W        W 9651  22.919  12.248   3.848
38123W        W 9652  32.612   0.245   4.232
38124W        W 9653  30.031  43.254   2.347
38125W        W 9654  37.764  40.957  14.409
38126W        W 9655   0.246  27.013  11.670
38127W        W 9656  13.276  27.787  12.602
38128W        W 9657  38.477  10.867  12.064
38129W        W 9658  44.420  30.879   0.014
38130W        W 9659  16.071   9.622  13.937
38131W        W 9660  18.552  34.464   0.746
38132W        W 9661  29.013  37.517   4.595
38133W        W 9662  35.837  34.345   1.712
38134W        W 9663  39.001  18.047   2.873
38135W        W 9664   7.658  22.997  11.466
38136W        W 9665  43.012  18.693  12.937
38137W        W 9666  22.457  11.749  14.889
38138W        W 9667  15.117  30.971   0.790
38139W        W 9668   5.108   8.823   3.389
38140W        W 9669   9.093  14.269  11.932
38141W        W 9670   2.652  36.419   5.081
38142W        W 9671  23.250  18.193  11.938
38143W        W 9672  15.522   3.255   3.145
38144W        W 9673  39.797  29.425  13.993
38145W        W 9674  40.776  13.363   4.560
38146W        W 9675   8.130  27.207   1.525
38147W        W 9676  33.628  19.640  11.986
38148W        W 9677  41.896  24.436   1.682
38149W        W 9678  19.607  26.070   1.304
38150W        W 9679  44.900  18.456  12.366
38151W        W 9680   6.657  34.452   4.084
38152W        W 9681  22.070  22.925   4.268
38153W        W 9682  41.545   2.945   3.891
38154W        W 9683  14.500   9.012   3.171
38155W        W 9684   9.712  25.519   3.486
38156W        W 9685  43.124  36.540   3.977
38157W        W 9686  40.647  40.899   0.892
38158W        W 9687  39.805  21.062  14.440
38159W        W 9688  37.512   7.203   4.654
38160W        W 9689  17.733  42.789  12.360
38161W        W 9690  27.108  15.224   4.098
38162W        W 9691  27.878  27.135  14.189
38163W        W 9692   2.837  16.507   1.697
38164W        W 9693  33.993  21.788  12.480
38165W        W 9694  26.874  39.473  11.990
38166W        W 9695  30.622  36.414  13.784
38167W        W 9696   8.679   1.004  10.314
38168W        W 9697  14.207  25.274   1.802
38169W        W 9698  23.229  28.030   2.884
38170W        W 9699  24.106  34.833  13.418
38171W        W 9700  37.152  25.163   2.663
38172W        W 9701  41.852  11.876  14.566
38173W        W 9702  30.120  41.740   3.348
38174W        W 9703  40.915  25.111  13.421
38175W        W 9704   8.908  15.336   2.317
38176W        W 9705  42.779   4.696   2.150
38177W        W 9706  36.889  36.380  14.735
38178W        W 9707  29.362   2.911  14.858
38179W        W 9708  30.600   5.807  10.723
38180W        W 9709  34.485  17.936   0.245
38181W        W 9710  32.489  33.372  13.960
38182W        W 9711  11.645  33.006   2.911
38183W        W 9712  15.967  31.551  14.764
38184W        W 9713  37.647  37.539  11.083
38185W        W 9714   1.747  34.135   2.756
38186W        W 9715   9.184  23.436   3.213
38187W        W 9716  17.243  28.937   2.820
38188W        W 9717  26.123  16.063   1.260
38189W        W 9718  29.400   7.772   0.808
38190W        W 9719  15.124  22.223   4.062
38191W        W 9720  29.663  42.275  13.525
38192W        W 9721  30.082  29.445   5.050
38193W        W 9722   5.794  41.250   4.317
38194W        W 9723   7.878  11.250   1.943
38195W        W 9724  31.650   0.632   0.362
38196W        W 9725  22.138  15.627   4.412
38197W        W 9726   0.983  12.905   1.852
38198W        W 9727   8.813  40.843  13.749
38199W        W 9728  40.114  19.561  13.832
38200W        W 9729   9.922  44.003   0.149
38201W        W 9730  16.574  16.593   3.233
38202W        W 9731   6.652  12.872  12.921
38203W        W 9732  40.282  22.374  14.981
38204W        W 9733   0.501   2.306  10.726
38205W        W 9734  17.223  24.053   1.958
38206W        W 9735  30.977   7.056   1.486
38207W        W 9736  20.630  37.972  14.317
38208W        W 9737  37.863  11.862   0.747
38209W        W 9738  26.007   7.906   1.913
38210W        W 9739  25.617  17.731   0.282
38211W        W 9740  43.568  36.426  11.587
38212W        W 9741  25.014  42.397   3.229
38213W        W 9742  16.239  36.816  14.250
38214W        W 9743   0.292  42.421   1.357
38215W        W 9744  25.496  36.073   1.291
38216W        W 9745  11.199   6.773   1.478
38217W        W 9746  38.857  44.320   0.766
38218W        W 9747  22.647   3.688   3.939
38219W        W 9748   9.804   4.190  12.189
38220W        W 9749  30.115  10.565  11.907
38221W        W 9750  27.810  29.479  12.509
38222W        W 9751  10.289   1.713  14.751
38223W        W 9752  31.441   9.214  12.430
38224W        W 9753  17.779  32.922  11.374
38225W        W 9754   4.388  23.838  11.433
38226W        W 9755  41.346   8.206  14.460
38227W        W 9756  17.717  22.795  13.207
38228W        W 9757  38.825  18.831   3.255
38229W        W 9758  34.572  23.895   3.667
38230W        W 9759   1.131   8.918  11.720
38231W        W 9760  40.104  11.212  10.672
38232W        W 9761  14.204  22.860  14.440
38233W        W 9762  23.481  16.770   2.436
38234W        W 9763  22.056  18.486  14.899
38235W        W 9764   5.800  12.286   4.140
38236W        W 9765  35.277  24.470  12.656
38237W        W 9766   9.777  13.831   4.679
38238W        W 9767  12.514  35.641  13.043
38239W        W 9768  39.262  36.068  11.677
38240W        W 9769  16.937  38.571  14.777
38241W        W 9770  44.475  32.966   2.136
38242W        W 9771   2.425  27.900  11.083
38243W        W 9772   6.130  34.401   3.242
38244W        W 9773  31.138  19.460   1.862
38245W        W 9774  34.498  30.168   0.816
38246W        W 9775  13.453  16.134   0.844
38247W        W 9776  33.635  44.343   1.643
38248W        W 9777  30.612  26.639   4.127
38249W        W 9778   3.473  41.928  12.972
38250W        W 9779  30.479   6.134   2.843
38251W        W 9780  18.027  18.765   4.262
38252W        W 9781  38.915  12.657  11.236
38253W        W 9782  11.794   9.267  13.493
38254W        W 9783  16.532   2.340  11.652
38255W        W 9784   7.657  29.971   4.569
38256W        W 9785  23.169  12.497  10.564
38257W        W 9786   0.316  40.147  14.511
38258W        W 9787  31.919   3.890  13.625
38259W        W 9788   2.851  10.663  14.776
38260W        W 9789  44.769  20.154  10.632
38261W        W 9790  26.217   7.641  12.709
38262W        W 9791  14.429   8.447  11.622
38263W        W 9792  36.916  17.593   2.003
38264W        W 9793   8.983   1.751  14.322
38265W        W 9794  14.899  10.426  13.519
38266W        W 9795  42.467   2.994   3.181
38267W        W 9796  25.964  13.170   1.290
38268W        W 9797   4.859  37.998   2.240
38269W        W 9798  15.108  19.244  12.002
38270W        W 9799  43.996  30.064   4.309
38271W        W 9800  39.015  14.501   3.021
38272W        W 9801  22.281  24.878  13.466
38273W        W 9802  22.543  20.895   0.486
38274W        W 9803  28.400   7.230  11.015
38275W        W 9804   3.973  17.243  14.914
38276W        W 9805  11.472  14.834  11.157
38277W        W 9806  42.145   1.838   2.434
38278W        W 9807  31.102  10.037  12.504
38279W        W 9808  10.861  34.602   0.920
38280W        W 9809  26.245  21.019  12.960
38281W        W 9810  18.860   0.706   3.394
38282W        W 9811   1.379  19.778   3.351
38283W        W 9812  25.519  25.498  13.452
38284W        W 9813   9.327  37.868   3.300
38285W        W 9814  18.572  13.730   2.216
38286W        W 9815  39.216  27.646  12.918
38287W        W 9816   7.981  34.238  12.451
38288W        W 9817  41.778   2.940  13.344
38289W        W 9818   2.229  38.314   0.222
38290W        W 9819  30.954  29.525   3.463
38291W        W 9820  39.082  14.497   5.023
38292W        W 9821  33.615  25.047   1.958
38293W        W 9822  38.984  29.884  10.514
38294W        W 9823  13.191  17.819  13.837
38295W        W 9824  18.150  14.309   4.838
38296W        W 9825  21.250   1.877   4.521
38297W        W 9826  16.119   5.404   3.050
38298W        W 9827  21.657  12.283   2.842
38299W        W 9828  39.346  35.328   1.841
38300W        W 9829  20.901  32.551   1.270
38301W        W 9830  26.646  41.967  13.425
38302W        W 9831   1.798  17.094  13.332
38303W        W 9832  19.535  36.708   3.721
38304W        W 9833  41.993   4.256  11.609
38305W        W 9834  43.290  20.109  14.606
38306W        W 9835  19.104  31.190   4.254
38307W        W 9836   1.814  43.951  12.085
38308W        W 9837  10.977  21.708  14.760
38309W        W 9838  22.135  34.502  14.617
38310W        W 9839  42.224  28.925   0.780
38311W        W 9840  15.267  27.696   4.325
38312W        W 9841  35.858  44.805  10.693
38313W        W 9842  25.087  18.208   3.720
38314W        W 9843  34.528  42.904  10.756
38315W        W 9844   6.969   2.478  14.975
38316W        W 9845   4.044  15.356   4.166
38317W        W 9846  26.452   7.378   4.524
38318W        W 9847  11.587  42.605   5.075
38319W        W 9848  19.816  31.467   1.188
38320W        W 9849  10.861  17.215   2.137
38321W        W 9850  19.335  34.901   2.728
38322W        W 9851  13.383  32.712  14.810
38323W        W 9852  27.451   0.247   3.403
38324W        W 9853  25.759   0.787   4.164
38325W        W 9854  33.304  36.505  14.992
38326W        W 9855  17.853  24.795  14.398
38327W        W 9856   2.877  39.071   2.786
38328W        W 9857  20.620  21.103   2.905
38329W        W 9858   2.966  39.401  14.837
38330W        W 9859  30.942  36.364   1.964
38331W        W 9860  25.025  36.577   1.020
38332W        W 9861   4.468  35.442   4.750
38333W        W 9862  39.515  26.763   3.673
38334W        W 9863  19.972  17.332   3.351
38335W        W 9864  44.852   8.901   3.735
38336W        W 9865  12.112  36.935  14.384
38337W        W 9866  26.583  32.984   4.277
38338W        W 9867   7.400  31.614  14.061
38339W        W 9868   4.903   7.178  13.996
38340W        W 9869  17.707  12.531   0.169
38341W        W 9870  15.096  37.340   0.858
38342W        W 9871  36.813  21.554  12.516
38343W        W 9872  18.863   1.506   1.368
38344W        W 9873  43.689  40.387  12.065
38345W        W 9874   2.343  10.297  13.514
38346W        W 9875   9.666   9.715   2.271
38347W        W 9876  21.058   4.690  10.667
38348W        W 9877  28.748  18.658  13.936
38349W        W 9878  27.939  36.024   2.687
38350W        W 9879  31.874   1.872  13.127
38351W        W 9880  25.053  11.343  12.118
38352W        W 9881  10.128  39.510  13.311
38353W        W 9882  16.170   9.259   0.175
38354W        W 9883  37.931  37.529  13.983
38355W        W 9884  12.614  14.213  14.535
38356W        W 9885  30.072   1.702  10.417
38357W        W 9886   0.212   4.678  13.579
38358W        W 9887  35.394  41.972   2.799
38359W        W 9888  28.457  40.053  12.428
38360W        W 9889  28.818  22.909   1.960
38361W        W 9890   2.544  36.430   2.370
38362W        W 9891  44.788  36.974  11.919
38363W        W 9892  14.377  24.670  13.594
38364W        W 9893   8.918  39.108   0.396
38365W        W 9894   8.946  21.468  13.811
38366W        W 9895  43.394  33.886   3.803
38367W        W 9896  28.815  31.927   0.415
38368W        W 9897  38.760  37.344  14.584
38369W        W 9898   9.186   5.962   4.102
38370W        W 9899  29.590   0.501  12.603
38371W        W 9900   5.003  19.135   2.780
38372W        W 9901  40.016  28.189  14.547
38373W        W 9902  19.472  40.001   3.033
38374W        W 9903   5.072   5.976  11.176
38375W        W 9904  41.502  18.181   4.162
38376W        W 9905   5.630  15.878  12.055
38377W        W 9906   3.269  21.521  12.964
38378W        W 9907  17.891  26.978  14.452
38379W        W 9908  27.763  12.612  13.354
38380W        W 9909  11.158   3.652   0.855
38381W        W 9910  17.236  18.850  12.958
38382W        W 9911  22.970  36.279  14.769
38383W        W 9912  22.748  18.859   0.332
38384W        W 9913  17.813  40.408   2.251
38385W        W 9914  12.680  43.060  10.728
38386W        W 9915  19.527  27.965   1.981
38387W        W 9916  10.175   0.944   0.374
38388W        W 9917   2.758  19.613  10.796
38389W        W 9918  16.307  16.389  14.388
38390W        W 9919  36.981  37.153  13.791
38391W        W 9920  34.594   4.821   3.259
38392W        W 9921  14.285  17.117  12.896
38393W        W 9922  12.778  24.598  14.395
38394W        W 9923  30.671   9.071  10.968
38395W        W 9924  29.554  36.272   0.235
38396W        W 9925  39.715   9.691   4.494
38397W        W 9926  20.007   9.425   0.872
38398W        W 9927  30.589   8.160  13.962
38399W        W 9928  27.610   9.987   1.496
38400W        W 9929  34.556  39.255   0.755
38401W        W 9930   5.735  29.941   4.093
38402W        W 9931  33.932  32.062   3.575
38403W        W 9932  38.059  29.108   1.258
38404W        W 9933  39.914  15.232   3.534
38405W        W 9934  31.381  32.524   2.311
38406W        W 9935  11.849  36.784  10.773
38407W        W 9936  14.052  44.551   3.271
38408W        W 9937  23.502  23.409   1.265
38409W        W 9938   2.927  35.144  10.638
38410W        W 9939   2.442  29.756   2.992
38411W        W 9940  40.732  19.083   1.746
38412W        W 9941  18.645  40.874  13.972
38413W        W 9942  37.979  35.944   1.001
38414W        W 9943  29.615  17.345   4.170
38415W        W 9944  20.644  35.299  14.853
38416W        W 9945  38.824   4.904  12.761
38417W        W 9946  26.596  31.649   0.601
38418W        W 9947  32.152  36.037  11.051
38419W        W 9948  43.448   9.411   1.763
38420W        W 9949   2.959  33.875   2.343
38421W        W 9950  37.989   6.770   3.580
38422W        W 9951  12.386  39.823  11.174
38423W        W 9952   2.927  32.159  10.744
38424W        W 9953  11.442  40.553   2.714
38425W        W 9954  13.680  44.495   0.921
38426W        W 9955   7.682  11.874   4.201
38427W        W 9956  28.382  16.739  14.473
38428W        W 9957  30.598  17.876  13.502
38429W        W 9958  43.488  44.282  13.428
38430W        W 9959  38.513  30.092   1.356
38431W        W 9960   8.208   6.779  14.446
38432W        W 9961  33.384  30.573  14.753
38433W        W 9962   4.983  28.231   0.093
38434W        W 9963  11.141   5.906  10.796
38435W        W 9964   3.916   9.878  12.072
38436W        W 9965  31.109  43.357   3.408
38437W        W 9966  33.069  22.973   4.941
38438W        W 9967  38.962  43.658  11.559
38439W        W 9968  14.707  12.165   1.895
38440W        W 9969  32.749  34.898   9.879
38441W        W 9970   4.795  17.040   2.185
38442W        W 9971  30.844  15.021  14.285
38443W        W 9972  11.707  20.447  11.943
38444W        W 9973   6.511  42.497  14.059
38445W        W 9974   0.877   0.992   4.082
38446W        W 9975  26.566  19.142   3.184
38447W        W 9976   3.171   3.627   3.539
38448W        W 9977   8.976  36.247  13.216
38449W        W 9978   6.338  26.904  12.914
38450W        W 9979  21.210  20.189   0.171
38451W        W 9980   1.828  36.090  14.686
38452W        W 9981   9.578  35.079  12.344
38453W        W 9982  41.073  27.629   1.125
38454W        W 9983  22.703  41.515   0.814
38455W        W 9984  25.143   7.894   0.738
38456W        W 9985  17.778  10.153  13.387
38457W        W 9986  38.680   5.284  13.567
38458W        W 9987   2.344  20.032   3.685
38459W        W 9988  42.082  32.016  13.454
38460W        W 9989   7.630  37.341   4.981
38461W        W 9990  19.082  26.213  10.922
38462W        W 9991  33.226   1.342   5.118
38463W        W 9992  12.700   2.684  11.042
38464W        W 9993   7.592   5.526   2.690
38465W        W 9994  33.368  35.118  11.572
38466W        W 9995  40.060  14.802   1.250
38467W        W 9996   6.647  41.862  14.224
38468W        W 9997  41.274  40.037  12.903
38469W        W 9998  16.468  39.890  12.984
38470W        W 9999  23.086   6.659  12.558
38471W        W10000  16.391   8.516  11.563
38472W        W10001  11.192   5.693  13.968
38473W        W10002  28.371  27.103  14.436
38474W        W10003  41.986  30.921  13.869
38475W        W10004  19.350  39.074   0.820
38476W        W10005   1.739   2.015   1.888
38477W        W10006  30.600   7.683   4.101
38478W        W10007  21.424  44.314  13.536
38479W        W10008  18.765  15.642  13.140
38480W        W10009  37.895  12.067  11.135
38481W        W10010  28.447  20.793   0.700
38482W        W10011  42.484  30.901   2.712
38483W        W10012   8.860  38.598  11.141
38484W        W10013  25.811  42.199   1.906
38485W        W10014   3.853  41.818  10.709
38486W        W10015  11.346  21.398  13.351
38487W        W10016  42.535  43.821  11.618
38488W        W10017   3.383  44.012   0.824
38489W        W10018   6.053  24.701  12.801
38490W        W10019  34.016  27.938   0.544
38491W        W10020  25.162  24.246   0.240
38492W        W10021  19.598  44.280   2.219
38493W        W10022  29.469  37.737  12.430
38494W        W10023  41.659  28.516  14.536
38495W        W10024  27.088  43.941  13.558
38496W        W10025  18.451   9.680  10.665
38497W        W10026   9.411  33.963  10.737
38498W        W10027   5.980   2.398   2.397
38499W        W10028   8.077   0.075  14.887
38500W        W10029  11.382  27.628  14.108
38501W        W10030  36.310  41.523   2.499
38502W        W10031  34.448  10.397   4.892
38503W        W10032  44.121  19.697   4.789
38504W        W10033  29.402  27.078   1.321
38505W        W10034  40.305  39.060  11.256
38506W        W10035   1.474  25.948   4.032
38507W        W10036   1.953   5.776   3.150
38508W        W10037  10.868  41.213  13.756
38509W        W10038   4.675  43.442   3.030
38510W        W10039  38.427  17.908  10.921
38511W        W10040  21.674   9.988   4.184
38512W        W10041  41.047  37.102  14.789
38513W        W10042  21.749   8.813  12.031
38514W        W10043  12.486  20.527  11.518
38515W        W10044   8.507  37.488   4.594
38516W        W10045  11.156  23.364  12.126
38517W        W10046   7.264  36.912   4.556
38518W        W10047  25.138  30.922  13.830
38519W        W10048  13.522   0.770   2.750
38520W        W10049  15.026  19.790   3.680
38521W        W10050  25.758  12.624  14.441
38522W        W10051   9.356   3.255  10.508
38523W        W10052  37.968   8.155   0.504
38524W        W10053   5.727  35.086  11.136
38525W        W10054  43.372  29.228   3.264
38526W        W10055   4.719  31.116   3.251
38527W        W10056   1.383  15.646  14.817
38528W        W10057  25.668  22.576  13.914
38529W        W10058  41.321  28.706   4.579
38530W        W10059   7.027  32.185   1.221
38531W        W10060   1.275  14.302  13.854
38532W        W10061  42.327  19.166   0.007
38533W        W10062   8.887  14.072  10.632
38534W        W10063  27.153  19.310   3.854
38535W        W10064  27.058  10.416   4.342
38536W        W10065  25.181  24.007   4.459
38537W        W10066   1.300   2.729  12.238
38538W        W10067   3.915  42.406   0.273
38539W        W10068  36.440  38.050   4.052
38540W        W10069  12.315  23.614   0.894
38541W        W10070  23.738  17.605  14.933
38542W        W10071  13.897  37.820  12.485
38543W        W10072  44.029  36.476   2.222
38544W        W10073  23.088  17.148  12.785
38545W        W10074  40.113   8.081  13.401
38546W        W10075   7.751   1.850   5.126
38547W        W10076  21.215  11.406  10.788
38548W        W10077  19.509  40.827  10.735
38549W        W10078   5.258   3.917   1.744
38550W        W10079   1.939  10.193   4.414
38551W        W10080  44.342  33.988   0.200
38552W        W10081  34.910  31.103  12.575
38553W        W10082  25.557  33.458   1.969
38554W        W10083  34.540  30.523   4.135
38555W        W10084   4.603  38.049   1.730
38556W        W10085   4.715   9.322   2.863
38557W        W10086  32.935   9.387   2.850
38558W        W10087  25.470  43.799  11.261
38559W        W10088  37.534  11.672   1.803
38560W        W10089  24.953  32.435   4.594
38561W        W10090  26.243  37.043   1.304
38562W        W10091   5.366  25.958   0.267
38563W        W10092   5.779  24.642   1.329
38564W        W10093  14.214  26.665   1.608
38565W        W10094  29.099  35.540  12.516
38566W        W10095  39.337  23.842   1.743
38567W        W10096  11.578   1.927  11.054
38568W        W10097  43.434   2.523  12.121
38569W        W10098   7.690  34.662  12.441
38570W        W10099  36.103  44.765   2.157
38571W        W10100  34.611  36.592   1.286
38572W        W10101  44.976  22.189   4.275
38573W        W10102  17.350  24.272  12.777
38574W        W10103  40.072  24.471  13.421
38575W        W10104  39.038  15.612  12.977
38576W        W10105  39.980  24.510   2.385
38577W        W10106  17.302  41.913   0.321
38578W        W10107  35.309  19.858  10.263
38579W        W10108  13.295  19.963   4.364
38580W        W10109  39.859   8.438   2.436
38581W        W10110  38.223   7.309   3.458
38582W        W10111  39.795  34.669  13.811
38583W        W10112   2.039   5.959  14.072
38584W        W10113  40.829  34.652  12.159
38585W        W10114  29.736  35.152  12.959
38586W        W10115  12.943  19.159   4.375
38587W        W10116  40.446  11.356  14.985
38588W        W10117  20.987   3.749  10.816
38589W        W10118  12.367  33.451  11.886
38590W        W10119  32.202  31.657   3.807
38591W        W10120  44.522  11.826   3.226
38592W        W10121  20.695  32.024   3.282
38593W        W10122  30.168  28.538  13.904
38594W        W10123   9.878  23.007  13.357
38595W        W10124   6.903  39.094  13.387
38596W        W10125  35.507  34.398   4.523
38597W        W10126  35.146  17.708   0.019
38598W        W10127  27.938  17.155  14.952
38599W        W10128  10.796  42.982   3.767
38600W        W10129  33.382  30.251  12.354
38601W        W10130  39.267  24.948   0.137
38602W        W10131  15.698  22.695   0.845
38603W        W10132  17.564   7.435  10.330
38604W        W10133  43.517  21.860  12.987
38605W        W10134  11.284   4.231  13.961
38606W        W10135  42.345  13.611   2.698
38607W        W10136  21.472  21.487   1.376
38608W        W10137  44.004  17.920  11.451
38609W        W10138  38.900  29.555   4.211
38610W        W10139   8.914  26.015  12.468
38611W        W10140  35.118  33.448   1.792
38612W        W10141  26.946  32.439   4.323
38613W        W10142  17.436  24.865  10.299
38614W        W10143   8.864  17.274   1.727
38615W        W10144  31.588  31.652   0.333
38616W        W10145   6.877   1.410   4.127
38617W        W10146   6.976   6.937  11.130
38618W        W10147  41.892  29.905  10.623
38619W        W10148   1.443  38.827   4.896
38620W        W10149  15.399  19.108  14.500
38621W        W10150  12.784  29.031   3.904
38622W        W10151  35.245  12.088  12.973
38623W        W10152  25.255   2.658  12.598
38624W        W10153  30.076  19.822  14.927
38625W        W10154  17.570  38.864  13.775
38626W        W10155   9.740  32.395  12.611
38627W        W10156  22.614  14.147  14.228
38628W        W10157  14.066  18.069   1.771
38629W        W10158  25.435  19.812   0.352
38630W        W10159  22.230  14.396  14.451
38631W        W10160  17.252  37.804  14.462
38632W        W10161  28.988  20.018  11.128
38633W        W10162  22.716   4.327  11.993
38634W        W10163   8.271  25.182   3.738
38635W        W10164  30.079  18.107   1.970
38636W        W10165  20.630  16.134   0.844
38637W        W10166  11.879   4.653  11.600
38638W        W10167  22.516  42.905  11.850
38639W        W10168   8.841  21.787   2.137
38640W        W10169  26.439   5.900  13.950
38641W        W10170   2.343   6.770   3.546
38642W        W10171  38.381   0.528   0.191
38643W        W10172  19.273  36.684  14.967
38644W        W10173   8.800  41.208  12.489
38645W        W10174   0.823  37.666  13.448
38646W        W10175  11.103   8.828  13.829
38647W        W10176  27.312  24.422  10.667
38648W        W10177  13.191  40.956   3.257
38649W        W10178  44.923  32.969  13.454
38650W        W10179  41.270  37.010   3.216
38651W        W10180  41.922   3.402   1.260
38652W        W10181  31.151  16.361   3.080
38653W        W10182  18.672  27.563   1.648
38654W        W10183  17.398  37.320  11.533
38655W        W10184  36.930  40.950   3.076
38656W        W10185  38.969  35.656   5.046
38657W        W10186   6.844  34.338  14.358
38658W        W10187   1.855  38.451  10.628
38659W        W10188  39.922  27.517   0.537
38660W        W10189  14.036  25.106  12.339
38661W        W10190  40.085  22.769   0.345
38662W        W10191  23.447  31.021  12.999
38663W        W10192  29.663  34.582   3.332
38664W        W10193  26.581  37.826   0.636
38665W        W10194  20.159  43.457  13.752
38666W        W10195  42.219  33.649   4.643
38667W        W10196  43.653  36.453   2.815
38668W        W10197   8.294  43.953  12.642
38669W        W10198  33.152  15.536  10.023
38670W        W10199   2.475  24.659  14.746
38671W        W10200  12.193  40.495   3.235
38672W        W10201  41.220  26.434  13.066
38673W        W10202  30.628   8.656  14.758
38674W        W10203  11.095  20.502   1.319
38675W        W10204  40.290  24.436   0.844
38676W        W10205  15.634  19.143   3.881
38677W        W10206  14.760  38.397  14.340
38678W        W10207  32.106  12.598   2.343
38679W        W10208  33.211  19.682   4.449
38680W        W10209  23.103  40.076   4.142
38681W        W10210  44.997   6.872   3.402
38682W        W10211  31.278  30.725  11.691
38683W        W10212   8.353  28.161  12.929
38684W        W10213  22.028   1.851  12.973
38685W        W10214   9.705  12.701   0.508
38686W        W10215   3.527  22.458  10.644
38687W        W10216   0.036  33.338  13.027
38688W        W10217   2.511  38.058   0.885
38689W        W10218  42.496  10.846   0.914
38690W        W10219  38.510  35.610  13.885
38691W        W10220   8.631  30.983   2.163
38692W        W10221  29.564  30.682  10.244
38693W        W10222  43.199  40.319  13.893
38694W        W10223  43.344  36.237  13.488
38695W        W10224   8.823  37.083  12.999
38696W        W10225  43.388  18.052  11.081
38697W        W10226  11.172   6.769   0.011
38698W        W10227   6.036  20.627  10.461
38699W        W10228  12.280  14.095  12.460
38700W        W10229  34.137  13.544   4.129
38701W        W10230  10.424   0.496  12.485
38702W        W10231  22.691   3.732   3.408
38703W        W10232  24.248  44.140  14.314
38704W        W10233  39.298  37.247  13.395
38705W        W10234   4.306  13.352  14.511
38706W        W10235  16.113  42.915   1.441
38707W        W10236  32.447   8.596   3.377
38708W        W10237  14.808  32.869   2.893
38709W        W10238  32.714  17.178  12.331
38710W        W10239   9.840  24.243  12.384
38711W        W10240  10.147  41.414  14.414
38712W        W10241   7.134  12.219   1.208
38713W        W10242  31.472  21.208  13.859
38714W        W10243  37.931  14.710   2.206
38715W        W10244  43.601  14.247   1.765
38716W        W10245  29.127  40.019   1.183
38717W        W10246   1.906   2.245  13.409
38718W        W10247  44.353  28.566   4.740
38719W        W10248  36.171   4.693  10.739
38720W        W10249   1.829  36.840  12.519
38721W        W10250  39.327  15.672  11.018
38722W        W10251  10.778  28.643  12.087
38723W        W10252   2.809  32.881  14.471
38724W        W10253   1.140  34.730  14.843
38725W        W10254   8.161  20.657  14.377
38726W        W10255  25.868   1.971  14.948
38727W        W10256   4.750  19.633  13.977
38728W        W10257  25.153  43.354   3.095
38729W        W10258  24.364  43.164  12.163
38730W        W10259  40.087  12.974   5.208
38731W        W10260  11.820  34.751   4.573
38732W        W10261  35.432  15.719   0.731
38733W        W10262  44.543  23.627   0.767
38734W        W10263  13.761  33.091  14.846
38735W        W10264  14.596  13.391  12.133
38736W        W10265  26.592  33.658  12.396
38737W        W10266  25.265  35.635   1.502
38738W        W10267  35.504  16.731  11.766
38739W        W10268  38.046  15.264   3.064
38740W        W10269  17.254   6.999   0.210
38741W        W10270  20.549  25.194   3.655
38742W        W10271  38.500   1.902   2.852
38743W        W10272   9.899  27.151  13.606
38744W        W10273  44.378  44.836   4.749
38745W        W10274   5.226  32.896  13.545
38746W        W10275  40.325   6.138   1.342
38747W        W10276  31.027  29.712   1.618
38748W        W10277  33.372  17.708  10.389
38749W        W10278  15.741  33.363   3.150
38750W        W10279  20.852  14.180   3.914
38751W        W10280  10.126  20.955  13.187
38752W        W10281   0.445  14.300   0.997
38753W        W10282   0.699  11.666   3.732
38754W        W10283  30.889  30.614  12.020
38755W        W10284  23.464  21.019  11.894
38756W        W10285   8.447  37.363  13.592
38757W        W10286  21.434  17.106  10.359
38758W        W10287  23.557   0.655   2.360
38759W        W10288  29.956  19.292  14.926
38760W        W10289  19.715  43.929   0.491
38761W        W10290   1.483   5.648   4.074
38762W        W10291  42.147  43.395  12.809
38763W        W10292   5.004  41.334  14.905
38764W        W10293  10.153  37.430   1.233
38765W        W10294  25.439  19.702   3.700
38766W        W10295  41.792  25.654  13.447
38767W        W10296  22.211  18.024   2.381
38768W        W10297  27.091  16.558   0.393
38769W        W10298   8.121  44.756   4.078
38770W        W10299  12.238   8.415  13.082
38771W        W10300  17.580  36.657   3.535
38772W        W10301  15.265  34.520  14.021
38773W        W10302  19.746   4.085   3.626
38774W        W10303  41.751   0.861   1.268
38775W        W10304   9.665   7.242  13.531
38776W        W10305  13.081  43.321   3.763
38777W        W10306  29.524   8.195  14.303
38778W        W10307  19.338  43.155  11.625
38779W        W10308  13.321  29.196   4.474
38780W        W10309  30.847  11.769  14.515
38781W        W10310  42.590  23.615  10.474
38782W        W10311  12.321  32.072  10.873
38783W        W10312  41.125  13.374   0.760
38784W        W10313   8.777  37.478   0.271
38785W        W10314  31.145  38.273  14.700
38786W        W10315   2.359  15.161   3.276
38787W        W10316  13.411  20.089   2.352
38788W        W10317  20.199  37.526  12.451
38789W        W10318   1.706  38.474  13.975
38790W        W10319  20.028   2.676   3.739
38791W        W10320  14.851  13.596   2.777
38792W        W10321  20.856  31.837   1.983
38793W        W10322  35.355  24.066   3.873
38794W        W10323  14.721  37.120  10.430
38795W        W10324  27.418  41.981  12.874
38796W        W10325  37.917   8.478  13.058
38797W        W10326   2.227  35.823   0.483
38798W        W10327  33.356  11.388  10.742
38799W        W10328   7.443   6.314  12.495
38800W        W10329  35.939  39.966  11.643
38801W        W10330  43.053  25.065   3.431
38802W        W10331  38.129   2.539   4.574
38803W        W10332  23.042  13.454  10.657
38804W        W10333  38.456  41.774   4.583
38805W        W10334  41.865   9.186   2.244
38806W        W10335   6.360  37.834   4.904
38807W        W10336  37.853  20.281   3.705
38808W        W10337  40.214  44.661   3.381
38809W        W10338   3.389   3.514  12.629
38810W        W10339  35.476   5.364   2.245
38811W        W10340  44.413   8.937   2.430
38812W        W10341  21.216   6.902   3.380
38813W        W10342  34.636  14.709  13.043
38814W        W10343  25.894  12.233  13.902
38815W        W10344   9.307  30.064  10.618
38816W        W10345  21.324   6.323  11.252
38817W        W10346   9.628  25.674  11.071
38818W        W10347   6.622  33.084   3.375
38819W        W10348  15.352  22.152  13.440
38820W        W10349  36.107  15.061  11.189
38821W        W10350   2.523  44.026  11.524
38822W        W10351  12.183   9.074   2.799
38823W        W10352  10.676  25.643  10.776
38824W        W10353   9.684   2.237   0.864
38825W        W10354  35.718   4.007   1.920
38826W        W10355  17.634  44.027   1.656
38827W        W10356  39.262  27.697   2.305
38828W        W10357  43.846  14.759  12.358
38829W        W10358  39.266   3.487   3.761
38830W        W10359  14.437  33.911   4.011
38831W        W10360  23.908  33.113   3.218
38832W        W10361  43.894  13.428   1.415
38833W        W10362  14.962  33.349   2.843
38834W        W10363  36.858  39.899   4.113
38835W        W10364   4.712  36.426  11.962
38836W        W10365  33.563   6.578  14.980
38837W        W10366   6.913  25.359   3.560
38838W        W10367   4.616  26.271   5.148
38839W        W10368  34.872  35.440  14.953
38840W        W10369  20.035  35.062  11.020
38841W        W10370  13.154  16.606   1.084
38842W        W10371  23.939   0.885   3.692
38843W        W10372   2.374  31.025   1.831
38844W        W10373   0.515  33.767  14.221
38845W        W10374  17.089  14.276   0.248
38846W        W10375  13.187   1.368  10.293
38847W        W10376  26.877  16.109   0.509
38848W        W10377  29.594  24.937   2.859
38849W        W10378   8.814  10.575   0.897
38850W        W10379  36.639  37.950   2.867
38851W        W10380  19.068  14.412   4.910
38852W        W10381   6.907  20.514   4.540
38853W        W10382  29.521  34.835  13.409
38854W        W10383  13.006   0.373  14.458
38855W        W10384  26.015  18.026   3.300
38856W        W10385  29.799  13.623   0.335
38857W        W10386  40.331  14.631  13.553
38858W        W10387   1.275  11.810   0.315
38859W        W10388  29.940  36.988   3.190
38860W        W10389  10.077  27.572   2.152
38861W        W10390  13.533  15.219  11.254
38862W        W10391  21.977   1.336  12.900
38863W        W10392  31.151  39.272  10.844
38864W        W10393   2.648  33.181  10.118
38865W        W10394  41.276  14.374   2.278
38866W        W10395  14.054  32.445   2.636
38867W        W10396   8.385   5.122  12.539
38868W        W10397  14.814  15.764  12.420
38869W        W10398  12.908  11.565  12.956
38870W        W10399   6.753  30.445  13.909
38871W        W10400   8.065  26.740   1.705
38872W        W10401  20.940  40.415   2.796
38873W        W10402   3.356   1.966   0.981
38874W        W10403  43.777  22.658  10.619
38875W        W10404  30.234  32.814   5.731
38876W        W10405   8.757  27.988   0.085
38877W        W10406   0.371   3.368   3.323
38878W        W10407  26.742  13.222   1.728
38879W        W10408  30.667  15.717  11.399
38880W        W10409   6.432   3.863  14.910
38881W        W10410  14.800   4.938   0.154
38882W        W10411  18.244  17.111  10.666
38883W        W10412  11.187   5.224  11.901
38884W        W10413  13.511  26.027  12.175
38885W        W10414  21.748  39.833  14.470
38886W        W10415   1.377  15.161   0.428
38887W        W10416  36.273  14.105   2.864
38888W        W10417   7.812  16.741   2.384
38889W        W10418  37.372   9.125  13.386
38890W        W10419  41.428  36.089  13.770
38891W        W10420  23.708  42.554   3.678
38892W        W10421  12.081   3.450  13.518
38893W        W10422   1.015  35.979   1.296
38894W        W10423  20.236  27.680   2.192
38895W        W10424  27.015   7.324  10.604
38896W        W10425  30.497  33.148   3.200
38897W        W10426   9.801   9.271   0.379
38898W        W10427  15.842  16.051  11.619
38899W        W10428  28.094   7.201   3.523
38900W        W10429  42.849  36.412  11.951
38901W        W10430  26.659  17.579  14.884
38902W        W10431   0.320  23.202  14.690
38903W        W10432  17.667  27.358   4.935
38904W        W10433  34.636  24.097  13.513
38905W        W10434  23.475   2.539   0.880
38906W        W10435  40.335  14.318  13.955
38907W        W10436  11.229  44.127  13.798
38908W        W10437  25.420  33.499  14.564
38909W        W10438   0.806  44.790  13.967
38910W        W10439  28.555  27.416  13.943
38911W        W10440   8.893  18.155   2.721
38912W        W10441  30.935  14.819   0.440
38913W        W10442  41.113   5.397   1.977
38914W        W10443  10.865  20.072   2.290
38915W        W10444  28.588   9.627  11.969
38916W        W10445  13.323  43.909   4.720
38917W        W10446   1.181  17.205   3.907
38918W        W10447  14.744   9.324   1.323
38919W        W10448  31.583  16.863  13.896
38920W        W10449  11.821  26.737  12.122
38921W        W10450  18.565  16.144   4.604
38922W        W10451  36.306   3.453  12.717
38923W        W10452  23.721  10.259  13.914
38924W        W10453  26.686   3.311   2.093
38925W        W10454  26.894  11.845  10.659
38926W        W10455  40.156  24.046  14.639
38927W        W10456  36.003  24.663  14.888
38928W        W10457  23.643  23.623  11.948
38929W        W10458  31.794  42.739   2.210
38930W        W10459   9.759  23.776  11.688
38931W        W10460   6.257  43.928  14.437
38932W        W10461  10.519  19.150  12.031
38933W        W10462  33.946   5.151   0.208
38934W        W10463  36.883  16.781   4.646
38935W        W10464   0.048  18.910  13.537
38936W        W10465  31.662   4.968   0.849
38937W        W10466  28.554  31.144  13.340
38938W        W10467  18.673  14.050   2.825
38939W        W10468   3.625  17.767  13.351
38940W        W10469   5.881  36.423  13.814
38941W        W10470   8.660  29.976   1.761
38942W        W10471  28.302  30.700  14.227
38943W        W10472   8.622  17.183   2.570
38944W        W10473  31.542  18.020   0.745
38945W        W10474   4.288   2.947   2.853
38946W        W10475  19.707  42.405   1.486
38947W        W10476   7.955  40.075  14.446
38948W        W10477  15.876  38.468  11.523
38949W        W10478   0.941  27.406   2.709
38950W        W10479   5.361  15.538  10.691
38951W        W10480   3.157  44.758  11.218
38952W        W10481  42.017  26.175  14.408
38953W        W10482   8.271  44.257   3.320
38954W        W10483  13.564  20.211  10.431
38955W        W10484   5.949   6.823   2.556
38956W        W10485  41.756  38.496  11.570
38957W        W10486   0.396  43.859   1.028
38958W        W10487  22.316  13.268   2.835
38959W        W10488   3.223  42.728   4.226
38960W        W10489  35.018   4.049  11.614
38961W        W10490  29.093  38.650   5.126
38962W        W10491  33.053  11.663  13.944
38963W        W10492  32.198  43.062  12.473
38964W        W10493   5.426  22.098  12.216
38965W        W10494   9.578  27.560   2.052
38966W        W10495  36.352  28.567   1.409
38967W        W10496  35.994  26.186   0.243
38968W        W10497   7.234  29.384   3.837
38969W        W10498  34.447  16.658   3.739
38970W        W10499  31.479  23.005   4.139
38971W        W10500  12.351   0.359   1.561
38972W        W10501   4.826  36.862   4.144
38973W        W10502  25.098   2.360   3.611
38974W        W10503  25.509   4.441  13.351
38975W        W10504  36.326  34.546   0.024
38976W        W10505   8.670  43.730   3.863
38977W        W10506  19.572  44.843   4.644
38978W        W10507  29.294  23.553  14.752
38979W        W10508  37.830  21.611   3.777
38980W        W10509   5.466  23.060   4.103
38981W        W10510  24.777  15.775  13.995
38982W        W10511  36.514  15.616   1.786
38983W        W10512  20.232  33.394  13.300
38984W        W10513  43.737  19.576   2.054
38985W        W10514   9.413   2.284   4.744
38986W        W10515   0.905  29.167   0.803
38987W        W10516  23.972  14.355  11.506
38988W        W10517  18.325  12.910  10.836
38989W        W10518  18.848   6.724   3.739
38990W        W10519  44.725  39.639  13.946
38991W        W10520  13.901  33.316   0.313
38992W        W10521  38.372  37.114  13.997
38993W        W10522  31.375  10.662  11.427
38994W        W10523  12.072  37.833  14.003
38995W        W10524  23.068  44.927   2.865
38996W        W10525  16.556  17.845  12.338
38997W        W10526  37.407  43.258  13.127
38998W        W10527  30.918  20.740  13.311
38999W        W10528  40.488   0.302  13.984
39000W        W10529  23.273   3.928  13.484
39001W        W10530  33.605  18.475   2.261
39002W        W10531  36.143  39.994   3.663
39003W        W10532  15.241  44.958   2.605
39004W        W10533  23.984  36.393  13.566
39005W        W10534  38.445  33.476   4.028
39006W        W10535  19.250   6.231  13.041
39007W        W10536  40.206  13.549   1.295
39008W        W10537  28.084  32.491  10.977
39009W        W10538   3.457  38.568   3.279
39010W        W10539  20.496  30.635  12.947
39011W        W10540  40.076  17.028  11.209
39012W        W10541  21.596   7.648  14.414
39013W        W10542   7.725  40.378  12.871
39014W        W10543  29.959  17.226  10.817
39015W        W10544   9.872  43.217  13.130
39016W        W10545  11.678  14.203   3.127
39017W        W10546  20.260  36.492  11.185
39018W        W10547   5.955  15.635   4.358
39019W        W10548  14.699   4.487  12.812
39020W        W10549  35.144  10.248  13.455
39021W        W10550  20.497   4.504  12.829
39022W        W10551  23.852  22.455   0.397
39023W        W10552  38.805  30.586   4.226
39024W        W10553  42.555  33.946  14.795
39025W        W10554   9.730   4.993  12.505
39026W        W10555  25.041  44.830  12.954
39027W        W10556  33.994  29.911  11.451
39028W        W10557  19.302  36.410  14.079
39029W        W10558  32.660  39.211   1.671
39030W        W10559   1.739  28.970   3.238
39031W        W10560  20.041  36.467  12.435
39032W        W10561  31.981  35.923   1.425
39033W        W10562  40.819  36.083  11.658
39034W        W10563   8.649   0.157   2.808
39035W        W10564  18.317  21.341   3.326
39036W        W10565  18.006  39.777   2.961
39037W        W10566  22.820  22.001   0.365
39038W        W10567   5.857  24.469   1.838
39039W        W10568  30.088  43.013   3.790
39040W        W10569  35.032  43.422   1.645
39041W        W10570  28.281  26.496  10.608
39042W        W10571  26.471  20.063   0.902
39043W        W10572  14.339   4.890   0.426
39044W        W10573  13.340  16.666  12.692
39045W        W10574  11.749   0.713  14.385
39046W        W10575  27.147  26.636   1.591
39047W        W10576   1.437  38.442   2.205
39048W        W10577  32.363  31.999   4.173
39049W        W10578  40.294  20.520  13.979
39050W        W10579   2.774  31.207   4.222
39051W        W10580  42.912  36.843   0.143
39052W        W10581  44.905  30.548  12.349
39053W        W10582  43.476   2.394  14.439
39054W        W10583   0.805  28.926   2.896
39055W        W10584  21.536  21.674  14.917
39056W        W10585   3.706   9.141   3.163
39057W        W10586  38.771  36.398   0.259
39058W        W10587  34.108  34.380   2.299
39059W        W10588  21.786  16.913   1.009
39060W        W10589  20.182  34.862  13.456
39061W        W10590  23.666  42.216  14.281
39062W        W10591  39.484  30.651  14.421
39063W        W10592  32.856   6.991  12.376
39064W        W10593  16.517  25.035  13.263
39065W        W10594  13.333  43.180   2.332
39066W        W10595  26.563  24.146  12.025
39067W        W10596  23.697  34.523   4.411
39068W        W10597   8.965   6.850  13.839
39069W        W10598   2.548  41.384  11.476
39070W        W10599   2.296   4.061   2.855
39071W        W10600  30.859   1.235   3.353
39072W        W10601   3.388  26.973  11.681
39073W        W10602  22.474  40.324  13.135
39074W        W10603  28.873   5.789  13.984
39075W        W10604  21.465   5.416  10.393
39076W        W10605  15.194  15.533   1.444
39077W        W10606   2.268  38.598  12.882
39078W        W10607  38.393  26.607  10.688
39079W        W10608   4.392  14.341  11.863
39080W        W10609  39.324  26.960  13.471
39081W        W10610  33.117  26.050  11.956
39082W        W10611  37.561   3.631   4.274
39083W        W10612  25.210  13.117   0.423
39084W        W10613   2.455  12.082   2.337
39085W        W10614  11.155  28.091  13.990
39086W        W10615   3.479   0.428  14.906
39087W        W10616  33.903  39.233   3.349
39088W        W10617  43.492  12.258  12.220
39089W        W10618  33.462  11.335   1.436
39090W        W10619   8.293  26.418   0.909
39091W        W10620   6.855  19.008   0.931
39092W        W10621  33.655   8.173   1.818
39093W        W10622   9.814  31.541   4.667
39094W        W10623  36.260  23.465  13.924
39095W        W10624  22.145  12.695  11.605
39096W        W10625   4.753  17.248  14.433
39097W        W10626  14.890   2.918  13.994
39098W        W10627  41.510  18.742   3.633
39099W        W10628  34.007  21.569  13.565
39100W        W10629  28.664  26.011   1.789
39101W        W10630  40.349  27.071  12.091
39102W        W10631  23.731  16.946   3.745
39103W        W10632   7.805  20.176  12.131
39104W        W10633  13.196  41.337   4.798
39105W        W10634  13.129  11.150   1.432
39106W        W10635  39.386   9.666  14.039
39107W        W10636  34.082  44.237  11.481
39108W        W10637  30.537   7.552  11.117
39109W        W10638  39.664   7.841  13.368
39110W        W10639   8.741  24.530  13.580
39111W        W10640  14.053   7.058  13.218
39112W        W10641  20.051  12.696  11.904
39113W        W10642   7.829  24.907   3.650
39114W        W10643  29.238  31.548  12.077
39115W        W10644  44.755  40.551  10.701
39116W        W10645  29.543   9.476   2.873
39117W        W10646  37.083   1.621   1.655
39118W        W10647   5.780  44.876   4.009
39119W        W10648  36.007   4.905  11.692
39120W        W10649   3.265  35.078   1.459
39121W        W10650   2.882  30.203   3.598
39122W        W10651  19.836  38.531   0.878
39123W        W10652  30.235   0.833  14.301
39124W        W10653   1.234  44.791  11.917
39125W        W10654  16.544  41.413  14.407
39126W        W10655  40.348  28.833   4.437
39127W        W10656   9.367  39.677  14.535
39128W        W10657  33.460   4.354  10.185
39129W        W10658  13.741  13.671  13.476
39130W        W10659  12.614  38.478   2.310
39131W        W10660  26.205   5.697  10.489
39132W        W10661  40.801  32.490  11.043
39133W        W10662  35.175  30.058  11.549
39134W        W10663  17.734  20.711  14.442
39135W        W10664  19.619  22.238   1.696
39136W        W10665  23.520  32.864  14.043
39137W        W10666  26.971   0.992   3.682
39138W        W10667  18.438   9.742  12.814
39139W        W10668  22.699  24.236  14.812
39140W        W10669  14.586  21.477  10.342
39141W        W10670   3.861  12.660   1.879
39142W        W10671   1.709  10.812  12.763
39143W        W10672  39.750  30.929  11.478
39144W        W10673  20.469  25.721  12.207
39145W        W10674  37.753  15.166  12.419
39146W        W10675   1.668  17.549   0.147
39147W        W10676  15.135   9.106  14.512
39148W        W10677  27.079  26.990  12.137
39149W        W10678  23.248   5.327  13.102
39150W        W10679  12.204  32.840   2.838
39151W        W10680  36.182  38.049  11.107
39152W        W10681  23.702  32.369  13.144
39153W        W10682  30.804   9.113  13.662
39154W        W10683  44.477  14.026   4.196
39155W        W10684  33.798  13.563   0.431
39156W        W10685  38.987  14.840  11.034
39157W        W10686  11.531  32.168   2.166
39158W        W10687  18.605   8.461  12.120
39159W        W10688   4.647  22.580   1.651
39160W        W10689  43.743  33.982  11.225
39161W        W10690  31.698  19.693  14.335
39162W        W10691  23.425  31.198   2.170
39163W        W10692  35.868  19.739   2.114
39164W        W10693  16.346  24.061  11.534
39165W        W10694  28.027  13.269   3.343
39166W        W10695  31.336  21.291   2.368
39167W        W10696  29.485   7.671  13.365
39168W        W10697  15.643  24.588  14.936
39169W        W10698  21.052  11.885  10.404
39170W        W10699  42.063   7.087   1.474
39171W        W10700  42.556  12.619   0.299
39172W        W10701   8.920  36.901   1.083
39173W        W10702  10.493  18.191  11.065
39174W        W10703  24.203  10.849   0.898
39175W        W10704   8.276  42.152   2.303
39176W        W10705  25.729  26.584  12.478
39177W        W10706  41.480  40.551   0.602
39178W        W10707  38.244   4.249  14.304
39179W        W10708  31.540  12.755   0.215
39180W        W10709  33.416  28.188  10.488
39181W        W10710  18.721   6.862   0.880
39182W        W10711  25.678  22.054   3.621
39183W        W10712   3.168  41.062  11.118
39184W        W10713  26.635   1.257   1.857
39185W        W10714  24.427   2.779   2.362
39186W        W10715  23.612  18.151   0.625
39187W        W10716  41.467  23.140  13.788
39188W        W10717  10.269   9.790  13.870
39189W        W10718   3.382  32.754  11.444
39190W        W10719  20.188  18.490   1.247
39191W        W10720  11.673  14.244  10.991
39192W        W10721   5.989  17.149   2.423
39193W        W10722  11.479   4.411  10.329
39194W        W10723  43.561  38.465  12.933
39195W        W10724  17.730  13.514   0.568
39196W        W10725   6.276  10.940  10.641
39197W        W10726  35.849  40.744   4.156
39198W        W10727  11.389   0.533  13.312
39199W        W10728  12.044  22.700  14.757
39200W        W10729  29.726  16.755  13.301
39201W        W10730  40.800   5.738   0.982
39202W        W10731   9.046  34.348  10.663
39203W        W10732   4.240  33.639   3.818
39204W        W10733  22.768  15.168  12.179
39205W        W10734  33.106  11.620   2.433
39206W        W10735  26.690  19.776   1.334
39207W        W10736  41.967   0.693  12.260
39208W        W10737   6.451  36.669   0.265
39209W        W10738  29.146   9.908  10.668
39210W        W10739  34.413  33.405   2.324
39211W        W10740   8.101   5.391  14.980
39212W        W10741  33.925  42.818  14.258
39213W        W10742  26.786   3.992  12.948
39214W        W10743  23.472  41.081  10.796
39215W        W10744   8.809  19.165   0.355
39216W        W10745   0.831  29.091  12.195
39217W        W10746  22.061  39.989  11.994
39218W        W10747   4.329   3.988   2.889
39219W        W10748   4.835  20.956  14.618
39220W        W10749  13.192  13.448  10.983
39221W        W10750   7.495  32.040  11.551
39222W        W10751   7.612  11.028  12.101
39223W        W10752  17.810  40.839  14.389
39224W        W10753  29.592  38.441  13.505
39225W        W10754  32.100  20.420  10.729
39226W        W10755   5.292   2.827   0.853
39227W        W10756  26.690  32.642   0.894
39228W        W10757   8.871  29.856  14.937
39229W        W10758  40.826   2.545  13.453
39230W        W10759   8.088  39.886  14.903
39231W        W10760  14.353  32.791  13.501
39232W        W10761  43.327   9.191   1.279
39233W        W10762  37.829  29.321   2.192
39234W        W10763   0.704   3.204   3.776
39235W        W10764   4.331  23.876   1.666
39236W        W10765  44.798  19.607   2.277
39237W        W10766  22.569  34.078  11.952
39238W        W10767  42.476  18.518  14.375
39239W        W10768  31.844  39.774   1.453
39240W        W10769   7.430  10.607   1.548
39241W        W10770  20.786   6.063  13.452
39242W        W10771   0.929  28.442   3.605
39243W        W10772  13.223   3.388   3.033
39244W        W10773   3.948  27.736   2.804
39245W        W10774  10.546  39.805   0.486
39246W        W10775  16.308  21.199   2.341
39247W        W10776   3.262  37.892  12.503
39248W        W10777   1.949   9.247   1.081
39249W        W10778  15.280  28.019  13.527
39250W        W10779  11.365  39.499  13.865
39251W        W10780   8.716   2.802  10.399
39252W        W10781   8.858  21.752   4.600
39253W        W10782  28.552  32.634  13.018
39254W        W10783  33.692  15.501  14.349
39255W        W10784   3.518  42.594  13.495
39256W        W10785  42.082  34.861  13.061
39257W        W10786  27.177  43.964  11.933
39258W        W10787  26.150  22.547   4.247
39259W        W10788  36.899  23.218  12.554
39260W        W10789  13.150   2.765  10.560
39261W        W10790  11.221  23.507  10.861
39262W        W10791  34.774  24.054   1.462
39263W        W10792  16.391  44.889  11.002
39264W        W10793   9.481  23.154   4.535
39265W        W10794  35.147   5.801   2.963
39266W        W10795  23.192  29.838  13.382
39267W        W10796  39.131   8.293  12.508
39268W        W10797  42.132  43.395   4.205
39269W        W10798  12.681  43.062   2.644
39270W        W10799  29.505  35.722   9.837
39271W        W10800   7.084  44.914   4.353
39272W        W10801   9.149  13.969   4.406
39273W        W10802   7.626  43.005   3.817
39274W        W10803  21.889  25.791   2.014
39275W        W10804   9.832  43.255  12.602
39276W        W10805  39.776  11.829   4.247
39277W        W10806  41.441  36.578   0.937
39278W        W10807  11.183   0.236  14.676
39279W        W10808  37.097  14.449  14.018
39280W        W10809  29.805  41.395   0.345
39281W        W10810  26.150  32.421  13.970
39282W        W10811   7.809  30.825  14.838
39283W        W10812  41.835  10.071   0.957
39284W        W10813  18.531  29.494  14.819
39285W        W10814  31.381  42.561  13.124
39286W        W10815  38.046  21.665  11.120
39287W        W10816  14.230  27.284   1.398
39288W        W10817   1.567  19.312   3.233
39289W        W10818  42.393  37.564   4.625
39290W        W10819   9.618   9.140  13.975
39291W        W10820   3.991   1.763   0.214
39292W        W10821  27.972  37.390   4.517
39293W        W10822  18.811  26.493   2.702
39294W        W10823  18.700  35.034   4.587
39295W        W10824  40.122   2.472   3.607
39296W        W10825  41.231   2.301   1.531
39297W        W10826  10.267  33.472  13.110
39298W        W10827   0.057   9.475  14.728
39299W        W10828  37.350  18.291   2.217
39300W        W10829  27.059  16.098   2.954
39301W        W10830  32.398  40.586   2.371
39302W        W10831  41.926  13.810  14.890
39303W        W10832   3.138  28.592  11.219
39304W        W10833   7.204  20.073   1.833
39305W        W10834  44.011  41.789   0.259
39306W        W10835  41.929  40.287  11.771
39307W        W10836  44.260  30.815   0.544
39308W        W10837   4.896  10.158   4.412
39309W        W10838  44.670  15.636  11.046
39310W        W10839  37.488   0.613  12.727
39311W        W10840  26.866  35.371  12.944
39312W        W10841  18.979  41.954   3.197
39313W        W10842  28.330   5.377   4.498
39314W        W10843  41.519   8.353   2.223
39315W        W10844  29.103  24.237   2.184
39316W        W10845  31.971  28.384  11.112
39317W        W10846  43.410  21.429   0.920
39318W        W10847  41.043  16.142  11.109
39319W        W10848  33.646  27.405  11.617
39320W        W10849   7.249  39.498   3.566
39321W        W10850  17.493  26.403  14.362
39322W        W10851  19.970  13.082  11.138
39323W        W10852  10.838  21.532  10.632
39324W        W10853  44.129  29.151   2.213
39325W        W10854  41.825  35.587  11.132
39326W        W10855  35.999  43.437   3.322
39327W        W10856  11.749  28.701  14.786
39328W        W10857   8.092  21.481   1.293
39329W        W10858  16.857  16.255   3.693
39330W        W10859  12.508   1.496   2.355
39331W        W10860  21.515  41.369   4.183
39332W        W10861  36.397  20.006  13.177
39333W        W10862  20.886  40.707   1.284
39334W        W10863   5.730  42.799   1.680
39335W        W10864  14.097   5.408  12.061
39336W        W10865  31.473  34.502   2.350
39337W        W10866   0.101  31.952  14.737
39338W        W10867  36.860  42.588  12.959
39339W        W10868   7.274  13.197  13.563
39340W        W10869  36.584  43.384  12.726
39341W        W10870  34.794  17.339  10.753
39342W        W10871  42.319  10.663   0.444
39343W        W10872  30.146   1.258  14.008
39344W        W10873  29.870  33.140  10.934
39345W        W10874  31.015   0.687  14.805
39346W        W10875  24.174  12.882   1.792
39347W        W10876  25.242  39.200  11.523
39348W        W10877  16.022  22.270  12.429
39349W        W10878  26.793  19.118  13.869
39350W        W10879  10.735  17.359  13.028
39351W        W10880  44.513  27.929  14.838
39352W        W10881  10.344  12.795   2.583
39353W        W10882  30.032  36.872  12.996
39354W        W10883  18.751   4.864  12.122
39355W        W10884  38.843  21.640   0.481
39356W        W10885   8.963  12.183  14.927
39357W        W10886  12.385  26.625   4.584
39358W        W10887  14.431   4.182  14.880
39359W        W10888  42.455  17.052   2.373
39360W        W10889   3.079  23.751  12.408
39361W        W10890   1.676  34.347   1.025
39362W        W10891  44.118  16.672   3.377
39363W        W10892  26.432  44.263  14.394
39364W        W10893   5.029  28.622  14.762
39365W        W10894   7.744  30.930   1.937
39366W        W10895  31.508   4.412  13.008
39367W        W10896   6.597  37.371   5.020
39368W        W10897  20.865  36.282  12.399
39369W        W10898   4.589  20.248   0.883
39370W        W10899  16.646  25.903   0.340
39371W        W10900   7.832  22.700   3.656
39372W        W10901  11.901  31.894  13.398
39373W        W10902  21.824  25.665  13.034
39374W        W10903  27.891  34.539  12.174
39375W        W10904  12.511   0.800   2.792
39376W        W10905   2.916   7.791  11.206
39377W        W10906  37.582  34.986  13.489
39378W        W10907   3.789   4.211   3.709
39379W        W10908  30.230  16.305   4.970
39380W        W10909   7.405  28.258  13.542
39381W        W10910  34.537  26.089   0.180
39382W        W10911  32.406   9.882  10.716
39383W        W10912  26.007  38.092   1.304
39384W        W10913   7.829  42.753   1.387
39385W        W10914  20.547  26.644   3.397
39386W        W10915   3.969  34.016  10.655
39387W        W10916   1.348  36.404   1.370
39388W        W10917  39.752   8.105   0.977
39389W        W10918  29.038  21.689  11.165
39390W        W10919   1.876   0.293  11.781
39391W        W10920   0.283  25.553   1.525
39392W        W10921  14.647  33.290   3.279
39393W        W10922   6.963  40.163  10.910
39394W        W10923  15.260   7.509   2.183
39395W        W10924  43.374  12.549   5.079
39396W        W10925  34.274  22.547  13.297
39397W        W10926  27.994  12.781   1.793
39398W        W10927  21.555  17.500   3.643
39399W        W10928  13.110   6.878   0.346
39400W        W10929  40.930  37.777   0.399
39401W        W10930  17.905  10.893   2.762
39402W        W10931   7.174  11.272  14.972
39403W        W10932  11.008  25.675  13.514
39404W        W10933   5.956  13.856  11.005
39405W        W10934  19.694  44.408  11.059
39406W        W10935  33.593  37.131   4.746
39407W        W10936  25.945  25.059   4.149
39408W        W10937  12.903  12.521  11.980
39409W        W10938   6.988  41.526   0.738
39410W        W10939  21.992  36.150   2.688
39411W        W10940  20.840  38.703  11.177
39412W        W10941   1.016   2.246   0.252
39413W        W10942   1.545  32.426  12.102
39414W        W10943  14.565  40.798   1.399
39415W        W10944  33.403   6.302   2.863
39416W        W10945  26.884  38.034  12.046
39417W        W10946  43.729  41.868   2.274
39418W        W10947   8.861  32.688   3.328
39419W        W10948  39.913  42.785  13.415
39420W        W10949   0.368  15.623  13.958
39421W        W10950  13.396  14.172  10.258
39422W        W10951   1.560  21.747   1.747
39423W        W10952   2.942  16.032  11.525
39424W        W10953  40.606  14.334  12.628
39425W        W10954  40.339  16.583   4.685
39426W        W10955  41.240  31.983  10.427
39427W        W10956  22.328  44.076  13.555
39428W        W10957  16.375  30.590   4.155
39429W        W10958  26.554  31.519   1.089
39430W        W10959  16.323  21.553  11.142
39431W        W10960   7.440  26.645   4.180
39432W        W10961  38.316  44.719   1.721
39433W        W10962  34.903  22.336  11.135
39434W        W10963  44.940   5.196  14.824
39435W        W10964  29.075   8.050  12.461
39436W        W10965  23.559   5.015  14.870
39437W        W10966  44.445   3.817  10.748
39438W        W10967  43.031   3.034   3.928
39439W        W10968  21.675  12.454   2.355
39440W        W10969  42.991  34.694   3.680
39441W        W10970  18.671   8.308  14.059
39442W        W10971  20.182  12.270  12.196
39443W        W10972  20.134   7.786   0.895
39444W        W10973  23.826  25.637   1.358
39445W        W10974  15.706  11.780  13.711
39446W        W10975  35.063  18.518  12.045
39447W        W10976  41.061   2.083  10.851
39448W        W10977   5.966  23.472   0.167
39449W        W10978  15.994  10.089  14.849
39450W        W10979  42.923  42.351  12.944
39451W        W10980  33.107  34.913  11.142
39452W        W10981   9.277  16.597  14.828
39453W        W10982  15.566   9.397  10.790
39454W        W10983  35.961  34.480   1.218
39455W        W10984  36.948  16.620   4.137
39456W        W10985  28.596  18.170  14.914
39457W        W10986  27.178  30.833  10.864
39458W        W10987  32.859  41.588   3.126
39459W        W10988  24.632  23.072  12.350
39460W        W10989  14.309  24.953  14.044
39461W        W10990  22.758  33.454   4.146
39462W        W10991  11.138  26.667   0.894
39463W        W10992  38.826   6.790  12.486
39464W        W10993  24.564   8.570   3.320
39465W        W10994  44.828  15.716   2.460
39466W        W10995  43.199  37.848   3.663
39467W        W10996  17.249  19.546  14.634
39468W        W10997  22.921   3.212   4.587
39469W        W10998  38.152  33.954  14.839
39470W        W10999   1.217  41.676   1.437
39471W        W11000  21.621   4.940  13.272
39472W        W11001  29.618   9.843   1.532
39473W        W11002   3.720  36.003   5.028
39474W        W11003  29.487  32.700  10.771
39475W        W11004  10.322   4.518  14.202
39476W        W11005  44.336  26.279  14.810
39477W        W11006  27.105  18.133   0.927
39478W        W11007  31.114  18.511   0.541
39479W        W11008   5.081  44.803   1.273
39480W        W11009  18.066  43.163   3.531
39481W        W11010  37.323  25.448  12.079
39482W        W11011  22.497  44.088   2.739
39483W        W11012  24.510  44.897   1.141
39484W        W11013  38.283   2.326   1.875
39485W        W11014   1.104  19.184   2.230
39486W        W11015  42.877  15.145  12.478
39487W        W11016  19.174  17.288  12.820
39488W        W11017  16.977  32.012   3.272
39489W        W11018  22.655  42.540  14.950
39490W        W11019   7.496   0.515  13.022
39491W        W11020   2.015  14.820  13.996
39492W        W11021  12.692  20.323  14.587
39493W        W11022   8.147  31.636  10.507
39494W        W11023  17.493   9.138   2.919
39495W        W11024  22.231  18.649   1.248
39496W        W11025  28.074  37.677  12.384
39497W        W11026  33.488  31.253  11.661
39498W        W11027   1.552  11.427  13.826
39499W        W11028  33.492   3.422  13.149
39500W        W11029  19.706  31.073  12.911
39501W        W11030  36.609  32.879  14.759
39502W        W11031  12.234   3.342   3.240
39503W        W11032  12.273  43.055   3.285
39504W        W11033   5.976  12.669   0.185
39505W        W11034  34.668  21.800  12.027
39506W        W11035  12.798  11.026  12.973
39507W        W11036  41.731  44.299   1.537
39508W        W11037   5.951  15.701   3.858
39509W        W11038  34.163   5.140   2.297
39510W        W11039  34.944  24.463   3.153
39511W        W11040  19.733  44.578  13.975
39512W        W11041  38.660  35.564   0.456
39513W        W11042  30.235  13.311   4.512
39514W        W11043  40.794  34.755  11.269
39515W        W11044  27.934  23.163  12.528
39516W        W11045  31.092  29.197  10.865
39517W        W11046  13.114  25.748   2.719
39518W        W11047  21.999  27.141   3.612
39519W        W11048   3.272   6.087  12.072
39520W        W11049  25.413   8.234  12.529
39521W        W11050  12.826  41.431   0.956
39522W        W11051   4.862  13.358   0.662
39523W        W11052   7.190  33.873  12.119
39524W        W11053  25.502   8.098   1.892
39525W        W11054   0.623  40.287   1.813
39526W        W11055  19.605  14.133  13.394
39527W        W11056  15.296  10.808  12.479
39528W        W11057  36.853   6.497  11.277
39529W        W11058   8.569  40.797  14.297
39530W        W11059  41.635  22.836   1.781
39531W        W11060   5.623  13.011  14.916
39532W        W11061  39.489  36.645   1.230
39533W        W11062  21.975  36.210   2.180
39534W        W11063   3.081  33.428   4.410
39535W        W11064  19.355  29.722   0.914
39536W        W11065   9.381   2.188   1.281
39537W        W11066  27.988  42.425   4.090
39538W        W11067   5.742  42.312   1.955
39539W        W11068  14.820  29.722   3.733
39540W        W11069   8.793  33.570   1.808
39541W        W11070  36.446  25.696   2.428
39542W        W11071   3.071   1.825   1.418
39543W        W11072  24.669  27.444  13.462
39544W        W11073  19.592  28.203  14.565
39545W        W11074  43.486  17.120  13.815
39546W        W11075  44.323  23.004  12.801
39547W        W11076   8.709  42.014   4.719
39548W        W11077  34.127   3.920   3.306
39549W        W11078   9.783  42.694   1.891
39550W        W11079  31.071  44.106   0.752
39551W        W11080   9.746  18.229  11.498
39552W        W11081   3.314  33.532  13.400
39553W        W11082  20.010  13.798  14.709
39554W        W11083  30.642   2.385  13.595
39555W        W11084  22.240  12.158   4.447
39556W        W11085   0.946  14.152   3.753
39557W        W11086  30.678  29.335  12.022
39558W        W11087  19.530   0.563  13.809
39559W        W11088  26.441   2.225  13.691
39560W        W11089   3.291  10.496  14.518
39561W        W11090  37.771  19.321   2.848
39562W        W11091  18.804  31.734   0.051
39563W        W11092  16.105  15.834  11.194
39564W        W11093  39.428  37.100  10.666
39565W        W11094  25.806  35.100  12.188
39566W        W11095  32.649  41.986   2.812
39567W        W11096  26.922   3.915   0.326
39568W        W11097  13.745  24.752  11.165
39569W        W11098  22.754   5.835  13.337
39570W        W11099   6.186   2.873   2.683
39571W        W11100  43.990   7.866   4.364
39572W        W11101  20.111   1.342  13.752
39573W        W11102  29.997  21.724  13.550
39574W        W11103  20.363  23.196   0.607
39575W        W11104  11.772  13.744  10.908
39576W        W11105   1.207  24.648   2.244
39577W        W11106  38.851   8.721  10.603
39578W        W11107  41.707  22.453  10.760
39579W        W11108   1.727  30.512  11.612
39580W        W11109   0.930  15.658  11.126
39581W        W11110  33.334  38.271  14.815
39582W        W11111  34.099  30.113   3.689
39583W        W11112  41.408  21.709  14.723
39584W        W11113  21.735  39.891  13.451
39585W        W11114  22.546  28.758  10.573
39586W        W11115  10.703   8.385   4.049
39587W        W11116  21.919  41.556  12.054
39588W        W11117   7.389   3.926  11.627
39589W        W11118  13.579  23.629   1.596
39590W        W11119   6.423  34.594  10.384
39591W        W11120  28.632  29.073   3.415
39592W        W11121  40.549  27.564   3.684
39593W        W11122  25.957  16.358  14.490
39594W        W11123  35.349  29.533  13.489
39595W        W11124   0.857  20.765  11.051
39596W        W11125   2.264  35.899  13.952
39597W        W11126  42.573   3.021  10.778
39598W        W11127   1.449   6.686   1.924
39599W        W11128  41.598  12.835   0.381
39600W        W11129  26.686  28.914  13.648
39601W        W11130   9.686  20.582  10.975
39602W        W11131   9.985   6.698  13.014
39603W        W11132  18.623  38.625   1.341
39604W        W11133  32.727  35.081   4.001
39605W        W11134  15.266  21.249   2.561
39606W        W11135  32.642   6.817   0.435
39607W        W11136   1.461  13.736   4.454
39608W        W11137  40.339  38.541   3.681
39609W        W11138  41.990  13.234  11.074
39610W        W11139  31.734  32.656   0.601
39611W        W11140  12.579  11.055  12.081
39612W        W11141   9.202   8.704  12.800
39613W        W11142  42.557  35.750   4.158
39614W        W11143  32.824  14.074   3.785
39615W        W11144  28.573  27.540   0.827
39616W        W11145  21.314  41.415   0.088
39617W        W11146  18.779  14.580  12.835
39618W        W11147  15.570  15.940  14.894
39619W        W11148  21.723  35.377  11.623
39620W        W11149   8.863  37.101   1.827
39621W        W11150  35.019  40.456   2.294
39622W        W11151  23.001   1.457   1.508
39623W        W11152  26.928   2.857   2.294
39624W        W11153   6.031  29.487  13.724
39625W        W11154  20.534  11.142  14.030
39626W        W11155  22.218  44.778  13.772
39627W        W11156  20.377  27.457  12.516
39628W        W11157  32.200  11.127  14.035
39629W        W11158  11.900  32.234  11.133
39630W        W11159  37.524  29.080  14.445
39631W        W11160  15.602  37.351  11.992
39632W        W11161  35.742   0.285  12.419
39633W        W11162  15.241  11.114  13.852
39634W        W11163  22.156  21.136  11.597
39635W        W11164  40.437  34.420  11.125
39636W        W11165  39.010  26.066  14.522
39637W        W11166  37.618  38.516  10.775
39638W        W11167   5.917   4.767  11.200
39639W        W11168  29.654  42.331  10.465
39640W        W11169  43.643  27.030   2.837
39641W        W11170   7.570  44.289  12.063
39642W        W11171  30.816  26.844   5.071
39643W        W11172  11.186   8.632   0.437
39644W        W11173   6.401  26.296  12.013
39645W        W11174  40.477  24.593   4.542
39646W        W11175  38.415   5.837  12.523
39647W        W11176  28.948   2.650  13.461
39648W        W11177  14.297  16.268   4.366
39649W        W11178  24.476  28.785  11.660
39650W        W11179  38.132   1.563  13.055
39651W        W11180  35.938  31.070  14.465
39652W        W11181  17.958  26.208  14.445
39653W        W11182  21.951  11.650  14.798
39654W        W11183   1.655  40.572  14.959
39655W        W11184  42.972  37.422  11.973
39656W        W11185   5.405  32.918   3.861
39657W        W11186  14.039  42.979  13.390
39658W        W11187  27.916   1.001   2.831
39659W        W11188  33.104  17.344   4.205
39660W        W11189  34.851  37.286   3.889
39661W        W11190  11.934   0.946  11.961
39662W        W11191  27.124  40.100   2.299
39663W        W11192  34.474  11.880  10.961
39664W        W11193   1.433  41.386   3.780
39665W        W11194  20.731  20.789  12.597
39666W        W11195  36.990  41.126   4.720
39667W        W11196  39.356  20.551   1.686
39668W        W11197  16.547  14.320  14.750
39669W        W11198  12.272  26.951   0.250
39670W        W11199   2.974   1.004   2.857
39671W        W11200  15.979  38.315  11.049
39672W        W11201  16.026  23.745  12.657
39673W        W11202   6.219   8.224  11.215
39674W        W11203   2.324  22.376  12.895
39675W        W11204  19.756   2.238   2.356
39676W        W11205  39.224   9.567   4.697
39677W        W11206  27.223  23.633  14.363
39678W        W11207  39.363   0.310  14.350
39679W        W11208  31.859  23.981  13.935
39680W        W11209   3.398  44.378  10.509
39681W        W11210   6.151  41.909  13.926
39682W        W11211  12.949  36.005  13.917
39683W        W11212  31.068  18.042   0.297
39684W        W11213  32.702  16.224   4.617
39685W        W11214   3.851  13.325  10.706
39686W        W11215  44.957  39.568  14.844
39687W        W11216  42.885  38.967  14.980
39688W        W11217   5.961  22.548   1.446
39689W        W11218  12.887   9.138   4.153
39690W        W11219   9.846  15.782  13.557
39691W        W11220  28.996  25.359   0.474
39692W        W11221  14.316   1.404   2.826
39693W        W11222  39.193   9.357  11.984
39694W        W11223  19.247   1.023   1.244
39695W        W11224  23.893  28.834  10.314
39696W        W11225  40.497   6.606   4.095
39697W        W11226  22.530  19.329   0.304
39698W        W11227  43.533  22.175  10.706
39699W        W11228  10.221  10.788  12.126
39700W        W11229  25.709   8.320  10.581
39701W        W11230  39.581   5.371  12.349
39702W        W11231  32.201  11.570  14.818
39703W        W11232  20.706  42.913   4.938
39704W        W11233  37.902  17.302  14.365
39705W        W11234  18.499  13.271  12.499
39706W        W11235  10.717  10.063  14.037
39707W        W11236   2.563  22.185  10.472
39708W        W11237  13.289  20.056  11.747
39709W        W11238  28.608  44.089   0.067
39710W        W11239  42.778   5.482  13.911
39711W        W11240  35.377   1.007   0.566
39712W        W11241   1.748  33.170   2.669
39713W        W11242  16.195  23.787  14.211
39714W        W11243   9.502  21.725   3.502
39715W        W11244   3.925  37.234   4.097
39716W        W11245  30.010  23.214   3.200
39717W        W11246  38.297  42.273   4.699
39718W        W11247   5.685  37.780  11.624
39719W        W11248  12.243  34.316   2.886
39720W        W11249  30.133  36.000   4.411
39721W        W11250   6.303  36.739  11.042
39722W        W11251  30.709  30.472   4.855
39723W        W11252  30.983  11.835   4.280
39724W        W11253  41.417  30.572  14.471
39725W        W11254  14.255   6.840   3.587
39726W        W11255   0.747   3.244   2.447
39727W        W11256  15.512  10.901  14.893
39728W        W11257  31.158  27.968  12.462
39729W        W11258   3.860  44.002   4.662
39730W        W11259  44.769  13.449   0.396
39731W        W11260  12.296   9.353  12.580
39732W        W11261  42.947   8.364   0.237
39733W        W11262   8.857  17.702  12.362
39734W        W11263  11.731   8.814   2.723
39735W        W11264  35.104  24.749   3.579
39736W        W11265  31.131  40.294  13.096
39737W        W11266  34.002  25.300   3.679
39738W        W11267  22.602  17.064  12.069
39739W        W11268   7.307  19.899  12.369
39740W        W11269  28.227  10.759  10.862
39741W        W11270  44.842  34.391  13.217
39742W        W11271  43.486  26.531   2.856
39743W        W11272  15.198  14.525   4.699
39744W        W11273  32.489  33.276  13.438
39745W        W11274   1.328  18.766  14.068
39746W        W11275   0.587  34.696  12.914
39747W        W11276  38.938  22.689   2.719
39748W        W11277  28.416  44.349   1.875
39749W        W11278  30.996  38.875  11.118
39750W        W11279  20.606  33.164  14.222
39751W        W11280   4.452   5.109  11.127
39752W        W11281   0.301  14.236   2.002
39753W        W11282  32.524  11.007  10.243
39754W        W11283  23.990  26.721   2.808
39755W        W11284  10.733   0.083   3.678
39756W        W11285  24.829   6.147  12.691
39757W        W11286  24.833  38.331   0.863
39758W        W11287   7.392   5.496   0.378
39759W        W11288  30.289   8.948   3.330
39760W        W11289  28.460  22.933  14.349
39761W        W11290  26.034  24.714  12.616
39762W        W11291  19.602  23.660   4.575
39763W        W11292  17.232  35.533  12.121
39764W        W11293  40.045  14.783   4.942
39765W        W11294  12.594  43.231  12.931
39766W        W11295  28.718  22.492   3.098
39767W        W11296  39.113   6.574   2.603
39768W        W11297  35.016  14.830   2.420
39769W        W11298  31.933  29.978   4.108
39770W        W11299   9.886  40.520   3.657
39771W        W11300  43.720  23.140  14.071
39772W        W11301  39.248  35.493   3.661
39773W        W11302   3.516  23.290  12.999
39774W        W11303  44.908   5.680  12.643
39775W        W11304  42.246   9.731  13.995
39776W        W11305  22.785  39.828   2.799
39777W        W11306  27.206  19.765  13.321
39778W        W11307  27.788   6.323   0.368
39779W        W11308  32.553   3.765   3.714
39780W        W11309  11.229  28.961   1.270
39781W        W11310  41.088   6.908  14.968
39782W        W11311   9.915   0.861  14.047
39783W        W11312  22.650  31.671   2.003
39784W        W11313  11.283   4.839  12.213
39785W        W11314  41.675  34.811  11.124
39786W        W11315  22.962  16.242   1.719
39787W        W11316  19.040  27.050  11.924
39788W        W11317  37.881  18.574   2.222
39789W        W11318   9.011   7.128  12.042
39790W        W11319  44.050  20.272   1.356
39791W        W11320   6.854  10.335  14.884
39792W        W11321  20.931   8.197  12.372
39793W        W11322   4.830  44.467   0.480
39794W        W11323   4.719   9.578   0.079
39795W        W11324  21.071  16.310   0.634
39796W        W11325  36.998   5.092  11.158
39797W        W11326   7.566  36.282   2.811
39798W        W11327  36.006  38.050  12.355
39799W        W11328   0.773  27.115   0.405
39800W        W11329  31.192  23.653  14.471
39801W        W11330  12.282  12.057  14.260
39802W        W11331  35.845  18.313   0.916
39803W        W11332   3.327  12.309   3.069
39804W        W11333   6.840   3.277  13.835
39805W        W11334  27.617  18.171  14.612
39806W        W11335  27.323  23.895  10.648
39807W        W11336   5.563  40.141  14.603
39808W        W11337   0.992  25.255   5.101
39809W        W11338  28.987  14.344  13.264
39810W        W11339  31.992  39.399   4.975
39811W        W11340  28.869  16.227   2.809
39812W        W11341  33.696  30.546  12.092
39813W        W11342  15.339  21.469  12.927
39814W        W11343  40.711  42.416  11.521
39815W        W11344   0.125  15.630  10.810
39816W        W11345   5.120  30.586  14.700
39817W        W11346  21.174  30.809   4.515
39818W        W11347  35.981  43.192  13.453
39819W        W11348  33.110  43.442   1.491
39820W        W11349  23.769  37.114  12.630
39821W        W11350  37.959  21.596   1.941
39822W        W11351  27.349   9.306  12.074
39823W        W11352  38.549  41.503   0.526
39824W        W11353   5.160   7.876  11.554
39825W        W11354  18.791  25.252   0.512
39826W        W11355  11.941  41.506   2.281
39827W        W11356  19.633  13.477   0.546
39828W        W11357  21.982  17.141   4.183
39829W        W11358  24.654  38.542  14.228
39830W        W11359  38.933  11.234   4.235
39831W        W11360   3.195  30.412   4.249
39832W        W11361   4.182  17.172  13.603
39833W        W11362  27.529  13.314  11.035
39834W        W11363   7.894   6.830   4.502
39835W        W11364  20.024   9.797   3.206
39836W        W11365  33.971  40.517  10.670
39837W        W11366  15.615   9.621   1.365
39838W        W11367   6.816  21.052  10.666
39839W        W11368  38.334  31.109  11.614
39840W        W11369  34.402  21.506   0.354
39841W        W11370  11.771   1.927   0.684
39842W        W11371  27.917   9.924  14.025
39843W        W11372  14.349   7.247   5.225
39844W        W11373  34.280  30.185  11.756
39845W        W11374   2.012   5.384   0.808
39846W        W11375  35.841  30.635   1.738
39847W        W11376  21.241   8.723   3.308
39848W        W11377  18.058   4.984  13.503
39849W        W11378   9.574   7.520   2.868
39850W        W11379  40.293  43.293  11.051
39851W        W11380   6.861   5.478   0.306
39852W        W11381  24.233  18.232   2.555
39853W        W11382  30.061  42.308  14.805
39854W        W11383   3.725  17.279   5.172
39855W        W11384  11.695  36.080  14.817
39856W        W11385  30.150  25.860  13.896
39857W        W11386  33.394  33.479  14.105
39858W        W11387   1.348  25.087   2.009
39859W        W11388  34.468  31.461   3.567
39860W        W11389  16.887  44.511   1.550
39861W        W11390  16.954  38.647   3.804
39862W        W11391  25.385   9.400  12.261
39863W        W11392  31.984  38.317  10.163
39864W        W11393  29.144  13.304   2.504
39865W        W11394  11.335  19.243  11.628
39866W        W11395  28.600  34.955  13.308
39867W        W11396   9.810  28.835   1.536
39868W        W11397  23.589   7.977  13.819
39869W        W11398  42.527  18.487  11.085
39870W        W11399  15.020  44.009   2.908
39871W        W11400  40.659  21.950  12.909
39872W        W11401  28.456  40.403  12.911
39873W        W11402  18.081  31.456   0.798
39874W        W11403  34.670  16.619  14.003
39875W        W11404  37.513  10.758   1.798
39876W        W11405  16.645  18.573  14.220
39877W        W11406  32.039  38.406  14.429
39878W        W11407   1.520  30.512  11.107
39879W        W11408   0.719  13.000   0.495
39880W        W11409   7.089  28.637  10.769
39881W        W11410  16.094  43.840  10.615
39882W        W11411  31.226  24.592  12.556
39883W        W11412  22.623  20.110  14.914
39884W        W11413  33.127   7.585  11.854
39885W        W11414   1.252   9.224   2.324
39886W        W11415  44.809  38.782   0.229
39887W        W11416  42.001  19.780   4.680
39888W        W11417   5.344  21.733   1.784
39889W        W11418  14.169   7.893   2.722
39890W        W11419   0.294   2.423   0.420
39891W        W11420   1.993  27.306   3.240
39892W        W11421  18.869  23.031  14.383
39893W        W11422  42.676   2.220  13.412
39894W        W11423  39.326  37.272   2.345
39895W        W11424  12.212  25.570   4.545
39896W        W11425  39.879   1.463  11.990
39897W        W11426  38.128   4.876  14.761
39898W        W11427   5.729  42.263  14.453
39899W        W11428  28.281  11.666  14.821
39900W        W11429  36.190   8.763   3.243
39901W        W11430  38.769   4.307  14.375
39902W        W11431   8.465  10.245   4.304
39903W        W11432  31.468  43.480   2.464
39904W        W11433  20.830  13.822  10.629
39905W        W11434  20.681  30.613   4.547
39906W        W11435   8.178  27.052   4.467
39907W        W11436  31.724  26.988  14.396
39908W        W11437  15.170  32.265   4.004
39909W        W11438   4.438  28.756   3.162
39910W        W11439  23.237  16.730  12.528
39911W        W11440  29.395  36.425   2.769
39912W        W11441  19.755   9.389   2.623
39913W        W11442  12.247  36.388  12.171
39914W        W11443   4.693   0.879   3.419
39915W        W11444  13.610   7.195   3.695
39916W        W11445  27.786  20.257  13.735
39917W        W11446   4.443  11.360  13.560
39918W        W11447  24.215   4.458   4.555
39919W        W11448  38.805  35.069   4.118
39920W        W11449  19.321  20.632   4.731
39921W        W11450   5.902  16.974  13.824
39922W        W11451  23.719  20.221   0.686
39923W        W11452  12.520   0.290  14.237
39924W        W11453  24.564  30.304   0.411
39925W        W11454   2.816  39.172   3.658
39926W        W11455   3.719  38.132  12.063
39927W        W11456   5.874  22.620   2.476
39928W        W11457  41.314   1.844  14.710
39929W        W11458  32.959  13.859   2.747
39930W        W11459  11.414  41.500   3.181
39931W        W11460   2.851  21.954   2.273
39932W        W11461   4.438   8.730  12.093
39933W        W11462  30.905  42.958  14.066
39934W        W11463  36.539  17.567  10.721
39935W        W11464  38.273  15.696   4.741
39936W        W11465   7.158  12.013   4.117
39937W        W11466   3.933  44.254   3.808
39938W        W11467  28.272   9.699  12.351
39939W        W11468   4.820  21.720  11.153
39940W        W11469  15.295  40.988  13.024
39941W        W11470  10.658  22.987   2.894
39942W        W11471  15.512   8.689  13.022
39943W        W11472   2.320  10.222   1.933
39944W        W11473   5.533  40.407  14.153
39945W        W11474  41.900  17.766   2.786
39946W        W11475  30.522   3.283  14.105
39947W        W11476   8.710  20.972  11.656
39948W        W11477  43.406   4.784  13.784
39949W        W11478  10.092  13.929  14.933
39950W        W11479  37.047  21.067  13.372
39951W        W11480  32.921  17.058   3.368
39952W        W11481  16.030  32.597  11.010
39953W        W11482  28.354  36.450   2.885
39954W        W11483  10.320  30.623   4.681
39955W        W11484  35.695  19.247   2.349
39956W        W11485  37.240  20.781   1.482
39957W        W11486  17.650  39.123  14.798
39958W        W11487  33.057  27.374  14.860
39959W        W11488  42.482  29.975  11.076
39960W        W11489   5.986  38.942   3.744
39961W        W11490  20.252  10.443   3.789
39962W        W11491   2.080  27.697  11.437
39963W        W11492   8.749  24.475   1.792
39964W        W11493  29.507  38.915  14.964
39965W        W11494  12.280  18.985   1.253
39966W        W11495  38.007  15.740  13.043
39967W        W11496  22.511  35.124   0.848
39968W        W11497  26.169  28.270  12.531
39969W        W11498   8.156   8.927  10.762
39970W        W11499   2.757   3.232  11.925
39971W        W11500  12.288  44.191  14.991
39972W        W11501  23.514  21.657   2.483
39973W        W11502  30.788  43.441   0.246
39974W        W11503   2.453   3.197  14.036
39975W        W11504  31.590  19.131  11.527
39976W        W11505  24.499  11.926   0.346
39977W        W11506  42.344   7.244  14.554
39978W        W11507  12.731   4.193   3.640
39979W        W11508   1.576  14.639   0.317
39980W        W11509  23.422   7.209  11.365
39981W        W11510  44.680  40.486  13.493
39982W        W11511  44.170  43.566   4.764
39983W        W11512  40.133  40.808   3.675
39984W        W11513   4.974   0.256  12.031
39985W        W11514  37.945  15.283   4.633
39986W        W11515   2.770  28.987   0.673
39987W        W11516  41.528  12.092  12.836
39988W        W11517  30.713  34.511   4.473
39989W        W11518  13.903  43.695  12.487
39990W        W11519  30.711  10.105  14.286
39991W        W11520  22.166   3.409  11.054
39992W        W11521  23.667  11.153   3.670
39993W        W11522   5.847  30.433   4.238
39994W        W11523  33.928  16.978  13.477
39995W        W11524  14.307  39.807  11.553
39996W        W11525  10.250   1.740   1.894
39997W        W11526  31.908   0.285   3.702
39998W        W11527  17.090  34.641   4.686
39999W        W11528  26.539  40.378   0.126
40000W        W11529   8.235   1.889  10.492
40001W        W11530   0.653   7.227   4.412
40002W        W11531  23.625  11.775   1.433
40003W        W11532  14.439  17.256   0.704
40004W        W11533  40.390  29.507   2.824
40005W        W11534  27.111  32.904  11.060
40006W        W11535   2.788  20.887   4.109
40007W        W11536  14.531  33.967  11.450
40008W        W11537  35.981  28.011  13.960
40009W        W11538  20.761   0.759   3.656
40010W        W11539  25.697   8.652   0.699
40011W        W11540   9.150  13.762  14.348
40012W        W11541  44.524   6.892  13.882
40013W        W11542  27.494   0.000  11.600
40014W        W11543   1.411   3.162  11.961
40015W        W11544  32.432  21.292   0.265
40016W        W11545  23.760  34.121   1.191
40017W        W11546  21.247   5.027   2.253
40018W        W11547  29.197  12.767   2.327
40019W        W11548   2.746  35.971  14.220
40020W        W11549   9.868   4.335   1.680
40021W        W11550   3.847  10.406   0.791
40022W        W11551   1.946  37.353   0.247
40023W        W11552   2.804   7.369   1.361
40024W        W11553  32.464  28.718  10.478
40025W        W11554  18.472  20.614   0.194
40026W        W11555  10.755  36.527   2.885
40027W        W11556  26.649  41.259  11.533
40028W        W11557  32.511  22.169  11.516
40029W        W11558  14.927  38.602  11.779
40030W        W11559  37.851  35.282  11.027
40031W        W11560  16.601  28.574   0.667
40032W        W11561   7.450   0.815   3.700
40033W        W11562  21.123  31.862  14.560
40034W        W11563  22.093   0.164   3.119
40035W        W11564  27.098  10.733   1.934
40036W        W11565   5.563  25.524   3.606
40037W        W11566   7.731  40.493   2.155
40038W        W11567  14.056  18.293  11.190
40039W        W11568   6.861  12.776   1.834
40040W        W11569  15.542  18.009   0.304
40041W        W11570  29.570   0.624   1.353
40042W        W11571  25.633  22.967  12.503
40043W        W11572   2.434   9.584  11.546
40044W        W11573  43.427  26.616  11.530
40045W        W11574  44.241  25.064  13.952
40046W        W11575   8.026  33.362  10.439
40047W        W11576   3.414  18.197   1.001
40048W        W11577  31.484  27.083   5.459
40049W        W11578  22.549   6.429  12.516
40050W        W11579  43.877  28.530   4.544
40051W        W11580  43.784  19.551  12.115
40052W        W11581  15.699  27.870   2.349
40053W        W11582  22.205  25.178  10.545
40054W        W11583  44.227  20.800  12.642
40055W        W11584  16.484  22.262   3.666
40056W        W11585   1.189  12.638   2.254
40057W        W11586   4.518  29.908  13.216
40058W        W11587   3.133   7.318   4.686
40059W        W11588  30.695  15.704   4.486
40060W        W11589  17.784   2.315  12.027
40061W        W11590  18.181   2.776   0.759
40062W        W11591  36.246  16.836  11.181
40063W        W11592  28.585  10.130  12.515
40064W        W11593  31.946  11.820  10.700
40065W        W11594  41.631   9.719   4.057
40066W        W11595  35.580   6.970  14.534
40067W        W11596  42.485  25.493  13.967
40068W        W11597  37.112  25.585   2.144
40069W        W11598  26.745  39.416  11.481
40070W        W11599   5.648  38.881   1.969
40071W        W11600   6.854  19.662  12.218
40072W        W11601   3.830  43.268   0.858
40073W        W11602  31.552  21.280  10.678
40074W        W11603  10.932  29.474  13.574
40075W        W11604  29.980  41.049   3.508
40076W        W11605  30.893  15.290   0.235
40077W        W11606  23.749  32.626  12.678
40078W        W11607   0.884  13.179  10.732
40079W        W11608  29.835   3.812   1.685
40080W        W11609  44.229  28.578   0.701
40081W        W11610   7.716  39.974   2.927
40082W        W11611  28.155  41.955   2.347
40083W        W11612   9.865  36.572   0.838
40084W        W11613   3.591  18.265  14.821
40085W        W11614  33.529  18.965   2.365
40086W        W11615  13.222  43.616  11.522
40087W        W11616   5.819  29.427  14.411
40088W        W11617  17.866   0.276   1.225
40089W        W11618  34.533  13.214   4.114
40090W        W11619   7.839  29.043  14.843
40091W        W11620   7.297  12.255   0.716
40092W        W11621  21.040   8.340  11.883
40093W        W11622  14.710   7.263  12.018
40094W        W11623  19.493  10.320  13.927
40095W        W11624   2.494  23.043   3.717
40096W        W11625  31.355   5.508   4.565
40097W        W11626   0.387  44.549   4.574
40098W        W11627  29.448  14.368  14.358
40099W        W11628  19.207  29.605  11.730
40100W        W11629   4.021  21.426   1.859
40101W        W11630  15.152  16.144  10.502
40102W        W11631  42.089  37.089   0.782
40103W        W11632  31.413   3.328   3.977
40104W        W11633  43.586   9.227  14.020
40105W        W11634  24.258  29.388  10.572
40106W        W11635  27.718   4.839   3.226
40107W        W11636   1.731   6.422  12.566
40108W        W11637  35.400  27.044   4.635
40109W        W11638  42.617   8.827   3.430
40110W        W11639  19.534   4.332   2.769
40111W        W11640  21.867  41.278  10.798
40112W        W11641   0.248  30.174  13.295
40113W        W11642  21.187  20.256   4.589
40114W        W11643  17.038  44.794   4.067
40115W        W11644   9.700   2.151  12.568
40116W        W11645  32.159  12.680  12.068
40117W        W11646   0.017  39.622   1.219
40118W        W11647  17.273  16.238   1.730
40119W        W11648  17.340   8.572   4.240
40120W        W11649  13.103  16.918   1.862
40121W        W11650  32.260   6.751   0.891
40122W        W11651  13.002  13.348   3.135
40123W        W11652   5.521  13.720   2.182
40124W        W11653  33.201  15.094  12.302
40125W        W11654  19.416  25.050  10.340
40126W        W11655  18.767   9.988  14.699
40127W        W11656  27.987  36.606   0.990
40128W        W11657   2.247  41.823  11.605
40129W        W11658  39.724   9.644   3.752
40130W        W11659  44.360  19.637  14.870
40131W        W11660   9.655  42.934  12.252
40132W        W11661   5.691  16.261  11.712
40133W        W11662  20.562  14.153   1.873
40134W        W11663  35.546  18.673   4.886
40135W        W11664  39.881  19.042   4.308
40136W        W11665  40.006  30.811  11.055
40137W        W11666  21.725  34.911  14.819
40138W        W11667  43.950  12.320   0.364
40139W        W11668   8.427  43.070  14.147
40140W        W11669   1.291  16.079  13.153
40141W        W11670  42.226  40.822  14.774
40142W        W11671   1.345  10.327  14.828
40143W        W11672  10.658  36.858  14.739
40144W        W11673   1.255  14.271  12.079
40145W        W11674  30.491  12.468  12.065
40146W        W11675  21.764  24.385  13.422
40147W        W11676  42.408  21.363   4.138
40148W        W11677   2.694  36.706   4.136
40149W        W11678  30.074  15.604  12.862
40150W        W11679  15.051  15.172   0.682
40151W        W11680  39.218  13.027   2.638
40152W        W11681   1.090  40.525   4.615
40153W        W11682  39.988  28.087  10.618
40154W        W11683  38.348  24.330  12.840
40155W        W11684  15.692  31.559  14.264
40156W        W11685  28.948   8.589  11.010
40157W        W11686  15.826  23.661   0.957
40158W        W11687  22.617  35.235  14.397
40159W        W11688  17.777  44.270   4.428
40160W        W11689  24.137   2.030  13.442
40161W        W11690  42.835   5.960   4.606
40162W        W11691  39.530  27.886   1.643
40163W        W11692   3.302  14.034  10.497
40164W        W11693  24.963  20.295  13.446
40165W        W11694  43.584   2.831   1.329
40166W        W11695  37.320  10.508  12.148
40167W        W11696  19.219   6.731   0.962
40168W        W11697  24.505  36.722  12.739
40169W        W11698  29.014  34.730   4.118
40170W        W11699  17.359  35.450   4.189
40171W        W11700   2.507  12.935  14.603
40172W        W11701  44.525  14.893   2.920
40173W        W11702  27.807  34.104  11.425
40174W        W11703  44.777  13.560  12.513
40175W        W11704  24.580  34.583  13.339
40176W        W11705   3.960   0.162   4.086
40177W        W11706  22.409  41.958   0.725
40178W        W11707  35.272  36.272   2.368
40179W        W11708   8.543  22.168   1.936
40180W        W11709  26.024  17.843  10.748
40181W        W11710   5.795  39.263   3.382
40182W        W11711  12.529  22.958  11.718
40183W        W11712  29.653  23.122  10.724
40184W        W11713  21.937  10.111   2.216
40185W        W11714  30.984  43.927  14.334
40186W        W11715  37.108  11.572   3.674
40187W        W11716  11.914  12.383  14.347
40188W        W11717  42.949  11.771   2.124
40189W        W11718  43.689  26.485  11.101
40190W        W11719  44.860  43.473  11.517
40191W        W11720  18.912  44.195   0.414
40192W        W11721  29.704   5.592   3.660
40193W        W11722  38.425  12.268  11.166
40194W        W11723  39.955  35.842  14.271
40195W        W11724   6.709  12.255   0.924
40196W        W11725   5.662  34.584   3.197
40197W        W11726  30.678  16.004   0.887
40198W        W11727   8.606  25.922   2.100
40199W        W11728  25.263  11.557   2.841
40200W        W11729  29.619  24.947   0.913
40201W        W11730   0.469  25.512  10.657
40202W        W11731  11.584   0.841  12.469
40203W        W11732  13.100  24.701  12.324
40204W        W11733  10.431   5.285  12.502
40205W        W11734  38.065  41.487  11.692
40206W        W11735  33.410  22.281   4.223
40207W        W11736  23.268  32.564  12.427
40208W        W11737  43.296  28.178  12.500
40209W        W11738  13.881  18.277  14.854
40210W        W11739  25.598  37.687   0.987
40211W        W11740  17.616  19.291  13.595
40212W        W11741  42.215   8.304  11.568
40213W        W11742   9.600  26.136   1.683
40214W        W11743  15.079  10.939   3.280
40215W        W11744  12.609   7.672  14.898
40216W        W11745  41.028   8.117   1.305
40217W        W11746   3.958   6.472   4.238
40218W        W11747  28.747  40.380   3.790
40219W        W11748  25.480  28.010  10.724
40220W        W11749   3.387   8.583  12.070
40221W        W11750   8.034  15.271   4.456
40222W        W11751  36.489  36.083   3.711
40223W        W11752  32.015   6.833  13.468
40224W        W11753  16.021  22.451   3.706
40225W        W11754  25.874  24.595  14.458
40226W        W11755  12.681   7.281  14.334
40227W        W11756   3.835  43.768   3.337
40228W        W11757  17.510  34.201   2.276
40229W        W11758  28.032  19.254  10.573
40230W        W11759   6.145  32.359   0.779
40231W        W11760   8.954  43.113  11.103
40232W        W11761  15.041  18.361  13.894
40233W        W11762  27.349  20.386  11.508
40234W        W11763   6.967  18.214  11.691
40235W        W11764   2.894  27.408  13.914
40236W        W11765   8.763  10.373  11.560
40237W        W11766   0.964   4.276   4.026
40238W        W11767  25.136   7.514  14.037
40239W        W11768  44.305  37.631  12.152
40240W        W11769  36.365  40.985   1.767
40241W        W11770  27.579  14.782  13.327
40242W        W11771  15.630  24.049   1.217
40243W        W11772  21.065   8.275   2.297
40244W        W11773  40.082   7.348  14.006
40245W        W11774  10.201  18.583  13.289
40246W        W11775  40.995   9.248  14.822
40247W        W11776  23.512  27.169  14.806
40248W        W11777  23.033  26.426   0.758
40249W        W11778  18.361  33.915   4.259
40250W        W11779  29.598  41.506  10.665
40251W        W11780  23.175  35.935  14.404
40252W        W11781  42.810   5.180  12.570
40253W        W11782   9.840  19.277  12.840
40254W        W11783   7.330  37.044  13.015
40255W        W11784  30.262  31.434  10.922
40256W        W11785  35.292  14.315  11.843
40257W        W11786  11.153   7.244  14.441
40258W        W11787  44.933  16.623   3.727
40259W        W11788  27.000  12.234  12.087
40260W        W11789  32.627  22.580  14.055
40261W        W11790  31.398  29.577  12.502
40262W        W11791  10.768  37.843  12.894
40263W        W11792  38.844   2.529  11.769
40264W        W11793  19.105   0.136  11.059
40265W        W11794  16.374  11.259  11.755
40266W        W11795  39.489  33.377  14.026
40267W        W11796  41.002  23.963   3.964
40268W        W11797  12.620  41.055  12.098
40269W        W11798   4.513   6.885   0.292
40270W        W11799   5.478  38.991   3.691
40271W        W11800   9.733  38.069   3.091
40272W        W11801   1.806  10.314  11.551
40273W        W11802  19.562  44.419  11.956
40274W        W11803  31.234  39.967  13.910
40275W        W11804  28.692   0.400  11.640
40276W        W11805  39.441  21.916   2.547
40277W        W11806  19.129   1.291   1.767
40278W        W11807  42.402  44.615  10.645
40279W        W11808  13.693  22.907   4.924
40280W        W11809   9.265  11.427   0.364
40281W        W11810  32.846  29.559   3.823
40282W        W11811  32.650  30.476   3.585
40283W        W11812   9.929   8.490   4.323
40284W        W11813  11.260  22.722   4.142
40285W        W11814  16.869  17.618   1.347
40286W        W11815  26.051  36.067  10.528
40287W        W11816  43.201  23.036   2.844
40288W        W11817  33.180  29.473   1.724
40289W        W11818  17.091   5.475   3.165
40290W        W11819  10.806  32.347  10.589
40291W        W11820  40.328   8.277  12.958
40292W        W11821  34.621   9.178  11.725
40293W        W11822  40.071  29.841   2.198
40294W        W11823  15.188   7.056   0.693
40295W        W11824  23.106  30.245   4.490
40296W        W11825  32.827   0.772  13.286
40297W        W11826  40.746   6.499   0.060
40298W        W11827   0.595  14.686   4.570
40299W        W11828   1.684  12.196  13.020
40300W        W11829  26.769  37.111   1.179
40301W        W11830  25.726  43.846   2.335
40302W        W11831  26.469  12.486   3.213
40303W        W11832  39.368  26.514  10.654
40304W        W11833  34.340  14.152  12.923
40305W        W11834   2.562  21.515  11.531
40306W        W11835   3.443   6.524   3.784
40307W        W11836  12.683  25.524   4.304
40308W        W11837   4.483  42.688  13.900
40309W        W11838  31.433  12.342  14.915
40310W        W11839  40.287  29.616   4.078
40311W        W11840  35.888  24.227   1.867
40312W        W11841  22.017   1.209  12.106
40313W        W11842  36.367   1.195  12.190
40314W        W11843  40.667  39.877  14.773
40315W        W11844  15.202  10.827   0.287
40316W        W11845  15.824  36.322   0.388
40317W        W11846  21.519  23.894  11.212
40318W        W11847  24.224  13.687  13.739
40319W        W11848  19.496  31.615   0.779
40320W        W11849  32.585  18.099  11.129
40321W        W11850  31.357   0.977  13.455
40322W        W11851  19.758  15.723  14.391
40323W        W11852  30.973   0.385  13.288
40324W        W11853   7.879  23.181   0.893
40325W        W11854  40.602  40.045   3.704
40326W        W11855  30.230   3.312   2.140
40327W        W11856  24.850  37.525   2.657
40328W        W11857  38.029  18.733   1.737
40329W        W11858   1.992  29.141   4.804
40330W        W11859   3.860  12.698   2.392
40331W        W11860   7.743  19.733  10.904
40332W        W11861  23.242  12.288   4.252
40333W        W11862  44.124  34.340  11.312
40334W        W11863  42.386  21.663   4.582
40335W        W11864   8.639  18.569   0.357
40336W        W11865  24.657  16.554  14.404
40337W        W11866  14.445  29.992  12.433
40338W        W11867  20.228  26.535   4.901
40339W        W11868  32.847   0.943  11.973
40340W        W11869   8.742  25.145   0.959
40341W        W11870   1.619  16.987   2.853
40342W        W11871  44.265  21.257   0.480
40343W        W11872   2.004  32.974  14.839
40344W        W11873  25.155  12.696  11.861
40345W        W11874  30.559   6.170   4.824
40346W        W11875  37.312  28.694   4.535
40347W        W11876   3.227   8.386  11.629
40348W        W11877  41.539  12.256  11.987
40349W        W11878  43.894  15.130  13.550
40350W        W11879  40.465   3.876   4.173
40351W        W11880  33.432  17.198  13.284
40352W        W11881  37.264  26.867  11.986
40353W        W11882   0.633  44.829  12.981
40354W        W11883   2.277   9.820  13.736
40355W        W11884  14.887  18.252   1.704
40356W        W11885  17.213  40.791  10.731
40357W        W11886  34.421  38.052  13.578
40358W        W11887  24.262  18.104  10.988
40359W        W11888  11.399  22.999  12.450
40360W        W11889  20.154  32.439   2.187
40361W        W11890  21.591  28.740  14.911
40362W        W11891  10.665  30.014   1.773
40363W        W11892  20.544  27.524   3.891
40364W        W11893  29.565  14.653   2.630
40365W        W11894  21.611   2.398  14.938
40366W        W11895  29.556  14.567  12.427
40367W        W11896  29.678  11.755   3.798
40368W        W11897  37.388  30.579   1.851
40369W        W11898   0.302  25.085   3.409
40370W        W11899  38.502  21.481  13.035
40371W        W11900  19.699  24.260   2.314
40372W        W11901  27.646  14.911  11.057
40373W        W11902  42.019   6.046  11.155
40374W        W11903   6.567   5.324  12.309
40375W        W11904  35.664  13.833   0.416
40376W        W11905  21.320   8.982  14.502
40377W        W11906  29.035  11.553   2.943
40378W        W11907  34.316  38.556  13.719
40379W        W11908  43.480  19.744  12.476
40380W        W11909  40.964  22.881   3.263
40381W        W11910  34.442   2.272   0.793
40382W        W11911  23.774  20.758   0.067
40383W        W11912   8.155  30.028  12.767
40384W        W11913  14.688  12.273  12.951
40385W        W11914   2.970  25.757   3.678
40386W        W11915  40.847  35.908   0.082
40387W        W11916  11.788  35.629   3.188
40388W        W11917   8.829  38.806  11.606
40389W        W11918  25.477   1.920  13.981
40390W        W11919   6.319  37.094  10.673
40391W        W11920  13.762  43.299   3.098
40392W        W11921  21.114   9.709  11.481
40393W        W11922  37.854  13.785  12.565
40394W        W11923  24.528  41.942  14.277
40395W        W11924  38.034  42.534   3.827
40396W        W11925  36.092  30.058  13.487
40397W        W11926  34.565  18.687  11.995
40398W        W11927  26.452  33.193  12.050
40399W        W11928   9.900  38.224   0.827
40400W        W11929  19.680  42.909  12.389
40401W        W11930  35.400   9.084   4.958
40402W        W11931   4.961  15.862  12.933
40403W        W11932   4.267  10.223  14.057
40404W        W11933  19.259  17.824   3.614
40405W        W11934  24.028  33.944  13.682
40406W        W11935  42.016  35.635  10.656
40407W        W11936  11.905  32.999   4.935
40408W        W11937  29.568  42.381   2.775
40409W        W11938  21.088  27.594   1.633
40410W        W11939  40.503  34.095   0.772
40411W        W11940  40.975  42.014  14.957
40412W        W11941  21.723  26.540  13.326
40413W        W11942  27.056  33.402  12.708
40414W        W11943   4.162   4.325   0.907
40415W        W11944  23.282  44.992  14.876
40416W        W11945   0.879   6.378   3.541
40417W        W11946  20.730  16.827  13.471
40418W        W11947  26.603  34.841  13.970
40419W        W11948  35.958  43.524  14.469
40420W        W11949  42.775  34.983  14.321
40421W        W11950  38.649  42.342   3.310
40422W        W11951  20.180  36.169  10.794
40423W        W11952  42.350  34.182   4.360
40424W        W11953  36.472   0.179  14.967
40425W        W11954  24.450  39.030  11.422
40426W        W11955  39.086  18.681   1.959
40427W        W11956   3.432  23.421  11.491
40428W        W11957   3.163   6.668  13.751
40429W        W11958  27.945  16.853   0.394
40430W        W11959  32.134   7.679  10.628
40431W        W11960  13.674  10.641  11.626
40432W        W11961  13.219   0.803  13.002
40433W        W11962  12.123  37.549  12.944
40434W        W11963  23.762  28.704   2.848
40435W        W11964   4.709  20.989   1.756
40436W        W11965  17.640  37.071  14.296
40437W        W11966  32.038  39.933   1.946
40438W        W11967   9.605  33.607   3.208
40439W        W11968  14.318  17.103  13.913
40440W        W11969  37.818  32.422  14.919
40441W        W11970   5.175  17.249   1.891
40442W        W11971  17.813  33.338   4.154
40443W        W11972  44.745  21.798  14.821
40444W        W11973  36.181   6.442   0.803
40445W        W11974  22.636   7.801  10.649
40446W        W11975  17.594  37.867   1.192
40447W        W11976  33.141  18.839   0.748
40448W        W11977  12.224  25.783   3.059
40449W        W11978   6.207   0.348   3.714
40450W        W11979  42.398  11.684   3.852
40451W        W11980  29.632  40.506   3.239
40452W        W11981  17.851  33.457  11.191
40453W        W11982  23.187  12.791  12.199
40454W        W11983   6.233  19.009  14.385
40455W        W11984  20.701   6.934   4.216
40456W        W11985   7.857  12.820   0.845
40457W        W11986  16.576  18.500   1.810
40458W        W11987  38.255   9.875   2.839
40459W        W11988   6.734  41.713  13.363
40460W        W11989  42.623  12.651   2.700
40461W        W11990  34.061  17.035   0.084
40462W        W11991  36.521  16.682  10.763
40463W        W11992  26.979   0.215  11.536
40464W        W11993  36.827  22.138  14.490
40465W        W11994  15.132  31.272   5.010
40466W        W11995  10.891   3.018   3.557
40467W        W11996  36.009  44.818   0.781
40468W        W11997  18.962  14.268   3.201
40469W        W11998  25.678   4.555   1.164
40470W        W11999  10.713  44.755   3.096
40471W        W12000   6.307  25.299  12.019
40472W        W12001  23.066  15.117   1.439
40473W        W12002  24.117  35.887   0.220
40474W        W12003  42.044  32.586  12.750
40475W        W12004  14.545   7.951   3.188
40476W        W12005  28.466  12.156  12.033
40477W        W12006   3.335  20.212  14.288
40478W        W12007  24.956   7.487  14.979
40479W        W12008  13.861  27.257   1.870
40480W        W12009  13.965  28.942   0.522
40481W        W12010  44.326  29.991   3.848
40482W        W12011  18.743  23.761  14.057
40483W        W12012  22.815   7.956   2.060
40484W        W12013  42.079  23.577   3.665
40485W        W12014  37.861   0.779   2.414
40486W        W12015   2.023  17.683   3.243
40487W        W12016  38.961  19.740   3.617
40488W        W12017   5.471  19.680  14.458
40489W        W12018  44.765   4.393   0.390
40490W        W12019  35.101  31.479   2.169
40491W        W12020   4.016  34.018   4.961
40492W        W12021   3.062  38.520  13.530
40493W        W12022  12.233  19.281  13.068
40494W        W12023  14.777  11.948  14.998
40495W        W12024  37.570   9.936   1.091
40496W        W12025  33.635  29.062  12.201
40497W        W12026   5.278  35.947   1.608
40498W        W12027   1.427  12.545   3.073
40499W        W12028  20.743  38.302   5.368
40500W        W12029  17.304  35.842  11.595
40501W        W12030   9.992  14.511  13.782
40502W        W12031  21.575  30.892  11.131
40503W        W12032  21.110  21.180   4.602
40504W        W12033  31.380  28.541  11.746
40505W        W12034  39.823  17.487   3.150
40506W        W12035  43.250   1.146   0.748
40507W        W12036  41.049  32.986  13.336
40508W        W12037  19.055  39.042  14.354
40509W        W12038  22.261  15.056   1.910
40510W        W12039  31.351  20.964  11.090
40511W        W12040  33.693   5.868   2.284
40512W        W12041  29.881   6.221   1.940
40513W        W12042  17.050   5.800   1.583
40514W        W12043  40.939  16.432  12.062
40515W        W12044   4.012  23.179  13.110
40516W        W12045  27.117  36.478  12.068
40517W        W12046  16.563  26.688   4.610
40518W        W12047  17.732  21.979  14.869
40519W        W12048  11.828   6.886  12.780
40520W        W12049   8.738  38.570  12.098
40521W        W12050  38.661  31.336   2.667
40522W        W12051  12.770  33.076  13.034
40523W        W12052  34.326  44.815  14.898
40524W        W12053   5.645  15.290   4.024
40525W        W12054  29.438   9.832  11.233
40526W        W12055  23.838  15.151  11.108
40527W        W12056  38.535  23.043   2.998
40528W        W12057  12.908  17.514   2.780
40529W        W12058  20.602  24.977   2.083
40530W        W12059  12.878  41.495   2.817
40531W        W12060  12.738  30.148   2.299
40532W        W12061  24.373  42.863  12.597
40533W        W12062   8.233   3.255   0.365
40534W        W12063  31.158  35.079   4.034
40535W        W12064  18.229   0.040   2.514
40536W        W12065  27.119  32.261   2.776
40537W        W12066  25.840  38.968   0.284
40538W        W12067  34.754  14.313   4.472
40539W        W12068  13.708  31.568  13.533
40540W        W12069  33.853  33.617  13.881
40541W        W12070   6.787  16.340  13.050
40542W        W12071  28.625  32.214   4.963
40543W        W12072  38.522  14.656  14.448
40544W        W12073  30.161  17.586   1.829
40545W        W12074  24.007   2.715  11.994
40546W        W12075   9.442  15.692   2.887
40547W        W12076   0.856  23.610   0.790
40548W        W12077  43.357  30.148   4.500
40549W        W12078  38.773  14.104   4.570
40550W        W12079  24.239  22.995   2.210
40551W        W12080  10.768  41.938   4.498
40552W        W12081  30.098  30.674  14.527
40553W        W12082  26.380  16.505   4.526
40554W        W12083  33.108  29.634   0.348
40555W        W12084   9.311  44.199   1.206
40556W        W12085  42.778  15.165  14.720
40557W        W12086  20.251  19.300  11.510
40558W        W12087   7.888   2.724  11.058
40559W        W12088  43.733  34.132  11.752
40560W        W12089  10.302  18.111  13.750
40561W        W12090  38.108  23.049  10.680
40562W        W12091   9.766  37.795   3.558
40563W        W12092  19.004  32.117  14.721
40564W        W12093  37.999   5.330   1.883
40565W        W12094   8.050  26.957   4.989
40566W        W12095  13.848  31.582  14.038
40567W        W12096  14.867  29.267  10.680
40568W        W12097  10.036  30.354   5.021
40569W        W12098  28.247  36.371   1.940
40570W        W12099  30.244  39.494  12.095
40571W        W12100  41.315  31.987   3.192
40572W        W12101  10.903  11.646  13.831
40573W        W12102   5.414  41.070   3.793
40574W        W12103  18.244   0.010   0.399
40575W        W12104  25.476  30.975  12.911
40576W        W12105  20.337  26.590  13.096
40577W        W12106   3.823   5.286   3.735
40578W        W12107  41.290   8.786   0.906
40579W        W12108   2.757  28.459  13.169
40580W        W12109  38.892  15.539  10.064
40581W        W12110   1.466   4.228  10.654
40582W        W12111   5.874  22.631   3.661
40583W        W12112  30.570  36.712  10.783
40584W        W12113  16.320   1.923   0.421
40585W        W12114  10.795   1.845  14.048
40586W        W12115   2.442   8.872   1.842
40587W        W12116  21.239  29.122  14.811
40588W        W12117  21.153  12.147   4.203
40589W        W12118  25.548  35.894  11.695
40590W        W12119  33.488  42.212   2.227
40591W        W12120   5.653  30.913  11.545
40592W        W12121   7.923   7.655  14.458
40593W        W12122  30.727  39.019  11.522
40594W        W12123   9.408   1.819   0.788
40595W        W12124   7.830  18.183   2.661
40596W        W12125  27.568  18.312   3.294
40597W        W12126   2.303  13.559  11.614
40598W        W12127  37.156  27.171  12.434
40599W        W12128  41.119  31.406   3.947
40600W        W12129   3.998  41.074  12.891
40601W        W12130  36.931  15.834  12.491
40602W        W12131  28.876  11.581   4.128
40603W        W12132  15.302  26.082   0.238
40604W        W12133  16.251  23.073   0.435
40605W        W12134  14.217  20.650  10.432
40606W        W12135  24.154   6.633   1.266
40607W        W12136  10.446  34.524   4.098
40608W        W12137  32.459  12.036   3.046
40609W        W12138  40.957   4.641  11.138
40610W        W12139  29.649  12.396  13.475
40611W        W12140  14.265  18.483   0.783
40612W        W12141  12.377  41.463   0.462
40613W        W12142  42.886  32.825  11.123
40614W        W12143  32.402  34.921  10.656
40615W        W12144   1.320   1.175   2.186
40616W        W12145  23.900  19.333   0.238
40617W        W12146  20.294  44.369  12.929
40618W        W12147  43.300   2.211  13.974
40619W        W12148  23.585  28.175   1.315
40620W        W12149   8.339  36.682  14.785
40621W        W12150   6.427  11.102   2.637
40622W        W12151   7.244  10.849   0.308
40623W        W12152  14.209  31.121   0.813
40624W        W12153  24.911  42.457   4.132
40625W        W12154   0.549  10.747   2.852
40626W        W12155  12.662   7.387  10.910
40627W        W12156  41.615  14.203   1.804
40628W        W12157  36.340   2.884   2.804
40629W        W12158  19.586  28.183  12.680
40630W        W12159   1.210   0.835   5.078
40631W        W12160  32.380   5.832   3.730
40632W        W12161  18.945  37.406   2.757
40633W        W12162  31.568  35.440   4.977
40634W        W12163  19.332   7.820   2.257
40635W        W12164  22.260  40.961   4.481
40636W        W12165  20.282  33.098  11.176
40637W        W12166  34.052   4.164  13.362
40638W        W12167  43.708  41.345   2.261
40639W        W12168   9.038  37.489  12.498
40640W        W12169   6.923  42.603   0.431
40641W        W12170  25.749   2.525  11.106
40642W        W12171  10.319  12.301  13.546
40643W        W12172  34.260  30.235   2.682
40644W        W12173  39.186  11.574   0.115
40645W        W12174  10.839   3.383  14.061
40646W        W12175  22.794  24.673   1.840
40647W        W12176  33.668  35.903  11.101
40648W        W12177  22.152  16.184   1.284
40649W        W12178  13.181  22.075  14.414
40650W        W12179  23.541  44.639   3.509
40651W        W12180  28.542   0.043   2.184
40652W        W12181  12.386   1.954  11.455
40653W        W12182   7.881   8.924  14.794
40654W        W12183   7.858  10.682  14.569
40655W        W12184  21.716  26.347  11.358
40656W        W12185   5.819  30.483   4.851
40657W        W12186  30.190  41.815  11.593
40658W        W12187  14.530  38.894  13.225
40659W        W12188  16.242  28.189   2.700
40660W        W12189  42.211  29.623  14.898
40661W        W12190   5.865   1.467   3.234
40662W        W12191   1.320   7.716  11.139
40663W        W12192   0.305   5.705  11.151
40664W        W12193  39.343  18.904  14.006
40665W        W12194  11.161  42.202  11.296
40666W        W12195  12.088  28.829   1.329
40667W        W12196   1.897  22.582  11.473
40668W        W12197  36.062  10.344   1.883
40669W        W12198  21.646  22.872   1.301
40670W        W12199  20.591  30.141  12.775
40671W        W12200  38.045   6.185  10.751
40672W        W12201  10.860  37.158   3.401
40673W        W12202  20.756  40.081   4.122
40674W        W12203  34.164  41.052  12.974
40675W        W12204   9.451  31.074   0.662
40676W        W12205  31.934  26.118  14.616
40677W        W12206  40.081   0.328  14.846
40678W        W12207  25.222  37.901  11.147
40679W        W12208  35.103  20.768   0.819
40680W        W12209   8.300  27.953   2.181
40681W        W12210  31.145   4.103   4.924
40682W        W12211   8.710   9.840  14.261
40683W        W12212  12.247  20.250  14.344
40684W        W12213  15.870  31.057  12.860
40685W        W12214  22.643   7.083   2.462
40686W        W12215   1.286  41.121  14.399
40687W        W12216  10.383  38.435  14.990
40688W        W12217   4.697  39.940   3.331
40689W        W12218  29.942  11.289   3.661
40690W        W12219  30.507  28.413   3.636
40691W        W12220   5.960   5.446   0.056
40692W        W12221  10.180  37.475  14.889
40693W        W12222   3.216  25.019   2.359
40694W        W12223  30.115  10.087  12.155
40695W        W12224  35.436  30.059   3.990
40696W        W12225   6.283  40.887   3.662
40697W        W12226   5.155  17.786   1.853
40698W        W12227   2.375  33.045   2.233
40699W        W12228  33.964   7.748  13.329
40700W        W12229  22.536  21.628   0.145
40701W        W12230  41.870   4.667   0.766
40702W        W12231   9.010  12.667   2.800
40703W        W12232  24.732  11.600   2.741
40704W        W12233  31.997  36.381   2.804
40705W        W12234  42.967  16.726   3.930
40706W        W12235   9.220  34.643  12.216
40707W        W12236  30.863   8.748  10.627
40708W        W12237  23.220  11.574   1.209
40709W        W12238  25.167  10.670  12.666
40710W        W12239  20.986  21.367  13.312
40711W        W12240   6.298   0.623   4.140
40712W        W12241   7.845  12.342   4.125
40713W        W12242  23.716  36.967  14.060
40714W        W12243   8.653  29.516   0.283
40715W        W12244  10.174  35.388  13.926
40716W        W12245   3.037  32.441   0.419
40717W        W12246  33.871  18.026   2.241
40718W        W12247  28.882  30.162  14.852
40719W        W12248  27.754  36.931  12.334
40720W        W12249  24.525  37.336   3.006
40721W        W12250  39.038  40.040   4.617
40722W        W12251  16.710  15.073  14.250
40723W        W12252   0.309  43.769   3.224
40724W        W12253  18.122  30.939  14.284
40725W        W12254   7.114  24.958  12.140
40726W        W12255  16.637   0.282   3.894
40727W        W12256  18.345  20.541   2.105
40728W        W12257  11.563  32.980   0.334
40729W        W12258  31.368   6.669   2.780
40730W        W12259  13.282   6.462  12.938
40731W        W12260  14.864  37.603  10.569
40732W        W12261  34.132   6.452   3.836
40733W        W12262  36.886  38.971  13.346
40734W        W12263  24.576  32.461   1.218
40735W        W12264  27.099  16.046  13.607
40736W        W12265   4.802   2.806   2.840
40737W        W12266  30.476  42.897  11.179
40738W        W12267   7.761  12.814  14.384
40739W        W12268  34.978  28.114  14.896
40740W        W12269  11.714  16.087   2.256
40741W        W12270  43.788  38.317   4.126
40742W        W12271  22.784  25.225  13.515
40743W        W12272   9.442  39.482   1.224
40744W        W12273  18.822  21.220   2.209
40745W        W12274  42.934  23.436   1.918
40746W        W12275  35.095  20.065  13.298
40747W        W12276  18.947  44.440   1.975
40748W        W12277  23.635   4.278  13.620
40749W        W12278  19.346  40.780  13.492
40750W        W12279  35.879  10.282   4.211
40751W        W12280  42.890  42.805  12.376
40752W        W12281  26.147  25.457  13.064
40753W        W12282  25.572  10.549   2.218
40754W        W12283  25.233  11.377  10.763
40755W        W12284  36.948  42.346   3.351
40756W        W12285   7.805  31.910   1.693
40757W        W12286   9.670   0.823   1.564
40758W        W12287  17.115  26.941   0.711
40759W        W12288  21.327  21.657   0.404
40760W        W12289  28.538  23.681   2.672
40761W        W12290  42.007  38.596  12.125
40762W        W12291  23.337  31.473  14.431
40763W        W12292  30.882  19.557   3.613
40764W        W12293  23.812  23.535   4.216
40765W        W12294  21.665  35.152   0.713
40766W        W12295  27.019  43.885   2.140
40767W        W12296   8.314   5.822  13.760
40768W        W12297  21.485  11.339   2.451
40769W        W12298   6.785  43.681   2.672
40770W        W12299  35.490  40.685   2.340
40771W        W12300  14.568   5.629  11.972
40772W        W12301   1.497   2.651   0.713
40773W        W12302  26.429  39.762   0.147
40774W        W12303  24.987  38.972   4.174
40775W        W12304   3.971   5.150   4.766
40776W        W12305  11.703   5.211   4.907
40777W        W12306  17.156   4.109   0.350
40778W        W12307   5.321  40.920  13.913
40779W        W12308   9.958  12.392   0.845
40780W        W12309  13.302   2.786   1.215
40781W        W12310  10.874   4.357   3.667
40782W        W12311  25.673  22.792   0.277
40783W        W12312  39.876   0.216  10.830
40784W        W12313  18.740   7.304   2.553
40785W        W12314  44.381  10.626   4.846
40786W        W12315  18.659  42.956   2.820
40787W        W12316  39.566  17.274   1.297
40788W        W12317  36.363  34.538   0.534
40789W        W12318  35.082  35.913  14.958
40790W        W12319   8.027  30.616   0.819
40791W        W12320  38.015   6.724  14.521
40792W        W12321  44.294  19.103  13.004
40793W        W12322  26.517  13.332   2.830
40794W        W12323  40.767  41.957  14.008
40795W        W12324  20.325  22.539   4.273
40796W        W12325  24.547  24.517  11.545
40797W        W12326   0.473  33.637  13.221
40798W        W12327  41.083  31.030   0.957
40799W        W12328  43.482  29.781  13.907
40800W        W12329  14.376  41.387  12.057
40801W        W12330  21.626   1.456   2.667
40802W        W12331  25.245  39.933  14.824
40803W        W12332   5.694  25.918   2.858
40804W        W12333  24.610  39.353   4.780
40805W        W12334  34.958  22.109   4.513
40806W        W12335  12.712  27.596   2.863
40807W        W12336  26.269  14.314  12.536
40808W        W12337  12.068  32.463   1.272
40809W        W12338  11.964  17.209   0.951
40810W        W12339  43.286  18.232  14.013
40811W        W12340   8.235   5.349  10.676
40812W        W12341   2.601   9.894  13.302
40813W        W12342  12.900  32.162  13.576
40814W        W12343  21.031  37.916  10.604
40815W        W12344  15.221  21.275   0.218
40816W        W12345  11.845  32.157   3.827
40817W        W12346  38.909  30.263  11.322
40818W        W12347  27.039  42.439   1.948
40819W        W12348  19.187  35.567   4.378
40820W        W12349  42.360  20.764  10.664
40821W        W12350  27.714  25.518  10.656
40822W        W12351  35.285   1.867  10.730
40823W        W12352  13.735   7.221   4.243
40824W        W12353  39.868   8.282   1.442
40825W        W12354  33.224  36.362   4.527
40826W        W12355  15.122  34.542   0.997
40827W        W12356   5.632  20.470  11.133
40828W        W12357  34.512  13.659  11.987
40829W        W12358  30.285   4.284   1.456
40830W        W12359  42.343  22.006   0.630
40831W        W12360  16.696  38.124   4.187
40832W        W12361  16.307   2.651  12.469
40833W        W12362  14.571  10.145  11.977
40834W        W12363   3.828  11.698  10.116
40835W        W12364   8.649  24.200  11.188
40836W        W12365  31.936  21.580   1.148
40837W        W12366  14.089  13.180  10.577
40838W        W12367  39.520  19.278   0.848
40839W        W12368   3.191  31.503  10.188
40840W        W12369   7.975  40.587  14.404
40841W        W12370  40.401  19.533  12.926
40842W        W12371  11.331   7.822  10.789
40843W        W12372  33.032  42.489  11.654
40844W        W12373  14.717  27.085   4.645
40845W        W12374  36.950  12.751  11.165
40846W        W12375  34.627  21.582  13.924
40847W        W12376  18.428   4.913  11.635
40848W        W12377   9.186  38.876  13.861
40849W        W12378  29.630  15.523   3.660
40850W        W12379  10.019  21.579  14.751
40851W        W12380  24.716  15.544   2.814
40852W        W12381   8.158  35.784  13.971
40853W        W12382   3.450   6.891   1.390
40854W        W12383  26.956  12.829   0.933
40855W        W12384  32.495  16.438   2.158
40856W        W12385  37.906  34.995   0.078
40857W        W12386   5.884  11.619   4.863
40858W        W12387  29.431  19.095   0.833
40859W        W12388  18.270  27.186   9.941
40860W        W12389   8.420  39.312  14.475
40861W        W12390  22.947   7.840   4.551
40862W        W12391  11.880   1.712  13.098
40863W        W12392   3.674  21.198  12.990
40864W        W12393  41.458   0.851   0.385
40865W        W12394   1.950  44.917   2.814
40866W        W12395  13.707  18.125   0.755
40867W        W12396  15.483  25.073  11.689
40868W        W12397  15.176  27.140  11.296
40869W        W12398  31.437  15.635   4.621
40870W        W12399  34.359  15.141   0.306
40871W        W12400  12.701   7.160  12.833
40872W        W12401  19.108   6.918  14.556
40873W        W12402  14.718  22.167   1.135
40874W        W12403  19.544  37.029   1.452
40875W        W12404  23.718  32.121   5.141
40876W        W12405  13.477  25.758   4.191
40877W        W12406  14.787  36.610  13.977
40878W        W12407  35.923  29.973   2.285
40879W        W12408  33.990  37.753  10.310
40880W        W12409  17.824  17.228  14.258
40881W        W12410   0.774   5.269   4.078
40882W        W12411  31.601  21.102   9.898
40883W        W12412  44.147  22.927   2.665
40884W        W12413  31.947  15.084  13.552
40885W        W12414  17.765  37.259   4.672
40886W        W12415  32.957  34.551   4.240
40887W        W12416  17.078  11.407   1.277
40888W        W12417   4.885  31.108  12.069
40889W        W12418   6.206  22.337  12.900
40890W        W12419   4.003  21.137   3.617
40891W        W12420  28.938  10.930  11.619
40892W        W12421  40.304   2.453  10.750
40893W        W12422   5.894  39.885  12.830
40894W        W12423   6.131  16.792   3.241
40895W        W12424  29.639  39.215   4.183
40896W        W12425  18.250  15.767  13.389
40897W        W12426   4.476  29.429   3.670
40898W        W12427  24.951   1.971   4.370
40899W        W12428  35.167  20.061  11.439
40900W        W12429  19.363  11.600  13.760
40901W        W12430  33.952   1.386  11.654
40902W        W12431  43.257  15.716   3.173
40903W        W12432  27.798   5.740   0.709
40904W        W12433  43.724  27.704   0.923
40905W        W12434   1.588  26.227  14.209
40906W        W12435   0.766  27.925   0.367
40907W        W12436  41.609  40.386  12.162
40908W        W12437   1.556  32.956  11.576
40909W        W12438  23.969   5.803  13.992
40910W        W12439  25.469   7.827  13.803
40911W        W12440  41.705  32.958  14.496
40912W        W12441  37.505  23.499   3.402
40913W        W12442  17.464  33.563   3.861
40914W        W12443   8.594   5.177   4.183
40915W        W12444  14.618  24.526   2.091
40916W        W12445  20.647  18.111   4.496
40917W        W12446   9.294   4.283   0.459
40918W        W12447  23.283  17.359  10.861
40919W        W12448  30.234  42.461   1.741
40920W        W12449  26.700  28.647   0.758
40921W        W12450   7.650  37.056   1.217
40922W        W12451   4.501  32.405  14.550
40923W        W12452   1.608  27.431   0.332
40924W        W12453   0.307  19.590   2.379
40925W        W12454  13.772   1.644  14.450
40926W        W12455  26.727  39.516   2.824
40927W        W12456  13.714   2.907  12.835
40928W        W12457   0.425   1.044  14.770
40929W        W12458  13.604   7.382   1.710
40930W        W12459  18.658  33.863  12.915
40931W        W12460  12.079  44.968  13.512
40932W        W12461  34.814  16.065  14.038
40933W        W12462  24.938  26.515  13.040
40934W        W12463  38.470  32.949   3.137
40935W        W12464  35.885  16.706   3.024
40936W        W12465  36.162  20.052  10.681
40937W        W12466  25.207   8.890   0.909
40938W        W12467   0.920  44.446  11.159
40939W        W12468  18.762  40.570  10.691
40940W        W12469  25.670  31.076   2.228
40941W        W12470   0.734   7.371   3.912
40942W        W12471   8.245  11.592   2.334
40943W        W12472  33.356  15.442  10.551
40944W        W12473  26.531  36.375   2.224
40945W        W12474   0.975  40.786   4.155
40946W        W12475  11.197  39.005  11.869
40947W        W12476  22.962   5.413   1.033
40948W        W12477  18.629  32.401   2.833
40949W        W12478   5.826  33.152  13.123
40950W        W12479  44.979   3.723  13.130
40951W        W12480  27.575  10.752  14.946
40952W        W12481  29.999  19.428   3.331
40953W        W12482  30.969   5.310   1.979
40954W        W12483  14.828   0.992  14.737
40955W        W12484  21.555  16.724  10.699
40956W        W12485  26.685  19.849  11.725
40957W        W12486   0.238  37.240   1.330
40958W        W12487   4.895   2.681  11.040
40959W        W12488  23.525  30.961   3.312
40960W        W12489   6.820  32.244  14.713
40961W        W12490  29.480  27.168  10.631
40962W        W12491  15.568  19.317   0.058
40963W        W12492  34.012   1.360   0.471
40964W        W12493  34.626  19.782  11.087
40965W        W12494  24.082  33.652   1.183
40966W        W12495  17.179  35.576   4.681
40967W        W12496  32.471  33.911   3.168
40968W        W12497  13.623   5.072  11.339
40969W        W12498  43.834  35.586   2.709
40970W        W12499  34.319  34.391  11.715
40971W        W12500  13.788   7.644  14.373
40972W        W12501  27.068   6.677   2.754
40973W        W12502  36.353   8.394  12.859
40974W        W12503  40.516  39.564   0.900
40975W        W12504   2.989  32.797  10.225
40976W        W12505   4.191  42.460  12.941
40977W        W12506   3.965  17.936  12.973
40978W        W12507   5.462   9.209   3.428
40979W        W12508  18.806   5.197   2.700
40980W        W12509  13.702  20.541   0.389
40981W        W12510  31.523   3.402  13.000
40982W        W12511  25.440  16.651  10.648
40983W        W12512   3.701   3.704   3.822
40984W        W12513  39.418  31.978   1.627
40985W        W12514  20.298  43.928   2.220
40986W        W12515  12.715  34.133  12.998
40987W        W12516  10.323  37.344   2.785
40988W        W12517  43.920  21.069   2.358
40989W        W12518  15.289  17.726  13.154
40990W        W12519  31.509  33.899   4.678
40991W        W12520  15.536  16.006   2.131
40992W        W12521  26.877   0.621  14.466
40993W        W12522   7.428  37.460  14.868
40994W        W12523  44.590  23.211   1.752
40995W        W12524  11.154  28.992   0.376
40996W        W12525  43.961  29.093  13.279
40997W        W12526  36.540   2.262  13.252
40998W        W12527  14.369  10.696  10.857
40999W        W12528   8.610   1.520  14.032
41000W        W12529   3.027  15.779   4.992
41001W        W12530   3.905   8.932   1.791
41002W        W12531  21.570   9.436   4.154
41003W        W12532  31.424  41.940  14.327
41004W        W12533  17.335  11.899   0.456
41005W        W12534  27.545   2.436  10.977
41006W        W12535  40.323  35.102   3.118
41007W        W12536  32.958  33.613   2.196
41008W        W12537  17.614  36.611  13.053
41009W        W12538  26.218  43.329  13.706
41010W        W12539  22.150   4.618  12.584
41011W        W12540  29.898  43.302   4.224
41012W        W12541   0.908  21.749   4.468
41013W        W12542  40.337  36.199   0.044
41014W        W12543  14.094  10.149  13.858
41015W        W12544  15.593   8.003  13.330
41016W        W12545  13.489  42.740  11.628
41017W        W12546  11.961  14.649  11.132
41018W        W12547   0.986  42.785   1.675
41019W        W12548  34.577  14.145   3.138
41020W        W12549  37.037  38.555   2.695
41021W        W12550  25.666  18.025  14.738
41022W        W12551  32.414   1.426   5.009
41023W        W12552  15.155  27.305  11.783
41024W        W12553  19.120  42.686  11.607
41025W        W12554  19.078  18.573   2.301
41026W        W12555  14.304  21.814   0.319
41027W        W12556  34.442  31.722   4.184
41028W        W12557  23.840  21.598   2.888
41029W        W12558  12.096   3.585   1.751
41030W        W12559  30.879  14.224  14.253
41031W        W12560  39.278  14.374   3.736
41032W        W12561  40.463  20.358  13.491
41033W        W12562  18.642  33.977  13.941
41034W        W12563  23.719  17.180   0.403
41035W        W12564  27.695  41.972  11.509
41036W        W12565  13.137  23.454  13.865
41037W        W12566   8.304  40.351   1.280
41038W        W12567  29.926   1.221   0.051
41039W        W12568   1.278   9.893   3.693
41040W        W12569  42.722   3.731   0.208
41041W        W12570  18.237  13.384   4.380
41042W        W12571  35.344  43.181   1.304
41043W        W12572  15.989  28.466   4.121
41044W        W12573  30.043  34.755  11.326
41045W        W12574  42.586  22.741  14.411
41046W        W12575   2.106  40.581   2.836
41047W        W12576  11.169  35.543   4.036
41048W        W12577   6.318  20.808   2.293
41049W        W12578  16.675  30.460  12.414
41050W        W12579  26.721  26.904   0.327
41051W        W12580  26.700  17.550  13.999
41052W        W12581   3.288   2.338  13.370
41053W        W12582   0.532   0.206   1.598
41054W        W12583  21.919  38.851   2.332
41055W        W12584  14.122  13.649   2.421
41056W        W12585  26.663   9.310   1.851
41057W        W12586  28.557   2.425  11.038
41058W        W12587   5.877  41.973   1.284
41059W        W12588  18.930  21.988   4.096
41060W        W12589   4.866  30.456  10.945
41061W        W12590  40.035   0.754   2.395
41062W        W12591   0.388   2.807   4.662
41063W        W12592   8.497  12.690  12.409
41064W        W12593  32.202  10.702   3.633
41065W        W12594  21.742  20.687   1.805
41066W        W12595   6.827  18.707  14.518
41067W        W12596  17.146  13.189  11.959
41068W        W12597  34.327  35.468  12.144
41069W        W12598  25.433  31.640  14.926
41070W        W12599  29.523  24.687   3.299
41071W        W12600  16.953  44.369   3.310
41072W        W12601  33.447  27.895   4.038
41073W        W12602  16.693  18.537   4.139
41074W        W12603  41.286  39.912   1.833
41075W        W12604   8.749  36.317   3.363
41076W        W12605   9.604   8.744   3.269
41077W        W12606  11.218  25.536  12.646
41078W        W12607  44.773  28.252   1.773
41079W        W12608  44.564   1.255  10.766
41080W        W12609   2.425  25.183  13.453
41081W        W12610   6.366  43.311   3.707
41082W        W12611  17.068  18.250   3.662
41083W        W12612  40.749  31.112  10.726
41084W        W12613  18.255  28.524  13.875
41085W        W12614  38.387  22.327  14.762
41086W        W12615   0.922  42.612   4.459
41087W        W12616  35.344  17.140  11.380
41088W        W12617  42.839  20.844   3.599
41089W        W12618  19.131  35.043  12.599
41090W        W12619  16.747  22.061  13.034
41091W        W12620  19.077  15.926   1.631
41092W        W12621  41.792  15.304   3.265
41093W        W12622  31.452  14.107  12.920
41094W        W12623   6.383  25.795  13.745
41095W        W12624  19.356  23.166  14.253
41096W        W12625  30.527  44.273  12.588
41097W        W12626  14.177  37.324   0.769
41098W        W12627   5.297  13.371  13.546
41099W        W12628  37.628  34.506   4.139
41100W        W12629  44.242  11.638   3.618
41101W        W12630   0.174  13.534  11.611
41102W        W12631  41.035  32.132   0.536
41103W        W12632  39.304  26.009  10.448
41104W        W12633  26.584   2.027   4.971
41105W        W12634  26.787  25.219   3.138
41106W        W12635  28.651  24.968  11.599
41107W        W12636  39.217  27.181   1.845
41108W        W12637  33.383  30.921   3.903
41109W        W12638   6.888  23.191   0.473
41110W        W12639  44.192   5.293  12.543
41111W        W12640  11.645  39.802   3.123
41112W        W12641  44.549  22.903  14.136
41113W        W12642  15.649  34.952   2.464
41114W        W12643  39.500   4.162   1.806
41115W        W12644  17.724  29.976  14.827
41116W        W12645  35.550   1.504  11.889
41117W        W12646   1.665  37.432   4.765
41118W        W12647  29.961  35.348   1.784
41119W        W12648  42.827  26.389   3.625
41120W        W12649  27.913  22.601   2.398
41121W        W12650  33.604  34.998   4.250
41122W        W12651  12.941  37.321  13.405
41123W        W12652  24.674  21.469  14.841
41124W        W12653  32.516  28.223  10.353
41125W        W12654   4.419  20.450  11.968
41126W        W12655  11.325  34.476  13.369
41127W        W12656  21.214   7.536   1.720
41128W        W12657  24.734  23.540   1.410
41129W        W12658  36.551  13.311   1.790
41130W        W12659  37.593  23.746   1.428
41131W        W12660  27.163  22.709   4.485
41132W        W12661  23.564  39.158   0.492
41133W        W12662   6.215  30.864   4.587
41134W        W12663  21.479  39.517  11.532
41135W        W12664  29.422   4.207  11.138
41136W        W12665  39.341  43.103   0.340
41137W        W12666  19.961  22.963   4.237
41138W        W12667   5.929  19.615  10.152
41139W        W12668  40.815  41.919  13.505
41140W        W12669  42.023  11.294  11.372
41141W        W12670  16.778  38.505  11.721
41142W        W12671  18.878  26.410   2.191
41143W        W12672  31.368  37.486  11.855
41144W        W12673  19.191  27.416  10.275
41145W        W12674  17.097  36.847   2.694
41146W        W12675  39.609  16.504   3.107
41147W        W12676  23.690   9.018  12.580
41148W        W12677  10.765  44.558   2.219
41149W        W12678  11.243  12.573  11.446
41150W        W12679  12.644   8.869  13.654
41151W        W12680  17.281   1.706  13.055
41152W        W12681  29.998  20.263  11.626
41153W        W12682  15.669  12.892   1.852
41154W        W12683   8.246  32.188   1.703
41155W        W12684  44.364  38.135  10.836
41156W        W12685  33.811  21.709   1.168
41157W        W12686   3.882  33.573   4.709
41158W        W12687  32.363  28.031  11.203
41159W        W12688  24.252  22.099  11.698
41160W        W12689  21.685  44.217   0.429
41161W        W12690   4.399  26.954  14.503
41162W        W12691  39.304   2.219   3.066
41163W        W12692  33.974  43.894   0.470
41164W        W12693  27.505  26.576   0.376
41165W        W12694  43.796  13.870   0.366
41166W        W12695  42.329  25.727  12.933
41167W        W12696   2.087   5.055  11.997
41168W        W12697  20.837   3.155  12.965
41169W        W12698  43.401  28.497  14.511
41170W        W12699  44.967   2.533  12.449
41171W        W12700  14.204  33.402   2.371
41172W        W12701  43.217  34.654  12.205
41173W        W12702  19.789  13.205   2.397
41174W        W12703  37.873  19.808  14.069
41175W        W12704  27.087  41.437  10.785
41176W        W12705  12.618   5.369   1.134
41177W        W12706  11.468  22.698   1.162
41178W        W12707   2.916  37.757   3.553
41179W        W12708  42.128   8.754   3.283
41180W        W12709  13.849  35.873   3.119
41181W        W12710  14.567   2.134   1.771
41182W        W12711   1.949   1.823  10.735
41183W        W12712  25.228  41.453  14.826
41184W        W12713  22.038  17.355   4.642
41185W        W12714   2.798  10.209   0.034
41186W        W12715   2.402   4.825   9.886
41187W        W12716  15.330  23.014  12.931
41188W        W12717   2.177  42.955   3.151
41189W        W12718  31.711  38.863  13.942
41190W        W12719  43.573  30.660  12.509
41191W        W12720  16.665  24.779   0.495
41192W        W12721  31.921  29.519  10.331
41193W        W12722   4.085  35.461   1.998
41194W        W12723  41.291  33.413  13.921
41195W        W12724  12.511  26.203  12.013
41196W        W12725  23.121  32.332   1.335
41197W        W12726   3.816  15.259  12.836
41198W        W12727  27.544  26.468  11.529
41199W        W12728   4.273  24.537  13.022
41200W        W12729   9.209  41.396  10.841
41201W        W12730   8.287  39.250  13.435
41202W        W12731   6.382  12.952  14.002
41203W        W12732   5.338   0.629   4.133
41204W        W12733   8.458  22.631  13.829
41205W        W12734   6.702  21.098   3.942
41206W        W12735  28.394   1.311   3.328
41207W        W12736   3.593  21.511  14.721
41208W        W12737   3.441  43.275   3.337
41209W        W12738   3.178   3.935  11.249
41210W        W12739  38.926  12.682   2.940
41211W        W12740  44.325  22.110  14.734
41212W        W12741  41.754  14.758   4.285
41213W        W12742   7.902  30.654  13.347
41214W        W12743  20.498   3.860  10.977
41215W        W12744  33.378  39.841   4.295
41216W        W12745  41.017   1.220  13.021
41217W        W12746   7.265  27.224   1.410
41218W        W12747  43.983  13.852   4.300
41219W        W12748   1.476  32.032  11.549
41220W        W12749  25.054  28.243   4.807
41221W        W12750  24.072   6.554  14.355
41222W        W12751  12.688  32.991   2.732
41223W        W12752   5.245  19.706   1.140
41224W        W12753   3.584  22.738  12.449
41225W        W12754  27.731  13.783  11.818
41226W        W12755   4.218  15.268   0.532
41227W        W12756  32.020   7.696   4.610
41228W        W12757  26.526  34.460   0.724
41229W        W12758  38.984  10.670   0.999
41230W        W12759   2.191   6.110  12.575
41231W        W12760  28.965  26.113   0.685
41232W        W12761   7.275  43.439   0.989
41233W        W12762  20.544  22.082   1.936
41234W        W12763  24.264  32.182  14.438
41235W        W12764   0.508  15.383  11.064
41236W        W12765  37.770  29.502   1.434
41237W        W12766  25.540   5.292  14.367
41238W        W12767  23.532  14.392  12.821
41239W        W12768   2.664  37.392  13.386
41240W        W12769  29.423   7.560   2.284
41241W        W12770  13.594   7.741  10.533
41242W        W12771  31.574  17.231  10.442
41243W        W12772   8.978  31.412  11.967
41244W        W12773   6.243   1.438   0.899
41245W        W12774  32.859   2.785  11.617
41246W        W12775   2.875  42.898  11.058
41247W        W12776  44.320  38.574  13.436
41248W        W12777  20.180  26.522   4.024
41249W        W12778  19.117  30.884   1.281
41250W        W12779  36.260  33.538   2.677
41251W        W12780   5.780  33.617  14.381
41252W        W12781  37.804  34.447   1.844
41253W        W12782  27.258  25.537  14.023
41254W        W12783  27.455  25.861   0.847
41255W        W12784  17.876   5.290   3.666
41256W        W12785  35.513   3.190   2.659
41257W        W12786   8.775  20.666   2.156
41258W        W12787  30.039   0.060   4.590
41259W        W12788  11.662  18.078  11.705
41260W        W12789  25.088  26.423  11.239
41261W        W12790   3.317  33.550   2.886
41262W        W12791   3.947   2.436  13.256
41263W        W12792  34.835  21.186  10.889
41264W        W12793   6.849  17.271  11.889
41265W        W12794  40.726  14.229   2.281
41266W        W12795  29.563   6.163  12.949
41267W        W12796   7.991  37.058  13.907
41268W        W12797  41.160  36.173   0.691
41269W        W12798  42.936   1.416   3.849
41270W        W12799  31.868  44.210  11.103
41271W        W12800  35.972   5.466   4.420
41272W        W12801  12.672  31.692   4.633
41273W        W12802  35.388  14.188   0.022
41274W        W12803  16.294   6.261   4.372
41275W        W12804   1.855  11.813   3.694
41276W        W12805  11.562  25.045   2.181
41277W        W12806  17.321  36.990   3.183
41278W        W12807  34.057  41.060   2.218
41279W        W12808  15.494  29.112   0.121
41280W        W12809   8.333   6.696  13.394
41281W        W12810   0.844  36.167   3.777
41282W        W12811  25.928  28.603  13.392
41283W        W12812  28.700  40.855   0.830
41284W        W12813  10.348  40.853   4.171
41285W        W12814  39.593  13.394   3.765
41286W        W12815   5.513  21.492  11.669
41287W        W12816  33.376  26.552   5.280
41288W        W12817   7.645  14.325  11.136
41289W        W12818   4.439  20.198   2.738
41290W        W12819  10.400  13.360   3.866
41291W        W12820  24.755   6.617   1.916
41292W        W12821   4.786  42.149  13.437
41293W        W12822  11.227  14.674   4.382
41294W        W12823  13.797  38.508  14.517
41295W        W12824  18.510   4.467  11.916
41296W        W12825  25.304  31.634  12.084
41297W        W12826   6.779  10.247  13.877
41298W        W12827  14.705   2.753   0.381
41299W        W12828  31.902  19.187  13.694
41300W        W12829  25.634  16.689  14.275
41301W        W12830  19.380  25.299  10.841
41302W        W12831   7.991   6.341  11.711
41303W        W12832   2.755  21.251   0.762
41304W        W12833  36.337  41.403  14.877
41305W        W12834  29.971  15.134   0.426
41306W        W12835  41.916  22.772  12.487
41307W        W12836  35.447  14.379   1.471
41308W        W12837  34.168  21.677  14.915
41309W        W12838   8.845  34.889   0.186
41310W        W12839  23.238   2.861   1.733
41311W        W12840  34.542  27.890  14.765
41312W        W12841  31.441  36.997   4.463
41313W        W12842  20.456  39.116  10.872
41314W        W12843  14.369   7.476  13.285
41315W        W12844  13.691   8.770  11.153
41316W        W12845   4.200  39.844   4.324
41317W        W12846  14.063  35.697  14.764
41318W        W12847   3.860  21.099  10.400
41319W        W12848  24.534  10.109   3.316
41320W        W12849  27.512   1.415  13.487
41321W        W12850  30.480  37.019   0.081
41322W        W12851  22.182  29.919  13.868
41323W        W12852  35.247  33.998  12.067
41324W        W12853  42.906  16.879   1.650
41325W        W12854  12.165  24.593   2.363
41326W        W12855  38.525  32.577  13.648
41327W        W12856  28.726  11.920  11.532
41328W        W12857  27.021  29.269  12.500
41329W        W12858  18.101   5.386   2.303
41330W        W12859  32.693   6.237   2.081
41331W        W12860  16.837   9.322  13.788
41332W        W12861  27.708   9.534   2.819
41333W        W12862  33.147  43.346  11.628
41334W        W12863  31.522  25.489  13.029
41335W        W12864  38.362  30.711   1.477
41336W        W12865  40.353  35.486   1.718
41337W        W12866   2.660  19.629   3.631
41338W        W12867  43.490  39.095   2.185
41339W        W12868  24.212  44.568  11.888
41340W        W12869  27.904  13.699  11.092
41341W        W12870  35.997  42.512   4.659
41342W        W12871  43.164  26.571  12.803
41343W        W12872  29.435   2.805   3.150
41344W        W12873  27.302  26.717  13.425
41345W        W12874   2.157  24.685   4.246
41346W        W12875  20.701  41.738   3.604
41347W        W12876  24.670  23.977  12.338
41348W        W12877   6.352  26.504   3.347
41349W        W12878  10.755  21.065  12.092
41350W        W12879  32.276  29.857   0.154
41351W        W12880  26.522   0.698   2.820
41352W        W12881  14.319   7.280   0.734
41353W        W12882  34.149  33.861   2.137
41354W        W12883  38.068   3.332  11.546
41355W        W12884  21.795  13.301   2.842
41356W        W12885  41.136  28.635   0.841
41357W        W12886  34.135  21.613  14.066
41358W        W12887  16.896  36.603   1.461
41359W        W12888   2.394   9.258   2.928
41360W        W12889  38.867  26.525   4.946
41361W        W12890  18.402  39.935   4.734
41362W        W12891  19.501  38.357  14.885
41363W        W12892  44.517  19.939   4.094
41364W        W12893  24.514  25.159  10.664
41365W        W12894  42.425   7.181  10.804
41366W        W12895  27.224  28.179  11.078
41367W        W12896  12.093  42.252   1.623
41368W        W12897  30.502  44.022  10.702
41369W        W12898  39.213  43.959   2.957
41370W        W12899  23.206  12.556   1.548
41371W        W12900   9.849  33.521   2.738
41372W        W12901  21.355  20.933  11.889
41373W        W12902   0.506  32.069   0.487
41374W        W12903  42.991  35.570   3.937
41375W        W12904  14.243   4.723  10.330
41376W        W12905  37.305  16.894   4.909
41377W        W12906  30.995  30.224   1.602
41378W        W12907   3.571  29.512  10.272
41379W        W12908  36.135  25.696   1.985
41380W        W12909   0.954  41.958  13.476
41381W        W12910  32.096  30.073  11.017
41382W        W12911  39.419  26.095  11.913
41383W        W12912  26.059  15.810  11.713
41384W        W12913  18.760  19.252   4.754
41385W        W12914  27.493  33.166   2.775
41386W        W12915  44.829  19.056  13.038
41387W        W12916  15.389  15.015  11.483
41388W        W12917  19.194  43.922   3.288
41389W        W12918  11.909  43.201   1.042
41390W        W12919  19.580  42.056  12.215
41391W        W12920  13.590  40.315  11.612
41392W        W12921  16.698  33.448   4.590
41393W        W12922  24.537  20.882   4.125
41394W        W12923  14.326  29.447   4.577
41395W        W12924   8.264  19.170   2.674
41396W        W12925  41.652  38.278   0.491
41397W        W12926  11.792  20.122  12.525
41398W        W12927   4.741  14.140  12.429
41399W        W12928  38.756  28.577   4.558
41400W        W12929   3.880  22.785   3.375
41401W        W12930  18.862   1.073  13.332
41402W        W12931  31.674  22.746   3.707
41403W        W12932  21.973  23.765  13.045
41404W        W12933  16.833  38.922   2.231
41405W        W12934  28.119  19.859  13.797
41406W        W12935  33.981  41.033  10.700
41407W        W12936  32.039  22.643  13.027
41408W        W12937  10.254  28.434   2.295
41409W        W12938  13.304  37.005   4.131
41410W        W12939  33.090  41.762  12.892
41411W        W12940  33.247  26.923  12.442
41412W        W12941  12.858  35.667   1.455
41413W        W12942  20.744  42.303  11.715
41414W        W12943  14.685  41.470  12.566
41415W        W12944  31.182   5.880  11.933
41416W        W12945  11.576  28.050  11.979
41417W        W12946  26.801  15.984  11.981
41418W        W12947  24.507  31.875  12.339
41419W        W12948  12.803   8.206   0.899
41420W        W12949  14.044   8.730   3.243
41421W        W12950  14.053  24.004   3.871
41422W        W12951   0.523  12.519  10.644
41423W        W12952  25.280  38.061  12.180
41424W        W12953  44.453  18.262  12.596
41425W        W12954   2.429  39.957   4.493
41426W        W12955  22.938  34.466  12.975
41427W        W12956  28.224  18.050   2.554
41428W        W12957  25.231  27.588  14.314
41429W        W12958  38.075  14.211   2.337
41430W        W12959   7.576  12.025  13.909
41431W        W12960   9.511  12.980  10.742
41432W        W12961  20.315  30.865  13.364
41433W        W12962   8.993   3.677  12.875
41434W        W12963  42.517   9.099  14.656
41435W        W12964  38.901   5.878  12.799
41436W        W12965  13.517  44.091  13.086
41437W        W12966  27.355   1.229   0.257
41438W        W12967  36.367   9.953   1.746
41439W        W12968  19.258  39.154  13.880
41440W        W12969  41.093   7.153   4.096
41441W        W12970  29.038   8.358  10.541
41442W        W12971  30.597  43.064  12.977
41443W        W12972  26.866   1.097  11.267
41444W        W12973  29.459  19.757  11.145
41445W        W12974  44.731   9.272  12.486
41446W        W12975  34.223  20.455   0.494
41447W        W12976   9.852  31.876  11.164
41448W        W12977  35.929  18.836  13.759
41449W        W12978  32.949  11.248   0.168
41450W        W12979  21.751   8.093   0.362
41451W        W12980  21.644  44.586  13.922
41452W        W12981  23.269  14.327   2.931
41453W        W12982  14.693   3.500   2.420
41454W        W12983  30.810  11.182   2.742
41455W        W12984  20.580  10.854  12.438
41456W        W12985  27.593  22.728  14.036
41457W        W12986   8.823  22.116   2.919
41458W        W12987  34.430  14.383   4.050
41459W        W12988   9.297  10.166  13.604
41460W        W12989   0.742  36.089  13.036
41461W        W12990  21.448  30.284  12.952
41462W        W12991  30.113  25.221  12.823
41463W        W12992  15.630  14.683  12.845
41464W        W12993   0.971  18.549   2.936
41465W        W12994  18.971   6.153  12.232
41466W        W12995  24.581  21.311   1.807
41467W        W12996  22.358  33.585  11.914
41468W        W12997  30.410  39.086  11.115
41469W        W12998  12.220   2.489  12.617
41470W        W12999  36.400  37.583  11.137
41471W        W13000  13.401  37.831   0.889
41472W        W13001  27.458  42.408   0.775
41473W        W13002  22.203  22.714   3.807
41474W        W13003  10.301  13.267  13.544
41475W        W13004  28.060  28.635   2.761
41476W        W13005  27.321  35.147   5.028
41477W        W13006  43.945  29.064  14.137
41478W        W13007  32.312  10.460  11.634
41479W        W13008  34.259  18.558   3.374
41480W        W13009  29.654  38.404  11.127
41481W        W13010   7.210   8.734   1.070
41482W        W13011  13.844  20.828   9.665
41483W        W13012  28.012  38.160  12.565
41484W        W13013  29.189  32.365   3.818
41485W        W13014  11.255   3.836  14.360
41486W        W13015  44.554  41.438   3.870
41487W        W13016  21.208  20.909  14.181
41488W        W13017   5.139   1.357   3.875
41489W        W13018  37.874  37.097   1.106
41490W        W13019  37.548  16.371  10.802
41491W        W13020  13.875  43.020  12.002
41492W        W13021  40.324   3.055  11.557
41493W        W13022  20.305  12.282  11.693
41494W        W13023  35.425  13.116   2.282
41495W        W13024  19.073  21.708   9.697
41496W        W13025  31.598  34.941  14.794
41497W        W13026  26.483  37.930   0.129
41498W        W13027  42.555  40.424  12.578
41499W        W13028   9.247  21.938  13.899
41500W        W13029   3.084  36.076   0.627
41501W        W13030  43.857   6.171  14.935
41502W        W13031  27.134  35.388   0.345
41503W        W13032   7.801  11.180  13.396
41504W        W13033  24.709  34.844   2.329
41505W        W13034   0.636  17.106   3.815
41506W        W13035   2.574  27.236  10.587
41507W        W13036  19.246  26.541   3.571
41508W        W13037   1.523  14.786   2.130
41509W        W13038  24.065  43.571   1.793
41510W        W13039  17.264  35.287  14.625
41511W        W13040  35.404   8.742   2.806
41512W        W13041  13.509  31.047   3.308
41513W        W13042  34.370  44.887   1.376
41514W        W13043  35.051  41.497  13.787
41515W        W13044   4.009   6.808   0.348
41516W        W13045  13.955   9.224   3.133
41517W        W13046  24.236  36.861  10.423
41518W        W13047  30.355   2.650   4.134
41519W        W13048  15.567  37.135   0.966
41520W        W13049  25.609  29.498   3.747
41521W        W13050  27.986  21.116   4.165
41522W        W13051   1.879  10.916   1.323
41523W        W13052  29.921   6.968  14.001
41524W        W13053  32.637  44.017   2.818
41525W        W13054  44.555  24.216   0.922
41526W        W13055  37.824  18.773   4.551
41527W        W13056  31.649  20.287   3.918
41528W        W13057  16.082   0.874   4.584
41529W        W13058   0.192   1.749   4.615
41530W        W13059  27.859  10.879  10.078
41531W        W13060  11.036  29.213  12.764
41532W        W13061  17.866  28.394  12.428
41533W        W13062  24.944  42.788  14.293
41534W        W13063   4.044  42.365  13.830
41535W        W13064  40.273  43.435  11.560
41536W        W13065  36.817  36.855   3.199
41537W        W13066   7.852  13.347   0.776
41538W        W13067  28.897  28.637  12.414
41539W        W13068  15.988  41.960  14.644
41540W        W13069  38.852  28.855   2.799
41541W        W13070  35.880  29.138  11.620
41542W        W13071  31.240  43.929   3.301
41543W        W13072  30.716  20.649   1.970
41544W        W13073   5.408   9.719   3.316
41545W        W13074   0.037  20.975   0.209
41546W        W13075  22.679  35.590   5.074
41547W        W13076  32.489   0.761  14.960
41548W        W13077  20.337  43.915  13.567
41549W        W13078  13.766  12.819   2.146
41550W        W13079  21.171  38.707  12.527
41551W        W13080  31.947  40.846  13.998
41552W        W13081  40.958  35.341   0.199
41553W        W13082  14.710  29.540   0.261
41554W        W13083   8.334  23.528  11.820
41555W        W13084   1.704   6.675   2.696
41556W        W13085  19.165  32.260  12.648
41557W        W13086  10.913  36.839   4.697
41558W        W13087   5.218  26.967  13.956
41559W        W13088  28.959  44.803  10.679
41560W        W13089  29.376  19.724   0.833
41561W        W13090  39.853  32.302   0.882
41562W        W13091   0.433   5.806  12.594
41563W        W13092   6.224  26.665  10.735
41564W        W13093   6.998  23.423  12.014
41565W        W13094  35.543  25.327  11.765
41566W        W13095   8.391   9.756  13.818
41567W        W13096  20.538  35.782   2.286
41568W        W13097   6.801  37.967   3.557
41569W        W13098   2.993   7.872  14.345
41570W        W13099   9.825  18.951   1.979
41571W        W13100  17.302  41.288   1.218
41572W        W13101   9.410  44.128   3.911
41573W        W13102  12.208  13.579   2.688
41574W        W13103   4.347   8.237   0.504
41575W        W13104  39.019  35.471   3.198
41576W        W13105  38.829  20.622  13.621
41577W        W13106  33.969  24.569  11.111
41578W        W13107  17.610  29.144  12.954
41579W        W13108  27.746  12.585   4.029
41580W        W13109   1.117  25.735  14.322
41581W        W13110   4.907  34.269  10.748
41582W        W13111  17.813  32.092  12.622
41583W        W13112  12.992  21.310  14.069
41584W        W13113  24.713  12.452  12.967
41585W        W13114  41.823  14.712  10.723
41586W        W13115   0.366  15.028   3.637
41587W        W13116  21.097  27.114  12.974
41588W        W13117  27.168  37.827  13.478
41589W        W13118  29.156  37.111   3.669
41590W        W13119  10.011  18.721   2.872
41591W        W13120   2.236  32.535   1.685
41592W        W13121  42.946  18.343   1.375
41593W        W13122  14.795   4.290   3.084
41594W        W13123  39.506  26.370   0.371
41595W        W13124  20.159  36.926  14.874
41596W        W13125  44.063  15.768  14.907
41597W        W13126  32.442  33.155   4.723
41598W        W13127   3.722  16.831   3.206
41599W        W13128   9.388   9.661  13.532
41600W        W13129   6.938   6.888   0.014
41601W        W13130   3.754  26.507   4.064
41602W        W13131  32.665  12.314   3.986
41603W        W13132  41.679   6.527  11.119
41604W        W13133  41.516  17.680  11.587
41605W        W13134  43.953  33.373   1.397
41606W        W13135  37.344  26.233   1.394
41607W        W13136   9.815  24.637  11.624
41608W        W13137  16.518  32.929  12.674
41609W        W13138  41.899   0.771   4.746
41610W        W13139  18.670  41.091  10.228
41611W        W13140   2.415  21.035  14.800
41612W        W13141  13.365   4.603   4.540
41613W        W13142  39.535  36.992   3.573
41614W        W13143  29.673  11.374   2.413
41615W        W13144  32.881  13.460  14.445
41616W        W13145   6.240   6.871  13.384
41617W        W13146  36.617  25.127  11.111
41618W        W13147  20.030   9.670   1.461
41619W        W13148  26.738  26.453   1.870
41620W        W13149   1.385  37.313   0.901
41621W        W13150  13.784   9.266   0.272
41622W        W13151  41.568   8.900  11.169
41623W        W13152  26.513  35.893  11.489
41624W        W13153   6.082  23.867  10.367
41625W        W13154  15.347  13.244  11.559
41626W        W13155  36.078  26.721   1.219
41627W        W13156  21.201   2.191   2.406
41628W        W13157  10.562  29.602  10.703
41629W        W13158   1.262  37.408  14.808
41630W        W13159  23.264  30.989  12.501
41631W        W13160   0.679  40.893   3.187
41632W        W13161   9.949  33.691  11.119
41633W        W13162  14.084   8.641  12.404
41634W        W13163  18.636  40.767   3.840
41635W        W13164  40.762   8.585   3.973
41636W        W13165  12.059  33.102   2.409
41637W        W13166  40.987  38.849  14.442
41638W        W13167   6.451  12.934   4.135
41639W        W13168  16.299   1.573  11.074
41640W        W13169  30.992  25.340   3.215
41641W        W13170  24.867  16.144  14.690
41642W        W13171   9.235  30.610   0.859
41643W        W13172  24.500  33.839  13.889
41644W        W13173   9.218  39.521  10.425
41645W        W13174   8.472  31.262  10.755
41646W        W13175   5.758  30.990   4.837
41647W        W13176  44.996  42.599  14.882
41648W        W13177   0.304  25.675   2.026
41649W        W13178  12.268  32.280   2.122
41650W        W13179   0.402  31.809  10.248
41651W        W13180  31.451  23.091  10.348
41652W        W13181  11.532  18.656   2.789
41653W        W13182  39.006   6.119  11.673
41654W        W13183   6.333  41.066   2.228
41655W        W13184  37.523  36.503   4.644
41656W        W13185  24.924   1.058   3.685
41657W        W13186   9.265  40.939  14.030
41658W        W13187  25.556  42.395  12.910
41659W        W13188  21.349   7.647   0.478
41660W        W13189  40.952  18.061   2.636
41661W        W13190  39.365   3.389  14.746
41662W        W13191  34.864  10.597  11.044
41663W        W13192   8.257   1.745   1.321
41664W        W13193  27.018  32.077  10.707
41665W        W13194  21.812  15.214   0.632
41666W        W13195  24.070  41.014  10.130
41667W        W13196  17.406   9.800  13.488
41668W        W13197  20.054   0.322   3.576
41669W        W13198  37.791  38.847  11.132
41670W        W13199  24.947  38.143  11.498
41671W        W13200  42.722  10.823  12.924
41672W        W13201  23.126  44.032   3.734
41673W        W13202  12.890   6.390   3.769
41674W        W13203  37.998  11.819   1.246
41675W        W13204  20.907  10.184   0.867
41676W        W13205  28.502  35.415  14.962
41677W        W13206   6.812  24.595   0.414
41678W        W13207  11.952  33.757   4.914
41679W        W13208  23.650  41.287   3.231
41680W        W13209  25.464  19.780   1.793
41681W        W13210  41.192  43.035  12.868
41682W        W13211  25.601  16.220   2.711
41683W        W13212  17.351   5.319   2.762
41684W        W13213  43.526   6.607   1.262
41685W        W13214   1.810  25.489   0.960
41686W        W13215  23.742  44.306  12.464
41687W        W13216  13.764  38.996   1.501
41688W        W13217  34.884  41.391  14.846
41689W        W13218  38.761   6.729   4.609
41690W        W13219  35.542  41.584  14.330
41691W        W13220  16.307   9.023  11.622
41692W        W13221  19.476  33.385  14.542
41693W        W13222  39.988  33.938   0.809
41694W        W13223  29.699  18.051   1.200
41695W        W13224   1.885  38.521   3.346
41696W        W13225  24.624   0.387  11.954
41697W        W13226   0.919  43.561  11.967
41698W        W13227  23.186  26.784  14.457
41699W        W13228  33.370  39.438  11.832
41700W        W13229   5.771  35.113  14.444
41701W        W13230  39.870   1.215  14.334
41702W        W13231  23.949   2.329   5.162
41703W        W13232  38.888  14.282   0.906
41704W        W13233  23.939  42.248  11.081
41705W        W13234   3.022   5.267   2.638
41706W        W13235  23.687  26.251   2.557
41707W        W13236  19.296  37.387  13.733
41708W        W13237  24.463   1.872   2.271
41709W        W13238  40.113  16.685   2.187
41710W        W13239  11.201  23.762   0.155
41711W        W13240  21.865  37.121   2.739
41712W        W13241  44.733  14.927   0.760
41713W        W13242  22.248  16.586  12.542
41714W        W13243  34.160  26.008   1.882
41715W        W13244  36.852  34.159   0.963
41716W        W13245  16.253  22.907   3.753
41717W        W13246  29.980  27.639   0.276
41718W        W13247  36.537  24.726  11.431
41719W        W13248  30.533  20.141  13.634
41720W        W13249  22.490  10.798  11.377
41721W        W13250  40.522  20.861  13.335
41722W        W13251   4.728  35.364   3.180
41723W        W13252   4.730  23.591   3.154
41724W        W13253  15.134  20.483  11.365
41725W        W13254  20.489  28.861   0.322
41726W        W13255  32.475  12.363   2.645
41727W        W13256  40.419  39.189  12.326
41728W        W13257   6.288  26.037   1.330
41729W        W13258   0.575  20.942   2.371
41730W        W13259  20.098  11.055   1.324
41731W        W13260  20.628  10.342   2.537
41732W        W13261  16.732  25.683   2.898
41733W        W13262  10.185  40.275   2.435
41734W        W13263  30.092  19.141   4.464
41735W        W13264   0.773  30.881   2.839
41736W        W13265   0.811   1.894  14.342
41737W        W13266  17.009   2.695  14.193
41738W        W13267  44.551  31.977   1.155
41739W        W13268  27.916  36.688  13.457
41740W        W13269  12.691  21.460   0.388
41741W        W13270  19.808  43.238  11.442
41742W        W13271  20.090   0.861   2.857
41743W        W13272  18.125   0.976   2.626
41744W        W13273  24.454  16.596  11.271
41745W        W13274  34.627  10.123  14.800
41746W        W13275  16.851  29.839   2.020
41747W        W13276  40.098  20.042  14.024
41748W        W13277   5.410   5.848   0.841
41749W        W13278  33.476  42.881  13.489
41750W        W13279   2.926  12.730  12.938
41751W        W13280  35.575   1.994  11.144
41752W        W13281   2.436  15.935  11.586
41753W        W13282   1.408  37.892   4.585
41754W        W13283  36.556  43.390   3.196
41755W        W13284  23.084  43.226  13.905
41756W        W13285  27.254  18.201   2.301
41757W        W13286  43.602  23.124  11.184
41758W        W13287  44.519  29.177  12.561
41759W        W13288   7.273  24.536  11.898
41760W        W13289  28.714   9.274  14.022
41761W        W13290   7.942  31.216  10.754
41762W        W13291  10.022  27.085  11.097
41763W        W13292  24.747  11.939  12.943
41764W        W13293  21.124  24.862   1.507
41765W        W13294   3.391   1.393  14.511
41766W        W13295   2.194   6.837  14.949
41767W        W13296  11.941  25.277  10.303
41768W        W13297  42.794   4.723   1.633
41769W        W13298  42.781   0.134  12.841
41770W        W13299  20.584  26.167  12.881
41771W        W13300  13.115  34.987  13.774
41772W        W13301   6.067  16.263   5.454
41773W        W13302  14.973  11.807   4.609
41774W        W13303   3.304   2.208   3.161
41775W        W13304   1.662  15.454   1.473
41776W        W13305  10.650  10.364   0.563
41777W        W13306  40.348  16.649   1.336
41778W        W13307  36.120  14.846  10.719
41779W        W13308  42.042  32.549   0.243
41780W        W13309  36.015  16.835  11.982
41781W        W13310  24.863  10.777   1.764
41782W        W13311  28.010  12.586  12.043
41783W        W13312  18.116  13.324   2.871
41784W        W13313  37.356  18.996   2.796
41785W        W13314   5.698   5.785   2.630
41786W        W13315   4.972   4.462   4.165
41787W        W13316  17.051  19.143   3.423
41788W        W13317  32.335  25.737   0.298
41789W        W13318  16.343  16.708  11.201
41790W        W13319  14.103  10.935   2.805
41791W        W13320  35.810   8.188   0.124
41792W        W13321   4.908   6.346   1.804
41793W        W13322  17.286  27.909  10.305
41794W        W13323  28.550  37.292   4.601
41795W        W13324  13.335  41.058  14.333
41796W        W13325   7.110  38.466  14.005
41797W        W13326  17.046  26.188   4.383
41798W        W13327  12.348  42.762  12.925
41799W        W13328  20.939  19.107   4.611
41800W        W13329  28.780  44.376  13.045
41801W        W13330   2.428  36.352  12.859
41802W        W13331   6.398   1.423   4.831
41803W        W13332  14.618  38.083   1.386
41804W        W13333   8.027  38.702   3.410
41805W        W13334  29.027  33.053  10.716
41806W        W13335  29.739   9.404  13.874
41807W        W13336  28.087  34.094   0.433
41808W        W13337  35.929  13.385  13.797
41809W        W13338   8.725  24.764   2.251
41810W        W13339  15.747   7.240  12.443
41811W        W13340  27.652  24.563   0.256
41812W        W13341   8.158  33.907   3.245
41813W        W13342   7.818  23.053   2.374
41814W        W13343  25.692   3.213   2.891
41815W        W13344  24.411  31.331  14.035
41816W        W13345  18.634  20.083  11.972
41817W        W13346  18.562  28.092   0.497
41818W        W13347  27.910   1.163   4.629
41819W        W13348  10.793   2.239  14.402
41820W        W13349  32.174  36.595  11.051
41821W        W13350  14.794  39.927   3.423
41822W        W13351  35.764  28.499  10.817
41823W        W13352  43.732  23.621  13.859
41824W        W13353  43.073  43.068   4.903
41825W        W13354   5.940   1.512  11.094
41826W        W13355  29.397   8.754   4.525
41827W        W13356  34.482  41.821   3.728
41828W        W13357   4.950  20.084  14.840
41829W        W13358  41.193  26.446  11.142
41830W        W13359  39.959  29.572   3.183
41831W        W13360  35.075  16.740   2.857
41832W        W13361  20.989   9.805  12.461
41833W        W13362  38.170  19.032   3.304
41834W        W13363  14.531  18.619   0.347
41835W        W13364   9.448  32.104   2.648
41836W        W13365  35.479  11.316   4.925
41837W        W13366  26.362   1.506  12.095
41838W        W13367  31.870  35.279  13.539
41839W        W13368   3.535   7.247   4.288
41840W        W13369  31.743  12.817   1.180
41841W        W13370  40.587  34.658   3.150
41842W        W13371  27.086  32.947  12.445
41843W        W13372  15.072  15.010  12.515
41844W        W13373  40.369  22.253  12.017
41845W        W13374  18.120  44.590   2.239
41846W        W13375  16.595  31.633   4.331
41847W        W13376  11.767  14.428  12.068
41848W        W13377  10.382  15.079  14.369
41849W        W13378  28.937  19.315  11.643
41850W        W13379  24.487  30.082   1.866
41851W        W13380  41.454  32.219   2.738
41852W        W13381   4.916  23.426   0.397
41853W        W13382  19.009  24.157  11.989
41854W        W13383  20.653  12.113  12.030
41855W        W13384  35.713  42.261  11.739
41856W        W13385   8.144  14.307  11.132
41857W        W13386  30.880  38.433   1.740
41858W        W13387  19.585  15.923  12.510
41859W        W13388  32.143  41.853  10.477
41860W        W13389  27.920  16.640  11.574
41861W        W13390  25.443  27.189  11.615
41862W        W13391  26.082   9.663  12.129
41863W        W13392  41.951  40.192   0.456
41864W        W13393   0.804  22.036  13.358
41865W        W13394  27.564  23.652   1.860
41866W        W13395  31.319  37.190   1.674
41867W        W13396  37.630  18.924   1.087
41868W        W13397  38.065  11.703   2.683
41869W        W13398  32.104  10.116  11.327
41870W        W13399  21.339   3.856  12.271
41871W        W13400  31.121  13.676  14.911
41872W        W13401   5.723  26.532  12.713
41873W        W13402  11.189   4.125   0.191
41874W        W13403  14.105  27.362   2.751
41875W        W13404  43.978  17.413  11.559
41876W        W13405  39.637  21.730   0.738
41877W        W13406   2.525  41.492   2.633
41878W        W13407  42.159  28.004   1.524
41879W        W13408  16.324  22.535   1.188
41880W        W13409  20.137   8.294  12.234
41881W        W13410  11.264   5.841  14.467
41882W        W13411   5.242  32.982  11.095
41883W        W13412   6.742  12.241  12.373
41884W        W13413  19.102  32.663   2.786
41885W        W13414  19.261  12.154  14.965
41886W        W13415  38.932  24.222  13.446
41887W        W13416  23.095  38.544  13.406
41888W        W13417  16.096  42.711   3.162
41889W        W13418  16.032  44.851  10.614
41890W        W13419  11.192  30.129   1.820
41891W        W13420   2.837  23.808   4.340
41892W        W13421  43.639  29.974   2.806
41893W        W13422  29.526  30.500  10.733
41894W        W13423  36.463  40.758  14.330
41895W        W13424  12.239  31.930   4.073
41896W        W13425  33.647  11.364   2.804
41897W        W13426  24.728   6.660  12.789
41898W        W13427   3.422  34.060  11.848
41899W        W13428  20.717  15.302  14.381
41900W        W13429  22.667  17.080  11.103
41901W        W13430  14.800  19.669  10.240
41902W        W13431   1.794  12.354  12.112
41903W        W13432  28.376  43.469  14.337
41904W        W13433   5.472  18.078   2.679
41905W        W13434   9.616  11.762   0.987
41906W        W13435  40.917   3.481   4.989
41907W        W13436   0.767  21.230  10.826
41908W        W13437  10.930  18.782  12.383
41909W        W13438  42.861   8.099   3.235
41910W        W13439  17.040   1.732   4.208
41911W        W13440  37.561  23.053  10.711
41912W        W13441  27.837  35.139   3.032
41913W        W13442  11.742  21.914  11.537
41914W        W13443  44.457  21.657   2.749
41915W        W13444   6.805  13.949   3.128
41916W        W13445  29.781  34.309  11.202
41917W        W13446   1.464  32.413   2.121
41918W        W13447  24.465   7.148   0.792
41919W        W13448  31.092  19.047  13.786
41920W        W13449   4.387  16.712  12.953
41921W        W13450  44.851  14.679  11.873
41922W        W13451   3.510  36.862  14.322
41923W        W13452  17.320  28.021   0.827
41924W        W13453  29.987  39.114   1.118
41925W        W13454   6.221  28.663  12.653
41926W        W13455   9.982  43.879  13.299
41927W        W13456  39.348  34.075  10.419
41928W        W13457  35.007  38.182   3.634
41929W        W13458  33.277  21.144  11.292
41930W        W13459   8.723  21.337  14.285
41931W        W13460  34.434  22.690  11.936
41932W        W13461  25.777  38.472   2.837
41933W        W13462  23.616  28.888   3.317
41934W        W13463  27.093  30.676  12.676
41935W        W13464   4.976  20.998   0.199
41936W        W13465  44.216  31.259  13.417
41937W        W13466   1.595  26.020   0.415
41938W        W13467  44.813  25.564  12.656
41939W        W13468  42.459  35.045   2.911
41940W        W13469   4.318   7.093  11.184
41941W        W13470   2.833  19.397  12.175
41942W        W13471  24.258  27.737   2.892
41943W        W13472  15.162  40.870   2.674
41944W        W13473  15.500  11.065   1.529
41945W        W13474  43.604  18.060  14.384
41946W        W13475  34.944  23.280  11.749
41947W        W13476  42.105  32.973  13.537
41948W        W13477   6.446  34.456  13.006
41949W        W13478  21.744  41.033  12.137
41950W        W13479   4.267  26.298   0.783
41951W        W13480  17.163   9.703  11.599
41952W        W13481  42.903  35.867  11.183
41953W        W13482   9.178  35.596  11.156
41954W        W13483  29.839  32.197   1.329
41955W        W13484  24.985   7.210   4.943
41956W        W13485  13.822  38.836  12.491
41957W        W13486  20.528  15.726   1.806
41958W        W13487   4.750   4.435  14.439
41959W        W13488  35.933  17.740  12.549
41960W        W13489  31.598  25.054   0.263
41961W        W13490  40.335  18.071   0.903
41962W        W13491  19.238  36.493   1.885
41963W        W13492  13.401  29.126   0.779
41964W        W13493  18.483  36.099  10.891
41965W        W13494   3.529  14.264  14.359
41966W        W13495  21.176  24.058  10.495
41967W        W13496  15.966  26.726   1.756
41968W        W13497  25.880  29.169  11.650
41969W        W13498   1.719  13.755   0.352
41970W        W13499  11.708  29.646  14.680
41971W        W13500  41.306  14.248   0.792
41972W        W13501  11.690  14.837   1.720
41973W        W13502  33.004  37.385  13.832
41974W        W13503   6.327  31.983   4.500
41975W        W13504  35.357  12.381  14.317
41976W        W13505  33.577  31.059   1.087
41977W        W13506  33.418   9.278   2.651
41978W        W13507  37.044  39.066   4.608
41979W        W13508  13.086  25.045  10.215
41980W        W13509  14.279  36.192  12.920
41981W        W13510  24.706   4.009  12.086
41982W        W13511  17.550  16.214  13.866
41983W        W13512   4.122  28.041   0.371
41984W        W13513  44.243  15.279   0.073
41985W        W13514  13.580  32.902   0.293
41986W        W13515  14.685  30.535  12.590
41987W        W13516   4.526  41.905   1.772
41988W        W13517  31.396   6.183   4.390
41989W        W13518   4.813  39.975  13.962
41990W        W13519  36.052  22.263  11.484
41991W        W13520  39.466  37.006   2.753
41992W        W13521  36.477  40.908   3.309
41993W        W13522  30.553  19.955   0.842
41994W        W13523  41.920  38.360   1.442
41995W        W13524  13.260  28.501  12.884
41996W        W13525  25.122  34.448   4.615
41997W        W13526  29.121   1.700   0.438
41998W        W13527  13.305  13.897   1.969
41999W        W13528  22.802  36.948   0.998
42000W        W13529  38.547  22.493  13.143
42001W        W13530  10.995  38.923   0.352
42002W        W13531  26.661   6.127   4.273
42003W        W13532   0.267  21.824   3.357
42004W        W13533  25.497  22.636  12.084
42005W        W13534   9.874   6.235   4.595
42006W        W13535  30.501  14.227  11.582
42007W        W13536  27.126  38.426  12.330
42008W        W13537  32.193  14.673  11.458
42009W        W13538  25.131  42.801   2.367
42010W        W13539  19.191   8.486   0.377
42011W        W13540  26.803  30.947  13.638
42012W        W13541  32.139  30.744   3.701
42013W        W13542  34.052  37.279  11.490
42014W        W13543  44.590  21.482  14.421
42015W        W13544  41.479  38.593  12.025
42016W        W13545  35.665   4.281   3.734
42017W        W13546  33.495  29.504  14.999
42018W        W13547  33.797  29.098  11.101
42019W        W13548   7.244  25.053  10.799
42020W        W13549  40.095  29.206   1.442
42021W        W13550  12.226  20.665   4.157
42022W        W13551  24.186  18.087   4.083
42023W        W13552  32.711  28.103   2.660
42024W        W13553  36.458   8.667  11.635
42025W        W13554  24.569  28.671  11.181
42026W        W13555  30.760   4.411   4.220
42027W        W13556  10.333   4.160  12.874
42028W        W13557  40.683   9.380  11.613
42029W        W13558  17.053  43.889   3.837
42030W        W13559  11.829  35.081   2.643
42031W        W13560   6.760  26.834   0.209
42032W        W13561  42.461   8.856   4.307
42033W        W13562  32.445  36.788   3.280
42034W        W13563  11.939  19.225  12.412
42035W        W13564  20.807  33.029  10.937
42036W        W13565   8.336   2.809   2.274
42037W        W13566  21.441  33.531  11.642
42038W        W13567   4.810  43.782   1.755
42039W        W13568   2.717  20.086  12.027
42040W        W13569  17.759  11.769  14.387
42041W        W13570  36.767  24.632  12.678
42042W        W13571  21.535  35.567  12.050
42043W        W13572  37.938  43.872   1.754
42044W        W13573  15.270   0.437  10.695
42045W        W13574  32.398   5.357   1.328
42046W        W13575  27.424  11.871   1.388
42047W        W13576  37.572  35.512  13.430
42048W        W13577  38.035  21.535  14.340
42049W        W13578  29.070  40.343  12.858
42050W        W13579  18.832   8.185   3.594
42051W        W13580   9.738  36.404   3.256
42052W        W13581  24.204  14.481  12.626
42053W        W13582  12.274  30.450   2.301
42054W        W13583  43.275   1.826  13.062
42055W        W13584  12.190  34.962  10.909
42056W        W13585  23.795  43.274  13.514
42057W        W13586  36.575  30.207   3.360
42058W        W13587  14.680   2.589  11.957
42059W        W13588  35.814   0.202  13.839
42060W        W13589  15.770  30.911  11.024
42061W        W13590  43.361  15.311   0.393
42062W        W13591  15.944  19.076  10.047
42063W        W13592  37.225  37.076   4.374
42064W        W13593  25.494  27.121   4.552
42065W        W13594  22.102  18.570   3.214
42066W        W13595  14.350  24.096   2.169
42067W        W13596  27.850  27.589   5.156
42068W        W13597   5.540  36.861   0.019
42069W        W13598  16.321  20.303  13.957
42070W        W13599  15.716   1.704   1.302
42071W        W13600   9.066  32.041   4.606
42072W        W13601  44.118  41.279  10.316
42073W        W13602  23.969   9.394  14.027
42074W        W13603  36.591  21.108   3.793
42075W        W13604   2.474  44.516   2.307
42076W        W13605  20.807  41.382   0.910
42077W        W13606  44.332  18.045   1.767
42078W        W13607  16.625   8.307   3.753
42079W        W13608  39.539  44.752   3.772
42080W        W13609  21.029  27.884  12.124
42081W        W13610  17.716  22.703  11.042
42082W        W13611   8.290  11.076   2.241
42083W        W13612  42.362  12.845   2.295
42084W        W13613  41.407  13.795   0.540
42085W        W13614   8.637  40.939   1.599
42086W        W13615  21.273  35.608   4.688
42087W        W13616   8.385  36.780  14.182
42088W        W13617  24.524  22.137   1.243
42089W        W13618  29.884  13.444  11.509
42090W        W13619   8.249   8.525  11.343
42091W        W13620  35.099  27.529  12.560
42092W        W13621  30.475  17.547  12.558
42093W        W13622   3.439  11.075   1.207
42094W        W13623  13.636  36.439  11.256
42095W        W13624   3.442   8.126  11.235
42096W        W13625   6.669  42.414  12.658
42097W        W13626  12.760  10.597  13.965
42098W        W13627  13.684  19.420   3.793
42099W        W13628  27.641   7.465  13.892
42100W        W13629  17.230  19.049   2.249
42101W        W13630  23.047  30.799   4.288
42102W        W13631  33.632  22.038  13.603
42103W        W13632  29.384  13.908   2.358
42104W        W13633  37.417  42.680  14.395
42105W        W13634  35.476  41.005   1.937
42106W        W13635  34.527   8.336  13.829
42107W        W13636  19.626  27.652  12.146
42108W        W13637   1.689   4.327  11.108
42109W        W13638  36.009   3.983   4.770
42110W        W13639   4.187  34.744  12.534
42111W        W13640   4.650  37.514  13.009
42112W        W13641  23.502  22.163   3.632
42113W        W13642   4.748  26.001  14.427
42114W        W13643  20.835  39.978  13.630
42115W        W13644  24.739  40.949   0.253
42116W        W13645  16.597  44.467  14.838
42117W        W13646  35.976  28.744  13.455
42118W        W13647  28.355   1.308   0.333
42119W        W13648  36.394  11.639  10.948
42120W        W13649  32.696  40.951  13.494
42121W        W13650  26.711   6.201  13.566
42122W        W13651  29.345  11.594   1.812
42123W        W13652  41.957  24.668  12.415
42124W        W13653  19.269  12.277   2.294
42125W        W13654  30.720  27.422   3.673
42126W        W13655  32.031  18.036  10.383
42127W        W13656   7.705  19.323  11.677
42128W        W13657  12.916  21.222   1.330
42129W        W13658  33.623  24.994  13.523
42130W        W13659   2.504  33.090  10.631
42131W        W13660  19.393  29.440  12.221
42132W        W13661  34.593  37.658  12.513
42133W        W13662   9.130  17.866   0.349
42134W        W13663  27.474  20.016  10.670
42135W        W13664  44.385  28.449   3.802
42136W        W13665  23.111  38.749  12.923
42137W        W13666  18.664  22.546  14.297
42138W        W13667  12.345  33.452  10.386
42139W        W13668  32.416  38.998  12.341
42140W        W13669  44.000   4.354   1.366
42141W        W13670   9.213  20.203   1.472
42142W        W13671  33.523  11.135  11.190
42143W        W13672  42.296  18.048  14.560
42144W        W13673  38.888  23.647   0.851
42145W        W13674  31.550  41.291   1.452
42146W        W13675  25.163  38.581   3.727
42147W        W13676  21.064   2.485  14.258
42148W        W13677  30.534  33.715  12.572
42149W        W13678  34.379  12.899  12.344
42150W        W13679  42.437  38.292  12.081
42151W        W13680  22.585  12.745  13.847
42152W        W13681  44.161  22.543  13.044
42153W        W13682  25.519  32.379   1.272
42154W        W13683  38.572   3.863  12.012
42155W        W13684   8.260  42.284  10.682
42156W        W13685  13.350   6.124   0.893
42157W        W13686  37.276   0.421  13.559
42158W        W13687  39.573  13.764  14.281
42159W        W13688  38.066   9.696   4.538
42160W        W13689  36.289  36.941   3.279
42161W        W13690  19.740  38.565   2.568
42162W        W13691  15.853  43.269  13.524
42163W        W13692  30.569  10.055   1.672
42164W        W13693  24.474  12.332   3.662
42165W        W13694  44.626  14.331   3.770
42166W        W13695   7.511  44.445  14.053
42167W        W13696   8.055  12.366  11.070
42168W        W13697   8.773  30.136  11.539
42169W        W13698  32.040  33.415   2.424
42170W        W13699  23.713  10.341  14.856
42171W        W13700   7.511   7.408   5.143
42172W        W13701  13.414  44.929   0.994
42173W        W13702  19.292  34.333  12.617
42174W        W13703  17.019  32.349  11.200
42175W        W13704  15.628  20.705  12.118
42176W        W13705  13.760  29.003  10.918
42177W        W13706  33.422  13.754  12.470
42178W        W13707   8.219   2.861   4.199
42179W        W13708  25.691   9.299  11.489
42180W        W13709  34.527   4.480   0.761
42181W        W13710   7.482  10.831  14.270
42182W        W13711  19.996  41.636   4.043
42183W        W13712   7.400  32.144   0.368
42184W        W13713  17.565  17.180  11.525
42185W        W13714  16.122  21.538  12.009
42186W        W13715  20.593  23.407  11.928
42187W        W13716  44.894  11.293   1.885
42188W        W13717  17.092  20.938   2.800
42189W        W13718   3.315   1.343   4.857
42190W        W13719   2.446  44.442   3.702
42191W        W13720  36.053  22.599  13.129
42192W        W13721  19.546  37.970   1.707
42193W        W13722  21.705   7.430   2.253
42194W        W13723   6.785  10.109  12.464
42195W        W13724   6.357   7.455  10.772
42196W        W13725   3.218  42.911   4.728
42197W        W13726   9.400  15.327  13.023
42198W        W13727  12.235  17.402   3.641
42199W        W13728  24.985   6.001   0.423
42200W        W13729  35.174  19.856   2.675
42201W        W13730  12.846  38.577  10.890
42202W        W13731  35.608  26.107   3.109
42203W        W13732   8.390  26.614   2.705
42204W        W13733  24.213  38.956  13.413
42205W        W13734  25.079   3.022   1.815
42206W        W13735  43.239  12.898  13.006
42207W        W13736  15.348  38.336   4.311
42208W        W13737  38.089  28.839   0.255
42209W        W13738  39.873  31.688   2.305
42210W        W13739  10.227  34.148  11.120
42211W        W13740   9.759   2.679  12.509
42212W        W13741   2.987  12.211   4.056
42213W        W13742  20.398  40.840   3.703
42214W        W13743  20.980  20.206   1.606
42215W        W13744  29.917  34.555  14.101
42216W        W13745  26.387  39.059  14.391
42217W        W13746  44.343   9.181  14.435
42218W        W13747  13.765  23.153  10.785
42219W        W13748   4.239  12.056  12.972
42220W        W13749  13.653  42.259   2.171
42221W        W13750  21.193   7.577   4.223
42222W        W13751  35.762  44.575   3.245
42223W        W13752   2.842  29.441   0.485
42224W        W13753   4.249  13.137   0.003
42225W        W13754  42.081  23.534   4.880
42226W        W13755  29.772  24.918  14.770
42227W        W13756  30.108  22.015   3.179
42228W        W13757  16.210  33.370  10.570
42229W        W13758   8.167  29.443  10.303
42230W        W13759  35.733  29.182  13.314
42231W        W13760   6.427  33.850   3.907
42232W        W13761  28.121  14.705  11.060
42233W        W13762   3.366  24.319  14.403
42234W        W13763  26.935  23.648   4.108
42235W        W13764  15.551  29.585   2.872
42236W        W13765  25.192  15.809  14.982
42237W        W13766  41.588   2.484   1.189
42238W        W13767  12.824  16.282  13.593
42239W        W13768   6.875  27.402   2.629
42240W        W13769  10.357  32.676  12.600
42241W        W13770  29.622  16.717   0.987
42242W        W13771   6.333  12.733  11.683
42243W        W13772  22.674  34.746   2.684
42244W        W13773  37.077   9.695   4.550
42245W        W13774  44.230  22.805   1.815
42246W        W13775  12.604  16.094  14.027
42247W        W13776  10.512   0.687   1.024
42248W        W13777  37.562   0.204   2.761
42249W        W13778   8.971  38.090  14.782
42250W        W13779  14.972  34.088  13.985
42251W        W13780  18.960  33.100  11.107
42252W        W13781  28.466  15.775  12.350
42253W        W13782  37.615  39.071   0.211
42254W        W13783   3.819  38.368   0.919
42255W        W13784  44.422  11.300   4.740
42256W        W13785   3.878  41.377  11.664
42257W        W13786  40.362   3.912   3.236
42258W        W13787  44.483  16.209  13.436
42259W        W13788  14.314   4.937   2.851
42260W        W13789   0.104   1.685  12.192
42261W        W13790   3.549  17.695  11.495
42262W        W13791  21.466  44.037  11.039
42263W        W13792  37.155  41.824   4.149
42264W        W13793  22.374  19.565   1.768
42265W        W13794  41.484  44.470   3.558
42266W        W13795  43.523  23.805   9.880
42267W        W13796  32.796  26.003   0.253
42268W        W13797  36.925   2.728  12.374
42269W        W13798   7.726  30.397  14.308
42270W        W13799   3.312  11.786  14.051
42271W        W13800  10.599  36.355  12.886
42272W        W13801   4.668  10.842  10.623
42273W        W13802  21.584  17.716   0.823
42274W        W13803  31.094  18.113   2.806
42275W        W13804   6.194  16.369   2.472
42276W        W13805   5.275   8.678   2.339
42277W        W13806  26.955  27.972  14.500
42278W        W13807  42.531   4.233   2.271
42279W        W13808   1.430  39.299   4.637
42280W        W13809  22.493   8.387   4.163
42281W        W13810   2.468  21.609  12.403
42282W        W13811  28.285  31.124   1.426
42283W        W13812  35.402  24.903   1.281
42284W        W13813  12.966   6.937  11.141
42285W        W13814  39.514  10.648   3.270
42286W        W13815  40.226  43.470  10.545
42287W        W13816  34.509  11.836   3.624
42288W        W13817  18.661   4.959   1.223
42289W        W13818   6.205  17.169   4.134
42290W        W13819  22.678  19.141  14.847
42291W        W13820  43.080  28.541  11.708
42292W        W13821  25.674  23.417  10.728
42293W        W13822  17.177  25.000   4.668
42294W        W13823  30.685   4.255   4.697
42295W        W13824  28.820  44.429   0.412
42296W        W13825  37.480   2.522  10.749
42297W        W13826  36.744  11.108  12.962
42298W        W13827   3.879  26.981  14.640
42299W        W13828  38.391   2.580  11.132
42300W        W13829  16.820  20.739   3.830
42301W        W13830  35.387  15.126   3.342
42302W        W13831  10.012  39.172   4.271
42303W        W13832  27.096  14.942   3.254
42304W        W13833  33.519  34.483   1.723
42305W        W13834  19.738  44.718  10.633
42306W        W13835  27.992  24.191  14.077
42307W        W13836   4.403   4.721   2.261
42308W        W13837   5.258   2.622  14.035
42309W        W13838   7.852  11.804  14.594
42310W        W13839  12.801  43.486   0.022
42311W        W13840  19.411  28.650   0.392
42312W        W13841  21.844  43.752   4.104
42313W        W13842  27.340  24.777  14.916
42314W        W13843  18.140  35.798   3.676
42315W        W13844  16.202  11.769  12.999
42316W        W13845  14.851  20.040  12.972
42317W        W13846  11.077  30.359  12.066
42318W        W13847  28.183   7.296  14.696
42319W        W13848  37.090   4.037   0.036
42320W        W13849  30.298  37.920   0.431
42321W        W13850  39.189  14.147  12.828
42322W        W13851  36.482  11.893   2.429
42323W        W13852  11.312   3.783  13.354
42324W        W13853  41.435  23.131   2.175
42325W        W13854  34.734  34.656   0.532
42326W        W13855   3.737   6.508   1.625
42327W        W13856  42.015  39.530   1.662
42328W        W13857  35.068   8.792   4.653
42329W        W13858   7.028  21.746  11.420
42330W        W13859  24.071  23.991   4.026
42331W        W13860  38.595   5.890  10.998
42332W        W13861  36.855   0.791  10.334
42333W        W13862   4.404  41.258   1.833
42334W        W13863   4.576  22.545   4.549
42335W        W13864  19.793   2.764   3.276
42336W        W13865  14.265  30.545   2.139
42337W        W13866  15.672  32.062   0.532
42338W        W13867   8.607  20.381  14.692
42339W        W13868   4.950  21.726   4.374
42340W        W13869  10.758  16.535  12.517
42341W        W13870  27.410  44.895   1.469
42342W        W13871   8.830  19.365  12.060
42343W        W13872  14.753  26.087   3.171
42344W        W13873  44.979  38.522  14.784
42345W        W13874  44.342  24.701   3.302
42346W        W13875  12.876   4.670   3.724
42347W        W13876  37.773  27.925  11.213
42348W        W13877  10.898  10.420   2.279
42349W        W13878  18.754  19.796   4.595
42350W        W13879   8.048  44.592  10.922
42351W        W13880  44.230  21.566  11.566
42352W        W13881  13.962  17.797  11.084
42353W        W13882  16.477  11.720   4.513
42354W        W13883  26.604  20.886   4.644
42355W        W13884  18.835  40.919   4.676
42356W        W13885  32.594  17.231   2.490
42357W        W13886  14.013  41.479   3.768
42358W        W13887  15.966  11.276  14.430
42359W        W13888   5.131   2.102  13.994
42360W        W13889  27.772  20.107  13.001
42361W        W13890  16.199  40.032   3.124
42362W        W13891  25.962  26.199  14.342
42363W        W13892  12.236  11.382   3.119
42364W        W13893  41.067   8.170   4.037
42365W        W13894   2.167  22.082   1.012
42366W        W13895  25.646  20.014   2.219
42367W        W13896  34.743  34.836  12.935
42368W        W13897  10.225  20.288  10.588
42369W        W13898  44.886  33.361  12.070
42370W        W13899  19.592  30.432  12.066
42371W        W13900  27.126  10.369   2.415
42372W        W13901  31.947  23.144  13.000
42373W        W13902  39.944  10.838  12.981
42374W        W13903  25.932   2.857   0.259
42375W        W13904   2.726  16.232   3.672
42376W        W13905  23.555  21.166  14.520
42377W        W13906   7.680   5.489  12.951
42378W        W13907  15.539  25.686   5.073
42379W        W13908  12.757   0.566  12.995
42380W        W13909  18.570   6.142   2.624
42381W        W13910  42.895  12.859   4.543
42382W        W13911  28.067  31.374  13.380
42383W        W13912  18.665  31.877   2.832
42384W        W13913   9.734  27.010   4.707
42385W        W13914  36.389   4.407  14.609
42386W        W13915  23.343   9.550  11.674
42387W        W13916   6.713  34.806  12.000
42388W        W13917  14.594   5.932   4.469
42389W        W13918  11.677   5.795  14.188
42390W        W13919  13.545  24.083   3.924
42391W        W13920   8.944   5.741   1.099
42392W        W13921   0.453  19.745   1.636
42393W        W13922  11.708   5.233   1.535
42394W        W13923  19.967   8.300   0.758
42395W        W13924  13.144  44.758   3.708
42396W        W13925   1.864  26.462   3.619
42397W        W13926   9.237  38.320   4.779
42398W        W13927  14.570  29.136   2.495
42399W        W13928  35.487  35.642   1.698
42400W        W13929  13.326  22.517  14.809
42401W        W13930   2.265   2.263   2.001
42402W        W13931  20.106   4.806  13.510
42403W        W13932  30.177  30.670   0.436
42404W        W13933  17.741  24.211   2.187
42405W        W13934  29.892   4.158  10.942
42406W        W13935  26.898  10.081  11.137
42407W        W13936  13.010  42.512   1.376
42408W        W13937  28.101  17.173   0.847
42409W        W13938  40.761  42.939   3.092
42410W        W13939  20.727  43.396  12.565
42411W        W13940  38.923   4.219  14.871
42412W        W13941  39.926  25.782   4.207
42413W        W13942   6.719  16.981  14.218
42414W        W13943  37.023  25.923   1.718
42415W        W13944  24.057   7.670   1.297
42416W        W13945   1.245  18.050   4.334
42417W        W13946  12.805   3.251  14.293
42418W        W13947  17.013  39.834  11.180
42419W        W13948  17.882  42.332   4.133
42420W        W13949  30.769  10.148  11.457
42421W        W13950   6.349   5.143  13.730
42422W        W13951   6.050   8.468   4.176
42423W        W13952  12.770   7.797  11.221
42424W        W13953  38.908   1.836   2.276
42425W        W13954  15.404  23.101   0.784
42426W        W13955  21.592  32.478   1.957
42427W        W13956   6.712  12.379   4.382
42428W        W13957  10.711  35.855  13.187
42429W        W13958  39.688  34.362   1.366
42430W        W13959  26.710  34.320  10.828
42431W        W13960  34.923   1.804   4.227
42432W        W13961  22.274  26.128   3.888
42433W        W13962  37.056  22.048  10.720
42434W        W13963  38.752  35.418   3.658
42435W        W13964  39.306  21.741  12.267
42436W        W13965  18.040  33.042   1.462
42437W        W13966   0.362  38.486   0.162
42438W        W13967  15.086  30.724  13.129
42439W        W13968   4.199   4.684  11.697
42440W        W13969  17.682  34.973  14.463
42441W        W13970  16.415   5.164   3.810
42442W        W13971   7.827  18.667  14.418
42443W        W13972  39.630  30.489   2.818
42444W        W13973  41.121  35.037   3.581
42445W        W13974  29.612  16.816  10.263
42446W        W13975  44.323  40.588   4.175
42447W        W13976   8.752  20.052   4.638
42448W        W13977  16.507  41.881  10.986
42449W        W13978   2.523   8.762  11.179
42450W        W13979  24.462   2.860   0.193
42451W        W13980  19.500  23.892   1.417
42452W        W13981  13.625  31.989  13.802
42453W        W13982  43.106  29.619  10.641
42454W        W13983   9.670  35.486  13.082
42455W        W13984   4.614  44.935   2.977
42456W        W13985  30.718  25.442  11.023
42457W        W13986  37.595  15.341   3.332
42458W        W13987  39.958  44.819  14.404
42459W        W13988  21.617  23.098   4.479
42460W        W13989   5.752  19.216  14.503
42461W        W13990  21.033  36.429   0.753
42462W        W13991   0.420  36.835  13.668
42463W        W13992  44.798  15.253   4.665
42464W        W13993  39.611  28.909   4.610
42465W        W13994   9.309   7.920  11.597
42466W        W13995  13.419  28.086  14.816
42467W        W13996   3.091  29.230  12.439
42468W        W13997  28.622  20.217  13.502
42469W        W13998   8.940  34.975   0.753
42470W        W13999  26.404  39.999  12.250
42471W        W14000  36.115  43.095  10.658
42472W        W14001  25.593  23.995   1.191
42473W        W14002   7.300  26.721   3.634
42474W        W14003   4.302  15.828   1.259
42475W        W14004  33.731  42.321   0.108
42476W        W14005   8.760  40.596  11.236
42477W        W14006  23.895   9.381   4.105
42478W        W14007  40.510  15.115  12.972
42479W        W14008   1.086   1.448   1.768
42480W        W14009  17.033  17.652   1.863
42481W        W14010  38.134   1.737  10.826
42482W        W14011  36.572  42.555  11.989
42483W        W14012  19.723  11.283   2.236
42484W        W14013  15.182  14.341   2.817
42485W        W14014  34.131  44.911  11.126
42486W        W14015  11.409  34.852  14.297
42487W        W14016  33.984  15.124  13.809
42488W        W14017  43.818  37.502   5.056
42489W        W14018   2.738   6.183  11.450
42490W        W14019  26.945  32.704  11.503
42491W        W14020   6.141   1.037   3.209
42492W        W14021  31.874  19.300   3.769
42493W        W14022   2.791   9.587   0.924
42494W        W14023   1.364  41.903   2.575
42495W        W14024  44.310  30.449   0.952
42496W        W14025  18.810  19.205  12.460
42497W        W14026  15.766  28.361  14.932
42498W        W14027   7.159  10.482  14.481
42499W        W14028  43.485  15.094   0.865
42500W        W14029  36.011  42.551  12.106
42501W        W14030  35.856  27.229   4.941
42502W        W14031  12.896  28.022  14.875
42503W        W14032  44.902   9.901   1.251
42504W        W14033  42.159  14.339  13.411
42505W        W14034  43.341  42.492   4.118
42506W        W14035  11.272  17.145  10.757
42507W        W14036  10.857  24.838   4.595
42508W        W14037  10.930   0.964   0.904
42509W        W14038  17.894   7.397  11.617
42510W        W14039  43.699  32.953   0.762
42511W        W14040  30.476   1.294   0.730
42512W        W14041  24.910   4.248  11.535
42513W        W14042  33.080   2.839   0.887
42514W        W14043  27.352  35.482  13.070
42515W        W14044  35.497   8.367  11.170
42516W        W14045  17.337   2.379  13.942
42517W        W14046  40.251  11.183   0.444
42518W        W14047  19.837  40.737  13.411
42519W        W14048   5.735  23.593  11.230
42520W        W14049  10.861  35.320   3.693
42521W        W14050  41.869  24.498   0.780
42522W        W14051  21.270  27.418   0.277
42523W        W14052  11.610  32.004  13.984
42524W        W14053  28.629   1.715  11.319
42525W        W14054  33.806   4.039   3.685
42526W        W14055  20.442  27.176   2.181
42527W        W14056  24.763   3.795   0.382
42528W        W14057  31.855  44.031  14.821
42529W        W14058  25.593  27.268  11.142
42530W        W14059  26.409  11.429   2.702
42531W        W14060   7.831   2.059  13.148
42532W        W14061  37.086  38.921  13.831
42533W        W14062   2.257  10.274  14.931
42534W        W14063  44.875  30.009  10.697
42535W        W14064  42.762  13.314  11.456
42536W        W14065  18.692  36.219   1.729
42537W        W14066  41.405  20.284  10.709
42538W        W14067  25.188  33.644   3.921
42539W        W14068   8.033  30.425  10.364
42540W        W14069  19.797  21.551   2.448
42541W        W14070  41.448  13.636  13.476
42542W        W14071  12.111  34.069  13.041
42543W        W14072  37.875  44.804  12.553
42544W        W14073  16.127  35.894  10.736
42545W        W14074   0.166  41.383  11.107
42546W        W14075  25.592  32.658  10.695
42547W        W14076   7.754  41.756   4.852
42548W        W14077  39.327  22.659  14.889
42549W        W14078  10.719  44.810   1.757
42550W        W14079  41.851  23.122  11.530
42551W        W14080  28.162  36.439  12.106
42552W        W14081  11.050  12.511  10.756
42553W        W14082  37.400  32.055   0.666
42554W        W14083  42.331   8.632  14.966
42555W        W14084  39.274  42.749   2.307
42556W        W14085   2.865  28.001  12.376
42557W        W14086  36.040  15.928  13.097
42558W        W14087  22.504   2.646  11.091
42559W        W14088   4.940  44.264  13.659
42560W        W14089  34.447   0.437   4.322
42561W        W14090  11.355  26.749   3.043
42562W        W14091   0.033  42.749  12.514
42563W        W14092  25.635   3.506  11.634
42564W        W14093  19.987  30.246  14.303
42565W        W14094  19.861  14.795   4.077
42566W        W14095  42.309  28.552   2.025
42567W        W14096  11.402  15.675   1.323
42568W        W14097   0.303  39.510   0.269
42569W        W14098  32.650  41.851  13.542
42570W        W14099   3.669  23.228  14.037
42571W        W14100  44.785  27.521  13.342
42572W        W14101   5.141  27.764   3.669
42573W        W14102  24.972  19.718   2.686
42574W        W14103  19.125  26.915  12.481
42575W        W14104  28.211   6.029  12.408
42576W        W14105  14.852  20.840   1.383
42577W        W14106   1.276  22.223   0.041
42578W        W14107  13.386  30.342  11.410
42579W        W14108  10.272  36.909  13.893
42580W        W14109  26.521  41.249  14.434
42581W        W14110  18.701  19.505  10.907
42582W        W14111  29.663  20.848  14.892
42583W        W14112   0.821  32.611  13.595
42584W        W14113  27.379  32.347   4.088
42585W        W14114  14.588  33.481   0.982
42586W        W14115  34.281  43.695  12.149
42587W        W14116  39.019  25.736  13.797
42588W        W14117   8.722  36.310   0.333
42589W        W14118  15.440   0.418  12.484
42590W        W14119  36.422  42.832  11.008
42591W        W14120   2.983  19.826   2.299
42592W        W14121  28.364  23.625  11.431
42593W        W14122  12.781  27.709   0.319
42594W        W14123   9.240  10.357  10.668
42595W        W14124  32.342  36.475  14.957
42596W        W14125   1.929  34.712   4.065
42597W        W14126  15.666  38.721   4.537
42598W        W14127  41.912  18.425  13.525
42599W        W14128  10.138  23.433   2.071
42600W        W14129  15.770   3.095   3.555
42601W        W14130  43.841  13.684   0.881
42602W        W14131   7.582  13.417   3.308
42603W        W14132  41.399  33.827  11.201
42604W        W14133  36.378  16.840   3.835
42605W        W14134  20.069  21.783  12.991
42606W        W14135  26.376  15.584   1.291
42607W        W14136  18.083  32.989   3.864
42608W        W14137  11.704  43.507   3.779
42609W        W14138  20.486   1.442  14.366
42610W        W14139  43.052  14.842   5.007
42611W        W14140  23.141  13.617   2.809
42612W        W14141  30.544  15.680  14.354
42613W        W14142  30.522  19.388   2.949
42614W        W14143  41.455   1.824   1.437
42615W        W14144  42.258  32.933  12.433
42616W        W14145  17.329  11.732   4.347
42617W        W14146  15.293  30.123  12.106
42618W        W14147   6.834  31.075  14.301
42619W        W14148   0.326  17.614   4.623
42620W        W14149  27.216  12.864   2.301
42621W        W14150  18.581  20.100   0.311
42622W        W14151   3.958   2.271   9.943
42623W        W14152  41.374  38.861  12.494
42624W        W14153  21.470   5.936   2.359
42625W        W14154   3.228   9.309   3.282
42626W        W14155   2.816  40.023  12.459
42627W        W14156  18.290  30.181  12.497
42628W        W14157  20.982  15.131   2.474
42629W        W14158  40.055  35.541   0.579
42630W        W14159  37.055  40.103   4.578
42631W        W14160  41.785  41.502  12.463
42632W        W14161  42.478  26.436  13.477
42633W        W14162  41.681  29.915   3.135
42634W        W14163  36.044  10.520  10.323
42635W        W14164  39.922  31.974   4.375
42636W        W14165  11.361   4.796  11.587
42637W        W14166  20.018  44.372  11.657
42638W        W14167  27.438  22.776   2.921
42639W        W14168  28.133  30.012   2.434
42640W        W14169  17.786  37.127   1.307
42641W        W14170  31.014   2.439   0.293
42642W        W14171  32.288  13.239  10.393
42643W        W14172  16.499  14.871  14.685
42644W        W14173  37.048  12.884   1.225
42645W        W14174  43.437   4.922   2.743
42646W        W14175  16.295   5.275  14.804
42647W        W14176  15.577  39.918  12.001
42648W        W14177  17.331  14.337  10.757
42649W        W14178   0.051  28.525   3.175
42650W        W14179  42.821  17.103  13.356
42651W        W14180  28.313   4.338  11.899
42652W        W14181  14.795   9.645   1.756
42653W        W14182  43.801  32.751   4.876
42654W        W14183  29.066  41.457  13.009
42655W        W14184  27.926  13.619   2.357
42656W        W14185  25.257  26.870  12.457
42657W        W14186  27.094  42.029  12.135
42658W        W14187  34.823  36.817  13.930
42659W        W14188  31.673   5.934  12.069
42660W        W14189  37.165   3.765   4.009
42661W        W14190  35.023   9.356  11.465
42662W        W14191  28.612   3.418   3.713
42663W        W14192  26.058  11.067  11.380
42664W        W14193  18.095  36.596   0.793
42665W        W14194  20.935   8.823   4.626
42666W        W14195  30.870   4.966   1.188
42667W        W14196  13.088   3.524  12.497
42668W        W14197   3.501  35.328  13.444
42669W        W14198   4.180   8.760  14.798
42670W        W14199  12.800   2.528   1.417
42671W        W14200  18.080  21.081   3.691
42672W        W14201  15.963  15.344   0.329
42673W        W14202  40.724  16.231   2.388
42674W        W14203  28.575  35.345   4.790
42675W        W14204   5.675  38.025   1.709
42676W        W14205  36.856   7.681  12.138
42677W        W14206  43.807  34.621  11.616
42678W        W14207   5.831   5.203  12.939
42679W        W14208  28.027  18.835  14.458
42680W        W14209  39.728   7.934  12.057
42681W        W14210  14.479  15.539  13.794
42682W        W14211  29.625  23.130   1.304
42683W        W14212  27.322  40.449  12.971
42684W        W14213  17.779  39.738  11.488
42685W        W14214  33.530  29.695  13.024
42686W        W14215   0.326  21.113   2.812
42687W        W14216  22.517  10.630  13.091
42688W        W14217  24.113  28.196   1.969
42689W        W14218  20.021   2.767  11.155
42690W        W14219   2.776   9.349  14.045
42691W        W14220  40.729  19.427   3.712
42692W        W14221   6.955  25.495   4.066
42693W        W14222  36.799  33.611   3.759
42694W        W14223  29.720   6.972  11.390
42695W        W14224  26.063  39.409   0.061
42696W        W14225  21.615  10.862   1.283
42697W        W14226   5.361   4.164   2.369
42698W        W14227  18.097  24.158   4.870
42699W        W14228  15.770   7.550   9.863
42700W        W14229  24.132   8.927  11.534
42701W        W14230  39.710  32.191   2.916
42702W        W14231  37.831  37.630   0.330
42703W        W14232  29.981  39.611   4.646
42704W        W14233  20.782  32.165   0.699
42705W        W14234  26.402   3.542   1.095
42706W        W14235  11.418  11.115  11.625
42707W        W14236  44.514  25.749   0.818
42708W        W14237  22.600  34.039  13.017
42709W        W14238   2.813  35.050  13.634
42710W        W14239  13.574   7.308   0.289
42711W        W14240  44.295   3.266  11.539
42712W        W14241   3.430  23.771   0.404
42713W        W14242   4.040  43.891  14.435
42714W        W14243  11.189  13.742   4.444
42715W        W14244  39.912  12.402   4.873
42716W        W14245   6.377  39.809  11.665
42717W        W14246  12.294  38.121  14.925
42718W        W14247  33.852  16.728  10.960
42719W        W14248  30.606  23.275   2.294
42720W        W14249  22.197  29.869   2.973
42721W        W14250  10.730   2.864  10.250
42722W        W14251  34.136  40.272   0.405
42723W        W14252  18.832  21.363   3.323
42724W        W14253   3.266  17.156  10.778
42725W        W14254  29.994   3.544  12.860
42726W        W14255  16.754  41.524   4.242
42727W        W14256  44.235   9.744  12.976
42728W        W14257  15.881  18.975   0.239
42729W        W14258  17.617  30.961  11.834
42730W        W14259  13.860  14.799  12.305
42731W        W14260   7.856   4.306   1.826
42732W        W14261  29.463  13.635   2.814
42733W        W14262  26.256  30.126   1.284
42734W        W14263  16.013  28.657   2.686
42735W        W14264  15.583  34.107  12.347
42736W        W14265   8.807  27.076  11.978
42737W        W14266  34.818  27.121  14.633
42738W        W14267   0.810  43.081   4.671
42739W        W14268  24.003  44.827   1.288
42740W        W14269  24.731  44.155   4.502
42741W        W14270  40.682   0.627   0.411
42742W        W14271  41.940   5.388   3.234
42743W        W14272  14.339  11.615  13.765
42744W        W14273  27.709  17.727  14.881
42745W        W14274  11.002  20.722   2.733
42746W        W14275  31.273  19.339  10.262
42747W        W14276  31.458   0.444  13.471
42748W        W14277  18.503  37.778   2.351
42749W        W14278  12.157  19.710   4.113
42750W        W14279  42.046  13.426   3.855
42751W        W14280   8.872  14.288  12.423
42752W        W14281   4.157  34.487   0.469
42753W        W14282   3.793  25.051   1.056
42754W        W14283  41.927  32.716   2.099
42755W        W14284  31.375  31.352  12.848
42756W        W14285  16.683  28.158   2.379
42757W        W14286   8.370  37.332   2.509
42758W        W14287  25.901  11.070   1.843
42759W        W14288  22.234   4.894   2.082
42760W        W14289  26.078  22.860   2.786
42761W        W14290  22.787  21.581   3.756
42762W        W14291  27.182   6.613   3.627
42763W        W14292   2.344  23.755  13.621
42764W        W14293  22.294  38.901  12.959
42765W        W14294   2.441   0.859  14.009
42766W        W14295  40.383  21.679  12.527
42767W        W14296  42.222  44.930  12.577
42768W        W14297   3.316  37.779   0.369
42769W        W14298   7.767  25.500   1.733
42770W        W14299  24.462  41.734  13.039
42771W        W14300  11.341  38.477  10.593
42772W        W14301   7.572  38.492  13.772
42773W        W14302  15.128   0.516   1.206
42774W        W14303  23.422   2.042   0.947
42775W        W14304  32.589  41.389  11.114
42776W        W14305  33.871  16.117  13.919
42777W        W14306   6.296  23.229   2.587
42778W        W14307  22.226  20.845  14.358
42779W        W14308  12.686  38.316  10.429
42780W        W14309  28.283  37.783  12.843
42781W        W14310  31.970  26.278  13.135
42782W        W14311  29.886  16.484   5.303
42783W        W14312  17.284  20.338   0.885
42784W        W14313  14.240  26.874   4.527
42785W        W14314  12.377  32.507  10.608
42786W        W14315  18.194  37.522  12.023
42787W        W14316  17.139  10.466   5.081
42788W        W14317  40.817  23.581   2.708
42789W        W14318  42.887   5.780   4.080
42790W        W14319  14.507   4.896  11.606
42791W        W14320  13.207  39.112  12.504
42792W        W14321  19.460  28.462   3.888
42793W        W14322  29.289  33.486   3.269
42794W        W14323  28.187  39.689  11.355
42795W        W14324  15.691  28.141   2.794
42796W        W14325  30.282  12.613  14.318
42797W        W14326  26.980  43.699   0.497
42798W        W14327  30.867  12.639  10.719
42799W        W14328  19.152  31.467   3.727
42800W        W14329  20.618  41.479   3.161
42801W        W14330  25.060  31.371  12.467
42802W        W14331  41.217  19.145   1.939
42803W        W14332  10.873  22.026  12.481
42804W        W14333  32.978   4.222  11.105
42805W        W14334  37.103  34.029  13.478
42806W        W14335  29.629  29.384  12.056
42807W        W14336  20.323  44.730   1.767
42808W        W14337   5.339  30.248   4.837
42809W        W14338   9.815  44.694  12.618
42810W        W14339  26.567  11.872   1.829
42811W        W14340   9.709  12.148   4.117
42812W        W14341  31.141  31.349  13.572
42813W        W14342  36.451  17.590  12.880
42814W        W14343  16.220   7.201   4.521
42815W        W14344   3.989  30.320   4.571
42816W        W14345  43.470   6.501  14.657
42817W        W14346  36.481  26.046   1.687
42818W        W14347  14.432  34.394   2.455
42819W        W14348  28.394  10.628   3.184
42820W        W14349  34.113  13.172  12.750
42821W        W14350  15.688  28.397   0.493
42822W        W14351   9.360  30.686   0.330
42823W        W14352  18.400  15.196   2.403
42824W        W14353  33.047  30.489   1.596
42825W        W14354  10.885  14.161   4.240
42826W        W14355  11.644  25.641   2.819
42827W        W14356  33.455  44.821   4.158
42828W        W14357   9.417  20.779  12.392
42829W        W14358  29.545  20.200   1.024
42830W        W14359   2.117  36.645  11.804
42831W        W14360   4.818  43.315   4.041
42832W        W14361   9.817  40.554   2.707
42833W        W14362  24.739   9.883   1.641
42834W        W14363  36.322  28.944  11.139
42835W        W14364   3.476  41.047  12.898
42836W        W14365  36.036  20.071   0.344
42837W        W14366  15.890  28.858  14.911
42838W        W14367  44.474  36.926   2.276
42839W        W14368   8.713  42.571   3.274
42840W        W14369  15.088   3.251  13.090
42841W        W14370  26.397  22.495   0.944
42842W        W14371   5.434  25.690   1.819
42843W        W14372  26.259  31.180  12.268
42844W        W14373   7.970   3.969   0.881
42845W        W14374  15.799   6.260  11.535
42846W        W14375   4.967  11.889  14.799
42847W        W14376   6.928  28.446  13.351
42848W        W14377  35.332  16.509  12.678
42849W        W14378   6.966  19.261   0.487
42850W        W14379  41.727  39.294   4.093
42851W        W14380   9.189  12.481   0.385
42852W        W14381  35.589  19.090  14.518
42853W        W14382  36.911   6.335  14.891
42854W        W14383  12.631  24.767  12.569
42855W        W14384   6.234  10.730  12.083
42856W        W14385  34.137  19.240  13.420
42857W        W14386  11.083  33.202   2.586
42858W        W14387  30.965   6.108   3.578
42859W        W14388  42.046  22.555   0.452
42860W        W14389  31.739  34.650   3.568
42861W        W14390   5.639  11.610  11.473
42862W        W14391  36.962  40.800   1.045
42863W        W14392  22.582  35.539  12.893
42864W        W14393   6.731  40.073  11.377
42865W        W14394   9.497   0.391   1.012
42866W        W14395  32.436   3.502   0.550
42867W        W14396  15.893  19.164   1.556
42868W        W14397  15.254  36.076   0.314
42869W        W14398  43.301  38.364  12.447
42870W        W14399  10.055  25.451   3.884
42871W        W14400  40.046  12.094  10.434
42872W        W14401  14.256   6.795   0.184
42873W        W14402  21.419  16.011   4.801
42874W        W14403  16.727  23.828   0.473
42875W        W14404  42.343  39.867  14.824
42876W        W14405   4.710  36.246   2.745
42877W        W14406   5.737   9.740  11.479
42878W        W14407  35.593  15.288   3.843
42879W        W14408  15.743  13.981   0.328
42880W        W14409  36.396  30.363  13.839
42881W        W14410  31.396  10.570   2.309
42882W        W14411  11.939  39.964  11.418
42883W        W14412  40.290  25.921   3.248
42884W        W14413   0.103  27.460   2.311
42885W        W14414  31.387  31.751  14.845
42886W        W14415  19.693  38.280  10.245
42887W        W14416  41.404  40.466   5.021
42888W        W14417  23.053   2.319  13.777
42889W        W14418  18.053   1.681   3.297
42890W        W14419   5.290   5.047   4.857
42891W        W14420  16.308  25.350   4.220
42892W        W14421  12.384   9.859  12.665
42893W        W14422   4.025  18.852   4.166
42894W        W14423  22.736  39.323  13.599
42895W        W14424  33.508  36.037   0.075
42896W        W14425  10.887   7.681   2.649
42897W        W14426   0.934  17.414  13.546
42898W        W14427  33.034  19.735   0.882
42899W        W14428  37.107  19.748   0.902
42900W        W14429   1.383   2.870  10.990
42901W        W14430   3.065  42.415  10.757
42902W        W14431  26.577   5.643  11.318
42903W        W14432   7.931  33.361  13.716
42904W        W14433  44.476  19.590  13.501
42905W        W14434  29.111  37.911  14.655
42906W        W14435  36.602   8.869  12.581
42907W        W14436  10.219  43.203  11.448
42908W        W14437  41.510  12.614  10.938
42909W        W14438  40.779  39.860  12.977
42910W        W14439  31.455  13.577  12.915
42911W        W14440  16.224   7.960   1.551
42912W        W14441   5.728  24.473   0.408
42913W        W14442  16.263   6.243  13.406
42914W        W14443  30.060  21.482   3.213
42915W        W14444  31.196   7.998   1.338
42916W        W14445  31.345  37.987  11.625
42917W        W14446  31.035  44.970  11.654
42918W        W14447  13.365  41.453   0.257
42919W        W14448  28.111   6.150   0.724
42920W        W14449  20.626  15.251  11.560
42921W        W14450  38.173  40.299  10.892
42922W        W14451  17.994   9.379   4.711
42923W        W14452  22.968  22.452   3.310
42924W        W14453  24.199  15.540  12.619
42925W        W14454  44.560  18.783   4.556
42926W        W14455  37.514  27.432   4.184
42927W        W14456  32.986   6.484  14.265
42928W        W14457  35.841  43.520  13.080
42929W        W14458  35.176  42.311  14.097
42930W        W14459  24.731  31.557   3.627
42931W        W14460  32.429  23.265  11.428
42932W        W14461  34.795  30.076  14.957
42933W        W14462  23.481  44.482  14.087
42934W        W14463  26.177  38.035  11.322
42935W        W14464  16.341  14.788  11.600
42936W        W14465  26.635  32.135  13.862
42937W        W14466   1.738  35.973   3.654
42938W        W14467  32.652  28.965  11.503
42939W        W14468  21.087  13.852   2.691
42940W        W14469  40.922  39.581  13.477
42941W        W14470  21.689   4.571  11.351
42942W        W14471  41.893  16.482   0.792
42943W        W14472  22.443  35.679   0.116
42944W        W14473  16.286  16.911  12.020
42945W        W14474   3.685  33.632  12.054
42946W        W14475  38.932   3.733   2.693
42947W        W14476  24.375  17.871   0.792
42948W        W14477   1.793  15.521   0.398
42949W        W14478  28.213  38.772  13.001
42950W        W14479  39.071  39.593  14.419
42951W        W14480  16.426   8.946   2.332
42952W        W14481  21.742  14.245   0.248
42953W        W14482  33.764  19.796   3.678
42954W        W14483  16.325  27.900  12.828
42955W        W14484  12.723   9.773   1.804
42956W        W14485   8.819  21.904   1.608
42957W        W14486  13.692  33.621  14.926
42958W        W14487  22.804  36.462   1.244
42959W        W14488   0.972  30.440  12.880
42960W        W14489  25.017  18.718   3.752
42961W        W14490  11.091  31.256   2.317
42962W        W14491  40.208  32.968   2.929
42963W        W14492  30.181   5.836  11.571
42964W        W14493  35.007  34.901  11.166
42965W        W14494   7.080  12.762   3.564
42966W        W14495  19.553   7.704  11.189
42967W        W14496  17.084  44.312  14.974
42968W        W14497  37.260  11.006  12.313
42969W        W14498   7.219  41.621   3.075
42970W        W14499  16.606  32.417  14.192
42971W        W14500  35.466  24.440   1.094
42972W        W14501  44.077   2.745   1.208
42973W        W14502  14.590  41.813  14.288
42974W        W14503   6.862  22.108  12.727
42975W        W14504  10.685   6.359  13.050
42976W        W14505  12.748  42.307  12.567
42977W        W14506  37.440   5.623   4.196
42978W        W14507   6.222  11.591  14.267
42979W        W14508  12.279  20.925   1.776
42980W        W14509  16.896  24.714   4.317
42981W        W14510  26.941   7.196   2.744
42982W        W14511  19.321  35.134  14.917
42983W        W14512  34.706  42.968  13.574
42984W        W14513  30.939  13.851   1.622
42985W        W14514  23.649  42.622  10.459
42986W        W14515  38.942  12.141   3.123
42987W        W14516  26.640  36.122   5.063
42988W        W14517  43.693  40.453  13.929
42989W        W14518   8.925  35.999   4.188
42990W        W14519  11.934  41.744  12.970
42991W        W14520  31.671  16.831   1.740
42992W        W14521   2.606  33.560   0.423
42993W        W14522  16.325  40.421   2.803
42994W        W14523  33.130   1.280   0.339
42995W        W14524  12.151  23.786   0.068
42996W        W14525   3.462   6.466   0.025
42997W        W14526  22.694  14.153  11.066
42998W        W14527  36.641  31.903   2.734
42999W        W14528   1.327  15.689   4.579
43000W        W14529  33.943  36.558   3.098
43001W        W14530  28.617  30.377  12.147
43002W        W14531  11.787   3.986   1.643
43003W        W14532  20.074  26.446  14.255
43004W        W14533  20.997  14.141   1.593
43005W        W14534   3.738  25.181  12.812
43006W        W14535  25.738  32.869   2.764
43007W        W14536  33.083   3.303   0.509
43008W        W14537  19.639  17.742  14.098
43009W        W14538   8.880  27.252   0.856
43010W        W14539  30.064   0.905   4.981
43011W        W14540  33.047   5.795  14.809
43012W        W14541  21.733  18.518  11.168
43013W        W14542  38.861  41.899   1.816
43014W        W14543  38.523  16.270   2.842
43015W        W14544   6.795  29.522  13.291
43016W        W14545  14.656  15.209   2.709
43017W        W14546  42.796  42.410   2.280
43018W        W14547  12.199  31.379   1.214
43019W        W14548  19.558  17.840   2.017
43020W        W14549   5.146   3.382   0.080
43021W        W14550   2.711  28.442   2.646
43022W        W14551  33.400  44.783   0.857
43023W        W14552   1.706  40.442   3.702
43024W        W14553  18.164  34.846   3.386
43025W        W14554  10.772  14.734   3.088
43026W        W14555  34.487  14.393  13.448
43027W        W14556  15.401   3.954  13.304
43028W        W14557   6.897  15.692   2.797
43029W        W14558  12.174  27.183   4.548
43030W        W14559  41.702  32.147  10.692
43031W        W14560   4.682   8.757   5.125
43032W        W14561  37.372  11.727   0.665
43033W        W14562  10.079   9.376   1.407
43034W        W14563  36.132  28.145   0.388
43035W        W14564  19.569  44.754   0.049
43036W        W14565  44.813   1.909   3.693
43037W        W14566  10.137   0.464   2.790
43038W        W14567  14.055  10.941   4.113
43039W        W14568  31.601  38.869  11.700
43040W        W14569  44.322  25.966   4.616
43041W        W14570  28.895  30.248  13.517
43042W        W14571  16.939   3.289   0.498
43043W        W14572  26.665  10.576   4.634
43044W        W14573  41.468  15.745   2.698
43045W        W14574  34.351   4.882   3.736
43046W        W14575  41.075  28.049   3.636
43047W        W14576  11.687  13.213   3.377
43048W        W14577  16.225  30.358  10.777
43049W        W14578  14.529  42.394   0.058
43050W        W14579   3.064  11.979  13.493
43051W        W14580   8.088  13.467   2.186
43052W        W14581  10.568   8.714   1.810
43053W        W14582  21.530  19.282   1.711
43054W        W14583  28.573  29.742  12.972
43055W        W14584  33.642  25.038  10.994
43056W        W14585  16.570  40.878   2.827
43057W        W14586  27.172  32.585  12.826
43058W        W14587  15.183  10.880   1.919
43059W        W14588  13.660  21.761   0.919
43060W        W14589  40.788  38.283  11.461
43061W        W14590  37.791  26.698  11.496
43062W        W14591  11.724  10.684  11.748
43063W        W14592  19.201  16.507  12.757
43064W        W14593  26.548  43.048  14.936
43065W        W14594  20.490  11.156  11.174
43066W        W14595   0.414  22.258  12.997
43067W        W14596   7.631  40.248  14.863
43068W        W14597  14.217   3.393   2.889
43069W        W14598   3.428  37.460   4.916
43070W        W14599  33.052  15.374   4.142
43071W        W14600  18.136  29.616  11.614
43072W        W14601  28.059  21.533   1.373
43073W        W14602  17.254   0.821  11.840
43074W        W14603  19.004  42.924  13.120
43075W        W14604  31.026  13.191   3.271
43076W        W14605   8.329  19.373   4.707
43077W        W14606   1.146  25.971   1.482
43078W        W14607   5.126   5.204   0.855
43079W        W14608  20.853  36.852  13.492
43080W        W14609  28.539  11.699   3.059
43081W        W14610  14.676  12.873  13.081
43082W        W14611   6.956  35.637   0.839
43083W        W14612   1.772  28.604  10.949
43084W        W14613  41.519  36.777  11.569
43085W        W14614  21.691  15.389  12.866
43086W        W14615   6.878  23.739   2.990
43087W        W14616   7.511  30.002  14.035
43088W        W14617  40.836  22.763  11.489
43089W        W14618  21.753  38.474   2.856
43090W        W14619   8.409  22.090   3.227
43091W        W14620   6.185  33.014   2.270
43092W        W14621  43.031   4.851  11.891
43093W        W14622  27.268  29.006   3.536
43094W        W14623  10.346  18.822  14.105
43095W        W14624  35.485  36.454   0.461
43096W        W14625   4.829  12.249  14.392
43097W        W14626  21.223  15.428   4.208
43098W        W14627  33.076   9.371   1.752
43099W        W14628  18.850  32.569  14.419
43100W        W14629  28.066   8.607  11.111
43101W        W14630  36.565  29.869   3.756
43102W        W14631   9.605  27.933   1.693
43103W        W14632   1.324  21.081   3.054
43104W        W14633   8.771  33.231   1.384
43105W        W14634  34.314  24.246  14.555
43106W        W14635   6.818  36.591   4.640
43107W        W14636   4.303  42.697  11.511
43108W        W14637   5.414   9.252  10.600
43109W        W14638  12.403  13.070   1.228
43110W        W14639   1.343  10.130   3.215
43111W        W14640   1.041  13.764   4.761
43112W        W14641  18.594  36.600  12.787
43113W        W14642  36.569  43.529   1.929
43114W        W14643  30.720  31.680   1.733
43115W        W14644  15.073  23.138  14.780
43116W        W14645  30.942  24.333  11.872
43117W        W14646  38.554  20.420   3.817
43118W        W14647  28.192  10.735  13.489
43119W        W14648   8.506   2.144   1.112
43120W        W14649  18.689   0.764  11.575
43121W        W14650   6.650  41.440   2.381
43122W        W14651   5.257   6.260  14.498
43123W        W14652   6.818  42.477   1.314
43124W        W14653  22.263  18.292   1.957
43125W        W14654  29.573  25.938   4.799
43126W        W14655  27.257  21.610   4.518
43127W        W14656  43.147  10.385  13.370
43128W        W14657  30.162  38.042  12.299
43129W        W14658  36.988  33.622   1.434
43130W        W14659  44.729  24.479   3.074
43131W        W14660  12.290  25.736  13.238
43132W        W14661   6.844  21.721  11.934
43133W        W14662  28.525  29.853   1.236
43134W        W14663  29.066  30.554  12.413
43135W        W14664  43.554  37.464   0.811
43136W        W14665  15.360  10.457   4.454
43137W        W14666  15.161  35.400  13.958
43138W        W14667  37.020  33.898  12.457
43139W        W14668   2.452   4.340   1.516
43140W        W14669  39.095   1.743  10.465
43141W        W14670  21.393   8.011  12.564
43142W        W14671   2.511  37.869  13.119
43143W        W14672   1.435  27.030  14.581
43144W        W14673  40.518  22.479  11.153
43145W        W14674  17.314  29.674  13.617
43146W        W14675   7.844  10.540  11.718
43147W        W14676  17.660   3.587   3.256
43148W        W14677  21.816  22.737  10.443
43149W        W14678  34.230  42.981  14.730
43150W        W14679   6.318  42.293   9.796
43151W        W14680  40.319  41.498  13.946
43152W        W14681  42.402  22.995  12.697
43153W        W14682   7.475  33.178  13.904
43154W        W14683  44.847   7.456  14.516
43155W        W14684  41.936  36.061   9.986
43156W        W14685   9.634  26.711  12.431
43157W        W14686  35.875  11.644   4.926
43158W        W14687  16.365  20.426   1.725
43159W        W14688   1.911  19.071   3.685
43160W        W14689  27.708  32.425  13.622
43161W        W14690   2.328  43.443  12.931
43162W        W14691  18.222  37.078   0.966
43163W        W14692  30.089  24.257   0.443
43164W        W14693  26.555  43.955  10.770
43165W        W14694   8.643   3.363  13.106
43166W        W14695  24.292  14.674   3.693
43167W        W14696  41.537   7.213  12.096
43168W        W14697  24.907   5.615   3.829
43169W        W14698   8.640  17.018  11.559
43170W        W14699  40.796  36.154   1.370
43171W        W14700  19.807  40.162   3.465
43172W        W14701  32.212  36.981  13.229
43173W        W14702  14.935  38.863  12.917
43174W        W14703  33.801  44.305   5.026
43175W        W14704   4.131  37.456   3.269
43176W        W14705  32.760  18.672  12.006
43177W        W14706  21.237  41.009  12.138
43178W        W14707  37.732  12.661   4.928
43179W        W14708  16.996  29.131   2.013
43180W        W14709   6.270  17.644   3.157
43181W        W14710   3.318  42.461   3.388
43182W        W14711  17.380  29.776  14.487
43183W        W14712  15.074  43.818  13.569
43184W        W14713  43.754   0.509  13.991
43185W        W14714   1.670  15.829  14.007
43186W        W14715  35.163  12.772  13.616
43187W        W14716  35.883  27.049  13.850
43188W        W14717  41.742   1.246  12.446
43189W        W14718  16.885   0.783   3.266
43190W        W14719  42.330   1.846   1.952
43191W        W14720  28.134  43.036  10.940
43192W        W14721  41.531  31.384  13.997
43193W        W14722  31.175  14.175   1.299
43194W        W14723  15.645   7.221  14.046
43195W        W14724  36.513  38.601  12.640
43196W        W14725  22.990   5.609   2.289
43197W        W14726   0.022   6.135  11.299
43198W        W14727   8.872  18.575   4.572
43199W        W14728   2.861  14.389  10.985
43200W        W14729  43.575   1.825  12.620
43201W        W14730  41.472   0.367  12.547
43202W        W14731  24.248  26.929   2.374
43203W        W14732  22.713  44.357  10.590
43204W        W14733  17.146  34.785   3.548
43205W        W14734  15.386   8.006   0.495
43206W        W14735  16.623  32.116   4.002
43207W        W14736  23.139  17.751  10.563
43208W        W14737  40.878   4.973   4.592
43209W        W14738  15.382  33.603  14.400
43210W        W14739  20.691  29.777   4.218
43211W        W14740  18.542   5.563  14.367
43212W        W14741  41.375  31.694  11.906
43213W        W14742  16.660   4.209  11.525
43214W        W14743  40.583  44.286   4.097
43215W        W14744  40.022  44.037   0.437
43216W        W14745  33.645  13.553  14.115
43217W        W14746  12.085   2.519  11.688
43218W        W14747  44.706   8.208   1.165
43219W        W14748  31.876  20.422   4.354
43220W        W14749   4.822  28.291   2.079
43221W        W14750  12.979  17.034   0.815
43222W        W14751  26.127  21.598   0.408
43223W        W14752   5.621  44.784  10.699
43224W        W14753  44.782  34.683   9.663
43225W        W14754  31.912  13.707   3.214
43226W        W14755  11.825   3.664  11.892
43227W        W14756   0.005  32.889   2.179
43228W        W14757  26.719  33.883   0.531
43229W        W14758  13.362  12.845  12.097
43230W        W14759  27.528  24.936   4.228
43231W        W14760  10.710  13.682  13.489
43232W        W14761   4.828  13.263  13.326
43233W        W14762   5.761  43.851   4.144
43234W        W14763   6.222  26.509  12.598
43235W        W14764  31.597  34.615   2.834
43236W        W14765  40.433   8.472   3.556
43237W        W14766  28.742  18.890   2.725
43238W        W14767  38.120   2.844   1.923
43239W        W14768  19.427   9.854  11.466
43240W        W14769  16.829  13.603   2.661
43241W        W14770   6.411  32.660   3.151
43242W        W14771  10.576   9.293  11.133
43243W        W14772   9.931  23.974   0.780
43244W        W14773  42.300  20.845  11.483
43245W        W14774  44.578  43.966  14.037
43246W        W14775  32.042  42.867  10.901
43247W        W14776  23.019  32.401  14.391
43248W        W14777  31.852  20.109   1.272
43249W        W14778   6.728  24.811  11.826
43250W        W14779   4.079  10.405   4.067
43251W        W14780  43.053  25.095   1.954
43252W        W14781  43.405   0.724  14.281
43253W        W14782  28.541   5.151  11.611
43254W        W14783   7.072  22.028  10.978
43255W        W14784  18.955  33.405   0.056
43256W        W14785  25.163  24.492   1.712
43257W        W14786   1.153  40.423  14.145
43258W        W14787  26.274  26.671  11.734
43259W        W14788  22.182  23.013  12.129
43260W        W14789  25.227  17.312   4.709
43261W        W14790  37.801  22.560  11.356
43262W        W14791  23.995  39.253   2.239
43263W        W14792  12.760   7.761   3.705
43264W        W14793  10.782  31.558   5.012
43265W        W14794  17.755  34.675  11.080
43266W        W14795  42.661  12.559  13.936
43267W        W14796  12.622  15.682  12.774
43268W        W14797   0.886  38.692  13.598
43269W        W14798   7.401  19.747   3.760
43270W        W14799  18.037  36.354   3.365
43271W        W14800  38.017  43.493  11.494
43272W        W14801   7.317  29.123  11.107
43273W        W14802  20.600  43.135  14.007
43274W        W14803  34.915   2.704   0.303
43275W        W14804  30.500  16.671   4.718
43276W        W14805  10.443   6.407   3.665
43277W        W14806  23.944  42.544   0.553
43278W        W14807   1.560  44.390  14.482
43279W        W14808   5.643  22.056  10.492
43280W        W14809   3.051  44.007   1.743
43281W        W14810  41.218  21.321  13.917
43282W        W14811   1.990   0.482   3.139
43283W        W14812  35.445  30.936  13.269
43284W        W14813  31.161  26.527   2.958
43285W        W14814  28.907   9.346  13.539
43286W        W14815   4.002   8.715   1.300
43287W        W14816  16.829  24.580  12.059
43288W        W14817  14.845  30.038  14.411
43289W        W14818  10.806  32.830  12.378
43290W        W14819  23.151  39.330   2.671
43291W        W14820   5.774  44.015   3.650
43292W        W14821  20.226  27.023  10.365
43293W        W14822  34.034  20.236   3.874
43294W        W14823  31.765  27.954   4.345
43295W        W14824  23.756  17.580  12.360
43296W        W14825   0.805  42.247  13.942
43297W        W14826  23.453   7.782   3.312
43298W        W14827   7.180   1.438  11.221
43299W        W14828  22.735   2.719   4.325
43300W        W14829   0.262  17.943  11.544
43301W        W14830  28.543  18.589   0.304
43302W        W14831  13.310   6.122   3.647
43303W        W14832  15.240  22.152  14.694
43304W        W14833   6.899  40.646  12.481
43305W        W14834  28.584  31.842   9.869
43306W        W14835  25.184  28.156  11.693
43307W        W14836   5.544  33.337  11.742
43308W        W14837  25.672  30.603  14.907
43309W        W14838  18.065  35.012   4.763
43310W        W14839   5.314  18.767   1.565
43311W        W14840  23.104   6.131  10.742
43312W        W14841  33.988  19.154   1.492
43313W        W14842  12.763   2.198  11.195
43314W        W14843  22.240  27.465  12.550
43315W        W14844   1.917   4.928   1.019
43316W        W14845  33.975   4.191   4.166
43317W        W14846  36.656  23.662  12.682
43318W        W14847  35.475  41.556   4.095
43319W        W14848  38.271  40.905  13.516
43320W        W14849  44.428  20.211   3.211
43321W        W14850  28.965  42.740  14.893
43322W        W14851   7.464   4.327   2.160
43323W        W14852   2.407  18.061  10.678
43324W        W14853  27.277  25.033   1.173
43325W        W14854  20.956  23.680  13.905
43326W        W14855  39.048   2.398  13.517
43327W        W14856  36.585  10.629  13.035
43328W        W14857  42.415  17.625   1.122
43329W        W14858  31.463  38.657   0.732
43330W        W14859  41.441  26.584  14.053
43331W        W14860  37.944  31.358  11.360
43332W        W14861   5.320  29.090   1.712
43333W        W14862  39.377  36.480   2.770
43334W        W14863   1.605  27.507  11.343
43335W        W14864  44.370  33.639   3.784
43336W        W14865  40.092  25.201  12.997
43337W        W14866  34.140  17.824  13.284
43338W        W14867  20.669  26.684   0.363
43339W        W14868  18.292  24.979   1.375
43340W        W14869  43.916  12.385  11.442
43341W        W14870   6.260  33.797  14.384
43342W        W14871  40.688  10.283   3.127
43343W        W14872  21.310  40.842   1.629
43344W        W14873   6.654  17.123  12.852
43345W        W14874  41.853  29.529   2.819
43346W        W14875  25.465  40.338   1.879
43347W        W14876   2.426  39.936   0.951
43348W        W14877  41.979  43.008   0.956
43349W        W14878   5.632  17.002   1.857
43350W        W14879  25.022   0.812   2.292
43351W        W14880  27.478  15.535   0.378
43352W        W14881  26.791  12.634  14.459
43353W        W14882  19.089  28.652   0.782
43354W        W14883  13.174   8.515  12.167
43355W        W14884  16.323  25.569  14.793
43356W        W14885  14.233   3.488   0.309
43357W        W14886  30.003  34.004   0.208
43358W        W14887  27.398   6.729   3.157
43359W        W14888   8.927  14.569   2.027
43360W        W14889  35.916   7.142  14.055
43361W        W14890   5.890   3.362  10.440
43362W        W14891  21.352  29.112   3.842
43363W        W14892  28.681  23.894   0.426
43364W        W14893  18.385  25.137   0.225
43365W        W14894   3.280  11.733  11.034
43366W        W14895  18.296  10.420  12.589
43367W        W14896  36.833  11.859  11.231
43368W        W14897  13.537  37.560   2.017
43369W        W14898  13.591  31.970   0.361
43370W        W14899  10.203  27.146   0.528
43371W        W14900  36.030   7.416   2.674
43372W        W14901  12.286  33.956  11.697
43373W        W14902  35.963  32.961   1.463
43374W        W14903  26.000  37.171   2.243
43375W        W14904  30.140   9.358   0.754
43376W        W14905   1.484   3.771  13.423
43377W        W14906  30.688   0.036   3.621
43378W        W14907  41.831  44.053  11.066
43379W        W14908  20.791  33.926   1.502
43380W        W14909  15.241  29.473   4.772
43381W        W14910   4.293  32.746  12.093
43382W        W14911   3.271  41.445   3.193
43383W        W14912  23.000  14.041  14.586
43384W        W14913  16.878  21.332  12.457
43385W        W14914  42.670   5.462  12.150
43386W        W14915  42.780  39.964  12.127
43387W        W14916  36.550  10.868  14.821
43388W        W14917   3.213  38.872   3.795
43389W        W14918  30.527  17.202   1.782
43390W        W14919  44.541  26.329  10.241
43391W        W14920  28.506  12.616  10.603
43392W        W14921  27.232  31.327  12.971
43393W        W14922   7.456   7.656   3.204
43394W        W14923  13.612  29.558   0.479
43395W        W14924  17.243  13.663  11.062
43396W        W14925   4.799  32.459   4.725
43397W        W14926  42.539  29.854   4.153
43398W        W14927  10.325   1.894   4.684
43399W        W14928   1.816   6.280   1.336
43400W        W14929   6.887  19.780  11.171
43401W        W14930  14.065   6.356   4.088
43402W        W14931  43.357   3.452  13.591
43403W        W14932  34.445  17.255   0.841
43404W        W14933  11.103  36.088   1.010
43405W        W14934  30.760  39.511  11.986
43406W        W14935  43.478  38.276   2.732
43407W        W14936  37.468  32.820  14.968
43408W        W14937  37.756  33.922  12.058
43409W        W14938  28.448  38.761  11.157
43410W        W14939  34.109   6.536  10.505
43411W        W14940  26.497  25.094   0.918
43412W        W14941  11.926  19.382   1.124
43413W        W14942  44.891  22.614   4.910
43414W        W14943  33.929  17.250  14.004
43415W        W14944  33.632  43.532   1.489
43416W        W14945   2.673  38.470  11.134
43417W        W14946   1.152  32.609   3.309
43418W        W14947  14.688  29.654  14.729
43419W        W14948  35.013  43.458   0.849
43420W        W14949   7.062  35.112   4.533
43421W        W14950   1.254  13.283   0.867
43422W        W14951  24.458   2.422  14.904
43423W        W14952  25.685  31.839  14.503
43424W        W14953  18.854  27.198  13.954
43425W        W14954  33.852   9.363   4.304
43426W        W14955   1.324   6.452  14.541
43427W        W14956  43.348  20.734   2.961
43428W        W14957   1.076  40.914  13.379
43429W        W14958  35.101  28.501   4.677
43430W        W14959  13.668  26.040   4.591
43431W        W14960  42.485   0.368  12.444
43432W        W14961  26.965   4.820  13.529
43433W        W14962  22.716  33.609  13.270
43434W        W14963   3.740  35.969   2.794
43435W        W14964   4.153  32.747   3.231
43436W        W14965  39.568  11.268   2.680
43437W        W14966   2.671  13.751  11.255
43438W        W14967  23.981  40.483  12.934
43439W        W14968  30.970  42.981   4.194
43440W        W14969  33.499  33.584  11.002
43441W        W14970  28.775  38.810   3.742
43442W        W14971  17.180  24.634   3.692
43443W        W14972  39.501  29.708   2.138
43444W        W14973  32.919   4.745  11.070
43445W        W14974  21.011   5.203  10.556
43446W        W14975  19.347  36.857   3.255
43447W        W14976  17.825  33.407  13.936
43448W        W14977  40.424  15.423  10.230
43449W        W14978  36.864   1.342  13.410
43450W        W14979  41.982  41.992   1.163
43451W        W14980  14.549  40.194   3.024
43452W        W14981  40.257  44.390  11.634
43453W        W14982  18.734   0.424  12.735
43454W        W14983   7.387  17.641  11.216
43455W        W14984  10.720   8.661  10.552
43456W        W14985  39.502   2.223   0.204
43457W        W14986  40.504  25.993  12.660
43458W        W14987   9.224   7.673  12.983
43459W        W14988  10.402  38.444   0.844
43460W        W14989  12.225  42.517  13.375
43461W        W14990   3.925   4.845  12.862
43462W        W14991  17.773  43.945  14.658
43463W        W14992  13.388   9.152   2.969
43464W        W14993  35.634  31.056   1.963
43465W        W14994  38.806  44.220   2.768
43466W        W14995  29.386   5.888  12.101
43467W        W14996  44.557   9.643  14.332
43468W        W14997  22.684  35.036   2.201
43469W        W14998  44.038  25.276   4.106
43470W        W14999  13.927  11.235   2.421
43471W        W15000  39.866  23.168   2.782
43472W        W15001  20.055  30.018  12.865
43473W        W15002  41.091   7.459   1.371
43474W        W15003   6.400  10.616  14.877
43475W        W15004  15.106  19.877   0.459
43476W        W15005  32.380   1.920   3.345
43477W        W15006  30.177  33.292   3.599
43478W        W15007   5.253  24.172  12.934
43479W        W15008  25.539  26.889  12.024
43480W        W15009  23.756   6.595   3.727
43481W        W15010   0.847  37.121  13.417
43482W        W15011   5.151  25.099  11.162
43483W        W15012   7.775  15.650   0.470
43484W        W15013  39.392  25.072   0.766
43485W        W15014  11.280  36.223   3.408
43486W        W15015  40.303   2.063   2.343
43487W        W15016  41.026  12.826  10.939
43488W        W15017  34.046   1.369  13.761
43489W        W15018  29.912   1.881  10.891
43490W        W15019  43.188  18.510   3.671
43491W        W15020  26.126  34.909   4.166
43492W        W15021  31.084  23.088   2.425
43493W        W15022  38.982   6.436  14.865
43494W        W15023  44.697   3.481  13.516
43495W        W15024   3.868  35.269  14.241
43496W        W15025  19.301  29.230   0.779
43497W        W15026  18.130  15.102  12.378
43498W        W15027  39.955  17.532   4.670
43499W        W15028   7.841   0.921   4.937
43500W        W15029  23.074  38.312   2.387
43501W        W15030  13.687  11.085   0.319
43502W        W15031  10.780  39.707  13.050
43503W        W15032  15.915   9.763   2.356
43504W        W15033  30.049  32.213  13.815
43505W        W15034  21.019  26.509   4.182
43506W        W15035  29.099  26.770   1.658
43507W        W15036   9.630  32.293  12.106
43508W        W15037   1.051  28.995   4.363
43509W        W15038  13.253  19.656   2.614
43510W        W15039  12.841  34.577  10.653
43511W        W15040  30.357   3.925  12.974
43512W        W15041   4.188   9.616   2.677
43513W        W15042  34.538  12.117   0.967
43514W        W15043   2.346  36.931  14.285
43515W        W15044  22.595   2.400  12.592
43516W        W15045  16.832  44.960   1.799
43517W        W15046  36.015  27.965  11.594
43518W        W15047  23.782   4.664  12.905
43519W        W15048  36.857  18.786   1.509
43520W        W15049  13.656  44.772  10.302
43521W        W15050   1.260   4.789  10.686
43522W        W15051  15.331   8.696   1.243
43523W        W15052  17.182   3.419  14.713
43524W        W15053  40.755  21.722   1.223
43525W        W15054  12.618  36.540  13.090
43526W        W15055  28.701  11.522  13.093
43527W        W15056  27.212  16.277  12.106
43528W        W15057   4.482  15.128   2.858
43529W        W15058   6.999  30.140   2.868
43530W        W15059  41.255  36.884  14.322
43531W        W15060   9.831  23.619  10.682
43532W        W15061   1.684  36.254   4.584
43533W        W15062  13.639  33.422   0.764
43534W        W15063  42.858  18.236   1.923
43535W        W15064  10.302   5.008  14.338
43536W        W15065  41.611   5.748  10.414
43537W        W15066   5.328  24.746   2.985
43538W        W15067  28.867   9.816  13.787
43539W        W15068  39.837  17.736   1.465
43540W        W15069  35.054  40.922   1.272
43541W        W15070   3.014  12.843   0.767
43542W        W15071  22.963   2.875  12.889
43543W        W15072  17.174   9.193  11.869
43544W        W15073   4.171   7.821  13.749
43545W        W15074  38.116  18.151  13.907
43546W        W15075  31.987   7.639   2.338
43547W        W15076   2.984   7.836   3.785
43548W        W15077  27.919  11.330   2.649
43549W        W15078  19.736  39.947   3.929
43550W        W15079  36.359  11.704   4.749
43551W        W15080  37.443   9.823   0.604
43552W        W15081   0.916   6.170   2.680
43553W        W15082  27.961  37.877   1.333
43554W        W15083   9.325  23.872  11.439
43555W        W15084  16.359  36.869  12.369
43556W        W15085   6.675  33.464  13.059
43557W        W15086  36.031  36.127  14.884
43558W        W15087   5.773  17.045   4.445
43559W        W15088   3.918  41.067   1.777
43560W        W15089  11.797  25.700   4.235
43561W        W15090  11.765  10.901   1.816
43562W        W15091   6.804  13.789  11.009
43563W        W15092  36.525  29.654   4.466
43564W        W15093  24.971   1.829   2.304
43565W        W15094   1.555  13.670  10.670
43566W        W15095  38.921  29.061  10.248
43567W        W15096   6.807  28.176   3.262
43568W        W15097   0.939   5.371   1.739
43569W        W15098   7.231  34.851  12.040
43570W        W15099  33.533   1.869  13.235
43571W        W15100  21.731   5.234  12.859
43572W        W15101  37.460  37.080  12.553
43573W        W15102  29.640  30.144  11.664
43574W        W15103  33.395   6.262  14.597
43575W        W15104   5.864  12.383   3.304
43576W        W15105  10.736   8.248   2.650
43577W        W15106  22.789  16.618   2.853
43578W        W15107  15.307   0.919   1.491
43579W        W15108  41.414  24.594  14.031
43580W        W15109   8.817  23.412   1.401
43581W        W15110   0.376   0.828  12.533
43582W        W15111  33.400  22.250   1.710
43583W        W15112  43.594  42.939   1.254
43584W        W15113   0.921   7.406   0.975
43585W        W15114  25.115  35.127   1.394
43586W        W15115  39.052  13.474  11.276
43587W        W15116   0.530  32.174  11.578
43588W        W15117  31.216   0.922   1.620
43589W        W15118  30.464  14.713   2.335
43590W        W15119  16.152   0.086  13.370
43591W        W15120  24.244  20.495  12.513
43592W        W15121  31.263  13.021   3.718
43593W        W15122  32.112  23.014   4.625
43594W        W15123   6.336  29.309  14.590
43595W        W15124  43.691  25.089  11.216
43596W        W15125  28.637  16.038  11.192
43597W        W15126   1.309  25.534   1.736
43598W        W15127  43.204  33.922  14.437
43599W        W15128   3.280  10.545   0.040
43600W        W15129  28.113  10.336  13.792
43601W        W15130  34.437  23.251  11.106
43602W        W15131  29.354  16.082  13.864
43603W        W15132  20.106  30.612   1.710
43604W        W15133  29.949  15.025  14.445
43605W        W15134  36.964   0.034  12.953
43606W        W15135  27.618  19.303   3.104
43607W        W15136  26.229  29.231   3.656
43608W        W15137  35.633   8.772   0.259
43609W        W15138  31.028  21.687   2.332
43610W        W15139  34.365  32.745  14.547
43611W        W15140  44.417   8.417   0.774
43612W        W15141  21.318  25.674   4.573
43613W        W15142   4.817  32.948   1.893
43614W        W15143  27.095  15.096  13.404
43615W        W15144  24.646  38.419   3.601
43616W        W15145  24.200  16.547  14.150
43617W        W15146  42.927  44.182  14.904
43618W        W15147  44.446  26.224  13.471
43619W        W15148  37.071  12.271  10.994
43620W        W15149  15.631  39.819  11.153
43621W        W15150   8.675  32.359   3.711
43622W        W15151   3.220  10.799  10.872
43623W        W15152  41.132   0.150   4.056
43624W        W15153  35.009  30.633   1.406
43625W        W15154   5.298  23.280  12.539
43626W        W15155   9.802  14.046   1.880
43627W        W15156   0.308   9.614   3.872
43628W        W15157  18.283  25.157   3.199
43629W        W15158  22.148  33.331   2.649
43630W        W15159   7.497  12.702  12.576
43631W        W15160  28.536  38.249   0.311
43632W        W15161  15.370  37.439  12.463
43633W        W15162   8.444  42.232  14.838
43634W        W15163  42.792   0.976  10.791
43635W        W15164  21.677  33.406   1.963
43636W        W15165  41.011  31.655  12.775
43637W        W15166   3.374   6.027   3.707
43638W        W15167  17.709  10.906   4.560
43639W        W15168  32.373   2.004   2.436
43640W        W15169   8.438  17.507  11.102
43641W        W15170  41.368  22.935  11.554
43642W        W15171  23.761   4.217   2.821
43643W        W15172   3.292   4.222   3.574
43644W        W15173  41.911  38.089  11.817
43645W        W15174  26.652   7.703  12.451
43646W        W15175  39.833  28.192  11.951
43647W        W15176  32.662   8.990   4.782
43648W        W15177  18.102   0.726  14.818
43649W        W15178  13.147   5.121   2.841
43650W        W15179  25.277   0.936   1.740
43651W        W15180   3.837  37.920  13.068
43652W        W15181  19.414  40.173  14.925
43653W        W15182  19.245  39.540  14.271
43654W        W15183  14.775  29.392  11.880
43655W        W15184  15.315  39.875   4.821
43656W        W15185  28.904  35.679  12.962
43657W        W15186  38.528  15.006  12.761
43658W        W15187  26.011  16.367  13.156
43659W        W15188  19.816  42.935   4.687
43660W        W15189   5.391  20.691  12.974
43661W        W15190  20.637  13.095   0.836
43662W        W15191   2.895   6.655   0.683
43663W        W15192  36.626   0.318   1.473
43664W        W15193  18.293  27.152   0.815
43665W        W15194   5.195  14.407   3.293
43666W        W15195  25.655  32.193   4.740
43667W        W15196   2.628  44.892  13.995
43668W        W15197  20.207   4.941  10.196
43669W        W15198   8.903  43.745   1.879
43670W        W15199   1.343  12.877   2.692
43671W        W15200  35.871  27.973   0.837
43672W        W15201  26.198  36.413   4.004
43673W        W15202  40.290  42.487   0.385
43674W        W15203   7.402   4.232  13.366
43675W        W15204   5.749  20.531  13.851
43676W        W15205  31.523  26.547   3.992
43677W        W15206  33.384  39.479  13.103
43678W        W15207  43.199   3.983  11.971
43679W        W15208  31.495   1.766  11.601
43680W        W15209   4.833  31.074  13.391
43681W        W15210  15.762  41.996   2.671
43682W        W15211  39.972   1.042   3.810
43683W        W15212  18.034  39.017   1.897
43684W        W15213  25.042  31.499   4.062
43685W        W15214  21.532  12.616  11.227
43686W        W15215  36.543  13.365  13.476
43687W        W15216  32.595  22.664   3.785
43688W        W15217   2.725   5.322  12.820
43689W        W15218   9.775  44.222   0.984
43690W        W15219  14.614  30.114  12.916
43691W        W15220  21.499  20.536   2.775
43692W        W15221  44.321  39.660  11.690
43693W        W15222  42.294   7.185  13.194
43694W        W15223  38.329   1.342  11.116
43695W        W15224  36.898   7.937   2.825
43696W        W15225  24.557  26.753   0.275
43697W        W15226  35.291  21.083   4.451
43698W        W15227  19.568   1.295   3.437
43699W        W15228  25.456  14.735  12.907
43700W        W15229  30.063   1.820  11.373
43701W        W15230   9.441  38.440  12.162
43702W        W15231   0.314  24.382   4.450
43703W        W15232   0.907  10.429   1.538
43704W        W15233  31.562  16.611  14.345
43705W        W15234   4.177  20.691  12.361
43706W        W15235  36.003  17.524   4.019
43707W        W15236  40.989   4.204   3.480
43708W        W15237  10.576   6.421  14.316
43709W        W15238  39.887  14.224  11.959
43710W        W15239  31.078   1.631   1.297
43711W        W15240  35.915  32.531  11.556
43712W        W15241   6.440  31.904   3.588
43713W        W15242  41.350   6.796   1.695
43714W        W15243  16.210   5.840  13.075
43715W        W15244  34.487  12.862  13.953
43716W        W15245  44.276   3.849  10.240
43717W        W15246  30.915  24.565   2.776
43718W        W15247  27.978  36.403  10.813
43719W        W15248   0.218  18.525  10.643
43720W        W15249   7.325  33.538  10.944
43721W        W15250  24.485   4.921  12.521
43722W        W15251   7.722  18.170  12.914
43723W        W15252  41.781  29.626   3.809
43724W        W15253  19.772  26.088  11.623
43725W        W15254   1.938  20.214   1.795
43726W        W15255  22.369  23.124  13.123
43727W        W15256  29.486   6.622   1.335
43728W        W15257  11.282  31.600   4.187
43729W        W15258  20.340  32.021  13.890
43730W        W15259  10.641  28.067  13.849
43731W        W15260  18.580  16.114  13.080
43732W        W15261   0.817   1.623  13.017
43733W        W15262  20.194  37.795  14.046
43734W        W15263   4.175  22.314   1.749
43735W        W15264  13.245  33.801   2.387
43736W        W15265  39.554   3.672   4.246
43737W        W15266  16.870  13.087   4.815
43738W        W15267   7.099  19.022  12.897
43739W        W15268  44.349  41.417   0.102
43740W        W15269   8.099  20.338  14.789
43741W        W15270  19.784  10.761   3.632
43742W        W15271  36.722  28.242   2.209
43743W        W15272   7.447  13.143   1.008
43744W        W15273  42.859  23.004   4.910
43745W        W15274  26.492  34.087  12.087
43746W        W15275  14.722  31.529  12.757
43747W        W15276  25.926   8.218  12.112
43748W        W15277  26.489  20.482  13.104
43749W        W15278  23.255  43.069   1.510
43750W        W15279   9.834   1.252  12.207
43751W        W15280  34.935   8.359  13.413
43752W        W15281  35.448  36.872   3.589
43753W        W15282  23.976  11.060  12.977
43754W        W15283  22.633  26.390  11.095
43755W        W15284  30.610   2.907   3.758
43756W        W15285  26.143  42.273   3.726
43757W        W15286  40.332   6.990  10.708
43758W        W15287  44.663  32.799  11.224
43759W        W15288   6.711   2.232  13.872
43760W        W15289  37.797  27.894   4.244
43761W        W15290  38.939  26.395  12.434
43762W        W15291  29.009  41.451   4.407
43763W        W15292   1.599  11.876   1.013
43764W        W15293  18.625  15.575  11.190
43765W        W15294  21.272   9.629  12.872
43766W        W15295  31.797  18.846   2.935
43767W        W15296  36.353  14.235  14.771
43768W        W15297  20.190  13.532  13.931
43769W        W15298   9.641   0.225  12.128
43770W        W15299   7.199  29.186   2.484
43771W        W15300  12.690  36.920   3.752
43772W        W15301  43.739  24.674   0.295
43773W        W15302  21.239  16.604  13.442
43774W        W15303  16.360  11.269  13.046
43775W        W15304  36.321  16.433  12.028
43776W        W15305   0.731   7.469   4.883
43777W        W15306  16.461  38.614   3.809
43778W        W15307  39.427  43.834   4.265
43779W        W15308  20.811  43.908   4.099
43780W        W15309  37.064  41.961   3.007
43781W        W15310   5.839  32.771   0.696
43782W        W15311   8.928  27.609  12.460
43783W        W15312   0.888  15.789   3.771
43784W        W15313   3.213  21.833   2.670
43785W        W15314  18.179   3.676   3.129
43786W        W15315  27.613  10.677   1.027
43787W        W15316  31.637  38.303   4.642
43788W        W15317  30.811   7.472  12.824
43789W        W15318  26.648  44.275   4.039
43790W        W15319  34.602  41.770  12.212
43791W        W15320  11.505  11.193  10.149
43792W        W15321  20.347   2.607   0.599
43793W        W15322  19.012  28.552   3.638
43794W        W15323   5.876   5.666   1.746
43795W        W15324  37.340   1.535  11.300
43796W        W15325   8.542  42.797   3.718
43797W        W15326  37.583  25.397  14.006
43798W        W15327  14.445   9.845  11.211
43799W        W15328  35.972   1.600  14.338
43800W        W15329  32.325  13.161  13.548
43801W        W15330  20.923  33.468   1.280
43802W        W15331  35.033  31.405   0.833
43803W        W15332  14.297  11.203   3.738
43804W        W15333   9.081  42.012  11.643
43805W        W15334  11.728   2.557   5.031
43806W        W15335  11.738  39.321   2.929
43807W        W15336  34.700   5.144  13.907
43808W        W15337   3.871  14.540  14.035
43809W        W15338  20.440   5.180   1.625
43810W        W15339   6.733   7.345  12.999
43811W        W15340  24.302   9.507  14.416
43812W        W15341  16.434  11.878  13.468
43813W        W15342  34.033  40.919   1.198
43814W        W15343  25.996  27.870   1.013
43815W        W15344   0.161  34.639  11.070
43816W        W15345  30.039  40.533   4.111
43817W        W15346   8.825  29.594   2.081
43818W        W15347  13.889  21.983   2.250
43819W        W15348  28.979  13.634   2.135
43820W        W15349   6.314  20.409  13.588
43821W        W15350  24.535  29.155  13.511
43822W        W15351  39.373  23.278   0.957
43823W        W15352  15.672  42.270  14.270
43824W        W15353  30.197   7.860  12.610
43825W        W15354  26.083  36.389   4.503
43826W        W15355   5.829  21.688   3.685
43827W        W15356  36.216  43.886  14.886
43828W        W15357  35.394  20.513   4.251
43829W        W15358  40.575  38.854  13.788
43830W        W15359  15.636  41.957   3.532
43831W        W15360  23.241  11.156   1.987
43832W        W15361  25.992  25.058   2.835
43833W        W15362  26.687   7.101   0.593
43834W        W15363  17.355   4.773   0.023
43835W        W15364  26.457   8.038   5.017
43836W        W15365   0.596  30.034  12.911
43837W        W15366  26.460  25.434  12.579
43838W        W15367  27.907  36.555   0.075
43839W        W15368   3.220  40.807  12.533
43840W        W15369  27.919  31.952   2.121
43841W        W15370   7.608  24.235   2.843
43842W        W15371  26.460  33.383   4.601
43843W        W15372  28.724  39.953  12.852
43844W        W15373  42.501  15.182   2.196
43845W        W15374   1.409  31.037   3.576
43846W        W15375   8.177  41.504  13.491
43847W        W15376  18.025  19.164   2.721
43848W        W15377  32.136  28.081   0.449
43849W        W15378  22.500  37.376   1.288
43850W        W15379  25.683  31.618   2.127
43851W        W15380  28.572  40.783  14.519
43852W        W15381  40.449  26.167   4.997
43853W        W15382  21.732  37.999   1.484
43854W        W15383  16.648  32.603   4.178
43855W        W15384   4.044   9.738   1.398
43856W        W15385  39.031  35.405  13.322
43857W        W15386  39.962  25.922   3.661
43858W        W15387  21.313  18.775   1.390
43859W        W15388  16.100  18.595   4.852
43860W        W15389  35.554  10.801   4.130
43861W        W15390  13.065  39.652   0.959
43862W        W15391  16.908  14.385   3.302
43863W        W15392  15.611  33.122  14.467
43864W        W15393  30.889  29.975   1.172
43865W        W15394   9.488  20.104   3.686
43866W        W15395   4.635  11.131  12.376
43867W        W15396  37.334  32.193   3.353
43868W        W15397  21.641   0.495  13.860
43869W        W15398  11.120  38.022   4.003
43870W        W15399  34.593  34.077   3.846
43871W        W15400  22.519  15.847  11.658
43872W        W15401   3.995   5.334  13.467
43873W        W15402  30.286  29.790  11.221
43874W        W15403  38.999  36.041  12.118
43875W        W15404   2.216  40.254  10.685
43876W        W15405   4.295  39.275   3.180
43877W        W15406  28.580  27.224  11.478
43878W        W15407  38.056  32.028   2.219
43879W        W15408  38.461  17.324   1.394
43880W        W15409  11.785  26.673   1.293
43881W        W15410  14.603   8.667  14.002
43882W        W15411  39.656  27.483   1.926
43883W        W15412  28.593  25.504  13.057
43884W        W15413   2.762  11.268   1.902
43885W        W15414  28.067  24.152  11.540
43886W        W15415  30.653  17.712   0.301
43887W        W15416  11.710  36.034   2.728
43888W        W15417  21.068  21.762   2.733
43889W        W15418  19.711  40.634   4.667
43890W        W15419   8.161   0.010   0.818
43891W        W15420   9.752  21.008   3.114
43892W        W15421   1.355  24.970  10.712
43893W        W15422  12.760  44.988   2.625
43894W        W15423  33.917  20.309   1.287
43895W        W15424  28.389   9.680   3.630
43896W        W15425  32.567  16.308  14.942
43897W        W15426  19.847   7.728   2.288
43898W        W15427  22.490  31.260   0.852
43899W        W15428  25.728  39.316  12.576
43900W        W15429  40.558  22.682   2.601
43901W        W15430  21.823  41.351   0.674
43902W        W15431  42.329  24.722   4.170
43903W        W15432  12.583   5.558   4.051
43904W        W15433  21.938  30.801   2.691
43905W        W15434  30.796  41.609   9.874
43906W        W15435  35.052  21.192   2.853
43907W        W15436  35.420  22.002  13.757
43908W        W15437  41.663  16.292   2.362
43909W        W15438  40.154   7.584  13.428
43910W        W15439  23.288   1.309  14.382
43911W        W15440  42.377  42.052  11.947
43912W        W15441  23.158  18.045  12.801
43913W        W15442  23.114  33.649  14.872
43914W        W15443  25.560  36.881   0.756
43915W        W15444  26.988  35.554   3.136
43916W        W15445  37.498  31.181  12.706
43917W        W15446   1.049   4.216   4.522
43918W        W15447  26.439  10.141   2.817
43919W        W15448  30.738  39.046   9.914
43920W        W15449  28.704   2.822   0.948
43921W        W15450  42.832  23.472  11.339
43922W        W15451  34.299  34.599  12.689
43923W        W15452  11.409   4.532  14.958
43924W        W15453  36.950   6.848   4.074
43925W        W15454  38.908   5.289   1.383
43926W        W15455   3.925  36.344  12.880
43927W        W15456   1.870  34.437  14.965
43928W        W15457  40.341  27.032   3.101
43929W        W15458  27.923  14.642   3.820
43930W        W15459  11.577  17.762  13.399
43931W        W15460  30.446  20.568   2.393
43932W        W15461  17.706  41.369  12.628
43933W        W15462  44.863  35.840  13.779
43934W        W15463   8.731  19.656  13.518
43935W        W15464   5.640  41.726   4.481
43936W        W15465  17.556  19.112   4.145
43937W        W15466  16.519  35.810   4.193
43938W        W15467  38.988  36.375  10.780
43939W        W15468  21.699  21.160   3.745
43940W        W15469  11.114  43.866   1.277
43941W        W15470  42.381  34.466   4.802
43942W        W15471   1.141  18.083   1.837
43943W        W15472  10.274  22.096   2.400
43944W        W15473  17.972  11.303  14.960
43945W        W15474  21.687  13.043   3.332
43946W        W15475  41.012   1.383  14.762
43947W        W15476  13.047  35.231  12.272
43948W        W15477  10.059  42.229  13.810
43949W        W15478  22.998  41.893  10.245
43950W        W15479  36.050  32.587  13.572
43951W        W15480  23.492  12.716  13.481
43952W        W15481  43.322  20.954   0.702
43953W        W15482  34.230  11.413   1.920
43954W        W15483  21.097   9.912  10.738
43955W        W15484  34.437  26.558   3.193
43956W        W15485   1.856  43.496  11.054
43957W        W15486  14.550  38.029  13.867
43958W        W15487  27.114   7.491   1.317
43959W        W15488  24.748  12.147   0.744
43960W        W15489  27.016  44.864  11.919
43961W        W15490   8.310   1.006   1.694
43962W        W15491  29.155  11.162   4.265
43963W        W15492  24.295  30.716   4.036
43964W        W15493  31.352   8.444  11.065
43965W        W15494  31.034  40.772  12.928
43966W        W15495   0.936  38.014   4.832
43967W        W15496  36.386  11.221   4.500
43968W        W15497  38.638  39.998   2.275
43969W        W15498  34.397   6.621  13.284
43970W        W15499  19.073  16.965  14.891
43971W        W15500  25.222  23.657  12.036
43972W        W15501  24.751  34.148   1.447
43973W        W15502   6.824  13.081   1.332
43974W        W15503  27.607  23.285  14.893
43975W        W15504  17.103   4.685   1.312
43976W        W15505  36.099  25.167   4.509
43977W        W15506  15.542  32.618  10.267
43978W        W15507  21.215  21.911  14.319
43979W        W15508  32.659   0.499   0.415
43980W        W15509  13.047  20.709   1.194
43981W        W15510  26.184   9.746  13.425
43982W        W15511   3.755   7.275   0.326
43983W        W15512  30.475  34.878   1.374
43984W        W15513  40.338   5.682   3.637
43985W        W15514   3.731  41.344   1.214
43986W        W15515  17.069  13.662   3.115
43987W        W15516  10.085   8.220  13.013
43988W        W15517  15.040   5.903   4.136
43989W        W15518   9.834  10.098   2.656
43990W        W15519  21.163   5.536  14.896
43991W        W15520  37.039  15.075  13.091
43992W        W15521   3.530   6.373  13.560
43993W        W15522  24.925  41.943  12.855
43994W        W15523  10.246  39.762  14.659
43995W        W15524  36.633  34.784  13.483
43996W        W15525  28.225  26.661  13.515
43997W        W15526  29.559   2.476   0.777
43998W        W15527  37.849  15.103  14.293
43999W        W15528  39.865   4.716   0.357
44000W        W15529   7.071  14.865   0.425
44001W        W15530  13.722  36.426  12.238
44002W        W15531   4.805  27.757   2.256
44003W        W15532  36.372  24.420   2.708
44004W        W15533  30.951  34.484  13.095
44005W        W15534   0.871  39.858  12.391
44006W        W15535  41.496   8.326   0.773
44007W        W15536  12.115  10.152  11.063
44008W        W15537  18.758  43.047  10.483
44009W        W15538  37.591  16.834  11.584
44010W        W15539  15.253  24.646  12.005
44011W        W15540  40.915  14.244  14.930
44012W        W15541  29.749  13.345   3.654
44013W        W15542   0.447  39.877   1.445
44014W        W15543  16.232  35.912  13.365
44015W        W15544  32.684  40.162   2.220
44016W        W15545  23.172  36.236   0.510
44017W        W15546  12.116  30.437   0.276
44018W        W15547  43.952  43.449  12.963
44019W        W15548  44.339  30.918  11.630
44020W        W15549  31.785  28.168   3.021
44021W        W15550  25.557  12.893   4.063
44022W        W15551  15.742  34.012   2.142
44023W        W15552   2.022  10.810  12.326
44024W        W15553   5.134  41.479   1.015
44025W        W15554  22.167  23.242   3.804
44026W        W15555  28.121  22.342  11.253
44027W        W15556   9.192  11.169  14.379
44028W        W15557  33.574   7.944   2.681
44029W        W15558  41.929  31.118   1.911
44030W        W15559  37.985   1.002  14.978
44031W        W15560   5.400   4.501   0.377
44032W        W15561  39.925  34.341   4.519
44033W        W15562   5.780  30.205  11.961
44034W        W15563  40.027  27.975  11.494
44035W        W15564  23.726  28.500   4.138
44036W        W15565  20.679  17.111   0.308
44037W        W15566  11.848  32.038   0.668
44038W        W15567  31.068  18.136  14.300
44039W        W15568  29.953  31.665  12.936
44040W        W15569  29.235   7.599   3.904
44041W        W15570  29.511  33.209   2.297
44042W        W15571   5.419  20.031  13.255
44043W        W15572  17.703  33.304   0.718
44044W        W15573  30.171  32.652   3.911
44045W        W15574  29.398  28.722  14.917
44046W        W15575  17.937   7.868   1.295
44047W        W15576   3.812  42.850  12.270
44048W        W15577  33.189  36.159  14.169
44049W        W15578  21.162  19.330   3.164
44050W        W15579  21.648   5.685  11.962
44051W        W15580  24.152  32.643   1.454
44052W        W15581  32.082  44.887  14.470
44053W        W15582  31.872  32.918   3.145
44054W        W15583   4.973  17.101  14.001
44055W        W15584  17.557  39.001  11.028
44056W        W15585   6.912  29.726   4.138
44057W        W15586  37.440  36.379   0.490
44058W        W15587   9.355   5.975  12.372
44059W        W15588   6.617  25.731  13.300
44060W        W15589  24.810  23.745   2.801
44061W        W15590  35.205  20.799  11.147
44062W        W15591  16.383  41.345  11.710
44063W        W15592  37.022   5.342   4.045
44064W        W15593  14.440  39.500  14.708
44065W        W15594   7.636  14.145  11.989
44066W        W15595  32.314  27.161   1.442
44067W        W15596  42.347  40.985  13.184
44068W        W15597  37.753  39.562   3.166
44069W        W15598  21.173  35.504   3.580
44070W        W15599  38.964  36.440   4.408
44071W        W15600  20.903  36.785   3.902
44072W        W15601  44.870  37.496  11.065
44073W        W15602  26.704  15.795   3.809
44074W        W15603   4.495  25.079   4.211
44075W        W15604  40.042  29.712   0.800
44076W        W15605  33.574   8.460   0.302
44077W        W15606  39.311  25.105   3.613
44078W        W15607  12.261  17.893   3.815
44079W        W15608  26.074  44.560  10.627
44080W        W15609  10.729  31.826   1.507
44081W        W15610  24.513   7.074   2.043
44082W        W15611  27.726  27.918   4.296
44083W        W15612  26.422   2.387  11.582
44084W        W15613  38.931   2.698  13.897
44085W        W15614  20.497  17.596  12.862
44086W        W15615  36.537  36.272   1.443
44087W        W15616  25.628   3.112  12.545
44088W        W15617   2.410   5.702   0.958
44089W        W15618  10.379  10.340   2.304
44090W        W15619  17.270  14.153   0.841
44091W        W15620  34.580  42.536  13.296
44092W        W15621   6.351  42.968  10.716
44093W        W15622  17.196   2.238  13.056
44094W        W15623  11.438  30.152  14.813
44095W        W15624  37.083  24.423   4.564
44096W        W15625  37.976  13.935  12.086
44097W        W15626  18.492  31.733  11.154
44098W        W15627  20.546  13.325  10.563
44099W        W15628  37.630  19.771   0.911
44100W        W15629  38.029   7.853  14.041
44101W        W15630  25.148  22.682   0.275
44102W        W15631  28.661  10.602  13.372
44103W        W15632  43.596  19.032  14.667
44104W        W15633  10.707  20.290   2.757
44105W        W15634  12.071   8.369  12.593
44106W        W15635  22.984  42.859  12.050
44107W        W15636  38.506  12.050   4.086
44108W        W15637  43.264   0.219  12.974
44109W        W15638   8.205  12.437  13.452
44110W        W15639  12.397  24.336  11.977
44111W        W15640  33.972  24.278  11.548
44112W        W15641  16.853  31.017   1.818
44113W        W15642  16.023  24.342  12.507
44114W        W15643  21.197  31.149  13.548
44115W        W15644  34.679   6.530   3.811
44116W        W15645  19.033  20.085  10.722
44117W        W15646   8.158  20.200   9.778
44118W        W15647  21.963  24.652  10.604
44119W        W15648   9.120  24.795  10.847
44120W        W15649  25.592  23.138   0.908
44121W        W15650  36.216  24.105   2.253
44122W        W15651  28.839  34.017  11.222
44123W        W15652  21.688   6.436   4.123
44124W        W15653  37.709  43.480  11.087
44125W        W15654  28.951  31.167  13.685
44126W        W15655   1.267   1.788   4.715
44127W        W15656  20.076   4.857  11.119
44128W        W15657  24.676  32.296   4.133
44129W        W15658   4.632  32.397   0.050
44130W        W15659  12.869  29.863   4.289
44131W        W15660  31.912  24.486  11.892
44132W        W15661  32.096  30.105  12.144
44133W        W15662  34.339  10.264  12.983
44134W        W15663  38.347  20.510  12.845
44135W        W15664  13.314  43.002  12.025
44136W        W15665  19.707  14.007   9.813
44137W        W15666  12.804  19.589  13.943
44138W        W15667  19.518  41.573   3.793
44139W        W15668  23.468  38.552  14.570
44140W        W15669  25.756  37.942  11.029
44141W        W15670   7.970  20.672   0.185
44142W        W15671  14.990   5.678   3.671
44143W        W15672  14.629  30.813   0.887
44144W        W15673  29.589  11.400  14.834
44145W        W15674  44.275   7.249  10.960
44146W        W15675  30.431  34.604  11.597
44147W        W15676  18.082  15.133   4.340
44148W        W15677  25.975  15.300   0.869
44149W        W15678  31.063  24.729  13.024
44150W        W15679   2.430  20.053   1.838
44151W        W15680  32.362  26.841   5.052
44152W        W15681  33.422  30.717  11.655
44153W        W15682  10.646  38.953  11.096
44154W        W15683  25.021   6.481   0.178
44155W        W15684  42.874   3.985   4.507
44156W        W15685  15.117  43.563   2.207
44157W        W15686   5.729  26.306   2.089
44158W        W15687   9.431  11.504   3.565
44159W        W15688  27.164  12.324   2.600
44160W        W15689  13.686  10.651   2.761
44161W        W15690  20.216  29.274   2.159
44162W        W15691  14.379  16.301  11.130
44163W        W15692  22.786  42.469   4.864
44164W        W15693  25.380   4.781  11.204
44165W        W15694  35.174  12.205  10.388
44166W        W15695  40.979   8.640  11.150
44167W        W15696  34.312  38.082   2.284
44168W        W15697   7.236   6.640   4.202
44169W        W15698  35.916  41.906  13.948
44170W        W15699  34.119   0.311  14.857
44171W        W15700  42.209  40.513  12.970
44172W        W15701  23.774  18.046   2.420
44173W        W15702   5.165   4.690  10.753
44174W        W15703   9.132  21.752  13.424
44175W        W15704  35.251  37.478  10.185
44176W        W15705  43.596  34.163  14.826
44177W        W15706   0.866  32.382   0.215
44178W        W15707  31.088  41.292   1.772
44179W        W15708  16.883   6.709   0.504
44180W        W15709   3.973   0.757   1.667
44181W        W15710  20.558  39.647   0.332
44182W        W15711  13.060  39.762  13.241
44183W        W15712  28.647  37.821   2.994
44184W        W15713  12.550  31.373  12.142
44185W        W15714  25.600   3.119  10.285
44186W        W15715   0.729  17.257  11.952
44187W        W15716  16.095  23.945   4.160
44188W        W15717  37.800  19.752   3.736
44189W        W15718  24.698  16.749  13.435
44190W        W15719  13.047   5.599  10.869
44191W        W15720  33.885  34.826  12.462
44192W        W15721   8.221   4.971   2.340
44193W        W15722   4.695  39.906  11.830
44194W        W15723  11.873  24.770  10.879
44195W        W15724  30.696  26.510   4.644
44196W        W15725  24.752  15.615  10.727
44197W        W15726  44.182  38.131  12.119
44198W        W15727  33.785   1.450   1.970
44199W        W15728  18.419  42.450   0.716
44200W        W15729  39.383   9.022   0.365
44201W        W15730  35.661  36.282  12.119
44202W        W15731  23.937   7.112  11.609
44203W        W15732  31.618  15.617  14.462
44204W        W15733  24.750  23.635  12.994
44205W        W15734  43.152  24.166   0.779
44206W        W15735  27.506  32.087  13.285
44207W        W15736   5.340  36.324  12.807
44208W        W15737  37.539   8.430   4.588
44209W        W15738  44.500   9.063   1.927
44210W        W15739  12.361  20.755   0.849
44211W        W15740  40.060  19.229  14.434
44212W        W15741   8.102  37.605   2.851
44213W        W15742  40.263  18.048   4.636
44214W        W15743  11.107  36.487   0.317
44215W        W15744  26.862  19.562   2.370
44216W        W15745   2.713   3.038   1.758
44217W        W15746   3.910  22.811   0.814
44218W        W15747  19.049  24.997   1.875
44219W        W15748  43.457   0.496  13.373
44220W        W15749   7.702  34.190  11.641
44221W        W15750  22.286  21.758  12.871
44222W        W15751   9.728  22.193   1.090
44223W        W15752   6.865  20.015  12.600
44224W        W15753  32.275  14.785   0.828
44225W        W15754  12.128  30.194  11.214
44226W        W15755   2.348   2.518   3.400
44227W        W15756  31.845  17.289   3.765
44228W        W15757  37.293  14.393  13.537
44229W        W15758   6.510  39.555   4.801
44230W        W15759  12.311  22.977   0.163
44231W        W15760  27.983  29.106   4.205
44232W        W15761   9.247  28.643   3.967
44233W        W15762  17.170  27.227   4.786
44234W        W15763   3.334  17.784   1.622
44235W        W15764  35.593  39.507   1.595
44236W        W15765  31.129  32.479  11.062
44237W        W15766   6.892   7.820   0.170
44238W        W15767  32.539  33.182   0.424
44239W        W15768  20.744  13.606  12.122
44240W        W15769  30.035  27.069  10.390
44241W        W15770  34.696  32.433  11.443
44242W        W15771   9.629  32.028  12.943
44243W        W15772  15.091  12.615  12.852
44244W        W15773  24.680   6.612  11.950
44245W        W15774  11.948  40.672   2.819
44246W        W15775  10.309   1.565   3.791
44247W        W15776  10.372  24.240   3.096
44248W        W15777  39.295  29.412  13.844
44249W        W15778  17.929  15.422  13.189
44250W        W15779  22.180   1.406   0.977
44251W        W15780  11.965  37.063  11.180
44252W        W15781   6.417  36.482  13.843
44253W        W15782  41.460  43.928   3.657
44254W        W15783  22.780  39.882   0.919
44255W        W15784  10.684  18.281  13.411
44256W        W15785  40.363  20.862   0.810
44257W        W15786  14.283  25.210   4.231
44258W        W15787  17.233  23.582   1.741
44259W        W15788  36.453  42.343   3.539
44260W        W15789  29.208  15.220   3.657
44261W        W15790   4.707  32.162   0.877
44262W        W15791  42.568  20.206   2.209
44263W        W15792  44.799  11.637  10.752
44264W        W15793   2.058  13.178   4.057
44265W        W15794  27.081  36.631   4.091
44266W        W15795  42.196  23.199   4.294
44267W        W15796  38.871  22.071  11.951
44268W        W15797  15.519  33.479  13.134
44269W        W15798  31.892   9.879   0.862
44270W        W15799  35.586  41.822   1.384
44271W        W15800  39.371  19.173  12.957
44272W        W15801  38.947   9.132  11.252
44273W        W15802  11.234  25.959   3.384
44274W        W15803  12.764  11.380   0.270
44275W        W15804   9.308   8.589   4.744
44276W        W15805  20.011   1.481   2.433
44277W        W15806  37.321  20.543   1.935
44278W        W15807  14.140  20.568   4.155
44279W        W15808  26.866  31.059   3.759
44280W        W15809  11.668  16.677   0.768
44281W        W15810  31.989  31.372   2.857
44282W        W15811  11.409  24.183   2.346
44283W        W15812  39.616   0.209  11.585
44284W        W15813  18.332  35.526   4.077
44285W        W15814  10.083   9.189   4.698
44286W        W15815  13.229  33.130  12.621
44287W        W15816   0.967  23.494   0.291
44288W        W15817  15.820  35.427   4.823
44289W        W15818  36.089  16.515   4.095
44290W        W15819  38.595  25.735   2.160
44291W        W15820  13.916  23.909  11.110
44292W        W15821  40.343  10.093  13.132
44293W        W15822  28.097  21.823  11.326
44294W        W15823  16.258  44.850  12.483
44295W        W15824  34.980  12.388   0.825
44296W        W15825   6.219  25.528  14.679
44297W        W15826  28.380  23.037   0.535
44298W        W15827  15.723  20.450  13.427
44299W        W15828  39.864   7.951   2.288
44300W        W15829  38.350  15.588   0.557
44301W        W15830  20.045  42.736   2.690
44302W        W15831  17.290   0.381  11.580
44303W        W15832  14.222  42.051   0.330
44304W        W15833  39.543  33.680  14.992
44305W        W15834  20.102  24.627  10.770
44306W        W15835  26.853  16.790   2.189
44307W        W15836   9.132   5.905   1.583
44308W        W15837  27.427  17.708   1.362
44309W        W15838  14.846  30.549  14.334
44310W        W15839   4.231  43.780   2.921
44311W        W15840  34.763   8.361   4.578
44312W        W15841  15.217  36.690   2.270
44313W        W15842  30.602  33.365   2.280
44314W        W15843  19.807  42.721   3.182
44315W        W15844  32.420   9.355  13.315
44316W        W15845  23.725   0.285  12.625
44317W        W15846   3.060   0.135  14.879
44318W        W15847  34.856  27.206   3.183
44319W        W15848  37.505  14.972  11.160
44320W        W15849  32.495  26.926   1.890
44321W        W15850  30.000  16.377   0.890
44322W        W15851  10.825   2.797  11.985
44323W        W15852  14.301  37.925   2.533
44324W        W15853  28.661  36.135   0.612
44325W        W15854   1.351   9.146  10.727
44326W        W15855  34.147  41.052   3.170
44327W        W15856  37.118   8.879   1.741
44328W        W15857  10.335  39.041  13.397
44329W        W15858   9.642  17.243  11.601
44330W        W15859  28.048   7.324  14.205
44331W        W15860  26.146  32.440  11.979
44332W        W15861  13.755   1.013  13.885
44333W        W15862  15.526  14.537  11.339
44334W        W15863  10.898  43.297  14.041
44335W        W15864  32.199  22.904   0.274
44336W        W15865  44.685   0.953   2.863
44337W        W15866   8.701  30.375   1.390
44338W        W15867  23.630  38.037   1.536
44339W        W15868  38.562   0.322  13.864
44340W        W15869  40.637  40.959  12.690
44341W        W15870  30.548  42.402   3.123
44342W        W15871   2.486  10.759  12.063
44343W        W15872  38.145  43.080  14.045
44344W        W15873  28.674   4.387  13.454
44345W        W15874  37.705  12.526  14.084
44346W        W15875  24.950  38.962  14.204
44347W        W15876  41.543  12.211   0.664
44348W        W15877  35.953   3.823   3.830
44349W        W15878  16.229  33.225  12.970
44350W        W15879  21.099  26.226   1.081
44351W        W15880   8.933  25.660   1.254
44352W        W15881  38.136  22.123  11.567
44353W        W15882  29.419   2.830   2.154
44354W        W15883  15.129   1.016   0.270
44355W        W15884  18.764  44.820  13.609
44356W        W15885  25.664  19.495   2.224
44357W        W15886  37.043  19.007  10.565
44358W        W15887  17.070  30.869   4.085
44359W        W15888  26.221  41.058   0.715
44360W        W15889  39.253  17.358   2.085
44361W        W15890  44.401  42.002   1.489
44362W        W15891  29.442  44.970  12.992
44363W        W15892  43.243  19.645   1.915
44364W        W15893  35.531  38.805  14.364
44365W        W15894  19.753  18.637   0.963
44366W        W15895  15.095  21.718  11.070
44367W        W15896   1.957   2.450   0.613
44368W        W15897  43.865  38.937  10.774
44369W        W15898   7.246   2.163  13.616
44370W        W15899   6.107  28.946  10.477
44371W        W15900  21.460  31.456  13.192
44372W        W15901  28.976  38.429  10.635
44373W        W15902   8.387   0.250   0.385
44374W        W15903  38.434  41.776   1.421
44375W        W15904   9.214  22.908  10.389
44376W        W15905  13.817  28.427  12.097
44377W        W15906  42.329  12.721  12.966
44378W        W15907   8.524  36.989  10.638
44379W        W15908  16.283  12.520   3.195
44380W        W15909  28.168  26.589  14.452
44381W        W15910  38.069  38.002   4.706
44382W        W15911  12.025  19.122   0.668
44383W        W15912  21.077  25.884  13.494
44384W        W15913  35.101   7.950   1.680
44385W        W15914  32.024  23.766  13.339
44386W        W15915  17.198  38.015  13.952
44387W        W15916  43.521  31.613   3.752
44388W        W15917  20.690  26.169   0.338
44389W        W15918  44.350  11.811   2.747
44390W        W15919   5.134  35.908  14.795
44391W        W15920  26.591  21.973   4.076
44392W        W15921  16.381  18.277  14.942
44393W        W15922  20.453  24.500   1.946
44394W        W15923  26.142   3.430  14.737
44395W        W15924  32.289  19.794   2.702
44396W        W15925   4.366  15.837   2.760
44397W        W15926  28.432  44.786  10.692
44398W        W15927   6.471  20.394   5.343
44399W        W15928  32.439  21.737   0.500
44400W        W15929   0.924  27.134  11.122
44401W        W15930   2.079  18.618   0.326
44402W        W15931  23.431  19.595   3.622
44403W        W15932  32.485   4.305   0.536
44404W        W15933  11.457  34.826   1.339
44405W        W15934  33.064  40.241   4.178
44406W        W15935  37.579  32.538  11.037
44407W        W15936   5.292  15.362   4.422
44408W        W15937   5.216  36.377  11.059
44409W        W15938  29.435  17.664  12.892
44410W        W15939  16.729   8.883  11.287
44411W        W15940  15.604  22.506  12.599
44412W        W15941  37.783  39.533   4.056
44413W        W15942   4.387  22.752   2.204
44414W        W15943  21.109   2.999   3.710
44415W        W15944  29.868  22.512   1.391
44416W        W15945  37.085   9.337   2.151
44417W        W15946  24.159  37.494  12.558
44418W        W15947  42.038  10.706  14.552
44419W        W15948  38.161   7.199  11.392
44420W        W15949   0.399  20.494   2.179
44421W        W15950   0.207  38.470   4.673
44422W        W15951   8.201   3.786   2.619
44423W        W15952  41.154   9.214  11.709
44424W        W15953   5.201  21.472   3.079
44425W        W15954  26.030  34.020   3.630
44426W        W15955   1.106  15.165  11.684
44427W        W15956  27.639  14.060   4.995
44428W        W15957   2.080  23.223  11.936
44429W        W15958   0.715  32.496   4.947
44430W        W15959  27.435  43.047  14.324
44431W        W15960  14.868  28.124  14.888
44432W        W15961  21.106   0.490  12.626
44433W        W15962  19.146  40.012  14.099
44434W        W15963  44.919  42.412   3.203
44435W        W15964   8.420  25.677   1.307
44436W        W15965  11.675  42.239  10.618
44437W        W15966  11.467  30.108   0.769
44438W        W15967  42.084  18.775   0.294
44439W        W15968  37.620  43.564   3.169
44440W        W15969  32.475   3.949   3.229
44441W        W15970   0.897  30.059  12.471
44442W        W15971  11.421  43.381   2.631
44443W        W15972  40.995  36.063   2.226
44444W        W15973  39.917   1.860  13.806
44445W        W15974  29.480  15.540   1.810
44446W        W15975  15.133  43.207  14.881
44447W        W15976  11.632  22.696   0.656
44448W        W15977   0.887   1.636   2.850
44449W        W15978  18.086  34.317  14.871
44450W        W15979  39.762  14.807  12.824
44451W        W15980  26.514  37.661  12.068
44452W        W15981   7.102  41.507   2.111
44453W        W15982  40.216  35.999   4.253
44454W        W15983  35.810  22.224   4.122
44455W        W15984   3.249  36.884  11.641
44456W        W15985   5.902  16.563   1.333
44457W        W15986  36.349  40.053   1.882
44458W        W15987  36.260  40.496   2.182
44459W        W15988   9.222  27.776   2.961
44460W        W15989   4.312   8.611   4.293
44461W        W15990  10.765  25.920   4.563
44462W        W15991   5.157  23.738   2.828
44463W        W15992   4.898  35.097   1.434
44464W        W15993  21.878  43.296  11.057
44465W        W15994  38.818  42.692  11.694
44466W        W15995   3.622  36.513  13.946
44467W        W15996  38.465  13.143  12.078
44468W        W15997  31.217  14.099  14.641
44469W        W15998  35.041   2.760   1.782
44470W        W15999  22.605  22.537  14.764
44471W        W16000  10.323   8.165   0.063
44472W        W16001   8.122  19.358   3.800
44473W        W16002   6.242  30.428  12.076
44474W        W16003  16.576  18.013  11.851
44475W        W16004  36.564  22.758  11.930
44476W        W16005  39.660  40.758  10.676
44477W        W16006   5.841  13.168   4.555
44478W        W16007  40.733  35.320   1.361
44479W        W16008  19.255  36.481  11.341
44480W        W16009  38.819  27.700   3.602
44481W        W16010  11.395  15.307  11.589
44482W        W16011  29.160  22.778  13.968
44483W        W16012  42.261  21.117   3.680
44484W        W16013  36.000   5.588  12.430
44485W        W16014  35.199  28.041  13.488
44486W        W16015  37.936  21.088  13.386
44487W        W16016  43.607  20.784   4.777
44488W        W16017  20.343  20.644  13.359
44489W        W16018  44.817  39.176  12.969
44490W        W16019  42.647  31.497  11.964
44491W        W16020  16.568  11.893   2.403
44492W        W16021  29.249   2.242   2.208
44493W        W16022  39.248  43.845  11.950
44494W        W16023   3.723  41.258  12.485
44495W        W16024  14.384   4.259   1.219
44496W        W16025  32.963  22.234  12.162
44497W        W16026  22.777  41.717   2.154
44498W        W16027  13.838  39.622  11.104
44499W        W16028  23.952  10.718   2.314
44500W        W16029  35.032   1.022   4.684
44501W        W16030  14.721   9.581   0.354
44502W        W16031  22.696  23.397  13.575
44503W        W16032  18.325   7.470  14.309
44504W        W16033  43.610   7.602  13.313
44505W        W16034   6.176  19.079  13.167
44506W        W16035  32.873  28.646  11.119
44507W        W16036  26.211   2.355   4.802
44508W        W16037  35.915  19.719  13.152
44509W        W16038  26.556   4.262   2.394
44510W        W16039  38.939  26.285   2.030
44511W        W16040   9.943  18.368  14.907
44512W        W16041  27.883  36.077  12.863
44513W        W16042  19.199  12.670  12.525
44514W        W16043  33.540  28.454   1.623
44515W        W16044   7.203   9.952  14.437
44516W        W16045  20.548   3.470  11.331
44517W        W16046   4.232  24.047   0.346
44518W        W16047  35.505  27.620  11.954
44519W        W16048  42.821   8.684   0.954
44520W        W16049  13.932   4.187  13.423
44521W        W16050  31.896  22.235   4.151
44522W        W16051  26.822  36.603   4.529
44523W        W16052  32.151  21.991   4.528
44524W        W16053   8.006  33.893   4.294
44525W        W16054  19.645  28.073  11.196
44526W        W16055   0.304   0.665   1.666
44527W        W16056   2.820  27.018   0.825
44528W        W16057  31.004  37.866  13.378
44529W        W16058  27.285  13.387  13.885
44530W        W16059   9.326  39.003  11.633
44531W        W16060  41.486  30.863  13.997
44532W        W16061  11.127   5.431  12.851
44533W        W16062  38.565   8.777   2.109
44534W        W16063  19.202   8.243   4.487
44535W        W16064  41.926   7.154   3.665
44536W        W16065   7.708  35.944  10.187
44537W        W16066   2.969  34.868   0.965
44538W        W16067  39.484  14.229  11.590
44539W        W16068  41.950   7.969   4.103
44540W        W16069  30.709  35.870  10.284
44541W        W16070  38.854  34.713   4.489
44542W        W16071  19.740   7.241  11.242
44543W        W16072   2.379  31.659  13.084
44544W        W16073  24.875   3.503   4.572
44545W        W16074  22.420  24.706   4.537
44546W        W16075  10.183  41.775   4.794
44547W        W16076  19.559  21.040   0.788
44548W        W16077  34.139  43.404  11.724
44549W        W16078  18.193   1.739  14.137
44550W        W16079  30.873  19.808   3.096
44551W        W16080   5.091  20.183   0.998
44552W        W16081   6.961  44.965   4.857
44553W        W16082  42.898  29.594   1.447
44554W        W16083  25.615  20.953  13.876
44555W        W16084  29.822  28.145  13.850
44556W        W16085  20.221   0.022  11.655
44557W        W16086   7.258  16.613  12.381
44558W        W16087   5.236  13.162   1.890
44559W        W16088  37.414  37.336   0.184
44560W        W16089  17.760  12.850  11.528
44561W        W16090   7.251  31.452   4.073
44562W        W16091  23.181  28.621  11.919
44563W        W16092  38.934  12.196   4.404
44564W        W16093  21.146   8.676  14.914
44565W        W16094  36.713  35.629   2.778
44566W        W16095   3.578  23.288   0.334
44567W        W16096  44.646  16.742   3.292
44568W        W16097  44.496  39.833  14.826
44569W        W16098  17.172  43.538  13.975
44570W        W16099  26.672  25.679  12.016
44571W        W16100  28.147  12.079   1.716
44572W        W16101  38.498  23.810  12.144
44573W        W16102  40.261  40.414   0.384
44574W        W16103  24.800  19.117  13.803
44575W        W16104   8.819   4.331  11.927
44576W        W16105  28.046  13.654   4.811
44577W        W16106  36.779   6.938  12.565
44578W        W16107  27.047   7.834  13.258
44579W        W16108  17.594  28.584  11.971
44580W        W16109  19.213   4.024   4.230
44581W        W16110   7.430  33.849   2.715
44582W        W16111  20.803   4.714  12.153
44583W        W16112  29.304  40.412   4.563
44584W        W16113   6.821   3.441  11.905
44585W        W16114   6.948  27.086   3.559
44586W        W16115  14.886  20.628   0.931
44587W        W16116  37.308  28.006   4.393
44588W        W16117  44.972   2.497  11.031
44589W        W16118  35.325   3.191   1.671
44590W        W16119  22.146  37.075   4.372
44591W        W16120  42.326  37.035  10.687
44592W        W16121  14.808   6.585   1.935
44593W        W16122  40.768  40.405   0.990
44594W        W16123  23.595  24.234   0.391
44595W        W16124  27.824  39.399   3.239
44596W        W16125  22.975  10.768  14.829
44597W        W16126  13.247  44.846  10.010
44598W        W16127  25.645  28.580   4.500
44599W        W16128  19.812  18.674   3.779
44600W        W16129   3.200  36.093   1.872
44601W        W16130  16.796  26.963  13.035
44602W        W16131  30.425  16.767   2.810
44603W        W16132  21.519  28.501  14.026
44604W        W16133  16.280   1.640  12.381
44605W        W16134   5.688  22.330   0.778
44606W        W16135   4.067  44.225  14.043
44607W        W16136  24.353  21.253   1.321
44608W        W16137  19.959  19.694  12.203
44609W        W16138  30.433   0.334   0.871
44610W        W16139   4.188  25.551  14.236
44611W        W16140  43.947  20.757   3.793
44612W        W16141  25.778   0.860  14.534
44613W        W16142  24.962  41.852  10.956
44614W        W16143  20.276  13.567  11.923
44615W        W16144  21.216  22.549  14.922
44616W        W16145  37.159  29.647   2.660
44617W        W16146  31.183  22.435  11.410
44618W        W16147  43.787  44.790  11.388
44619W        W16148  35.783  13.124   2.683
44620W        W16149  10.045  40.451   3.153
44621W        W16150   7.283  27.255  13.903
44622W        W16151   3.798  21.178   4.097
44623W        W16152  11.735   0.057   0.385
44624W        W16153  18.167   2.698  14.375
44625W        W16154  12.868  29.527   1.372
44626W        W16155  37.493  44.759  12.926
44627W        W16156  10.717  29.674  14.958
44628W        W16157  32.685  24.205   3.689
44629W        W16158  42.839   7.922  12.925
44630W        W16159  33.874  43.989   1.346
44631W        W16160  30.529  21.684  14.560
44632W        W16161  44.491  28.661  12.517
44633W        W16162   3.827  43.454  11.102
44634W        W16163  10.802  22.128  15.000
44635W        W16164  25.491  13.736  13.049
44636W        W16165  17.240  18.653  12.091
44637W        W16166  35.470  42.034   1.894
44638W        W16167  39.981  18.359  14.230
44639W        W16168  40.287  35.006   2.204
44640W        W16169   5.487  11.819  14.808
44641W        W16170  29.635  20.019  10.734
44642W        W16171   9.099  21.617   1.305
44643W        W16172  28.467  30.864   0.991
44644W        W16173   9.393  39.847   3.989
44645W        W16174  41.827   5.501  12.567
44646W        W16175  18.987  29.446  12.561
44647W        W16176  27.535  29.364   4.033
44648W        W16177   7.030  10.731  14.024
44649W        W16178  20.649   8.994  11.319
44650W        W16179  21.765  38.506  13.663
44651W        W16180  23.108  16.567  13.523
44652W        W16181  21.994  29.453  12.433
44653W        W16182  12.084  33.469   4.472
44654W        W16183  17.480  25.179   2.774
44655W        W16184  37.465   6.024   5.166
44656W        W16185   3.226  17.002  13.471
44657W        W16186  26.617  23.152   2.368
44658W        W16187   6.354  21.005  12.365
44659W        W16188   1.227  18.516   3.814
44660W        W16189   3.215  28.890   0.899
44661W        W16190   8.587   2.057   0.593
44662W        W16191   4.274  37.822  12.790
44663W        W16192   6.090  36.371   0.744
44664W        W16193  18.043  12.730  13.378
44665W        W16194  39.696  44.902   2.168
44666W        W16195  11.146  36.433   1.393
44667W        W16196   4.046  33.987  13.590
44668W        W16197  40.781  26.494  14.835
44669W        W16198  16.104   4.006  12.879
44670W        W16199  23.748  18.666  13.550
44671W        W16200  23.850   6.019   4.925
44672W        W16201  18.167  14.208   2.847
44673W        W16202  31.379   5.243   4.114
44674W        W16203   5.867   9.158  12.997
44675W        W16204  28.047  13.184   1.433
44676W        W16205  38.472   4.277   4.356
44677W        W16206  32.196   4.330   1.335
44678W        W16207  20.145  13.174   1.047
44679W        W16208   3.885  34.310   2.436
44680W        W16209   6.405  25.040  12.533
44681W        W16210   2.716  12.609  12.464
44682W        W16211  13.243  12.804   4.632
44683W        W16212  20.622  17.956  14.120
44684W        W16213  37.126  39.389  13.569
44685W        W16214  13.986  24.002   0.885
44686W        W16215  38.590   2.750   2.298
44687W        W16216  43.973   4.713  12.997
44688W        W16217   3.124   7.668   2.526
44689W        W16218  35.848  27.008  12.941
44690W        W16219  20.976   6.303   5.022
44691W        W16220   6.907  20.000   4.490
44692W        W16221  29.405  28.637  12.523
44693W        W16222  16.681  44.759   2.366
44694W        W16223   7.583  37.777  14.457
44695W        W16224   3.120  36.437  11.942
44696W        W16225  27.223  39.941  14.072
44697W        W16226   0.703  30.660  10.631
44698W        W16227  41.099  10.700  14.898
44699W        W16228  13.503  30.593   4.756
44700W        W16229   3.766  34.647  14.803
44701W        W16230  14.314  39.813   0.533
44702W        W16231  12.061   5.866  12.058
44703W        W16232  15.132  23.200  14.204
44704W        W16233  31.582  30.682  11.276
44705W        W16234   5.783  30.955   4.224
44706W        W16235  25.975  23.655   4.058
44707W        W16236  10.341  25.019  12.413
44708W        W16237  42.732  40.027  13.927
44709W        W16238   1.222  23.996  11.573
44710W        W16239  17.571  17.104   2.747
44711W        W16240  21.181   6.571   1.249
44712W        W16241  25.791  21.402   3.423
44713W        W16242  33.042  19.190  12.511
44714W        W16243  32.452  26.801  14.725
44715W        W16244   7.757  35.585  10.597
44716W        W16245  36.928   8.179   1.547
44717W        W16246   8.808  10.865   2.222
44718W        W16247  26.137  20.564   0.359
44719W        W16248   2.354   5.819  11.589
44720W        W16249  17.850  14.918  13.053
44721W        W16250  44.901  29.474   1.346
44722W        W16251   2.135   1.253  13.428
44723W        W16252  22.688  33.177  11.976
44724W        W16253  23.716  30.010   3.287
44725W        W16254   3.265  36.884   2.381
44726W        W16255   0.292  41.870  10.470
44727W        W16256  37.004  13.616  10.704
44728W        W16257  37.808  31.623   0.025
44729W        W16258   2.561  18.688   1.958
44730W        W16259  10.134  22.531   4.618
44731W        W16260  25.347   3.825  10.406
44732W        W16261   5.834  23.631  14.069
44733W        W16262   4.381  37.372  11.477
44734W        W16263   0.286  15.601   2.236
44735W        W16264  18.278  23.500  12.107
44736W        W16265  38.359  42.460   4.230
44737W        W16266  26.493  24.541   0.288
44738W        W16267   8.168  40.573  12.602
44739W        W16268  25.709  27.672   0.441
44740W        W16269   6.236  11.235   4.870
44741W        W16270  44.582  19.723  11.713
44742W        W16271  33.697  39.297   4.248
44743W        W16272  37.756  39.978   4.333
44744W        W16273  12.338  26.703  11.959
44745W        W16274   4.825  11.689   0.305
44746W        W16275  32.048   5.674  12.819
44747W        W16276  35.573  13.688  13.463
44748W        W16277  24.675   5.338   0.735
44749W        W16278  40.411  11.322   2.487
44750W        W16279  13.049  22.699  13.144
44751W        W16280  41.902  28.093   3.121
44752W        W16281  18.627  38.698  11.618
44753W        W16282  25.451  37.120  10.210
44754W        W16283  20.202  23.487   3.343
44755W        W16284  29.063  20.542  12.037
44756W        W16285   1.894  32.791   3.817
44757W        W16286  37.398  24.216  12.498
44758W        W16287  25.524  29.388   2.344
44759W        W16288  26.632  27.537   9.972
44760W        W16289  20.038  24.337  12.037
44761W        W16290  41.044  28.233  14.546
44762W        W16291   5.217   7.429   3.281
44763W        W16292  25.538   0.838   4.623
44764W        W16293  36.110   3.990   0.071
44765W        W16294   7.604  36.363  12.805
44766W        W16295  42.451  39.368  12.574
44767W        W16296  30.632  13.586   0.712
44768W        W16297  20.048  43.449  11.829
44769W        W16298  13.677  28.284  13.835
44770W        W16299  30.399  35.117   3.277
44771W        W16300  18.557  25.211   1.823
44772W        W16301  33.019  22.935  11.513
44773W        W16302  42.032  14.394   3.244
44774W        W16303   1.886  24.405  12.557
44775W        W16304  28.248  14.251  12.552
44776W        W16305  33.488  44.966   0.360
44777W        W16306  38.020   9.934   3.510
44778W        W16307   6.850  30.859  11.526
44779W        W16308  42.881   8.189  14.284
44780W        W16309  34.898   5.193  12.946
44781W        W16310  16.997  43.811   4.348
44782W        W16311   7.587  28.732   1.244
44783W        W16312  42.783  30.517  13.849
44784W        W16313  11.428  44.783  11.610
44785W        W16314  37.460   5.324   0.637
44786W        W16315  23.262  23.024  14.023
44787W        W16316  16.205  14.305   2.756
44788W        W16317  18.509  25.085   4.678
44789W        W16318  18.587  35.423  11.986
44790W        W16319   9.730  31.499   1.752
44791W        W16320  37.187  10.258   3.279
44792W        W16321  36.709  31.456  10.906
44793W        W16322  37.442  28.737   2.672
44794W        W16323  28.711  16.457   4.081
44795W        W16324  22.582  26.573   0.399
44796W        W16325  27.131  18.619  13.451
44797W        W16326  21.138  21.676   1.805
44798W        W16327  27.717  43.994  14.813
44799W        W16328   2.583  27.384   3.349
44800W        W16329  39.600  27.563   4.104
44801W        W16330  34.636  19.107  11.695
44802W        W16331  42.041  43.706  10.753
44803W        W16332  10.203  26.064  13.428
44804W        W16333  35.865  42.439   2.284
44805W        W16334  26.480   2.006  11.958
44806W        W16335   2.928   3.497  13.346
44807W        W16336  10.469   5.869  13.144
44808W        W16337  36.292  31.133  12.178
44809W        W16338  32.234  32.811   0.674
44810W        W16339  43.978  15.322   3.384
44811W        W16340  32.160   3.723  12.222
44812W        W16341  26.613  37.889   3.594
44813W        W16342  13.268  38.115  11.611
44814W        W16343  13.271   2.736   0.700
44815W        W16344  23.051  37.983   2.839
44816W        W16345   9.111  39.600  13.204
44817W        W16346  32.699  41.552   0.410
44818W        W16347   3.325  26.960  14.653
44819W        W16348   6.153  42.290  12.605
44820W        W16349  26.842  24.129  12.504
44821W        W16350  18.286  11.313  14.529
44822W        W16351  37.619  21.139   4.797
44823W        W16352   4.902  20.509  10.429
44824W        W16353  33.781   2.778   1.923
44825W        W16354  11.350  11.606   4.595
44826W        W16355   8.613  32.976  12.561
44827W        W16356  42.242  39.010   2.886
44828W        W16357  36.972  37.491   2.838
44829W        W16358  31.547  27.322   1.944
44830W        W16359  21.134   3.859  13.149
44831W        W16360   6.309  32.644  13.885
44832W        W16361  16.032  31.638   4.531
44833W        W16362  35.929  19.159   2.836
44834W        W16363  14.695  27.446   4.176
44835W        W16364   5.865  36.428  11.039
44836W        W16365  43.779  17.701   4.443
44837W        W16366  16.118  39.336  12.541
44838W        W16367  22.725  36.501   3.817
44839W        W16368   1.917  21.560  14.319
44840W        W16369  39.577  43.497   0.066
44841W        W16370   5.306  39.221   4.117
44842W        W16371  40.942  35.702   1.083
44843W        W16372  34.016  21.618   2.196
44844W        W16373  32.266   9.569  12.327
44845W        W16374  17.103   5.715   2.106
44846W        W16375  41.780  15.748  12.919
44847W        W16376   3.887  20.135  11.186
44848W        W16377  19.268  23.723  12.032
44849W        W16378  16.220   6.859   2.174
44850W        W16379  25.222   7.312   1.306
44851W        W16380   8.347  31.092  14.186
44852W        W16381   6.301  39.067  13.041
44853W        W16382  37.564  11.608   2.720
44854W        W16383  36.866  42.577   3.852
44855W        W16384  16.639  24.444   4.745
44856W        W16385  33.941  35.104   2.662
44857W        W16386  13.160  36.872   0.728
44858W        W16387  42.479  30.162   3.732
44859W        W16388  15.135  36.634   4.458
44860W        W16389  14.725   1.981   3.108
44861W        W16390  20.974  10.143   4.123
44862W        W16391  38.296  26.036  11.212
44863W        W16392  30.169  17.521  12.128
44864W        W16393  10.695  22.251   1.535
44865W        W16394   2.219  41.313   1.194
44866W        W16395  31.457  39.163  13.008
44867W        W16396  18.322  31.705  14.643
44868W        W16397   0.602  15.324  13.278
44869W        W16398  28.081  11.676  10.823
44870W        W16399  44.235  24.526  13.944
44871W        W16400  31.414   1.385   1.671
44872W        W16401  27.169  22.056   0.919
44873W        W16402  29.419  31.086  13.431
44874W        W16403  29.855  36.703  13.905
44875W        W16404   2.871   8.608  14.744
44876W        W16405  26.476  39.218   4.225
44877W        W16406  23.999  13.306  10.664
44878W        W16407  21.685  36.811  13.331
44879W        W16408   5.771  44.364   4.076
44880W        W16409   4.700  12.071   2.206
44881W        W16410  10.637   2.417   1.798
44882W        W16411  17.108  36.786  14.190
44883W        W16412  43.766  15.929  11.469
44884W        W16413  19.787  26.804   4.918
44885W        W16414  30.846  28.773   1.789
44886W        W16415  13.701  11.819  10.706
44887W        W16416   8.206  10.442  13.074
44888W        W16417  44.027   2.419   2.359
44889W        W16418  17.393  35.668   3.344
44890W        W16419   2.352  22.193  11.330
44891W        W16420  15.829  15.164  12.496
44892W        W16421  23.144  42.958   1.999
44893W        W16422   3.357  10.352  11.156
44894W        W16423   0.279  43.272   2.328
44895W        W16424   4.038  10.736   1.781
44896W        W16425  28.756  16.780   1.862
44897W        W16426  40.997  17.046   2.442
44898W        W16427  42.075  28.057   0.244
44899W        W16428  16.216  12.483   4.132
44900W        W16429  21.526   5.776   3.262
44901W        W16430  43.751  30.041   1.193
44902W        W16431   1.842  35.299  11.008
44903W        W16432  10.115  40.773   2.322
44904W        W16433   1.888  35.085   0.857
44905W        W16434   9.302  42.332   3.721
44906W        W16435  30.611  28.906  11.465
44907W        W16436  27.176   2.178   4.505
44908W        W16437  14.185  15.322   2.423
44909W        W16438   9.395   9.299   2.618
44910W        W16439  20.202  17.300  12.147
44911W        W16440  25.769  38.807   3.338
44912W        W16441  31.464  15.881   0.468
44913W        W16442  26.550  41.272   4.821
44914W        W16443  40.580  35.122   0.895
44915W        W16444  38.856  28.667  10.604
44916W        W16445  35.042  35.747   3.587
44917W        W16446  35.000  21.960   2.305
44918W        W16447   9.698  27.419   1.550
44919W        W16448   8.754  24.495  11.593
44920W        W16449  17.855  15.407  12.684
44921W        W16450  16.753  18.037   1.666
44922W        W16451  14.612  26.691   0.913
44923W        W16452   2.419   5.157   0.055
44924W        W16453  35.006   2.503  13.742
44925W        W16454  21.257  32.877   2.755
44926W        W16455  16.543  14.017  14.333
44927W        W16456  41.527  33.872  13.825
44928W        W16457  23.490  24.305   0.890
44929W        W16458   7.024  40.576  11.205
44930W        W16459  24.140  35.379   3.589
44931W        W16460  30.699  41.911  11.045
44932W        W16461  37.349   1.303  13.942
44933W        W16462   5.918  32.103  12.482
44934W        W16463  21.514  32.952   1.751
44935W        W16464  18.782   2.430  14.043
44936W        W16465  37.392  25.735   2.841
44937W        W16466   3.933  20.558  13.285
44938W        W16467  31.664  19.176   3.318
44939W        W16468  18.217  17.465   1.429
44940W        W16469   3.323  15.485  10.787
44941W        W16470  10.350  41.181  12.650
44942W        W16471   5.426  11.280   4.207
44943W        W16472  18.308  44.943  11.371
44944W        W16473  17.396  22.509  14.470
44945W        W16474  44.562  38.412  11.362
44946W        W16475   9.105  39.331   4.639
44947W        W16476  39.304  31.972  12.509
44948W        W16477   5.794  26.253   4.145
44949W        W16478  43.971   1.808  11.543
44950W        W16479  15.896  25.080  13.102
44951W        W16480  40.768  10.006   0.993
44952W        W16481  38.120  19.066  13.518
44953W        W16482   3.639  20.530   4.698
44954W        W16483   2.458  41.508   3.554
44955W        W16484  36.542   0.315  14.466
44956W        W16485   7.321  20.128   0.076
44957W        W16486  39.264  32.089   2.672
44958W        W16487  32.571  15.584   4.100
44959W        W16488  41.923   8.770   5.047
44960W        W16489  26.695  20.993   4.132
44961W        W16490  18.672  24.180  11.596
44962W        W16491  20.126  10.360   2.337
44963W        W16492  40.796  40.837   1.391
44964W        W16493   2.021  31.286  12.235
44965W        W16494  33.402  32.025   3.249
44966W        W16495   3.748  34.243  11.420
44967W        W16496  37.133   5.750   3.205
44968W        W16497  17.261  37.939  12.145
44969W        W16498  41.792  40.171   0.950
44970W        W16499  26.902  37.411   0.770
44971W        W16500  39.112  29.095  10.718
44972W        W16501  32.415  35.968  11.486
44973W        W16502  17.517  27.097   3.461
44974W        W16503  42.310  17.955   0.722
44975W        W16504  18.272   2.446   2.229
44976W        W16505   4.200  40.522  12.533
44977W        W16506   2.833  23.681  13.792
44978W        W16507   5.359  44.838   3.679
44979W        W16508  32.863  41.851   4.319
44980W        W16509  28.254  30.926  11.514
44981W        W16510  42.506  22.184   1.662
44982W        W16511  12.079   2.976  11.446
44983W        W16512  40.414  10.587  13.029
44984W        W16513  33.533  22.304  12.881
44985W        W16514  14.066  28.988   3.632
44986W        W16515  16.670  41.751   1.569
44987W        W16516  34.363   7.442   4.677
44988W        W16517  44.754  31.595  14.882
44989W        W16518  20.550   5.851   0.199
44990W        W16519  32.473  44.731   0.844
44991W        W16520   1.394   4.097   0.148
44992W        W16521   0.293   2.168  12.230
44993W        W16522   4.529  25.000   5.110
44994W        W16523  20.134  43.334  14.246
44995W        W16524  28.449  29.332   2.576
44996W        W16525  23.191  44.033   0.313
44997W        W16526   1.201  32.659   0.904
44998W        W16527  36.968  11.764   0.356
44999W        W16528   1.285   1.784   1.027
45000W        W16529  33.826  20.193   0.770
45001W        W16530  42.974  11.794   2.618
45002W        W16531  35.618   5.024   0.808
45003W        W16532   1.838  24.426  14.003
45004W        W16533  41.325   2.054  13.815
45005W        W16534  19.316  23.966  10.670
45006W        W16535  44.162   8.430  13.880
45007W        W16536  28.531  42.876   4.987
45008W        W16537   1.843  10.265   3.064
45009W        W16538   4.687  31.817  10.531
45010W        W16539  43.239  25.670  13.313
45011W        W16540  27.419  44.149   1.918
45012W        W16541  22.498  20.591  13.952
45013W        W16542  13.143  31.596  14.603
45014W        W16543   7.407  42.543  11.934
45015W        W16544  19.274  16.861  13.102
45016W        W16545  25.183  10.732  14.478
45017W        W16546  27.917   2.589  14.145
45018W        W16547  24.572  43.933   0.425
45019W        W16548  18.175  26.197   3.836
45020W        W16549   1.496  28.470  14.088
45021W        W16550   8.253  36.439   2.113
45022W        W16551   8.286  37.045  12.852
45023W        W16552  19.131  28.098   0.300
45024W        W16553  39.894   9.422   2.127
45025W        W16554  29.777  42.015   1.499
45026W        W16555   4.156   3.290   2.509
45027W        W16556  29.168  17.631  14.510
45028W        W16557   1.456  35.317  11.565
45029W        W16558  13.478  17.165   0.906
45030W        W16559  19.827  36.444  10.537
45031W        W16560   3.822  11.850  13.192
45032W        W16561  20.777  41.186  14.435
45033W        W16562  15.637  37.438   4.079
45034W        W16563  26.994  41.598   4.712
45035W        W16564   4.376  22.533  12.030
45036W        W16565  27.956  20.759  13.852
45037W        W16566  29.980  17.320  14.763
45038W        W16567  36.060   7.605  13.859
45039W        W16568  24.147  17.303   1.230
45040W        W16569  13.886  36.053  10.976
45041W        W16570  20.655   1.469  11.562
45042W        W16571  14.053   2.408   4.641
45043W        W16572   2.191  31.859   2.363
45044W        W16573   1.854   2.926   4.597
45045W        W16574  29.746  39.302   0.698
45046W        W16575   6.082   3.900   2.945
45047W        W16576   4.471  44.855   0.354
45048W        W16577  30.560   2.190  11.984
45049W        W16578  38.554   2.233  11.470
45050W        W16579   2.811  21.989  11.472
45051W        W16580  22.070  11.253   3.395
45052W        W16581  23.978   9.981  12.409
45053W        W16582  24.037  27.983  13.918
45054W        W16583  31.865  26.718   3.202
45055W        W16584  25.923  32.922  12.726
45056W        W16585  26.936  36.330  13.387
45057W        W16586  23.118  29.503   0.028
45058W        W16587  33.301  44.548  14.447
45059W        W16588  10.458   0.419   3.194
45060W        W16589  13.293   5.010  14.060
45061W        W16590   7.137  13.680  13.275
45062W        W16591   6.406  32.252  10.386
45063W        W16592  19.985  28.444  14.255
45064W        W16593   2.381  25.926  11.985
45065W        W16594  25.889   2.224   3.841
45066W        W16595   4.862  18.959   0.549
45067W        W16596  32.494  19.830   2.193
45068W        W16597  11.757   4.437  14.024
45069W        W16598  31.166   2.593  12.482
45070W        W16599  33.799  18.968   4.193
45071W        W16600  32.099  34.133   2.899
45072W        W16601  13.493   3.334   4.710
45073W        W16602  12.012  26.545   0.496
45074W        W16603  30.484  13.088  14.396
45075W        W16604  14.644  25.486  14.052
45076W        W16605   5.356  20.936  11.157
45077W        W16606  12.257  42.702  14.683
45078W        W16607  35.869   8.284  14.364
45079W        W16608   1.378  42.359   3.357
45080W        W16609  15.593  23.744  13.107
45081W        W16610  14.411   7.161  12.875
45082W        W16611  20.760  12.896   3.198
45083W        W16612  23.268  43.835   2.382
45084W        W16613  17.496  27.939   4.256
45085W        W16614   1.769  36.513   1.714
45086W        W16615  12.462  14.527  11.142
45087W        W16616  19.142   9.637  14.499
45088W        W16617  10.839  30.769   2.404
45089W        W16618  33.516   4.175   1.752
45090W        W16619  24.798   5.076   4.876
45091W        W16620   9.843  29.986  12.418
45092W        W16621   7.759  25.140  10.801
45093W        W16622  38.989   9.793   3.408
45094W        W16623  31.709  42.898   3.760
45095W        W16624  10.624  40.143   2.066
45096W        W16625  30.272  24.494  12.439
45097W        W16626   9.060  15.754   0.909
45098W        W16627  22.413   3.356  13.761
45099W        W16628  39.174   6.946  14.736
45100W        W16629  36.526  41.573   1.492
45101W        W16630  30.396  41.208   0.904
45102W        W16631  17.935   0.809   3.077
45103W        W16632  43.639  39.979  13.695
45104W        W16633   9.166  33.975  13.439
45105W        W16634   8.121  14.632  14.124
45106W        W16635   7.191  42.330   4.636
45107W        W16636  43.716  44.258   2.873
45108W        W16637   8.897  17.058   3.483
45109W        W16638  42.905   5.722  12.538
45110W        W16639   2.815  30.329  13.523
45111W        W16640  21.115  32.556   0.756
45112W        W16641  38.943  25.490   2.455
45113W        W16642  44.478  10.763  14.687
45114W        W16643   4.506  34.058  11.975
45115W        W16644  44.770   7.447  10.600
45116W        W16645   5.382   1.809   3.707
45117W        W16646  43.468  18.003   0.280
45118W        W16647  28.040  38.310  14.471
45119W        W16648  14.067  32.976   2.728
45120W        W16649   2.283  44.341   2.777
45121W        W16650  33.683  17.198   3.691
45122W        W16651  23.660   5.941   3.223
45123W        W16652  13.147  42.625  12.399
45124W        W16653   0.972  17.296   4.705
45125W        W16654   9.433  21.244   1.322
45126W        W16655   0.004  32.175  11.648
45127W        W16656  40.918   7.191   0.838
45128W        W16657  44.816  13.225  13.649
45129W        W16658   4.753  19.024   3.212
45130W        W16659  38.515   1.863   1.912
45131W        W16660  15.853   2.803  13.467
45132W        W16661   0.024  24.266   1.696
45133W        W16662  38.014  31.306  14.357
45134W        W16663  34.584   2.519   1.744
45135W        W16664  40.428  35.894   0.443
45136W        W16665  16.596   1.223   0.362
45137W        W16666  33.137  16.322   3.713
45138W        W16667  23.589   3.921  11.194
45139W        W16668  35.861   8.532  10.827
45140W        W16669  20.182  33.385   0.791
45141W        W16670  26.556  11.150  13.240
45142W        W16671   8.043  13.818  13.555
45143W        W16672  28.120  35.991  13.909
45144W        W16673  23.019  18.878   4.741
45145W        W16674  36.108  36.507   4.774
45146W        W16675  15.203  24.048   4.171
45147W        W16676   6.626  13.271   1.905
45148W        W16677  32.422  41.768   4.628
45149W        W16678   6.851   8.972   1.382
45150W        W16679   6.629  18.740   2.246
45151W        W16680  19.058  31.642   1.081
45152W        W16681  34.604   4.306   1.511
45153W        W16682  31.345   5.143  11.659
45154W        W16683  26.295  15.449  10.939
45155W        W16684   9.269  20.946   2.898
45156W        W16685  35.390  16.265  11.605
45157W        W16686  10.200  23.965  11.430
45158W        W16687   5.938  13.658  11.483
45159W        W16688  35.937   7.664   0.435
45160W        W16689  16.576   0.987  13.990
45161W        W16690  22.265  27.628   4.754
45162W        W16691  35.590  14.351   0.475
45163W        W16692  42.235   7.983  11.147
45164W        W16693  27.994  14.930  13.622
45165W        W16694  43.828  14.007  13.941
45166W        W16695  16.650   3.686  10.654
45167W        W16696  38.110   4.220   3.343
45168W        W16697  25.972  30.567  14.104
45169W        W16698   9.974  20.076   1.203
45170W        W16699   0.062  23.173  11.154
45171W        W16700   9.967  33.525   0.332
45172W        W16701   0.758  30.332   2.806
45173W        W16702  13.913  16.387  14.314
45174W        W16703  43.076  33.937  13.363
45175W        W16704   5.884  34.144   0.828
45176W        W16705  19.977  20.726   0.685
45177W        W16706   0.571  44.975   1.129
45178W        W16707   8.113   3.360  14.834
45179W        W16708   8.972   0.311  14.570
45180W        W16709   4.455  34.901   0.545
45181W        W16710  10.452   4.491   3.384
45182W        W16711  35.624   1.843  13.379
45183W        W16712  39.206  16.107  12.110
45184W        W16713  12.823  35.650  14.330
45185W        W16714   7.742  30.436   1.806
45186W        W16715   0.936   4.983  12.686
45187W        W16716  41.422  18.413   3.238
45188W        W16717  36.383   4.237   2.701
45189W        W16718  34.859   8.678   4.171
45190W        W16719  33.943  13.179   3.821
45191W        W16720  17.523  26.910  11.965
45192W        W16721  20.962  18.166  10.763
45193W        W16722  21.565  21.516  13.960
45194W        W16723  13.047  23.651  10.781
45195W        W16724   1.060  27.787  12.074
45196W        W16725  43.629  26.041  13.107
45197W        W16726  25.627  27.880   3.590
45198W        W16727   2.878  38.451  14.728
45199W        W16728  44.874  41.841  13.422
45200W        W16729  16.565   6.002   0.916
45201W        W16730  11.625  29.744  12.387
45202W        W16731  28.978  42.392   3.380
45203W        W16732  19.720  11.685   3.631
45204W        W16733  15.267   0.547   4.621
45205W        W16734  11.187  14.755  12.245
45206W        W16735  34.551  36.509   3.782
45207W        W16736  17.666  30.494  10.583
45208W        W16737  20.778  19.660  11.575
45209W        W16738   6.231   8.950  12.641
45210W        W16739  16.489  29.417   3.368
45211W        W16740  36.964  20.292  11.114
45212W        W16741  18.294  21.138  12.493
45213W        W16742   0.483  43.459  13.879
45214W        W16743  21.969  25.333  13.632
45215W        W16744  17.097  28.532   0.838
45216W        W16745  43.048  41.030  13.099
45217W        W16746   7.759  33.191   1.155
45218W        W16747   2.846  39.033   4.637
45219W        W16748  26.068  13.778   0.904
45220W        W16749   3.836  35.565   0.086
45221W        W16750   9.628  28.984  12.445
45222W        W16751   7.359  19.121   1.005
45223W        W16752  18.578   3.650   0.906
45224W        W16753  18.946  36.105  11.540
45225W        W16754  32.937  30.708  14.419
45226W        W16755  16.928   5.268   3.629
45227W        W16756   6.967   5.590   1.922
45228W        W16757   8.432   8.228  14.463
45229W        W16758   7.381  40.290   0.316
45230W        W16759  43.679  42.860  10.667
45231W        W16760  37.951   7.938  13.040
45232W        W16761  25.976  18.283   2.374
45233W        W16762   3.741  41.280  14.711
45234W        W16763  44.750   8.365   4.358
45235W        W16764  10.264  31.494   3.206
45236W        W16765  13.881  36.457  13.131
45237W        W16766  32.536  20.508   0.472
45238W        W16767  30.156   3.260  13.285
45239W        W16768  38.967  43.879   1.931
45240W        W16769  41.814  38.277   3.236
45241W        W16770   9.854   3.161  12.349
45242W        W16771  10.122  30.151  13.817
45243W        W16772   6.932  10.121   2.941
45244W        W16773  25.594   0.400   3.841
45245W        W16774  21.490   6.600  11.656
45246W        W16775   4.315  12.971  12.097
45247W        W16776  15.034  29.536  14.342
45248W        W16777   4.695  29.660  11.948
45249W        W16778   6.945  44.404  13.528
45250W        W16779  19.299  11.435   4.686
45251W        W16780  36.525   8.235  11.904
45252W        W16781  39.551  18.358  14.856
45253W        W16782  21.373  35.897   3.863
45254W        W16783  19.823   6.289  12.501
45255W        W16784  18.744  24.959   2.327
45256W        W16785  36.276   7.309   1.239
45257W        W16786  24.481  36.817  11.295
45258W        W16787  42.414  26.608  14.985
45259W        W16788   0.800  41.334   1.290
45260W        W16789  22.385   4.640   0.237
45261W        W16790  21.816  31.777  12.941
45262W        W16791  41.416   0.097  14.482
45263W        W16792  39.284  14.725  12.941
45264W        W16793  22.252  35.569  12.419
45265W        W16794  42.725  35.384  11.193
45266W        W16795   7.594   1.225   2.291
45267W        W16796  24.199  36.099   2.338
45268W        W16797  37.124  13.301   2.910
45269W        W16798  26.226  38.618  12.032
45270W        W16799  35.994  26.080   3.915
45271W        W16800  29.562   6.192   4.967
45272W        W16801  39.898  20.460   4.596
45273W        W16802  14.599  22.174  13.942
45274W        W16803  43.863  35.512   4.666
45275W        W16804  26.538  40.375  11.082
45276W        W16805  25.086  37.721   2.240
45277W        W16806  17.800  29.913   3.701
45278W        W16807  20.711   7.934  11.420
45279W        W16808  11.125  23.520   0.634
45280W        W16809  19.665  44.518  14.527
45281W        W16810  44.222  30.900  13.809
45282W        W16811  19.633  42.542  10.573
45283W        W16812   3.394  43.570  12.277
45284W        W16813  44.453   1.458   4.882
45285W        W16814  32.057  25.216   2.303
45286W        W16815  34.892  32.433  14.011
45287W        W16816  10.084  36.409  12.947
45288W        W16817   1.025   1.701  13.903
45289W        W16818  10.674  22.194  11.129
45290W        W16819  39.011   5.244  11.590
45291W        W16820  31.716  43.722  14.418
45292W        W16821   1.950  41.216   1.775
45293W        W16822   2.058  43.272   3.598
45294W        W16823  40.930  10.872  14.440
45295W        W16824  36.118   4.830  14.712
45296W        W16825  44.868  18.058  10.586
45297W        W16826  33.440  16.113   3.340
45298W        W16827  43.673  26.423  12.779
45299W        W16828  22.048  13.346   4.184
45300W        W16829  33.235   3.574  11.858
45301W        W16830  22.751  38.985   2.739
45302W        W16831  14.801  11.167   3.654
45303W        W16832  31.891  23.534   5.517
45304W        W16833   2.744  30.414   1.254
45305W        W16834  39.070   1.042  10.787
45306W        W16835  11.878   5.341  14.003
45307W        W16836  23.586  17.256   1.828
45308W        W16837   7.831  32.287   1.335
45309W        W16838   1.771  14.517   1.344
45310W        W16839  31.420  29.606  13.438
45311W        W16840   7.842  44.502  13.359
45312W        W16841  20.526  21.342   3.719
45313W        W16842   8.455  42.387  11.140
45314W        W16843  44.966   5.193   1.693
45315W        W16844   5.430  17.115   0.951
45316W        W16845   0.471  35.324  14.453
45317W        W16846   1.241   1.345  12.454
45318W        W16847   8.697  39.098  12.051
45319W        W16848   3.388  29.984  11.927
45320W        W16849  11.938  21.083   2.236
45321W        W16850  31.116  20.590   0.415
45322W        W16851   8.478  11.622   3.810
45323W        W16852  43.942  38.306   0.464
45324W        W16853  42.026   8.780   4.554
45325W        W16854  18.809  38.615   3.162
45326W        W16855  24.329  37.936  13.421
45327W        W16856   2.159   2.248  12.947
45328W        W16857  19.268  22.169  14.789
45329W        W16858  19.090  13.447   4.495
45330W        W16859  37.046  18.519  14.826
45331W        W16860  23.935  14.343  10.942
45332W        W16861  18.806  14.383  10.298
45333W        W16862  38.082   5.820  14.876
45334W        W16863  22.411   5.896   3.776
45335W        W16864  29.053  16.213  11.922
45336W        W16865  35.999  19.618   2.583
45337W        W16866  27.095  40.535  12.070
45338W        W16867   8.373   3.289  10.645
45339W        W16868  10.938  43.966  13.397
45340W        W16869  39.781  14.639   2.244
45341W        W16870  16.611  42.912  13.906
45342W        W16871  33.862   4.870  13.571
45343W        W16872  37.322  19.522   2.717
45344W        W16873  11.894  31.133   2.799
45345W        W16874  26.231   1.526   2.332
45346W        W16875  27.043  20.607   4.730
45347W        W16876   2.715   9.064  10.790
45348W        W16877   1.757  37.171  13.341
45349W        W16878  38.433  33.881   0.415
45350W        W16879   0.901  39.837   3.163
45351W        W16880  20.020  16.565  14.270
45352W        W16881  18.775  14.187  10.770
45353W        W16882  22.798   6.618  12.121
45354W        W16883  30.437  13.378  13.146
45355W        W16884  36.924   3.804  13.909
45356W        W16885  33.949   9.378   3.246
45357W        W16886  26.067  41.233  12.418
45358W        W16887  30.163  19.818  14.339
45359W        W16888  32.832   7.410   3.558
45360W        W16889  25.593  36.870   3.626
45361W        W16890   6.211  16.321  11.586
45362W        W16891   8.328  36.071  11.130
45363W        W16892  37.175   7.670  14.388
45364W        W16893   4.133  20.696   4.551
45365W        W16894  18.627  20.237   1.748
45366W        W16895  13.792  29.023  11.442
45367W        W16896  28.367  38.273  12.989
45368W        W16897   5.237   2.198   1.263
45369W        W16898  22.740   5.293  13.169
45370W        W16899  37.419  43.570  12.156
45371W        W16900  44.489  42.040   2.747
45372W        W16901  11.608  15.727  14.367
45373W        W16902  11.056  38.137  12.024
45374W        W16903   4.129  17.510  12.537
45375W        W16904  10.080  15.152  14.910
45376W        W16905  38.730   5.782  13.823
45377W        W16906  17.141  25.528   1.741
45378W        W16907  11.305  17.255  12.124
45379W        W16908  40.620  31.217   0.388
45380W        W16909   4.295  35.927   2.074
45381W        W16910  36.226  33.128   0.659
45382W        W16911  15.257  12.151   0.801
45383W        W16912  14.840  37.324  12.447
45384W        W16913  24.663  13.787   4.606
45385W        W16914  21.190   4.775   0.693
45386W        W16915  31.521  12.877  14.197
45387W        W16916  10.431  30.026   0.778
45388W        W16917  26.059  18.362  12.521
45389W        W16918  21.276  18.871  11.021
45390W        W16919  32.093  11.687   1.281
45391W        W16920   2.844  41.897   4.129
45392W        W16921   2.860  35.662  11.937
45393W        W16922  12.468   4.562  13.608
45394W        W16923  29.902  22.566  12.063
45395W        W16924  28.616  28.100   3.346
45396W        W16925  23.225  22.065   4.671
45397W        W16926  21.423  28.486  12.908
45398W        W16927   8.164  41.836   3.409
45399W        W16928  16.280  23.547   1.772
45400W        W16929  22.884  38.284  10.191
45401W        W16930  28.067  16.737  14.015
45402W        W16931  24.135  36.305   0.499
45403W        W16932   9.335  38.003  11.499
45404W        W16933  41.813  13.736  11.173
45405W        W16934  36.589  24.921  11.906
45406W        W16935  29.304   4.824   2.468
45407W        W16936  35.539  31.832   3.288
45408W        W16937  11.675  31.814  12.874
45409W        W16938  36.469  27.084   2.693
45410W        W16939  40.829   4.753  12.900
45411W        W16940   8.903   9.258   2.411
45412W        W16941  34.050   4.266   2.727
45413W        W16942  19.284  27.717  11.306
45414W        W16943   2.927  30.676  13.873
45415W        W16944   9.617  23.150  12.370
45416W        W16945  15.285  40.456  13.030
45417W        W16946  39.678  11.123   3.158
45418W        W16947  12.028  31.130  13.361
45419W        W16948  20.748  29.155  14.344
45420W        W16949  32.905  28.537  10.186
45421W        W16950   1.753  25.212  14.964
45422W        W16951  23.088  25.685  13.570
45423W        W16952  13.207  41.467   1.715
45424W        W16953  37.536  14.024   2.827
45425W        W16954   6.175  29.133   0.872
45426W        W16955  28.508  23.058   2.442
45427W        W16956  16.326  42.298   3.367
45428W        W16957  39.142  18.009  11.167
45429W        W16958  44.883  44.990   2.667
45430W        W16959  19.566  15.354  11.700
45431W        W16960   0.295   2.941   0.367
45432W        W16961  26.873  14.324  11.531
45433W        W16962  25.731  19.195  12.861
45434W        W16963  34.147  34.961  14.737
45435W        W16964  32.861  37.813   3.614
45436W        W16965  42.017  21.606   0.463
45437W        W16966  28.229  37.066   0.896
45438W        W16967  15.211  29.871  13.150
45439W        W16968   2.371   8.618  14.467
45440W        W16969  33.618  17.220   4.650
45441W        W16970  33.568  35.332   0.289
45442W        W16971  17.071  12.629   3.566
45443W        W16972  21.801  31.708  13.481
45444W        W16973  35.540  37.404  13.549
45445W        W16974  23.530   6.374  12.516
45446W        W16975  11.766   5.280   2.420
45447W        W16976  36.790  30.712  13.931
45448W        W16977  28.410   4.449  11.163
45449W        W16978  30.666   7.030  12.997
45450W        W16979  23.138  18.058  14.351
45451W        W16980  13.410  15.641  10.835
45452W        W16981  34.011  26.191   0.212
45453W        W16982  42.369  26.760  13.085
45454W        W16983   2.498   4.124  10.697
45455W        W16984  12.472   4.947   4.583
45456W        W16985  25.243  25.132  14.251
45457W        W16986  44.876  38.428   1.367
45458W        W16987  41.345   0.949  11.863
45459W        W16988   9.638  41.451  12.783
45460W        W16989  24.474  19.347  11.807
45461W        W16990  16.565  25.629   1.357
45462W        W16991  37.476  41.028  13.739
45463W        W16992  10.202  24.906  10.704
45464W        W16993  41.005   7.802   1.755
45465W        W16994  10.198  21.078  11.694
45466W        W16995  12.263  38.492   0.939
45467W        W16996  23.968  40.820   0.452
45468W        W16997  40.973  22.923   2.336
45469W        W16998  31.693  12.293   1.289
45470W        W16999  31.020  24.551   5.316
45471W        W17000   4.704  19.870  11.651
45472W        W17001  32.434  24.473   1.336
45473W        W17002  19.239   5.905  14.454
45474W        W17003  12.509  25.031  14.321
45475W        W17004  26.638  28.904  11.790
45476W        W17005  15.116  23.551   4.068
45477W        W17006  33.660  20.536   2.141
45478W        W17007   8.354  18.883  13.990
45479W        W17008   8.158   9.132   1.909
45480W        W17009   2.694   8.101  11.595
45481W        W17010   7.298  11.698   3.414
45482W        W17011  24.319   2.054   3.195
45483W        W17012  27.710  29.091   4.807
45484W        W17013  42.510  31.363  14.839
45485W        W17014  40.084  30.002  11.371
45486W        W17015   5.477  27.036  13.516
45487W        W17016  37.476  28.111   3.353
45488W        W17017  24.437  34.465  11.172
45489W        W17018  15.180   4.861  14.294
45490W        W17019   8.009  12.324  10.533
45491W        W17020  41.152   1.807   2.290
45492W        W17021  42.911  37.894  11.125
45493W        W17022  18.609  38.078   1.258
45494W        W17023  35.336  21.146   0.538
45495W        W17024   2.743  28.002   0.878
45496W        W17025  26.089  17.776  12.858
45497W        W17026  39.713  26.023   2.667
45498W        W17027   3.722  10.342   2.823
45499W        W17028  30.139  28.469  10.653
45500W        W17029  23.999  22.213   1.320
45501W        W17030  24.111  21.935   0.848
45502W        W17031  14.379   6.433   4.495
45503W        W17032  21.750  36.613   2.888
45504W        W17033  30.748  26.126   4.264
45505W        W17034   7.386  21.160   3.616
45506W        W17035  16.065  37.845   2.927
45507W        W17036  15.629  36.847   3.758
45508W        W17037  24.468   0.627   0.966
45509W        W17038  30.356  12.666  10.710
45510W        W17039  34.899  44.971  13.999
45511W        W17040   3.426  33.075   2.708
45512W        W17041  32.860  31.602   1.909
45513W        W17042  34.173  15.605   3.272
45514W        W17043  18.575  29.409  11.443
45515W        W17044  37.884   5.286   2.912
45516W        W17045  31.120  42.486   0.451
45517W        W17046  28.573  18.394  10.840
45518W        W17047   9.441  16.175   3.098
45519W        W17048  18.954  16.392  11.046
45520W        W17049  29.299  38.724   0.426
45521W        W17050  29.889  13.984  14.430
45522W        W17051  38.993  12.766  14.431
45523W        W17052  28.622  29.625  14.287
45524W        W17053  43.067  21.757   3.798
45525W        W17054  21.576  36.483   0.818
45526W        W17055  36.976  37.985  14.118
45527W        W17056  31.999  32.468   4.826
45528W        W17057  40.167  36.394   0.494
45529W        W17058  44.088  34.867   0.929
45530W        W17059  36.687  10.063   3.267
45531W        W17060  42.863  30.639   0.715
45532W        W17061  37.447  10.214  11.169
45533W        W17062   2.889  14.279   1.696
45534W        W17063  17.093  26.158  12.499
45535W        W17064   9.363   3.020  12.464
45536W        W17065  15.049  15.580   5.028
45537W        W17066  38.070  32.977   1.878
45538W        W17067  38.936   2.158  13.992
45539W        W17068  15.962   2.663   1.665
45540W        W17069  25.920  35.087   1.744
45541W        W17070   3.415  23.439  10.660
45542W        W17071  20.583  39.419   4.136
45543W        W17072   0.201  36.591  11.950
45544W        W17073  21.812  32.394  12.230
45545W        W17074  44.429   4.871  13.176
45546W        W17075  26.445  44.402   1.695
45547W        W17076  15.164  12.801  11.749
45548W        W17077  29.212  27.433  14.263
45549W        W17078  34.754   5.853   9.656
45550W        W17079  14.791  25.482   0.952
45551W        W17080  30.531  11.580   2.915
45552W        W17081  10.645  39.370   2.410
45553W        W17082  22.279   2.974  10.755
45554W        W17083  27.164   4.191  11.015
45555W        W17084  15.079  30.775   4.112
45556W        W17085  16.479   5.790   4.783
45557W        W17086  20.297   0.824   4.883
45558W        W17087   7.000   1.564  11.674
45559W        W17088  15.658   7.031  13.548
45560W        W17089  17.559  13.818  11.880
45561W        W17090  26.454   3.109   0.687
45562W        W17091  12.853  26.724  13.796
45563W        W17092  43.398  15.870  10.639
45564W        W17093  30.141   7.196   1.065
45565W        W17094  20.800  24.166  14.782
45566W        W17095   9.416  22.641  10.810
45567W        W17096  38.345   4.004   2.772
45568W        W17097  40.174  37.854  13.340
45569W        W17098  33.665  39.552   2.662
45570W        W17099  23.153  44.419   3.214
45571W        W17100  37.924   1.657   2.601
45572W        W17101  23.122  41.021   2.892
45573W        W17102  25.955  41.673   2.780
45574W        W17103   6.952   8.944   4.468
45575W        W17104   3.723  20.453  12.396
45576W        W17105  40.939  11.405  14.327
45577W        W17106  15.021   7.360   5.132
45578W        W17107  19.086   9.200  14.201
45579W        W17108  35.339  40.450   1.349
45580W        W17109  27.243   7.269  13.088
45581W        W17110   3.906  21.705   4.173
45582W        W17111  21.617  15.534   4.639
45583W        W17112  22.568  40.813  13.018
45584W        W17113  43.742   0.462  11.710
45585W        W17114  15.816   4.497   3.535
45586W        W17115   7.939  15.213   3.140
45587W        W17116  18.635   7.391   4.713
45588W        W17117  16.033  36.399   2.688
45589W        W17118  17.676   2.451  12.913
45590W        W17119  16.830  16.207   0.078
45591W        W17120  16.974   4.969   3.214
45592W        W17121  40.000  33.694  10.950
45593W        W17122   9.138   1.501   2.281
45594W        W17123  34.331   9.253   0.361
45595W        W17124  28.407  44.027  13.831
45596W        W17125  28.675  16.240  14.506
45597W        W17126   5.067  23.680  12.985
45598W        W17127  22.022   9.722  12.408
45599W        W17128  23.458  24.640   1.962
45600W        W17129  44.343  18.712  13.864
45601W        W17130  13.931  33.034  10.670
45602W        W17131   3.262  24.611  13.979
45603W        W17132  24.927  23.237  11.919
45604W        W17133  25.083  15.685   4.668
45605W        W17134  40.912   3.819   3.148
45606W        W17135  36.395  34.448  12.535
45607W        W17136  34.927  21.057   1.984
45608W        W17137  17.794  23.513  14.167
45609W        W17138  38.415  17.083   2.225
45610W        W17139  38.455  21.521  12.468
45611W        W17140  30.015  26.032  11.086
45612W        W17141  20.287  34.685   0.449
45613W        W17142  38.209  20.230   4.388
45614W        W17143  11.065  17.169   2.734
45615W        W17144  13.296   6.853   3.161
45616W        W17145   9.105  18.868   4.199
45617W        W17146  12.102  44.529   0.978
45618W        W17147  19.680  31.290   2.132
45619W        W17148  28.636  35.493   1.427
45620W        W17149  32.883  38.558  14.686
45621W        W17150  19.161  13.318  14.329
45622W        W17151  21.017   7.602  11.700
45623W        W17152  34.875   6.065   4.769
45624W        W17153  17.722  22.234  10.821
45625W        W17154  15.668  10.705  11.144
45626W        W17155  25.689  16.595  14.868
45627W        W17156  24.730   2.944  13.389
45628W        W17157  12.139  15.722  14.386
45629W        W17158   0.818  41.915  11.854
45630W        W17159  10.395  13.354  12.361
45631W        W17160  35.068  41.795  12.460
45632W        W17161  21.443  29.635  11.663
45633W        W17162  23.933   1.716  12.911
45634W        W17163  22.426  43.921   0.937
45635W        W17164  11.059  17.506  14.338
45636W        W17165  36.261  17.178  11.557
45637W        W17166  42.419  39.522   0.468
45638W        W17167  12.162  14.876   0.337
45639W        W17168  41.734  21.074  14.549
45640W        W17169  10.223   7.775  10.617
45641W        W17170  32.973  40.605   0.173
45642W        W17171  43.781  30.838  12.040
45643W        W17172   4.879   2.121   1.679
45644W        W17173  37.837  31.386  11.857
45645W        W17174   9.266  32.212  12.493
45646W        W17175   9.784  15.229   0.895
45647W        W17176  24.166  35.591   2.255
45648W        W17177  28.554  22.951   3.672
45649W        W17178   9.128  42.530   2.278
45650W        W17179   6.905  36.888   3.338
45651W        W17180  41.064   4.784  14.890
45652W        W17181   8.373  39.451  11.475
45653W        W17182  19.089  27.434   4.578
45654W        W17183  22.183   7.009   4.619
45655W        W17184  13.075  29.174   1.703
45656W        W17185   5.511  38.624  12.615
45657W        W17186  40.762  27.769   2.749
45658W        W17187  10.399  31.847   5.289
45659W        W17188  21.062  21.216  13.788
45660W        W17189  22.118  41.558  11.572
45661W        W17190   6.281  25.062  14.851
45662W        W17191  10.120  43.646   4.509
45663W        W17192  44.287  40.630  12.875
45664W        W17193  32.089  25.147  13.287
45665W        W17194  35.658  37.071  13.926
45666W        W17195  44.081  39.528  14.821
45667W        W17196  17.251   3.965   3.201
45668W        W17197   7.730  44.045   2.884
45669W        W17198  41.375   3.193  13.553
45670W        W17199  40.340  44.770   0.770
45671W        W17200  22.710  30.840  14.051
45672W        W17201   2.445   8.417  14.959
45673W        W17202  28.720  21.581  12.571
45674W        W17203  24.682  35.111   4.585
45675W        W17204   7.674   4.565   3.095
45676W        W17205  10.928   0.331  14.166
45677W        W17206  12.559  34.343  14.784
45678W        W17207   7.134  33.383   4.084
45679W        W17208  25.470  23.621   3.926
45680W        W17209  26.245  18.953  11.458
45681W        W17210   5.895  25.739   4.148
45682W        W17211   5.762  36.504   3.245
45683W        W17212  10.453  21.748   1.100
45684W        W17213  36.097  40.216  13.499
45685W        W17214  21.985  14.077  14.770
45686W        W17215  36.752  44.779   3.197
45687W        W17216  37.421  41.098   0.345
45688W        W17217  35.080  42.776  13.283
45689W        W17218  36.944  26.052   2.217
45690W        W17219  23.980   6.331  11.075
45691W        W17220  44.948  33.855  13.069
45692W        W17221  16.150  37.451   4.139
45693W        W17222  16.619  34.111   3.798
45694W        W17223  21.837  14.090  13.859
45695W        W17224  38.584  16.105  11.213
45696W        W17225  37.099  17.993   4.184
45697W        W17226  19.655  28.842  11.490
45698W        W17227  19.093  18.275  12.456
45699W        W17228  10.350  34.949   0.831
45700W        W17229  19.612  28.592  13.951
45701W        W17230   2.431   0.241  11.867
45702W        W17231   8.543  39.151   4.116
45703W        W17232  22.552  16.490   1.442
45704W        W17233  38.560  29.287  12.026
45705W        W17234  14.066  22.632   4.711
45706W        W17235   0.251  22.346   3.438
45707W        W17236  20.645   3.583  14.866
45708W        W17237  25.224  43.203  11.782
45709W        W17238  33.282   1.675  14.135
45710W        W17239  12.186  18.176  10.814
45711W        W17240  15.096  32.944  11.551
45712W        W17241  35.813   4.208   0.440
45713W        W17242  43.968  20.095  13.122
45714W        W17243  26.532  38.438   2.385
45715W        W17244  25.105   2.240  13.823
45716W        W17245  43.074  27.826   2.809
45717W        W17246  24.369   7.156  11.008
45718W        W17247  18.537  25.657   0.798
45719W        W17248  24.384  22.028  14.000
45720W        W17249  27.087  40.928  10.704
45721W        W17250  39.972   0.995  11.148
45722W        W17251  29.963  10.219  13.543
45723W        W17252  41.401   1.554  13.853
45724W        W17253  22.032  18.874  12.132
45725W        W17254   5.582  16.161  14.456
45726W        W17255  25.774   7.720   3.631
45727W        W17256  36.050  31.501  11.696
45728W        W17257  15.402   9.299  11.418
45729W        W17258   8.644  11.796   5.193
45730W        W17259   4.220  42.040  12.474
45731W        W17260   5.088   4.816  11.608
45732W        W17261  33.395  35.588  14.823
45733W        W17262   0.402  22.668  13.933
45734W        W17263  35.661  38.382  13.528
45735W        W17264   5.856  27.522  13.086
45736W        W17265  10.781  40.816   1.252
45737W        W17266  16.410   1.658  14.964
45738W        W17267   6.819   3.654   4.616
45739W        W17268  17.847  10.362   1.130
45740W        W17269   0.345  11.585   4.649
45741W        W17270  25.264  17.719  13.944
45742W        W17271   6.648  37.417   2.698
45743W        W17272   9.156  27.055  14.297
45744W        W17273   3.500   9.093  12.009
45745W        W17274  31.995  19.305  14.192
45746W        W17275  33.086  25.420  14.927
45747W        W17276   5.456  40.291  13.000
45748W        W17277  26.500  14.539   0.900
45749W        W17278  12.277   9.918   1.537
45750W        W17279  33.135  33.889  14.343
45751W        W17280  10.249  34.484   3.637
45752W        W17281  40.568   4.745   2.236
45753W        W17282  22.767  33.987   2.374
45754W        W17283  11.659   5.383  12.856
45755W        W17284   4.729  24.119   0.452
45756W        W17285   1.553  31.795  13.392
45757W        W17286  31.345  18.710  11.712
45758W        W17287   5.338   8.244  13.483
45759W        W17288  34.517  30.412  14.353
45760W        W17289  40.881  35.518   1.838
45761W        W17290  25.021  36.500  14.414
45762W        W17291   7.026  32.894   1.853
45763W        W17292  18.695  29.881   2.610
45764W        W17293   0.988   4.796   5.423
45765W        W17294  19.492  43.359  14.437
45766W        W17295  17.168  31.087  11.596
45767W        W17296  26.034   3.441   0.669
45768W        W17297  41.256  13.240   3.991
45769W        W17298   8.680   6.809  12.339
45770W        W17299  42.276  44.311  11.053
45771W        W17300  26.206  44.478  13.385
45772W        W17301  40.563  19.110   0.411
45773W        W17302  37.839   2.744   1.346
45774W        W17303  32.056  25.909   3.598
45775W        W17304  14.642   3.382  13.926
45776W        W17305  41.262   9.064  14.419
45777W        W17306   0.376  43.178  13.447
45778W        W17307  27.401  12.172   4.036
45779W        W17308   3.379  12.162  10.728
45780W        W17309   7.297  25.549  14.608
45781W        W17310  14.680  23.050  14.390
45782W        W17311   3.085  33.979   0.915
45783W        W17312  17.737  21.796  10.550
45784W        W17313  40.367   0.741   4.026
45785W        W17314  11.246  26.986   3.531
45786W        W17315  15.897   9.649  12.403
45787W        W17316  13.364  39.336   1.918
45788W        W17317   2.875  17.231  11.912
45789W        W17318  28.397  25.267   2.173
45790W        W17319  27.861  44.163   0.295
45791W        W17320  19.625  37.452  10.689
45792W        W17321  40.026  27.563  10.647
45793W        W17322  34.189   5.800  14.523
45794W        W17323  31.565  41.503  14.024
45795W        W17324  10.871   8.202  10.732
45796W        W17325  14.431  35.953  13.803
45797W        W17326  23.695  18.323  11.032
45798W        W17327   1.431  12.615  14.968
45799W        W17328  39.041  15.015   9.853
45800W        W17329  21.698  36.615   2.371
45801W        W17330  23.507  15.802   1.867
45802W        W17331  22.545  12.256  14.764
45803W        W17332  11.675  44.189  12.027
45804W        W17333  13.206  16.622  12.090
45805W        W17334  28.809  13.687  12.106
45806W        W17335  31.576  16.309  13.435
45807W        W17336   2.863   6.239  14.340
45808W        W17337   5.677  13.249  13.909
45809W        W17338   0.314  18.281  11.072
45810W        W17339  43.570  21.598  13.447
45811W        W17340  11.837  21.859   0.744
45812W        W17341  29.400  29.505  13.384
45813W        W17342  42.803  43.853  11.181
45814W        W17343  25.226   9.742   3.769
45815W        W17344  23.697  21.310  10.690
45816W        W17345  15.264   3.957   4.808
45817W        W17346  40.001  30.836  13.260
45818W        W17347   1.297   5.142   4.075
45819W        W17348   2.160  29.063  10.276
45820W        W17349  32.612  14.496   5.052
45821W        W17350  18.000  29.581   2.080
45822W        W17351  25.615  34.315   2.273
45823W        W17352  37.658  43.033   5.195
45824W        W17353  30.242   2.489  13.937
45825W        W17354  26.695  21.107   3.628
45826W        W17355   2.766  16.256  12.906
45827W        W17356   2.832  22.906  11.275
45828W        W17357  10.428  44.048   0.233
45829W        W17358  10.616  33.288  13.933
45830W        W17359  37.104  22.809   1.343
45831W        W17360  10.764  32.770   3.865
45832W        W17361  30.408  32.474   0.745
45833W        W17362  11.272  18.019  13.777
45834W        W17363   9.104  14.125   2.292
45835W        W17364   9.865  35.481   3.378
45836W        W17365   8.402   8.426   4.013
45837W        W17366  10.897   5.259  13.985
45838W        W17367  30.280  16.823   0.961
45839W        W17368   5.946  20.142  12.519
45840W        W17369   7.233  23.755   2.218
45841W        W17370  10.886   8.554   5.000
45842W        W17371   1.693  21.543   3.563
45843W        W17372  29.515  23.339   3.028
45844W        W17373   7.185  43.352  13.206
45845W        W17374  18.830  28.857  11.805
45846W        W17375   4.283   1.236  12.518
45847W        W17376  17.748  28.955   2.772
45848W        W17377  29.833   5.850   2.322
45849W        W17378  38.737   9.905  11.899
45850W        W17379   7.886   7.039   5.008
45851W        W17380  31.915   0.017  10.585
45852W        W17381  31.572   8.197  11.448
45853W        W17382   6.454  26.924   3.592
45854W        W17383  38.124  32.438   3.836
45855W        W17384  36.142  24.751  12.121
45856W        W17385  43.033  44.022   0.449
45857W        W17386  37.475  25.046   1.636
45858W        W17387  26.545  24.120  14.775
45859W        W17388  44.837  38.304  14.289
45860W        W17389   0.424  33.142  13.385
45861W        W17390   2.677  17.337  14.300
45862W        W17391   5.604   8.788   3.160
45863W        W17392   2.903  28.494   0.790
45864W        W17393  18.087  18.391   2.232
45865W        W17394  27.754  10.848  11.049
45866W        W17395   3.367  25.748   0.779
45867W        W17396  25.981  24.657   3.306
45868W        W17397  35.892  24.456  14.200
45869W        W17398  32.582  14.267   2.188
45870W        W17399  36.079  28.536   2.782
45871W        W17400  34.431  32.184  13.957
45872W        W17401  41.154  21.953  11.676
45873W        W17402   0.826   1.350   2.216
45874W        W17403  40.501  30.043  14.300
45875W        W17404   2.702  12.081  14.339
45876W        W17405  31.553  30.125  11.114
45877W        W17406   8.606  16.510  11.480
45878W        W17407  10.654   9.085  13.804
45879W        W17408   8.144  44.356  12.948
45880W        W17409   6.794  16.194  11.768
45881W        W17410   4.063  40.346  13.860
45882W        W17411  10.594  22.171   2.815
45883W        W17412  44.900  34.912  13.419
45884W        W17413  34.344  37.641   5.001
45885W        W17414  41.714  14.606  14.019
45886W        W17415  19.301  26.491   4.942
45887W        W17416   9.246  29.993  11.694
45888W        W17417  40.863  26.138  10.766
45889W        W17418   6.736  37.450  13.296
45890W        W17419  20.128   7.874   4.629
45891W        W17420  37.409  17.233  10.601
45892W        W17421  17.294  37.482   0.471
45893W        W17422  43.901  32.189  10.940
45894W        W17423  28.589  29.066   0.660
45895W        W17424  42.925  26.183  13.613
45896W        W17425  27.713  37.046   0.999
45897W        W17426  43.445  12.073   4.830
45898W        W17427  23.069   0.791   0.713
45899W        W17428  37.570  32.020  11.174
45900W        W17429  24.512  12.714  12.545
45901W        W17430  39.248  44.302  11.569
45902W        W17431   9.212  31.482   0.965
45903W        W17432  15.377  37.153   2.439
45904W        W17433  38.101  16.213  11.497
45905W        W17434  31.516  42.164  14.991
45906W        W17435   5.386   0.695  12.897
45907W        W17436  44.657  36.772   5.011
45908W        W17437  25.415  33.030   3.225
45909W        W17438  36.966  14.798  14.368
45910W        W17439  44.392  35.812   3.646
45911W        W17440  19.052  13.564  13.868
45912W        W17441  29.406   4.568   4.635
45913W        W17442  10.942  24.545   1.394
45914W        W17443  25.064   8.135   2.698
45915W        W17444   1.469   4.495   0.543
45916W        W17445  12.704  38.835  10.471
45917W        W17446   8.891   3.396  14.107
45918W        W17447   5.595  29.033   2.149
45919W        W17448  28.922  10.167  10.271
45920W        W17449  12.810   1.265   2.769
45921W        W17450  41.019   5.398  14.114
45922W        W17451  30.636   6.297  13.820
45923W        W17452   3.249  26.506   3.237
45924W        W17453  39.568  44.960  10.505
45925W        W17454  12.632   4.489   0.216
45926W        W17455   7.194  14.857   3.364
45927W        W17456  34.493  41.067  13.558
45928W        W17457   1.528  39.429   0.313
45929W        W17458  41.984  27.648   2.378
45930W        W17459  22.710  44.041   0.495
45931W        W17460   9.079   0.159   1.355
45932W        W17461  32.089  11.607  13.928
45933W        W17462  17.040  21.482   0.474
45934W        W17463  44.406   0.437  10.418
45935W        W17464  10.428  43.808   4.915
45936W        W17465   8.335  17.155  12.010
45937W        W17466   2.958  43.818  12.420
45938W        W17467  20.083  17.431  10.381
45939W        W17468  22.778  20.195  12.530
45940W        W17469  25.819  32.561   2.328
45941W        W17470  25.992  36.034  13.600
45942W        W17471  16.951  10.185   4.691
45943W        W17472  37.494  43.007  12.331
45944W        W17473  30.670  40.971  12.478
45945W        W17474  17.038  41.037  14.893
45946W        W17475  21.514  35.527   2.221
45947W        W17476  40.280  36.498  11.966
45948W        W17477   9.445  19.180  11.128
45949W        W17478  38.884  16.289   0.370
45950W        W17479   7.439  41.559  11.892
45951W        W17480   5.934   6.478  13.382
45952W        W17481   8.174  26.141   1.344
45953W        W17482   2.965  36.033   1.134
45954W        W17483   7.165  16.385   4.718
45955W        W17484  30.980  39.808  13.496
45956W        W17485  21.755  29.360  11.984
45957W        W17486  20.033  43.441   4.095
45958W        W17487  21.744   3.762   3.417
45959W        W17488   1.940   6.570   1.785
45960W        W17489  36.742  14.066  13.963
45961W        W17490  36.329  25.151  14.005
45962W        W17491  32.517  42.787  10.538
45963W        W17492  28.415  24.905   1.790
45964W        W17493  24.753  15.754  13.477
45965W        W17494  43.306   0.429   2.688
45966W        W17495   6.812  40.906  13.879
45967W        W17496  22.080  34.825   0.948
45968W        W17497  23.873   4.930  11.227
45969W        W17498  18.005  37.191  11.152
45970W        W17499  35.009  26.427  14.326
45971W        W17500   1.870   2.983   3.085
45972W        W17501  25.139  44.499   4.544
45973W        W17502   4.486  32.926   3.982
45974W        W17503   4.260   7.424   1.509
45975W        W17504  11.393  32.125  11.107
45976W        W17505  18.697  10.714  13.871
45977W        W17506  23.919  39.818  14.439
45978W        W17507  44.915  23.144   4.036
45979W        W17508  43.471  12.095   0.454
45980W        W17509  39.457  10.306  11.626
45981W        W17510  39.101  32.043  13.004
45982W        W17511  22.683  26.177  10.624
45983W        W17512   6.002  26.020   3.721
45984W        W17513  40.136  36.028   0.873
45985W        W17514   7.166  35.062  13.317
45986W        W17515  10.246  28.562   0.211
45987W        W17516  10.870   6.829  14.390
45988W        W17517  24.425  44.803  13.946
45989W        W17518  27.150  11.782   2.657
45990W        W17519  21.585  18.301  14.976
45991W        W17520   0.677  18.338   0.915
45992W        W17521  37.059  12.586  14.358
45993W        W17522  12.745  13.209  10.828
45994W        W17523  36.561  28.687   3.243
45995W        W17524  24.945  20.386   3.271
45996W        W17525  14.102   4.918   0.931
45997W        W17526  17.328  17.238  14.335
45998W        W17527  24.295  29.609   3.618
45999W        W17528   4.894   4.342  11.017
46000W        W17529  26.689  14.634  11.171
46001W        W17530  42.040  30.779   1.188
46002W        W17531  29.037  10.722  11.160
46003W        W17532  21.835  23.505  11.086
46004W        W17533  30.986  22.268   4.153
46005W        W17534  44.694   2.423  10.615
46006W        W17535  22.292  31.634  13.561
46007W        W17536   3.213  15.030  10.571
46008W        W17537   5.065  28.989  14.380
46009W        W17538  26.064  33.977  14.894
46010W        W17539  22.247   6.671   1.882
46011W        W17540  35.960  40.968  13.823
46012W        W17541  33.357   2.810   0.466
46013W        W17542  24.105  18.725   2.415
46014W        W17543   4.451  25.269   0.934
46015W        W17544  39.889  37.499   0.936
46016W        W17545  30.071  40.877   1.794
46017W        W17546   0.544  26.157  11.896
46018W        W17547  29.715   0.940   3.191
46019W        W17548  34.153  15.198   2.617
46020W        W17549  14.163  44.980   4.117
46021W        W17550  23.220  27.895   4.447
46022W        W17551  41.258  34.848  11.964
46023W        W17552  38.916  32.697  13.971
46024W        W17553  37.815   1.159   2.780
46025W        W17554  31.886  25.520   3.932
46026W        W17555  18.167   2.263  10.828
46027W        W17556   2.239  21.079   0.684
46028W        W17557  18.142   1.211  14.210
46029W        W17558  21.047  43.247  10.744
46030W        W17559   1.050  17.144   1.995
46031W        W17560  33.151  34.374   2.081
46032W        W17561   1.493  12.755   0.791
46033W        W17562  11.120   3.985  11.195
46034W        W17563  27.331  32.488  12.342
46035W        W17564   1.396   5.927   2.215
46036W        W17565  19.078  38.084   0.815
46037W        W17566  27.727  34.471  13.470
46038W        W17567   3.863  18.815   0.272
46039W        W17568  25.063  29.006   3.162
46040W        W17569  36.840   2.934   2.619
46041W        W17570  13.982  41.080   4.603
46042W        W17571  30.973  41.034  14.321
46043W        W17572  30.386   7.344   3.779
46044W        W17573   5.994  26.065  12.462
46045W        W17574  41.858  20.992  13.119
46046W        W17575  15.124  23.544  11.040
46047W        W17576  29.185   0.267  10.728
46048W        W17577  37.791  40.565   1.205
46049W        W17578  13.813  37.424  13.215
46050W        W17579   9.376  13.178   0.962
46051W        W17580  31.478  32.844   4.501
46052W        W17581  38.559  18.773  12.968
46053W        W17582  24.323   0.950   0.599
46054W        W17583  43.309  12.477  12.737
46055W        W17584  17.969  25.027   4.611
46056W        W17585  43.489  37.335   2.293
46057W        W17586  29.628   7.284   0.896
46058W        W17587  11.791  21.054   1.725
46059W        W17588  32.605  20.311  11.775
46060W        W17589   4.701  30.082  10.607
46061W        W17590  29.548   4.960   0.343
46062W        W17591  19.810  38.700  14.249
46063W        W17592  27.587  30.963   3.324
46064W        W17593  13.722  14.427   3.927
46065W        W17594  39.926  10.535  14.342
46066W        W17595  19.536  25.978   2.706
46067W        W17596  25.195  39.915   2.700
46068W        W17597   5.881  27.475  14.426
46069W        W17598  13.103  37.712  13.987
46070W        W17599  19.175  35.185   0.939
46071W        W17600  32.435  14.596   0.350
46072W        W17601   6.928   7.398   4.393
46073W        W17602  28.077  19.689  12.882
46074W        W17603  17.536   9.938   1.914
46075W        W17604   7.822  39.537  12.490
46076W        W17605  21.380   0.246   4.202
46077W        W17606  30.652  30.866   2.614
46078W        W17607   5.155  20.443  12.414
46079W        W17608  27.068  39.989  13.018
46080W        W17609   3.568  31.716   1.859
46081W        W17610   9.749   0.899   0.043
46082W        W17611  21.370  28.971   2.866
46083W        W17612  11.589  32.422   2.626
46084W        W17613  41.045   7.885   0.246
46085W        W17614  13.949  14.536  10.388
46086W        W17615  16.696  35.794   2.238
46087W        W17616  26.997  13.231  12.058
46088W        W17617  13.164  43.288   2.789
46089W        W17618  26.270  17.991  11.198
46090W        W17619   9.321  32.066  14.721
46091W        W17620  38.969  33.923  13.376
46092W        W17621  11.806  20.127  11.519
46093W        W17622  21.155   9.727   4.857
46094W        W17623   5.761  21.035  14.516
46095W        W17624  31.277  38.948   5.103
46096W        W17625  38.981  12.098   0.386
46097W        W17626  29.597   7.848   3.589
46098W        W17627  12.087  21.194   2.757
46099W        W17628  10.193  29.720   3.663
46100W        W17629  39.445  37.031   0.288
46101W        W17630  24.304   1.437   4.754
46102W        W17631  13.342  41.377  13.766
46103W        W17632  43.513  12.723   2.323
46104W        W17633  28.726  19.046   0.442
46105W        W17634  39.559   7.460  14.006
46106W        W17635  22.493   0.383   4.404
46107W        W17636   7.918  15.670  11.483
46108W        W17637  37.116  16.385  12.476
46109W        W17638   7.594  19.262  10.730
46110W        W17639   3.539  40.394   0.367
46111W        W17640   0.293  25.075   2.889
46112W        W17641  39.304  30.160   0.712
46113W        W17642  25.682  30.506  12.404
46114W        W17643  10.922  28.816   4.018
46115W        W17644  24.499  18.611   3.793
46116W        W17645  21.201  35.905   2.775
46117W        W17646  32.909  23.457  11.530
46118W        W17647  40.589  44.030   0.365
46119W        W17648  10.850  43.521  10.694
46120W        W17649  19.663  21.045   2.401
46121W        W17650  12.613  14.028  11.156
46122W        W17651  30.546   4.006  14.545
46123W        W17652  18.662  24.740  13.148
46124W        W17653   1.489  11.183  10.877
46125W        W17654  22.756  31.912  11.400
46126W        W17655   8.297  11.626  14.431
46127W        W17656  16.013   8.764  14.261
46128W        W17657   2.068  15.899  10.188
46129W        W17658   2.298  35.662   3.587
46130W        W17659  23.488  42.786  12.518
46131W        W17660  24.244   4.176   0.706
46132W        W17661  43.769  40.280   3.206
46133W        W17662  10.787  37.788  10.626
46134W        W17663  44.451  41.711   1.072
46135W        W17664  15.280  19.593   0.886
46136W        W17665  26.184   6.482   0.867
46137W        W17666   2.536  15.774   2.759
46138W        W17667   1.341  41.320  11.611
46139W        W17668   9.745   4.878  14.136
46140W        W17669  44.892  38.862  12.087
46141W        W17670  31.677  14.249   1.996
46142W        W17671  25.179  32.368  14.767
46143W        W17672  40.007  36.471  11.505
46144W        W17673   6.950  36.065   1.831
46145W        W17674  18.383  22.110   2.907
46146W        W17675   4.031  40.601   2.551
46147W        W17676   7.120  13.982  12.059
46148W        W17677   9.080  14.282   0.510
46149W        W17678  26.275   0.979  12.044
46150W        W17679  33.661  31.940   0.762
46151W        W17680   3.831  26.410   2.505
46152W        W17681  33.352  33.960   2.867
46153W        W17682  13.102   1.953  10.891
46154W        W17683   6.751  40.593   2.901
46155W        W17684  29.381  17.747   0.916
46156W        W17685   8.304  39.744   9.863
46157W        W17686  25.458  25.519  12.568
46158W        W17687   6.173  10.261   3.532
46159W        W17688  31.678  26.070  13.494
46160W        W17689  28.249  40.318   3.684
46161W        W17690  26.947  27.701   2.297
46162W        W17691  40.118  33.015  12.188
46163W        W17692  25.493  33.788  10.940
46164W        W17693  28.738  42.850   3.789
46165W        W17694  22.178  25.177   1.707
46166W        W17695  13.812  18.578   1.005
46167W        W17696  32.576  31.533   4.166
46168W        W17697  24.775  15.105  14.669
46169W        W17698  15.814  25.016  11.303
46170W        W17699  24.515  33.535   1.932
46171W        W17700  20.163  17.716  14.226
46172W        W17701  21.432  14.868   0.713
46173W        W17702   8.942  15.794   2.820
46174W        W17703  37.040  10.093  14.295
46175W        W17704  29.087  35.119  13.404
46176W        W17705  10.841  41.325  12.569
46177W        W17706  22.607  34.761  14.605
46178W        W17707  13.101  41.088  12.413
46179W        W17708  19.055   5.562   0.713
46180W        W17709   8.569  38.803  14.424
46181W        W17710  23.258  43.025  14.344
46182W        W17711  36.156  42.751  14.793
46183W        W17712  33.963   5.934   3.829
46184W        W17713  31.154  22.273   0.875
46185W        W17714   8.509  26.812  10.180
46186W        W17715  32.161  29.212  13.407
46187W        W17716  35.407   0.484   4.301
46188W        W17717  10.173  12.352   4.839
46189W        W17718  16.276  25.691  11.599
46190W        W17719  40.904   6.005  14.838
46191W        W17720  11.767  31.674   4.045
46192W        W17721   8.373  14.659   0.146
46193W        W17722   2.979  23.226   3.752
46194W        W17723  25.471   9.064   2.491
46195W        W17724  44.379  30.966   2.653
46196W        W17725  18.346  30.273   4.445
46197W        W17726   8.354  38.839  12.361
46198W        W17727  20.598  26.553  11.994
46199W        W17728  16.735  37.877   4.639
46200W        W17729  39.904  13.691   4.216
46201W        W17730   2.921   5.225  11.900
46202W        W17731  17.122  40.551  11.678
46203W        W17732  13.763  27.703   2.915
46204W        W17733  13.391  27.545  12.176
46205W        W17734  39.874  29.674  12.161
46206W        W17735  32.126  13.013  14.964
46207W        W17736   0.447  16.619   3.724
46208W        W17737  16.788   6.413  14.540
46209W        W17738   1.908   4.400  13.806
46210W        W17739  31.185  34.728   4.436
46211W        W17740  29.001  30.647  14.948
46212W        W17741   4.901   0.987  11.628
46213W        W17742  34.222  24.274  12.521
46214W        W17743   8.828  22.104  13.676
46215W        W17744  26.101  20.726   3.804
46216W        W17745  19.463   8.341  12.657
46217W        W17746   1.877  38.571  11.679
46218W        W17747  35.413   8.875  10.889
46219W        W17748  12.643  10.171   4.131
46220W        W17749  13.997  44.978   3.627
46221W        W17750  18.378  18.379  11.066
46222W        W17751  22.110   9.449   3.754
46223W        W17752  42.801  24.529   3.754
46224W        W17753  30.650  29.872  14.492
46225W        W17754  38.906   2.253  10.450
46226W        W17755  31.399  32.840   0.953
46227W        W17756  20.016  44.170  14.484
46228W        W17757  31.769  24.109   0.717
46229W        W17758   1.757  23.062  14.004
46230W        W17759  44.272  12.092   2.109
46231W        W17760  33.317  10.666  11.170
46232W        W17761  11.691  35.586   1.827
46233W        W17762  40.822  40.336   2.816
46234W        W17763   1.967  42.881  12.153
46235W        W17764  10.613  42.465  10.864
46236W        W17765   8.347  26.986  10.664
46237W        W17766  34.659  24.229   0.775
46238W        W17767  27.701  33.220   1.678
46239W        W17768  18.424  15.125   3.937
46240W        W17769   9.861  26.980  11.616
46241W        W17770   3.951   1.745  10.759
46242W        W17771  43.768  25.669   1.280
46243W        W17772  21.389  23.113   4.965
46244W        W17773  38.858  37.993  11.339
46245W        W17774  40.975  42.795  12.482
46246W        W17775  37.593  14.550   0.758
46247W        W17776  42.878  19.776   2.319
46248W        W17777  34.047   7.669  10.534
46249W        W17778   9.916  35.518   1.931
46250W        W17779  40.771  27.550  13.386
46251W        W17780  20.741  26.628   4.943
46252W        W17781  27.562  41.425  11.269
46253W        W17782  22.358   6.857   3.702
46254W        W17783  41.755  27.424   1.955
46255W        W17784  36.583  11.353  14.644
46256W        W17785  32.628  10.301  13.844
46257W        W17786  34.456  13.128   3.241
46258W        W17787  11.174  12.616   2.777
46259W        W17788  21.937  43.440  11.922
46260W        W17789   8.350  42.838   1.332
46261W        W17790  24.949   9.333  13.864
46262W        W17791  44.696  36.489  12.013
46263W        W17792  43.597  42.516  11.980
46264W        W17793  42.127   3.924  14.621
46265W        W17794  37.381   5.146  11.528
46266W        W17795  30.030  10.276  10.489
46267W        W17796  29.603   2.172  12.369
46268W        W17797  42.712  44.156   4.196
46269W        W17798  16.591  16.145   4.106
46270W        W17799  24.519   2.856   4.068
46271W        W17800  35.968  15.835  10.509
46272W        W17801  16.511  18.180   2.790
46273W        W17802  20.998  27.584  14.521
46274W        W17803  24.736  16.196   4.254
46275W        W17804  18.555  19.628  12.364
46276W        W17805  29.334  31.401  11.176
46277W        W17806  15.313  39.182  14.290
46278W        W17807   2.883  38.345  10.679
46279W        W17808  17.689  38.614  14.249
46280W        W17809  13.760  42.450   3.189
46281W        W17810  16.536  37.850   3.288
46282W        W17811  38.270  18.583  12.549
46283W        W17812   5.123  10.738   4.139
46284W        W17813  35.171  19.181   2.333
46285W        W17814  33.741  15.075  14.639
46286W        W17815   0.031  41.353   3.694
46287W        W17816  32.792  35.905   1.633
46288W        W17817  14.302  27.571  11.687
46289W        W17818  42.448  14.770  10.471
46290W        W17819   5.318  19.576  10.782
46291W        W17820  42.586   6.767  14.753
46292W        W17821  13.106  29.556   0.888
46293W        W17822   2.773   0.764   1.419
46294W        W17823  18.903  20.552  12.094
46295W        W17824  35.909  33.604   2.226
46296W        W17825   6.440  27.084   2.676
46297W        W17826  34.016  29.438  12.356
46298W        W17827  38.062  33.382   0.916
46299W        W17828  10.810  32.083  12.016
46300W        W17829  19.160  23.458  12.873
46301W        W17830  16.887  28.460  13.916
46302W        W17831  38.157  34.401  10.205
46303W        W17832   5.075   2.794   3.305
46304W        W17833   3.369  31.488  12.833
46305W        W17834  28.157  16.042  10.441
46306W        W17835  19.704  28.061   3.650
46307W        W17836  18.795  34.768  13.372
46308W        W17837  18.399  42.050  11.583
46309W        W17838  37.460  17.699  11.659
46310W        W17839  13.245   2.210   3.757
46311W        W17840  28.490   8.740  11.453
46312W        W17841  36.809  34.419  11.297
46313W        W17842  27.467  42.567  10.619
46314W        W17843  43.397  38.017  11.669
46315W        W17844  44.703  37.985   1.148
46316W        W17845  20.145  44.637  14.329
46317W        W17846  32.805   2.967  12.886
46318W        W17847  22.149   7.859   3.409
46319W        W17848   6.375  15.345   2.179
46320W        W17849  14.160  33.481  10.806
46321W        W17850  38.196  44.882   2.202
46322W        W17851  34.565  16.787  14.480
46323W        W17852  16.809   8.486  10.955
46324W        W17853  11.194  23.232   4.119
46325W        W17854   0.087   7.715  10.922
46326W        W17855  17.682   1.313  14.451
46327W        W17856   2.406  19.305  10.554
46328W        W17857  21.088  11.040  12.823
46329W        W17858  36.873  40.016  14.950
46330W        W17859  10.974   7.911  11.132
46331W        W17860  22.960   1.793   3.798
46332W        W17861   4.773   2.961   1.914
46333W        W17862  18.811  24.456   2.301
46334W        W17863   3.217   3.123  13.599
46335W        W17864  31.638  44.347   4.560
46336W        W17865  37.080  32.643   3.539
46337W        W17866  20.302  33.526   2.329
46338W        W17867  37.865   6.409  11.177
46339W        W17868  34.076  32.591  13.032
46340W        W17869  27.604  43.403  11.321
46341W        W17870   7.321   3.664  12.530
46342W        W17871   3.272  25.038  14.837
46343W        W17872  40.116  27.703   2.034
46344W        W17873  22.351   3.630  10.204
46345W        W17874   3.887   1.260   1.678
46346W        W17875   3.362  33.520   0.660
46347W        W17876   5.732   5.477   2.209
46348W        W17877   3.806  25.199  13.336
46349W        W17878  28.925   0.375   3.076
46350W        W17879   5.736   1.367  13.966
46351W        W17880  24.286  15.320   4.644
46352W        W17881   7.697   6.174  12.075
46353W        W17882  27.431  26.898  13.941
46354W        W17883  44.240  34.834  14.552
46355W        W17884  23.111  29.529   1.787
46356W        W17885   5.063  21.390  14.856
46357W        W17886  36.491  16.103  14.018
46358W        W17887  22.545   5.389   1.608
46359W        W17888  20.033  13.627  12.921
46360W        W17889   1.357  42.871   4.662
46361W        W17890  22.276   9.388  11.479
46362W        W17891  15.272  11.161   2.372
46363W        W17892  10.875  24.731   0.815
46364W        W17893   3.333   2.201  14.550
46365W        W17894  33.977  35.683   3.357
46366W        W17895  13.925  17.832   0.217
46367W        W17896  25.065  30.084  11.934
46368W        W17897   5.727  29.518   0.351
46369W        W17898  38.485   4.745  13.498
46370W        W17899   8.526  10.174  10.002
46371W        W17900  43.345  36.506  12.055
46372W        W17901  38.158  13.063  14.941
46373W        W17902  40.995  39.047  10.672
46374W        W17903  24.056  42.022  12.850
46375W        W17904   9.479   0.270  14.451
46376W        W17905  37.846  36.528  11.582
46377W        W17906  31.485  16.169  14.669
46378W        W17907  37.444  13.743  12.922
46379W        W17908  26.941  30.032  13.441
46380W        W17909  14.269  26.053   3.933
46381W        W17910  35.368  17.440  11.811
46382W        W17911  38.407  22.747  12.369
46383W        W17912  23.639   3.001   0.732
46384W        W17913  41.966  28.638  14.107
46385W        W17914  27.276   5.795  12.462
46386W        W17915  33.054   4.255   4.305
46387W        W17916  44.492  15.170  11.142
46388W        W17917   0.212   6.859   2.706
46389W        W17918  44.002  19.727   0.250
46390W        W17919  36.606  15.008  11.314
46391W        W17920  27.128  18.779  10.770
46392W        W17921  38.508  37.622   0.722
46393W        W17922  17.806  19.244   0.487
46394W        W17923  21.224  27.069   1.841
46395W        W17924   9.115  44.470   4.156
46396W        W17925   7.147   1.001  14.493
46397W        W17926  44.267   3.353  10.641
46398W        W17927   2.961  26.085   1.442
46399W        W17928  24.203  25.183  13.502
46400W        W17929  35.724  22.553   4.552
46401W        W17930   6.650   1.403   2.173
46402W        W17931  35.188  12.385   3.374
46403W        W17932  21.791  44.388  12.581
46404W        W17933   2.440  14.108  10.822
46405W        W17934   8.240  12.944  13.303
46406W        W17935  36.496   6.186  12.993
46407W        W17936  16.758  41.500  12.562
46408W        W17937  19.473   7.268  14.370
46409W        W17938   7.800   7.268  13.058
46410W        W17939  31.474  44.506   4.078
46411W        W17940   8.491  12.326   3.489
46412W        W17941  22.831  16.768   3.800
46413W        W17942  13.183  20.234   3.931
46414W        W17943  30.912  14.285  11.896
46415W        W17944  34.807  30.969   2.266
46416W        W17945  17.362  20.743   1.692
46417W        W17946  15.335  41.822  13.846
46418W        W17947   3.300  44.720   2.785
46419W        W17948  15.109  36.038  14.453
46420W        W17949  24.081  20.036   4.177
46421W        W17950  24.103   5.965   3.996
46422W        W17951  32.095  39.600   0.932
46423W        W17952  44.203  31.176  12.060
46424W        W17953  27.072  15.722  14.737
46425W        W17954   8.988   3.893   1.515
46426W        W17955   0.697  36.413   3.328
46427W        W17956  31.026  40.777   3.204
46428W        W17957  23.006  16.697   2.286
46429W        W17958  38.116  27.984   2.366
46430W        W17959  37.311   2.800   4.550
46431W        W17960  21.423  25.819   3.882
46432W        W17961  29.385  25.513  14.339
46433W        W17962  35.890  33.845   5.115
46434W        W17963   1.259  16.208   3.861
46435W        W17964  28.016  44.436  13.368
46436W        W17965  14.882  37.053  14.266
46437W        W17966  20.615  20.197  14.393
46438W        W17967  11.885  10.543  11.288
46439W        W17968  40.809  43.359   3.383
46440W        W17969  10.838  42.677  12.804
46441W        W17970  31.406  42.910  10.272
46442W        W17971   2.345   8.207  11.997
46443W        W17972  25.004   0.909  10.946
46444W        W17973  41.559  37.075  14.876
46445W        W17974  31.577  32.595   0.098
46446W        W17975  12.656  15.666   0.779
46447W        W17976   3.496  41.952  12.097
46448W        W17977   6.896  12.420  12.822
46449W        W17978  15.529  40.691  11.391
46450W        W17979   6.699  43.875   1.614
46451W        W17980  44.801  30.411  13.243
46452W        W17981  13.442  30.629  14.902
46453W        W17982  12.361   6.759  14.021
46454W        W17983  11.497  22.005   1.785
46455W        W17984   5.802  44.166   4.556
46456W        W17985  44.861  14.009   4.558
46457W        W17986  35.000  33.944   1.562
46458W        W17987   6.702  14.795   2.407
46459W        W17988  18.695  37.054   3.434
46460W        W17989  11.453  33.209  11.146
46461W        W17990   5.079  31.554  14.856
46462W        W17991   7.226  38.969   0.828
46463W        W17992   1.667   0.704  12.029
46464W        W17993   5.630  36.698   2.680
46465W        W17994  21.442  25.360  11.537
46466W        W17995  31.145  36.039  11.987
46467W        W17996  16.272  40.840  11.592
46468W        W17997   7.337   1.838  10.932
46469W        W17998   3.398  13.229   0.820
46470W        W17999  36.976  37.080  10.688
46471W        W18000  38.690  13.120   0.810
46472W        W18001  43.218  20.425  12.525
46473W        W18002  25.482  29.281   3.292
46474W        W18003  41.398   9.172   1.875
46475W        W18004   2.037  10.526   5.108
46476W        W18005   3.466  10.496  14.025
46477W        W18006  44.097  30.665  10.782
46478W        W18007  16.430  23.722  10.759
46479W        W18008  42.864  30.654  14.330
46480W        W18009  27.516   2.699   3.287
46481W        W18010  22.187  41.571  10.509
46482W        W18011  23.451   5.815  13.907
46483W        W18012   3.936  37.521  14.287
46484W        W18013   8.248   0.831  11.667
46485W        W18014  35.526   8.113  11.626
46486W        W18015  13.083  35.164   2.832
46487W        W18016  33.021  29.674  11.098
46488W        W18017  33.058   2.178  10.687
46489W        W18018   0.676  23.210  13.166
46490W        W18019  39.580  34.984   0.768
46491W        W18020  13.873  42.156  12.949
46492W        W18021  36.975  43.208   4.577
46493W        W18022  43.943  12.602  14.939
46494W        W18023  10.702  16.279  12.966
46495W        W18024  17.875  37.245  12.358
46496W        W18025  21.412  38.124  12.884
46497W        W18026  22.926   5.754   1.443
46498W        W18027  16.205  33.264  14.218
46499W        W18028  28.185   2.845   0.941
46500W        W18029  14.245  26.001   0.941
46501W        W18030   9.660  43.635  14.380
46502W        W18031   2.712  41.844   4.956
46503W        W18032   0.432  33.514   0.682
46504W        W18033   3.465  27.433  10.603
46505W        W18034  44.215  13.730  10.747
46506W        W18035   0.089  39.037  12.536
46507W        W18036  28.691  36.809   4.545
46508W        W18037  18.361  36.675   3.125
46509W        W18038  24.090  33.888   0.344
46510W        W18039  28.605   0.490  12.213
46511W        W18040  37.929   4.780  14.283
46512W        W18041   1.408  43.443  14.946
46513W        W18042  20.489  44.239  14.328
46514W        W18043   5.635  40.045   0.559
46515W        W18044   9.273  26.652  10.559
46516W        W18045  28.684   8.311  12.685
46517W        W18046  42.318   2.035  12.806
46518W        W18047  40.304  17.575   3.446
46519W        W18048  26.429  34.703   4.602
46520W        W18049  39.331  17.153   3.632
46521W        W18050  42.393  12.713  10.426
46522W        W18051   5.328   7.889   3.065
46523W        W18052   5.438   1.924  13.275
46524W        W18053  34.662  36.030   4.514
46525W        W18054  15.182  23.629   3.152
46526W        W18055  20.082  24.512   4.118
46527W        W18056  23.586  13.376  11.496
46528W        W18057  16.593  15.230   1.106
46529W        W18058  18.533  21.788  14.934
46530W        W18059  15.215  35.404   3.624
46531W        W18060   9.754  11.124   4.242
46532W        W18061   8.199  16.882   4.189
46533W        W18062  13.677  30.132  13.029
46534W        W18063   3.039  30.140   1.803
46535W        W18064  16.777   7.551   2.290
46536W        W18065  27.678   9.549   1.759
46537W        W18066  29.537  43.049  13.938
46538W        W18067  15.043   4.117  12.062
46539W        W18068  29.434  10.017   5.070
46540W        W18069   3.411  41.729   4.183
46541W        W18070  18.165  14.648  12.671
46542W        W18071  22.050  24.149   2.434
46543W        W18072  31.507   8.620   3.247
46544W        W18073   9.337  22.516   1.736
46545W        W18074  23.536  18.721   1.833
46546W        W18075  40.054  37.449  13.951
46547W        W18076  14.416   6.261   1.982
46548W        W18077  20.343  31.667  11.136
46549W        W18078  38.766  33.199  11.141
46550W        W18079  13.338  37.611  11.654
46551W        W18080  41.515  44.751   0.857
46552W        W18081  39.636  28.210  13.167
46553W        W18082   0.534  44.889   0.252
46554W        W18083  14.595   4.856   1.151
46555W        W18084  27.562  42.427  11.200
46556W        W18085  33.561  17.973  14.552
46557W        W18086  44.431  27.505   2.689
46558W        W18087  10.156  23.663   9.766
46559W        W18088  32.979  19.801  10.659
46560W        W18089  14.923  19.130   1.728
46561W        W18090  12.482  13.685   4.255
46562W        W18091   3.817  10.700  12.621
46563W        W18092  25.494  17.700  11.509
46564W        W18093  27.677  42.217  12.226
46565W        W18094  35.598  10.176   1.990
46566W        W18095   9.932  34.848   0.311
46567W        W18096  40.481  36.507   2.317
46568W        W18097  29.067  21.575  14.824
46569W        W18098  43.189   9.892  13.005
46570W        W18099   9.183   7.277  13.329
46571W        W18100  16.826  26.077  13.862
46572W        W18101  19.767  34.533   0.860
46573W        W18102  43.107  23.190   1.112
46574W        W18103  16.230  35.602   3.413
46575W        W18104  44.370  31.923   4.653
46576W        W18105   4.647   9.459   3.864
46577W        W18106  32.123   9.429  10.746
46578W        W18107  41.542  17.740  14.911
46579W        W18108  33.430  20.921   4.823
46580W        W18109  27.539   7.019   0.661
46581W        W18110   1.694  26.988  12.322
46582W        W18111  14.683   5.845  11.518
46583W        W18112  43.154   0.382   4.207
46584W        W18113  37.896  10.124   0.072
46585W        W18114  42.855  37.789   4.576
46586W        W18115  19.051   4.943   2.262
46587W        W18116  30.820  30.633  12.951
46588W        W18117   1.475   1.823  13.523
46589W        W18118   1.383  38.604   0.651
46590W        W18119  29.485  24.289  12.096
46591W        W18120  35.611  44.683  12.842
46592W        W18121  31.877   5.461  10.422
46593W        W18122  14.317  25.155   0.468
46594W        W18123  28.750   0.885   1.732
46595W        W18124  37.436  19.543   0.309
46596W        W18125  29.999   3.422   3.600
46597W        W18126  42.864  13.013  10.538
46598W        W18127  25.482  29.505  14.505
46599W        W18128  26.077  34.571   4.967
46600W        W18129  39.426  24.555   4.414
46601W        W18130  28.458  25.975  12.947
46602W        W18131  23.541  44.835   3.049
46603W        W18132  15.118  24.277  11.643
46604W        W18133  28.677   2.831  12.054
46605W        W18134  38.760  21.670   3.604
46606W        W18135  12.705   6.827  11.581
46607W        W18136   6.344  28.868   1.875
46608W        W18137  43.541  22.615  11.096
46609W        W18138  30.900  29.204   0.729
46610W        W18139  15.978  41.891  12.393
46611W        W18140   6.145  37.493  10.388
46612W        W18141  28.628  40.508  10.709
46613W        W18142  29.897  11.669   1.136
46614W        W18143  30.106   9.079   0.311
46615W        W18144  13.580  19.032   0.860
46616W        W18145  31.948   9.201  13.114
46617W        W18146  10.159  22.095   3.872
46618W        W18147  19.996  41.915  11.905
46619W        W18148  15.299  12.704   4.046
46620W        W18149  28.805  36.078   4.941
46621W        W18150  22.836  21.286   4.476
46622W        W18151  41.510   0.351   3.167
46623W        W18152  27.075   4.739  11.091
46624W        W18153  33.915  41.545  10.718
46625W        W18154  25.097  11.349   2.258
46626W        W18155   2.951  31.616  12.365
46627W        W18156   0.024  31.504  14.435
46628W        W18157  30.409  44.435  14.039
46629W        W18158  30.095  12.256  10.562
46630W        W18159   4.806  29.343   4.544
46631W        W18160  43.622  19.586   1.027
46632W        W18161  14.587   8.730  12.139
46633W        W18162  36.855  31.947  12.364
46634W        W18163  22.758  30.998  12.392
46635W        W18164   2.706  33.670   2.728
46636W        W18165  30.199  34.391   0.568
46637W        W18166  15.043   2.768   0.798
46638W        W18167  35.589  19.220   3.220
46639W        W18168  28.978   5.091  12.516
46640W        W18169  39.988  24.815  12.191
46641W        W18170  34.851  37.842  11.695
46642W        W18171  13.782  16.872  12.878
46643W        W18172   7.717  38.795  14.889
46644W        W18173  17.680  15.711  14.630
46645W        W18174   2.699   7.386   5.067
46646W        W18175  33.736  36.522   0.283
46647W        W18176   4.978   7.662  12.594
46648W        W18177   7.581   7.805   4.815
46649W        W18178   7.694  26.927   1.342
46650W        W18179  16.477  35.486   0.908
46651W        W18180  17.623   2.298   3.668
46652W        W18181  43.165  30.128  12.510
46653W        W18182  26.678  26.205   3.293
46654W        W18183   0.683  31.282   3.696
46655W        W18184  12.091  14.808  14.473
46656W        W18185  35.713  42.928   2.288
46657W        W18186  35.962  16.604  11.541
46658W        W18187  22.514  24.261   4.311
46659W        W18188   9.593  31.585   2.649
46660W        W18189  18.693   0.996   0.529
46661W        W18190  13.410   0.234   4.548
46662W        W18191  38.351   3.968   0.854
46663W        W18192   6.117  43.025   0.843
46664W        W18193  38.000  44.845   2.694
46665W        W18194  32.626  40.853  11.048
46666W        W18195  44.385   3.636   2.036
46667W        W18196  35.059   3.147   2.158
46668W        W18197  28.103   3.283  10.698
46669W        W18198   5.437   6.698  12.087
46670W        W18199  33.283   9.346   0.156
46671W        W18200  21.141  33.928  14.625
46672W        W18201  39.934  27.172   4.241
46673W        W18202  15.033   9.644  14.940
46674W        W18203  14.128   1.444  10.526
46675W        W18204   6.711  17.556  12.539
46676W        W18205  28.571   1.185  11.236
46677W        W18206  39.905  36.286   4.551
46678W        W18207  11.222  42.406  14.537
46679W        W18208   9.338   4.481  14.202
46680W        W18209  29.399  41.415   0.925
46681W        W18210   5.779   4.970   4.575
46682W        W18211  24.237  11.867   3.750
46683W        W18212   5.723  44.242  10.699
46684W        W18213  35.623  36.265   1.399
46685W        W18214  18.917  16.256   0.811
46686W        W18215  12.313  28.428   4.125
46687W        W18216  10.797  23.066   0.485
46688W        W18217  26.433  21.586   2.825
46689W        W18218  10.286  17.508   1.325
46690W        W18219  35.626  22.889  10.784
46691W        W18220  38.460  13.745  14.270
46692W        W18221  43.386  34.789   2.196
46693W        W18222  21.469  27.549  10.661
46694W        W18223  14.548  39.878  12.000
46695W        W18224   8.342   4.152  11.173
46696W        W18225  30.957  35.334  10.719
46697W        W18226  14.793  12.938   0.644
46698W        W18227   0.509  35.869  14.451
46699W        W18228  33.182   9.668   1.203
46700W        W18229   9.572   4.846  12.976
46701W        W18230   6.884   7.585  10.769
46702W        W18231   6.851  38.522  12.531
46703W        W18232  38.251  18.654   0.739
46704W        W18233   9.572  28.568   3.578
46705W        W18234  44.701  23.998   2.301
46706W        W18235  40.239  19.004   1.939
46707W        W18236   7.438  22.511  11.680
46708W        W18237  26.349   3.019   1.185
46709W        W18238  14.391  10.262  11.501
46710W        W18239  36.491  31.448   3.650
46711W        W18240  44.764  39.146   3.700
46712W        W18241  15.738   7.819  14.847
46713W        W18242   7.220   7.894   1.658
46714W        W18243  27.651   5.949   1.576
46715W        W18244   1.875  14.373   1.851
46716W        W18245  15.420  34.581  14.523
46717W        W18246   2.887  37.507   0.429
46718W        W18247  44.966  38.495   2.863
46719W        W18248   8.372  44.876  12.047
46720W        W18249  43.265  29.258   1.752
46721W        W18250  29.629  35.385  12.473
46722W        W18251  44.569   6.301   4.796
46723W        W18252  37.811  20.687   1.831
46724W        W18253  13.575  10.162  13.835
46725W        W18254  43.951   8.880  14.215
46726W        W18255  22.500   8.358   9.916
46727W        W18256   8.727  38.969  13.565
46728W        W18257  13.310  41.552   1.191
46729W        W18258  38.478  21.012  11.558
46730W        W18259  13.301  44.730   4.679
46731W        W18260  28.002  42.566  12.501
46732W        W18261  32.181  19.226   2.770
46733W        W18262   3.861  34.297  12.748
46734W        W18263   8.157  26.376  12.634
46735W        W18264  37.231  41.259   3.342
46736W        W18265  34.918  24.262   3.619
46737W        W18266  12.581   8.147  13.982
46738W        W18267  38.937  35.314   2.242
46739W        W18268  31.183  15.746   3.037
46740W        W18269  20.436  43.732  11.154
46741W        W18270  11.719  26.944  13.036
46742W        W18271  20.814  23.706  10.978
46743W        W18272   4.482  18.226   2.695
46744W        W18273  15.560  25.438   1.350
46745W        W18274  21.628  16.984   0.284
46746W        W18275  17.041   4.053  13.959
46747W        W18276  25.005  25.067  10.636
46748W        W18277  13.261  36.349   2.148
46749W        W18278  32.989  30.571   0.555
46750W        W18279  38.704  41.229  13.060
46751W        W18280  32.608  22.987  11.061
46752W        W18281  43.860  21.312  14.189
46753W        W18282  30.105  39.343  10.769
46754W        W18283  40.347  18.102   3.367
46755W        W18284  43.013   0.269   3.386
46756W        W18285  12.245  17.198   0.503
46757W        W18286   3.352   3.040   2.697
46758W        W18287   9.923  17.565  12.656
46759W        W18288  39.866  17.811   0.959
46760W        W18289  16.147  40.914  10.703
46761W        W18290  44.503  30.832  13.382
46762W        W18291  23.493  15.922   0.249
46763W        W18292  28.376   2.815   4.186
46764W        W18293  21.692  25.305   1.891
46765W        W18294  22.201  20.632   3.126
46766W        W18295   4.058   4.478   4.059
46767W        W18296  29.304  44.271   0.369
46768W        W18297  18.580  12.674   4.536
46769W        W18298  10.250  20.834   3.188
46770W        W18299  33.846  19.237   0.985
46771W        W18300  31.100  23.710  13.094
46772W        W18301  12.564   6.917   0.476
46773W        W18302   4.265  22.247  11.599
46774W        W18303  34.134   0.720  13.177
46775W        W18304  31.858  29.934  14.894
46776W        W18305   8.866   1.500   1.386
46777W        W18306  19.084  44.941  14.907
46778W        W18307  37.809  15.228  10.448
46779W        W18308  44.063   0.221   1.589
46780W        W18309  11.652  31.786   0.199
46781W        W18310  27.577  15.143   3.162
46782W        W18311  11.546  11.229  12.987
46783W        W18312  30.666  28.568   1.232
46784W        W18313  27.485   1.625   3.353
46785W        W18314  34.856  35.300   3.377
46786W        W18315   1.318  38.924   3.871
46787W        W18316  27.984  44.400   3.179
46788W        W18317  12.294  30.836  14.209
46789W        W18318  13.722   2.285  11.145
46790W        W18319  22.651  42.406   0.840
46791W        W18320   3.666  17.824  14.364
46792W        W18321  15.345  36.192   2.219
46793W        W18322  25.747  13.315  11.588
46794W        W18323  28.016   6.423   2.199
46795W        W18324  31.167  26.700  12.529
46796W        W18325  41.424  14.249  14.767
46797W        W18326  19.645   4.886   1.034
46798W        W18327  21.709  40.319   4.029
46799W        W18328  24.698  37.020   4.712
46800W        W18329  29.655   2.243   4.790
46801W        W18330  12.653   1.182   4.145
46802W        W18331  39.643  40.224  14.331
46803W        W18332   5.727  31.206  11.930
46804W        W18333  17.145  39.367  14.418
46805W        W18334  29.589  23.439  12.973
46806W        W18335  11.785  34.057  13.942
46807W        W18336  33.216  10.123   4.171
46808W        W18337  25.800   9.185   4.800
46809W        W18338  43.236  13.150  11.277
46810W        W18339  34.269  32.076   4.556
46811W        W18340  12.717  23.700   3.759
46812W        W18341  38.630  23.826  11.640
46813W        W18342  29.662  22.849   3.030
46814W        W18343  27.558  13.559  14.339
46815W        W18344  11.113  42.755   4.862
46816W        W18345  42.280  16.212   2.914
46817W        W18346  23.496  38.810   3.925
46818W        W18347  43.741  11.731   3.576
46819W        W18348  24.058  26.582  14.332
46820W        W18349   4.928   4.749   0.387
46821W        W18350  22.116  43.455   0.967
46822W        W18351  41.100  32.823  12.007
46823W        W18352   4.678  36.035  12.523
46824W        W18353  32.739  24.683   3.487
46825W        W18354  22.544  12.534   0.587
46826W        W18355  38.870  40.220  14.763
46827W        W18356  31.434  35.582  10.753
46828W        W18357  24.107  27.213   1.033
46829W        W18358   4.039  22.046  12.016
46830W        W18359  26.122   5.381   4.554
46831W        W18360  35.728   0.280  10.903
46832W        W18361  13.334  19.659  14.808
46833W        W18362  11.596  19.586   4.083
46834W        W18363  22.179  35.289  14.097
46835W        W18364  10.277  25.772   0.322
46836W        W18365  33.430  14.702   4.069
46837W        W18366  23.750  30.021  11.572
46838W        W18367  17.132  37.586  14.984
46839W        W18368   6.036   6.650  14.525
46840W        W18369  33.148  15.271   2.788
46841W        W18370  12.419   7.615  14.052
46842W        W18371  43.391   8.290  14.301
46843W        W18372  38.390  11.256   0.123
46844W        W18373  43.411  28.073  10.729
46845W        W18374   6.559  44.878  10.925
46846W        W18375  11.393  35.915  12.891
46847W        W18376   5.919  29.110  12.905
46848W        W18377  19.616  42.869  14.284
46849W        W18378   4.665   9.017   3.599
46850W        W18379  37.955  17.028  14.808
46851W        W18380  12.316  20.031  11.422
46852W        W18381  32.389  24.007  11.904
46853W        W18382  38.413  26.921   4.535
46854W        W18383  23.550  39.497  14.239
46855W        W18384  12.337  10.622   3.698
46856W        W18385   0.943  37.991   1.311
46857W        W18386  40.107  33.474   1.338
46858W        W18387  17.801   6.658   2.660
46859W        W18388  13.164  25.982  11.203
46860W        W18389  29.438  18.794   2.229
46861W        W18390  15.048  12.115  13.841
46862W        W18391  25.279  42.320   2.761
46863W        W18392  34.338  23.980   4.137
46864W        W18393  12.791  20.532   2.787
46865W        W18394  15.298  12.359   3.095
46866W        W18395  31.433  11.743  11.584
46867W        W18396  43.695  42.862  13.562
46868W        W18397  26.752   0.231  10.382
46869W        W18398  39.424  31.387  13.897
46870W        W18399   6.230   3.075  10.731
46871W        W18400  23.939   8.355   1.695
46872W        W18401  37.094  31.575   2.777
46873W        W18402  44.930  18.896   0.276
46874W        W18403  25.473  16.141   3.208
46875W        W18404   7.333  42.686  10.687
46876W        W18405  25.743   1.062  11.427
46877W        W18406  24.650  36.968   1.034
46878W        W18407  22.609   1.716   2.232
46879W        W18408  36.242   4.437  14.107
46880W        W18409  38.605   3.974  11.139
46881W        W18410  42.983  15.655   4.586
46882W        W18411  40.622  27.113  12.512
46883W        W18412  24.394  34.594  10.340
46884W        W18413  25.868  18.622   1.340
46885W        W18414  23.480  11.646  14.581
46886W        W18415  36.464   1.291  10.840
46887W        W18416  14.367  44.975  11.885
46888W        W18417  37.835  36.398   2.802
46889W        W18418  15.948  19.711   4.104
46890W        W18419  12.125  22.076  14.461
46891W        W18420  12.419   4.007   1.735
46892W        W18421   8.191  30.477  14.098
46893W        W18422  20.580   2.391  14.455
46894W        W18423  42.447  41.124   2.378
46895W        W18424  11.163  37.873   0.464
46896W        W18425  42.975  29.787  11.142
46897W        W18426  37.566  17.833  13.133
46898W        W18427   2.182   8.027  11.525
46899W        W18428  18.875   5.225  12.502
46900W        W18429  29.642   8.584  12.997
46901W        W18430  21.294  31.172  12.345
46902W        W18431  24.328  44.789   3.742
46903W        W18432   1.414   2.291  10.930
46904W        W18433  29.065   3.854  11.417
46905W        W18434  28.175  41.854  13.104
46906W        W18435  44.446  10.273  11.104
46907W        W18436   3.911  33.013  13.299
46908W        W18437   9.931  23.799  12.662
46909W        W18438   8.818   6.198  10.546
46910W        W18439  23.447  37.865   0.805
46911W        W18440  33.217   9.582  11.902
46912W        W18441  43.468  39.021  14.334
46913W        W18442   9.787  37.992  12.402
46914W        W18443  12.410  26.206   4.910
46915W        W18444  33.561  30.677   3.094
46916W        W18445  18.629  17.284   2.713
46917W        W18446  35.821  33.482   3.644
46918W        W18447  19.091  38.780   0.434
46919W        W18448  15.292  29.931   3.845
46920W        W18449   6.275   8.650  13.103
46921W        W18450  40.589   7.397   3.565
46922W        W18451  13.383  33.470   0.323
46923W        W18452  43.804  33.926   1.204
46924W        W18453  29.944  44.056   4.618
46925W        W18454  28.995  17.703  11.539
46926W        W18455  37.882  41.432   0.394
46927W        W18456  23.505  43.251   0.288
46928W        W18457   4.595  26.482  14.422
46929W        W18458  11.365   0.180   2.209
46930W        W18459   2.938   5.754   0.869
46931W        W18460  42.440   5.960  14.677
46932W        W18461  37.356   0.097   1.910
46933W        W18462   5.879   2.356  14.455
46934W        W18463  28.627   9.276  11.129
46935W        W18464  33.382   7.992   5.091
46936W        W18465  35.630  40.140  14.316
46937W        W18466   4.513  27.256  11.019
46938W        W18467  30.656  15.072   4.086
46939W        W18468  41.410  21.114  13.465
46940W        W18469  20.273  37.859  14.952
46941W        W18470  44.412  35.373   0.093
46942W        W18471  44.114  16.648  10.416
46943W        W18472  11.097  36.915  12.581
46944W        W18473  28.157  43.299   0.440
46945W        W18474  14.912  17.792  10.951
46946W        W18475   3.456  23.098   4.608
46947W        W18476  34.548  33.925   4.769
46948W        W18477  31.139  24.061   3.629
46949W        W18478  34.618   4.909   4.169
46950W        W18479  36.055   1.592  12.003
46951W        W18480   2.698   3.503  10.619
46952W        W18481  35.677  44.328  11.461
46953W        W18482  32.861  31.352   2.769
46954W        W18483  38.311   1.610  12.537
46955W        W18484  15.037  24.651   0.239
46956W        W18485   6.415   8.755   4.499
46957W        W18486  32.029  37.502   4.439
46958W        W18487  43.730   1.466   1.799
46959W        W18488  21.479  13.094  11.385
46960W        W18489  38.918  34.467  14.488
46961W        W18490  19.704  41.960  14.679
46962W        W18491  35.338  19.641   1.227
46963W        W18492  18.061  21.608  11.576
46964W        W18493  15.971  41.533   4.808
46965W        W18494  24.601  25.234   1.839
46966W        W18495  31.085   1.447   2.143
46967W        W18496  23.237   0.532   4.726
46968W        W18497  12.063  15.573  11.172
46969W        W18498  44.225  28.939  14.966
46970W        W18499  38.007  32.735   4.248
46971W        W18500   8.163  26.038   4.905
46972W        W18501  19.337  39.273   1.762
46973W        W18502  14.406  35.365  13.444
46974W        W18503  13.582  26.035  12.691
46975W        W18504  39.613  23.766  13.848
46976W        W18505  28.390  38.695   3.397
46977W        W18506  14.607  21.480  13.258
46978W        W18507  17.125  28.862  12.091
46979W        W18508  15.169  20.432   1.339
46980W        W18509  28.397  28.433   0.912
46981W        W18510  15.795  22.749  11.593
46982W        W18511  18.490  11.307  12.397
46983W        W18512  39.502  21.233   0.938
46984W        W18513  22.038  25.204  13.127
46985W        W18514  14.136  42.742  11.050
46986W        W18515  17.038  41.728   1.207
46987W        W18516  42.060  27.473  12.073
46988W        W18517  43.859   0.904  11.034
46989W        W18518   8.149  13.195  14.224
46990W        W18519  27.683  35.494  11.126
46991W        W18520   1.293  26.421   4.113
46992W        W18521  14.849  40.394  12.081
46993W        W18522  43.475  31.483  14.409
46994W        W18523   1.077  26.967  14.974
46995W        W18524   0.865  43.970   2.568
46996W        W18525  23.798  12.124   1.760
46997W        W18526  43.350  42.598  12.775
46998W        W18527  44.610  42.946   4.995
46999W        W18528   0.039  10.025   1.729
47000W        W18529  28.946  25.518   5.075
47001W        W18530  11.180  44.548   3.166
47002W        W18531  10.108   7.686  12.881
47003W        W18532  38.305   6.696   2.345
47004W        W18533  30.109  23.281   1.448
47005W        W18534  36.325  44.043   1.184
47006W        W18535  22.246  42.266   2.732
47007W        W18536   6.357  39.804  12.585
47008W        W18537  11.311  26.103  13.438
47009W        W18538  22.248  32.830   2.763
47010W        W18539  44.843  33.493  13.494
47011W        W18540  41.816  29.264   0.748
47012W        W18541  28.522   4.213   0.899
47013W        W18542  18.172  30.595  10.628
47014W        W18543  37.984   4.707  12.076
47015W        W18544  33.604   7.311   4.059
47016W        W18545  21.604   2.555  12.933
47017W        W18546   6.762  43.841  10.734
47018W        W18547  17.008  15.649   1.812
47019W        W18548  33.373  37.337  12.705
47020W        W18549   1.034  30.024  13.654
47021W        W18550  40.768  13.327  11.455
47022W        W18551  11.338   1.046  14.072
47023W        W18552  31.967  10.323   4.731
47024W        W18553  10.665  28.240   0.281
47025W        W18554  13.272  40.642   2.828
47026W        W18555  39.284   4.309  13.311
47027W        W18556  23.236  11.613   1.737
47028W        W18557  42.502  14.752  14.583
47029W        W18558  19.583  35.137   1.654
47030W        W18559  25.238  35.860  10.977
47031W        W18560  11.646   6.672   4.781
47032W        W18561  38.925   1.333   0.231
47033W        W18562  19.094  37.725  11.733
47034W        W18563  26.445  27.040   4.614
47035W        W18564  23.586  21.787   4.433
47036W        W18565  44.171  37.362  13.469
47037W        W18566  23.948  41.834  13.318
47038W        W18567  34.366  20.797   4.548
47039W        W18568   1.757  16.331  10.892
47040W        W18569  30.141  32.088   4.655
47041W        W18570   9.756  31.423  14.265
47042W        W18571  29.830   4.918  10.571
47043W        W18572  23.621  14.839  10.762
47044W        W18573  13.354  42.841  12.868
47045W        W18574   3.156   7.567  14.756
47046W        W18575  34.076   0.190   4.003
47047W        W18576  22.408  28.423   1.311
47048W        W18577  40.912  40.070  12.504
47049W        W18578  24.177   7.935  11.794
47050W        W18579  44.841  39.140  13.903
47051W        W18580  29.511  13.364  12.412
47052W        W18581   3.700   6.904  14.949
47053W        W18582   0.759  19.292  12.902
47054W        W18583   1.969   5.239   1.868
47055W        W18584  35.311  18.523  10.764
47056W        W18585  20.023  40.834   0.892
47057W        W18586  14.484  23.073   2.892
47058W        W18587  34.441  16.206   4.004
47059W        W18588  41.471  14.788   3.857
47060W        W18589  28.049  19.109   0.901
47061W        W18590  12.312   0.722  13.996
47062W        W18591   1.179  10.941   2.254
47063W        W18592   0.317  28.571  13.120
47064W        W18593  19.269  34.927   0.432
47065W        W18594  31.932  10.746   3.182
47066W        W18595  28.515  38.111  12.478
47067W        W18596   2.471   6.852   2.138
47068W        W18597  10.390  17.216   0.760
47069W        W18598  37.022  13.637  13.224
47070W        W18599   9.428  36.883   3.648
47071W        W18600  11.214   1.474  13.524
47072W        W18601  33.621   5.416  11.160
47073W        W18602   9.321  22.158  10.617
47074W        W18603  12.352  16.315  14.426
47075W        W18604   5.866  14.915   2.877
47076W        W18605  35.514  14.780   0.126
47077W        W18606  12.028  10.227  13.698
47078W        W18607  32.199  42.493   0.286
47079W        W18608  28.052   4.237   0.592
47080W        W18609  14.450   3.947   0.369
47081W        W18610  21.968   5.202   4.147
47082W        W18611  35.153  13.532  12.696
47083W        W18612  22.275  22.514  10.650
47084W        W18613  44.264  18.878  10.648
47085W        W18614  44.011  44.882   2.920
47086W        W18615  28.607   7.198   4.899
47087W        W18616  31.933   3.418   0.458
47088W        W18617  16.062   3.323   4.500
47089W        W18618   1.019  19.587   2.931
47090W        W18619  43.300  11.982  12.629
47091W        W18620  32.119  44.860  13.414
47092W        W18621   6.823  10.379   0.796
47093W        W18622  33.995  33.436   0.775
47094W        W18623  28.162  32.360   0.936
47095W        W18624  26.153  36.335   3.096
47096W        W18625  18.044   0.329  14.444
47097W        W18626  27.155  34.611  11.025
47098W        W18627   8.146   7.906   1.842
47099W        W18628  34.095  27.046  13.571
47100W        W18629   1.357  10.909   2.764
47101W        W18630   1.230  38.062   3.697
47102W        W18631  27.901   2.053   1.883
47103W        W18632  34.500   2.847   3.804
47104W        W18633  38.763  39.372   0.692
47105W        W18634  40.624  26.679   0.307
47106W        W18635  44.089   4.357  14.454
47107W        W18636   8.263   7.272  14.309
47108W        W18637  19.267  18.300   4.072
47109W        W18638  10.905  17.632   2.535
47110W        W18639  25.359  13.685   0.737
47111W        W18640  17.546   5.147   3.212
47112W        W18641  20.703  28.724   3.311
47113W        W18642  31.049  19.736  14.956
47114W        W18643  23.477  29.663  12.424
47115W        W18644  29.640  30.891   1.436
47116W        W18645   6.882  21.204   0.599
47117W        W18646  10.651  17.827  10.713
47118W        W18647  17.674  30.893  14.670
47119W        W18648   0.069  19.930  12.401
47120W        W18649  12.344  13.223  14.691
47121W        W18650   3.546   4.493  14.874
47122W        W18651  37.596  41.940   1.290
47123W        W18652  38.752  39.725  14.856
47124W        W18653  27.047  13.110  12.553
47125W        W18654  11.703   4.389   4.679
47126W        W18655  43.804  19.140   1.781
47127W        W18656  31.602   3.127   4.922
47128W        W18657   8.283  20.450   2.408
47129W        W18658  19.775   0.667  14.937
47130W        W18659   2.943  34.231  12.497
47131W        W18660   2.157  23.749   2.241
47132W        W18661  23.094   3.892   4.170
47133W        W18662   8.133  24.985  13.607
47134W        W18663  32.367  39.251  14.388
47135W        W18664  20.112  25.508   3.219
47136W        W18665  42.728  29.261   1.822
47137W        W18666  30.300  26.742   4.932
47138W        W18667  25.248  41.464  11.149
47139W        W18668   5.676  15.106  12.542
47140W        W18669  10.565  41.785  11.952
47141W        W18670   1.975   1.535   1.834
47142W        W18671   6.972   0.566  12.955
47143W        W18672   3.921   7.523   1.883
47144W        W18673  39.944  15.107  14.332
47145W        W18674  31.316   2.002   0.331
47146W        W18675  13.741   6.299  13.858
47147W        W18676  31.540  26.512  14.570
47148W        W18677  30.939  33.510   2.644
47149W        W18678   0.978  36.030   0.733
47150W        W18679  43.855  12.366   1.319
47151W        W18680  18.482   7.233   0.155
47152W        W18681  20.805  38.116   3.741
47153W        W18682   6.151  37.203   2.715
47154W        W18683  29.206   5.749   3.588
47155W        W18684  32.548  42.417   1.358
47156W        W18685  11.261   6.779   2.889
47157W        W18686  29.494  41.047  14.433
47158W        W18687  23.401  27.572   4.118
47159W        W18688   1.403  31.090   1.156
47160W        W18689  38.466  34.007  11.097
47161W        W18690  21.282  22.497   1.355
47162W        W18691  23.023  31.669  10.986
47163W        W18692   4.140  22.594   0.342
47164W        W18693  13.622  32.395   2.927
47165W        W18694  25.451  22.524   3.572
47166W        W18695  10.392  20.077  11.346
47167W        W18696  14.822  30.192   4.821
47168W        W18697  27.269  27.140   1.722
47169W        W18698  24.159   3.582  14.410
47170W        W18699  11.940  21.820  11.995
47171W        W18700   9.113   2.391   1.702
47172W        W18701   7.193   2.639   2.442
47173W        W18702  44.868   5.665   3.412
47174W        W18703  31.518  20.127   2.923
47175W        W18704  16.244  19.236  13.063
47176W        W18705  33.521  43.393  12.559
47177W        W18706  31.892  42.485   0.860
47178W        W18707   8.342  33.525  13.440
47179W        W18708  38.267   1.498  13.543
47180W        W18709   2.861  23.734   3.829
47181W        W18710  18.802  12.373   0.870
47182W        W18711  36.495  26.221   3.120
47183W        W18712  22.691  10.324  12.702
47184W        W18713   6.184  22.518   1.922
47185W        W18714  42.980  33.433  13.134
47186W        W18715  39.569  27.945  14.605
47187W        W18716  24.023   7.671   3.894
47188W        W18717  36.621  15.840   3.224
47189W        W18718  39.831  32.671   3.192
47190W        W18719  41.358  23.445   0.686
47191W        W18720  23.184  43.775  13.306
47192W        W18721  26.450  39.377  13.683
47193W        W18722  31.413  28.560   3.694
47194W        W18723  22.508   9.151  11.899
47195W        W18724  24.495  39.520   1.381
47196W        W18725  21.029  13.187  11.159
47197W        W18726  32.306   2.007  12.017
47198W        W18727  32.444  27.470   2.249
47199W        W18728  37.989  25.063   1.546
47200W        W18729   1.776  16.300  14.254
47201W        W18730   6.130  22.261   2.758
47202W        W18731  39.213  33.106  14.386
47203W        W18732  27.746  43.503  12.649
47204W        W18733  30.627  28.213   4.096
47205W        W18734  42.432   3.305  12.867
47206W        W18735  37.306  13.995  14.097
47207W        W18736  12.720  32.581  12.841
47208W        W18737  15.491   5.155  12.308
47209W        W18738  18.306  26.637  14.400
47210W        W18739  43.690  33.433   3.116
47211W        W18740  43.995  44.291  13.397
47212W        W18741  43.052  17.291   0.836
47213W        W18742  26.519  40.306   4.981
47214W        W18743  18.083  41.001   1.663
47215W        W18744  13.531  38.932  12.094
47216W        W18745  27.669  34.043   1.280
47217W        W18746  23.630  29.081   0.400
47218W        W18747  19.066  41.550   3.513
47219W        W18748   0.921  40.996  11.595
47220W        W18749   5.413  39.745  12.945
47221W        W18750  31.376  22.651   2.336
47222W        W18751  30.154  41.015  12.537
47223W        W18752   3.518   1.864  13.331
47224W        W18753  21.106  31.945  12.009
47225W        W18754  40.326  25.650  14.626
47226W        W18755   6.115  32.779  14.359
47227W        W18756  19.495  17.239  14.820
47228W        W18757  24.174  32.605   2.319
47229W        W18758  30.734   9.174   3.265
47230W        W18759   1.753  27.996  14.120
47231W        W18760   7.382  19.815  13.017
47232W        W18761  39.357   4.010  13.730
47233W        W18762  22.960   2.506   0.084
47234W        W18763   3.062  40.624   2.718
47235W        W18764  31.414   7.264  11.984
47236W        W18765   0.726  19.514   2.056
47237W        W18766  31.907  17.669   2.342
47238W        W18767  13.014  43.854   3.833
47239W        W18768  17.108  33.335  10.914
47240W        W18769  17.775  21.214   0.338
47241W        W18770   2.348   6.514  13.454
47242W        W18771  35.920   8.730   2.804
47243W        W18772   3.611  18.996   3.174
47244W        W18773   6.313  14.113  13.873
47245W        W18774  26.915   8.857   1.939
47246W        W18775  18.080  36.450  13.273
47247W        W18776  34.028   0.252  13.436
47248W        W18777   2.319  39.032   4.674
47249W        W18778  44.263  28.008  13.951
47250W        W18779  15.087  19.721   2.767
47251W        W18780  22.655  44.847   2.085
47252W        W18781  11.714  27.152   3.648
47253W        W18782  17.334  41.735   2.374
47254W        W18783  35.883  27.979  11.083
47255W        W18784  41.623  21.704   2.685
47256W        W18785   2.487   1.770   0.712
47257W        W18786   9.848  32.390  11.030
47258W        W18787   2.003  32.588  13.012
47259W        W18788  11.636  41.343  13.171
47260W        W18789   1.681  12.154   2.795
47261W        W18790  18.745  42.972   0.912
47262W        W18791  31.343  18.045  13.309
47263W        W18792  21.160  36.663   5.558
47264W        W18793  21.179  20.699  12.338
47265W        W18794   3.329  11.458  12.723
47266W        W18795   5.775  34.377  14.887
47267W        W18796  30.766   0.083   1.222
47268W        W18797   9.258  44.991   0.752
47269W        W18798  43.460   1.417   1.297
47270W        W18799   5.209  39.805   0.847
47271W        W18800  18.223  28.681   2.109
47272W        W18801  14.505   7.693   4.533
47273W        W18802  41.554  11.358   0.022
47274W        W18803  36.732   9.116   2.467
47275W        W18804  17.516  24.177  13.573
47276W        W18805   9.793   0.842  11.266
47277W        W18806  39.280   0.527  14.913
47278W        W18807  35.988  10.732   4.430
47279W        W18808  27.639  12.407  14.759
47280W        W18809  18.307  39.990  13.541
47281W        W18810  19.246  21.488   2.378
47282W        W18811  32.107  25.756   1.280
47283W        W18812  35.994  33.651   3.144
47284W        W18813  18.744  11.090   2.718
47285W        W18814   7.016  41.822   2.612
47286W        W18815  12.352  14.956   2.738
47287W        W18816  16.138  31.464  11.606
47288W        W18817  16.759  20.389   4.237
47289W        W18818  30.542  18.885  11.544
47290W        W18819  23.125  39.447   2.154
47291W        W18820  10.224   9.882   3.967
47292W        W18821   1.600  11.360   4.591
47293W        W18822  20.134  35.642   1.401
47294W        W18823  29.520  31.199   3.207
47295W        W18824  13.826   8.250  11.998
47296W        W18825   0.567  22.294  12.474
47297W        W18826   8.630  36.360  14.498
47298W        W18827  44.961  28.551   1.378
47299W        W18828  13.629  25.441   1.564
47300W        W18829  27.533  41.805   2.120
47301W        W18830  34.404   5.288   2.903
47302W        W18831  28.840  13.799  14.520
47303W        W18832  19.521  16.196   4.281
47304W        W18833  19.580  27.573   4.825
47305W        W18834  31.992  13.085   2.288
47306W        W18835  29.944   1.356   1.079
47307W        W18836   0.383  28.514   4.842
47308W        W18837   2.320   9.853   1.163
47309W        W18838  11.146  10.651   1.275
47310W        W18839  39.585   4.270  11.579
47311W        W18840  41.520  35.434   4.323
47312W        W18841  39.484   9.222  13.327
47313W        W18842  19.776   7.390  13.951
47314W        W18843  40.889  14.375  14.378
47315W        W18844   0.770  22.497   3.221
47316W        W18845   5.851  43.952  13.257
47317W        W18846  25.754  19.542  12.091
47318W        W18847  18.251   9.888  11.899
47319W        W18848  27.567  32.851   3.218
47320W        W18849  43.861  33.789   3.569
47321W        W18850  20.752  27.952  12.586
47322W        W18851  18.017  33.752  14.918
47323W        W18852  25.917  22.312  13.043
47324W        W18853   7.512   5.172   4.076
47325W        W18854  11.009   9.382  14.993
47326W        W18855   4.388   0.848  14.979
47327W        W18856  18.187  22.782  13.496
47328W        W18857   0.314  19.047  12.850
47329W        W18858  24.217  25.821  12.282
47330W        W18859  38.936   7.465  10.854
47331W        W18860   1.734  35.843  10.372
47332W        W18861  12.670   1.522  11.551
47333W        W18862  14.767   9.205  12.088
47334W        W18863  40.472   2.126   3.416
47335W        W18864   8.853   7.399   0.842
47336W        W18865   7.235   9.372   2.761
47337W        W18866   2.826  34.019  11.612
47338W        W18867  37.408  31.520  13.570
47339W        W18868  18.102  12.126  12.106
47340W        W18869  43.083  19.301   1.282
47341W        W18870  25.076   7.106   2.760
47342W        W18871  27.510  38.752   3.746
47343W        W18872  23.899  43.448   2.779
47344W        W18873  15.698  39.379   1.497
47345W        W18874  36.674  35.517   0.357
47346W        W18875  36.935  24.381   1.831
47347W        W18876  23.056  18.658  11.757
47348W        W18877  33.805  20.819   0.488
47349W        W18878  12.604  35.895   0.610
47350W        W18879  12.102  40.796   4.574
47351W        W18880   1.427  32.355  10.643
47352W        W18881   6.887   7.841   2.285
47353W        W18882  15.516  27.906  11.103
47354W        W18883  11.378   6.800  13.053
47355W        W18884  11.720  12.805  10.800
47356W        W18885  27.491  29.943  14.880
47357W        W18886  23.274   4.861  14.196
47358W        W18887  15.796   4.467   1.260
47359W        W18888  31.109  35.042   0.749
47360W        W18889  11.841  44.668  11.906
47361W        W18890  32.629  40.043   4.836
47362W        W18891   2.061  31.092  14.320
47363W        W18892  10.536  34.456  10.821
47364W        W18893  40.605  39.981   1.238
47365W        W18894  19.525  36.028   2.711
47366W        W18895  43.857  40.111   3.718
47367W        W18896  20.469  15.579   3.162
47368W        W18897  36.414   6.047  11.882
47369W        W18898  18.830  41.504  12.862
47370W        W18899  32.304  10.001   2.067
47371W        W18900  17.994  24.500  14.829
47372W        W18901  28.017   0.795  12.898
47373W        W18902  17.575   9.871   3.558
47374W        W18903  23.172  21.747   1.903
47375W        W18904  30.508  15.379  12.223
47376W        W18905  33.490   4.022   4.085
47377W        W18906   1.878  42.927   2.719
47378W        W18907  20.048  23.240   2.622
47379W        W18908   3.859   4.340  11.904
47380W        W18909  21.269  44.338   4.446
47381W        W18910   2.902  22.341  14.489
47382W        W18911   6.701  38.542   1.426
47383W        W18912  14.976  26.059  10.698
47384W        W18913  38.711  21.457   4.661
47385W        W18914  31.164  29.613   2.121
47386W        W18915  19.122  18.877   4.994
47387W        W18916  22.682  33.183  14.058
47388W        W18917   5.679   5.549  13.298
47389W        W18918  42.509  42.535  11.207
47390W        W18919  31.906  30.148   3.260
47391W        W18920  29.263  17.209   4.545
47392W        W18921  39.707  37.887  13.130
47393W        W18922  10.952   7.653  13.536
47394W        W18923  30.974  17.277   3.598
47395W        W18924  14.866  21.204  12.904
47396W        W18925  39.047  16.726   4.079
47397W        W18926  23.031  33.399   4.579
47398W        W18927  23.916  37.837  10.810
47399W        W18928  33.504  26.721   4.590
47400W        W18929   4.578  31.738   1.162
47401W        W18930  36.096  22.727  11.703
47402W        W18931  40.036  33.313  10.600
47403W        W18932  36.945  21.210   0.053
47404W        W18933  24.331  17.147   4.333
47405W        W18934  40.115   8.776   3.116
47406W        W18935  21.609  13.339   0.416
47407W        W18936  22.270  26.586   4.584
47408W        W18937  39.352   1.014   0.140
47409W        W18938  25.194  15.206  12.839
47410W        W18939  31.807  19.661  11.429
47411W        W18940   4.434   2.932  12.566
47412W        W18941  41.828  33.539   3.864
47413W        W18942  29.224  18.429  12.930
47414W        W18943  27.876   6.491  14.039
47415W        W18944   1.426  13.249  11.444
47416W        W18945  10.633  21.063   4.100
47417W        W18946   7.708  17.939  14.299
47418W        W18947  22.680  36.004  13.832
47419W        W18948  22.100  16.445   4.215
47420W        W18949  33.148  43.918  13.511
47421W        W18950  32.589   2.049   1.454
47422W        W18951   9.688  21.167  13.002
47423W        W18952  36.062  36.359  14.348
47424W        W18953  28.367  44.513  11.232
47425W        W18954  26.426  29.569  12.899
47426W        W18955  41.590  24.085   0.895
47427W        W18956   8.644   7.855   1.012
47428W        W18957   6.793  31.966   4.746
47429W        W18958  29.310   0.302   3.789
47430W        W18959   3.243  39.699   0.981
47431W        W18960  40.038  41.062  13.099
47432W        W18961  30.328  11.839  10.759
47433W        W18962  11.587  12.892   1.822
47434W        W18963  32.952  23.927   3.310
47435W        W18964  13.603  35.457  14.798
47436W        W18965   8.742   2.693   1.931
47437W        W18966  13.318  24.668   0.698
47438W        W18967  39.105  42.267  11.121
47439W        W18968   2.977   4.231  11.610
47440W        W18969  15.093  29.748  10.524
47441W        W18970  30.656  29.997   0.376
47442W        W18971  31.600  39.106   0.387
47443W        W18972  25.028   7.630  13.427
47444W        W18973  30.368  14.616  10.766
47445W        W18974  16.662  33.871   2.500
47446W        W18975  33.355  23.534   3.116
47447W        W18976  21.796  34.874  11.551
47448W        W18977  44.446   3.696  12.424
47449W        W18978  34.882  41.578  10.745
47450W        W18979  21.494   4.432   1.433
47451W        W18980  34.187  37.477   1.054
47452W        W18981  19.055  14.183  13.379
47453W        W18982  28.013  41.557  12.702
47454W        W18983  19.263   1.402  11.367
47455W        W18984  38.614  18.647   1.129
47456W        W18985  29.304   8.622   4.029
47457W        W18986  30.180  35.908   2.794
47458W        W18987   5.050  10.038   2.380
47459W        W18988  38.427  33.554  11.306
47460W        W18989  43.915  35.670  12.779
47461W        W18990  14.601  25.021   1.391
47462W        W18991   3.747  22.179  14.979
47463W        W18992  11.827  32.306  12.842
47464W        W18993  29.143  26.889   5.181
47465W        W18994  27.613  18.829   1.051
47466W        W18995   6.174  41.839   3.650
47467W        W18996   5.878  40.646  11.566
47468W        W18997   9.099  31.579   2.793
47469W        W18998  20.803  18.291  14.475
47470W        W18999  37.034  44.546  12.930
47471W        W19000  22.214   9.652   0.916
47472W        W19001  44.944  42.656   4.686
47473W        W19002   9.857  34.569   0.761
47474W        W19003  11.778  37.060  12.064
47475W        W19004   3.643  31.952   0.006
47476W        W19005  44.763  35.412   4.121
47477W        W19006   3.988  30.171  12.482
47478W        W19007  26.976  40.738   1.405
47479W        W19008  30.352  15.272  11.500
47480W        W19009  18.700   9.413   0.575
47481W        W19010   4.663  42.799   2.804
47482W        W19011  20.985   4.270  13.439
47483W        W19012  13.379   6.368  11.810
47484W        W19013  36.434  16.297   0.372
47485W        W19014   7.938   7.742  10.793
47486W        W19015  25.313  20.302   4.798
47487W        W19016   1.936  40.332  11.111
47488W        W19017  34.695  25.111   4.876
47489W        W19018   0.631  37.996   1.779
47490W        W19019   4.551  32.456   2.482
47491W        W19020   2.246  29.630   3.457
47492W        W19021  19.470  30.601  13.013
47493W        W19022  41.335   9.779  10.766
47494W        W19023  24.174  27.025   0.018
47495W        W19024  28.985   0.314   2.211
47496W        W19025  30.382  36.181  12.452
47497W        W19026  37.937  40.830   3.776
47498W        W19027  26.139  25.730   3.425
47499W        W19028  40.868   7.324  11.528
47500W        W19029  30.970  17.742  12.515
47501W        W19030  42.357  22.203  14.362
47502W        W19031  38.775   4.310   0.781
47503W        W19032  31.687  29.400  12.084
47504W        W19033  12.678  31.164   1.345
47505W        W19034  41.019  11.122  12.560
47506W        W19035  10.228   0.995  12.017
47507W        W19036   4.373  21.462  11.153
47508W        W19037  34.786  34.324  12.002
47509W        W19038  39.663  15.048  10.524
47510W        W19039   7.659  25.105  13.410
47511W        W19040   1.137  12.359   3.690
47512W        W19041  34.346   1.166   1.384
47513W        W19042   9.886   1.549  11.788
47514W        W19043   9.894  16.680   0.533
47515W        W19044  28.911  24.890   1.813
47516W        W19045  14.766  35.245  14.674
47517W        W19046  28.865  25.205  11.159
47518W        W19047   6.061  29.863  13.089
47519W        W19048  17.270  25.909  11.156
47520W        W19049   0.488   5.195  11.976
47521W        W19050  31.010  38.076   2.585
47522W        W19051   6.750  44.409   4.426
47523W        W19052  16.328   6.757  11.950
47524W        W19053  33.533  14.532  13.964
47525W        W19054  18.288  23.071  10.800
47526W        W19055   2.696  18.317   4.286
47527W        W19056  36.042  44.068  14.436
47528W        W19057   5.401  17.276   3.198
47529W        W19058  24.488  24.178   2.617
47530W        W19059  37.668  34.316  11.058
47531W        W19060  14.762  39.752   1.446
47532W        W19061  31.859  32.901  11.528
47533W        W19062  25.027  13.131  14.563
47534W        W19063  27.035   9.566  11.182
47535W        W19064  25.976   7.343   4.275
47536W        W19065  25.999  10.421  13.432
47537W        W19066  18.714  28.036   3.933
47538W        W19067  40.968  28.027  10.632
47539W        W19068  23.174  21.136  12.782
47540W        W19069   0.244  34.995   2.745
47541W        W19070   9.268  37.029   4.106
47542W        W19071   4.896  36.926   1.236
47543W        W19072  19.636  43.038   1.717
47544W        W19073   2.957  37.446  10.398
47545W        W19074  39.931  39.231   1.158
47546W        W19075  10.073  38.384   3.932
47547W        W19076  11.610  27.909   0.798
47548W        W19077  30.879  38.786   4.824
47549W        W19078  39.901  19.313  11.521
47550W        W19079  25.799   6.192   1.053
47551W        W19080   0.630  31.571   9.813
47552W        W19081  24.631  43.810  14.439
47553W        W19082   9.667  14.259   1.404
47554W        W19083  42.975   9.209   0.893
47555W        W19084  23.206  43.935  14.809
47556W        W19085   2.739  34.890   0.489
47557W        W19086  22.611  38.877  11.355
47558W        W19087  27.918  35.079   2.516
47559W        W19088  34.313  29.679   4.615
47560W        W19089  31.021  31.116  14.498
47561W        W19090  39.466  26.645  14.721
47562W        W19091  36.560  10.208  11.153
47563W        W19092  32.445  22.068   0.902
47564W        W19093   2.943  35.981   3.304
47565W        W19094  44.157  30.329   0.408
47566W        W19095  37.787   3.419  11.115
47567W        W19096  10.892  20.016  14.751
47568W        W19097  31.275  22.607   5.066
47569W        W19098  12.353  27.112   0.759
47570W        W19099  16.686  32.607  11.919
47571W        W19100  14.730  14.091  10.565
47572W        W19101  32.607  21.545   0.956
47573W        W19102  22.778  19.429  11.155
47574W        W19103  43.551  43.998   4.052
47575W        W19104   4.212  30.435  12.088
47576W        W19105  36.964  27.328  14.491
47577W        W19106  18.620   7.576  13.434
47578W        W19107   8.477  12.916  14.865
47579W        W19108  25.077  30.312  10.705
47580W        W19109  24.158   4.239  12.038
47581W        W19110  32.851  10.426   0.906
47582W        W19111   6.403  40.006  12.126
47583W        W19112   0.243  13.727  12.686
47584W        W19113   9.116  26.704  12.118
47585W        W19114  35.669  21.595  13.933
47586W        W19115  27.934  17.834   1.436
47587W        W19116  13.730  32.388   0.999
47588W        W19117  35.610  14.522  14.675
47589W        W19118  23.613   1.745   1.352
47590W        W19119   5.918  41.465  12.998
47591W        W19120  36.594  29.404  11.130
47592W        W19121   9.439  30.461   2.348
47593W        W19122  40.146  28.387   0.964
47594W        W19123  15.135  39.384   1.595
47595W        W19124  21.761  31.029  12.503
47596W        W19125  28.376  15.821   0.325
47597W        W19126  40.989  17.652   1.676
47598W        W19127  27.967  35.340  11.833
47599W        W19128  21.094  33.285   4.566
47600W        W19129  17.533   3.869  10.552
47601W        W19130  32.983  13.601  12.213
47602W        W19131  37.987  32.505   4.700
47603W        W19132  12.236   9.735  14.867
47604W        W19133   3.341  14.341   0.903
47605W        W19134  42.012   5.948   4.159
47606W        W19135  39.333  39.759  10.522
47607W        W19136  32.956  35.913   4.602
47608W        W19137  16.530  22.499  11.159
47609W        W19138  32.603  13.861   1.357
47610W        W19139  43.461  43.898   3.170
47611W        W19140   9.306   3.813  10.720
47612W        W19141  21.489   8.304   0.786
47613W        W19142  38.737  43.647  13.313
47614W        W19143  36.879  18.780   2.967
47615W        W19144  36.305  25.427  14.446
47616W        W19145  19.201   9.094   4.221
47617W        W19146  23.512   7.175   4.875
47618W        W19147  15.171   4.840  13.240
47619W        W19148  26.864  11.672   2.223
47620W        W19149  34.083   9.293   1.871
47621W        W19150  24.125   4.051  14.618
47622W        W19151  17.397  31.058   0.440
47623W        W19152  25.070   4.786  10.786
47624W        W19153   5.078   4.283  14.806
47625W        W19154  38.633  29.035  10.903
47626W        W19155   6.314  38.605  14.063
47627W        W19156  18.275  26.914  14.838
47628W        W19157  23.692  23.670   2.186
47629W        W19158  27.489  12.103  13.446
47630W        W19159  39.274  15.877   3.766
47631W        W19160  38.274  20.081  13.119
47632W        W19161  34.406  36.957   4.900
47633W        W19162  14.291  32.614  14.545
47634W        W19163  22.182  18.364   4.601
47635W        W19164  43.482  34.565  12.620
47636W        W19165  27.496  23.034   0.811
47637W        W19166   7.354  42.804   0.231
47638W        W19167  19.313  18.039   4.521
47639W        W19168  24.150  11.146  11.340
47640W        W19169   0.567  10.165  10.670
47641W        W19170  29.686  15.545  11.501
47642W        W19171   8.678  21.069  11.157
47643W        W19172   4.955  35.006   2.349
47644W        W19173  39.490  29.188  11.030
47645W        W19174  32.156  12.383  13.126
47646W        W19175  17.116  20.701  14.371
47647W        W19176   6.389   7.942  12.558
47648W        W19177  32.816  14.109  10.533
47649W        W19178  22.607  40.291  14.589
47650W        W19179  20.276  37.453   0.278
47651W        W19180  43.176  37.590  13.349
47652W        W19181   5.955  24.383  14.076
47653W        W19182  13.105  37.247   2.203
47654W        W19183  22.784  37.804  13.575
47655W        W19184  11.090  23.960  13.894
47656W        W19185  17.289  24.957   3.243
47657W        W19186  36.442   5.146  11.728
47658W        W19187  12.208  36.859   1.941
47659W        W19188  16.762  33.265   2.651
47660W        W19189  33.564  12.128  11.108
47661W        W19190   7.212  38.615   1.329
47662W        W19191  28.889  44.779   2.662
47663W        W19192  25.678  24.919  10.116
47664W        W19193   9.433   2.924   3.254
47665W        W19194  28.330  28.926  11.945
47666W        W19195  20.003  40.284  13.666
47667W        W19196   6.836  25.966  10.671
47668W        W19197   4.807  36.718   3.633
47669W        W19198  23.240   9.079  10.940
47670W        W19199  11.863   4.310   3.868
47671W        W19200  40.306  42.418  10.974
47672W        W19201  19.593  38.273   4.679
47673W        W19202  44.721  24.187  14.980
47674W        W19203  24.197  11.346  10.872
47675W        W19204  19.524  25.024   2.808
47676W        W19205   1.216  42.320   2.870
47677W        W19206  12.410  22.318   4.078
47678W        W19207  19.646  33.320   1.359
47679W        W19208   2.380  40.830   4.658
47680W        W19209  38.857   9.804   3.910
47681W        W19210   5.757   2.849  10.531
47682W        W19211   2.348  28.359   0.809
47683W        W19212  43.283   2.661  11.656
47684W        W19213  27.516  44.715   3.383
47685W        W19214   4.144   2.684   3.305
47686W        W19215  40.019   8.436  14.966
47687W        W19216   5.405  16.451  10.546
47688W        W19217  21.996  16.580   3.224
47689W        W19218  42.807  31.185   1.379
47690W        W19219  21.368  22.127  10.697
47691W        W19220  20.711  28.512   3.773
47692W        W19221  27.919  44.623   0.720
47693W        W19222   6.404   9.760   4.183
47694W        W19223  14.765   7.017  11.574
47695W        W19224   2.522   8.967  14.822
47696W        W19225   8.665  41.719   3.219
47697W        W19226  21.233   6.737   1.755
47698W        W19227  19.756  19.514   3.204
47699W        W19228   1.897  24.791  11.649
47700W        W19229   7.864  22.985   3.215
47701W        W19230  11.589  32.869  14.443
47702W        W19231  38.183  19.225  11.238
47703W        W19232  24.034   0.417  11.132
47704W        W19233  16.066  43.889  14.348
47705W        W19234   2.865   2.258   0.295
47706W        W19235  14.088  40.632   4.899
47707W        W19236  10.413  39.256  14.761
47708W        W19237  12.595  31.965   0.552
47709W        W19238  26.749  16.507  11.982
47710W        W19239  10.114  37.912  11.973
47711W        W19240  15.804  31.957  10.869
47712W        W19241  12.399  29.999  12.586
47713W        W19242   7.238  30.048  11.596
47714W        W19243  40.469  17.108  10.902
47715W        W19244  19.516  34.629   1.758
47716W        W19245  36.438   5.321  12.548
47717W        W19246  36.669  26.027   0.858
47718W        W19247  33.935   2.377  12.503
47719W        W19248  41.976   0.688  13.160
47720W        W19249  22.201  14.541   1.822
47721W        W19250  12.794   9.399  13.512
47722W        W19251  15.223  20.580  12.410
47723W        W19252  24.119  26.470   0.524
47724W        W19253  38.573  25.927   3.285
47725W        W19254  28.108  29.411  14.475
47726W        W19255  41.972  32.173   4.509
47727W        W19256  22.368  30.146   0.807
47728W        W19257  25.800  32.313  13.316
47729W        W19258   3.920   2.391   2.890
47730W        W19259  19.795  11.080  14.507
47731W        W19260   4.509   1.855   0.167
47732W        W19261   5.944  43.325  11.205
47733W        W19262   9.748  34.497   2.724
47734W        W19263  33.994  35.911  13.361
47735W        W19264  41.703  19.772  13.011
47736W        W19265  16.734   4.861  12.459
47737W        W19266  41.982  34.873   1.623
47738W        W19267  36.821  34.555   0.171
47739W        W19268   2.891  19.143   1.291
47740W        W19269  19.855   0.159   1.834
47741W        W19270   7.937   1.536  14.932
47742W        W19271  13.245  33.688  11.418
47743W        W19272  33.863  22.087  14.050
47744W        W19273  15.088  37.577  12.058
47745W        W19274  32.947  31.198   3.283
47746W        W19275  15.168  41.847   2.022
47747W        W19276  30.408  17.059  11.536
47748W        W19277  10.743  39.009  14.436
47749W        W19278  13.343   2.850  11.957
47750W        W19279  24.102  24.083  11.495
47751W        W19280  16.322  36.350   0.002
47752W        W19281  28.665  37.620  12.477
47753W        W19282  32.454  17.747   0.245
47754W        W19283  16.100  12.485  14.308
47755W        W19284  15.591  41.474   2.691
47756W        W19285  14.725  34.163   0.978
47757W        W19286  23.395  19.019  12.591
47758W        W19287  13.151  42.369  12.883
47759W        W19288  26.187  43.754  14.462
47760W        W19289  40.961  40.361   1.469
47761W        W19290  39.924  10.416   2.097
47762W        W19291  26.029  38.411   4.090
47763W        W19292  30.707   5.743   2.075
47764W        W19293  42.438  44.029   1.270
47765W        W19294  13.891  17.642  12.358
47766W        W19295  39.071   3.846   4.081
47767W        W19296  15.020  12.983   2.390
47768W        W19297  22.220   6.430   2.867
47769W        W19298   4.421  42.012   4.147
47770W        W19299  10.586  15.114  10.997
47771W        W19300  35.461  41.884  10.924
47772W        W19301  24.630   8.751  12.467
47773W        W19302  15.337  25.539  11.877
47774W        W19303  39.153  13.294  12.471
47775W        W19304  25.076  18.915   1.206
47776W        W19305   7.132   8.597   3.216
47777W        W19306  26.542   7.441  11.901
47778W        W19307  17.605   9.185  14.917
47779W        W19308  43.245  14.365   4.996
47780W        W19309  34.269  38.995   4.016
47781W        W19310   9.410   4.071   4.032
47782W        W19311  11.317  11.959  13.969
47783W        W19312  15.271  28.719   0.418
47784W        W19313  32.919  42.315  12.640
47785W        W19314  35.291  27.526   2.429
47786W        W19315  36.557  26.277   9.920
47787W        W19316  36.562  36.442   0.956
47788W        W19317  33.679  27.639  11.091
47789W        W19318   3.697  19.566  10.176
47790W        W19319   6.856  32.606   3.431
47791W        W19320   9.702  37.111  10.563
47792W        W19321   8.699  32.311  12.981
47793W        W19322  31.472  29.124   1.424
47794W        W19323   8.474  10.999  12.258
47795W        W19324  13.336  41.752  11.118
47796W        W19325  16.365  32.931  13.424
47797W        W19326   3.849  22.222   2.228
47798W        W19327  34.996  25.225  11.689
47799W        W19328  13.359   9.731  14.025
47800W        W19329  28.218  41.471   4.638
47801W        W19330   3.411  39.501   0.079
47802W        W19331  13.282  17.999  13.367
47803W        W19332   0.658  34.342  14.181
47804W        W19333  36.301  24.108  10.873
47805W        W19334  42.548  28.228   0.151
47806W        W19335  11.320  42.402  12.105
47807W        W19336  43.894  25.437   2.223
47808W        W19337   3.379  42.977   0.959
47809W        W19338  43.469  19.271  14.214
47810W        W19339  17.629  29.660  12.860
47811W        W19340  20.072  15.789   0.779
47812W        W19341  44.410  43.571  13.386
47813W        W19342  32.120  42.506   4.478
47814W        W19343   3.608  17.490  11.003
47815W        W19344  38.135  28.603  14.758
47816W        W19345  43.778  24.835  13.915
47817W        W19346  30.108   0.927   4.459
47818W        W19347   6.866   5.006   1.117
47819W        W19348  34.343  24.261   1.215
47820W        W19349  35.937  26.486   4.248
47821W        W19350  43.057   9.698   2.272
47822W        W19351  10.216  19.662  14.797
47823W        W19352  19.614   3.924  12.654
47824W        W19353   9.890  35.370   0.316
47825W        W19354  29.121  34.854  11.669
47826W        W19355  15.252  30.584   0.451
47827W        W19356  30.108  27.040   3.675
47828W        W19357   9.167  10.357  12.344
47829W        W19358  27.946  25.729   0.843
47830W        W19359  26.635   7.876  12.934
47831W        W19360   4.339  32.912  13.601
47832W        W19361  35.572  40.905   1.445
47833W        W19362   6.367  30.908   0.113
47834W        W19363  34.481  13.524  10.556
47835W        W19364  11.191  24.440  14.037
47836W        W19365  40.855  27.608  10.917
47837W        W19366  12.125   1.567   3.311
47838W        W19367  22.035  10.751  14.023
47839W        W19368   4.409  31.549   4.143
47840W        W19369  24.430  26.193  13.994
47841W        W19370  19.017   3.794   4.671
47842W        W19371   6.365  17.748  13.865
47843W        W19372  35.414  35.086   0.445
47844W        W19373  11.672   9.402   1.925
47845W        W19374   3.002  13.739  13.087
47846W        W19375   8.910  40.341   3.571
47847W        W19376   4.737  37.829  13.958
47848W        W19377  43.790  39.308  13.489
47849W        W19378   4.200  42.852   2.342
47850W        W19379   3.510  16.823  11.105
47851W        W19380   7.705  32.656   3.904
47852W        W19381  34.068  10.071  10.891
47853W        W19382  35.760  35.565   3.196
47854W        W19383  14.274  28.575  12.875
47855W        W19384  21.120  42.877   4.573
47856W        W19385  24.146  33.623  14.230
47857W        W19386  29.072  42.465   2.890
47858W        W19387  10.673  11.070   4.084
47859W        W19388   2.306  17.386  11.201
47860W        W19389  11.289  43.810   0.781
47861W        W19390   9.886  22.508  10.668
47862W        W19391   6.882  18.079   0.967
47863W        W19392  27.227  10.516  11.935
47864W        W19393  25.772  42.503  11.107
47865W        W19394  33.598  41.375   4.076
47866W        W19395   9.205  17.540  14.949
47867W        W19396  33.137  20.635   2.242
47868W        W19397   1.760   4.022  14.757
47869W        W19398   3.354  20.842   5.163
47870W        W19399  35.556  22.481   3.287
47871W        W19400  43.991  40.791   0.418
47872W        W19401  34.679  37.844  11.226
47873W        W19402  19.774  10.584  12.046
47874W        W19403   2.467  42.924  12.859
47875W        W19404   1.183  31.221  12.605
47876W        W19405  27.456  28.282   0.899
47877W        W19406  37.101  38.555  11.483
47878W        W19407  28.134  24.711  11.650
47879W        W19408  37.067  19.517  14.855
47880W        W19409  38.558  26.738   2.287
47881W        W19410  36.526  21.032   1.879
47882W        W19411  28.729  41.522   3.362
47883W        W19412  30.367  15.179   0.030
47884W        W19413  18.106  27.770  12.097
47885W        W19414  10.805   7.100  14.876
47886W        W19415  28.506  36.601   0.799
47887W        W19416   7.773  34.458   0.225
47888W        W19417  18.514  40.872   2.471
47889W        W19418  28.094  22.723  13.830
47890W        W19419  16.062  33.422   3.847
47891W        W19420  37.340  35.943   9.724
47892W        W19421  44.575  32.207   2.797
47893W        W19422  42.903  31.086  12.699
47894W        W19423   7.911  20.639  10.882
47895W        W19424  16.018  25.533   0.223
47896W        W19425  16.522   2.177   0.926
47897W        W19426   5.373   8.855  13.561
47898W        W19427  13.505  36.067   2.772
47899W        W19428   1.863  32.594  14.003
47900W        W19429  13.109  35.986   0.803
47901W        W19430   8.306  42.328   0.343
47902W        W19431   6.417  18.200  14.747
47903W        W19432   9.393   8.588  14.709
47904W        W19433  31.623  34.183   1.715
47905W        W19434  17.742  37.763   3.367
47906W        W19435   9.792  11.903  11.436
47907W        W19436   2.158  42.428   2.842
47908W        W19437   1.014  43.721   1.604
47909W        W19438  38.136  36.379  13.511
47910W        W19439  25.067  10.822   2.252
47911W        W19440  16.047  23.772   3.649
47912W        W19441   4.199  15.394   0.027
47913W        W19442  18.740  25.011  12.256
47914W        W19443  32.383  44.192  12.062
47915W        W19444  43.658  27.247   4.137
47916W        W19445   2.549  21.681   0.917
47917W        W19446   0.273  28.369  13.594
47918W        W19447  20.084  25.681   2.323
47919W        W19448  25.510  27.681  13.049
47920W        W19449  22.787  17.216   4.950
47921W        W19450  20.119  30.567  14.691
47922W        W19451  28.305  32.550  10.201
47923W        W19452  29.949  31.085  13.556
47924W        W19453   4.372  39.091  12.045
47925W        W19454  14.001  30.473   2.574
47926W        W19455  27.933   6.815  14.436
47927W        W19456   7.944   7.149  11.629
47928W        W19457  43.910   6.699  14.869
47929W        W19458  21.580  20.816   2.302
47930W        W19459  21.296  32.075   1.781
47931W        W19460  29.917   4.875  12.658
47932W        W19461  17.942  34.563  12.881
47933W        W19462  29.657  12.896  12.608
47934W        W19463  37.361  34.018  10.656
47935W        W19464  42.218  37.474  12.437
47936W        W19465  19.529  44.995   2.775
47937W        W19466   9.644  28.334   1.331
47938W        W19467  24.563  18.666  13.880
47939W        W19468  40.469  12.797  10.332
47940W        W19469  40.005  43.301  13.340
47941W        W19470  12.537   2.454   2.212
47942W        W19471   8.825   4.635   2.825
47943W        W19472  16.448  23.919  12.412
47944W        W19473  10.913   2.037  12.486
47945W        W19474  14.793  17.866  11.973
47946W        W19475   0.961  31.796   0.235
47947W        W19476  12.077   9.375   4.522
47948W        W19477  13.591  27.223  12.512
47949W        W19478  19.772   7.897  14.689
47950W        W19479  43.309  27.453  11.183
47951W        W19480   3.854  23.499  14.483
47952W        W19481  17.458   3.377  12.898
47953W        W19482   4.000  29.111   3.865
47954W        W19483  39.275  24.353   1.858
47955W        W19484  26.864  23.058  12.614
47956W        W19485  19.751   5.098   3.658
47957W        W19486   4.801  38.959   2.353
47958W        W19487  34.079   3.666   2.327
47959W        W19488   6.241   1.918  11.170
47960W        W19489  33.013   1.794  13.219
47961W        W19490  39.251   8.213   0.788
47962W        W19491  23.048  20.482   0.729
47963W        W19492  40.684  28.104  10.196
47964W        W19493  20.995  42.998  14.409
47965W        W19494  40.995  36.250   2.720
47966W        W19495  28.398  27.118   3.226
47967W        W19496  11.045  39.486  11.887
47968W        W19497   8.609  20.056  12.200
47969W        W19498  18.505  16.190  13.981
47970W        W19499  18.655  24.719   0.476
47971W        W19500   8.161   3.702   3.963
47972W        W19501  23.277  29.105  14.019
47973W        W19502  35.114  28.858   2.248
47974W        W19503  31.531  38.576  13.190
47975W        W19504  26.770  39.845  10.242
47976W        W19505  41.427  27.698   4.562
47977W        W19506   1.234  18.705  14.583
47978W        W19507  25.984  17.556  11.170
47979W        W19508  18.050  31.117   4.200
47980W        W19509  39.377   9.211  11.524
47981W        W19510  22.208  19.026   2.309
47982W        W19511   7.249   0.063   1.402
47983W        W19512  11.636  13.688   4.124
47984W        W19513  18.220   1.751  12.042
47985W        W19514  14.906   9.588  11.169
47986W        W19515  36.937  13.200  13.797
47987W        W19516   3.328  15.878  14.900
47988W        W19517  44.271  19.686   2.193
47989W        W19518   0.355  37.766  12.788
47990W        W19519  18.261  33.065   4.921
47991W        W19520  27.692  39.905   4.421
47992W        W19521  31.550   2.182   1.315
47993W        W19522  30.645  34.321   0.282
47994W        W19523   5.689  10.749  12.198
47995W        W19524  36.430   8.641  14.869
47996W        W19525  31.857  40.430   4.839
47997W        W19526  27.594  16.551  14.197
47998W        W19527  26.542  26.560   2.795
47999W        W19528  26.544  35.653  14.741
48000W        W19529  11.457  33.663  11.393
48001W        W19530  13.645  25.380  13.553
48002W        W19531  43.468   5.715   3.906
48003W        W19532  26.527  18.016  13.098
48004W        W19533  26.858  33.434   1.195
48005W        W19534  27.371   2.907  14.955
48006W        W19535   1.240  11.209   1.258
48007W        W19536  30.274  42.648  10.050
48008W        W19537  10.179  35.731   0.673
48009W        W19538   2.375  19.686  12.101
48010W        W19539  13.298  39.764  10.930
48011W        W19540  26.588  19.102   4.905
48012W        W19541  30.937  29.993   3.204
48013W        W19542  23.935  27.413   3.252
48014W        W19543   8.162  29.936  11.565
48015W        W19544   6.625   1.794   1.805
48016W        W19545  13.582  10.338   4.069
48017W        W19546  37.314  28.453   2.238
48018W        W19547  28.200  17.123   2.343
48019W        W19548  25.189  32.115  11.181
48020W        W19549  11.368  40.723  10.200
48021W        W19550  29.692  16.161  12.565
48022W        W19551  43.068  36.944  11.138
48023W        W19552  44.445   9.128   3.545
48024W        W19553   3.000  33.037   4.817
48025W        W19554  11.216  44.885  12.490
48026W        W19555  38.440  10.686  11.201
48027W        W19556  23.232  30.068  13.874
48028W        W19557  43.277  11.321   0.007
48029W        W19558  23.968  20.618  14.070
48030W        W19559  31.700  41.745  14.733
48031W        W19560  16.495  44.770   1.296
48032W        W19561  21.266  36.516  13.509
48033W        W19562  14.117   2.738  12.552
48034W        W19563  21.304  25.380   4.151
48035W        W19564  38.170  15.157   1.101
48036W        W19565   9.653  21.105   1.750
48037W        W19566   9.134   1.882   2.896
48038W        W19567  41.846  35.082   4.584
48039W        W19568  33.036  29.396   3.370
48040W        W19569   3.964  37.377  12.834
48041W        W19570  36.468  15.626   2.766
48042W        W19571  18.207  16.633   0.543
48043W        W19572   3.745  30.739   0.229
48044W        W19573  44.261  23.785  11.640
48045W        W19574  15.623  19.805   5.062
48046W        W19575  43.849  11.669  11.689
48047W        W19576  25.220  12.441  12.736
48048W        W19577  35.967   1.312  10.687
48049W        W19578  42.472  24.716  13.159
48050W        W19579  25.460  29.142   0.800
48051W        W19580  16.858   8.057   2.405
48052W        W19581   6.287   8.108  10.341
48053W        W19582   5.160   9.299   0.635
48054W        W19583  39.364  12.560   3.181
48055W        W19584  29.318  13.784  12.149
48056W        W19585  44.370  39.772   2.531
48057W        W19586  32.750   8.319   0.925
48058W        W19587  20.322  34.976  11.483
48059W        W19588  27.022   2.836   3.221
48060W        W19589  12.826  12.339  12.497
48061W        W19590  20.499  25.515   1.946
48062W        W19591  17.496  42.327  13.633
48063W        W19592   0.948  25.206  14.479
48064W        W19593  32.427  43.961   0.372
48065W        W19594  18.305  20.541  13.337
48066W        W19595  19.503  35.759   3.993
48067W        W19596  43.493  30.616  14.507
48068W        W19597  11.899  10.882   3.700
48069W        W19598  31.670  44.229  11.571
48070W        W19599  15.559   3.189  11.580
48071W        W19600  31.879  13.270   0.938
48072W        W19601  34.796   7.379   3.767
48073W        W19602   8.798  12.591   3.838
48074W        W19603  37.311  40.418   1.154
48075W        W19604  29.947  35.926  11.530
48076W        W19605   6.654  23.128  12.654
48077W        W19606  39.360  28.157  13.605
48078W        W19607   3.901   1.070  12.185
48079W        W19608  35.882  27.026   4.445
48080W        W19609  30.879   8.865   4.510
48081W        W19610  26.659  33.186   3.789
48082W        W19611   3.144  19.804  12.088
48083W        W19612  17.729   2.943  12.836
48084W        W19613  21.674   0.010   1.788
48085W        W19614  33.508  12.797  13.380
48086W        W19615  38.842  33.546   0.487
48087W        W19616  43.824  33.993  10.215
48088W        W19617  33.037   8.870  13.793
48089W        W19618  18.159  21.723   2.626
48090W        W19619   0.781  39.220  11.065
48091W        W19620  17.350  27.221  14.808
48092W        W19621  29.594   9.450  14.805
48093W        W19622  43.603  20.047   1.329
48094W        W19623  43.217   9.618  13.934
48095W        W19624  34.934  42.582  12.833
48096W        W19625  20.522  11.360   1.312
48097W        W19626  34.398  37.315   2.713
48098W        W19627  29.693  23.141  13.395
48099W        W19628  37.578   8.785  11.146
48100W        W19629  32.786  36.246   4.989
48101W        W19630   3.410   8.962   1.913
48102W        W19631   7.761  39.815   4.334
48103W        W19632   8.333  34.176  11.523
48104W        W19633   0.815  39.063  14.564
48105W        W19634  20.698   2.883  14.338
48106W        W19635   4.189  12.307   1.363
48107W        W19636  12.164   3.953   0.883
48108W        W19637  35.321  24.936   5.124
48109W        W19638  24.041  18.097  14.903
48110W        W19639   2.225  20.739  13.815
48111W        W19640  31.610  31.273  11.206
48112W        W19641  39.336   6.566   1.662
48113W        W19642  40.758  17.101   4.182
48114W        W19643  44.234  11.083   1.151
48115W        W19644  34.732  44.066   2.387
48116W        W19645  10.179  26.373   3.620
48117W        W19646   7.356  44.091  11.603
48118W        W19647  30.494   6.662   4.609
48119W        W19648  40.239  38.478   4.222
48120W        W19649  29.907   5.077  14.583
48121W        W19650   7.913  23.220  14.048
48122W        W19651  42.359  38.905   0.889
48123W        W19652  26.639  40.273   3.378
48124W        W19653  34.665  18.497  12.921
48125W        W19654   6.327  37.761  12.579
48126W        W19655  36.384   0.449   1.924
48127W        W19656  28.453   6.290  10.978
48128W        W19657   7.588  23.038   1.729
48129W        W19658  24.669  34.398  14.739
48130W        W19659  44.486   9.385  12.047
48131W        W19660  13.351  12.735  10.231
48132W        W19661  13.377  19.453  12.590
48133W        W19662  27.399   4.349   4.049
48134W        W19663  19.583  20.573  14.432
48135W        W19664  11.435  29.608  13.639
48136W        W19665  12.627  38.966   3.932
48137W        W19666  18.812  11.869  11.203
48138W        W19667  29.077  33.980   0.752
48139W        W19668  38.636   6.301  12.563
48140W        W19669  15.809  39.903   4.682
48141W        W19670  43.369  10.495   2.364
48142W        W19671  18.550  17.959   4.070
48143W        W19672  29.098   2.027  12.395
48144W        W19673  26.385  35.630   5.120
48145W        W19674  11.302  40.992   3.121
48146W        W19675  24.171   2.328   0.337
48147W        W19676  13.428   5.168  12.520
48148W        W19677  41.519  30.659  11.603
48149W        W19678   2.522  29.295   2.779
48150W        W19679   9.937   9.259   2.273
48151W        W19680  38.046  16.810   3.878
48152W        W19681  30.541  20.989  11.638
48153W        W19682  15.284   7.619   4.326
48154W        W19683   4.862  11.133  11.904
48155W        W19684   5.297   9.825  13.023
48156W        W19685   7.325  32.400  11.219
48157W        W19686  36.965  12.203  13.070
48158W        W19687  44.805  11.533   2.869
48159W        W19688   0.186   4.313  11.080
48160W        W19689  12.317  23.952  12.302
48161W        W19690  40.934  29.988   0.676
48162W        W19691  17.812   2.349   0.231
48163W        W19692  14.199  23.824   3.400
48164W        W19693  14.282  20.818   4.600
48165W        W19694   7.655   5.676  14.976
48166W        W19695  39.797  30.397  11.246
48167W        W19696   6.908  37.067  10.724
48168W        W19697  11.798  15.750   4.548
48169W        W19698  44.442   2.520  11.119
48170W        W19699   9.985  37.661   0.766
48171W        W19700  43.946  30.869   3.994
48172W        W19701  36.444   9.116  14.615
48173W        W19702  19.791  26.202   2.307
48174W        W19703   7.379  29.610  11.842
48175W        W19704  21.434  44.474  12.107
48176W        W19705  11.323  37.996   2.230
48177W        W19706  36.863  24.574  12.198
48178W        W19707  11.317  23.944   0.881
48179W        W19708  27.993  11.898   3.156
48180W        W19709  30.027  44.373  14.727
48181W        W19710   5.080   7.308   4.111
48182W        W19711  34.637  25.631   3.626
48183W        W19712   6.020  27.023   1.729
48184W        W19713  14.044  32.990  14.300
48185W        W19714  20.126  29.916  11.048
48186W        W19715   8.158   7.414   1.700
48187W        W19716  14.728  13.697   4.829
48188W        W19717  40.748  22.187  10.791
48189W        W19718   2.232  37.481   1.184
48190W        W19719  24.102   2.320   2.782
48191W        W19720  16.078  13.035  12.714
48192W        W19721  23.238  26.102   1.688
48193W        W19722  24.427  36.129   2.803
48194W        W19723  25.721  14.996   1.852
48195W        W19724  43.493   4.942   4.318
48196W        W19725   9.744  12.774   4.804
48197W        W19726  32.128  41.984  10.969
48198W        W19727  28.191   3.284   0.227
48199W        W19728  32.005   6.021  11.620
48200W        W19729   8.699  18.130  14.350
48201W        W19730  23.649   7.072   2.754
48202W        W19731  37.870  32.917  11.515
48203W        W19732  36.592  10.791  10.882
48204W        W19733   7.180   4.872  11.508
48205W        W19734  36.094  41.539  12.060
48206W        W19735  27.480  27.233  14.923
48207W        W19736  25.996  22.582   0.627
48208W        W19737   3.851  30.964   3.040
48209W        W19738  35.516  29.247  10.498
48210W        W19739  21.028  38.150  14.005
48211W        W19740  15.656   4.954   0.513
48212W        W19741  19.036  27.364   1.338
48213W        W19742  17.620   9.309   1.393
48214W        W19743  14.577  16.570   4.049
48215W        W19744  21.957   5.800  14.054
48216W        W19745  38.348  38.540   2.157
48217W        W19746  25.692  11.836   4.196
48218W        W19747   2.713  13.705   3.111
48219W        W19748  27.549  32.916  13.507
48220W        W19749  21.712  35.109  14.275
48221W        W19750   5.478   6.887  12.680
48222W        W19751  40.200  14.545  12.842
48223W        W19752   6.822  13.223  13.891
48224W        W19753  27.746  13.523   0.225
48225W        W19754  15.152  26.997  13.456
48226W        W19755  34.171  38.038   1.275
48227W        W19756   6.337  43.828  13.475
48228W        W19757  11.052  30.644   4.098
48229W        W19758  24.224  25.624   4.644
48230W        W19759  18.261  29.994   1.535
48231W        W19760  15.331  32.694   1.457
48232W        W19761  40.803  22.240   2.783
48233W        W19762  18.512  19.044  12.844
48234W        W19763   8.678  12.041   3.090
48235W        W19764   6.950  11.788   0.070
48236W        W19765   8.248  39.569   4.400
48237W        W19766   5.620   5.194   0.994
48238W        W19767  20.926  30.170  13.839
48239W        W19768  28.394   5.648  11.655
48240W        W19769   2.623   1.359   2.697
48241W        W19770  14.386  24.442   3.817
48242W        W19771  35.300  44.841   4.737
48243W        W19772  29.415  43.125  13.020
48244W        W19773  19.250  12.764   3.744
48245W        W19774  32.486  25.512   2.237
48246W        W19775  28.922  19.469  14.255
48247W        W19776  15.673  10.708  13.536
48248W        W19777  31.581  18.975   0.695
48249W        W19778  17.124  17.824  13.010
48250W        W19779  10.540  19.435   1.375
48251W        W19780  32.074  41.317  10.331
48252W        W19781  13.862  38.047   2.851
48253W        W19782   7.928   5.521   0.449
48254W        W19783  33.702  36.557   0.823
48255W        W19784  18.529  36.533  14.392
48256W        W19785   2.985  16.441   4.095
48257W        W19786  16.447  14.322   1.185
48258W        W19787  43.282  13.338  10.446
48259W        W19788  19.977   1.819  11.184
48260W        W19789  11.799  14.070  10.507
48261W        W19790  27.549  35.011   4.584
48262W        W19791  29.705  29.146  14.912
48263W        W19792  42.120   8.910  10.316
48264W        W19793   2.953  44.700  14.531
48265W        W19794  34.851  26.767   3.441
48266W        W19795  29.266  31.563   0.737
48267W        W19796  44.973  12.818   3.784
48268W        W19797   0.189  41.871  13.845
48269W        W19798  12.942  21.686  14.957
48270W        W19799   1.461   9.403   3.801
48271W        W19800  33.696  16.048   4.921
48272W        W19801  36.971  34.158   1.493
48273W        W19802   9.082  16.787   1.886
48274W        W19803  31.086  19.030   0.520
48275W        W19804  23.031  17.513   2.879
48276W        W19805  12.552  22.198   1.870
48277W        W19806  11.733  24.486   2.652
48278W        W19807  41.904  19.319  13.078
48279W        W19808  12.273   0.741  10.943
48280W        W19809  19.310  22.626   1.831
48281W        W19810  40.931   0.376   4.738
48282W        W19811  26.623  12.697   4.112
48283W        W19812  23.470  10.920   3.219
48284W        W19813  32.612   8.649  11.147
48285W        W19814   4.201  10.272   1.275
48286W        W19815  15.432   5.538  11.815
48287W        W19816   3.314  40.603  13.868
48288W        W19817  24.062   3.965  14.061
48289W        W19818   7.860  30.598   2.352
48290W        W19819   1.776   9.914  12.855
48291W        W19820  43.089  41.522  10.364
48292W        W19821  11.143  44.329   1.011
48293W        W19822  12.317  32.823  14.016
48294W        W19823  13.226  28.562   3.633
48295W        W19824  24.420  12.770   0.772
48296W        W19825  14.624  23.690  11.169
48297W        W19826   4.265   2.287   0.957
48298W        W19827  28.047  23.549  14.922
48299W        W19828  39.882   8.760  10.691
48300W        W19829  14.333  26.155  11.923
48301W        W19830   5.188  15.034  12.419
48302W        W19831   0.425   3.993   1.252
48303W        W19832  14.583  20.231  14.719
48304W        W19833  39.941   0.072   3.541
48305W        W19834  34.665   7.128  12.930
48306W        W19835  39.017  40.445   3.114
48307W        W19836   4.336  23.032  12.671
48308W        W19837   7.405  18.266  13.579
48309W        W19838   8.863  30.927  10.894
48310W        W19839  20.759  25.469   1.105
48311W        W19840  14.237  17.645  12.782
48312W        W19841  20.037   7.201  12.649
48313W        W19842   7.252  29.573  14.163
48314W        W19843   3.003  40.356   0.315
48315W        W19844  23.611   0.837   2.855
48316W        W19845   4.860  25.389  12.975
48317W        W19846  13.390   3.316  12.901
48318W        W19847  36.004  11.321   2.770
48319W        W19848  23.636   9.489   2.782
48320W        W19849  26.644  24.144   0.724
48321W        W19850  44.267  10.238   1.264
48322W        W19851  37.835  23.686   0.953
48323W        W19852  42.965  40.236  14.341
48324W        W19853  22.153   2.680   2.355
48325W        W19854  28.940  11.957  14.266
48326W        W19855   4.188  30.029  10.679
48327W        W19856   7.398  34.307   3.014
48328W        W19857  38.297   5.106   3.764
48329W        W19858  36.995  29.932   1.312
48330W        W19859  41.267  11.727   3.290
48331W        W19860  13.749  19.728  10.499
48332W        W19861  38.355  42.487  11.570
48333W        W19862  28.394   1.248   1.713
48334W        W19863   6.289  18.398   1.289
48335W        W19864   1.661  30.949  13.368
48336W        W19865   6.753  40.517  11.643
48337W        W19866  31.597   9.123   3.214
48338W        W19867  23.983  31.368   3.384
48339W        W19868  21.279  12.770   0.259
48340W        W19869  13.111  14.359   1.810
48341W        W19870   8.378   7.054  11.937
48342W        W19871   8.684  26.004   1.602
48343W        W19872  37.469  32.029  14.206
48344W        W19873  19.600  33.986  13.940
48345W        W19874  16.690   2.522   4.056
48346W        W19875  32.224  29.624  11.307
48347W        W19876   9.345  40.881  13.043
48348W        W19877  22.151  43.128  13.500
48349W        W19878  15.286   6.564  10.719
48350W        W19879  13.551  32.959  14.392
48351W        W19880  28.881  28.313  14.537
48352W        W19881   1.746  41.142  10.635
48353W        W19882   7.783  32.050   3.617
48354W        W19883  33.994  12.562   0.527
48355W        W19884  40.601   5.933  14.384
48356W        W19885  34.340   3.460  11.889
48357W        W19886   5.457  37.562   1.153
48358W        W19887  36.809  28.687  14.878
48359W        W19888  39.564  22.144   3.751
48360W        W19889  28.068   5.659   2.676
48361W        W19890   1.602  27.148   1.482
48362W        W19891   1.843  25.026  12.521
48363W        W19892  29.630  30.248  13.794
48364W        W19893  21.517  18.049  11.486
48365W        W19894  37.436  14.085   0.516
48366W        W19895  15.183   0.939  12.877
48367W        W19896   8.178  15.685  14.487
48368W        W19897  31.976   5.565   3.525
48369W        W19898  13.582  40.511  10.612
48370W        W19899  34.214  10.107  14.505
48371W        W19900   5.288   8.049  11.107
48372W        W19901  12.061  12.766  12.170
48373W        W19902  15.101  39.512  10.543
48374W        W19903  12.414   9.952  11.453
48375W        W19904  14.057   7.784   3.200
48376W        W19905  40.968   0.353   3.314
48377W        W19906   2.436  22.602  14.037
48378W        W19907  28.362  29.943  12.036
48379W        W19908  15.722  43.914  14.794
48380W        W19909  19.508   8.817   3.881
48381W        W19910  17.027  19.937   0.488
48382W        W19911  22.098  24.499  13.796
48383W        W19912  30.339  44.381   2.996
48384W        W19913  16.733  41.344   2.679
48385W        W19914  42.305  27.958  10.546
48386W        W19915   8.363   5.164  13.466
48387W        W19916  23.929   4.240   0.049
48388W        W19917  36.996   7.104   4.819
48389W        W19918  43.669  32.364   4.535
48390W        W19919  23.748   7.712  12.061
48391W        W19920   7.675  20.043  14.726
48392W        W19921  34.921  36.859   0.951
48393W        W19922  15.911  19.025   5.126
48394W        W19923  20.369  18.091   0.303
48395W        W19924   3.824  37.951   1.254
48396W        W19925  11.745  24.231   0.706
48397W        W19926   4.144  29.126   4.935
48398W        W19927  17.751  21.096   0.869
48399W        W19928  22.009  24.642   0.747
48400W        W19929  17.234   3.172  14.241
48401W        W19930  20.160   2.669   0.046
48402W        W19931   7.869  11.397   4.150
48403W        W19932  11.427  34.448   0.206
48404W        W19933   9.088   8.757  10.718
48405W        W19934  27.423  21.475   4.042
48406W        W19935  17.198   6.504   2.844
48407W        W19936   6.822  15.557   4.531
48408W        W19937  16.230  11.712  11.548
48409W        W19938   3.250  10.301   1.908
48410W        W19939  15.032   7.996   0.929
48411W        W19940  32.012   8.837  14.747
48412W        W19941  21.662  34.191   1.220
48413W        W19942  27.928   0.272  11.462
48414W        W19943  12.781   6.457   4.779
48415W        W19944  32.870  32.226   3.290
48416W        W19945   8.717  29.243  12.573
48417W        W19946  33.490   7.255  11.705
48418W        W19947  23.616  44.793  10.665
48419W        W19948  35.759  19.734   4.421
48420W        W19949   9.631   1.707  13.057
48421W        W19950  27.306  30.916  11.781
48422W        W19951  22.505  21.272  14.250
48423W        W19952  11.812  34.028  11.425
48424W        W19953  19.015  24.492   1.729
48425W        W19954  22.612  38.894   1.833
48426W        W19955   2.217  34.848   3.239
48427W        W19956  23.188   6.659   1.285
48428W        W19957  28.733  25.655   2.275
48429W        W19958  14.159  41.155   2.799
48430W        W19959  26.996   8.666   2.821
48431W        W19960   2.799  11.790   1.966
48432W        W19961  44.960  25.150   4.543
48433W        W19962  21.542  33.026   3.221
48434W        W19963  44.705  17.695  14.835
48435W        W19964  39.471  18.060  13.569
48436W        W19965  25.297   9.299   0.397
48437W        W19966  15.581  30.517   1.801
48438W        W19967  16.026   2.401   4.519
48439W        W19968   7.573  28.049  11.163
48440W        W19969  20.700  16.883   2.629
48441W        W19970  21.790   0.453   0.790
48442W        W19971   4.860  30.613   2.363
48443W        W19972  38.653  12.956  14.798
48444W        W19973  33.030  42.442   2.180
48445W        W19974  32.152  30.850   0.314
48446W        W19975  42.775  14.613   0.825
48447W        W19976  15.547   8.228  12.383
48448W        W19977   6.384  23.650   2.897
48449W        W19978   1.314   9.825  14.814
48450W        W19979  44.903  13.723  14.948
48451W        W19980  11.212  24.103   4.985
48452W        W19981  27.111  23.498   3.227
48453W        W19982   7.768   8.692   2.694
48454W        W19983  30.072   3.709  10.767
48455W        W19984  11.157  25.404  13.921
48456W        W19985  36.376  28.607   2.375
48457W        W19986   8.297  28.996   3.124
48458W        W19987   4.403  37.403   4.245
48459W        W19988  40.806  16.324  14.088
48460W        W19989  24.552   9.086  14.749
48461W        W19990  11.032  43.708   4.507
48462W        W19991  38.108  40.806  10.899
48463W        W19992  31.024  43.048   0.497
48464W        W19993  19.743  24.233  14.977
48465W        W19994  21.397  41.506  12.097
48466W        W19995  44.308  33.814   1.397
48467W        W19996   0.693  10.169   4.958
48468W        W19997  16.073  42.287   4.244
48469W        W19998   3.165   0.566   3.622
48470W        W19999  10.136   8.169  11.281
48471W        W20000  41.875  24.698  14.311
48472W        W20001  21.757  15.192  12.140
48473W        W20002  40.511  19.950   1.707
48474W        W20003  16.232  35.964   0.358
48475W        W20004  16.111  44.045   1.832
48476W        W20005  32.528   8.328   4.570
48477W        W20006   1.210  37.506   1.363
48478W        W20007  34.550  35.003  13.393
48479W        W20008   7.200   3.638   4.046
48480W        W20009   4.712  37.818   4.172
48481W        W20010  18.555  37.906   4.582
48482W        W20011  15.613  31.518   4.991
48483W        W20012   9.847  14.672  12.039
48484W        W20013   4.166  43.736  11.444
48485W        W20014  43.752   3.978  13.601
48486W        W20015   8.955  12.407  13.113
48487W        W20016  43.903  22.194   1.035
48488W        W20017  20.143  22.309   2.192
48489W        W20018   1.369  17.711  12.485
48490W        W20019  18.171  19.932  10.185
48491W        W20020  16.272  36.142   3.422
48492W        W20021  34.890  29.887  11.164
48493W        W20022  23.781  25.177  13.060
48494W        W20023  24.079  31.815   1.811
48495W        W20024  26.543  32.311   4.033
48496W        W20025  36.959  39.366   4.184
48497W        W20026   5.542  16.049  13.500
48498W        W20027  24.219   5.014  14.429
48499W        W20028  43.996  19.920   4.342
48500W        W20029   4.366  11.590  12.507
48501W        W20030  23.094  36.892  12.027
48502W        W20031   9.860   2.722   2.700
48503W        W20032  12.622  43.398   1.983
48504W        W20033   5.784  36.611   0.420
48505W        W20034  23.195  12.786   3.641
48506W        W20035   5.864  37.888   0.401
48507W        W20036  11.917  44.996   0.873
48508W        W20037  25.931   2.685   1.827
48509W        W20038   2.144  15.621  14.062
48510W        W20039  10.657  18.770  12.798
48511W        W20040   2.479  23.086   4.524
48512W        W20041  26.551   4.871   4.608
48513W        W20042  15.349  39.426   3.588
48514W        W20043  23.199   4.703  10.693
48515W        W20044  44.641   7.454   4.179
48516W        W20045  27.632  33.545   0.877
48517W        W20046  31.661  30.854  12.022
48518W        W20047  24.126  30.240   4.242
48519W        W20048  43.904  33.769   1.723
48520W        W20049  34.611  15.267   1.684
48521W        W20050  19.026   7.683  11.221
48522W        W20051  28.089  15.119   3.303
48523W        W20052  22.601  39.921  12.850
48524W        W20053  14.726   7.059   0.937
48525W        W20054   4.337  12.604   2.781
48526W        W20055  16.373   2.682   0.900
48527W        W20056   4.471   9.949  10.478
48528W        W20057  16.253   8.436   2.328
48529W        W20058  36.598   2.906  11.003
48530W        W20059   6.131  31.667  10.710
48531W        W20060  12.686  35.044  10.795
48532W        W20061  23.035  43.065   0.389
48533W        W20062  23.828  37.799   1.955
48534W        W20063  27.684  11.753  14.803
48535W        W20064  13.047  24.296   0.478
48536W        W20065  41.049  27.045  11.631
48537W        W20066  15.289  29.079  14.198
48538W        W20067   4.953   2.651   4.422
48539W        W20068  23.223  11.298  11.507
48540W        W20069  39.852  28.693   2.863
48541W        W20070   0.355  25.411   4.333
48542W        W20071  23.688  14.707  13.522
48543W        W20072  31.271   3.110  12.621
48544W        W20073  19.689  31.684   2.467
48545W        W20074   2.734  33.456  11.958
48546W        W20075  19.969  11.121  11.254
48547W        W20076  15.728  25.980  14.915
48548W        W20077  22.288  24.342  13.328
48549W        W20078  43.224  17.041   1.265
48550W        W20079  42.532  18.355   0.452
48551W        W20080   3.077  22.769   2.673
48552W        W20081  44.787  13.876  12.931
48553W        W20082   4.576  15.582   3.644
48554W        W20083  18.852  41.946   3.740
48555W        W20084   4.134   2.909  13.452
48556W        W20085  40.584  37.273  12.548
48557W        W20086  20.080  21.356   9.843
48558W        W20087   6.812  19.216  11.963
48559W        W20088  39.312   0.652  11.590
48560W        W20089   7.250  30.512  10.786
48561W        W20090  36.807  28.088  10.962
48562W        W20091  11.764   2.194  14.538
48563W        W20092  44.745  14.579  14.406
48564W        W20093  27.411  38.637   1.799
48565W        W20094  20.160  12.630  10.889
48566W        W20095  14.520  20.121  13.360
48567W        W20096  21.673  33.942  11.468
48568W        W20097  30.642  41.949   3.334
48569W        W20098  37.310  16.570  11.219
48570W        W20099   7.436  28.524   1.700
48571W        W20100  40.813  14.270   0.481
48572W        W20101   5.031   3.844   3.305
48573W        W20102   7.057  42.961  11.035
48574W        W20103  25.348  37.022   0.246
48575W        W20104  35.837   9.270  14.012
48576W        W20105  31.389  16.647  14.838
48577W        W20106  15.712  19.492   9.813
48578W        W20107  42.099  14.698   2.387
48579W        W20108  17.850  32.804  11.867
48580W        W20109   2.953  43.355   3.110
48581W        W20110  11.639  25.977  11.918
48582W        W20111  41.940  42.275   2.740
48583W        W20112  13.579  30.660   4.123
48584W        W20113  26.532  41.477  13.633
48585W        W20114   5.422  35.397   1.470
48586W        W20115   3.767  27.949   2.364
48587W        W20116  34.368  28.088  10.757
48588W        W20117  32.134  43.385  11.611
48589W        W20118  19.784  11.620   4.662
48590W        W20119  40.916   2.263  12.933
48591W        W20120  36.015  34.849   1.750
48592W        W20121  28.654  27.022  12.516
48593W        W20122  41.675  28.467   4.885
48594W        W20123  13.606  36.373   4.783
48595W        W20124  15.304   5.639   0.500
48596W        W20125  14.186  26.492   2.116
48597W        W20126  44.609  23.057   4.822
48598W        W20127  14.772  11.636   0.434
48599W        W20128  31.807  33.781   3.119
48600W        W20129  37.844  23.098   1.764
48601W        W20130  33.961  33.494   3.309
48602W        W20131  21.575  24.041   1.837
48603W        W20132  42.146  25.712   4.311
48604W        W20133  25.031  12.357   2.228
48605W        W20134  36.055  32.990  10.961
48606W        W20135  35.996  31.102   1.572
48607W        W20136  19.581  17.679   0.507
48608W        W20137  43.100  20.335  11.328
48609W        W20138  40.014  13.130  13.582
48610W        W20139  12.112  27.047  13.860
48611W        W20140  38.341   1.417   1.120
48612W        W20141  28.279  39.491   2.010
48613W        W20142  25.732   8.208  12.923
48614W        W20143  13.831   9.714   0.570
48615W        W20144  14.012  41.022  12.090
48616W        W20145  42.103  35.950   1.950
48617W        W20146  11.035  37.125  13.506
48618W        W20147  14.790   6.062   0.653
48619W        W20148  44.437  25.084   1.890
48620W        W20149  43.468  11.243  14.113
48621W        W20150   1.254  40.340  14.728
48622W        W20151  13.649   1.752  11.256
48623W        W20152   8.157   0.856  14.482
48624W        W20153   3.420  29.206   1.816
48625W        W20154  20.428  12.166   4.872
48626W        W20155  35.491  37.620  11.589
48627W        W20156  41.823  30.660  12.946
48628W        W20157   8.398   4.151  13.393
48629W        W20158  15.103  40.390   1.377
48630W        W20159   9.810  36.174   2.246
48631W        W20160   2.095  16.036  11.173
48632W        W20161   6.850   7.459   2.656
48633W        W20162  11.453  19.881  13.008
48634W        W20163  33.642  10.622  14.284
48635W        W20164  37.388  42.547   4.584
48636W        W20165  17.211  11.404   0.431
48637W        W20166  36.875  23.125   4.101
48638W        W20167  32.460  30.893   4.939
48639W        W20168  20.260  24.287   3.649
48640W        W20169  20.347   3.218  13.063
48641W        W20170   9.352  36.050   3.248
48642W        W20171  28.863  24.788   4.644
48643W        W20172  24.259  31.550   4.851
48644W        W20173  19.223  27.063  10.669
48645W        W20174  17.186   9.382   0.529
48646W        W20175  42.277  35.025   1.212
48647W        W20176   8.015  42.978  11.261
48648W        W20177  44.723   6.843  13.112
48649W        W20178  36.040  34.545  10.797
48650W        W20179   5.691  32.541  11.608
48651W        W20180  12.583  36.544  11.229
48652W        W20181  19.376  13.334   2.703
48653W        W20182  22.195  42.109   4.062
48654W        W20183  16.528  17.710   4.526
48655W        W20184   6.262   0.344  13.391
48656W        W20185  24.949   2.418   4.105
48657W        W20186  24.937  15.622   4.170
48658W        W20187  31.099  41.117   2.392
48659W        W20188  41.404   7.866  14.840
48660W        W20189  30.882  30.697  14.877
48661W        W20190  29.134  35.350   5.514
48662W        W20191  38.023  13.840   2.724
48663W        W20192   9.148  10.728  14.679
48664W        W20193  42.548  30.127  13.343
48665W        W20194  36.531  22.060  14.904
48666W        W20195  16.248  42.741   0.292
48667W        W20196  34.928  29.858   0.809
48668W        W20197  37.985   0.749  14.478
48669W        W20198  28.161  20.056  11.231
48670W        W20199  20.237  44.376  13.877
48671W        W20200  43.988  20.801   1.335
48672W        W20201  43.232   9.733  11.005
48673W        W20202   9.739  28.884  14.769
48674W        W20203  28.254  18.984   2.638
48675W        W20204   5.748  38.919  13.933
48676W        W20205  44.095  37.881  12.566
48677W        W20206  10.687  41.269  13.041
48678W        W20207  34.136  42.281   2.852
48679W        W20208   2.924  19.019  13.332
48680W        W20209  33.705   9.711  12.514
48681W        W20210  31.161   5.400  12.456
48682W        W20211   0.751  39.536   3.593
48683W        W20212  32.061  23.279   5.089
48684W        W20213   6.999  11.790  12.409
48685W        W20214   8.366  27.925  14.753
48686W        W20215  17.851  27.776   5.203
48687W        W20216   0.847  34.004  11.166
48688W        W20217  19.031  12.136   1.794
48689W        W20218  36.637  39.134   0.430
48690W        W20219  42.593   6.416   4.690
48691W        W20220  43.752   3.837  12.863
48692W        W20221  16.153   5.062  14.364
48693W        W20222   6.022  32.166  12.998
48694W        W20223   2.898  11.176  12.569
48695W        W20224  37.277  20.001   3.223
48696W        W20225   2.619  19.581   4.547
48697W        W20226   3.473  43.799  13.561
48698W        W20227   0.884  38.406  12.662
48699W        W20228  21.986  16.720  12.966
48700W        W20229  25.851  21.160   4.649
48701W        W20230  35.818   3.342  12.037
48702W        W20231  40.788  11.438   4.650
48703W        W20232  25.743  36.604  11.231
48704W        W20233   3.162  34.079   1.943
48705W        W20234  23.448  33.743   3.653
48706W        W20235  39.103  41.820  14.841
48707W        W20236  29.611   8.448   1.942
48708W        W20237  21.238  17.761  12.156
48709W        W20238   8.953  24.550   2.664
48710W        W20239  25.200  41.450   2.316
48711W        W20240  33.108   3.173  10.930
48712W        W20241  18.130  34.099  11.552
48713W        W20242   4.760  18.432   2.294
48714W        W20243   3.009  41.396  13.922
48715W        W20244  39.789  24.186  13.063
48716W        W20245  40.540  13.304  14.842
48717W        W20246  44.451  17.509   0.266
48718W        W20247   0.908  32.867   0.483
48719W        W20248  32.082   9.448  14.070
48720W        W20249  28.565  21.314   1.363
48721W        W20250  36.624   8.398   0.338
48722W        W20251  20.163  41.775  12.809
48723W        W20252  22.726   5.676   4.646
48724W        W20253   4.759  27.251   0.073
48725W        W20254  21.098  29.972   1.558
48726W        W20255  19.208  35.120   4.666
48727W        W20256  42.738   9.933  14.957
48728W        W20257  19.753   8.712   3.401
48729W        W20258  17.675  24.073   1.694
48730W        W20259  24.085   2.779   1.976
48731W        W20260  30.571  40.360   0.225
48732W        W20261  41.175   8.155   2.557
48733W        W20262   8.350  44.323  14.299
48734W        W20263  38.700  25.422   0.871
48735W        W20264   4.916  31.547  11.795
48736W        W20265  26.570  37.930   4.575
48737W        W20266  33.575   1.544   2.609
48738W        W20267  36.050  41.943   2.263
48739W        W20268  37.802  18.980  10.913
48740W        W20269  40.907  13.606   4.124
48741W        W20270   6.347  13.139  11.008
48742W        W20271  31.375  43.297   4.643
48743W        W20272  29.381  32.000   1.482
48744W        W20273  10.581  20.504   1.348
48745W        W20274  29.217  33.616  14.872
48746W        W20275  44.545  27.465   2.185
48747W        W20276  40.515  39.924  13.439
48748W        W20277   9.572  31.853   0.851
48749W        W20278  24.301   6.403   9.928
48750W        W20279  28.087  26.517   3.998
48751W        W20280   2.727  40.920  12.487
48752W        W20281  43.053  18.023  11.760
48753W        W20282  11.289  17.731  11.585
48754W        W20283   3.414  21.826   0.536
48755W        W20284  27.959  26.069  10.405
48756W        W20285  17.820   0.945   0.809
48757W        W20286  44.931  32.118  12.624
48758W        W20287   8.568   5.450   2.354
48759W        W20288   1.008  17.129   1.465
48760W        W20289   1.856   3.014  10.787
48761W        W20290  19.386  15.381  14.287
48762W        W20291  13.702  37.361   1.000
48763W        W20292  12.546  19.110   0.805
48764W        W20293  43.204  39.033   1.292
48765W        W20294  11.245  20.006  12.405
48766W        W20295  42.261  21.975  11.086
48767W        W20296  13.934   2.402  12.898
48768W        W20297  41.475  18.724  12.868
48769W        W20298  23.569  20.260   1.757
48770W        W20299  17.996   5.293  12.081
48771W        W20300  12.612  40.348  12.553
48772W        W20301   7.938  32.932  11.208
48773W        W20302  32.176  12.554   1.343
48774W        W20303   1.829   4.020  12.007
48775W        W20304  21.250  22.465   2.272
48776W        W20305  36.292  20.786  14.334
48777W        W20306  27.465  21.107   2.304
48778W        W20307   9.786   5.359  13.860
48779W        W20308  38.089  14.405   4.124
48780W        W20309  32.991   8.825  14.452
48781W        W20310   1.512  12.719   3.529
48782W        W20311  44.009  15.693  14.285
48783W        W20312   4.413  40.729  12.950
48784W        W20313  30.568  28.999  12.725
48785W        W20314  17.348   7.225   3.173
48786W        W20315  26.036  21.332   2.429
48787W        W20316  13.349  25.943  11.698
48788W        W20317  33.178  31.365   3.713
48789W        W20318  28.171  25.080  12.485
48790W        W20319   4.366  35.331  14.358
48791W        W20320  10.963  10.258   0.971
48792W        W20321   9.555  41.517   4.265
48793W        W20322   6.784  10.413   3.334
48794W        W20323   4.278  25.225  12.551
48795W        W20324  13.697  17.663   4.396
48796W        W20325   2.360  12.639   3.073
48797W        W20326  28.636   9.261   1.913
48798W        W20327   0.196   6.810  12.900
48799W        W20328  27.109  24.728  14.461
48800W        W20329  26.000  25.719  12.590
48801W        W20330  33.613   0.083   3.721
48802W        W20331   3.315   1.340  13.058
48803W        W20332  29.485  17.582  12.381
48804W        W20333  25.487  31.867   1.195
48805W        W20334   4.448  10.438  13.621
48806W        W20335  44.561  35.119  14.275
48807W        W20336  33.481  37.450   3.602
48808W        W20337  12.640  29.427   3.127
48809W        W20338   2.700  34.115  13.834
48810W        W20339   4.805  36.631  14.567
48811W        W20340  38.639   5.300  12.290
48812W        W20341  35.939   0.883  14.957
48813W        W20342  11.176  37.665  12.145
48814W        W20343  14.285  12.387   2.906
48815W        W20344  34.681  25.677   1.239
48816W        W20345  30.577   2.465  14.362
48817W        W20346  36.536  22.384   0.307
48818W        W20347  42.271  35.020  14.407
48819W        W20348  13.659  28.709  12.547
48820W        W20349  38.858  32.677   1.933
48821W        W20350   7.895  22.870  10.626
48822W        W20351   6.100  33.036   3.324
48823W        W20352  32.385  40.531  13.758
48824W        W20353  32.126  33.387   4.376
48825W        W20354   0.065   1.760   0.272
48826W        W20355  32.058  33.360   3.347
48827W        W20356  41.313   3.915  12.655
48828W        W20357   7.628  25.138  14.409
48829W        W20358  31.821   0.489   4.192
48830W        W20359  17.651   5.609   0.758
48831W        W20360  10.698  18.923   2.788
48832W        W20361  23.858  32.874   4.506
48833W        W20362  33.984  27.070  12.208
48834W        W20363  25.113   5.007   0.675
48835W        W20364  36.601  24.753   3.707
48836W        W20365  43.943  27.927   3.337
48837W        W20366  18.535  39.082  13.542
48838W        W20367  42.267  34.354   1.756
48839W        W20368  39.047   9.515   2.421
48840W        W20369  23.715  39.581   2.579
48841W        W20370  40.532  20.614  11.978
48842W        W20371  20.235  41.487   3.557
48843W        W20372   3.837  30.911  11.081
48844W        W20373  30.877  13.297  11.886
48845W        W20374  33.839   0.539   1.759
48846W        W20375  11.376   3.022  11.173
48847W        W20376  17.838   6.428   1.280
48848W        W20377  33.427  35.901   2.823
48849W        W20378  13.008  38.287   3.242
48850W        W20379   3.804   5.360   4.325
48851W        W20380  20.234  42.174   4.837
48852W        W20381  36.616  20.920   4.279
48853W        W20382   0.480  18.138  14.629
48854W        W20383  13.268  42.466   3.002
48855W        W20384  29.976  27.144  12.331
48856W        W20385  10.940  11.417  14.303
48857W        W20386  21.516  34.550   3.646
48858W        W20387  21.670  35.422  14.711
48859W        W20388   0.383  35.190  13.004
48860W        W20389  37.290  36.349  12.890
48861W        W20390  28.191  26.533   4.507
48862W        W20391   6.818   0.779  12.300
48863W        W20392  17.389   6.691   1.191
48864W        W20393   8.576  36.871   1.469
48865W        W20394  41.082  33.568   2.318
48866W        W20395  17.658  29.966   0.741
48867W        W20396  34.436  42.948   4.646
48868W        W20397  15.725  17.048   5.063
48869W        W20398  20.577  29.999   2.831
48870W        W20399  27.518  26.412   2.415
48871W        W20400   1.134   5.976  12.942
48872W        W20401  15.082  31.829  12.013
48873W        W20402   7.295  30.502  14.054
48874W        W20403  27.569  44.206   3.472
48875W        W20404   9.839  28.148   3.740
48876W        W20405  15.542  15.584   2.815
48877W        W20406  15.787  41.306   0.171
48878W        W20407  31.093  25.105  13.425
48879W        W20408   6.968   4.298   1.960
48880W        W20409  23.031  40.987   0.064
48881W        W20410  21.666  40.363   3.265
48882W        W20411   6.261  23.003  11.647
48883W        W20412  44.221  10.657  13.014
48884W        W20413  32.428  39.803  14.926
48885W        W20414   4.203  29.198   3.300
48886W        W20415  43.817  39.569  13.955
48887W        W20416  39.350  13.697  14.753
48888W        W20417  26.039  14.502  13.006
48889W        W20418  24.971  27.395  11.605
48890W        W20419  27.155  24.487  11.163
48891W        W20420  16.628  25.938  13.398
48892W        W20421  30.204   2.645  14.774
48893W        W20422  12.299   5.250   2.301
48894W        W20423  33.541  28.204  14.002
48895W        W20424   1.869   4.838   0.496
48896W        W20425  10.415  28.429  12.550
48897W        W20426  18.499  40.307  11.040
48898W        W20427  32.090  31.137   2.415
48899W        W20428  43.456  37.980   3.217
48900W        W20429  25.082   8.203   4.619
48901W        W20430   5.262   1.958   2.843
48902W        W20431  19.249  13.758   0.263
48903W        W20432  43.427  11.980  10.323
48904W        W20433  15.177  11.835   1.802
48905W        W20434  43.843  33.085   4.039
48906W        W20435   9.706   3.143   4.380
48907W        W20436  33.632  36.513   2.665
48908W        W20437  37.691  33.022   0.991
48909W        W20438   5.901  35.357   1.272
48910W        W20439  35.375   0.839   0.082
48911W        W20440  31.021   9.251  12.133
48912W        W20441  27.231  40.445  11.596
48913W        W20442  18.863  21.114   4.135
48914W        W20443  20.085  27.853  12.007
48915W        W20444   8.361  28.125   1.158
48916W        W20445  29.522  39.371   4.681
48917W        W20446  18.323  35.941   3.216
48918W        W20447   4.696  38.789   2.834
48919W        W20448  38.881  30.958   4.759
48920W        W20449   6.366  29.542  11.608
48921W        W20450   0.226  28.429  11.699
48922W        W20451  28.476  32.733   2.849
48923W        W20452  16.098   3.264  13.475
48924W        W20453   3.957  44.558   1.460
48925W        W20454  22.527  22.326   3.605
48926W        W20455  40.235  44.686  11.132
48927W        W20456  22.251  16.650   1.025
48928W        W20457  41.364  29.453   0.004
48929W        W20458  17.709  35.829  14.812
48930W        W20459  14.438  38.967   4.638
48931W        W20460   9.729  10.321  10.487
48932W        W20461  29.192  30.004  10.741
48933W        W20462  21.763  23.820   2.745
48934W        W20463  20.209   2.211  14.770
48935W        W20464   7.818  18.990   0.752
48936W        W20465   3.493  44.859  11.597
48937W        W20466  14.582  28.152  13.018
48938W        W20467  36.004   9.311  12.045
48939W        W20468   1.212  21.697   3.715
48940W        W20469  44.447  40.367   2.668
48941W        W20470  35.556  16.190  11.103
48942W        W20471   1.885  40.926   2.378
48943W        W20472   5.303  12.149   2.722
48944W        W20473  20.503   9.787   1.274
48945W        W20474  29.161  22.959   0.841
48946W        W20475  38.151   2.426  13.086
48947W        W20476  20.530   4.930  12.536
48948W        W20477  24.539  13.160  14.779
48949W        W20478  17.663   1.440   4.304
48950W        W20479  34.946  22.747  11.596
48951W        W20480  34.562  40.886  12.228
48952W        W20481  21.195  27.649  12.842
48953W        W20482  25.011  14.655   2.138
48954W        W20483  12.737  38.147  14.553
48955W        W20484  28.404  22.455   2.677
48956W        W20485  27.938  18.122   3.665
48957W        W20486  22.654  42.865   5.202
48958W        W20487  42.048  39.924   2.829
48959W        W20488  42.448   7.420  14.040
48960W        W20489  33.639  17.646   1.925
48961W        W20490  43.886  28.218  10.932
48962W        W20491  22.179  24.224   3.747
48963W        W20492  41.338  29.811  11.596
48964W        W20493  36.587  30.732   3.191
48965W        W20494  13.949  15.624  13.936
48966W        W20495  24.367  20.737   1.284
48967W        W20496  36.340  26.140  14.824
48968W        W20497  34.380  16.847  11.046
48969W        W20498  43.958  12.139   2.792
48970W        W20499  19.961  26.540  12.670
48971W        W20500  20.478  13.045  11.025
48972W        W20501   0.290  33.161  14.787
48973W        W20502  34.203  44.988  13.045
48974W        W20503  29.092  10.317  13.852
48975W        W20504   8.691   1.663  11.252
48976W        W20505  34.027  38.897  11.552
48977W        W20506   9.892   8.058   1.955
48978W        W20507  15.150   5.482   2.631
48979W        W20508  36.869  31.512  11.456
48980W        W20509  14.813  40.825   2.251
48981W        W20510  39.921  40.210   0.741
48982W        W20511  39.430  28.449   0.324
48983W        W20512  42.261  41.236   4.796
48984W        W20513  24.607   6.785   0.129
48985W        W20514  43.990   5.547   3.915
48986W        W20515  34.182  23.329  13.716
48987W        W20516   0.213  29.711  13.096
48988W        W20517  27.997  36.553   2.376
48989W        W20518  33.187  39.798  13.832
48990W        W20519  32.652  14.034  13.510
48991W        W20520  10.304  16.262   1.778
48992W        W20521  31.078  19.572  12.909
48993W        W20522   8.224  25.193   1.253
48994W        W20523  24.450   3.430   1.202
48995W        W20524  41.851  36.499   4.233
48996W        W20525  31.684  17.443  11.563
48997W        W20526   7.445  18.889  12.458
48998W        W20527   4.435  30.520  10.671
48999W        W20528   9.901  40.319   4.641
49000W        W20529   9.473  14.435  13.750
49001W        W20530  14.129  38.288  13.599
49002W        W20531  11.698  39.563   4.421
49003W        W20532  21.739  41.095   4.598
49004W        W20533  10.007  28.485   4.475
49005W        W20534  30.665  29.462   1.947
49006W        W20535  20.157  18.258   4.570
49007W        W20536  20.492   4.156  13.205
49008W        W20537  14.543  36.698  14.428
49009W        W20538   0.440  21.237  14.992
49010W        W20539   1.209  15.872   3.375
49011W        W20540  20.097   3.511   2.242
49012W        W20541  16.121   8.426  12.440
49013W        W20542  36.106  14.603   2.722
49014W        W20543  19.527  33.017   2.354
49015W        W20544  30.084  16.638   0.113
49016W        W20545  35.433   9.800  13.388
49017W        W20546  15.650  29.281  11.168
49018W        W20547   3.460   7.708   4.583
49019W        W20548  22.977  13.375   1.451
49020W        W20549  24.149  17.248   5.174
49021W        W20550   0.979  10.611   5.003
49022W        W20551   2.412  28.445   3.854
49023W        W20552   0.282   3.277   1.710
49024W        W20553  14.612  14.855  12.348
49025W        W20554  25.828   1.120   1.035
49026W        W20555  39.734  43.884  14.742
49027W        W20556  25.096   8.457  14.520
49028W        W20557   7.882  15.642   9.945
49029W        W20558  29.020  24.778  14.402
49030W        W20559  15.385  30.141   2.126
49031W        W20560   0.302  26.192   1.904
49032W        W20561  27.121   9.706   3.099
49033W        W20562  41.352  17.255  11.353
49034W        W20563  41.128  28.781  11.068
49035W        W20564  31.192  24.857   1.651
49036W        W20565  11.666  13.798  13.832
49037W        W20566  29.460  38.974   2.637
49038W        W20567  40.727  32.628   3.245
49039W        W20568  34.768  34.404   1.406
49040W        W20569   3.303   3.450   0.786
49041W        W20570   5.747  41.009  12.421
49042W        W20571  38.374  20.738   1.841
49043W        W20572  25.724  28.486  14.343
49044W        W20573  22.095  16.664  10.801
49045W        W20574   6.843  21.992   2.261
49046W        W20575  44.474   9.902   0.909
49047W        W20576  28.002  11.549   4.124
49048W        W20577  29.174  23.751  12.943
49049W        W20578  27.550  22.088  14.838
49050W        W20579  11.820  30.230   4.112
49051W        W20580  20.595  39.021   0.505
49052W        W20581  38.817  15.774  13.914
49053W        W20582  30.594  19.817   0.295
49054W        W20583  41.839   6.612   1.658
49055W        W20584  37.935   7.636   0.430
49056W        W20585  13.596  42.430  12.615
49057W        W20586   7.225  30.999   4.304
49058W        W20587  27.225  39.395   2.761
49059W        W20588  25.102  24.726  14.947
49060W        W20589  39.674  26.972   1.772
49061W        W20590  42.378  37.089   4.954
49062W        W20591   2.553  43.087  11.537
49063W        W20592  16.732  33.801  13.949
49064W        W20593   0.379  12.120   2.251
49065W        W20594  24.785   8.342  11.064
49066W        W20595  32.803  10.764   4.872
49067W        W20596  23.690  17.748  11.382
49068W        W20597   5.226  37.790   4.038
49069W        W20598   1.993   1.033  13.875
49070W        W20599  41.455  40.037   0.540
49071W        W20600  24.018  10.759  11.675
49072W        W20601   5.304  14.825   4.590
49073W        W20602  23.587  33.974   4.424
49074W        W20603  43.785  10.602  11.678
49075W        W20604  32.562  44.993   0.393
49076W        W20605  44.502   6.198  11.206
49077W        W20606  38.298  19.220  13.025
49078W        W20607   2.359   3.456   5.203
49079W        W20608  23.165  32.280   0.282
49080W        W20609  25.565  10.821   3.584
49081W        W20610  11.845   0.345  11.541
49082W        W20611  43.801  14.541   2.195
49083W        W20612  29.970  35.768  12.378
49084W        W20613   7.796   5.466  13.971
49085W        W20614  30.526  36.632  11.675
49086W        W20615  28.273  18.371  11.273
49087W        W20616  40.602   4.792   4.183
49088W        W20617   7.612   2.678  13.960
49089W        W20618  20.445  41.567  11.845
49090W        W20619  27.398   5.240   0.826
49091W        W20620   0.309  18.656   2.265
49092W        W20621   1.843  16.887   0.976
49093W        W20622  29.509  38.443  10.639
49094W        W20623   6.919  18.693   2.682
49095W        W20624  26.194  10.729  14.322
49096W        W20625  19.854   2.162  11.629
49097W        W20626  34.077  22.586   1.283
49098W        W20627   0.763  15.723  12.118
49099W        W20628  33.445  42.753   1.471
49100W        W20629  37.303  40.237   4.137
49101W        W20630  27.083  26.975  13.037
49102W        W20631   0.453   9.227   1.686
49103W        W20632  33.616  10.804  12.999
49104W        W20633  35.236  37.329   3.532
49105W        W20634  44.222  34.585  12.885
49106W        W20635  25.234  20.185   3.654
49107W        W20636  13.073  28.971  14.986
49108W        W20637  30.952   7.690   3.683
49109W        W20638  16.381  28.666  14.869
49110W        W20639  40.592  22.564   3.121
49111W        W20640  36.070  22.838  12.683
49112W        W20641  36.728  40.711  10.762
49113W        W20642  30.178   1.573   3.846
49114W        W20643   6.602  24.116   0.521
49115W        W20644   5.146  41.374  11.672
49116W        W20645  37.514  37.068   1.959
49117W        W20646  34.031  11.258   4.180
49118W        W20647   4.784  13.774   3.897
49119W        W20648  22.665  38.024  14.064
49120W        W20649   1.514  39.028   3.392
49121W        W20650  26.890  39.989   0.062
49122W        W20651  20.869  38.704   3.750
49123W        W20652  43.345   2.699   0.685
49124W        W20653  38.768  35.045   3.297
49125W        W20654  30.602  21.117   1.712
49126W        W20655  34.804  21.066   0.520
49127W        W20656  14.281  24.436   4.715
49128W        W20657  31.411  33.115  11.556
49129W        W20658  37.419  21.742  11.887
49130W        W20659   7.144   5.780   4.432
49131W        W20660  27.861  44.368  11.156
49132W        W20661   1.865  15.267  12.836
49133W        W20662  38.566  15.615   2.630
49134W        W20663   4.328  11.307   1.199
49135W        W20664  11.604  28.041   3.575
49136W        W20665  24.198  11.570  11.614
49137W        W20666  27.177  29.908  14.453
49138W        W20667  44.720  43.621  12.435
49139W        W20668  43.310  36.791  14.809
49140W        W20669  37.137  15.739  13.468
49141W        W20670  24.126  36.883   2.415
49142W        W20671   2.517  40.400  11.939
49143W        W20672  13.773  41.014  10.692
49144W        W20673  39.518   1.252   4.024
49145W        W20674  29.886  14.824   1.798
49146W        W20675  43.254  11.717  14.042
49147W        W20676  16.121  17.253   1.929
49148W        W20677  21.687  34.754   0.386
49149W        W20678  34.977  44.879   2.926
49150W        W20679  25.317  24.576  11.485
49151W        W20680   5.708  33.084  14.458
49152W        W20681  22.627   3.792  12.020
49153W        W20682  18.725  16.385  12.632
49154W        W20683   3.181  39.100  12.947
49155W        W20684  19.071  23.019   1.637
49156W        W20685  28.388  25.436  14.283
49157W        W20686  27.807  41.786   1.683
49158W        W20687  10.302  29.226  14.082
49159W        W20688  39.411  31.584  11.189
49160W        W20689  17.546  25.537  13.947
49161W        W20690  43.978   2.078  12.839
49162W        W20691  24.115  15.119  14.057
49163W        W20692  16.103   5.775   4.405
49164W        W20693  31.117  30.020   4.791
49165W        W20694   2.763  43.144   4.859
49166W        W20695  38.402  19.080   1.502
49167W        W20696  24.517  44.190  12.097
49168W        W20697  24.630  32.028  11.867
49169W        W20698  22.508  39.567  12.436
49170W        W20699  31.709  15.545  11.218
49171W        W20700   5.687  14.032   1.750
49172W        W20701  32.921   2.673   4.319
49173W        W20702  44.860   1.755   5.014
49174W        W20703  44.417  44.943   3.799
49175W        W20704  29.044  33.020  12.138
49176W        W20705  23.026  23.491  13.980
49177W        W20706   0.865  39.179   2.356
49178W        W20707  24.661  26.193  12.542
49179W        W20708  19.331  26.983   1.519
49180W        W20709   6.301  15.338   4.605
49181W        W20710  14.304   5.304   2.251
49182W        W20711   8.719  42.497   0.979
49183W        W20712  38.570  36.612   4.725
49184W        W20713  42.524  11.438  11.166
49185W        W20714  21.359  26.643  12.974
49186W        W20715  36.310  22.525  10.410
49187W        W20716  25.691   2.405   4.700
49188W        W20717  22.261  44.327  14.454
49189W        W20718  29.184   4.935  11.639
49190W        W20719  30.235  34.930  13.825
49191W        W20720  44.395  12.318   3.069
49192W        W20721  41.619  11.644  12.085
49193W        W20722  39.563  30.156   4.560
49194W        W20723  26.994  39.539  14.806
49195W        W20724  36.021  25.288  10.581
49196W        W20725  15.467  15.162   0.359
49197W        W20726   4.801   2.973  12.931
49198W        W20727  27.914  22.887   1.717
49199W        W20728   7.755  34.067   2.343
49200W        W20729  41.874   3.054  12.486
49201W        W20730  33.957  30.930   3.314
49202W        W20731  40.108  24.931   3.317
49203W        W20732  40.267  39.755  12.974
49204W        W20733  30.071  26.517   3.697
49205W        W20734   0.742  18.489   1.858
49206W        W20735  37.095  38.476  13.552
49207W        W20736  27.245  13.244   2.910
49208W        W20737  32.374  44.237  11.141
49209W        W20738  30.535   9.698   0.860
49210W        W20739  24.323   5.075   0.374
49211W        W20740   9.034  40.596   4.956
49212W        W20741   7.822  14.941  12.090
49213W        W20742  12.505  31.060  14.989
49214W        W20743  38.277  36.422  12.991
49215W        W20744  42.777  27.517  11.098
49216W        W20745  40.276  25.016  12.564
49217W        W20746  38.824  25.261   2.024
49218W        W20747   4.852  15.663  10.660
49219W        W20748  33.611   2.220   3.724
49220W        W20749  39.291  35.536   2.781
49221W        W20750  11.100  11.765  13.373
49222W        W20751  43.369  40.944   0.601
49223W        W20752   9.621   2.148  14.385
49224W        W20753   9.145  24.956   3.627
49225W        W20754  29.466  26.018   1.655
49226W        W20755  19.238  30.116   2.407
49227W        W20756   2.517  23.619  11.568
49228W        W20757  33.636  27.994  14.920
49229W        W20758  28.389  23.404   3.441
49230W        W20759  11.605  37.841   3.833
49231W        W20760   6.340  14.832   1.480
49232W        W20761  30.685   8.366   4.650
49233W        W20762  26.041  32.212   4.150
49234W        W20763   5.162  35.328   2.884
49235W        W20764  34.033  26.044  14.333
49236W        W20765   7.553   5.876   3.067
49237W        W20766  14.557  14.441  14.480
49238W        W20767  19.711  16.067   2.291
49239W        W20768  26.939  15.360   3.607
49240W        W20769  42.315  26.241   2.114
49241W        W20770  42.818  36.964  14.653
49242W        W20771  19.768   4.647   5.119
49243W        W20772  40.893   1.135   4.474
49244W        W20773  18.496  44.942  12.753
49245W        W20774  32.957  10.442   4.483
49246W        W20775  29.046  14.755   1.434
49247W        W20776  14.356  36.855   3.178
49248W        W20777  17.987  44.786  14.970
49249W        W20778  24.541  22.806   3.951
49250W        W20779   2.198  23.168   0.782
49251W        W20780   8.841  43.268  14.460
49252W        W20781  21.780  33.596   3.916
49253W        W20782  24.094  35.361  13.463
49254W        W20783   2.366  13.488  14.015
49255W        W20784  11.405  21.548  12.085
49256W        W20785  37.435  11.337   2.299
49257W        W20786  17.710   9.108  14.423
49258W        W20787  16.684  18.845   0.221
49259W        W20788   0.007  32.011   5.473
49260W        W20789  43.221  31.511   4.160
49261W        W20790  17.707  18.520  14.952
49262W        W20791  21.665   8.819  14.869
49263W        W20792   9.263  42.940  12.613
49264W        W20793   4.352  18.142   3.198
49265W        W20794   4.090  12.612  14.956
49266W        W20795  28.859  35.597   5.156
49267W        W20796   6.796  27.533   4.816
49268W        W20797  16.300  25.290  12.865
49269W        W20798  16.749  12.415   0.321
49270W        W20799  42.765   4.749   0.623
49271W        W20800  15.169  34.530   4.264
49272W        W20801  34.994   3.478  13.414
49273W        W20802   0.290   6.771   4.433
49274W        W20803  25.960  21.718  11.998
49275W        W20804  32.537  14.678  11.865
49276W        W20805  16.776  16.111  13.498
49277W        W20806  18.842   3.539  11.218
49278W        W20807  39.456  21.142   4.144
49279W        W20808  42.809  36.469  11.228
49280W        W20809  30.791  15.664  11.875
49281W        W20810  13.293  43.525   4.190
49282W        W20811  28.984  28.488  11.081
49283W        W20812  23.034   4.459   4.142
49284W        W20813  32.675  15.426   2.319
49285W        W20814   1.441  37.742  11.690
49286W        W20815  43.502  39.418   3.036
49287W        W20816  33.871  34.806   0.818
49288W        W20817  28.757  15.855   4.067
49289W        W20818  27.893  33.482  12.989
49290W        W20819  22.455   9.193  13.751
49291W        W20820  28.383  23.959  14.998
49292W        W20821  30.030  19.935   3.158
49293W        W20822  39.029  15.275  10.733
49294W        W20823  40.298  17.928   3.855
49295W        W20824  34.308  44.590   2.252
49296W        W20825  36.390  30.541   4.531
49297W        W20826   8.201  27.115   0.183
49298W        W20827  12.412  41.574  13.848
49299W        W20828   8.731   1.136  12.605
49300W        W20829   0.103  36.719  12.832
49301W        W20830  43.241  41.409   0.404
49302W        W20831  21.062  15.304   5.091
49303W        W20832  44.373  16.912  11.659
49304W        W20833  39.367  38.459  13.502
49305W        W20834  42.979  16.149   3.177
49306W        W20835  42.447  33.653  11.131
49307W        W20836  17.277  32.685  12.596
49308W        W20837  22.998  24.013  13.977
49309W        W20838  24.053  18.218  12.823
49310W        W20839  43.363  39.299  11.975
49311W        W20840  39.047   7.069   2.751
49312W        W20841  35.276  29.337   2.334
49313W        W20842   2.047  41.594   3.225
49314W        W20843  26.976  18.343   3.696
49315W        W20844   3.762  41.253  13.416
49316W        W20845  32.368  35.370  13.565
49317W        W20846  16.673  30.439   4.579
49318W        W20847  39.078  29.088   3.202
49319W        W20848  41.726  11.253   1.817
49320W        W20849  34.070   3.798  11.524
49321W        W20850   8.338  28.970   4.654
49322W        W20851  15.587  32.235   1.462
49323W        W20852  33.846  37.351   1.915
49324W        W20853  41.217  11.275   1.885
49325W        W20854  15.803  32.131  11.696
49326W        W20855   1.925  10.725   0.755
49327W        W20856  26.635  14.793   4.061
49328W        W20857   3.365  34.555  13.165
49329W        W20858  31.795  17.373   4.310
49330W        W20859   6.588   3.994  14.400
49331W        W20860  35.893  30.597  11.542
49332W        W20861  16.649  38.070   1.001
49333W        W20862   0.855  32.572  12.555
49334W        W20863  41.085  20.473   2.892
49335W        W20864   3.429  40.934   1.903
49336W        W20865  31.843   9.719   3.875
49337W        W20866  17.150  19.324  12.814
49338W        W20867   5.157  10.376   1.662
49339W        W20868   9.319  33.564   1.842
49340W        W20869  22.969   1.782   0.910
49341W        W20870  17.621  40.279   1.753
49342W        W20871  31.886  29.773   3.629
49343W        W20872  21.595  38.264   4.340
49344W        W20873   4.376   6.781   2.288
49345W        W20874  44.302  15.872  10.745
49346W        W20875  26.477   0.982  11.559
49347W        W20876  32.939  38.556  13.357
49348W        W20877  25.267  24.408  13.599
49349W        W20878   4.226  26.651  12.999
49350W        W20879  22.145  17.526  14.892
49351W        W20880  16.791   3.436  14.388
49352W        W20881   7.351  31.528  12.170
49353W        W20882  14.833  13.112  12.533
49354W        W20883   5.484  29.995  11.577
49355W        W20884   1.937  32.330   1.290
49356W        W20885  15.504  41.210   1.381
49357W        W20886   4.384  11.945   0.395
49358W        W20887   7.184  17.918   3.479
49359W        W20888  36.555  26.210   3.628
49360W        W20889   3.415   6.719  10.495
49361W        W20890  12.253  31.470   4.891
49362W        W20891   7.227  18.708  14.845
49363W        W20892  40.800  15.853  13.886
49364W        W20893  31.893   2.547   1.488
49365W        W20894   2.933  22.792  12.142
49366W        W20895  34.629  28.987   3.471
49367W        W20896   2.313  39.534  13.864
49368W        W20897  35.266  44.461   3.266
49369W        W20898   0.409  42.795  11.094
49370W        W20899  29.961  31.768   2.761
49371W        W20900  40.421  14.570  14.378
49372W        W20901  18.596  31.010   3.306
49373W        W20902  12.426  24.242  13.865
49374W        W20903   5.386  31.178  11.179
49375W        W20904   6.197  38.456   3.672
49376W        W20905  16.165  16.364   0.417
49377W        W20906  35.406  28.126  10.927
49378W        W20907  41.073  27.637  11.937
49379W        W20908  13.278  13.802  14.278
49380W        W20909  37.748   9.924   1.825
49381W        W20910   8.190  31.471   0.055
49382W        W20911  21.441  30.629   1.331
49383W        W20912   8.361  37.088  11.109
49384W        W20913  40.600  18.727  13.386
49385W        W20914  29.506  42.513  13.966
49386W        W20915  20.211   2.500   2.368
49387W        W20916  16.343  13.749   0.423
49388W        W20917  12.823  44.883  14.319
49389W        W20918  40.498  27.656   0.318
49390W        W20919  27.311  22.092  13.328
49391W        W20920   5.264  17.995   3.684
49392W        W20921  23.145  23.128  12.443
49393W        W20922  29.128  11.613  13.421
49394W        W20923  21.286   9.291   1.172
49395W        W20924  18.678  32.416   0.893
49396W        W20925  43.546  25.277  14.625
49397W        W20926  38.966  41.005   1.953
49398W        W20927  20.209   2.169   4.589
49399W        W20928  27.644   6.539  11.422
49400W        W20929  43.764   8.247  11.614
49401W        W20930  16.374   8.276  11.123
49402W        W20931   1.532   3.368  14.017
49403W        W20932  18.686  30.427  14.797
49404W        W20933  21.111  10.673   0.051
49405W        W20934  11.179   8.221  12.967
49406W        W20935   3.703   3.722   0.444
49407W        W20936  16.169   7.230   0.374
49408W        W20937  21.585  36.137   2.999
49409W        W20938  35.279  16.260  13.104
49410W        W20939  18.997   6.485   4.171
49411W        W20940  36.656  26.121   2.644
49412W        W20941  18.535   5.954   3.146
49413W        W20942  27.001  13.438  13.375
49414W        W20943  14.616  22.526  10.670
49415W        W20944   1.455  26.167  12.404
49416W        W20945  32.988  22.530   4.666
49417W        W20946  35.554  10.190  11.156
49418W        W20947  27.509  26.709   3.404
49419W        W20948  43.527  24.584  13.079
49420W        W20949  18.766   5.809   1.833
49421W        W20950  16.606  37.259  14.977
49422W        W20951  38.358   5.753   1.854
49423W        W20952   1.154  21.415   1.756
49424W        W20953  23.104  31.588  14.908
49425W        W20954  29.096  24.521  14.843
49426W        W20955  42.287  30.413  14.565
49427W        W20956  30.180  38.185   3.669
49428W        W20957  20.701  25.551  14.043
49429W        W20958  11.882  39.417   1.231
49430W        W20959   1.789   4.526   2.316
49431W        W20960  13.065  25.147  12.586
49432W        W20961  16.427  30.174  10.340
49433W        W20962  12.671   8.853   2.820
49434W        W20963  28.619  12.109   1.902
49435W        W20964  10.621  39.236  11.670
49436W        W20965  30.892  19.286   0.938
49437W        W20966   6.356  39.040  12.170
49438W        W20967  33.577   4.691   5.223
49439W        W20968  34.741   8.891  10.214
49440W        W20969  12.779   3.708   4.569
49441W        W20970   2.895  11.159  13.071
49442W        W20971  20.327  10.417  13.466
49443W        W20972  38.628  19.302   3.225
49444W        W20973  28.101  27.453  12.447
49445W        W20974  39.060  16.223  14.387
49446W        W20975  31.950  27.337   5.511
49447W        W20976  36.564  21.426   0.464
49448W        W20977  22.528   9.740   3.659
49449W        W20978   9.436  29.660  14.355
49450W        W20979  30.878  43.389   3.868
49451W        W20980  38.492  13.607   0.995
49452W        W20981  14.660  33.887  14.991
49453W        W20982  16.198  20.696  14.935
49454W        W20983  22.608  43.010   2.803
49455W        W20984  32.942  17.785   0.791
49456W        W20985   0.810   6.887  13.364
49457W        W20986  16.593  42.788   2.253
49458W        W20987  43.185  14.280  13.690
49459W        W20988  17.205  24.595  10.996
49460W        W20989  19.504  26.592   4.448
49461W        W20990   6.169  13.328   3.268
49462W        W20991  14.181  20.794   0.467
49463W        W20992  34.177  26.895   3.785
49464W        W20993  16.134  43.963   3.727
49465W        W20994  16.312  15.590   3.133
49466W        W20995  22.788   3.645   1.214
49467W        W20996  14.786  36.009   0.892
49468W        W20997  30.691  31.430  13.340
49469W        W20998  10.822  21.428  13.481
49470W        W20999   3.645  30.160   0.781
49471W        W21000   9.887  16.176   0.815
49472W        W21001   3.978   6.227  13.801
49473W        W21002  14.827  36.829   1.867
49474W        W21003   7.024  13.558   2.844
49475W        W21004   9.198   2.496  14.374
49476W        W21005   8.770  36.843  14.491
49477W        W21006  41.952   6.350   0.326
49478W        W21007   9.790   5.912   0.747
49479W        W21008  17.116   0.987  12.678
49480W        W21009   1.722   2.937   1.674
49481W        W21010  17.677  24.766  13.017
49482W        W21011  29.194  41.030  13.323
49483W        W21012  22.900  13.233  13.989
49484W        W21013  31.631  30.081  12.421
49485W        W21014  43.536  40.317  12.553
49486W        W21015  38.330  27.162   2.842
49487W        W21016  13.765  17.273   4.732
49488W        W21017   0.341  22.771   3.160
49489W        W21018  13.922  38.528   0.011
49490W        W21019   4.412  22.256  10.696
49491W        W21020   5.958  14.400  12.639
49492W        W21021  28.506  11.632   0.658
49493W        W21022  36.546  41.237  11.941
49494W        W21023  32.369  13.253  14.585
49495W        W21024  39.313   7.110  13.061
49496W        W21025  37.166  24.900   4.728
49497W        W21026  22.605  35.083   4.679
49498W        W21027  15.046  44.757  10.839
49499W        W21028  19.156   2.155   0.288
49500W        W21029  36.259  37.799  11.959
49501W        W21030  20.797  38.462  14.366
49502W        W21031   9.649  23.481   4.189
49503W        W21032  22.728  17.109   2.091
49504W        W21033  21.550   2.759  11.257
49505W        W21034  29.042  28.840  11.462
49506W        W21035   2.646  38.789  10.585
49507W        W21036  35.291  38.538  11.723
49508W        W21037  25.923   6.263  12.161
49509W        W21038  23.196   2.248   0.505
49510W        W21039  22.312  10.319  12.376
49511W        W21040  32.013  44.517  14.829
49512W        W21041  33.642  13.389  14.702
49513W        W21042   6.105  25.983  14.501
49514W        W21043  32.424  44.601   2.332
49515W        W21044  26.541  35.859   3.172
49516W        W21045  18.552  17.054   1.466
49517W        W21046  43.639  34.662   4.193
49518W        W21047  37.072  24.696  13.481
49519W        W21048  42.295  36.976  14.475
49520W        W21049   7.173  18.684  13.807
49521W        W21050  38.936  27.474  12.501
49522W        W21051  28.302  41.940   0.069
49523W        W21052  26.143  19.617   2.935
49524W        W21053  20.006  12.129   1.394
49525W        W21054  10.238  31.316  14.883
49526W        W21055   4.461  30.656   4.573
49527W        W21056  32.349   7.151   1.683
49528W        W21057  37.572  27.189  12.762
49529W        W21058  25.929  25.933   4.074
49530W        W21059  31.075  17.556   1.589
49531W        W21060   3.474  16.454   4.774
49532W        W21061  29.051  41.621  11.412
49533W        W21062  42.109   1.720  14.031
49534W        W21063  34.066  33.825  12.557
49535W        W21064  23.785  34.925  13.807
49536W        W21065  13.786  32.011  14.334
49537W        W21066   9.365   9.180   3.111
49538W        W21067   9.862   4.028  13.940
49539W        W21068  37.064   4.916   2.749
49540W        W21069   8.429  21.660  12.954
49541W        W21070   4.620  17.765  14.430
49542W        W21071  14.064  10.921  11.796
49543W        W21072  32.540  38.291   1.261
49544W        W21073  42.544  29.600   3.284
49545W        W21074  41.823  17.584   2.232
49546W        W21075  42.345  27.008   0.299
49547W        W21076   4.742  35.011  13.637
49548W        W21077  17.072  10.578   3.901
49549W        W21078  35.366   5.325  14.748
49550W        W21079  17.200   2.267  14.968
49551W        W21080   8.734  41.283   2.934
49552W        W21081  41.825  43.342   1.320
49553W        W21082  23.047   1.851   4.322
49554W        W21083  43.055  34.102  14.896
49555W        W21084  44.659   5.338   1.302
49556W        W21085  10.966  40.239  11.579
49557W        W21086   4.849   3.044  12.302
49558W        W21087  27.153  11.463   3.075
49559W        W21088  20.002   3.180  14.927
49560W        W21089  28.499  32.029  11.777
49561W        W21090  38.909  20.640   4.118
49562W        W21091  29.584  34.818   1.802
49563W        W21092  30.010  17.554   3.397
49564W        W21093  36.103  21.064   4.363
49565W        W21094  33.250  21.771   4.158
49566W        W21095   8.271  12.935   2.113
49567W        W21096  15.318  22.116  10.810
49568W        W21097  32.517  19.184   4.436
49569W        W21098  28.054   8.520  12.925
49570W        W21099  10.709  34.639   1.481
49571W        W21100   3.467  32.567   1.406
49572W        W21101  22.783  28.912   3.782
49573W        W21102   2.885  15.571  14.992
49574W        W21103  32.552  30.043  12.901
49575W        W21104  31.289  25.810   3.168
49576W        W21105   9.211  20.043  12.620
49577W        W21106  12.440  10.113   0.668
49578W        W21107  40.552  11.192  11.627
49579W        W21108   4.928   5.783  13.847
49580W        W21109  12.714  10.573  12.010
49581W        W21110  37.396  37.762  14.923
49582W        W21111   2.146  40.590  14.813
49583W        W21112  35.864  27.511  13.068
49584W        W21113   6.091  13.348   4.102
49585W        W21114   2.271  35.058   4.952
49586W        W21115  33.921  22.603   3.169
49587W        W21116   9.124  12.330   3.537
49588W        W21117  18.348   4.250   1.780
49589W        W21118   3.835  11.715  14.062
49590W        W21119  31.170  12.739  12.462
49591W        W21120  23.451  40.522   2.860
49592W        W21121   2.281   8.528  11.550
49593W        W21122  34.529  15.212  12.978
49594W        W21123  21.438  27.682  11.503
49595W        W21124   7.704   6.177  14.802
49596W        W21125  31.847  17.017  12.524
49597W        W21126  18.229  18.322  11.877
49598W        W21127  14.651   4.918  11.123
49599W        W21128  21.113   0.805   1.777
49600W        W21129   0.021  30.233   3.584
49601W        W21130  19.663  36.309   2.174
49602W        W21131  30.457  44.138  12.038
49603W        W21132  30.134  10.285  12.625
49604W        W21133  29.380   9.159   3.272
49605W        W21134  39.643  40.069  12.108
49606W        W21135   6.695  12.878  12.066
49607W        W21136   4.016   3.621   2.119
49608W        W21137  22.177  42.767   2.641
49609W        W21138  27.504  28.551  12.594
49610W        W21139   1.847  43.797  13.979
49611W        W21140  34.269  28.486   0.339
49612W        W21141  39.352  17.506   0.881
49613W        W21142  40.981  31.913   3.986
49614W        W21143  31.586  26.549  10.755
49615W        W21144   1.439   0.247  12.058
49616W        W21145  20.840  40.483  13.744
49617W        W21146  10.706  16.819  12.982
49618W        W21147  44.484  20.512   1.308
49619W        W21148  38.404  35.214   0.755
49620W        W21149   4.749  44.334   2.572
49621W        W21150  23.653  35.155   4.728
49622W        W21151   2.503  17.650  11.619
49623W        W21152   8.435  13.121  11.488
49624W        W21153  18.800  29.095   3.612
49625W        W21154   3.004  16.191  13.818
49626W        W21155   5.601  40.803  11.973
49627W        W21156   7.294  41.823   1.707
49628W        W21157   7.008  44.211   3.578
49629W        W21158   5.213  24.200   3.763
49630W        W21159  27.164  22.773   0.447
49631W        W21160  29.511  27.558   0.544
49632W        W21161  40.056   5.694   2.701
49633W        W21162  37.481  16.245  13.030
49634W        W21163  25.540  37.007   3.128
49635W        W21164  34.519   0.068   0.326
49636W        W21165   5.171  14.600   2.323
49637W        W21166  36.172  32.180   2.695
49638W        W21167  16.192   4.466   2.555
49639W        W21168  15.073  25.821  14.288
49640W        W21169  20.096  42.395   0.221
49641W        W21170  30.072  39.597   2.336
49642W        W21171  10.256   4.012  14.266
49643W        W21172  30.575  38.616   0.773
49644W        W21173   8.669  26.889  14.386
49645W        W21174  36.867  29.479  11.537
49646W        W21175   9.442  28.418   1.791
49647W        W21176  26.219   2.826  14.307
49648W        W21177  25.155   4.344  11.084
49649W        W21178   0.317  21.757   0.538
49650W        W21179  40.452  15.065  11.141
49651W        W21180  43.038  24.395   4.756
49652W        W21181  29.960  18.983  10.976
49653W        W21182   3.413  31.138  13.567
49654W        W21183  24.674  10.199   2.468
49655W        W21184  41.538  23.939  11.591
49656W        W21185  33.989  19.090  11.167
49657W        W21186  13.963  31.286   1.397
49658W        W21187  21.135   3.258  11.281
49659W        W21188   5.708  42.641  13.322
49660W        W21189  33.977  18.998   3.415
49661W        W21190  42.252  37.342  11.104
49662W        W21191  16.114  40.251   0.375
49663W        W21192   0.190  20.584  13.001
49664W        W21193   4.230  30.343  10.227
49665W        W21194  37.466  33.864   0.264
49666W        W21195  25.539  31.862  12.909
49667W        W21196  14.300  11.190   0.553
49668W        W21197  33.387  25.367  14.476
49669W        W21198  23.791  12.378  11.533
49670W        W21199  41.473  41.840   1.387
49671W        W21200  25.306   9.428  14.239
49672W        W21201   0.350   1.215   3.349
49673W        W21202  17.696  41.971  14.007
49674W        W21203  23.996   3.200   4.685
49675W        W21204  15.380   6.873   0.229
49676W        W21205   1.277  43.550   2.393
49677W        W21206  29.625  36.543   3.268
49678W        W21207  44.632  13.106   4.073
49679W        W21208  40.978   5.231  13.090
49680W        W21209   8.419  43.955  13.175
49681W        W21210  19.081  43.469  13.518
49682W        W21211   2.132  32.056   0.895
49683W        W21212   4.972  24.700   3.658
49684W        W21213  20.122  30.588   2.246
49685W        W21214  21.538  22.554   3.105
49686W        W21215   9.067  28.197   5.052
49687W        W21216  20.025  14.323   4.207
49688W        W21217   3.107  16.530  11.615
49689W        W21218  39.452  43.243   1.381
49690W        W21219  40.805  26.221   1.309
49691W        W21220  37.586  24.839   2.449
49692W        W21221  11.656  39.505  12.053
49693W        W21222  24.187  30.254  11.647
49694W        W21223   3.690  32.666   1.868
49695W        W21224   6.828  30.711   0.264
49696W        W21225  38.132  34.880   1.081
49697W        W21226   3.019   2.899   1.325
49698W        W21227  11.409  22.607  14.124
49699W        W21228  27.228  28.887   4.756
49700W        W21229  17.657  35.645   3.811
49701W        W21230   3.505  32.762   5.113
49702W        W21231  30.542  29.599  13.896
49703W        W21232  38.544  35.924  11.215
49704W        W21233  10.383   9.163  13.368
49705W        W21234  40.524  10.908   0.775
49706W        W21235  14.237  34.253   4.381
49707W        W21236   3.411  10.301   3.245
49708W        W21237  36.920  26.463  10.302
49709W        W21238  18.591  37.919   0.684
49710W        W21239  44.460  12.104   0.216
49711W        W21240  37.895   3.453  13.481
49712W        W21241   7.405   2.232  10.576
49713W        W21242   1.832  19.820  12.001
49714W        W21243  43.715   4.832  14.494
49715W        W21244  41.492  24.075  14.126
49716W        W21245   3.792  18.065   2.210
49717W        W21246  44.874  41.610  10.754
49718W        W21247  41.681  43.211  12.820
49719W        W21248   7.838  28.248   1.557
49720W        W21249  11.279   5.463   3.160
49721W        W21250  25.968  33.872   0.764
49722W        W21251   8.909   7.949  14.382
49723W        W21252   1.824  41.273  12.539
49724W        W21253  35.281  12.576  11.946
49725W        W21254   2.619  32.912   1.741
49726W        W21255  41.311  12.598   1.887
49727W        W21256  27.969  27.630   1.933
49728W        W21257  23.062  13.578  13.026
49729W        W21258  14.129   1.890   2.851
49730W        W21259  37.598  43.075  10.391
49731W        W21260  27.066  15.843   3.419
49732W        W21261   5.195  35.948   2.137
49733W        W21262   2.420   0.884  12.481
49734W        W21263  24.662  40.504   2.368
49735W        W21264  32.660  34.846   3.140
49736W        W21265  28.255  20.142  11.870
49737W        W21266  32.993  10.090  14.112
49738W        W21267   0.737  31.597   5.154
49739W        W21268  43.622  44.893  12.206
49740W        W21269   9.163   2.491  13.283
49741W        W21270  11.767  32.382  14.447
49742W        W21271  28.557   8.426  14.153
49743W        W21272  42.819  16.604   4.939
49744W        W21273  24.897  27.897  11.341
49745W        W21274  18.523  24.398   1.470
49746W        W21275  19.214  15.789   2.859
49747W        W21276  19.781  36.534  14.877
49748W        W21277  34.547  36.051   4.015
49749W        W21278  19.658  14.004   0.690
49750W        W21279  13.416  27.252   0.036
49751W        W21280  31.952   9.298   2.868
49752W        W21281  10.176  10.526  11.176
49753W        W21282  16.944  14.584  12.051
49754W        W21283  14.996  18.205   4.391
49755W        W21284  41.289  32.101   1.416
49756W        W21285  31.499  28.041  13.811
49757W        W21286  39.113  38.880  13.921
49758W        W21287  38.904   2.437   5.077
49759W        W21288  13.143  21.486   1.740
49760W        W21289   5.314  43.201  11.003
49761W        W21290   4.241   2.656  12.152
49762W        W21291  35.336  13.351   1.265
49763W        W21292   3.862  28.572   1.655
49764W        W21293   0.044   5.267  11.066
49765W        W21294   0.548  13.794  13.808
49766W        W21295   1.847  29.459   3.132
49767W        W21296  16.365  31.067   2.866
49768W        W21297   8.720   2.173  13.053
49769W        W21298  16.282  11.820   0.391
49770W        W21299  39.538  35.798   1.728
49771W        W21300   8.055  31.120   0.620
49772W        W21301  10.561   7.283  13.586
49773W        W21302  38.721  33.459  12.943
49774W        W21303  40.556   1.459  14.954
49775W        W21304  22.371  33.257  13.657
49776W        W21305   0.951  34.118   3.901
49777W        W21306  33.683  40.022   0.369
49778W        W21307   2.597   0.457   0.260
49779W        W21308   8.369  11.269   4.300
49780W        W21309  31.126   1.358  13.028
49781W        W21310   6.108  19.597   5.006
49782W        W21311  39.484   6.699   2.153
49783W        W21312  29.540  29.220   0.794
49784W        W21313  24.642   3.722   2.829
49785W        W21314  42.908  18.832   1.247
49786W        W21315  32.476  18.776   1.311
49787W        W21316  27.064  19.098   2.455
49788W        W21317   1.023  30.908   1.928
49789W        W21318  29.022  21.785   2.423
49790W        W21319  32.335  28.140   1.013
49791W        W21320  12.339  36.514  13.538
49792W        W21321  33.876  16.246  11.581
49793W        W21322   7.784  17.084   0.743
49794W        W21323   5.822   2.281  11.716
49795W        W21324  17.811  33.319   4.672
49796W        W21325  38.439   4.012  12.509
49797W        W21326  18.082  22.232   2.407
49798W        W21327  43.363   1.128   2.657
49799W        W21328  16.072  40.352   4.632
49800W        W21329  16.182   5.656  12.178
49801W        W21330  25.780  12.297   3.206
49802W        W21331  22.753  28.144   3.079
49803W        W21332  21.464  21.249  13.479
49804W        W21333  12.099  33.538  14.809
49805W        W21334  32.133  22.405  10.395
49806W        W21335  16.220  42.632   1.876
49807W        W21336  13.579  27.342   4.779
49808W        W21337   2.794  10.388   2.804
49809W        W21338  15.764  34.854  11.035
49810W        W21339  33.345   9.818   1.780
49811W        W21340  43.375  24.139   1.266
49812W        W21341  29.197   0.356  11.596
49813W        W21342  22.639  22.075   4.065
49814W        W21343  28.578  13.334  14.383
49815W        W21344   9.911  30.098   0.820
49816W        W21345   5.815   8.205  12.427
49817W        W21346  44.841   2.181   0.455
49818W        W21347  41.394  14.831  10.442
49819W        W21348  39.017   7.714  11.692
49820W        W21349  11.355  21.299   3.410
49821W        W21350  34.577  10.901   3.826
49822W        W21351   5.566  31.425  14.723
49823W        W21352  43.230  22.579   3.570
49824W        W21353  15.742  20.637   3.842
49825W        W21354   5.274  12.646   1.782
49826W        W21355  13.934  44.754  12.073
49827W        W21356  20.806  29.987   2.146
49828W        W21357  18.167  41.164   2.736
49829W        W21358  25.225   2.232   1.497
49830W        W21359  23.726  40.416  11.656
49831W        W21360  43.112  13.356   4.689
49832W        W21361  33.602  21.051  14.806
49833W        W21362   2.370  13.847   2.704
49834W        W21363   5.307  14.744  11.118
49835W        W21364  28.615  32.966   2.073
49836W        W21365  26.927  28.962  10.734
49837W        W21366  41.414  42.497   4.057
49838W        W21367  27.426  40.034  12.123
49839W        W21368  23.178  25.229   3.613
49840W        W21369  22.450  35.009  13.082
49841W        W21370  11.102  27.622   4.192
49842W        W21371   0.802  42.973   3.273
49843W        W21372   8.340   0.488   1.730
49844W        W21373   3.124  15.906  12.784
49845W        W21374  13.754  11.604   1.924
49846W        W21375  13.050  21.999   1.832
49847W        W21376  38.708   5.220  14.434
49848W        W21377   0.320  39.108  14.326
49849W        W21378  43.440  18.708   3.180
49850W        W21379   4.316   9.785  12.385
49851W        W21380   7.289  40.345  12.585
49852W        W21381  32.908  13.954  12.572
49853W        W21382  23.288  41.329   4.884
49854W        W21383  15.161  20.776   0.043
49855W        W21384  12.534  33.044   3.204
49856W        W21385  20.793  35.894   0.828
49857W        W21386  21.545  16.168   1.385
49858W        W21387  18.672   3.285   2.267
49859W        W21388  15.317  31.294   3.870
49860W        W21389  39.316  40.706   1.179
49861W        W21390  20.060  24.214   4.534
49862W        W21391   3.818  23.472   2.821
49863W        W21392  44.396  14.636  10.372
49864W        W21393  39.314  38.283   2.311
49865W        W21394   8.757  26.677   1.860
49866W        W21395   5.954  16.741   2.756
49867W        W21396  23.515  17.827  10.928
49868W        W21397  24.695  12.858   1.212
49869W        W21398   4.051  42.409   1.253
49870W        W21399  35.409  11.902  11.171
49871W        W21400  12.830  36.810   4.263
49872W        W21401   5.368  14.435  11.595
49873W        W21402  14.210   5.987  14.546
49874W        W21403  15.044   4.622   2.344
49875W        W21404   6.524  16.663   0.009
49876W        W21405  14.794  20.312  12.519
49877W        W21406  19.999   4.114   1.161
49878W        W21407  31.143  16.541   4.078
49879W        W21408  11.564   9.570  13.931
49880W        W21409   2.375  44.359  13.325
49881W        W21410  41.722  26.413  12.957
49882W        W21411  37.248  22.181  13.508
49883W        W21412  37.849   5.675  10.790
49884W        W21413  19.613  16.225  14.315
49885W        W21414  44.479  10.294  14.913
49886W        W21415  44.242  14.836   1.650
49887W        W21416  24.213  20.101   0.776
49888W        W21417   0.939  11.398  14.255
49889W        W21418   5.764  26.507  10.957
49890W        W21419  43.393  42.439  14.764
49891W        W21420  18.106  26.929  13.429
49892W        W21421   9.630   0.884   1.068
49893W        W21422  21.015   6.324   3.066
49894W        W21423  29.308  29.435  11.118
49895W        W21424  43.488  12.121   3.279
49896W        W21425   2.861  36.420   3.726
49897W        W21426  32.043  10.257  10.850
49898W        W21427  15.144   5.211   0.839
49899W        W21428  21.026  10.614   2.297
49900W        W21429   5.621   3.408  12.497
49901W        W21430  30.038  18.102   2.470
49902W        W21431  25.092  25.016  12.828
49903W        W21432  14.854   9.884  14.265
49904W        W21433   5.747   0.402   3.915
49905W        W21434   0.781  22.570   0.166
49906W        W21435  12.132  14.620   4.484
49907W        W21436  11.070  19.963   1.332
49908W        W21437   8.834   5.862  14.970
49909W        W21438  29.621  16.526   3.474
49910W        W21439  17.704  18.726  11.511
49911W        W21440  37.487   9.102  10.313
49912W        W21441  11.089  29.980  13.497
49913W        W21442  17.195  37.307  14.189
49914W        W21443  42.286  17.594  12.911
49915W        W21444  43.901  36.975   2.346
49916W        W21445  27.915   5.817  10.064
49917W        W21446  35.667  25.490   0.753
49918W        W21447  36.296  40.487   4.132
49919W        W21448  33.961  17.996  12.368
49920W        W21449   4.426  32.050   4.170
49921W        W21450   9.890  21.897  12.948
49922W        W21451   4.445  19.184   1.193
49923W        W21452  36.872  13.911   1.331
49924W        W21453  14.129  19.196  14.746
49925W        W21454   9.853  43.446   3.714
49926W        W21455   4.399   1.348  10.591
49927W        W21456  27.132   7.113   3.794
49928W        W21457  10.197  41.731   3.663
49929W        W21458   1.346  21.077   0.296
49930W        W21459  43.901  25.473  12.486
49931W        W21460  39.014  31.066   2.382
49932W        W21461  30.321  34.889   2.805
49933W        W21462   8.131  16.890  13.887
49934W        W21463  34.951  31.535   4.467
49935W        W21464  14.366  14.760  13.600
49936W        W21465  39.483   0.873  12.077
49937W        W21466  14.317   9.768  13.596
49938W        W21467  42.332  38.134  14.842
49939W        W21468   2.805  40.072   1.730
49940W        W21469  31.442   8.841  12.870
49941W        W21470  13.129  37.259   1.686
49942W        W21471  13.327  43.423   3.317
49943W        W21472  43.138   5.399  11.027
49944W        W21473   5.376  33.122  14.052
49945W        W21474  17.549  23.649   3.655
49946W        W21475  18.597   6.796   4.174
49947W        W21476  20.380  25.678  11.155
49948W        W21477  42.703  15.639   4.156
49949W        W21478  25.912  44.849   2.766
49950W        W21479  10.251  33.943  11.983
49951W        W21480  36.004  10.663   2.839
49952W        W21481  13.414  11.743  12.940
49953W        W21482  12.615   6.227  14.846
49954W        W21483  44.507  23.209   0.284
49955W        W21484  12.270  16.239   4.438
49956W        W21485  13.822  17.379  12.913
49957W        W21486   9.229   5.397  13.761
49958W        W21487  27.536   7.026  11.540
49959W        W21488   2.942   5.897   3.429
49960W        W21489  14.420  38.660   3.722
49961W        W21490   2.827  28.930  12.777
49962W        W21491  24.525   7.503   1.703
49963W        W21492  28.707  33.592  14.816
49964W        W21493   5.108  13.652  12.050
49965W        W21494   4.465  37.107   0.974
49966W        W21495  30.432   7.392   4.577
49967W        W21496   3.219  39.342   3.126
49968W        W21497  30.539  20.033  10.615
49969W        W21498  35.117  40.619   0.350
49970W        W21499  20.785  11.351  11.571
49971W        W21500  37.009   6.734  14.232
49972W        W21501  31.030  18.498   1.874
49973W        W21502  17.243  25.611   4.180
49974W        W21503  16.133  30.183   2.663
49975W        W21504  10.820   9.148   0.837
49976W        W21505  38.971  25.054  12.100
49977W        W21506   8.265  31.457   3.670
49978W        W21507   2.312  34.091  11.811
49979W        W21508  26.451  23.151  14.362
49980W        W21509  27.493   6.627  11.932
49981W        W21510  17.534  44.901   1.389
49982W        W21511   4.870  38.304   4.179
49983W        W21512  28.775  36.578  13.858
49984W        W21513  27.387  40.960  12.021
49985W        W21514  44.048  13.520  12.123
49986W        W21515  35.524  10.840   4.655
49987W        W21516  16.264  16.196  13.396
49988W        W21517  37.349  43.929   1.383
49989W        W21518   6.038  25.491   3.739
49990W        W21519  32.105  28.185  13.315
49991W        W21520   7.520  37.297  12.533
49992W        W21521   8.940  27.934  12.009
49993W        W21522  38.896   5.346  10.126
49994W        W21523  11.836  37.110  13.006
49995W        W21524  42.522  12.644  11.653
49996W        W21525  28.432  33.501  12.888
49997W        W21526   9.749  35.569   0.914
49998W        W21527  38.663  30.676   5.164
49999W        W21528  44.026  18.726   4.602
50000W        W21529  28.989  31.346  14.418
50001W        W21530  42.952  23.853   1.132
50002W        W21531  20.344  44.014  14.836
50003W        W21532  27.700  12.188   3.617
50004W        W21533  41.372  20.511   4.605
50005W        W21534  16.061  32.166   2.219
50006W        W21535  32.738  29.218   1.746
50007W        W21536  36.351  39.614  11.120
50008W        W21537  15.657  16.277   3.600
50009W        W21538  37.888   5.686  14.408
50010W        W21539  24.599  24.987   2.273
50011W        W21540  35.614  19.222   1.349
50012W        W21541  12.676  18.992  14.868
50013W        W21542  21.546  16.724  14.787
50014W        W21543  17.539  18.518  10.668
50015W        W21544  36.842  32.066  11.388
50016W        W21545  41.402  13.028  11.250
50017W        W21546  39.021  22.753   1.308
50018W        W21547  16.319  33.814  13.459
50019W        W21548   2.916  13.303   4.127
50020W        W21549  40.267  29.073   2.299
50021W        W21550  44.898  32.928   4.990
50022W        W21551  22.693  26.425  13.323
50023W        W21552  35.995   2.664  13.918
50024W        W21553  13.231   9.109   1.193
50025W        W21554  17.589  16.082  11.984
50026W        W21555   9.344  28.121   3.852
50027W        W21556  23.591  38.938  12.838
50028W        W21557   6.213   2.924   1.769
50029W        W21558  11.800   8.319  12.155
50030W        W21559  38.362  37.362  13.303
50031W        W21560  16.982  35.570   1.849
50032W        W21561  15.969   3.659   4.046
50033W        W21562  13.232   4.962  13.555
50034W        W21563  41.237  34.110  11.628
50035W        W21564  23.139   5.888   4.867
50036W        W21565   4.915  38.079  12.554
50037W        W21566  17.067  16.427  13.773
50038W        W21567   1.992  22.862   3.658
50039W        W21568   5.201   8.193   2.169
50040W        W21569  13.811  16.363  11.966
50041W        W21570  19.135  13.025   1.723
50042W        W21571   3.779  44.535   2.881
50043W        W21572  23.575   3.695   4.073
50044W        W21573   2.263   0.032   9.978
50045W        W21574  34.540  13.947   4.767
50046W        W21575  18.729  28.687  13.146
50047W        W21576   0.282   5.840   0.970
50048W        W21577  14.082  38.909   5.047
50049W        W21578   3.286  20.514  10.688
50050W        W21579   8.465  36.714  13.178
50051W        W21580  25.591  22.506   2.634
50052W        W21581   8.578  32.601  13.424
50053W        W21582   1.054  19.752   4.297
50054W        W21583  39.520  16.736   3.861
50055W        W21584  30.663  18.134  12.595
50056W        W21585  14.400   4.034   3.300
50057W        W21586  37.202  21.064  11.176
50058W        W21587  10.776  22.214  11.621
50059W        W21588  17.592  30.702   3.301
50060W        W21589   9.602  39.015   1.475
50061W        W21590  39.467   2.338  13.261
50062W        W21591  17.593   9.610  11.306
50063W        W21592  15.087  13.822  11.942
50064W        W21593   2.252  24.483   5.309
50065W        W21594  40.598  20.084  13.944
50066W        W21595  27.985   0.530  11.004
50067W        W21596   7.752  21.962  12.430
50068W        W21597  17.853  40.890  11.331
50069W        W21598  14.109  32.658   1.768
50070W        W21599  29.455  16.374   1.361
50071W        W21600  27.248   4.761   4.327
50072W        W21601   9.096  11.640   2.440
50073W        W21602  21.745  34.371   4.507
50074W        W21603  25.087  22.220  13.503
50075W        W21604  14.648  10.915   4.748
50076W        W21605   7.648  38.034  10.963
50077W        W21606  38.460  29.535  14.464
50078W        W21607  27.237  41.003   2.249
50079W        W21608  15.574  31.987  12.134
50080W        W21609  21.537  39.976  13.961
50081W        W21610   5.876  28.685  14.998
50082W        W21611  14.515  44.266   0.406
50083W        W21612   5.856  40.885  13.803
50084W        W21613  13.606  37.632  11.213
50085W        W21614  36.496  20.773  10.682
50086W        W21615   2.996   6.196  13.826
50087W        W21616  37.166  14.150  13.102
50088W        W21617  35.762  16.181   2.924
50089W        W21618  36.658  11.332  13.607
50090W        W21619  41.026  30.514  12.314
50091W        W21620  18.247  27.753   1.441
50092W        W21621  27.514  42.828  13.871
50093W        W21622  30.125  26.416  13.868
50094W        W21623  36.552  21.569   1.932
50095W        W21624  29.692  40.800  13.450
50096W        W21625  21.774  17.016   3.714
50097W        W21626   6.190  38.890   0.726
50098W        W21627  13.383   5.297   2.356
50099W        W21628  20.025  16.802   3.264
50100W        W21629  10.421  18.775   1.947
50101W        W21630   8.345  21.200   3.542
50102W        W21631  39.445  40.263   2.373
50103W        W21632  24.312  19.100  13.952
50104W        W21633  33.776  44.335   0.290
50105W        W21634  43.871  29.258   3.180
50106W        W21635  31.449  42.424  13.612
50107W        W21636   5.229   6.985  11.115
50108W        W21637  43.848  32.535   3.169
50109W        W21638   8.243   3.745   0.214
50110W        W21639  28.431  41.335   3.751
50111W        W21640  11.125  18.050   3.332
50112W        W21641  38.847  42.282   1.038
50113W        W21642  31.085   6.492   2.314
50114W        W21643  22.669  32.815  13.679
50115W        W21644  18.872  24.983   0.949
50116W        W21645   0.968  36.995  12.935
50117W        W21646  34.401   1.744  13.848
50118W        W21647  21.275  12.232   0.082
50119W        W21648   6.455  23.189  13.993
50120W        W21649  16.851   1.526   3.794
50121W        W21650  40.305  25.313  11.686
50122W        W21651  35.443  23.943  10.709
50123W        W21652  19.692  29.904   1.898
50124W        W21653  37.495  19.191  14.327
50125W        W21654  28.776  42.208   0.856
50126W        W21655  41.333  27.415  12.329
50127W        W21656  23.666  26.915  12.052
50128W        W21657  33.110  23.247  11.966
50129W        W21658  34.987  41.808   1.739
50130W        W21659  27.886  26.570   1.359
50131W        W21660  10.359   5.499  14.496
50132W        W21661  29.089  40.515   0.525
50133W        W21662  40.062   3.303  12.630
50134W        W21663  36.358  30.687   1.695
50135W        W21664  12.318  44.850  14.055
50136W        W21665  37.073   2.860  11.909
50137W        W21666  19.645  10.374  10.749
50138W        W21667  37.119  19.038  11.952
50139W        W21668  31.296  24.560   2.103
50140W        W21669  24.098  23.752  14.984
50141W        W21670  26.729  38.533  12.022
50142W        W21671  41.414   6.057   3.412
50143W        W21672   4.843  28.529  14.288
50144W        W21673  26.701  44.157   1.236
50145W        W21674   5.526   3.166   1.205
50146W        W21675  26.562  11.305   0.548
50147W        W21676  39.546  20.076   4.730
50148W        W21677  15.309  11.563   5.385
50149W        W21678   1.540  20.247   3.989
50150W        W21679   9.883   8.815   3.677
50151W        W21680  42.549  13.734   2.249
50152W        W21681  40.921   9.800  14.737
50153W        W21682  44.801  20.196   3.682
50154W        W21683  40.538  28.646  13.765
50155W        W21684  39.208  38.047  11.701
50156W        W21685  19.934  35.474   3.054
50157W        W21686  10.356  20.110   2.182
50158W        W21687  18.665  28.107   1.460
50159W        W21688   4.875   6.901   4.400
50160W        W21689   8.937   9.966  13.281
50161W        W21690  14.709  34.419   1.452
50162W        W21691  23.171  21.780  13.515
50163W        W21692  24.533  39.005   1.472
50164W        W21693  24.135  32.026  14.928
50165W        W21694  30.563  19.261  13.084
50166W        W21695  21.186  34.106   2.342
50167W        W21696  36.367  33.479   1.034
50168W        W21697  34.846  36.742   2.941
50169W        W21698   1.534  38.316  14.687
50170W        W21699  32.188  11.586   2.292
50171W        W21700  37.758  26.099   4.426
50172W        W21701  13.129  40.026  12.390
50173W        W21702  24.596   0.474  12.673
50174W        W21703  23.446  24.793  13.922
50175W        W21704  29.285  19.159  14.526
50176W        W21705  20.190   8.514   3.818
50177W        W21706  43.345  18.351  12.604
50178W        W21707  26.626  25.705   3.208
50179W        W21708  26.994  32.107  14.488
50180W        W21709  19.642   2.632  11.460
50181W        W21710  26.097  18.723  14.246
50182W        W21711   0.716   0.052  13.501
50183W        W21712  24.652  33.822   3.220
50184W        W21713  39.573  24.181  11.693
50185W        W21714  20.208  18.745   0.782
50186W        W21715  34.471  41.854  14.058
50187W        W21716   2.990  30.436   2.741
50188W        W21717  17.637  11.698  14.880
50189W        W21718   2.582   4.336   0.649
50190W        W21719  34.570  14.666   4.820
50191W        W21720  21.626  13.617  13.469
50192W        W21721  39.969  11.669   3.795
50193W        W21722  36.308  41.369  13.350
50194W        W21723   9.469  44.894  14.826
50195W        W21724   1.360  16.538   2.670
50196W        W21725  21.661  20.074   4.484
50197W        W21726  22.028  25.880   0.280
50198W        W21727  24.029  44.362  13.462
50199W        W21728  41.841  20.280   1.699
50200W        W21729  35.440  31.734  14.756
50201W        W21730  22.502  17.129   4.515
50202W        W21731  42.302  28.694   0.193
50203W        W21732  13.127  41.735   3.653
50204W        W21733  10.684  10.814  13.519
50205W        W21734   8.804   7.287  11.107
50206W        W21735  42.851   1.855   1.884
50207W        W21736  18.698  31.230  10.986
50208W        W21737  39.214  32.977   2.174
50209W        W21738  11.289  37.247   1.831
50210W        W21739  34.010  15.859   4.142
50211W        W21740   1.948  31.597  14.305
50212W        W21741  33.073   3.983  12.112
50213W        W21742  44.339  25.574   1.939
50214W        W21743  44.358  31.818  10.373
50215W        W21744  24.306  10.803   4.488
50216W        W21745   5.997  29.882   1.750
50217W        W21746  37.943   5.329   2.408
50218W        W21747  40.760  33.155   2.342
50219W        W21748  21.260  32.729  14.858
50220W        W21749   5.429  43.037   3.175
50221W        W21750  32.369  13.370  12.069
50222W        W21751  23.152  35.534  10.671
50223W        W21752  38.948  29.013  13.948
50224W        W21753  22.242  27.107   4.629
50225W        W21754  43.255  25.182   1.481
50226W        W21755  26.577   6.516  13.164
50227W        W21756  35.955  24.025   4.482
50228W        W21757  15.121  37.571   0.395
50229W        W21758  13.775  32.423  14.006
50230W        W21759  10.327  11.846   4.988
50231W        W21760  10.619  39.481  11.175
50232W        W21761  17.272  33.309  10.431
50233W        W21762  43.055  34.934  13.884
50234W        W21763  28.390  18.092   0.397
50235W        W21764  24.222  28.767  12.377
50236W        W21765  41.809   7.244  14.527
50237W        W21766  29.622  41.777   3.606
50238W        W21767  39.876  21.430  14.777
50239W        W21768   2.857  13.588   0.006
50240W        W21769  17.493  14.040  13.425
50241W        W21770  40.469  33.630  10.679
50242W        W21771  37.131  44.554   4.261
50243W        W21772  35.351  31.459   1.696
50244W        W21773  42.249  38.377  10.805
50245W        W21774  15.069  11.183  14.767
50246W        W21775  25.685  44.801  10.381
50247W        W21776   1.338  11.672   1.439
50248W        W21777  27.655  17.171   2.355
50249W        W21778  35.100  24.381   0.418
50250W        W21779  20.595   0.943  14.488
50251W        W21780  39.466  13.240   0.033
50252W        W21781  38.270  16.266  12.022
50253W        W21782  34.076  40.273   4.451
50254W        W21783  31.849  18.175   2.158
50255W        W21784  39.373   1.375  12.108
50256W        W21785  20.303  24.290  11.589
50257W        W21786  10.847  39.422   3.388
50258W        W21787  23.272  39.577   0.690
50259W        W21788  10.358   3.914  13.338
50260W        W21789  29.218  30.574   1.457
50261W        W21790   2.720  44.768   0.007
50262W        W21791  25.477  17.809   9.997
50263W        W21792  17.217  33.663   1.882
50264W        W21793  25.672  32.133  10.572
50265W        W21794  12.424  14.641   1.486
50266W        W21795   0.351   9.456  10.726
50267W        W21796   3.109  12.222  11.150
50268W        W21797  18.587  24.317   4.926
50269W        W21798  18.010   3.857   4.848
50270W        W21799  12.598  42.799  12.459
50271W        W21800   4.402  18.289  14.221
50272W        W21801  44.234  25.073  10.405
50273W        W21802   0.673  11.681  11.658
50274W        W21803  33.017  22.976   2.932
50275W        W21804  26.072   3.823   2.863
50276W        W21805   2.277  16.264   3.970
50277W        W21806  13.185  35.293  10.973
50278W        W21807  11.813  30.618   2.107
50279W        W21808   5.300  31.988   2.113
50280W        W21809   7.396   5.826  14.024
50281W        W21810   8.950  35.265   4.901
50282W        W21811  30.594   9.414  11.348
50283W        W21812   1.071  41.940   0.701
50284W        W21813  27.930  36.649  11.686
50285W        W21814  30.166   1.259  13.012
50286W        W21815  21.084   6.122  10.827
50287W        W21816   0.290  35.937  10.506
50288W        W21817   4.714  24.222  11.452
50289W        W21818  22.988   8.217  10.589
50290W        W21819  34.089  36.097  14.275
50291W        W21820  28.605  28.855   1.133
50292W        W21821  18.963  20.540   0.499
50293W        W21822  44.456   6.404   2.324
50294W        W21823   5.375  35.252  13.658
50295W        W21824  35.926  19.392   1.741
50296W        W21825  16.150  15.127   4.341
50297W        W21826   5.949  40.985  11.178
50298W        W21827  20.733   1.675   3.788
50299W        W21828  34.071  28.338  11.602
50300W        W21829   0.929  33.098  12.566
50301W        W21830  37.207  35.601   1.705
50302W        W21831  26.464  31.042  14.954
50303W        W21832  34.797   4.284  13.798
50304W        W21833  29.550  14.703   3.136
50305W        W21834  10.335  15.810   0.515
50306W        W21835  36.775  20.021  12.563
50307W        W21836  44.363  18.504   1.458
50308W        W21837   3.111  44.262   1.276
50309W        W21838  11.706  36.529  12.047
50310W        W21839  44.785   8.097   0.261
50311W        W21840  27.354  44.451  12.032
50312W        W21841  44.017  39.769   3.321
50313W        W21842  29.654  16.832   1.961
50314W        W21843  10.380  35.008   1.396
50315W        W21844   2.216   2.772   1.754
50316W        W21845  22.993  15.719   1.729
50317W        W21846  34.930  35.710  10.462
50318W        W21847  15.378   7.738   5.051
50319W        W21848  40.320   0.888  11.550
50320W        W21849  15.852  43.774  13.552
50321W        W21850  18.449  27.695   0.112
50322W        W21851  40.031  13.216  12.556
50323W        W21852  14.167  30.865  12.902
50324W        W21853   7.901  32.415   0.829
50325W        W21854  20.579  38.235  14.772
50326W        W21855  10.909  29.038  14.019
50327W        W21856  40.204  33.395   4.800
50328W        W21857  23.600  25.678   0.831
50329W        W21858  42.069   2.956   4.001
50330W        W21859  41.729   7.081   1.878
50331W        W21860   6.669   6.778  11.514
50332W        W21861  44.869  18.829  11.552
50333W        W21862  11.174  44.953  11.188
50334W        W21863   0.380  42.183   3.210
50335W        W21864  30.549   4.725  13.375
50336W        W21865  14.562  43.900   2.013
50337W        W21866  31.069  22.784  12.648
50338W        W21867  34.597  39.014   0.308
50339W        W21868  22.270  23.601   4.899
50340W        W21869  44.502  27.180  10.769
50341W        W21870   6.241  14.586  12.104
50342W        W21871   6.891  17.519   4.256
50343W        W21872   2.742  27.530  10.981
50344W        W21873  20.219  29.649   4.077
50345W        W21874  41.338   5.963  13.892
50346W        W21875  26.400  10.163  11.063
50347W        W21876  42.498  27.973  11.858
50348W        W21877  28.148   1.028  13.358
50349W        W21878  32.424   0.734   0.827
50350W        W21879  34.653  38.732  12.220
50351W        W21880   5.865  43.243  12.455
50352W        W21881  36.392  31.685  13.293
50353W        W21882  27.183  27.837  10.704
50354W        W21883  32.114  22.455   3.736
50355W        W21884  40.086  14.254  10.911
50356W        W21885   6.852  36.960  14.486
50357W        W21886  39.863  20.573  11.280
50358W        W21887  32.909  38.861   2.708
50359W        W21888  10.135  38.127   4.372
50360W        W21889  20.542  26.186   2.793
50361W        W21890  32.867  21.351   4.107
50362W        W21891   2.004   1.904   2.311
50363W        W21892  40.379   2.915  13.348
50364W        W21893  36.992   4.898   4.708
50365W        W21894  41.175   7.835  13.360
50366W        W21895  17.840  20.329   5.566
50367W        W21896   0.244  11.161   2.240
50368W        W21897  38.745  43.853  11.986
50369W        W21898  19.555  32.124  14.755
50370W        W21899  17.000  23.605   5.252
50371W        W21900   7.498  37.513   1.902
50372W        W21901  38.385   8.028   3.616
50373W        W21902  41.324   4.964  13.910
50374W        W21903  36.472  44.834  12.713
50375W        W21904  10.150  14.678  12.449
50376W        W21905  17.204   8.867  14.985
50377W        W21906   3.914  31.425   2.823
50378W        W21907   2.434  27.666  12.453
50379W        W21908  31.232   6.864   0.693
50380W        W21909   1.990   4.698   1.487
50381W        W21910   8.442  19.301   5.214
50382W        W21911  37.952   7.076   2.199
50383W        W21912   3.179  15.325  11.366
50384W        W21913  24.102  37.881   2.503
50385W        W21914  24.941  12.263  12.001
50386W        W21915  27.327   7.567   2.846
50387W        W21916  14.757  32.841   4.764
50388W        W21917   0.468  19.675  12.126
50389W        W21918  10.287  17.155   3.669
50390W        W21919  20.406  16.601   2.305
50391W        W21920  39.428  17.151   4.577
50392W        W21921   0.311  33.699  12.709
50393W        W21922   0.017  11.303  14.049
50394W        W21923  33.182  29.981   1.702
50395W        W21924  10.097  28.554   1.212
50396W        W21925  35.614  16.744   1.288
50397W        W21926  26.471  12.113   1.218
50398W        W21927  43.476  21.994   1.690
50399W        W21928  13.065  28.227   0.327
50400W        W21929  35.465   0.437  13.455
50401W        W21930  37.768  25.509  12.387
50402W        W21931  32.581  16.726   0.380
50403W        W21932  10.986   9.585   2.109
50404W        W21933  33.018  40.011   3.176
50405W        W21934  10.364  40.092   2.931
50406W        W21935  21.722  20.458  13.557
50407W        W21936  21.094   1.377  13.175
50408W        W21937  25.529  37.998   2.694
50409W        W21938   5.926   9.304   4.340
50410W        W21939  22.257  42.040  14.344
50411W        W21940  31.098  30.148  14.465
50412W        W21941  24.641  10.064   0.007
50413W        W21942  26.701  41.056  11.033
50414W        W21943  41.337  23.994   4.733
50415W        W21944  18.072  44.564  14.094
50416W        W21945  35.912   2.605   4.690
50417W        W21946  35.607   5.189   4.080
50418W        W21947  22.802  15.291  10.870
50419W        W21948  20.997  23.478  12.892
50420W        W21949  14.185   9.368  11.070
50421W        W21950  13.208  20.726   0.409
50422W        W21951  11.676  37.314   1.202
50423W        W21952  14.118  40.281  11.714
50424W        W21953   3.705  25.018   4.672
50425W        W21954  23.089  32.264   4.946
50426W        W21955  23.713  29.189   3.734
50427W        W21956   6.132   1.050   0.268
50428W        W21957  30.002  36.284   3.606
50429W        W21958  32.045   5.394  12.379
50430W        W21959  21.045  14.166  11.988
50431W        W21960  16.722   0.471  13.925
50432W        W21961  19.649  30.914  11.163
50433W        W21962  40.005  26.655   4.413
50434W        W21963  28.895  15.290   5.082
50435W        W21964  27.287  12.774  13.233
50436W        W21965  34.514  42.487  11.087
50437W        W21966   2.352   7.433  13.809
50438W        W21967  33.783   0.774  14.848
50439W        W21968  35.222  43.108   3.180
50440W        W21969  29.128  16.605  10.627
50441W        W21970   5.313  37.917  13.402
50442W        W21971  13.448  13.451  11.920
50443W        W21972   3.776   1.050  14.402
50444W        W21973  28.455   5.366  10.700
50445W        W21974  16.720  24.642  12.965
50446W        W21975  27.622  40.280   0.380
50447W        W21976   5.310  36.866  14.428
50448W        W21977  27.979   8.006   1.916
50449W        W21978  21.247  43.278  13.429
50450W        W21979  36.586  23.103  11.552
50451W        W21980  36.913   7.313  13.522
50452W        W21981  38.318   9.801   0.075
50453W        W21982  24.147  22.192  11.185
50454W        W21983   5.181  29.849   2.883
50455W        W21984  23.192   7.672  13.946
50456W        W21985  22.665  28.568  12.410
50457W        W21986  26.994   3.297   3.682
50458W        W21987  30.511  10.531  10.556
50459W        W21988  25.246  25.633  11.216
50460W        W21989  26.879  18.043   2.713
50461W        W21990  30.385  11.292   0.444
50462W        W21991  15.612  28.163  13.935
50463W        W21992  14.734  37.438   9.916
50464W        W21993  44.555   5.347   2.770
50465W        W21994  13.169  20.735   4.118
50466W        W21995  15.013  20.090  10.523
50467W        W21996   2.977  26.095   4.132
50468W        W21997  13.381   9.763   2.384
50469W        W21998  12.678  25.753  13.958
50470W        W21999  13.759   2.714   0.431
50471W        W22000   7.513  32.716   1.046
50472W        W22001  22.902  31.412   2.614
50473W        W22002  12.102   8.664   0.392
50474W        W22003  35.152  36.333   2.875
50475W        W22004  20.102  33.819   0.273
50476W        W22005  24.201  21.604   0.452
50477W        W22006  33.392  11.125  13.397
50478W        W22007   4.793  16.310  12.110
50479W        W22008  10.033  40.508  11.704
50480W        W22009  10.301  13.194   2.913
50481W        W22010  34.443  35.077   4.896
50482W        W22011   3.590  26.677   3.609
50483W        W22012   6.874  15.801   3.680
50484W        W22013  44.322   0.302   2.331
50485W        W22014   2.431   3.301  14.559
50486W        W22015  28.579   0.388   1.804
50487W        W22016  24.510  11.134   2.970
50488W        W22017  19.307  33.606   3.417
50489W        W22018  41.080   2.825  14.425
50490W        W22019  34.086   8.024   2.729
50491W        W22020   8.374  10.761  12.701
50492W        W22021  27.239  22.190   4.549
50493W        W22022  30.068  27.350   9.911
50494W        W22023   2.673   2.547   1.821
50495W        W22024  27.217  20.121  11.086
50496W        W22025  27.921   4.772   5.000
50497W        W22026  14.272  22.132   2.582
50498W        W22027  30.649  43.832   0.913
50499W        W22028  20.160  15.543   3.697
50500W        W22029  35.067  15.209   3.743
50501W        W22030  27.620  17.609   2.856
50502W        W22031  34.025   8.196  13.016
50503W        W22032   2.080  13.912  13.003
50504W        W22033  29.771   6.653   4.988
50505W        W22034  24.421  23.623  13.553
50506W        W22035  43.044   2.695  14.359
50507W        W22036  39.025  15.151  12.747
50508W        W22037   6.328   0.668  12.532
50509W        W22038  29.193  16.142  14.359
50510W        W22039  30.523  39.922  14.925
50511W        W22040   6.049  18.040   4.273
50512W        W22041  35.581  24.455  14.614
50513W        W22042  13.239   0.479   4.998
50514W        W22043  39.793  31.103   1.719
50515W        W22044  29.629  40.303  11.131
50516W        W22045  43.979  30.603  14.279
50517W        W22046  43.706   8.218   1.693
50518W        W22047   6.671   4.243   2.784
50519W        W22048  23.231  32.173   3.606
50520W        W22049   3.936  27.645   0.008
50521W        W22050   0.042  22.817  14.464
50522W        W22051  34.012  26.199   2.356
50523W        W22052  36.276  12.472  10.659
50524W        W22053  14.221  33.182  13.835
50525W        W22054   8.301   6.388   3.382
50526W        W22055  13.248   3.771   1.139
50527W        W22056  35.076  19.550   3.096
50528W        W22057  13.114  33.508   4.270
50529W        W22058  11.218  29.701  14.865
50530W        W22059   5.355  25.117  10.666
50531W        W22060  23.823  16.307   0.285
50532W        W22061   1.687   7.465   3.654
50533W        W22062  32.597  16.506  11.562
50534W        W22063  37.970  21.170  11.635
50535W        W22064  39.036  10.187   0.313
50536W        W22065  28.638   9.149  14.860
50537W        W22066  14.766  13.183  11.648
50538W        W22067  23.421  40.164   4.565
50539W        W22068   5.493  39.349   0.782
50540W        W22069  26.452  17.686   3.667
50541W        W22070  27.536  34.764  10.699
50542W        W22071  28.678  35.235  12.512
50543W        W22072  20.632  17.469  14.328
50544W        W22073  32.928  32.005   1.248
50545W        W22074   0.713  41.901  14.799
50546W        W22075  22.670  35.907   9.978
50547W        W22076  25.023  29.458  13.068
50548W        W22077  36.991  21.002   2.631
50549W        W22078  18.349  34.980   1.037
50550W        W22079  25.009  20.522   1.848
50551W        W22080  16.680  33.010   3.818
50552W        W22081  10.833  36.350   3.879
50553W        W22082  40.815   4.290   4.025
50554W        W22083   6.063  23.604  11.633
50555W        W22084  43.098  41.384  14.903
50556W        W22085  39.499  42.475   4.602
50557W        W22086  12.860  39.468   3.650
50558W        W22087  25.470  26.038   4.826
50559W        W22088  26.557  38.821   3.094
50560W        W22089   7.270  32.995   0.245
50561W        W22090  23.464  19.139  12.077
50562W        W22091   4.627  39.152  14.475
50563W        W22092  38.364   5.372  14.851
50564W        W22093  19.021  11.907  12.857
50565W        W22094  29.394  30.063  11.205
50566W        W22095  17.188  34.379   0.599
50567W        W22096  36.548   4.781  12.983
50568W        W22097  41.916  31.642   4.475
50569W        W22098   1.783  23.447   0.961
50570W        W22099   0.916   5.925  11.924
50571W        W22100  42.296  11.714  11.566
50572W        W22101  27.721  32.527  11.951
50573W        W22102  25.959   7.739   2.427
50574W        W22103   2.247  39.043   0.700
50575W        W22104  26.983  13.317   0.704
50576W        W22105  43.667   1.232   0.075
50577W        W22106  28.414  15.247  13.581
50578W        W22107  23.572  14.202  13.323
50579W        W22108  41.497  41.328   4.789
50580W        W22109  26.827  21.558  11.596
50581W        W22110  11.112   8.484  12.422
50582W        W22111   4.234  16.780   1.997
50583W        W22112   6.337  22.737  14.849
50584W        W22113  27.255  12.591   0.050
50585W        W22114  11.642  21.528   1.764
50586W        W22115  15.344   2.326  13.928
50587W        W22116  35.593  37.334   0.320
50588W        W22117  28.952   0.716  10.587
50589W        W22118  33.748  23.777  13.670
50590W        W22119  33.090  38.243  12.995
50591W        W22120   4.420  43.010  13.492
50592W        W22121  25.163  33.701   1.360
50593W        W22122  13.939  18.940  12.695
50594W        W22123  35.577   2.069   4.065
50595W        W22124  15.636  16.777   0.550
50596W        W22125  37.017  40.890   2.094
50597W        W22126  41.146  26.648   5.115
50598W        W22127  30.662  34.398   1.321
50599W        W22128  22.469  34.606  11.171
50600W        W22129  27.763  36.979  10.901
50601W        W22130  37.172  39.818  11.445
50602W        W22131  17.200  18.793  11.586
50603W        W22132  17.450  30.425   2.896
50604W        W22133   6.317   1.070  11.588
50605W        W22134  42.006  44.859   2.374
50606W        W22135  44.079  34.939   0.047
50607W        W22136   0.956  24.003  12.014
50608W        W22137  33.399  34.972   3.213
50609W        W22138  25.093   5.718  13.374
50610W        W22139  16.183   4.399   1.606
50611W        W22140  16.525  14.537  11.118
50612W        W22141  13.152  13.576   4.896
50613W        W22142  29.849   1.893   4.123
50614W        W22143  35.369  43.474  14.000
50615W        W22144  26.672  24.251  13.774
50616W        W22145   7.735  29.976  14.620
50617W        W22146  26.607  30.820  10.876
50618W        W22147   1.678   7.733  13.373
50619W        W22148  18.286   6.799  12.610
50620W        W22149  18.212  18.894   1.363
50621W        W22150  22.992  30.167  10.792
50622W        W22151   2.548  14.982   1.830
50623W        W22152  21.142   4.437   3.851
50624W        W22153  27.479  16.736   1.335
50625W        W22154  10.796  19.245  13.029
50626W        W22155  10.792   3.726   4.011
50627W        W22156  42.868   4.192  11.131
50628W        W22157  44.244  18.786   1.025
50629W        W22158  41.815   5.902   3.106
50630W        W22159  25.692  10.849  11.746
50631W        W22160  25.741  31.846  10.093
50632W        W22161  40.933  26.117   3.310
50633W        W22162   0.780  21.063   1.780
50634W        W22163  30.746  41.411   2.175
50635W        W22164  14.703  24.706   4.553
50636W        W22165   1.933  13.542   1.183
50637W        W22166  16.142  10.124  13.044
50638W        W22167  16.419  30.075   1.857
50639W        W22168  23.406  34.834  10.559
50640W        W22169   8.787   3.383   4.165
50641W        W22170   4.609  12.768  14.899
50642W        W22171  28.898   7.894   2.386
50643W        W22172   0.976  19.760   0.448
50644W        W22173  43.845  35.193   5.094
50645W        W22174  12.702  34.156   1.204
50646W        W22175   7.311  39.997   3.883
50647W        W22176   6.229  40.242   1.128
50648W        W22177  36.790  31.034  13.076
50649W        W22178  32.282   6.283   4.602
50650W        W22179   3.813  40.981   4.652
50651W        W22180  20.775  20.691  14.455
50652W        W22181  37.900  36.147   0.488
50653W        W22182  17.096   7.391   2.732
50654W        W22183  40.751   0.912   1.683
50655W        W22184   9.355   7.291   4.165
50656W        W22185  32.547   2.492   1.225
50657W        W22186  21.040  13.220  10.634
50658W        W22187  16.226  43.815  12.448
50659W        W22188  36.371   6.981   5.015
50660W        W22189  31.968  44.303   2.152
50661W        W22190  25.272  19.218   3.718
50662W        W22191  34.385  22.272   1.614
50663W        W22192  40.889   1.489   4.092
50664W        W22193  17.971  20.533   0.304
50665W        W22194  10.122  16.752   1.898
50666W        W22195  40.967  12.168  11.516
50667W        W22196  11.372  40.512  14.792
50668W        W22197   1.954  24.989   0.844
50669W        W22198   5.103  41.936   0.209
50670W        W22199  24.258  19.563   1.452
50671W        W22200  44.279  34.812   4.535
50672W        W22201   7.168  28.387  12.501
50673W        W22202  23.219  30.451   1.712
50674W        W22203   1.305  22.156  13.849
50675W        W22204  27.595   9.720  10.641
50676W        W22205   3.876  16.151   4.634
50677W        W22206   4.665  41.292  12.601
50678W        W22207  11.728  39.386  13.517
50679W        W22208  27.079  30.240   4.406
50680W        W22209  14.387  11.690  11.181
50681W        W22210  43.859  34.302  13.977
50682W        W22211  20.974  13.096   1.415
50683W        W22212   3.203   2.771  11.515
50684W        W22213  42.103  12.785   4.024
50685W        W22214  15.989  15.840  12.141
50686W        W22215  26.619  13.411  12.435
50687W        W22216   7.275  40.138   1.298
50688W        W22217  30.614  36.766  13.397
50689W        W22218  35.843   6.338  14.695
50690W        W22219   5.342  16.344  12.074
50691W        W22220  24.511   1.365  14.639
50692W        W22221  23.663  17.688  10.464
50693W        W22222  25.164  29.096  14.777
50694W        W22223   4.738   8.828   4.076
50695W        W22224  15.162  39.933   2.451
50696W        W22225   0.967  25.379   3.712
50697W        W22226   0.243  16.573  13.531
50698W        W22227  17.286   4.166  14.473
50699W        W22228   0.946  21.275   2.210
50700W        W22229  10.770  24.619  11.645
50701W        W22230  25.119  28.260   0.488
50702W        W22231  13.370  21.682  14.103
50703W        W22232  34.945   6.348   4.224
50704W        W22233   3.887  31.404   4.821
50705W        W22234  33.025   5.983  14.328
50706W        W22235  38.683  11.106   3.327
50707W        W22236  28.888  34.515  12.015
50708W        W22237  32.370  32.806  11.536
50709W        W22238  43.770  42.977  12.884
50710W        W22239   9.373   3.282   0.478
50711W        W22240  25.558  42.284   1.450
50712W        W22241  38.557  23.240  11.590
50713W        W22242  16.653  30.674  11.035
50714W        W22243  17.584  39.074  12.289
50715W        W22244   5.892   0.780  11.551
50716W        W22245  19.884  18.205   3.195
50717W        W22246  14.731  21.158  11.877
50718W        W22247  11.655  11.568  11.628
50719W        W22248  14.249  21.046   0.947
50720W        W22249  13.243  19.612   1.094
50721W        W22250  41.286   6.739  12.502
50722W        W22251  15.296  43.352  11.810
50723W        W22252  40.941  14.255  11.109
50724W        W22253  41.993  16.723   2.710
50725W        W22254  10.691   4.994  10.628
50726W        W22255  15.093  23.252  12.534
50727W        W22256  44.271  26.726   0.667
50728W        W22257  33.899  43.947  12.383
50729W        W22258  22.028  12.075   2.027
50730W        W22259  20.302  41.038   3.224
50731W        W22260   2.101  35.720  13.486
50732W        W22261  35.969  36.510   0.288
50733W        W22262  27.113  44.486  13.367
50734W        W22263   6.628   2.102  14.962
50735W        W22264  26.052  11.214  13.020
50736W        W22265  30.417  37.006   2.125
50737W        W22266  15.820  39.740   1.141
50738W        W22267   3.184   7.942   0.115
50739W        W22268  10.064  39.931   0.664
50740W        W22269  18.973  37.448   3.779
50741W        W22270  16.313  16.275   1.989
50742W        W22271   2.292   5.763   3.581
50743W        W22272  22.251  33.005   1.319
50744W        W22273  39.578  36.912   0.789
50745W        W22274  41.290  28.946   3.217
50746W        W22275   3.731  17.503   3.099
50747W        W22276  30.404   8.345  13.492
50748W        W22277  38.008  38.319  10.462
50749W        W22278   7.239  41.663   1.214
50750W        W22279  40.855   9.957   2.729
50751W        W22280  12.931  37.803   4.062
50752W        W22281  14.788  37.679   0.007
50753W        W22282  31.290  22.922  12.108
50754W        W22283  39.655  34.785   4.463
50755W        W22284  39.759  26.974   1.254
50756W        W22285  11.382   6.372  10.900
50757W        W22286  34.946  22.213  10.302
50758W        W22287   1.272   8.449   0.505
50759W        W22288   3.976   8.919  12.008
50760W        W22289  41.040  15.543   0.111
50761W        W22290  42.027  10.546   0.036
50762W        W22291  29.056  26.628   0.658
50763W        W22292  30.175   6.169  13.600
50764W        W22293  38.423  16.223  12.550
50765W        W22294  19.697   2.264  11.125
50766W        W22295  23.290  13.645   3.745
50767W        W22296  25.589  19.027   4.096
50768W        W22297  16.684   1.208   4.794
50769W        W22298  26.203  26.482  13.033
50770W        W22299  15.412  10.305  12.427
50771W        W22300  42.916  29.113   0.135
50772W        W22301  20.864   4.188   1.488
50773W        W22302   2.417  27.175  14.053
50774W        W22303  24.159  29.250   4.542
50775W        W22304  12.170  24.227  13.321
50776W        W22305  26.607  40.038  13.636
50777W        W22306  39.885  22.639   2.737
50778W        W22307  29.072  33.488   2.426
50779W        W22308  30.495   5.218   0.234
50780W        W22309  29.584  39.831   0.222
50781W        W22310   8.109  23.604  13.681
50782W        W22311  23.580  25.751  11.569
50783W        W22312  10.288  20.309   3.155
50784W        W22313   7.975  40.937   0.742
50785W        W22314  28.508  27.859   2.870
50786W        W22315  29.121  34.358  11.558
50787W        W22316  33.387  14.547   3.161
50788W        W22317  41.920  14.654   1.881
50789W        W22318  35.386   2.393   4.568
50790W        W22319  18.285   7.688  13.003
50791W        W22320   3.222  35.501   3.181
50792W        W22321  26.154  18.046   0.419
50793W        W22322  20.120  44.867   3.850
50794W        W22323  27.186  34.257  14.347
50795W        W22324  14.772  13.215   4.586
50796W        W22325  34.713   4.243  12.057
50797W        W22326  29.561   5.713  11.168
50798W        W22327   0.841   9.854  11.743
50799W        W22328  13.162  41.644  11.571
50800W        W22329  37.921  30.072  13.386
50801W        W22330  34.572   0.231   3.207
50802W        W22331  19.989  24.811   0.701
50803W        W22332   4.608  38.807  11.218
50804W        W22333  26.663  37.127   2.688
50805W        W22334  40.991  39.257   3.595
50806W        W22335   3.843   8.558  13.964
50807W        W22336   8.718  25.983  10.687
50808W        W22337   4.955  25.831   1.988
50809W        W22338   4.920  35.468  13.449
50810W        W22339  23.208  19.350  11.416
50811W        W22340  36.996  10.244  11.405
50812W        W22341  24.759  22.322   0.264
50813W        W22342   5.059  25.644   3.717
50814W        W22343   4.464  26.524  12.390
50815W        W22344  38.633  24.661   1.220
50816W        W22345  44.569  10.394   2.270
50817W        W22346   5.482  19.318  11.980
50818W        W22347  35.026  43.294  13.293
50819W        W22348  20.090  35.976  14.079
50820W        W22349  13.943  30.518  14.818
50821W        W22350   7.764   8.141  11.691
50822W        W22351  31.336  30.543  13.407
50823W        W22352  16.157  16.510   4.756
50824W        W22353  34.583  28.343  11.175
50825W        W22354  43.465  26.220  15.000
50826W        W22355  26.793  34.066  11.649
50827W        W22356  38.412  13.104   0.385
50828W        W22357  29.077  44.967  14.853
50829W        W22358  42.622  12.837   4.091
50830W        W22359  16.108  31.707   0.942
50831W        W22360  15.900  43.765  13.026
50832W        W22361   9.326  35.823   0.772
50833W        W22362   6.973   0.283   1.787
50834W        W22363  44.445  26.322   4.280
50835W        W22364   2.782  17.826   4.475
50836W        W22365  28.261   4.741  11.559
50837W        W22366  31.105  38.127   2.070
50838W        W22367  31.478   4.183  13.486
50839W        W22368   0.584  31.821  14.854
50840W        W22369  38.542   2.452  14.208
50841W        W22370  25.787  28.048  12.808
50842W        W22371  37.025  40.306  11.649
50843W        W22372  38.797   5.289   2.968
50844W        W22373  40.960   7.754  10.705
50845W        W22374  14.446  26.558   3.241
50846W        W22375  34.938  32.340   0.312
50847W        W22376  28.087  17.904  11.125
50848W        W22377  14.157  24.552   2.367
50849W        W22378  21.205  38.890   1.878
50850W        W22379  13.397  28.088   2.093
50851W        W22380  29.532  43.579  10.930
50852W        W22381  37.284  32.367  11.436
50853W        W22382  42.830  27.610   0.585
50854W        W22383   6.297  40.360  13.467
50855W        W22384  43.039  15.721  13.509
50856W        W22385   7.275   8.172   1.151
50857W        W22386   2.342  44.490  10.579
50858W        W22387   1.060  15.590  13.162
50859W        W22388  12.146  18.080   0.418
50860W        W22389  23.014  32.492  10.463
50861W        W22390  18.141   0.919  11.526
50862W        W22391  39.454  21.264   0.024
50863W        W22392   5.797   4.765   0.713
50864W        W22393  10.580   4.868  13.908
50865W        W22394  13.466  35.495   3.834
50866W        W22395   7.432  14.764   2.862
50867W        W22396  32.016  43.924   3.620
50868W        W22397  25.522  31.423   2.614
50869W        W22398   8.852  23.769   4.472
50870W        W22399   7.257  29.322  13.487
50871W        W22400  16.881   9.125   0.906
50872W        W22401  29.151   5.332   1.226
50873W        W22402  30.485  38.973   1.152
50874W        W22403  26.511  22.055  12.458
50875W        W22404  40.842  10.522   0.937
50876W        W22405  16.296  15.713   2.358
50877W        W22406  33.329  39.161   2.673
50878W        W22407   9.125  42.393   1.280
50879W        W22408  13.695   8.691  12.903
50880W        W22409   4.259  44.686   4.019
50881W        W22410  22.646  19.609   2.395
50882W        W22411  13.083  22.973   2.707
50883W        W22412   0.337   8.122  14.333
50884W        W22413  41.515  26.371  14.512
50885W        W22414  23.782  22.058   2.271
50886W        W22415   9.302   2.369   0.247
50887W        W22416  22.094  32.408  11.422
50888W        W22417   8.257  20.410   0.514
50889W        W22418  10.840  40.136   0.762
50890W        W22419  25.004  15.451  14.346
50891W        W22420  40.434  25.108  11.232
50892W        W22421   1.053  21.446  12.567
50893W        W22422  44.363  28.651   9.859
50894W        W22423   1.739  13.441  14.723
50895W        W22424  10.735  40.880  13.376
50896W        W22425  22.226  14.171   4.543
50897W        W22426   7.724  11.489  12.993
50898W        W22427   0.401   3.984   4.113
50899W        W22428  33.637  16.592   0.168
50900W        W22429  28.561  31.484   1.671
50901W        W22430  39.984  29.589  11.639
50902W        W22431   9.642   5.430  14.828
50903W        W22432   4.592  38.595  11.909
50904W        W22433   6.778  21.322   4.822
50905W        W22434   3.882  43.368   3.017
50906W        W22435  23.476  23.740   0.215
50907W        W22436  13.386  20.425   0.873
50908W        W22437   2.305  44.229   4.280
50909W        W22438   7.335   0.564  11.651
50910W        W22439  26.633   8.725  10.740
50911W        W22440  16.049  13.242   3.737
50912W        W22441   0.958  36.704   3.705
50913W        W22442  23.473  17.120  14.892
50914W        W22443  39.145  29.079  13.473
50915W        W22444  26.606  44.383   0.750
50916W        W22445  25.923  34.394  13.116
50917W        W22446  37.290  29.845  12.160
50918W        W22447  13.279  30.858  11.454
50919W        W22448  14.734  41.389  11.069
50920W        W22449   5.294  35.566  11.657
50921W        W22450  20.564  31.371   1.977
50922W        W22451  13.041  32.648   1.515
50923W        W22452  28.417  28.529   1.942
50924W        W22453  19.240  38.896  10.315
50925W        W22454   8.061   5.088  12.040
50926W        W22455  32.963   3.918   4.681
50927W        W22456  26.131  22.669   4.756
50928W        W22457  41.308  33.502  14.799
50929W        W22458  37.547   8.366   3.367
50930W        W22459  14.138  43.359   4.513
50931W        W22460  44.431   7.256  11.450
50932W        W22461  43.855   4.032   2.664
50933W        W22462   0.753  14.263  13.790
50934W        W22463  41.529   8.255  13.584
50935W        W22464  39.320  27.626  11.562
50936W        W22465  32.598  40.792   3.341
50937W        W22466  21.247  27.668  13.525
50938W        W22467  38.078  33.254  13.496
50939W        W22468  20.811  40.978   1.719
50940W        W22469  15.557  43.402   3.634
50941W        W22470  26.200  44.964   3.762
50942W        W22471  25.465  27.984   0.771
50943W        W22472   4.140  15.844  12.476
50944W        W22473  19.143  43.310  10.730
50945W        W22474  31.147   4.745   3.662
50946W        W22475  26.954  15.767  12.763
50947W        W22476  41.221  19.564   3.647
50948W        W22477  35.115   3.830  14.822
50949W        W22478  20.293  34.429  12.468
50950W        W22479   9.729  25.250  14.502
50951W        W22480  10.317  44.677   3.767
50952W        W22481   3.476  26.971   3.197
50953W        W22482  15.523  12.531  12.004
50954W        W22483  30.478  37.067   3.381
50955W        W22484   5.581  14.917  11.505
50956W        W22485  13.373  21.522   3.189
50957W        W22486  19.150   4.734   1.271
50958W        W22487  40.577  37.957  13.647
50959W        W22488   5.897  33.006  11.631
50960W        W22489   5.649  20.797   3.714
50961W        W22490  19.059  22.643  10.699
50962W        W22491  25.137   3.762   3.195
50963W        W22492  26.716  26.476  11.611
50964W        W22493  20.311  38.333   0.223
50965W        W22494  44.210  39.268   0.673
50966W        W22495  17.713  18.741   1.332
50967W        W22496  41.961  17.461  13.667
50968W        W22497  31.140  26.184   3.909
50969W        W22498  33.114  23.951   3.793
50970W        W22499  21.347  36.948  10.298
50971W        W22500   5.822  38.420  14.046
50972W        W22501   8.209  29.257   5.093
50973W        W22502  23.984  31.474  10.746
50974W        W22503  41.651  32.661  10.764
50975W        W22504  11.155  17.533  10.430
50976W        W22505   9.558  27.439  10.932
50977W        W22506  42.317  29.452   0.842
50978W        W22507  30.241  20.704   2.849
50979W        W22508   2.334  31.356   2.236
50980W        W22509  26.534  10.894  11.478
50981W        W22510  32.366  29.421  10.080
50982W        W22511  17.283   2.431   1.364
50983W        W22512  14.190   5.676  11.617
50984W        W22513  20.608  24.463  13.417
50985W        W22514  32.019  13.372  11.684
50986W        W22515  34.169  44.410  12.436
50987W        W22516  39.095  35.169  13.886
50988W        W22517  26.015  23.180  12.207
50989W        W22518  16.689   8.835   0.003
50990W        W22519  29.018  18.979  12.035
50991W        W22520  35.135  44.984  11.178
50992W        W22521  17.463  44.869  14.959
50993W        W22522  39.196  38.843  12.144
50994W        W22523   2.029  14.867   1.973
50995W        W22524  40.636  23.916  13.859
50996W        W22525   7.800  41.512  12.662
50997W        W22526  20.908  10.626   5.097
50998W        W22527   5.248  39.956  11.608
50999W        W22528  18.180  39.408   1.434
51000W        W22529  12.106  20.816  11.924
51001W        W22530  29.125  12.675  14.727
51002W        W22531  44.244  33.446  11.374
51003W        W22532  44.529  36.963  13.824
51004W        W22533  18.621  29.698   1.296
51005W        W22534  39.801   1.348  13.327
51006W        W22535   2.870  13.218  10.462
51007W        W22536  26.040  17.324  10.698
51008W        W22537  18.531  22.824  12.284
51009W        W22538  16.529  21.046  11.203
51010W        W22539   4.383   8.190  12.057
51011W        W22540  41.962  17.286  13.173
51012W        W22541  25.594   7.707   0.544
51013W        W22542  22.222  37.479   0.390
51014W        W22543   1.006  36.522   5.033
51015W        W22544  16.230  31.096  14.791
51016W        W22545  26.987  20.060   0.704
51017W        W22546  28.043  20.630  12.005
51018W        W22547   3.456  22.202  14.558
51019W        W22548  44.263  23.777   2.159
51020W        W22549  31.022  22.083   0.390
51021W        W22550  44.486  25.175   0.287
51022W        W22551  13.116   5.409  12.874
51023W        W22552  20.244  38.609   3.185
51024W        W22553  24.270  35.634  14.795
51025W        W22554   7.668  39.550   2.168
51026W        W22555  11.775   4.760  13.240
51027W        W22556  11.890  39.458   3.940
51028W        W22557  37.842  20.217  12.562
51029W        W22558  38.997  17.660  12.460
51030W        W22559  37.039  24.937  13.022
51031W        W22560   7.617  17.095  13.915
51032W        W22561  36.924  32.428   3.093
51033W        W22562  33.538  28.612  11.740
51034W        W22563  28.489  18.162   1.717
51035W        W22564   4.992  10.813  10.216
51036W        W22565   9.377  10.910  11.616
51037W        W22566  38.522  29.960  10.216
51038W        W22567  23.456  11.626  11.198
51039W        W22568  30.082  33.889  11.180
51040W        W22569  27.065  42.880   2.277
51041W        W22570   3.298  21.203  12.102
51042W        W22571  14.657  28.638  14.784
51043W        W22572   3.693  26.527   0.822
51044W        W22573  34.292   3.953  12.017
51045W        W22574  35.937  14.702   0.924
51046W        W22575  17.661  37.599  13.337
51047W        W22576  39.968   9.091  13.509
51048W        W22577  40.567  36.528  11.521
51049W        W22578  30.798  18.159   3.242
51050W        W22579  35.666   4.695   3.340
51051W        W22580  35.645   5.183  10.944
51052W        W22581  44.312  27.819   1.380
51053W        W22582  29.433  35.581  12.936
51054W        W22583   3.375   6.362  14.462
51055W        W22584  39.299  33.108  11.897
51056W        W22585   7.062  39.687  14.235
51057W        W22586  26.560  30.922   4.196
51058W        W22587  10.598   2.482   0.935
51059W        W22588  25.189  36.104  14.701
51060W        W22589  23.248   6.290  13.959
51061W        W22590  11.898  18.619   1.784
51062W        W22591  27.515  44.938  12.098
51063W        W22592   3.424  37.851   2.854
51064W        W22593  37.639  43.938   2.325
51065W        W22594  13.112   1.028   1.270
51066W        W22595  31.652  10.327   2.690
51067W        W22596  37.509  38.124  12.409
51068W        W22597  38.773  24.747  11.616
51069W        W22598  44.984   9.254  12.943
51070W        W22599  44.210  35.647  12.057
51071W        W22600  25.590  28.086   4.076
51072W        W22601  28.173  29.974   1.906
51073W        W22602   4.730  37.077   1.724
51074W        W22603  24.418   2.301  14.404
51075W        W22604   6.575  28.920  14.356
51076W        W22605  26.648  30.912  12.448
51077W        W22606  17.791  23.079  10.664
51078W        W22607  24.948   2.536   1.813
51079W        W22608  27.044  36.572   2.197
51080W        W22609   2.537  36.902   1.678
51081W        W22610   4.192  13.157  14.032
51082W        W22611   9.410  23.585   2.777
51083W        W22612  30.510  36.146  10.717
51084W        W22613   8.249  26.650  11.033
51085W        W22614  11.616  23.504   3.978
51086W        W22615  41.518  42.512  13.494
51087W        W22616  36.180  43.509   2.847
51088W        W22617  44.558  17.716  13.363
51089W        W22618  36.308  40.418   3.379
51090W        W22619  24.191   7.236  13.523
51091W        W22620  32.344  37.458   0.497
51092W        W22621  21.863  27.521   4.425
51093W        W22622  34.095  41.760  11.155
51094W        W22623  13.098   9.692  10.710
51095W        W22624  17.767  36.618   1.199
51096W        W22625  25.456  20.214  11.532
51097W        W22626  39.051   4.771   4.126
51098W        W22627  13.548  19.240   1.919
51099W        W22628   5.169  40.543  10.807
51100W        W22629  44.714   2.509   1.806
51101W        W22630  27.907  38.917   3.466
51102W        W22631   9.934   5.632   3.202
51103W        W22632  31.559   2.949   1.735
51104W        W22633  15.995   8.235   4.578
51105W        W22634  21.034  25.051  11.406
51106W        W22635  34.442  22.654  14.814
51107W        W22636  41.791  15.194  10.425
51108W        W22637   5.283  34.894  10.954
51109W        W22638   2.925  40.855  10.676
51110W        W22639  37.453  20.573  12.877
51111W        W22640  37.120  27.729  10.741
51112W        W22641  31.186  11.257  13.822
51113W        W22642  24.094  27.915   3.341
51114W        W22643  41.466   0.459  14.872
51115W        W22644  26.654   0.985  14.781
51116W        W22645  13.249  39.047  11.685
51117W        W22646  22.757   8.328  14.446
51118W        W22647  26.212  39.999  10.440
51119W        W22648  33.345  28.578  10.868
51120W        W22649   8.605  39.381   2.315
51121W        W22650   4.425  28.065   4.634
51122W        W22651   4.599  31.530  10.935
51123W        W22652  22.280  43.092   4.121
51124W        W22653   2.456   7.377   1.972
51125W        W22654  30.060   9.694   2.914
51126W        W22655  29.628  36.456  13.508
51127W        W22656  15.191   8.890   0.761
51128W        W22657  23.741   3.625  12.094
51129W        W22658  34.837  38.957  10.541
51130W        W22659  33.098   5.163   4.106
51131W        W22660  10.348  21.568  11.845
51132W        W22661   4.780  44.848   0.842
51133W        W22662  42.380  21.252  14.547
51134W        W22663  33.946   7.176  14.631
51135W        W22664   7.651  37.064   2.185
51136W        W22665  11.676  41.837  14.395
51137W        W22666   7.121  14.137  13.007
51138W        W22667   2.864  39.960   0.670
51139W        W22668  31.364   7.604   0.023
51140W        W22669  33.248  21.001   5.311
51141W        W22670  43.335  23.519   2.628
51142W        W22671  15.447  28.810  11.212
51143W        W22672  14.602  27.145  11.907
51144W        W22673  27.632   9.786   4.998
51145W        W22674  33.509  12.256   2.832
51146W        W22675  34.933  33.811   2.554
51147W        W22676  42.326  36.540   4.388
51148W        W22677  22.636  31.674   3.306
51149W        W22678  40.408  32.867   4.825
51150W        W22679  39.913  40.012  12.586
51151W        W22680  17.615  19.299  14.123
51152W        W22681  19.280   3.369  14.336
51153W        W22682  20.812  32.401  12.083
51154W        W22683   3.829   9.312  12.340
51155W        W22684  42.463  21.123  13.769
51156W        W22685  21.987  11.138   2.450
51157W        W22686  15.640  12.293  14.523
51158W        W22687  43.487  17.243  10.911
51159W        W22688  11.809  40.923  12.372
51160W        W22689  13.252  31.962  10.663
51161W        W22690  14.267  32.188  14.234
51162W        W22691  31.725  15.796  11.667
51163W        W22692  31.406  27.577   4.227
51164W        W22693   9.362  13.417  12.428
51165W        W22694  18.039  24.664   0.795
51166W        W22695  25.763  17.028   4.137
51167W        W22696  27.485  21.882  14.346
51168W        W22697  34.150   1.665  12.110
51169W        W22698   6.412  28.219   4.596
51170W        W22699  23.940   6.765  13.432
51171W        W22700  36.445  43.881   3.072
51172W        W22701  36.381  32.688  10.696
51173W        W22702  34.501   2.798   4.728
51174W        W22703  39.600  37.521   2.770
51175W        W22704  44.894   2.940   3.426
51176W        W22705  25.633  23.495   2.210
51177W        W22706  23.392  31.416  13.895
51178W        W22707   6.870   6.073   1.750
51179W        W22708  37.390  31.295   2.396
51180W        W22709  29.049  38.839  14.222
51181W        W22710  24.237   1.280  12.896
51182W        W22711  44.284  15.313   4.547
51183W        W22712  30.589  32.379  14.420
51184W        W22713  25.579   1.384   1.861
51185W        W22714  30.520  37.178  11.682
51186W        W22715  22.309  21.241  11.106
51187W        W22716  34.485  24.230   3.263
51188W        W22717  28.071  18.102  14.859
51189W        W22718  40.304   7.251   2.024
51190W        W22719  44.420   4.322   3.083
51191W        W22720  23.690  21.783  13.473
51192W        W22721  21.973   1.176   2.411
51193W        W22722  39.375  41.926   4.605
51194W        W22723  42.549  19.067   4.911
51195W        W22724  14.201   5.121  13.386
51196W        W22725  31.516  40.352   3.566
51197W        W22726  20.495   7.289  10.615
51198W        W22727  19.209   6.874  11.587
51199W        W22728  25.226  44.803  13.438
51200W        W22729  13.822  31.612  12.904
51201W        W22730  29.393  12.744   1.830
51202W        W22731  43.303  32.042   4.738
51203W        W22732   7.259   4.706   0.890
51204W        W22733  40.473  34.132  14.889
51205W        W22734  37.091  13.182  12.085
51206W        W22735  37.834  29.023   0.770
51207W        W22736   3.394  39.575  12.947
51208W        W22737  14.373  24.635  10.565
51209W        W22738  36.436  22.592   0.775
51210W        W22739   8.225  13.635   4.236
51211W        W22740  29.964   5.716  13.453
51212W        W22741  28.957   5.290   2.568
51213W        W22742  41.313  17.144  13.950
51214W        W22743  22.788   2.910   0.402
51215W        W22744  40.513  35.485   2.219
51216W        W22745   2.754  25.885   4.567
51217W        W22746  19.342  30.483   4.088
51218W        W22747  39.240  13.408  13.311
51219W        W22748  26.219  12.086   3.419
51220W        W22749  26.584  34.812  10.834
51221W        W22750  14.767   7.357   2.282
51222W        W22751   4.477   5.455  13.829
51223W        W22752  25.930   5.986   1.750
51224W        W22753  35.205  21.980   0.559
51225W        W22754  40.939  42.569  12.013
51226W        W22755  33.103  30.065   2.521
51227W        W22756  12.587  19.933  14.915
51228W        W22757  15.491  25.563   0.138
51229W        W22758  28.305  20.962   2.696
51230W        W22759  29.790  13.178  11.039
51231W        W22760  42.959  29.066   1.383
51232W        W22761  16.772  25.090  13.728
51233W        W22762  25.458  41.755  10.732
51234W        W22763  38.960   9.121   4.679
51235W        W22764  13.201  16.552   2.623
51236W        W22765  31.545   6.259   2.446
51237W        W22766  34.053   0.923   2.782
51238W        W22767  35.858  13.393   3.562
51239W        W22768  21.939  37.679   3.734
51240W        W22769  34.852   7.991   4.922
51241W        W22770  15.648  14.299   4.559
51242W        W22771  16.639  21.211   2.783
51243W        W22772  33.961  42.610   1.480
51244W        W22773   0.255  24.475  13.055
51245W        W22774  43.403   6.382   2.719
51246W        W22775  19.869  20.868   4.077
51247W        W22776  15.222  28.655   3.356
51248W        W22777  23.741  23.262   0.839
51249W        W22778  36.067  15.877   3.301
51250W        W22779  18.147  11.843   3.574
51251W        W22780  31.034  44.359   2.704
51252W        W22781   2.733   1.456  10.779
51253W        W22782  35.507   0.475  10.488
51254W        W22783  39.393  32.899   1.311
51255W        W22784   2.983  30.019  14.839
51256W        W22785  27.617  11.316  11.171
51257W        W22786   7.420   3.432  10.756
51258W        W22787   8.804  27.150  13.931
51259W        W22788  35.808  25.534   2.350
51260W        W22789  21.054  29.951  12.938
51261W        W22790  32.027  28.633   3.140
51262W        W22791  42.577  17.146  10.856
51263W        W22792  38.847  25.689  10.698
51264W        W22793  35.482  42.577  12.089
51265W        W22794  34.668  20.522  10.337
51266W        W22795   2.835  20.259  13.351
51267W        W22796  16.382  25.187  12.385
51268W        W22797  35.640   2.355   2.273
51269W        W22798  44.506  37.996   4.154
51270W        W22799  14.231  44.262  14.068
51271W        W22800  29.597  27.052   4.963
51272W        W22801  35.589  26.636  14.596
51273W        W22802  17.857  32.609  14.371
51274W        W22803  44.810  25.756   3.638
51275W        W22804  31.001   4.169  14.000
51276W        W22805  13.845   9.204   1.745
51277W        W22806  25.966  34.765  11.495
51278W        W22807  37.893  16.255  14.418
51279W        W22808  11.958   0.323   3.768
51280W        W22809  15.022  22.351   3.587
51281W        W22810  44.940  27.068   4.600
51282W        W22811   1.839  14.616  11.092
51283W        W22812  43.158   4.287  13.066
51284W        W22813   9.986  17.674  10.217
51285W        W22814  28.211   6.283  13.688
51286W        W22815  28.437  30.410   1.697
51287W        W22816  29.946  37.988  11.313
51288W        W22817  15.311  19.669  12.424
51289W        W22818  15.372   8.281   0.047
51290W        W22819  12.566  12.060   0.687
51291W        W22820  28.638  26.364   4.680
51292W        W22821  27.074  24.962  10.929
51293W        W22822  38.708  36.903   4.293
51294W        W22823  30.505  16.457  14.835
51295W        W22824  13.324   0.713  13.909
51296W        W22825  32.509  21.624   2.918
51297W        W22826  35.377  22.284  14.697
51298W        W22827   8.694   9.885  11.300
51299W        W22828  35.868   3.241   3.146
51300W        W22829  39.388  26.753  12.928
51301W        W22830  15.610   5.784   1.429
51302W        W22831  39.396  14.291   2.381
51303W        W22832  12.094  42.467  14.027
51304W        W22833  14.780   4.748   2.803
51305W        W22834  14.083  36.118  12.448
51306W        W22835  25.513  33.973  14.310
51307W        W22836  31.448  22.071  13.075
51308W        W22837  16.863  27.473  13.018
51309W        W22838  37.560  31.023  13.527
51310W        W22839  29.756  40.493  12.562
51311W        W22840  44.688  18.547  13.427
51312W        W22841  31.474  43.085   4.187
51313W        W22842   8.242  23.574  14.204
51314W        W22843   5.240  38.073   2.660
51315W        W22844  18.179  43.468  11.628
51316W        W22845  41.794  25.227  14.254
51317W        W22846  44.469  31.737  13.489
51318W        W22847  10.463  10.088   0.990
51319W        W22848  28.157  27.106   0.680
51320W        W22849   1.852  39.862  10.818
51321W        W22850  28.535  35.983   1.578
51322W        W22851  12.105   5.501  13.520
51323W        W22852  11.798  12.878   5.076
51324W        W22853  19.614  14.373  12.528
51325W        W22854  14.718  41.762  12.161
51326W        W22855  41.565  23.663  12.027
51327W        W22856  43.771   1.525  14.202
51328W        W22857   8.398  21.046   1.314
51329W        W22858  28.246  33.104   0.341
51330W        W22859   4.478  40.822   0.722
51331W        W22860  13.220  23.307   0.434
51332W        W22861  20.882   3.441   3.880
51333W        W22862  13.176   3.441  11.145
51334W        W22863  22.113  25.060   4.748
51335W        W22864  38.500  44.634  10.793
51336W        W22865   9.083   5.834  10.804
51337W        W22866  34.039  36.820  10.573
51338W        W22867  30.031  29.521   4.046
51339W        W22868  10.367  31.468   4.455
51340W        W22869  24.255  37.131   4.467
51341W        W22870   9.421  25.011  13.890
51342W        W22871  37.810  40.121  12.991
51343W        W22872  34.067  27.115  11.698
51344W        W22873  23.956  32.595  13.543
51345W        W22874  23.018   9.575  14.833
51346W        W22875  26.528  24.817   4.942
51347W        W22876  40.690   8.177  13.871
51348W        W22877  20.836  31.927  13.756
51349W        W22878  12.619  22.447  13.474
51350W        W22879  31.725  35.954   2.826
51351W        W22880  22.802  24.894  12.682
51352W        W22881  22.086  40.970  12.889
51353W        W22882  20.726  25.489  14.562
51354W        W22883  24.402  29.420   0.210
51355W        W22884  32.492  38.231   4.295
51356W        W22885   8.270  33.929  14.646
51357W        W22886  39.825  40.612   2.304
51358W        W22887  11.197   8.107   0.387
51359W        W22888  14.851  12.374   4.220
51360W        W22889  26.011  14.047  11.718
51361W        W22890  16.742   5.196  13.945
51362W        W22891  24.797  32.692  14.796
51363W        W22892  13.121  17.735   3.552
51364W        W22893   1.605  13.681  12.967
51365W        W22894  29.939  24.908   3.562
51366W        W22895  19.954  39.145  11.237
51367W        W22896  32.361  31.577   4.646
51368W        W22897  34.161  32.578   4.841
51369W        W22898   0.905   8.748   1.242
51370W        W22899  37.329  36.265  14.999
51371W        W22900  14.238  26.702  12.136
51372W        W22901  42.407   5.889   3.818
51373W        W22902  23.989  16.803  12.138
51374W        W22903   0.945  40.728  11.152
51375W        W22904  44.517  17.152  13.514
51376W        W22905  34.647  12.987  10.942
51377W        W22906   2.034  30.602  11.097
51378W        W22907   3.316  35.235  10.974
51379W        W22908  15.230  19.317   3.561
51380W        W22909  28.933   3.988  11.900
51381W        W22910  31.607  18.077  14.425
51382W        W22911  13.640  30.632  13.269
51383W        W22912   1.843  21.175  13.616
51384W        W22913   8.860  43.940   4.749
51385W        W22914  30.421  31.214  13.770
51386W        W22915   4.909  15.390  14.285
51387W        W22916  12.874  17.028   3.059
51388W        W22917  29.857  41.968   2.935
51389W        W22918  30.580  41.083   1.818
51390W        W22919  27.852  21.043  14.580
51391W        W22920  21.066  36.018  14.394
51392W        W22921  25.486  21.997   4.703
51393W        W22922   2.373   9.100   0.320
51394W        W22923  10.652  25.228   4.101
51395W        W22924  16.656  17.782  13.260
51396W        W22925   3.690  15.949   1.779
51397W        W22926   1.464  24.104   3.156
51398W        W22927  16.055  12.194  13.311
51399W        W22928   7.394  12.789   1.759
51400W        W22929  14.455  21.578  11.680
51401W        W22930   5.349  11.762   0.390
51402W        W22931   3.795  16.842  14.650
51403W        W22932  13.067  33.102  14.417
51404W        W22933  43.737  22.691   1.213
51405W        W22934  33.148  31.560  10.961
51406W        W22935  20.264  42.240   2.584
51407W        W22936  25.020  17.834   4.683
51408W        W22937  22.228   1.584  14.976
51409W        W22938  12.422  17.583  11.538
51410W        W22939  19.486  24.236   1.823
51411W        W22940  22.680  27.869   2.118
51412W        W22941  42.933  30.160   2.072
51413W        W22942  30.148   8.775  12.469
51414W        W22943   6.476  31.063   1.524
51415W        W22944  37.635  40.295  13.476
51416W        W22945   7.376   8.431   0.688
51417W        W22946  11.692  23.498  12.972
51418W        W22947  28.929  44.217   3.676
51419W        W22948  32.955  40.102   1.346
51420W        W22949  36.426  32.193  10.611
51421W        W22950   5.112  33.231   3.239
51422W        W22951  38.060  22.068  13.776
51423W        W22952  25.671  24.221  11.352
51424W        W22953   2.692   3.034  13.592
51425W        W22954   8.576  36.362  13.537
51426W        W22955  26.553  30.815  11.398
51427W        W22956   0.263   2.822  12.809
51428W        W22957  15.800  25.012   2.240
51429W        W22958  22.634  22.001  14.771
51430W        W22959  22.521  30.933   0.455
51431W        W22960   1.780  33.814  11.995
51432W        W22961  39.244   4.909   3.122
51433W        W22962  42.101  17.562  12.441
51434W        W22963  40.863  20.511   2.428
51435W        W22964   2.530   4.294   4.101
51436W        W22965  12.045  25.585   1.886
51437W        W22966  15.610  38.003   3.216
51438W        W22967  16.255  37.127   2.239
51439W        W22968  10.274  16.037   2.601
51440W        W22969  24.746  32.502  12.053
51441W        W22970  38.402  32.043   4.066
51442W        W22971  30.057  41.381  12.972
51443W        W22972  21.523   6.079  11.670
51444W        W22973   1.642  18.138   4.650
51445W        W22974  32.533  34.582  12.667
51446W        W22975  36.862  26.536   2.871
51447W        W22976   6.157   2.345  14.006
51448W        W22977  42.867  21.892  10.146
51449W        W22978  19.735   5.591   3.595
51450W        W22979  15.417  19.813  13.994
51451W        W22980  17.353  33.608  12.621
51452W        W22981  32.512   8.729   2.884
51453W        W22982   3.911  30.527  11.473
51454W        W22983   9.870   1.178   2.628
51455W        W22984  18.589   0.271   3.314
51456W        W22985  24.486  21.592   4.538
51457W        W22986  28.233  17.994  12.508
51458W        W22987  11.729  43.504  13.407
51459W        W22988   9.109  42.124  12.497
51460W        W22989  20.116  14.201   0.075
51461W        W22990  21.676  33.305   0.812
51462W        W22991  37.541  31.991   2.936
51463W        W22992  26.513  33.582  14.270
51464W        W22993  18.123  43.029  12.600
51465W        W22994  41.826  14.074  14.095
51466W        W22995  28.875  15.101  11.463
51467W        W22996   3.768  28.753   1.160
51468W        W22997  27.840   9.810  12.587
51469W        W22998  24.711  12.953   0.326
51470W        W22999  32.452  10.766  12.027
51471W        W23000  18.139  18.880   3.154
51472W        W23001   2.470   0.684   3.282
51473W        W23002  37.895  23.474   2.236
51474W        W23003  39.523  43.031  14.787
51475W        W23004  34.981  28.371  12.013
51476W        W23005  23.452  34.373  12.006
51477W        W23006   6.668  14.193   4.529
51478W        W23007  18.356  39.936  10.197
51479W        W23008  34.391  26.531  10.993
51480W        W23009  19.763   7.757   3.837
51481W        W23010  44.394  13.064  13.935
51482W        W23011  22.730  44.507  14.340
51483W        W23012   1.733  19.519  11.548
51484W        W23013  18.813  38.281  13.458
51485W        W23014  25.062   4.705  13.319
51486W        W23015  33.549  29.996   4.315
51487W        W23016  34.522  15.689  14.311
51488W        W23017  44.025  40.225  12.437
51489W        W23018   4.942  17.115   4.625
51490W        W23019  34.490   5.275   1.910
51491W        W23020  21.687  25.088  10.462
51492W        W23021   3.326  11.854   1.743
51493W        W23022  40.396  12.606  14.452
51494W        W23023  28.057  14.434   1.352
51495W        W23024  25.384  34.676   1.195
51496W        W23025  32.317  41.972   2.189
51497W        W23026  13.096  39.069  13.624
51498W        W23027  38.333   4.294   3.845
51499W        W23028  44.306  10.387  12.478
51500W        W23029   6.464   8.183  13.396
51501W        W23030  25.432   6.211  10.938
51502W        W23031  32.208   0.444   4.512
51503W        W23032  16.238  21.986  12.961
51504W        W23033   8.809  29.220  11.026
51505W        W23034  42.760   4.297  10.240
51506W        W23035  15.464   7.071  10.644
51507W        W23036  27.059   3.767   2.883
51508W        W23037  35.434  26.274  11.042
51509W        W23038  37.362  14.631  12.944
51510W        W23039  39.919  26.149  12.016
51511W        W23040  44.893  15.316   0.457
51512W        W23041   5.363  37.805  10.948
51513W        W23042  17.153  33.853   2.354
51514W        W23043  20.678  26.003   1.912
51515W        W23044  19.261  20.836  11.017
51516W        W23045  30.044  10.827  11.339
51517W        W23046  11.882  18.445  12.048
51518W        W23047  35.469  40.937  14.022
51519W        W23048  12.670  13.541   1.409
51520W        W23049  14.165  24.942   3.796
51521W        W23050  34.662  10.807  11.527
51522W        W23051  30.912  24.461   1.796
51523W        W23052  37.212  17.786   2.360
51524W        W23053  31.719  42.263  14.053
51525W        W23054  20.445  38.316   4.923
51526W        W23055  27.426  42.456   1.347
51527W        W23056  36.379  11.829   4.237
51528W        W23057  11.476  19.508   2.262
51529W        W23058  29.293  13.233  14.726
51530W        W23059  11.709  17.676  12.892
51531W        W23060  40.386   5.417   0.266
51532W        W23061  39.464  21.060   3.188
51533W        W23062  13.263  19.026   2.776
51534W        W23063  35.496  20.496  14.346
51535W        W23064   6.181  14.804   2.443
51536W        W23065  36.777   4.899  12.528
51537W        W23066  44.738  40.553   1.321
51538W        W23067  30.511  43.765   3.810
51539W        W23068  14.737  38.413  13.328
51540W        W23069  23.966  42.904   0.934
51541W        W23070  22.216   2.883   1.878
51542W        W23071  14.109  14.683  11.732
51543W        W23072  26.385  33.452   1.429
51544W        W23073  44.419   3.433   0.197
51545W        W23074  19.081  40.253   2.662
51546W        W23075  25.539  32.339   2.728
51547W        W23076  37.108  32.997   2.239
51548W        W23077  30.917  17.130  11.621
51549W        W23078  18.611  40.422  13.557
51550W        W23079  18.355  26.472   2.413
51551W        W23080  40.248  34.502  13.002
51552W        W23081   0.385  23.908  11.569
51553W        W23082  10.239  19.017  10.721
51554W        W23083   3.745  18.785   4.746
51555W        W23084  32.227  40.949  12.549
51556W        W23085  37.439  30.785   2.355
51557W        W23086  44.298  32.145  12.032
51558W        W23087   3.401  22.705   0.759
51559W        W23088  42.704  18.325  11.542
51560W        W23089  12.087  21.487  11.575
51561W        W23090  36.620  28.051   0.495
51562W        W23091  43.599  34.170   4.931
51563W        W23092   1.146  43.236  11.644
51564W        W23093  31.941  12.646  10.885
51565W        W23094   9.815   7.164   1.959
51566W        W23095  23.948  39.015  11.448
51567W        W23096  42.499  37.032  12.450
51568W        W23097  27.688  41.976   4.019
51569W        W23098   2.694  26.216   2.785
51570W        W23099  43.508  10.720   2.897
51571W        W23100   7.205  43.485   2.395
51572W        W23101  20.040  11.591   1.336
51573W        W23102   8.632  26.011   3.708
51574W        W23103  34.743  39.137   4.160
51575W        W23104  14.921  21.118  13.447
51576W        W23105  20.511  12.817  13.550
51577W        W23106  21.507   8.349  12.074
51578W        W23107  32.000  27.431  10.224
51579W        W23108  40.134  28.503  14.057
51580W        W23109  40.974  20.032   3.774
51581W        W23110  16.377   2.835  13.381
51582W        W23111  26.923  24.080  10.951
51583W        W23112   5.246  13.344   1.399
51584W        W23113   5.723  26.736   3.994
51585W        W23114  12.314  28.943  10.628
51586W        W23115   5.452   4.153   4.152
51587W        W23116  17.738  25.656   4.877
51588W        W23117   3.702  19.261  11.029
51589W        W23118  23.008   8.426   3.234
51590W        W23119  43.772  44.479   0.480
51591W        W23120   9.390  25.796  12.123
51592W        W23121  32.698  23.024  13.797
51593W        W23122   3.453   8.780   2.392
51594W        W23123  31.928  35.903  12.406
51595W        W23124   8.566  11.594  10.465
51596W        W23125  22.874  19.765  13.126
51597W        W23126  26.179   1.560  10.823
51598W        W23127  42.371  43.360   0.179
51599W        W23128  19.315  18.759  12.391
51600W        W23129  39.610   0.409   4.286
51601W        W23130  32.537  34.889   0.799
51602W        W23131  12.209  24.996   1.326
51603W        W23132   0.245  29.952   0.781
51604W        W23133  16.285   8.368   1.243
51605W        W23134  28.403  11.982  14.408
51606W        W23135  15.114  38.020   1.220
51607W        W23136  29.994   9.307  10.750
51608W        W23137  41.586  15.286   2.455
51609W        W23138   6.495  25.999  12.432
51610W        W23139  44.295  34.889   3.097
51611W        W23140  35.861  32.610  10.664
51612W        W23141  18.328  31.132   0.456
51613W        W23142  12.822  22.211   3.217
51614W        W23143  38.995  23.397   0.416
51615W        W23144   7.633  31.085   3.278
51616W        W23145  38.462  40.764  13.969
51617W        W23146  42.800  25.409   1.249
51618W        W23147  33.477  30.651   1.393
51619W        W23148  44.724  44.199   1.725
51620W        W23149  23.842  41.485  14.918
51621W        W23150  33.951  19.978  14.392
51622W        W23151  34.876   3.164   0.536
51623W        W23152  15.832  16.178  14.422
51624W        W23153  21.714  11.146  14.040
51625W        W23154   8.201  17.700   3.784
51626W        W23155  26.556  25.684  14.751
51627W        W23156  21.463  14.141   1.793
51628W        W23157  43.008  35.630  10.745
51629W        W23158  22.211  35.797  14.009
51630W        W23159  26.996  44.074   3.695
51631W        W23160  12.074  39.846  14.395
51632W        W23161  29.558  41.227  13.010
51633W        W23162  20.279  35.688   2.730
51634W        W23163  18.179  12.156  14.408
51635W        W23164  40.796  38.356  14.415
51636W        W23165  20.588   8.821   1.689
51637W        W23166  30.213   6.849  10.813
51638W        W23167  28.087   4.419   4.593
51639W        W23168  13.214  27.170   4.402
51640W        W23169  22.234   7.925  13.021
51641W        W23170  19.201  26.116  11.862
51642W        W23171   5.449  36.080  12.145
51643W        W23172   6.346   7.708   3.909
51644W        W23173  12.375   0.724   4.100
51645W        W23174   7.873  14.851   4.788
51646W        W23175   2.590  27.710  12.966
51647W        W23176   3.277  31.556  13.872
51648W        W23177  13.188  33.503   3.362
51649W        W23178  11.410  37.942  10.373
51650W        W23179  20.035   6.407   2.646
51651W        W23180  18.727  18.727   4.641
51652W        W23181  33.396  10.551   0.804
51653W        W23182  43.126   2.941  10.687
51654W        W23183  42.702  28.934   4.120
51655W        W23184  29.014   4.450   3.162
51656W        W23185  39.483  35.329  13.532
51657W        W23186  29.630  36.662  11.566
51658W        W23187  21.145   8.717  13.913
51659W        W23188  41.135   2.319   1.015
51660W        W23189  21.102  40.649  11.150
51661W        W23190   1.900  39.370   1.768
51662W        W23191  28.469  41.281  11.144
51663W        W23192   3.872   6.007   4.437
51664W        W23193   8.471  13.806   0.402
51665W        W23194   3.894  24.747  11.167
51666W        W23195   5.074  21.750   2.679
51667W        W23196  25.267  28.124  13.076
51668W        W23197  42.404  12.202   0.586
51669W        W23198  29.566  42.904   4.516
51670W        W23199  14.579   1.624   1.767
51671W        W23200  43.515  21.179   9.970
51672W        W23201   4.231  26.422   2.877
51673W        W23202   5.504  26.501   1.209
51674W        W23203  36.110  38.316   2.108
51675W        W23204  11.749  28.464  13.779
51676W        W23205  37.782  39.376  14.792
51677W        W23206   7.748  26.800   3.374
51678W        W23207  38.760   8.345   1.654
51679W        W23208  32.558  17.008   1.382
51680W        W23209  17.101  19.933   2.651
51681W        W23210  34.584  24.502  11.584
51682W        W23211   2.292  16.063  12.061
51683W        W23212  27.348  30.529  11.445
51684W        W23213  37.464   5.787  12.613
51685W        W23214  22.094  13.376   3.286
51686W        W23215  38.245  25.520  12.666
51687W        W23216  36.004   6.018   3.770
51688W        W23217  26.417  24.148  10.768
51689W        W23218  33.059  29.221   2.152
51690W        W23219  44.087  41.838  11.554
51691W        W23220  20.835  12.768   1.838
51692W        W23221  23.037   1.878   3.302
51693W        W23222  12.811  43.949   4.857
51694W        W23223  14.046  26.287  10.455
51695W        W23224  15.612  36.625   0.877
51696W        W23225   6.254  15.688   0.849
51697W        W23226  44.417   1.257   1.893
51698W        W23227  21.996   4.776   4.559
51699W        W23228  21.655  19.488  11.591
51700W        W23229  33.321  30.430   4.621
51701W        W23230  43.950  40.462   2.706
51702W        W23231   7.603  35.335  13.262
51703W        W23232  10.725  10.636   3.126
51704W        W23233  30.368   5.522  12.938
51705W        W23234  44.408  42.517  11.573
51706W        W23235  24.435   0.759   1.465
51707W        W23236  35.356  31.258  11.773
51708W        W23237  31.750   2.759   4.553
51709W        W23238  37.350   6.822  10.794
51710W        W23239   1.297  33.903   2.594
51711W        W23240  32.251  28.198   3.313
51712W        W23241  41.950   3.192   3.156
51713W        W23242  38.477  16.467  10.610
51714W        W23243  38.803  43.511   2.261
51715W        W23244  23.351   7.260   3.395
51716W        W23245  19.978  33.863   0.775
51717W        W23246   9.913   6.443  11.585
51718W        W23247  43.023  28.523   4.114
51719W        W23248  40.954  24.057  12.459
51720W        W23249  35.195  33.982   0.063
51721W        W23250   6.485   7.324  13.467
51722W        W23251  30.513  39.823   2.477
51723W        W23252  37.825   6.103  11.572
51724W        W23253  37.813   4.298   3.755
51725W        W23254  32.966  15.032  14.852
51726W        W23255  17.572  21.019   3.710
51727W        W23256  34.173  44.432   1.725
51728W        W23257  43.835  14.654  13.372
51729W        W23258   4.733   2.497  11.482
51730W        W23259  20.585  19.873   2.773
51731W        W23260  39.375  34.489  11.998
51732W        W23261  29.740  35.042  13.845
51733W        W23262   8.588  16.241   1.273
51734W        W23263  19.839  31.784  11.146
51735W        W23264   3.554  10.746   1.980
51736W        W23265  31.342  24.344   0.853
51737W        W23266  29.947  30.379  12.032
51738W        W23267   5.001  44.230   3.408
51739W        W23268   5.753  23.501   0.628
51740W        W23269  15.686  26.199   2.686
51741W        W23270  25.330  22.217  13.044
51742W        W23271  31.904   5.455  13.872
51743W        W23272  31.171  39.989   2.208
51744W        W23273  30.174  39.519  14.848
51745W        W23274  27.907  44.743  10.652
51746W        W23275  14.236  37.178  12.659
51747W        W23276  18.543  20.983  12.048
51748W        W23277  14.520  39.301  12.873
51749W        W23278  33.031  19.141  14.158
51750W        W23279  44.307   0.751   4.982
51751W        W23280  34.422  36.418  14.003
51752W        W23281  13.043  16.230   3.706
51753W        W23282  36.359  34.647  13.038
51754W        W23283  39.479  28.933  13.940
51755W        W23284  11.103  26.025   0.367
51756W        W23285  34.393  44.861  12.579
51757W        W23286  39.874  14.384   0.431
51758W        W23287   5.968  21.893  12.918
51759W        W23288   2.234   2.325   2.517
51760W        W23289   8.282  43.472  12.439
51761W        W23290  41.365  32.010   0.911
51762W        W23291   8.380  26.202  11.231
51763W        W23292  35.493  34.662  11.607
51764W        W23293  17.626  11.230   1.284
51765W        W23294  37.695  26.434   0.116
51766W        W23295   8.904   1.016   4.889
51767W        W23296  25.394  37.496   2.814
51768W        W23297  23.622  15.694   4.780
51769W        W23298   3.401  26.537  12.132
51770W        W23299   9.069  11.712   2.927
51771W        W23300   7.290  44.836   0.925
51772W        W23301  33.879  32.514   3.871
51773W        W23302  44.689  34.557  14.460
51774W        W23303   9.217  31.623   1.951
51775W        W23304   0.919   6.389  12.125
51776W        W23305  32.309   0.547   3.960
51777W        W23306  43.794  25.272  10.570
51778W        W23307  26.477  16.569  11.492
51779W        W23308  21.804  22.186  12.347
51780W        W23309   3.459  31.609  13.359
51781W        W23310  26.967  10.173   2.874
51782W        W23311  26.683  26.122   1.426
51783W        W23312   0.907   2.345   2.148
51784W        W23313   8.324  14.121  14.322
51785W        W23314   6.953  16.352  13.550
51786W        W23315   6.852   4.640  11.147
51787W        W23316  35.938  37.001   0.495
51788W        W23317  39.452   8.191   3.204
51789W        W23318  13.253  25.098  11.660
51790W        W23319  25.193  40.792  11.734
51791W        W23320  12.584  12.429  13.022
51792W        W23321   4.813  37.586  11.669
51793W        W23322  28.538  41.418  12.832
51794W        W23323  41.747  15.654  11.077
51795W        W23324  44.855  18.598  13.925
51796W        W23325  38.021  28.395   4.075
51797W        W23326  15.872  26.725   3.627
51798W        W23327  24.704  21.535  13.827
51799W        W23328  44.832  14.452   4.252
51800W        W23329  16.326   3.398  11.655
51801W        W23330  25.441  28.549  11.915
51802W        W23331  37.461  18.201  11.459
51803W        W23332   2.988  18.266   3.579
51804W        W23333   3.338  44.525   4.926
51805W        W23334  38.436  37.631  12.876
51806W        W23335   4.255  40.975  10.847
51807W        W23336  18.109  38.037   4.855
51808W        W23337  24.065  28.983   0.711
51809W        W23338  44.893   6.559   3.000
51810W        W23339  31.552  24.002  14.356
51811W        W23340  43.510  36.326  14.828
51812W        W23341  15.292  34.884   2.094
51813W        W23342  36.484  31.764   4.064
51814W        W23343   6.375   5.973   2.376
51815W        W23344  44.816  22.596  11.812
51816W        W23345  38.167  31.990  14.830
51817W        W23346  43.209  24.686   0.322
51818W        W23347  25.675  42.979   0.274
51819W        W23348  14.182  39.313   3.256
51820W        W23349  11.631  26.476   0.845
51821W        W23350  22.692  44.013   4.405
51822W        W23351  15.021  42.091  14.354
51823W        W23352  25.509   8.819  11.293
51824W        W23353  36.068  39.795   1.547
51825W        W23354  20.855  13.866  14.459
51826W        W23355  36.639   5.903   3.313
51827W        W23356  20.786  38.208  11.051
51828W        W23357   8.148  36.593  11.110
51829W        W23358  19.076  23.682  14.808
51830W        W23359  11.271  16.200  11.146
51831W        W23360  40.550  23.103  12.618
51832W        W23361  22.440  30.158  11.995
51833W        W23362  40.836  29.693  12.632
51834W        W23363   8.238  26.279  13.175
51835W        W23364   8.629  39.516   3.759
51836W        W23365  34.537  32.062  10.382
51837W        W23366  44.041  24.245  10.625
51838W        W23367   3.911  38.290  11.605
51839W        W23368   1.449  12.167   1.417
51840W        W23369  31.952  13.495  11.188
51841W        W23370   4.268  36.765   2.472
51842W        W23371  24.732  41.007   4.657
51843W        W23372  11.829  37.753   4.716
51844W        W23373  19.407  40.678   5.100
51845W        W23374  37.045  42.341  11.270
51846W        W23375  16.170  22.762  10.151
51847W        W23376  35.041  11.602   0.377
51848W        W23377  26.877  39.633  13.815
51849W        W23378  26.661  29.594  13.351
51850W        W23379  38.687  41.440   0.036
51851W        W23380  35.510  42.380   4.494
51852W        W23381   3.020  21.086  10.088
51853W        W23382   5.724  15.384  11.665
51854W        W23383   5.978  16.226  12.166
51855W        W23384   8.617  29.194  14.308
51856W        W23385  21.993   3.586  14.713
51857W        W23386  42.700  39.492  13.954
51858W        W23387  14.766   6.258  12.589
51859W        W23388  29.527  42.414   4.737
51860W        W23389  16.743   6.635   4.839
51861W        W23390   0.840  23.055  10.609
51862W        W23391  43.851  36.607  12.904
51863W        W23392  21.625  43.298  11.519
51864W        W23393   1.253  15.044   4.062
51865W        W23394  19.100  36.798   1.271
51866W        W23395  42.030  31.595  14.861
51867W        W23396  14.593  20.318   4.278
51868W        W23397  14.665   8.870  14.509
51869W        W23398  17.612  25.493   1.184
51870W        W23399  19.189   5.574  11.617
51871W        W23400   6.160  42.413   4.662
51872W        W23401   5.171  34.215   1.924
51873W        W23402  30.032  27.217   1.841
51874W        W23403  33.308  36.311   0.489
51875W        W23404  22.224  18.026  13.812
51876W        W23405  22.743  13.452  12.636
51877W        W23406  30.936  28.274  14.930
51878W        W23407  35.218  37.970  11.325
51879W        W23408   7.361  31.009   3.794
51880W        W23409  39.309  24.993   2.863
51881W        W23410   3.975  37.551  14.842
51882W        W23411   9.836  30.091  10.467
51883W        W23412  18.729  17.042  10.484
51884W        W23413  30.726   3.257   4.555
51885W        W23414  31.459   2.107  11.184
51886W        W23415  15.700   7.380   4.596
51887W        W23416  42.962  21.752   0.790
51888W        W23417   9.228  43.496   2.247
51889W        W23418  32.914  28.128  11.143
51890W        W23419  43.027  23.049  11.978
51891W        W23420  20.216  16.224   0.540
51892W        W23421  36.509  11.455   2.762
51893W        W23422  17.720   0.687   4.647
51894W        W23423  17.184   5.660   4.046
51895W        W23424   6.955   7.208  11.598
51896W        W23425  14.580  10.732   2.782
51897W        W23426   9.721  22.513   3.205
51898W        W23427  10.134   5.368   3.621
51899W        W23428  33.356  24.109  11.102
51900W        W23429  32.525  42.453  11.433
51901W        W23430  26.566  44.433   3.037
51902W        W23431   4.810   6.731  13.792
51903W        W23432  14.764  43.064   2.666
51904W        W23433  11.778  40.926   1.478
51905W        W23434   4.780  33.004   2.401
51906W        W23435   3.816  28.408   0.186
51907W        W23436  40.101   4.428  14.098
51908W        W23437   3.855  38.352   4.168
51909W        W23438  43.484  10.344   1.641
51910W        W23439  43.938  29.054   0.371
51911W        W23440  27.384   5.769  11.533
51912W        W23441   9.675  22.319  12.006
51913W        W23442  25.092  37.927   0.318
51914W        W23443  19.607  41.016  13.882
51915W        W23444  33.491   3.006  13.451
51916W        W23445  40.323  22.440   1.301
51917W        W23446  31.978  26.181  10.785
51918W        W23447  35.735  20.771  11.068
51919W        W23448  43.955  34.495   2.923
51920W        W23449  27.676  10.650  10.556
51921W        W23450  30.111   5.937   3.746
51922W        W23451   8.938  22.510  10.627
51923W        W23452   6.357  27.422   1.524
51924W        W23453  35.858  20.264  11.065
51925W        W23454  38.984  21.969   4.592
51926W        W23455  21.172  11.441   3.672
51927W        W23456   2.249  14.176  13.477
51928W        W23457  12.392  16.511  13.386
51929W        W23458  22.444  13.645   2.281
51930W        W23459  21.073  17.230   2.674
51931W        W23460  24.493  19.234   1.841
51932W        W23461  28.167  19.637  10.903
51933W        W23462  34.000  29.348  14.910
51934W        W23463  44.318  40.114  12.927
51935W        W23464   0.971  37.184   2.203
51936W        W23465   7.352  19.054  11.912
51937W        W23466  33.351  39.068   0.924
51938W        W23467  29.384  21.094  12.810
51939W        W23468   7.889  38.340  10.641
51940W        W23469  14.189  25.498  14.272
51941W        W23470  17.210   1.632  10.322
51942W        W23471  17.157  19.321   1.820
51943W        W23472  40.271  13.745  14.761
51944W        W23473  37.664  15.630  13.601
51945W        W23474  26.738  29.004   2.371
51946W        W23475   8.431   5.199   2.808
51947W        W23476  25.631  30.236   3.195
51948W        W23477  13.093  27.890   1.613
51949W        W23478   5.728   3.449  14.433
51950W        W23479  11.215  19.592   0.839
51951W        W23480   1.431  30.128   4.611
51952W        W23481  28.987  30.433  10.934
51953W        W23482  22.514  35.197  14.907
51954W        W23483  15.687  17.180   4.151
51955W        W23484   1.974  34.477  11.231
51956W        W23485   5.938  42.275   3.535
51957W        W23486  13.244   8.930  11.321
51958W        W23487   0.326  35.991  13.995
51959W        W23488  36.650  33.671  11.746
51960W        W23489  21.479  23.705   3.624
51961W        W23490  39.958  40.519  13.949
51962W        W23491  36.275   8.588  11.152
51963W        W23492  20.031   4.987   2.223
51964W        W23493   4.714  35.395   2.649
51965W        W23494   5.979  41.027   3.059
51966W        W23495  35.774  17.119  11.627
51967W        W23496  16.901   9.920  13.519
51968W        W23497  36.422  14.253   3.821
51969W        W23498   2.763  23.056   3.282
51970W        W23499  19.250  33.077  11.517
51971W        W23500  28.088   1.089   3.732
51972W        W23501  34.790  43.539   2.498
51973W        W23502  12.798  28.394  12.180
51974W        W23503  30.635  12.040   0.882
51975W        W23504  25.190   1.481   4.577
51976W        W23505  17.733  12.141   4.141
51977W        W23506  19.544  43.354   2.158
51978W        W23507  32.466  17.941  13.747
51979W        W23508  21.569   3.409  10.695
51980W        W23509  41.171  17.101   2.922
51981W        W23510   1.432  44.183   3.201
51982W        W23511  41.456   7.676  12.339
51983W        W23512  20.015  37.902   0.409
51984W        W23513  39.927   6.305  11.408
51985W        W23514  18.746  35.329   2.679
51986W        W23515  13.421  11.739  11.121
51987W        W23516   6.539  25.197   4.253
51988W        W23517   6.894  17.792  12.976
51989W        W23518  36.081  25.016   3.524
51990W        W23519   7.535  43.945   4.774
51991W        W23520  36.114   8.170   4.284
51992W        W23521   7.353  13.721  12.820
51993W        W23522  36.982  22.853   0.014
51994W        W23523  13.617  12.903   4.264
51995W        W23524  41.890  33.228   4.565
51996W        W23525  28.802  15.985  14.942
51997W        W23526  44.936  42.504  10.424
51998W        W23527  22.930   5.820   3.841
51999W        W23528  33.606  37.243   4.209
52000W        W23529  27.309  23.797  12.933
52001W        W23530  10.586  42.161   0.914
52002W        W23531  28.048  15.195   9.812
52003W        W23532  38.191   1.252   4.591
52004W        W23533   4.165  40.765   0.330
52005W        W23534   5.087  28.288   3.764
52006W        W23535   9.421  36.359   3.712
52007W        W23536  33.935  16.743   3.910
52008W        W23537  39.380   2.350   4.538
52009W        W23538   2.407  17.897   4.125
52010W        W23539  25.092  12.210  13.226
52011W        W23540  13.729  10.083   1.677
52012W        W23541  10.687  25.118  10.693
52013W        W23542   7.633  13.310  11.451
52014W        W23543  22.558  27.939   1.283
52015W        W23544  14.383  43.960   0.949
52016W        W23545  21.565  37.976   2.730
52017W        W23546   0.835  21.071  13.765
52018W        W23547   1.260  31.257   0.286
52019W        W23548  10.441   7.854   2.411
52020W        W23549   4.285  21.244   2.286
52021W        W23550  42.553  35.937   3.665
52022W        W23551  24.244  10.779   2.720
52023W        W23552  44.813  44.940  12.474
52024W        W23553  37.136   7.487  11.023
52025W        W23554  25.723  39.902   2.601
52026W        W23555  10.833   2.728   3.106
52027W        W23556   7.231  33.339  12.429
52028W        W23557  37.596  44.253  13.745
52029W        W23558  15.203  15.708   2.426
52030W        W23559  33.323  31.477  13.159
52031W        W23560  37.955  22.501   3.672
52032W        W23561   2.777  22.251   4.937
52033W        W23562  36.397  10.345  10.675
52034W        W23563  35.168  35.825   2.090
52035W        W23564  14.529  40.747  14.987
52036W        W23565  24.838  36.946   0.195
52037W        W23566  21.802  16.251  14.010
52038W        W23567  14.710  33.898   0.530
52039W        W23568  15.397   7.420   5.507
52040W        W23569  29.137  34.309  14.371
52041W        W23570  29.980   6.781   0.371
52042W        W23571  40.925   2.429   3.876
52043W        W23572  12.673  39.372   0.292
52044W        W23573  21.554  41.963  10.285
52045W        W23574  37.887  34.613   3.228
52046W        W23575   5.745  14.077  11.682
52047W        W23576  20.146  22.857  12.066
52048W        W23577  37.384  23.555   4.383
52049W        W23578  16.259  24.181  11.030
52050W        W23579  12.227  18.125   0.951
52051W        W23580  14.100  33.332  11.887
52052W        W23581  30.386  33.997   3.616
52053W        W23582  18.810  17.259   1.882
52054W        W23583  19.371  22.856  11.664
52055W        W23584  44.004  29.613   4.036
52056W        W23585  11.570  29.441  10.782
52057W        W23586   5.959  14.378  14.358
52058W        W23587  38.070   9.705  10.631
52059W        W23588  40.693  32.104   3.147
52060W        W23589  14.171   4.758   4.139
52061W        W23590  25.050  37.394  12.853
52062W        W23591   3.688  37.183   0.051
52063W        W23592   0.931  33.621   4.163
52064W        W23593  11.592   1.534   1.477
52065W        W23594  28.476  36.074  14.298
52066W        W23595   8.665  13.925   4.153
52067W        W23596  41.023  32.101  13.566
52068W        W23597   6.824  14.104  14.010
52069W        W23598  26.085  34.142  13.565
52070W        W23599   9.796  11.799  13.033
52071W        W23600   7.567   5.067   2.907
52072W        W23601  42.392  25.519   0.848
52073W        W23602  13.671   2.332   4.301
52074W        W23603   6.097  21.934  14.437
52075W        W23604  37.868  42.816   0.334
52076W        W23605  31.985  15.835   0.504
52077W        W23606  28.138   5.616  13.314
52078W        W23607  40.659  29.735   3.225
52079W        W23608  31.016  44.179  14.807
52080W        W23609  19.090  43.429  11.236
52081W        W23610  28.076  17.844  13.809
52082W        W23611   4.443  42.917  14.392
52083W        W23612  29.217  22.600   2.963
52084W        W23613   9.266   0.938   1.860
52085W        W23614  27.532  30.941  12.742
52086W        W23615  28.112   3.830  12.904
52087W        W23616  11.233   5.039   3.417
52088W        W23617  39.761   4.217  13.519
52089W        W23618   9.711  36.727  13.108
52090W        W23619  16.666  43.525  11.547
52091W        W23620  43.466  21.633   3.486
52092W        W23621  41.655   4.871  14.816
52093W        W23622  15.675  44.030  14.020
52094W        W23623  19.660  15.354   0.248
52095W        W23624  20.289   5.739   4.891
52096W        W23625  33.827   8.741   0.672
52097W        W23626  17.053  16.851   2.414
52098W        W23627  24.624  42.271   1.283
52099W        W23628  16.741  24.630  13.479
52100W        W23629   7.495  43.343  11.082
52101W        W23630  21.562  31.990   1.327
52102W        W23631  19.098  21.996   2.408
52103W        W23632  38.569   8.958  14.223
52104W        W23633  28.001  44.558   3.669
52105W        W23634  16.460  24.957  11.944
52106W        W23635   7.466   0.322  12.126
52107W        W23636  36.519   1.885   0.850
52108W        W23637  35.901   9.155   4.037
52109W        W23638  26.961  42.690   1.402
52110W        W23639  21.184  40.963   2.115
52111W        W23640  37.568  13.013   2.745
52112W        W23641  13.749   3.791   4.044
52113W        W23642  42.735  13.715   4.796
52114W        W23643  25.193  15.223   4.480
52115W        W23644  19.955  35.997   4.096
52116W        W23645   7.094  19.750  13.455
52117W        W23646  21.810  26.587  12.033
52118W        W23647  20.609  18.685  10.467
52119W        W23648  24.792  21.118   2.263
52120W        W23649  11.686   1.460   4.337
52121W        W23650  30.558   2.440  10.329
52122W        W23651   9.160  34.415   0.001
52123W        W23652   2.375  39.927   1.476
52124W        W23653  10.322  15.388   4.427
52125W        W23654  24.729  14.805  13.456
52126W        W23655  24.479  35.617   2.764
52127W        W23656  24.960  19.505   1.828
52128W        W23657   5.129   3.410  13.770
52129W        W23658  13.332  21.001   4.551
52130W        W23659   1.499  36.717   5.918
52131W        W23660  20.650  26.937  11.084
52132W        W23661  33.023  43.012  13.729
52133W        W23662  15.744  16.239  13.510
52134W        W23663  11.610  20.914   0.383
52135W        W23664  12.110  29.461   0.427
52136W        W23665  31.088  18.345  10.289
52137W        W23666   3.733   2.122  11.026
52138W        W23667  18.720  24.049   0.983
52139W        W23668  35.939  34.221   0.749
52140W        W23669  15.999   7.607  12.182
52141W        W23670  34.948  27.144   0.641
52142W        W23671  14.418  33.341  14.309
52143W        W23672  10.379  41.259   4.487
52144W        W23673  43.594  43.061   4.965
52145W        W23674  42.672   5.572   3.506
52146W        W23675  44.970   6.830  10.669
52147W        W23676  22.482  15.815  13.011
52148W        W23677   5.756  17.178   9.861
52149W        W23678  21.796   6.853  10.632
52150W        W23679   7.929  12.906  11.304
52151W        W23680   4.916  11.830   3.123
52152W        W23681   6.489  31.527   0.892
52153W        W23682   4.368  35.873   3.577
52154W        W23683  17.766  39.576   3.458
52155W        W23684   5.359  20.029   2.465
52156W        W23685  37.829  36.783  13.433
52157W        W23686  16.552  36.544   1.851
52158W        W23687  38.775  24.134  14.367
52159W        W23688  18.986   8.677   2.687
52160W        W23689  14.574  30.599  13.084
52161W        W23690   1.919  24.053  12.918
52162W        W23691   2.750   6.844  13.465
52163W        W23692  16.376  21.802  11.630
52164W        W23693  15.740   6.793  14.801
52165W        W23694  27.360  34.927   1.193
52166W        W23695  18.823  29.198   2.144
52167W        W23696   5.165  14.975   4.106
52168W        W23697   5.892  13.095  14.458
52169W        W23698  13.118  19.309  13.032
52170W        W23699   6.438   1.475   3.215
52171W        W23700  24.722  26.912  13.404
52172W        W23701   6.016  12.666   3.704
52173W        W23702  33.941  34.844  10.631
52174W        W23703   8.064  31.005   4.517
52175W        W23704  11.291  39.338   0.281
52176W        W23705  38.112  34.289   4.182
52177W        W23706  22.288   8.657   1.056
52178W        W23707   1.829  44.767   4.562
52179W        W23708  31.530  15.263   2.616
52180W        W23709  36.817  15.326  11.636
52181W        W23710   4.318  23.695  13.839
52182W        W23711  38.919  15.996  12.627
52183W        W23712   5.733  22.512  13.409
52184W        W23713  41.887  29.650  12.430
52185W        W23714  23.360   1.023  12.714
52186W        W23715   5.061   9.942  14.928
52187W        W23716  11.259  29.234   0.810
52188W        W23717  18.412  23.445   2.437
52189W        W23718  12.770  44.445  11.160
52190W        W23719   6.540  16.180  12.626
52191W        W23720  27.868  18.085   2.947
52192W        W23721  25.162   5.438  12.939
52193W        W23722  11.046   3.390  14.546
52194W        W23723  35.409   3.823  12.393
52195W        W23724   3.020  19.640   1.362
52196W        W23725   7.073  44.348  11.983
52197W        W23726  11.521  43.348   0.649
52198W        W23727  40.537   6.814  12.016
52199W        W23728  20.353  30.136   2.374
52200W        W23729  36.836  18.328  12.686
52201W        W23730  25.476  40.765  12.392
52202W        W23731  14.340  39.355  13.399
52203W        W23732  35.066  30.280   4.276
52204W        W23733   3.314  19.273  13.943
52205W        W23734  26.528  30.387  11.999
52206W        W23735  26.740   2.323  11.156
52207W        W23736  25.639  10.031   2.132
52208W        W23737  30.147  24.917   0.575
52209W        W23738  42.253   0.839   0.901
52210W        W23739  21.009  41.848   2.671
52211W        W23740  34.862  10.681  13.295
52212W        W23741  44.591  10.912  11.898
52213W        W23742  30.732  41.031   3.758
52214W        W23743  32.950  37.544   3.190
52215W        W23744   5.291  27.229   2.768
52216W        W23745  38.099  17.732   3.737
52217W        W23746  10.511   0.931   1.994
52218W        W23747  44.307  34.130  13.769
52219W        W23748  24.260  42.365   2.724
52220W        W23749  16.443   8.312   5.907
52221W        W23750  28.671   0.269  10.740
52222W        W23751  24.224  40.156  14.944
52223W        W23752  42.877  40.596   1.708
52224W        W23753  11.330  15.237  12.091
52225W        W23754  33.046  35.115  13.401
52226W        W23755  33.388  38.914   4.041
52227W        W23756  10.338   3.847  12.440
52228W        W23757   7.837  36.781  14.935
52229W        W23758  36.025  33.888   4.591
52230W        W23759   4.677  21.746  14.824
52231W        W23760  22.268  20.127  14.085
52232W        W23761  31.665  29.452   2.219
52233W        W23762  28.892  31.124   0.764
52234W        W23763   7.702  35.847   3.068
52235W        W23764  31.352   7.131   1.097
52236W        W23765  14.101  18.639  14.548
52237W        W23766  32.366   1.804   0.495
52238W        W23767  31.245  38.090   1.571
52239W        W23768   4.340  14.633   0.724
52240W        W23769  31.745  40.731  11.138
52241W        W23770  10.214  36.301   4.637
52242W        W23771   1.502  33.776   2.115
52243W        W23772  20.613  20.582  10.754
52244W        W23773  34.693  12.693   3.111
52245W        W23774  12.293   9.281   0.698
52246W        W23775  17.818  11.292   1.758
52247W        W23776  36.130   6.675   2.339
52248W        W23777  17.531  17.161  13.827
52249W        W23778  30.368  32.171  12.384
52250W        W23779  25.655   7.914   0.056
52251W        W23780  20.514  29.293  13.875
52252W        W23781   8.515  37.784  14.329
52253W        W23782   7.527  13.693  10.778
52254W        W23783  26.147  13.779  12.627
52255W        W23784   4.225  22.032   3.894
52256W        W23785  34.606  44.365  12.704
52257W        W23786  18.108  19.563  12.608
52258W        W23787   3.747  13.846   0.265
52259W        W23788  41.024  30.131   4.067
52260W        W23789   0.953  30.251  11.993
52261W        W23790  26.063  14.773  14.861
52262W        W23791  14.531   2.938   4.965
52263W        W23792   1.344  44.470  14.937
52264W        W23793  23.646  23.637  14.756
52265W        W23794  37.101  18.219   4.642
52266W        W23795  43.260  15.302  14.827
52267W        W23796  35.858  43.742  12.624
52268W        W23797  24.696  11.654   1.673
52269W        W23798  11.237  13.114   2.737
52270W        W23799  41.001  25.130  14.714
52271W        W23800  21.823   3.471  12.954
52272W        W23801  32.909  10.072  10.713
52273W        W23802  18.830  19.853   1.456
52274W        W23803  41.378   3.276  10.847
52275W        W23804  37.326   5.777  10.758
52276W        W23805  20.194  39.494   1.702
52277W        W23806  32.372  40.021  11.463
52278W        W23807   4.262  21.488   0.273
52279W        W23808   5.902  38.009   1.224
52280W        W23809   2.601   5.252  13.832
52281W        W23810  20.815   4.762  11.622
52282W        W23811  26.412   7.027  13.252
52283W        W23812  37.411  36.487  13.474
52284W        W23813  13.527   0.395  14.510
52285W        W23814   2.475  11.200  13.874
52286W        W23815   0.331  40.971   4.983
52287W        W23816  42.485  15.760   1.342
52288W        W23817  40.959  43.966  13.059
52289W        W23818   3.395  42.208  14.791
52290W        W23819  22.334   6.952   1.480
52291W        W23820  19.714  10.153   1.488
52292W        W23821  43.362   4.290   1.830
52293W        W23822  36.545  33.830  11.261
52294W        W23823  37.266  18.266   0.831
52295W        W23824  20.197  29.872  10.536
52296W        W23825   4.135  32.136  14.878
52297W        W23826  43.848   1.651  11.069
52298W        W23827   4.338  36.156   3.127
52299W        W23828  36.438  13.851  12.560
52300W        W23829  43.126  12.751   2.720
52301W        W23830  33.355  17.742   2.830
52302W        W23831  11.631   5.657   2.778
52303W        W23832  21.133  42.355   4.421
52304W        W23833   6.882  23.493  10.657
52305W        W23834   0.742  26.025   2.843
52306W        W23835  26.263  15.676  13.676
52307W        W23836  20.023  40.593   2.873
52308W        W23837   4.799   6.014  10.738
52309W        W23838  29.082  40.456   2.501
52310W        W23839  18.616  43.925  10.574
52311W        W23840   9.165  28.684  14.155
52312W        W23841  21.933  43.342   4.440
52313W        W23842  11.952  32.433  13.963
52314W        W23843  31.923  10.860  11.698
52315W        W23844   1.138  10.387   0.298
52316W        W23845   1.976  21.652  13.807
52317W        W23846  12.730  17.191   0.329
52318W        W23847   4.746   3.431   1.689
52319W        W23848  27.534  31.035  12.225
52320W        W23849  27.414  43.267   2.664
52321W        W23850  15.630  15.660   1.210
52322W        W23851  41.941  12.272   4.078
52323W        W23852  34.321  23.083   1.342
52324W        W23853  23.020   5.092   2.227
52325W        W23854  29.205   9.754  13.355
52326W        W23855  28.665  30.959  10.911
52327W        W23856   6.938  27.017  13.577
52328W        W23857  38.099  39.289  10.719
52329W        W23858  32.628  17.181  11.025
52330W        W23859  31.676  12.835  12.486
52331W        W23860  16.165  39.078  12.093
52332W        W23861  29.428  13.995   0.234
52333W        W23862   1.402  14.918  11.206
52334W        W23863  33.933  38.493  14.045
52335W        W23864   9.222  37.879  12.878
52336W        W23865  22.263  28.000  12.573
52337W        W23866  26.728  13.093   3.768
52338W        W23867  11.933  17.433   3.215
52339W        W23868   0.747  43.485   3.324
52340W        W23869  13.302  32.481  10.709
52341W        W23870  25.214  27.943   2.849
52342W        W23871  27.856  42.273  10.798
52343W        W23872   4.090  37.100  13.522
52344W        W23873   8.190  26.128   2.325
52345W        W23874  23.094  30.665   3.421
52346W        W23875   4.919  25.931  12.959
52347W        W23876  28.440   7.354  12.397
52348W        W23877  34.028  43.434   0.230
52349W        W23878   8.021  29.974  14.201
52350W        W23879  42.422  29.617  13.109
52351W        W23880  40.481   7.133  12.413
52352W        W23881  26.556  30.883  11.940
52353W        W23882  43.668  25.192   1.115
52354W        W23883  20.626  12.633  12.090
52355W        W23884  22.269  19.266  14.421
52356W        W23885   7.746  29.515  14.363
52357W        W23886  25.411  44.782   2.251
52358W        W23887  20.082   4.910   4.809
52359W        W23888  41.347  11.579   4.163
52360W        W23889  24.974  11.667   0.356
52361W        W23890  44.326  40.997   3.281
52362W        W23891   9.740  29.463   3.625
52363W        W23892  13.081   6.361  13.388
52364W        W23893  37.648  19.029   3.252
52365W        W23894  13.065   5.866  14.550
52366W        W23895  18.671  39.773   1.933
52367W        W23896  25.281   9.945   0.927
52368W        W23897  29.047  39.013   1.278
52369W        W23898  16.824   2.764  11.545
52370W        W23899  30.180  38.868  12.979
52371W        W23900  38.544   2.208   2.324
52372W        W23901  11.779  41.400  12.614
52373W        W23902  11.032  12.475  14.079
52374W        W23903  34.078  18.551  13.121
52375W        W23904  10.055  32.110   2.300
52376W        W23905   7.161   9.256  14.135
52377W        W23906  18.641  44.476   9.821
52378W        W23907  26.414  28.914   1.735
52379W        W23908  38.290  23.604   4.064
52380W        W23909  11.767   4.625  12.253
52381W        W23910  37.667  21.235  14.991
52382W        W23911  18.157   3.859   2.116
52383W        W23912  27.659  34.088   3.514
52384W        W23913  37.634   2.446   4.795
52385W        W23914  18.339   4.212   4.669
52386W        W23915  11.279   6.700  14.069
52387W        W23916  30.667  38.856   3.436
52388W        W23917  41.929  13.218   1.882
52389W        W23918  21.660   8.965  11.543
52390W        W23919   7.684  12.257  13.465
52391W        W23920  36.774  31.736   4.724
52392W        W23921   6.087  24.408  12.383
52393W        W23922  37.797  16.807   4.736
52394W        W23923   1.254  39.375  11.116
52395W        W23924  32.019   5.380  13.333
52396W        W23925  24.829  15.645  11.608
52397W        W23926   9.080  40.946   4.598
52398W        W23927  39.396  40.050   2.835
52399W        W23928  12.270  40.930   1.652
52400W        W23929  12.779  24.350  14.885
52401W        W23930   3.367  19.698   1.802
52402W        W23931  44.429  34.663   2.651
52403W        W23932   4.386  11.080  14.898
52404W        W23933  34.766  29.712   1.719
52405W        W23934   1.387  25.468  14.687
52406W        W23935  44.846  12.708  14.968
52407W        W23936  14.844   3.649  11.193
52408W        W23937  40.518  20.185  11.636
52409W        W23938   0.505  39.603  10.418
52410W        W23939   3.072   3.897  12.479
52411W        W23940  14.431  37.017  13.932
52412W        W23941  40.927  19.232   0.820
52413W        W23942  43.514  31.004  14.864
52414W        W23943  42.979  30.832   5.011
52415W        W23944  41.038  44.280  14.685
52416W        W23945   8.624  23.427   3.203
52417W        W23946  13.751  14.849   2.442
52418W        W23947   7.211  26.345  13.890
52419W        W23948  20.220   3.681  10.496
52420W        W23949  27.843  42.532   2.171
52421W        W23950  23.369  16.065  10.736
52422W        W23951  30.097  23.111   3.734
52423W        W23952  25.224   1.427   2.521
52424W        W23953  41.151  12.606   1.376
52425W        W23954  22.672  43.876  10.758
52426W        W23955  31.610  16.279  10.786
52427W        W23956  42.047  34.338  11.054
52428W        W23957  24.884   6.831  14.481
52429W        W23958  31.555  21.783   0.258
52430W        W23959  20.589   8.462  12.074
52431W        W23960  41.800  40.316  10.798
52432W        W23961  25.204  29.798  12.723
52433W        W23962  17.841  13.150   2.198
52434W        W23963  18.688  24.589   4.423
52435W        W23964  15.853  43.165   4.052
52436W        W23965  42.674  39.122   1.343
52437W        W23966  23.718  33.762  11.191
52438W        W23967  38.851  41.888  12.024
52439W        W23968  36.594  39.320   3.806
52440W        W23969  15.126   7.993  11.593
52441W        W23970  44.818  17.377   4.584
52442W        W23971  22.193  21.047  13.854
52443W        W23972  32.116  15.809  13.943
52444W        W23973  27.743  20.670   2.350
52445W        W23974  22.043  29.160   0.266
52446W        W23975  23.495  30.638  14.290
52447W        W23976   1.435  14.191   0.684
52448W        W23977  29.079  22.188   4.733
52449W        W23978  34.975  19.757   4.073
52450W        W23979  32.339  42.399   2.876
52451W        W23980  24.263   4.748  12.068
52452W        W23981  27.525   0.164   1.885
52453W        W23982  38.667  28.546  11.110
52454W        W23983  22.540  13.707  14.459
52455W        W23984  19.446  17.361   3.378
52456W        W23985  36.102  44.348   4.270
52457W        W23986  20.167  20.635   4.465
52458W        W23987  38.258  43.638   1.384
52459W        W23988  34.066  42.433  13.370
52460W        W23989  16.677  12.797  13.554
52461W        W23990  14.974  35.265   4.811
52462W        W23991  35.023  37.009   4.328
52463W        W23992   1.778  12.328   1.801
52464W        W23993  33.564  14.947   2.861
52465W        W23994  16.032  24.456   3.121
52466W        W23995  35.918   7.833   2.958
52467W        W23996  19.097  39.651  10.822
52468W        W23997   2.802  38.969  11.043
52469W        W23998  32.900  30.498  14.913
52470W        W23999   9.469  19.259   3.119
52471W        W24000  34.023  31.323  14.933
52472W        W24001  28.003  40.017  13.546
52473W        W24002   4.843  44.418   2.019
52474W        W24003  43.359  44.692   2.171
52475W        W24004   8.680   8.936  14.423
52476W        W24005   5.296  42.198   2.221
52477W        W24006  37.555  13.127   4.222
52478W        W24007  16.728  30.195  10.834
52479W        W24008  15.309   7.228  11.459
52480W        W24009   6.949  18.898  11.117
52481W        W24010  43.415   2.173   0.696
52482W        W24011  31.563  33.845  14.780
52483W        W24012   5.976  39.263  10.539
52484W        W24013  29.805  15.134   2.627
52485W        W24014   7.882  21.781  12.904
52486W        W24015   7.858   0.853   0.421
52487W        W24016  32.584  41.546   2.330
52488W        W24017  24.850  17.066   4.435
52489W        W24018  31.432  24.828   3.081
52490W        W24019  32.999  33.357  13.318
52491W        W24020  44.954  20.076  12.889
52492W        W24021  40.137  35.842   4.736
52493W        W24022  33.660   4.772   0.772
52494W        W24023  18.313  27.019  12.970
52495W        W24024  26.901  21.254   2.924
52496W        W24025   2.923  18.326   0.864
52497W        W24026   3.817  26.036   0.750
52498W        W24027  35.581  18.405  12.050
52499W        W24028  17.010  30.469  14.904
52500W        W24029  23.968  34.710  11.218
52501W        W24030  26.729  13.550  14.507
52502W        W24031  11.344   6.444   1.878
52503W        W24032   3.775  10.371  11.987
52504W        W24033   8.710  29.626   3.583
52505W        W24034  23.986   1.489  11.524
52506W        W24035   0.216   7.647  14.124
52507W        W24036  36.914   1.032  13.002
52508W        W24037  31.909  32.537  12.338
52509W        W24038  18.376  27.523  10.842
52510W        W24039  28.436  31.503   0.418
52511W        W24040  29.164  11.616   3.687
52512W        W24041  44.398  12.193  13.348
52513W        W24042  30.241  21.313   0.767
52514W        W24043  37.713  26.082  13.365
52515W        W24044  18.571  12.156  12.918
52516W        W24045  37.693  43.096  11.443
52517W        W24046  29.670  15.875   1.380
52518W        W24047  44.330   1.329  11.658
52519W        W24048  37.740  26.529   0.709
52520W        W24049   5.929  23.077  14.821
52521W        W24050  42.249  39.426   4.759
52522W        W24051  16.813  32.056  11.665
52523W        W24052  24.009  44.109  12.050
52524W        W24053  44.461  20.217  10.212
52525W        W24054  35.569   6.869   2.920
52526W        W24055   4.289   5.713  14.412
52527W        W24056   0.970   3.864  13.436
52528W        W24057  44.247  38.427   3.378
52529W        W24058  43.615  31.822   0.731
52530W        W24059  19.067   2.390   0.931
52531W        W24060   6.393   5.199   0.213
52532W        W24061   5.164  39.574  12.509
52533W        W24062  11.129  37.087  14.740
52534W        W24063  34.548  15.119  12.127
52535W        W24064   4.185   2.794  11.656
52536W        W24065   9.138  28.779  11.988
52537W        W24066  39.087  26.513  13.321
52538W        W24067  41.729  42.343  10.730
52539W        W24068  24.015   8.687   0.374
52540W        W24069   5.158  30.110   0.882
52541W        W24070  35.653  32.779  11.197
52542W        W24071   4.414  15.802   2.204
52543W        W24072  39.239  36.781   3.145
52544W        W24073   6.044  14.318   0.218
52545W        W24074  33.635  27.583   0.654
52546W        W24075  32.000   0.348  14.292
52547W        W24076   9.345   6.706   4.826
52548W        W24077  23.501  10.455  13.482
52549W        W24078   3.580  21.688  13.876
52550W        W24079  20.187  29.426   3.613
52551W        W24080   8.421  37.591   1.082
52552W        W24081   6.797   3.550  14.266
52553W        W24082   0.472  17.683  14.389
52554W        W24083  11.852  18.337   4.618
52555W        W24084  29.006  35.666   1.755
52556W        W24085   4.722  40.419   3.740
52557W        W24086  27.104   5.424   1.248
52558W        W24087  39.799  20.285   0.843
52559W        W24088  24.312   9.719  12.118
52560W        W24089   0.326  14.751   3.209
52561W        W24090   4.797   9.819  12.196
52562W        W24091  13.326  20.529   1.573
52563W        W24092  13.592  39.864   0.346
52564W        W24093  19.681  33.643   4.554
52565W        W24094  15.714  41.808  12.973
52566W        W24095  29.847  18.533   1.285
52567W        W24096  35.862  28.449   2.223
52568W        W24097  10.886  37.642  13.373
52569W        W24098  36.827  35.368   0.833
52570W        W24099  15.696  40.501   3.662
52571W        W24100   9.474   4.323   3.579
52572W        W24101  29.441   4.841   4.138
52573W        W24102  27.378  22.190  10.878
52574W        W24103  16.392  44.270   0.291
52575W        W24104  16.216  32.457   3.923
52576W        W24105  25.656  26.175  14.775
52577W        W24106  42.405  25.694   1.431
52578W        W24107  31.882   0.011  14.920
52579W        W24108   9.120  18.384   0.389
52580W        W24109  31.445  15.712   1.280
52581W        W24110  33.371  27.682  10.627
52582W        W24111  14.291   4.878   1.937
52583W        W24112   6.194  31.893  14.304
52584W        W24113  14.694  33.891   4.462
52585W        W24114  37.824  30.074   2.752
52586W        W24115  19.494  14.077  12.125
52587W        W24116   4.019  26.601   0.433
52588W        W24117  31.439  10.769   4.133
52589W        W24118  42.784  34.503   0.057
52590W        W24119  39.570  24.052   4.467
52591W        W24120  28.113  25.576  12.914
52592W        W24121  16.228  32.549   4.459
52593W        W24122  44.152  38.440  11.672
52594W        W24123  41.235  27.532  14.250
52595W        W24124  31.994  21.112  13.806
52596W        W24125  36.417  27.439  14.904
52597W        W24126  26.468  12.171  12.000
52598W        W24127   4.722  44.822  11.013
52599W        W24128  36.558  31.908   0.925
52600W        W24129  33.657   6.786  12.139
52601W        W24130  12.891   8.398   1.471
52602W        W24131  29.421  40.045   2.374
52603W        W24132  10.093  24.895   4.951
52604W        W24133   8.843  17.294   0.852
52605W        W24134  30.111   0.711   3.401
52606W        W24135   3.998  35.648  14.574
52607W        W24136  11.663  13.197   3.883
52608W        W24137  16.680  23.498   3.131
52609W        W24138  12.371   0.551   3.233
52610W        W24139  31.493  30.709   4.923
52611W        W24140  27.478  36.638   0.722
52612W        W24141  38.395  39.076  14.402
52613W        W24142  35.978   5.601   3.465
52614W        W24143  36.839  41.625  13.040
52615W        W24144  16.434  31.064  10.325
52616W        W24145  40.407   8.687   0.222
52617W        W24146   5.477  41.914   2.803
52618W        W24147  42.273   7.873   1.751
52619W        W24148  35.747  20.864   0.322
52620W        W24149  28.266  32.939   3.744
52621W        W24150  11.941  11.177   2.213
52622W        W24151  44.595   4.268  10.186
52623W        W24152   4.472  15.058   4.146
52624W        W24153  41.952  23.274   1.875
52625W        W24154  39.156  41.083  10.716
52626W        W24155   6.776  29.402  14.304
52627W        W24156  29.129   6.920   2.801
52628W        W24157  27.983  44.987  13.339
52629W        W24158  34.879  39.237   1.850
52630W        W24159  25.600  10.050  14.997
52631W        W24160  23.772   9.262  11.687
52632W        W24161  27.531  39.893   2.050
52633W        W24162   5.189   5.428  13.177
52634W        W24163  25.929  23.157   3.374
52635W        W24164  26.735   1.459   2.309
52636W        W24165  33.975  19.039  14.307
52637W        W24166  41.583   1.983   3.667
52638W        W24167  32.335  25.786   0.818
52639W        W24168  23.086  36.581   4.183
52640W        W24169  14.710  12.894  12.088
52641W        W24170  13.381  36.982   3.167
52642W        W24171   7.410  42.001  10.570
52643W        W24172  29.916  43.024  11.988
52644W        W24173  11.129  42.098   0.900
52645W        W24174  32.927  35.612   3.369
52646W        W24175  29.899  14.674   3.770
52647W        W24176  28.600  43.289   4.678
52648W        W24177  40.658  30.813  10.319
52649W        W24178  38.801   6.228   3.901
52650W        W24179  42.477   9.232  13.339
52651W        W24180  21.749   7.615   1.774
52652W        W24181   5.390  17.311  14.980
52653W        W24182   5.538  22.692   4.636
52654W        W24183   3.006  41.415   4.015
52655W        W24184  41.260  33.282   3.110
52656W        W24185  43.304  26.113  12.111
52657W        W24186   6.209  35.449   4.083
52658W        W24187   1.992  18.217   2.088
52659W        W24188  19.746  17.776   3.444
52660W        W24189  25.698  41.052  12.764
52661W        W24190  37.315   3.242   2.266
52662W        W24191  31.089   9.972   1.412
52663W        W24192  43.503   0.716   2.318
52664W        W24193  39.542  20.488  13.440
52665W        W24194  38.390  41.050  12.160
52666W        W24195  44.850   6.659  14.916
52667W        W24196  19.702  16.367   0.286
52668W        W24197  37.002  19.078  12.577
52669W        W24198  38.290  29.670  10.634
52670W        W24199  29.138  30.022  11.697
52671W        W24200  19.391  41.126   3.522
52672W        W24201  27.380  36.537  12.534
52673W        W24202  41.762  44.937   3.363
52674W        W24203  24.231  30.740   2.250
52675W        W24204  29.044  17.605  12.137
52676W        W24205  34.235  41.366   2.773
52677W        W24206  41.754  14.201   0.475
52678W        W24207  31.537  25.348   3.082
52679W        W24208   3.474  36.597  12.852
52680W        W24209   4.770  44.288   0.976
52681W        W24210  29.592  17.270   0.730
52682W        W24211  23.659  40.254  13.272
52683W        W24212   8.238  36.509   0.275
52684W        W24213  28.404  17.089  12.592
52685W        W24214  14.137   3.898   1.982
52686W        W24215  35.351  19.526  10.656
52687W        W24216  19.521   5.434   2.290
52688W        W24217  16.239  31.262   0.292
52689W        W24218  43.320  26.179   1.443
52690W        W24219  42.291  15.796  13.832
52691W        W24220   2.968  39.926  13.400
52692W        W24221  22.227  24.459   3.279
52693W        W24222  27.013  21.936  10.621
52694W        W24223   3.462  10.340  13.384
52695W        W24224  16.306  29.847  10.725
52696W        W24225  25.711  44.537  11.413
52697W        W24226   9.902  12.937  11.549
52698W        W24227  36.320  39.449   3.346
52699W        W24228   1.421   7.889   2.792
52700W        W24229  37.403  29.033  12.636
52701W        W24230   9.444  32.874   2.176
52702W        W24231  13.044  19.233   1.846
52703W        W24232  23.684   4.632   3.632
52704W        W24233  15.422  25.772   3.740
52705W        W24234   6.744  31.636  12.872
52706W        W24235  27.428   3.391   0.896
52707W        W24236  22.520  32.446   2.404
52708W        W24237  15.203  33.327   4.862
52709W        W24238  30.389   1.769   0.510
52710W        W24239   4.607  35.798  14.810
52711W        W24240   1.014  41.802  14.369
52712W        W24241  38.108  33.360  11.682
52713W        W24242  33.121  12.191   1.697
52714W        W24243  30.992   0.170   4.241
52715W        W24244  44.387  35.595  12.558
52716W        W24245  37.477  37.286  13.895
52717W        W24246   5.384  42.714   2.274
52718W        W24247  25.178   1.537   3.579
52719W        W24248  12.894  27.544   4.863
52720W        W24249   4.232  42.410   2.958
52721W        W24250   8.766  38.639   4.169
52722W        W24251  28.055  44.001   3.500
52723W        W24252  41.408  42.000   0.473
52724W        W24253  41.832   4.386  13.178
52725W        W24254  26.541  30.424  14.848
52726W        W24255   0.450  22.762   1.401
52727W        W24256  17.345  35.179   0.964
52728W        W24257  29.419  27.791  12.854
52729W        W24258  38.488  17.223  13.061
52730W        W24259  44.482  44.523   1.392
52731W        W24260  43.406  21.119  14.338
52732W        W24261  41.841   1.248   3.604
52733W        W24262   1.272   1.997   2.826
52734W        W24263  11.156  41.867  14.399
52735W        W24264  37.773  25.617   3.686
52736W        W24265  39.409   5.815  12.147
52737W        W24266   7.781  42.003   1.801
52738W        W24267   8.401  11.220  14.063
52739W        W24268   8.272  41.253  11.821
52740W        W24269  44.975  36.268  14.796
52741W        W24270   6.841  18.131   1.970
52742W        W24271   3.825  43.777  13.158
52743W        W24272  15.665  40.158  11.554
52744W        W24273  14.423   7.633  11.121
52745W        W24274  29.625  44.134  12.991
52746W        W24275  26.636   3.783  13.419
52747W        W24276   6.964  23.975   0.892
52748W        W24277   2.749  14.745  10.622
52749W        W24278  27.613   3.417  12.322
52750W        W24279  36.501  44.813  14.568
52751W        W24280  22.508  43.998  14.063
52752W        W24281  33.048  15.178  10.888
52753W        W24282   3.561  35.070   2.894
52754W        W24283  11.111  26.012  12.975
52755W        W24284  31.030  34.971  13.308
52756W        W24285  11.713  10.370   2.841
52757W        W24286  24.500  31.661  13.298
52758W        W24287  30.328  34.359  11.147
52759W        W24288  35.803  24.268   4.054
52760W        W24289  36.614   5.897  10.254
52761W        W24290   7.183   1.338   4.548
52762W        W24291  11.779  15.684  11.591
52763W        W24292   2.624  17.068  10.458
52764W        W24293  14.591  31.021  11.103
52765W        W24294  20.315  35.365   4.475
52766W        W24295  27.313  14.794  10.630
52767W        W24296  33.491  38.205  12.060
52768W        W24297  33.849   7.526   4.766
52769W        W24298   5.444  38.906   1.471
52770W        W24299   6.891  21.498   2.003
52771W        W24300  17.035  31.584  11.751
52772W        W24301   3.296  32.683  14.452
52773W        W24302  29.407   4.157   1.397
52774W        W24303  33.889  40.240  11.095
52775W        W24304  40.334  31.570   1.208
52776W        W24305  26.472  29.865   3.327
52777W        W24306  26.506   3.360   3.478
52778W        W24307   6.272   4.394   4.558
52779W        W24308  21.287  11.389  11.466
52780W        W24309  27.061  31.598  14.466
52781W        W24310  24.028  17.048   3.326
52782W        W24311   4.855  42.824   4.286
52783W        W24312  39.816  33.640   3.353
52784W        W24313  12.326  26.337   2.833
52785W        W24314  35.902  27.547  13.746
52786W        W24315  11.515  18.683   5.258
52787W        W24316   0.425   6.643  13.706
52788W        W24317  38.948  24.252   1.141
52789W        W24318   1.034  31.757  13.472
52790W        W24319  26.176  29.136   1.318
52791W        W24320   9.107  24.012   2.758
52792W        W24321  17.501  25.100  12.077
52793W        W24322   6.535  21.600  11.494
52794W        W24323  10.243  18.054  13.257
52795W        W24324  42.813   7.835  13.864
52796W        W24325  40.597   2.091  11.663
52797W        W24326  35.157   7.219   4.165
52798W        W24327  11.909   7.911  12.925
52799W        W24328  29.807  34.972   2.873
52800W        W24329  35.954   4.481   2.474
52801W        W24330   9.470  28.862   4.378
52802W        W24331  42.329  12.528  14.859
52803W        W24332  33.566  31.115  12.896
52804W        W24333  38.858   9.214   1.457
52805W        W24334  22.240  44.625   4.359
52806W        W24335  37.317  14.403   4.445
52807W        W24336  10.772  43.700  12.976
52808W        W24337  18.624  20.108   4.971
52809W        W24338  12.917  33.872  13.553
52810W        W24339  33.116  12.089   3.796
52811W        W24340  17.618  23.012  14.857
52812W        W24341  18.613  11.107  12.876
52813W        W24342  25.840   8.174  13.949
52814W        W24343   0.199   5.873   4.655
52815W        W24344  25.028  36.895   1.974
52816W        W24345  37.430  39.280  13.968
52817W        W24346  42.268  34.078   1.306
52818W        W24347  41.791  15.122   1.618
52819W        W24348  36.964  40.853   0.517
52820W        W24349  41.987  39.517  12.412
52821W        W24350   1.032  37.698   2.285
52822W        W24351  32.908   9.279  13.484
52823W        W24352  35.965  12.615  13.458
52824W        W24353   7.145   9.404  11.547
52825W        W24354   5.727  24.108  13.154
52826W        W24355   1.705  25.316   2.331
52827W        W24356  38.338  39.586   2.182
52828W        W24357   0.835  43.506  13.458
52829W        W24358  20.750   6.625   1.867
52830W        W24359  15.101   2.298   4.245
52831W        W24360  34.557  23.023   0.204
52832W        W24361  15.698  13.664  14.306
52833W        W24362  33.301  19.082   4.175
52834W        W24363  32.780   2.780   1.749
52835W        W24364  23.665  15.454   0.376
52836W        W24365  13.540   0.831  13.429
52837W        W24366  27.189   5.957  14.408
52838W        W24367   9.284   1.257   4.552
52839W        W24368  42.212  28.793   4.078
52840W        W24369   2.517   1.873   2.256
52841W        W24370  23.692  14.222   0.709
52842W        W24371  16.776  39.375  14.772
52843W        W24372  33.020  18.072   1.209
52844W        W24373  22.785   0.869  10.901
52845W        W24374  41.047  41.391  10.709
52846W        W24375  34.264  33.063   3.384
52847W        W24376   0.074   6.829   3.934
52848W        W24377  12.104  36.430   4.256
52849W        W24378   7.279   3.410  11.597
52850W        W24379  44.417  11.156   2.021
52851W        W24380  18.051   0.312  11.113
52852W        W24381  38.900  23.962   0.288
52853W        W24382   2.530  39.355   0.115
52854W        W24383  35.772  41.651   3.246
52855W        W24384   6.207   8.432  14.180
52856W        W24385   3.858  38.952   3.068
52857W        W24386  24.206   4.777   1.405
52858W        W24387   8.298  18.740   0.752
52859W        W24388   7.577   1.788   1.931
52860W        W24389  31.607  42.452   1.268
52861W        W24390  10.605  33.514  14.464
52862W        W24391  24.704  24.762   0.924
52863W        W24392  39.316  13.167   4.610
52864W        W24393  16.871   1.445   2.908
52865W        W24394  32.820  23.539  14.975
52866W        W24395  31.583  39.786   3.641
52867W        W24396   7.520  10.807  13.759
52868W        W24397  17.155  32.351  15.000
52869W        W24398   8.702  32.137   1.429
52870W        W24399  27.488  12.779   1.809
52871W        W24400  40.564  20.224   2.141
52872W        W24401  31.584  34.873  13.290
52873W        W24402  23.599   8.744   0.001
52874W        W24403   8.627  37.834  10.763
52875W        W24404   3.211  40.670   0.674
52876W        W24405   6.426  26.082   1.817
52877W        W24406  38.895  22.088  10.210
52878W        W24407  42.481   8.416   3.134
52879W        W24408  22.970  15.506  13.405
52880W        W24409  22.236  11.758  13.885
52881W        W24410   0.934  12.382   1.391
52882W        W24411  17.972  10.420  14.754
52883W        W24412  32.584  25.973   3.486
52884W        W24413  25.141   6.546  11.734
52885W        W24414  40.359  15.615  12.121
52886W        W24415  38.317  42.128   3.649
52887W        W24416  27.010  27.923  10.116
52888W        W24417  44.987  39.788  11.163
52889W        W24418  33.078   4.738  13.058
52890W        W24419  15.869  24.157  12.987
52891W        W24420  35.420  37.813   0.382
52892W        W24421  24.209  12.385   1.938
52893W        W24422  34.454   6.221   3.473
52894W        W24423  31.428  36.913  13.655
52895W        W24424  22.472  32.531   3.956
52896W        W24425  19.586  36.192   3.732
52897W        W24426   8.962  37.531   3.335
52898W        W24427  33.395  39.247  10.467
52899W        W24428  20.691  15.853  14.409
52900W        W24429  20.061  40.601   3.393
52901W        W24430  30.935  17.966  13.012
52902W        W24431  36.965  15.085  10.618
52903W        W24432  26.108   8.899   0.935
52904W        W24433  15.212   6.044  10.734
52905W        W24434   7.660  41.267   5.013
52906W        W24435  21.947  42.429   5.423
52907W        W24436   2.481  34.688   1.397
52908W        W24437   3.342  15.157  13.122
52909W        W24438  33.543  40.028   3.847
52910W        W24439  33.928   1.454  14.272
52911W        W24440  17.560  14.385   0.443
52912W        W24441  19.596  39.012   5.277
52913W        W24442   8.694   4.507  11.374
52914W        W24443  16.247  18.132   3.234
52915W        W24444  23.982  28.491  13.013
52916W        W24445  13.962  38.544   0.538
52917W        W24446   7.557  40.205  11.943
52918W        W24447  29.001  17.009  13.858
52919W        W24448  14.445  16.264   0.832
52920W        W24449   1.117  11.737   0.824
52921W        W24450  34.496  41.946   0.489
52922W        W24451   5.894  44.277  14.606
52923W        W24452  41.534  40.035  10.462
52924W        W24453  10.584  15.260   1.189
52925W        W24454  34.888  26.622  11.693
52926W        W24455  20.562   0.505   0.901
52927W        W24456  43.596  10.619  13.390
52928W        W24457  16.339  32.922  10.784
52929W        W24458   6.409   7.837   2.101
52930W        W24459   3.434  16.800   0.014
52931W        W24460   4.891  26.808  12.455
52932W        W24461  34.454   6.360   0.598
52933W        W24462   0.499  14.124  12.449
52934W        W24463   9.842  29.642  11.989
52935W        W24464  24.906   1.242  12.329
52936W        W24465  44.006  14.748  10.735
52937W        W24466   8.126  30.227   0.502
52938W        W24467  24.519  25.655  10.824
52939W        W24468  21.271  10.088   4.518
52940W        W24469  23.414  34.192  11.133
52941W        W24470  38.816  18.795   0.680
52942W        W24471  32.180  22.531   2.801
52943W        W24472   6.759  12.813  10.760
52944W        W24473  14.635  16.708  10.968
52945W        W24474  44.583  23.451   1.272
52946W        W24475  43.844  16.896  12.174
52947W        W24476  40.326   3.480  10.807
52948W        W24477  34.327  24.494  13.563
52949W        W24478  20.055  10.370  13.005
52950W        W24479   6.344  19.210   4.070
52951W        W24480  21.441  19.713  13.984
52952W        W24481   9.248  26.505   1.772
52953W        W24482   8.744  40.070  11.172
52954W        W24483  42.762  19.780   0.624
52955W        W24484   0.076  23.322   1.912
52956W        W24485  10.683  21.214  11.594
52957W        W24486  18.208   0.269   1.635
52958W        W24487  25.719   5.822  13.135
52959W        W24488  32.989  12.159   2.717
52960W        W24489  11.753   1.286  12.769
52961W        W24490  14.765  27.604   0.033
52962W        W24491  31.418   4.207   2.157
52963W        W24492   8.238  37.045   0.166
52964W        W24493  30.548  32.939   3.663
52965W        W24494   3.928   3.197  13.891
52966W        W24495  20.403   9.047   2.397
52967W        W24496  10.575  31.243   2.372
52968W        W24497  39.321  35.671   1.235
52969W        W24498  33.710  18.110  14.071
52970W        W24499  37.312  25.618  12.589
52971W        W24500   4.908  43.052   3.285
52972W        W24501   0.918   4.334  12.221
52973W        W24502  34.378  12.873   0.292
52974W        W24503  32.988  34.580  13.368
52975W        W24504  16.006   6.735  12.334
52976W        W24505  36.053   5.896  14.949
52977W        W24506  38.197   6.206  11.892
52978W        W24507  41.510  44.101  14.332
52979W        W24508  33.371  24.098   1.747
52980W        W24509   9.724  31.496   1.210
52981W        W24510  34.029  10.554   3.591
52982W        W24511   6.287  40.033   2.294
52983W        W24512   5.318  30.986  13.119
52984W        W24513  21.958  27.391  10.670
52985W        W24514  28.678  24.152  10.656
52986W        W24515  36.026  10.765  14.872
52987W        W24516   0.922  38.128  14.823
52988W        W24517  43.981  23.253   3.221
52989W        W24518  13.509   2.640  11.475
52990W        W24519  10.767   8.351  14.293
52991W        W24520   3.403  41.128  10.672
52992W        W24521  33.583  32.453  12.933
52993W        W24522  12.820   9.645  12.346
52994W        W24523  14.245  38.467  13.126
52995W        W24524  16.279   4.990  13.163
52996W        W24525  27.131   8.832  10.691
52997W        W24526  38.403   7.968   0.278
52998W        W24527   4.605  19.839   4.947
52999W        W24528  28.976  18.162  13.953
53000W        W24529  43.943   9.324  12.972
53001W        W24530  16.843  42.721  12.540
53002W        W24531  12.492  25.036   2.585
53003W        W24532  26.895  43.242   2.663
53004W        W24533  30.972  31.728   4.152
53005W        W24534   0.418   1.816  12.624
53006W        W24535  28.414  28.836   3.845
53007W        W24536  41.620  12.861   1.349
53008W        W24537  40.153  31.760  11.625
53009W        W24538   3.831  33.770  12.585
53010W        W24539  16.722   2.374  12.629
53011W        W24540  16.958  29.888   4.088
53012W        W24541   7.280   0.840  12.075
53013W        W24542  30.815  13.529  10.937
53014W        W24543  31.482   3.796  12.055
53015W        W24544  14.109  23.950   4.703
53016W        W24545   6.428  13.837   1.696
53017W        W24546  35.715  20.999  13.401
53018W        W24547   7.206  37.948   1.829
53019W        W24548  17.536  34.375   4.403
53020W        W24549  27.559  15.835   5.008
53021W        W24550  11.803  32.869  11.956
53022W        W24551  39.991  33.596  12.012
53023W        W24552  39.474   7.788  12.483
53024W        W24553  26.937  17.774  11.610
53025W        W24554  26.200  39.732   1.943
53026W        W24555  31.802  36.130   0.984
53027W        W24556  16.318   9.647  14.818
53028W        W24557  23.615  41.090   0.748
53029W        W24558  34.928   6.114  12.987
53030W        W24559  39.547  34.183  14.963
53031W        W24560   8.939  12.734   1.259
53032W        W24561  32.214  23.727   0.892
53033W        W24562   8.839  15.585   1.862
53034W        W24563   8.817  12.065   3.838
53035W        W24564  38.841  25.992  11.122
53036W        W24565  26.474  19.608  10.894
53037W        W24566   9.802  16.328  12.839
53038W        W24567  19.092  22.679  13.432
53039W        W24568   4.261  28.222  13.497
53040W        W24569  14.049  37.349  11.012
53041W        W24570  15.310  17.147   2.340
53042W        W24571  33.471  43.357   5.164
53043W        W24572   7.462   4.737  13.280
53044W        W24573  36.336  29.111  13.472
53045W        W24574  33.939  23.053   0.997
53046W        W24575  32.329  14.332  13.239
53047W        W24576  22.472  18.322   3.707
53048W        W24577  15.030  41.932   0.684
53049W        W24578   3.499  28.963  14.525
53050W        W24579  19.698   5.990  12.989
53051W        W24580  22.228  14.091   2.102
53052W        W24581  37.984  29.696   4.167
53053W        W24582  15.342  37.876   4.078
53054W        W24583  21.292   7.646  13.952
53055W        W24584  11.041  24.680  11.215
53056W        W24585   6.917  41.825  11.438
53057W        W24586  10.267   3.586   3.861
53058W        W24587  30.520  40.781   0.542
53059W        W24588  10.082  22.267   2.856
53060W        W24589  10.276  29.998   4.121
53061W        W24590   7.854  40.061   0.355
53062W        W24591   1.299  28.540   4.571
53063W        W24592  17.045  13.543   4.625
53064W        W24593  38.546  19.653  12.888
53065W        W24594   0.622  42.294   0.892
53066W        W24595   0.497   6.317   1.730
53067W        W24596  23.231  11.200  14.403
53068W        W24597   7.774  12.256   0.961
53069W        W24598   0.868  10.734   3.678
53070W        W24599   5.795   1.454   0.004
53071W        W24600   1.711  28.142   4.260
53072W        W24601  23.386   7.131  14.500
53073W        W24602   3.252  16.683   1.456
53074W        W24603  14.777   1.277   2.639
53075W        W24604  29.486  27.602   2.420
53076W        W24605  43.834  41.385  11.641
53077W        W24606  43.036  10.890   1.161
53078W        W24607  23.576   9.759  14.003
53079W        W24608   2.421  32.397  11.614
53080W        W24609  36.449   5.742   4.609
53081W        W24610   7.178   4.928  10.512
53082W        W24611  33.569  11.870   3.704
53083W        W24612  30.657  38.431  14.866
53084W        W24613  18.049  25.200   3.653
53085W        W24614  31.422  22.729   4.566
53086W        W24615  12.307  27.569   3.172
53087W        W24616   6.642  22.575  11.480
53088W        W24617  43.655   8.465   1.234
53089W        W24618  20.453  21.348  11.180
53090W        W24619  39.890   2.329  14.045
53091W        W24620  38.813  30.134   0.899
53092W        W24621   4.293  36.101  13.871
53093W        W24622  37.838  31.430   3.707
53094W        W24623  30.086  16.147  14.919
53095W        W24624  31.967  38.482  11.746
53096W        W24625  17.543  30.183  14.225
53097W        W24626  35.429  15.730   4.068
53098W        W24627  22.500  13.079  11.606
53099W        W24628  39.048   6.469  10.703
53100W        W24629   6.425  23.691  12.010
53101W        W24630  21.000  21.770  12.496
53102W        W24631   8.298  27.112  13.745
53103W        W24632  29.418  34.614   3.802
53104W        W24633  14.539   8.173   0.235
53105W        W24634  18.651  10.423   4.115
53106W        W24635  31.387  11.898   2.635
53107W        W24636   3.842  24.056  14.454
53108W        W24637  28.190   5.841  11.031
53109W        W24638   9.679  20.687  12.838
53110W        W24639  11.695  26.371  14.193
53111W        W24640  31.520  30.360  12.895
53112W        W24641   5.685  22.236   3.364
53113W        W24642  34.049  39.962   3.765
53114W        W24643  32.983  42.854   0.207
53115W        W24644   6.875  44.350   0.439
53116W        W24645   1.072  31.429   1.983
53117W        W24646  40.481  32.110  13.291
53118W        W24647  31.725   3.735  12.632
53119W        W24648  43.226  31.026  10.833
53120W        W24649  38.988  29.283   0.486
53121W        W24650  12.603  20.182  11.004
53122W        W24651   4.834   1.491   5.138
53123W        W24652   3.611   0.299   3.719
53124W        W24653  16.196   3.811   4.685
53125W        W24654   9.692  26.481  11.452
53126W        W24655  29.347  22.685  10.732
53127W        W24656   0.543  30.590   4.985
53128W        W24657  22.010  40.553   2.786
53129W        W24658  19.611  35.703  13.636
53130W        W24659  21.658   0.412  11.576
53131W        W24660  13.541  35.222   5.023
53132W        W24661  42.288  42.959   4.512
53133W        W24662  10.054  14.691  14.263
53134W        W24663  16.100  29.740   3.566
53135W        W24664   9.415  33.109  13.761
53136W        W24665  28.282  16.269  10.903
53137W        W24666  31.334  42.927   5.009
53138W        W24667  10.834  32.441  14.197
53139W        W24668  17.382  42.735  11.979
53140W        W24669  38.763  20.154   0.899
53141W        W24670  33.522  17.137  11.125
53142W        W24671  20.199  31.374   3.152
53143W        W24672  19.395  30.467   3.181
53144W        W24673  25.382  33.911  10.441
53145W        W24674   7.410  35.087  12.464
53146W        W24675   4.503  29.382   1.345
53147W        W24676  20.174   8.943  10.685
53148W        W24677  33.559  33.083  10.645
53149W        W24678   6.119  19.670   2.377
53150W        W24679  38.381  30.388   0.034
53151W        W24680  20.560  32.533   0.422
53152W        W24681  25.394  39.498  11.935
53153W        W24682  21.736  44.554   4.529
53154W        W24683   5.733  27.309   2.290
53155W        W24684  16.475  44.229   1.404
53156W        W24685  35.023  31.437  14.808
53157W        W24686   4.834  37.566  12.547
53158W        W24687  18.736  42.075  11.191
53159W        W24688   5.736  28.457  12.538
53160W        W24689  12.375  41.740   4.060
53161W        W24690  42.343   5.909   0.181
53162W        W24691  13.861  35.903  12.909
53163W        W24692  20.519  40.774   2.822
53164W        W24693   5.074  14.180  10.647
53165W        W24694  22.270  44.957  11.052
53166W        W24695  33.787  16.641   2.234
53167W        W24696  20.168   4.353  14.857
53168W        W24697   2.701  41.577   4.505
53169W        W24698  30.634  29.970  11.550
53170W        W24699   8.167  32.345  14.741
53171W        W24700   5.295  32.741   3.163
53172W        W24701  35.050  36.240   3.842
53173W        W24702  41.608  34.458  13.555
53174W        W24703   2.678  19.197   1.905
53175W        W24704  43.681   9.767  12.071
53176W        W24705  26.323   3.859   4.784
53177W        W24706  38.469   2.290  13.742
53178W        W24707  42.046  16.670   1.255
53179W        W24708   3.680   9.963  11.081
53180W        W24709  36.044  36.023   1.195
53181W        W24710  18.972  43.276   3.081
53182W        W24711   8.933  17.010  10.130
53183W        W24712  37.954  23.100  14.732
53184W        W24713  13.073  10.197  10.236
53185W        W24714  32.896  21.034  14.419
53186W        W24715  14.259  29.718  13.815
53187W        W24716  39.759   5.277   0.997
53188W        W24717  28.660  30.621   3.755
53189W        W24718  32.378  20.048   4.918
53190W        W24719  10.778  22.189   1.017
53191W        W24720  11.818  33.013   1.891
53192W        W24721  25.478   6.586  12.134
53193W        W24722  21.819  26.827   4.456
53194W        W24723  40.373  10.913   3.753
53195W        W24724  27.026  24.816   1.612
53196W        W24725  38.633  28.092   2.390
53197W        W24726   2.283  38.948   1.263
53198W        W24727  35.351  19.192   3.676
53199W        W24728  38.843   9.574  10.128
53200W        W24729  17.412   7.992  10.319
53201W        W24730  14.646  12.239   2.450
53202W        W24731  15.551  36.970   0.013
53203W        W24732  33.817   7.468   3.525
53204W        W24733  36.800  40.776  11.510
53205W        W24734   2.714  40.459   0.744
53206W        W24735  27.628   9.326   4.101
53207W        W24736  30.463  17.391   2.252
53208W        W24737   0.075  34.028  14.416
53209W        W24738   5.360   7.501  14.830
53210W        W24739  28.490  25.667   3.144
53211W        W24740  31.232   7.743  13.316
53212W        W24741  11.259  22.844  11.984
53213W        W24742  12.871  34.495   0.188
53214W        W24743  18.738  38.993   4.960
53215W        W24744   9.056  37.047   3.184
53216W        W24745  39.529   0.183  12.557
53217W        W24746   5.738  36.897  14.075
53218W        W24747   0.808  25.525   4.584
53219W        W24748  28.692   6.963  13.987
53220W        W24749  36.301  29.468   3.585
53221W        W24750  28.486  16.908   1.397
53222W        W24751   0.199  29.455  14.001
53223W        W24752  21.219  29.422  14.273
53224W        W24753  44.033   7.807   4.926
53225W        W24754  20.217  26.706  13.829
53226W        W24755  22.648  15.978   1.398
53227W        W24756  19.619  26.535   0.572
53228W        W24757   3.627  31.373  11.153
53229W        W24758  13.575   5.311   4.570
53230W        W24759  22.076  28.495   2.873
53231W        W24760  31.714  23.108  14.010
53232W        W24761  33.533  31.888   4.163
53233W        W24762  24.330  17.756   2.800
53234W        W24763  43.639  24.007  14.819
53235W        W24764  30.530   8.407  12.956
53236W        W24765  38.822  18.808  14.266
53237W        W24766  42.273  14.264  12.070
53238W        W24767  33.037   3.476  12.348
53239W        W24768  29.548  16.417  11.089
53240W        W24769  21.787  26.052   3.130
53241W        W24770  16.290   2.942   3.665
53242W        W24771  12.630  19.571   4.854
53243W        W24772   1.869  41.105  13.039
53244W        W24773  11.662  17.658   0.732
53245W        W24774  23.640  34.948   3.101
53246W        W24775   4.804  10.702   3.150
53247W        W24776  34.330  43.062   1.306
53248W        W24777  36.891  36.303  11.107
53249W        W24778  13.249  17.833   2.098
53250W        W24779  37.677  26.550   3.203
53251W        W24780  41.403  38.864  11.566
53252W        W24781  36.039  39.960   0.536
53253W        W24782   7.799   5.598   4.345
53254W        W24783  24.717  22.973  11.495
53255W        W24784  38.838  31.240  14.904
53256W        W24785   3.721   2.400   3.380
53257W        W24786  10.234  21.150  12.192
53258W        W24787   8.541   0.824  11.257
53259W        W24788  39.326  12.340  10.651
53260W        W24789  18.122  40.378   4.634
53261W        W24790  25.020  40.914  12.215
53262W        W24791  19.257  32.580   2.286
53263W        W24792  18.636  13.556   2.727
53264W        W24793  16.073   1.844  11.949
53265W        W24794  33.503  37.401  13.729
53266W        W24795  39.951   9.812  12.902
53267W        W24796  32.399  22.834   4.222
53268W        W24797  11.980   1.015  11.427
53269W        W24798  26.633  15.779  14.456
53270W        W24799  12.143  20.767  14.180
53271W        W24800  14.166  20.689  13.226
53272W        W24801  23.961  38.316   4.321
53273W        W24802   7.265  24.237  12.353
53274W        W24803  42.443  23.541  11.965
53275W        W24804  43.362  30.655   1.882
53276W        W24805   1.166  42.879  10.556
53277W        W24806  20.416  11.165  12.064
53278W        W24807   8.938   7.748   3.418
53279W        W24808  29.173  22.309  13.091
53280W        W24809  31.619  25.898   1.023
53281W        W24810   5.639  31.838  12.870
53282W        W24811  40.382  11.690   0.374
53283W        W24812   8.749  44.920   0.897
53284W        W24813   4.278  38.308  14.594
53285W        W24814  25.453  28.352   3.616
53286W        W24815  42.380   5.157   4.415
53287W        W24816  36.002  19.059   0.459
53288W        W24817  39.809  21.587  10.554
53289W        W24818  26.075  23.179   2.217
53290W        W24819  42.446  27.672  13.008
53291W        W24820  20.664  27.087  12.157
53292W        W24821  42.949  12.175   1.786
53293W        W24822  37.186  26.174   2.668
53294W        W24823  20.984   5.792   3.865
53295W        W24824  24.654  34.927  11.041
53296W        W24825  24.261  39.435   0.728
53297W        W24826  10.108  20.566  14.899
53298W        W24827  20.012   5.550   2.180
53299W        W24828  25.705  37.473  12.489
53300W        W24829  11.888  30.669  13.595
53301W        W24830  16.597  42.513  11.505
53302W        W24831   5.536  44.390  12.024
53303W        W24832  19.822  25.510  11.036
53304W        W24833  40.716  29.456   3.654
53305W        W24834  10.721  31.107  13.138
53306W        W24835  20.036  13.993  11.134
53307W        W24836  15.291  27.000   3.880
53308W        W24837  28.256  18.709   1.847
53309W        W24838  33.001  14.648  12.095
53310W        W24839  43.186   9.861  12.113
53311W        W24840  10.407  42.013   1.383
53312W        W24841  35.031   7.516  12.938
53313W        W24842  14.221  26.107   0.418
53314W        W24843  23.194   3.502   0.928
53315W        W24844  17.767  21.585   0.692
53316W        W24845  35.545   0.262  11.374
53317W        W24846  22.714  21.492  14.676
53318W        W24847  26.319  31.339   1.548
53319W        W24848  40.075   9.627   4.123
53320W        W24849  23.706  19.086   2.371
53321W        W24850  16.981  10.286  14.830
53322W        W24851  32.069  28.457  10.250
53323W        W24852  34.887  37.813  14.910
53324W        W24853  34.456  27.406  14.922
53325W        W24854  34.750  44.494   3.196
53326W        W24855   7.912  18.651  12.960
53327W        W24856  20.665  34.855   1.226
53328W        W24857  26.873  19.169   0.179
53329W        W24858   0.435  31.487  11.086
53330W        W24859   4.725  13.799  10.723
53331W        W24860   4.606  28.883   1.459
53332W        W24861  34.615  16.575   1.303
53333W        W24862   9.612  37.026   2.287
53334W        W24863  35.861  33.817   4.076
53335W        W24864  24.234  15.192   1.411
53336W        W24865   5.963  35.374   2.248
53337W        W24866  35.294  16.669  12.209
53338W        W24867   4.179   1.726   4.178
53339W        W24868   3.386  33.071   4.199
53340W        W24869  42.399  33.472   3.292
53341W        W24870  44.964  28.987  13.876
53342W        W24871  11.411  34.981  11.620
53343W        W24872   9.528  19.770  12.307
53344W        W24873   7.714   3.878  10.753
53345W        W24874  11.049  23.203  11.654
53346W        W24875  12.121  43.002  14.258
53347W        W24876  34.431  22.912   0.778
53348W        W24877   5.824   2.996  13.344
53349W        W24878  40.593  13.875   4.437
53350W        W24879  23.080  10.315   1.518
53351W        W24880  23.684  23.567  10.980
53352W        W24881  15.280  24.334   1.471
53353W        W24882  32.638  15.719   1.873
53354W        W24883  18.023  15.041   1.513
53355W        W24884   6.702  27.254  14.907
53356W        W24885   4.769  30.576  13.760
53357W        W24886   6.904  21.262   5.311
53358W        W24887   4.609  22.937  10.974
53359W        W24888  27.572   4.412   4.557
53360W        W24889   0.673  39.651   2.414
53361W        W24890  41.759   8.528  11.479
53362W        W24891   1.885  30.012  11.805
53363W        W24892  38.314  17.614   3.110
53364W        W24893  17.086  19.859  10.687
53365W        W24894  39.032  18.566   0.241
53366W        W24895  43.060  43.340   1.842
53367W        W24896   9.596  26.363   4.211
53368W        W24897  32.698   9.726  12.024
53369W        W24898   2.124  19.493   4.967
53370W        W24899   3.129  40.381   4.857
53371W        W24900  22.240  34.050  12.653
53372W        W24901  29.004  20.810  12.991
53373W        W24902  38.238  44.022  14.925
53374W        W24903   5.710  37.088   1.847
53375W        W24904  16.512  31.393   1.680
53376W        W24905  20.149  30.900   2.943
53377W        W24906  34.573  10.308   2.798
53378W        W24907  29.942  15.639   0.295
53379W        W24908  33.079  35.517   0.311
53380W        W24909  21.011  39.327  13.430
53381W        W24910  43.897   0.426   2.057
53382W        W24911  12.756  15.783   3.798
53383W        W24912  31.479  24.259  11.633
53384W        W24913  42.439  33.428  12.452
53385W        W24914  17.158  14.648  12.514
53386W        W24915  27.177  44.383   1.286
53387W        W24916   2.003  28.173  11.176
53388W        W24917   7.804  17.664   2.712
53389W        W24918   5.966  20.139  10.209
53390W        W24919  39.282  43.048   9.950
53391W        W24920  36.844  17.996  10.918
53392W        W24921  13.031   7.142  12.354
53393W        W24922  21.630  41.811  14.281
53394W        W24923  28.289  13.807  10.708
53395W        W24924  35.034   0.743  13.567
53396W        W24925  41.588  33.587   2.238
53397W        W24926  27.134   8.407   0.174
53398W        W24927  22.143   5.128  12.562
53399W        W24928  19.327  38.767   3.521
53400W        W24929  40.761  16.884  13.305
53401W        W24930  25.490  11.852   3.214
53402W        W24931  31.406   1.982   3.306
53403W        W24932  37.153   5.187  14.222
53404W        W24933   9.604   9.669  11.967
53405W        W24934  41.959   7.384   4.164
53406W        W24935  23.380  21.526   3.084
53407W        W24936  21.195  32.621   3.198
53408W        W24937  37.734  10.434   0.875
53409W        W24938  34.133  21.603   2.716
53410W        W24939  38.596  21.374   2.632
53411W        W24940   0.717  30.465   3.291
53412W        W24941  10.176  25.243   0.335
53413W        W24942   3.810  35.174  14.731
53414W        W24943  36.385  24.635  14.092
53415W        W24944  40.893   2.368  11.243
53416W        W24945  14.585  16.554   3.219
53417W        W24946   3.419  10.772   4.657
53418W        W24947  31.885  30.008  11.481
53419W        W24948  26.676   8.693   4.163
53420W        W24949  12.751  42.867  11.213
53421W        W24950   3.743  31.406   2.312
53422W        W24951  18.723  22.295  11.016
53423W        W24952  40.915  23.131   3.711
53424W        W24953  44.674  29.956  11.169
53425W        W24954   6.954  42.899   3.228
53426W        W24955  32.852   8.412   2.655
53427W        W24956   9.593  23.839  14.514
53428W        W24957  38.965  41.878   4.231
53429W        W24958  36.635  33.397  10.325
53430W        W24959  21.067  30.503  14.261
53431W        W24960  41.522  31.705  12.719
53432W        W24961  42.280  44.403   4.072
53433W        W24962  20.088  27.923   0.385
53434W        W24963  30.388  31.212   1.823
53435W        W24964  42.493   3.306  13.401
53436W        W24965  18.309   2.393   4.641
53437W        W24966   1.807  13.733   2.813
53438W        W24967  42.686   9.116   3.899
53439W        W24968  43.518   1.776  13.817
53440W        W24969   1.912   2.871   4.096
53441W        W24970  22.384  13.682   0.814
53442W        W24971  10.331  25.143   1.548
53443W        W24972  42.856   2.117   4.099
53444W        W24973   5.401  44.283   0.408
53445W        W24974  44.321  11.814  10.892
53446W        W24975  22.890   7.329   0.328
53447W        W24976  12.228  18.631   0.361
53448W        W24977   7.415  22.037  13.950
53449W        W24978  40.245  40.795  14.454
53450W        W24979  13.221  23.822   0.382
53451W        W24980  26.408  39.096   1.707
53452W        W24981  15.401  40.778  12.561
53453W        W24982  35.115  21.608   1.513
53454W        W24983  37.982   9.263  10.343
53455W        W24984  43.535  10.709   4.649
53456W        W24985  43.501  33.841   5.339
53457W        W24986  21.453  34.949   5.140
53458W        W24987   7.512  23.744  14.636
53459W        W24988  36.068  44.544  12.028
53460W        W24989  41.823  21.596  12.417
53461W        W24990  32.568  38.229  11.858
53462W        W24991  40.051   1.360  11.518
53463W        W24992   0.419  26.174   1.019
53464W        W24993   5.458  15.726  12.981
53465W        W24994   8.090   1.944   1.787
53466W        W24995   6.740  25.656  12.806
53467W        W24996  43.530   2.254  12.996
53468W        W24997  21.210  25.787  14.297
53469W        W24998  34.927   3.211  12.964
53470W        W24999  30.962   3.640  10.777
53471W        W25000  16.794   5.436  14.870
53472W        W25001  28.989  35.166  12.911
53473W        W25002  23.943  14.202  14.391
53474W        W25003  24.766   2.808  12.552
53475W        W25004  18.754  30.886   0.740
53476W        W25005   1.385  29.640   0.193
53477W        W25006   1.384  16.345   3.372
53478W        W25007   7.391  24.035  13.765
53479W        W25008  30.578   2.178   1.393
53480W        W25009  35.560  24.944   3.760
53481W        W25010  28.056   7.678  12.616
53482W        W25011  43.215  28.922   0.937
53483W        W25012  10.523  20.237   3.624
53484W        W25013   3.265  39.186  11.077
53485W        W25014  41.568  33.458   1.218
53486W        W25015  11.340   3.835  12.020
53487W        W25016  16.015  32.002   3.394
53488W        W25017  27.554  40.102  14.479
53489W        W25018  32.414  11.658  12.056
53490W        W25019  17.351  23.441   4.198
53491W        W25020  24.974  41.036   0.753
53492W        W25021  11.549  22.590  14.609
53493W        W25022  18.637  15.270  11.810
53494W        W25023  26.924  17.816  14.450
53495W        W25024  33.110  19.637  11.986
53496W        W25025  38.093  43.277   3.106
53497W        W25026  36.874  11.098  11.983
53498W        W25027   0.501  11.134  12.975
53499W        W25028  44.539  21.278  13.532
53500W        W25029  20.774   7.226  11.465
53501W        W25030  43.162   8.215  13.840
53502W        W25031  33.827  27.954   1.916
53503W        W25032  43.265  39.133   2.673
53504W        W25033  36.189   6.746   4.591
53505W        W25034  20.486  41.808   0.919
53506W        W25035  10.402  10.182  11.526
53507W        W25036  30.205   6.665   4.113
53508W        W25037  34.858  43.776  13.315
53509W        W25038  21.290  26.925   4.060
53510W        W25039  13.723  21.256   4.150
53511W        W25040  35.497  15.393   4.907
53512W        W25041   6.343  37.937  10.574
53513W        W25042   7.478  40.418   1.678
53514W        W25043   2.443  17.829  13.557
53515W        W25044  24.175  33.208   1.456
53516W        W25045  28.255  12.294  12.473
53517W        W25046  28.130  41.909   4.315
53518W        W25047  15.815  44.935   3.404
53519W        W25048   2.302   3.813  11.393
53520W        W25049  22.296  35.248   3.761
53521W        W25050  10.302  10.497   4.698
53522W        W25051  35.726  23.152   2.166
53523W        W25052  36.419  37.274  10.707
53524W        W25053  12.216  40.515   1.301
53525W        W25054  32.060  40.242  10.695
53526W        W25055  12.292   5.258  11.005
53527W        W25056   4.315  37.887  14.280
53528W        W25057  36.470  16.925  12.184
53529W        W25058  26.935   6.414   3.206
53530W        W25059  12.772  37.817   3.207
53531W        W25060  33.413   8.699  12.437
53532W        W25061  36.860  23.979  10.775
53533W        W25062  12.460   6.964  11.137
53534W        W25063  28.095  29.633   2.800
53535W        W25064  25.628  20.477  10.678
53536W        W25065  33.609  12.875  14.793
53537W        W25066  37.644   1.311   3.693
53538W        W25067  15.179  14.925  13.955
53539W        W25068  21.596  15.797  14.267
53540W        W25069  10.696  32.941   0.503
53541W        W25070  17.033  31.874   4.184
53542W        W25071  17.320  16.406   2.229
53543W        W25072   8.571  17.629  14.419
53544W        W25073  21.787   9.606   0.553
53545W        W25074   2.337  42.012   4.660
53546W        W25075   7.166  10.213   3.860
53547W        W25076  35.024  37.456  11.392
53548W        W25077   7.234   4.440  12.874
53549W        W25078   3.523   2.931   1.250
53550W        W25079  37.299  16.625   3.429
53551W        W25080  10.848  27.169   4.088
53552W        W25081  29.021  25.649   0.928
53553W        W25082  17.702  28.632   1.263
53554W        W25083  32.262   4.466  14.767
53555W        W25084  36.407   6.161  13.769
53556W        W25085   4.192  41.537  12.667
53557W        W25086  30.199  11.615   5.216
53558W        W25087  29.334  41.411  12.580
53559W        W25088   6.756   4.763  12.911
53560W        W25089  31.916  37.319   1.830
53561W        W25090  15.277   9.203   1.316
53562W        W25091   9.418  18.587  10.664
53563W        W25092  42.319  33.384  13.825
53564W        W25093  28.868  17.462  14.102
53565W        W25094  36.238  32.145  14.106
53566W        W25095  20.194  10.705   0.330
53567W        W25096   7.353  40.329   5.234
53568W        W25097  38.495  13.871  13.318
53569W        W25098  28.513  15.414   1.808
53570W        W25099  33.358  32.040   5.030
53571W        W25100  27.399   5.195  14.925
53572W        W25101  13.653  32.599   4.719
53573W        W25102   6.687  18.688   3.961
53574W        W25103   9.188   4.924   2.104
53575W        W25104  12.969  18.192  12.091
53576W        W25105   5.264  44.321   2.376
53577W        W25106   4.995  35.539   1.726
53578W        W25107  15.743  24.462  12.062
53579W        W25108  38.057  30.220   0.779
53580W        W25109   4.680  34.970   4.596
53581W        W25110  16.068  18.319  13.920
53582W        W25111  35.192   4.907   0.448
53583W        W25112  26.009  29.448  13.841
53584W        W25113   7.733  26.475   3.771
53585W        W25114  14.301  39.846   3.297
53586W        W25115  16.375  39.363  13.013
53587W        W25116   9.001  44.188   2.785
53588W        W25117  15.950   2.228  14.319
53589W        W25118  16.335  17.311  14.107
53590W        W25119  19.526  20.788   2.824
53591W        W25120  44.104  33.255   0.896
53592W        W25121  41.865  39.949  12.647
53593W        W25122  19.711  27.209  10.701
53594W        W25123  24.251  20.545   2.000
53595W        W25124   8.851  31.007   2.644
53596W        W25125   5.648  11.678  11.985
53597W        W25126   7.272   0.241   0.228
53598W        W25127  33.068  30.670  11.003
53599W        W25128  19.193  39.648  13.749
53600W        W25129   2.316  36.829   5.011
53601W        W25130  31.670  25.068   2.679
53602W        W25131   5.378   6.971  14.006
53603W        W25132   9.926  10.353  11.569
53604W        W25133   2.407  37.918   2.896
53605W        W25134  18.345  27.994   2.710
53606W        W25135  22.173  16.600  13.893
53607W        W25136   8.159  22.202  14.573
53608W        W25137  38.003  29.715   1.899
53609W        W25138  14.071  44.561  10.082
53610W        W25139  40.936  33.368  10.732
53611W        W25140  32.231  28.549  11.911
53612W        W25141   5.927  13.556   2.515
53613W        W25142  34.147  13.695  14.113
53614W        W25143  25.312   8.153   1.386
53615W        W25144  43.755  32.650  11.656
53616W        W25145  28.679  23.118   0.959
53617W        W25146   6.821  13.807   2.037
53618W        W25147  10.675  39.567   4.696
53619W        W25148  43.276  21.304  10.626
53620W        W25149   8.880  40.455   4.475
53621W        W25150  30.868   3.794  13.011
53622W        W25151  43.069  22.120  11.633
53623W        W25152  11.816  38.056   3.409
53624W        W25153  36.557  39.332  10.723
53625W        W25154  42.462  19.950   4.957
53626W        W25155  35.619  18.550  13.093
53627W        W25156  28.644   4.184  11.533
53628W        W25157   6.773   4.173   4.565
53629W        W25158  27.020  43.982  12.432
53630W        W25159  16.405   3.835   1.715
53631W        W25160  28.681  26.908  13.015
53632W        W25161  11.635  32.079  11.564
53633W        W25162  18.126  40.120   2.587
53634W        W25163  15.297  30.434   2.622
53635W        W25164  29.605   6.489   4.529
53636W        W25165  12.884   3.279  12.929
53637W        W25166  13.821  17.058  10.736
53638W        W25167   1.499  31.543  14.545
53639W        W25168  11.182  12.070   1.937
53640W        W25169   2.791   5.773  13.089
53641W        W25170  27.980   7.798   4.656
53642W        W25171  29.604  38.207  11.630
53643W        W25172  25.610  41.344  14.425
53644W        W25173   2.402  20.177   2.734
53645W        W25174  32.920  42.916   3.431
53646W        W25175  29.453   2.956   5.113
53647W        W25176   6.296  21.780   4.378
53648W        W25177  23.995   1.020  13.262
53649W        W25178   6.942  18.211  14.564
53650W        W25179  40.427   6.504  11.620
53651W        W25180  17.114   3.507  13.823
53652W        W25181  10.879  38.018   3.390
53653W        W25182  25.590   5.744   0.304
53654W        W25183  23.839  22.708   4.122
53655W        W25184   6.301  20.199  10.578
53656W        W25185  28.215  16.232  12.299
53657W        W25186  31.331  14.825  12.455
53658W        W25187   1.997  39.403  12.539
53659W        W25188  13.718  28.931   4.305
53660W        W25189  37.544  43.964  11.209
53661W        W25190  16.054  44.034  11.094
53662W        W25191  23.659  33.321   1.092
53663W        W25192  29.629   2.264   0.294
53664W        W25193  36.072   9.498  13.606
53665W        W25194  36.803  36.016  11.531
53666W        W25195  27.540  19.058  14.596
53667W        W25196   5.035   0.155   2.049
53668W        W25197  31.457  34.703  12.171
53669W        W25198  16.632  38.286   0.055
53670W        W25199  27.198  13.387  10.646
53671W        W25200  15.157   3.791  10.432
53672W        W25201  17.507  34.249  11.297
53673W        W25202  44.466   4.840   4.400
53674W        W25203  11.423  23.498  12.537
53675W        W25204   3.194  19.761  14.986
53676W        W25205  10.037  37.584  12.554
53677W        W25206  42.921  31.333  11.115
53678W        W25207  44.320   1.777   3.269
53679W        W25208  29.989  33.043  12.719
53680W        W25209  40.250  33.362  13.159
53681W        W25210  10.191  25.881   4.996
53682W        W25211  33.497   3.752  11.401
53683W        W25212  42.795  29.671   0.954
53684W        W25213  17.208   0.473   2.633
53685W        W25214  26.942  12.267   0.281
53686W        W25215  14.643   8.171   1.227
53687W        W25216   1.732  13.276   2.160
53688W        W25217  21.009  29.884  10.513
53689W        W25218  32.446  27.676  11.892
53690W        W25219  16.352   3.238  12.643
53691W        W25220  30.585  21.488  11.474
53692W        W25221  40.071  19.697   1.714
53693W        W25222  24.203  10.016   4.875
53694W        W25223  37.652  31.426  10.541
53695W        W25224  19.842  18.102   0.256
53696W        W25225  43.571  39.333  10.603
53697W        W25226   2.769  40.270  14.866
53698W        W25227  33.390   4.789   4.743
53699W        W25228  13.133  16.234  12.963
53700W        W25229   6.981  16.156  10.783
53701W        W25230  40.814  33.520   0.551
53702W        W25231  39.070  12.818  12.644
53703W        W25232  24.924   2.473  13.399
53704W        W25233   2.500   5.321   2.760
53705W        W25234  32.536  23.647   0.489
53706W        W25235  43.557  24.626   3.049
53707W        W25236  36.104   2.813   3.283
53708W        W25237  16.181  13.263   0.461
53709W        W25238  20.458  26.568  12.578
53710W        W25239   7.279  40.826   2.719
53711W        W25240  18.678  18.508   3.358
53712W        W25241  38.286  37.881  12.073
53713W        W25242  43.507  41.846   0.299
53714W        W25243  31.931  44.157   2.703
53715W        W25244  42.395  39.916   4.575
53716W        W25245   4.637  11.685  10.738
53717W        W25246  31.150  42.036   2.393
53718W        W25247  22.184   4.306   4.776
53719W        W25248   9.681   8.688  12.544
53720W        W25249  28.052  39.975  14.363
53721W        W25250  43.969  42.518  12.746
53722W        W25251  17.257  36.966  12.919
53723W        W25252  29.308  30.155   3.168
53724W        W25253  11.353  44.578  12.081
53725W        W25254  19.474  43.447  10.297
53726W        W25255   0.465  36.043  13.481
53727W        W25256  36.522  38.318   1.317
53728W        W25257  19.204  42.066  14.749
53729W        W25258  15.930  41.555   3.720
53730W        W25259  33.242  16.861   3.758
53731W        W25260  21.119  44.801  12.817
53732W        W25261  24.422  43.358  11.677
53733W        W25262  31.846  42.737  13.830
53734W        W25263  36.277  42.605  10.556
53735W        W25264  43.350  25.130   3.870
53736W        W25265  34.002  18.533   2.590
53737W        W25266  17.359  23.664   1.250
53738W        W25267  10.113  39.424   2.257
53739W        W25268  41.922  42.842  10.640
53740W        W25269  36.106  18.186   3.201
53741W        W25270  25.053   6.043  13.804
53742W        W25271  21.741   1.364   3.168
53743W        W25272  37.301  30.128   2.826
53744W        W25273  38.873   5.380   1.912
53745W        W25274  11.593   8.541  13.828
53746W        W25275  32.713  22.995   4.573
53747W        W25276   0.249   5.999  14.967
53748W        W25277  42.512  24.210   4.089
53749W        W25278  35.897  34.491  14.698
53750W        W25279  27.765  40.495  11.575
53751W        W25280  18.418  30.476   0.845
53752W        W25281  43.563  18.702   1.849
53753W        W25282  20.124  14.583   1.233
53754W        W25283  34.678  22.190   2.642
53755W        W25284  11.383  29.911   2.348
53756W        W25285  24.220  35.226   4.372
53757W        W25286   0.629  26.743   0.725
53758W        W25287   0.912  30.363   4.665
53759W        W25288   0.650   6.653  11.190
53760W        W25289  23.125  27.467  12.798
53761W        W25290  24.733  27.891  11.829
53762W        W25291  28.298  28.052  13.472
53763W        W25292  12.076  19.100   1.759
53764W        W25293  10.353   5.052   3.165
53765W        W25294   6.741  10.799  12.441
53766W        W25295  30.082  44.012   2.705
53767W        W25296   0.021  15.762   0.247
53768W        W25297  37.803  24.709  11.465
53769W        W25298  31.780  14.508  11.143
53770W        W25299  27.928  41.159   1.141
53771W        W25300  28.118  41.373   1.585
53772W        W25301  13.441  37.437  14.787
53773W        W25302  25.785  30.373   1.296
53774W        W25303  11.121   5.820   1.875
53775W        W25304  26.436   2.760   2.153
53776W        W25305  17.464  20.269   2.811
53777W        W25306   5.375  14.719   2.817
53778W        W25307   7.631  35.034   0.793
53779W        W25308  31.829  42.699  14.395
53780W        W25309  15.223   1.819   3.105
53781W        W25310  37.135  43.964   2.304
53782W        W25311   7.854  12.761  10.807
53783W        W25312  36.557  36.387  11.864
53784W        W25313  33.978  36.765   4.080
53785W        W25314  26.741  40.826  14.000
53786W        W25315  39.364   1.726   2.059
53787W        W25316  30.978  33.698  13.350
53788W        W25317  19.464  12.549   4.688
53789W        W25318  32.807  18.605   2.716
53790W        W25319   6.921   7.150   0.887
53791W        W25320  28.883  30.156   3.632
53792W        W25321  16.124   9.328   2.224
53793W        W25322  32.815  40.562   3.844
53794W        W25323   9.135  16.792  10.937
53795W        W25324  43.014   8.951  14.523
53796W        W25325  37.401  14.832  13.867
53797W        W25326  17.236  17.491  13.453
53798W        W25327  26.515  18.562   4.963
53799W        W25328   8.079  32.020  12.925
53800W        W25329  23.746  33.342  14.051
53801W        W25330   0.541  12.464  11.940
53802W        W25331   8.362   6.244  10.793
53803W        W25332  25.891  23.131   4.853
53804W        W25333  22.381  12.859  13.387
53805W        W25334  35.530  15.730  14.384
53806W        W25335   2.867  16.261  10.788
53807W        W25336   8.202   4.227  14.952
53808W        W25337  24.779  28.399  14.828
53809W        W25338  38.080  39.347  12.518
53810W        W25339  10.793  18.187  13.925
53811W        W25340  40.855  29.195  14.412
53812W        W25341  18.675  35.046   3.310
53813W        W25342  26.652   4.927   4.095
53814W        W25343  26.919  22.633   2.975
53815W        W25344  41.841  43.805  13.578
53816W        W25345  39.252   0.649  12.541
53817W        W25346  14.873  37.076   2.362
53818W        W25347   6.673  40.415   2.411
53819W        W25348  21.629  33.593  10.667
53820W        W25349   2.864  13.237  12.959
53821W        W25350  36.153  11.580  14.449
53822W        W25351  33.025  12.641  11.915
53823W        W25352  38.514   0.947  11.410
53824W        W25353   1.744   8.343  10.769
53825W        W25354  27.439  21.782   0.235
53826W        W25355  31.488   3.732   1.207
53827W        W25356  20.571  30.420   1.436
53828W        W25357   7.170  42.442   2.317
53829W        W25358  37.949  35.815   0.081
53830W        W25359  31.637  27.549  14.959
53831W        W25360   3.398  15.059   0.372
53832W        W25361  42.311  24.209  12.159
53833W        W25362   1.229  20.647  13.894
53834W        W25363  26.587   3.154  12.575
53835W        W25364  39.440  10.629  13.844
53836W        W25365   2.272  33.199  12.053
53837W        W25366   7.313  29.095  13.942
53838W        W25367  31.213  39.365  13.445
53839W        W25368   6.513  20.589  11.273
53840W        W25369   1.840   3.361   4.895
53841W        W25370  27.219  20.842  14.356
53842W        W25371   8.721  13.779   3.632
53843W        W25372  29.453  13.148  11.410
53844W        W25373  16.720  41.052   2.257
53845W        W25374   5.413  37.537   0.636
53846W        W25375   2.977  17.638  10.718
53847W        W25376  41.998   9.773   1.372
53848W        W25377  33.327   8.379   2.884
53849W        W25378   6.885  29.276  11.422
53850W        W25379  29.793  10.429  11.540
53851W        W25380  24.481  41.798  11.156
53852W        W25381  39.191  20.283   4.382
53853W        W25382  16.848  26.134  11.501
53854W        W25383  12.896  40.095   1.825
53855W        W25384  20.679  34.342   2.551
53856W        W25385   7.082  31.067   2.401
53857W        W25386  35.582  35.885   2.418
53858W        W25387  17.614  15.812  13.088
53859W        W25388  34.579  20.067   0.376
53860W        W25389  10.611   4.766   4.195
53861W        W25390  20.124  26.520   0.300
53862W        W25391  36.328  19.623   3.703
53863W        W25392  11.005  20.725   4.310
53864W        W25393  20.314  28.315   5.575
53865W        W25394  22.158  32.090  13.763
53866W        W25395  16.033  44.547  11.158
53867W        W25396  39.783  30.210  14.808
53868W        W25397  23.274  14.827   3.792
53869W        W25398  19.631  39.478  11.459
53870W        W25399  11.777  17.166   3.625
53871W        W25400  38.355  39.123  12.055
53872W        W25401  12.900  28.173  11.705
53873W        W25402  31.518  43.905   3.743
53874W        W25403  17.632  35.373  13.313
53875W        W25404   6.251  13.311  13.657
53876W        W25405  30.126  36.261  13.856
53877W        W25406  33.005   2.282  11.551
53878W        W25407   5.426  16.314   3.279
53879W        W25408  27.147  23.243   1.646
53880W        W25409  26.664  17.213   1.894
53881W        W25410  27.649   0.737   3.213
53882W        W25411  22.150  44.912  13.245
53883W        W25412  29.614  10.677  14.313
53884W        W25413  18.725  41.629   4.161
53885W        W25414  28.198  19.546  14.960
53886W        W25415  16.687  32.700   1.200
53887W        W25416  37.860  15.798   1.393
53888W        W25417  21.007  37.282   2.760
53889W        W25418  19.884  31.834  13.304
53890W        W25419   7.329  21.076  11.963
53891W        W25420  22.177  39.048  14.348
53892W        W25421  43.229  35.483   1.845
53893W        W25422   5.243  23.593  11.118
53894W        W25423  14.982  21.772   4.248
53895W        W25424  13.234   4.273   3.590
53896W        W25425  27.072   5.143  13.150
53897W        W25426  11.502   9.307  12.998
53898W        W25427   6.047   8.196  14.643
53899W        W25428   3.738   0.561  11.506
53900W        W25429   4.482  29.248  13.512
53901W        W25430  11.820  14.788  14.022
53902W        W25431  42.297  31.874  11.921
53903W        W25432   7.780  43.744  12.368
53904W        W25433  17.733  16.713   3.081
53905W        W25434  38.281  41.803   3.237
53906W        W25435   1.079  24.443   1.290
53907W        W25436  13.265   5.293  11.638
53908W        W25437  44.457  40.842   0.067
53909W        W25438  37.535  35.022  10.698
53910W        W25439  14.279   3.713  12.361
53911W        W25440  25.917  19.955  11.590
53912W        W25441  44.785  13.627   1.811
53913W        W25442  12.709  39.869   0.135
53914W        W25443  43.216  27.625  13.418
53915W        W25444  22.527  32.316  11.692
53916W        W25445  24.454  15.714  13.031
53917W        W25446  19.599   7.199  12.950
53918W        W25447   2.897  38.314  11.570
53919W        W25448  30.345  24.111   3.167
53920W        W25449  26.012   5.740  14.908
53921W        W25450  41.983   5.775   1.545
53922W        W25451  32.492  18.097   3.372
53923W        W25452  20.975   1.309  14.458
53924W        W25453  33.615   6.364   3.933
53925W        W25454  24.998  20.014   1.867
53926W        W25455  40.585  30.628   3.164
53927W        W25456  20.317  28.385  11.480
53928W        W25457  34.127   4.732  11.666
53929W        W25458   8.400  43.749  11.095
53930W        W25459   7.720   4.912   0.876
53931W        W25460  23.457  41.546   1.355
53932W        W25461  34.959  29.079   0.092
53933W        W25462  15.881  16.685  14.462
53934W        W25463  41.702  26.442  11.224
53935W        W25464   9.699  19.185   4.086
53936W        W25465  12.612  44.997  12.419
53937W        W25466  12.244   7.630  10.666
53938W        W25467   5.331  27.980  13.151
53939W        W25468  19.718   2.865   4.114
53940W        W25469  28.655   9.361   0.338
53941W        W25470   6.468  36.918  14.117
53942W        W25471  25.676  31.316  11.164
53943W        W25472  38.416  43.008  12.637
53944W        W25473  11.056  14.598  12.718
53945W        W25474  38.581   8.226   2.161
53946W        W25475  42.977  36.995   0.993
53947W        W25476  21.127  12.324  11.136
53948W        W25477   5.911  28.428   4.668
53949W        W25478   1.210  16.814  13.864
53950W        W25479  37.645  16.287  14.881
53951W        W25480  14.128  37.121   3.642
53952W        W25481  23.560  23.977   4.195
53953W        W25482   4.040  30.420  10.990
53954W        W25483   7.613  34.574   3.846
53955W        W25484   0.104   8.176  14.800
53956W        W25485  24.617  18.334   4.212
53957W        W25486  41.699  32.005  14.465
53958W        W25487  17.791  30.577  13.826
53959W        W25488  35.332   8.315  14.404
53960W        W25489  32.376  19.305  13.867
53961W        W25490  10.122  15.044  11.643
53962W        W25491  14.630   1.960  14.161
53963W        W25492   3.449   4.901   1.238
53964W        W25493   9.915  14.314  13.324
53965W        W25494  29.006  22.013  12.426
53966W        W25495   7.278  30.543  11.785
53967W        W25496  27.688   4.200   0.043
53968W        W25497  18.088  27.832  13.754
53969W        W25498  33.196   5.435   3.672
53970W        W25499  38.018   4.458  13.856
53971W        W25500  35.341   9.713  11.141
53972W        W25501  42.894   0.528  12.040
53973W        W25502   9.737  38.029  14.073
53974W        W25503  43.066   2.381   1.004
53975W        W25504  25.738  36.044   0.420
53976W        W25505  33.515  10.437   4.475
53977W        W25506   7.269  39.736  12.119
53978W        W25507  37.679   6.240  12.029
53979W        W25508  17.679  44.656   4.749
53980W        W25509  25.440   5.826   1.809
53981W        W25510  18.341  39.382   2.866
53982W        W25511  33.483  19.038   3.293
53983W        W25512  14.740  13.192   1.976
53984W        W25513  10.171  19.292   3.843
53985W        W25514  18.857   2.858   3.313
53986W        W25515  31.119  26.986   2.710
53987W        W25516  23.296  34.784  13.786
53988W        W25517   1.328  25.501   1.184
53989W        W25518  17.823  20.465  13.111
53990W        W25519  11.885  43.228   4.207
53991W        W25520  10.159  24.200  13.726
53992W        W25521  10.765   1.702   2.304
53993W        W25522  22.503  29.277  14.344
53994W        W25523  39.524   6.670  14.462
53995W        W25524   8.115   7.416  12.179
53996W        W25525  29.654  25.627  12.761
53997W        W25526  31.546  10.371   4.432
53998W        W25527  25.445   4.156   4.480
53999W        W25528  23.338   3.785   0.496
54000W        W25529  16.658   7.863  14.545
54001W        W25530  27.246   7.611  11.884
54002W        W25531  35.168   7.030  12.996
54003W        W25532   5.802  30.490  13.463
54004W        W25533  11.330  15.722   4.763
54005W        W25534   1.944  29.061  10.743
54006W        W25535  15.573   6.697   1.442
54007W        W25536  13.370   1.531  10.781
54008W        W25537  34.621   3.700  13.007
54009W        W25538   6.712  21.472   4.289
54010W        W25539  10.297  41.323   0.919
54011W        W25540  38.621   2.372  13.251
54012W        W25541  32.121  41.319  12.114
54013W        W25542  28.701  12.245   4.652
54014W        W25543   8.200   4.536   3.746
54015W        W25544  14.317  21.441  14.464
54016W        W25545  32.527   7.359  10.743
54017W        W25546  19.950  13.310   3.910
54018W        W25547   3.300  29.895  10.500
54019W        W25548   6.947   9.439   2.270
54020W        W25549  19.700   4.177   2.296
54021W        W25550  15.714  43.042  13.962
54022W        W25551  27.270   2.857  10.721
54023W        W25552  20.219  30.401   2.790
54024W        W25553  19.158  26.039   1.767
54025W        W25554  39.065  34.476  11.026
54026W        W25555  44.016  21.249   4.094
54027W        W25556   3.246   2.702   3.355
54028W        W25557  18.320   6.650   2.841
54029W        W25558  33.355  21.288   3.409
54030W        W25559  33.293  33.236   1.268
54031W        W25560  38.898  33.694  11.110
54032W        W25561  42.727   3.758  12.040
54033W        W25562   2.573  38.251  13.596
54034W        W25563  33.854  31.473   3.339
54035W        W25564  15.334  16.253  12.792
54036W        W25565   4.909  25.677  11.632
54037W        W25566   7.406  43.887   0.742
54038W        W25567  31.487  31.392   2.327
54039W        W25568  44.905  43.389  13.369
54040W        W25569  11.331  41.304  14.461
54041W        W25570   9.369   1.755   4.641
54042W        W25571   9.808  13.490  14.841
54043W        W25572  32.989  15.542  14.887
54044W        W25573  22.457  18.572   2.368
54045W        W25574  35.932  31.886   0.421
54046W        W25575  18.591  29.665  11.861
54047W        W25576  36.825   2.039  12.886
54048W        W25577  25.898   7.331  11.149
54049W        W25578   5.879  17.188   0.709
54050W        W25579  30.479  31.898   4.051
54051W        W25580  16.163  29.130  12.621
54052W        W25581  30.873  15.769  13.407
54053W        W25582  10.434   2.777   4.147
54054W        W25583  44.917  27.441  10.554
54055W        W25584  33.000  43.019  10.436
54056W        W25585  35.441  42.595  14.598
54057W        W25586  39.654  31.606  12.487
54058W        W25587  20.082  10.896   2.287
54059W        W25588  31.508  10.222  14.891
54060W        W25589  43.968  35.989  13.611
54061W        W25590   9.313  39.029  10.716
54062W        W25591   6.264  43.345  10.364
54063W        W25592  44.547   8.546   2.039
54064W        W25593  28.705  33.965   3.658
54065W        W25594  25.053   3.623  10.803
54066W        W25595  20.248  43.788  12.147
54067W        W25596  14.833  36.027   3.882
54068W        W25597   2.877   4.516   3.526
54069W        W25598   0.681  34.608   1.269
54070W        W25599  34.039  41.870   1.252
54071W        W25600  32.362  28.723  12.384
54072W        W25601   4.212   6.784  14.866
54073W        W25602  33.965   3.532  11.009
54074W        W25603  36.599  22.397  11.565
54075W        W25604  28.998  10.282   3.783
54076W        W25605  32.469   6.303  14.439
54077W        W25606  37.442  38.555  12.691
54078W        W25607  23.030  16.423  11.610
54079W        W25608  15.588   9.158   3.963
54080W        W25609  31.628   7.265   0.673
54081W        W25610  43.579   8.857   0.410
54082W        W25611   0.732  40.447  14.428
54083W        W25612  41.225  12.657  12.063
54084W        W25613  20.831   7.670  10.607
54085W        W25614   5.710   5.360  12.033
54086W        W25615  31.566  15.774   2.664
54087W        W25616  32.886  21.973   2.777
54088W        W25617  17.102  17.372  10.680
54089W        W25618  17.505   2.837   2.786
54090W        W25619  23.197  21.578   4.122
54091W        W25620  24.626  35.103  10.568
54092W        W25621  22.268   0.537   2.793
54093W        W25622  29.405  32.397   1.136
54094W        W25623  32.279  24.215   2.720
54095W        W25624   4.553  22.025  11.990
54096W        W25625   2.583  23.229  14.568
54097W        W25626  24.631  20.087   2.233
54098W        W25627  26.757  25.070  14.273
54099W        W25628  33.086  39.595   2.858
54100W        W25629  12.799  26.177   0.251
54101W        W25630  26.158  28.629  10.373
54102W        W25631  29.169  22.111  14.739
54103W        W25632  10.063  17.159   4.128
54104W        W25633  26.008  35.177  13.554
54105W        W25634  30.107  21.126   3.654
54106W        W25635  43.148  38.144  10.743
54107W        W25636  10.834  12.822  11.616
54108W        W25637  16.022  11.108   9.754
54109W        W25638   3.825   5.478  14.994
54110W        W25639   6.853  23.972  12.121
54111W        W25640   0.447  44.376   1.005
54112W        W25641  22.306  36.867   0.784
54113W        W25642  44.416  44.248   3.189
54114W        W25643  40.863   6.434   4.555
54115W        W25644  24.989  42.950  13.808
54116W        W25645  28.787   5.182   4.662
54117W        W25646  24.889  40.003   3.617
54118W        W25647  35.098   8.403  12.019
54119W        W25648  10.911   1.022   1.689
54120W        W25649  25.526   1.653  10.145
54121W        W25650  27.704  38.917  13.052
54122W        W25651  20.492  21.792  12.687
54123W        W25652  21.552  44.045  14.836
54124W        W25653  23.523   4.340  12.550
54125W        W25654   9.210   1.478  12.842
54126W        W25655  40.369   3.666  13.766
54127W        W25656  34.489   3.978   1.031
54128W        W25657  40.306   2.441  14.348
54129W        W25658   2.903  19.635   4.103
54130W        W25659  11.316  30.701  12.418
54131W        W25660   9.589   6.213  14.524
54132W        W25661  12.914   3.863  11.199
54133W        W25662   5.472  35.082  11.605
54134W        W25663  16.700  19.789  12.477
54135W        W25664  43.468  29.206  11.283
54136W        W25665  10.632  13.954   0.789
54137W        W25666   6.811   7.849  11.190
54138W        W25667   7.282  11.342   0.957
54139W        W25668  29.752  17.162   4.642
54140W        W25669   3.851  13.195   3.273
54141W        W25670  20.105  15.201  11.653
54142W        W25671  29.292  36.807   5.156
54143W        W25672  29.626  12.130  14.014
54144W        W25673  21.487   3.846  12.752
54145W        W25674   8.795  39.613   0.537
54146W        W25675  32.476  22.590  13.576
54147W        W25676  14.490  14.472  10.293
54148W        W25677  21.299  26.096   4.292
54149W        W25678  12.292  40.254   2.791
54150W        W25679  38.804  10.361  14.428
54151W        W25680   8.347  31.815   0.408
54152W        W25681  17.912   3.329  11.087
54153W        W25682  40.656  21.789   0.715
54154W        W25683  25.973   7.766   0.905
54155W        W25684  16.704  34.716  11.193
54156W        W25685  42.608  40.858  12.306
54157W        W25686  36.682  39.930  10.148
54158W        W25687  18.725  23.346   2.892
54159W        W25688  34.916  20.345   4.015
54160W        W25689   6.150  27.864   4.987
54161W        W25690  19.231  41.685  12.538
54162W        W25691  22.655  16.990   1.578
54163W        W25692  12.185  41.042   4.086
54164W        W25693  33.286   8.270   2.382
54165W        W25694  20.476  25.016  10.657
54166W        W25695  42.244  19.625  11.093
54167W        W25696  15.415  21.780  13.901
54168W        W25697   7.752  35.433   3.908
54169W        W25698  17.026  28.559   3.089
54170W        W25699  37.380   0.311  14.824
54171W        W25700  33.943   1.196  10.738
54172W        W25701   9.230  23.271   0.757
54173W        W25702  28.217  20.249  12.810
54174W        W25703   1.861  10.058   2.087
54175W        W25704  39.061  35.890   0.608
54176W        W25705  34.818  20.280   0.811
54177W        W25706   2.927  20.172   0.148
54178W        W25707  23.164  20.846  13.206
54179W        W25708  24.219  39.985  11.268
54180W        W25709  18.500   4.086   2.870
54181W        W25710  11.206   3.628  12.876
54182W        W25711  15.363  18.500   2.297
54183W        W25712   3.810  31.069   1.161
54184W        W25713  33.998  29.034   2.195
54185W        W25714  37.479  44.743   3.656
54186W        W25715  16.698  41.969  13.857
54187W        W25716  19.469  18.591  14.419
54188W        W25717  36.947   6.615   0.359
54189W        W25718  19.054  26.825  13.359
54190W        W25719  11.358   7.459  11.850
54191W        W25720   8.186   7.793   1.308
54192W        W25721  31.219  27.246   5.008
54193W        W25722  18.502  22.460  11.462
54194W        W25723  14.598  17.136  14.928
54195W        W25724  37.975  31.914   3.822
54196W        W25725  42.987  43.533  13.735
54197W        W25726  10.802  42.955  14.775
54198W        W25727  28.059   8.088  11.081
54199W        W25728   4.539  36.374   2.251
54200W        W25729  21.127  41.063   4.994
54201W        W25730  28.048  22.587  14.340
54202W        W25731   4.938  30.415   4.531
54203W        W25732  32.038  30.448  14.024
54204W        W25733  34.983  38.871  12.569
54205W        W25734  13.218  22.129   2.838
54206W        W25735  18.598  14.604  11.088
54207W        W25736  28.120  25.498   3.634
54208W        W25737  30.429  22.241   2.744
54209W        W25738  24.191  14.137   3.423
54210W        W25739  12.175  17.111  13.862
54211W        W25740  37.898   2.758  14.742
54212W        W25741  23.172   0.030   1.779
54213W        W25742  16.519  38.152  10.989
54214W        W25743  29.021  18.579  14.379
54215W        W25744  39.708  17.133   4.145
54216W        W25745  30.074  35.066   2.216
54217W        W25746  41.291  44.698   4.304
54218W        W25747   9.810   1.361  12.711
54219W        W25748  23.766   6.120  13.594
54220W        W25749  31.487  11.069   0.751
54221W        W25750  17.529   0.290  11.133
54222W        W25751  27.795  35.029  11.468
54223W        W25752  42.557  38.421   0.747
54224W        W25753  34.804  28.482  10.482
54225W        W25754  44.963  32.676  13.890
54226W        W25755  22.492  25.672   0.364
54227W        W25756  40.216  34.930  10.528
54228W        W25757  36.128  19.941  11.873
54229W        W25758  19.647  25.330   5.107
54230W        W25759  32.891   2.593  14.726
54231W        W25760  13.615  35.916  12.447
54232W        W25761  12.828  19.549   0.764
54233W        W25762  39.390  44.946   4.238
54234W        W25763  12.350  28.215  13.326
54235W        W25764  34.631  27.970  12.113
54236W        W25765  39.585  44.518   1.871
54237W        W25766  36.825  43.963   2.717
54238W        W25767  25.136  24.073  13.197
54239W        W25768  30.615  42.945   3.824
54240W        W25769  18.219  24.026   1.214
54241W        W25770  10.610   7.687  12.783
54242W        W25771  18.629  21.970  10.599
54243W        W25772  42.402   7.183   4.380
54244W        W25773  23.408   7.312   0.324
54245W        W25774  32.201  34.236  13.527
54246W        W25775  16.251  28.167  14.762
54247W        W25776  34.480  42.369   2.006
54248W        W25777   0.053  37.479   3.094
54249W        W25778   9.821  31.851  11.950
54250W        W25779  29.177  35.001   0.871
54251W        W25780  29.954  27.747  11.158
54252W        W25781  21.563  38.666  12.867
54253W        W25782  21.623   5.260   3.675
54254W        W25783  14.640  26.019  11.100
54255W        W25784  14.934   4.489   0.987
54256W        W25785   0.899  34.669   0.780
54257W        W25786  37.865  13.159   0.387
54258W        W25787   5.719  38.431  10.861
54259W        W25788  20.294   1.831   2.730
54260W        W25789  39.777  19.234  12.010
54261W        W25790  27.578  33.597   3.694
54262W        W25791   2.327  23.557  11.083
54263W        W25792  19.116  40.677  13.942
54264W        W25793  31.016  16.795   0.983
54265W        W25794  23.212  17.782  11.581
54266W        W25795  31.562   8.665   1.173
54267W        W25796  27.483  13.581   9.482
54268W        W25797  21.208  10.401   1.841
54269W        W25798  23.663   7.828  12.943
54270W        W25799  11.907  18.174  11.273
54271W        W25800  12.426  26.548   1.976
54272W        W25801  29.249   0.250   2.685
54273W        W25802  19.655  25.013  14.362
54274W        W25803  34.944   8.435   3.712
54275W        W25804  33.960  24.577  12.846
54276W        W25805  16.590  13.734  13.567
54277W        W25806  37.090  26.096  12.463
54278W        W25807  44.058  36.370  10.734
54279W        W25808  11.300   2.443   5.338
54280W        W25809  37.361   2.259   3.438
54281W        W25810  16.154  27.054   3.311
54282W        W25811  21.488  15.790   1.727
54283W        W25812  10.103  37.147   0.411
54284W        W25813  20.377  18.243   3.135
54285W        W25814   9.161  42.716  13.657
54286W        W25815  22.669   3.979  12.891
54287W        W25816  22.648  31.738   0.733
54288W        W25817  38.937   7.916   1.894
54289W        W25818  42.823  20.679  12.776
54290W        W25819  12.240  43.205  12.543
54291W        W25820  14.730  28.887  12.395
54292W        W25821  24.775   8.640  12.969
54293W        W25822   8.787  11.250  10.784
54294W        W25823  38.979  32.373   4.646
54295W        W25824  43.338  29.472  13.509
54296W        W25825  31.662   7.678  12.162
54297W        W25826  27.461   4.913  13.407
54298W        W25827  17.072  39.587   4.893
54299W        W25828  26.756  28.036   4.579
54300W        W25829  24.141  13.206   0.952
54301W        W25830  25.715  13.726  11.083
54302W        W25831  32.954  27.440   1.286
54303W        W25832  15.852  27.241  12.476
54304W        W25833   4.382  35.490  11.135
54305W        W25834  29.402  22.668   1.243
54306W        W25835  43.903  20.551  14.911
54307W        W25836   0.054  22.810   3.624
54308W        W25837  29.176  41.454   1.414
54309W        W25838  28.924   2.711   3.191
54310W        W25839  30.511  10.248  13.402
54311W        W25840   4.254  41.988   0.765
54312W        W25841   9.833  24.941   2.226
54313W        W25842  31.982  14.708  12.391
54314W        W25843   1.435  43.054  12.911
54315W        W25844  11.577  35.951   0.825
54316W        W25845  44.429  33.196   2.775
54317W        W25846   5.123  15.293  14.951
54318W        W25847  15.734  26.388   0.330
54319W        W25848  34.043  31.619   3.826
54320W        W25849  12.756  13.714  14.395
54321W        W25850  44.333  12.920  14.847
54322W        W25851   0.781  39.104   0.079
54323W        W25852  40.642  34.417   4.090
54324W        W25853  11.691  43.808   2.414
54325W        W25854  20.784  29.748   3.288
54326W        W25855  12.541  15.769   2.963
54327W        W25856  24.076  43.839  10.785
54328W        W25857  31.212  35.589  14.357
54329W        W25858  24.517  24.422  12.080
54330W        W25859   5.324  11.630   0.907
54331W        W25860  40.889  29.537  14.829
54332W        W25861  23.946  12.641  13.199
54333W        W25862  40.611   3.354  10.358
54334W        W25863  22.166  34.475  10.744
54335W        W25864  39.837  22.054  13.318
54336W        W25865  40.416  25.652   3.670
54337W        W25866  34.435  32.652  10.511
54338W        W25867  15.148  27.509   3.857
54339W        W25868   3.889   9.344  14.601
54340W        W25869  28.996  42.706   0.873
54341W        W25870  10.682  31.270  12.284
54342W        W25871   7.730  25.593  12.490
54343W        W25872  40.862   2.917   4.121
54344W        W25873  24.972  16.641   2.335
54345W        W25874  16.729   9.349   2.445
54346W        W25875  28.186  16.243  12.823
54347W        W25876  41.695  18.513  10.663
54348W        W25877  42.720  35.483  12.175
54349W        W25878  37.999  38.513  11.521
54350W        W25879  24.629  37.913   0.541
54351W        W25880  12.152  37.160   1.058
54352W        W25881   1.872   5.707  13.282
54353W        W25882  34.674   4.024   0.555
54354W        W25883  10.849  10.805   1.695
54355W        W25884  38.807  28.567   2.274
54356W        W25885  43.918  41.094   3.745
54357W        W25886  11.706  44.327   2.323
54358W        W25887  33.757  20.215   2.631
54359W        W25888   0.941  14.358  13.314
54360W        W25889   5.539  16.142  12.510
54361W        W25890  24.395  36.641   2.806
54362W        W25891  21.691  29.888  11.185
54363W        W25892   5.930  23.447  10.779
54364W        W25893   8.256  33.043  10.786
54365W        W25894  29.582   6.687   2.801
54366W        W25895   1.915  23.060  12.408
54367W        W25896  22.981  27.151   3.920
54368W        W25897  17.747  18.517   0.860
54369W        W25898   1.677   4.474   1.054
54370W        W25899  34.585   5.411  12.093
54371W        W25900  41.917  39.790  11.596
54372W        W25901  24.028  17.274  11.926
54373W        W25902  20.331  38.776  11.225
54374W        W25903   5.753  17.720   3.337
54375W        W25904   5.957  41.427   0.554
54376W        W25905  23.049  34.442   0.826
54377W        W25906   8.638  22.116   4.327
54378W        W25907  35.655  36.763   1.296
54379W        W25908  29.228   7.211  12.032
54380W        W25909   9.542  16.284   2.158
54381W        W25910  19.241  39.565   3.202
54382W        W25911  30.360  11.087  13.296
54383W        W25912  14.366  21.084  13.497
54384W        W25913  30.151  26.145  12.591
54385W        W25914  43.436  41.016  14.277
54386W        W25915  17.917   1.195  14.942
54387W        W25916   6.234   1.227  12.804
54388W        W25917   3.213   3.960   0.851
54389W        W25918  39.468  27.394   1.423
54390W        W25919  38.817  34.874  10.816
54391W        W25920  31.092  42.396   1.264
54392W        W25921  10.836  44.355   0.362
54393W        W25922  20.351  39.960   0.869
54394W        W25923  39.512   0.760   4.702
54395W        W25924  20.198   9.439  10.551
54396W        W25925  30.468  35.741  13.296
54397W        W25926  22.415   2.666   1.440
54398W        W25927   0.544  28.903   4.487
54399W        W25928  44.170  11.420  10.598
54400W        W25929  29.415  40.807  12.001
54401W        W25930  22.627  44.924   4.188
54402W        W25931  31.742  44.902  14.079
54403W        W25932  17.985  43.817   4.622
54404W        W25933  28.403  41.710  13.559
54405W        W25934  43.944  34.591   1.430
54406W        W25935  39.521  42.558  11.157
54407W        W25936  15.378  16.198  10.960
54408W        W25937  18.281   5.917  14.668
54409W        W25938  23.860   8.487   2.795
54410W        W25939  42.122  29.392   4.659
54411W        W25940  21.601  26.140  14.416
54412W        W25941  25.144  35.582  13.951
54413W        W25942   9.390  17.275  11.125
54414W        W25943  32.416  25.507   3.659
54415W        W25944  30.315   1.777  11.824
54416W        W25945   9.706  10.527  10.974
54417W        W25946  28.653  17.996  11.170
54418W        W25947  12.389  15.230  14.526
54419W        W25948  28.144   0.826  14.292
54420W        W25949  33.507   3.876  14.860
54421W        W25950  43.919  39.291  14.380
54422W        W25951   6.706  30.588   4.670
54423W        W25952   8.049  43.604   1.700
54424W        W25953  37.419  23.056   0.478
54425W        W25954  30.088  42.407   2.255
54426W        W25955   8.820  24.032  12.498
54427W        W25956  33.942  17.688  14.300
54428W        W25957  44.637  10.662   2.693
54429W        W25958  32.485   5.181  12.560
54430W        W25959  21.052  34.781  13.743
54431W        W25960  21.017  36.928  14.451
54432W        W25961  30.537  12.321   3.104
54433W        W25962  35.939   3.915  11.462
54434W        W25963  19.438  13.284   0.108
54435W        W25964  20.127  31.111   0.954
54436W        W25965   7.336  43.892  14.829
54437W        W25966  32.387  32.291  13.421
54438W        W25967  19.233   1.281  13.032
54439W        W25968   0.212  37.564   4.347
54440W        W25969  42.547  16.850  11.640
54441W        W25970  32.696  14.583  11.395
54442W        W25971  19.322  42.793   4.638
54443W        W25972  26.752  24.651   0.771
54444W        W25973  22.046  21.643   0.012
54445W        W25974  30.988  40.588  13.965
54446W        W25975  18.564  20.674  12.485
54447W        W25976   1.424  21.128  13.921
54448W        W25977  14.874   5.645   0.932
54449W        W25978  37.856  28.706  11.509
54450W        W25979  34.562  41.310  11.950
54451W        W25980   8.377  37.994   4.698
54452W        W25981   0.350  42.388  12.725
54453W        W25982  39.924  16.261   1.853
54454W        W25983  37.346  39.377   4.896
54455W        W25984   1.836   0.487  11.115
54456W        W25985   3.064  41.337  11.715
54457W        W25986  28.914  24.485   2.662
54458W        W25987   7.415  43.524  14.044
54459W        W25988   6.081  41.893   0.798
54460W        W25989  39.231   5.240   2.703
54461W        W25990  31.092  21.209  13.492
54462W        W25991   4.070  38.966   1.732
54463W        W25992  18.183  40.506  11.421
54464W        W25993  15.630  30.022   2.571
54465W        W25994  32.758   2.085   3.641
54466W        W25995   5.392  24.636   4.341
54467W        W25996   2.674  14.601  11.841
54468W        W25997  40.003  24.082   2.688
54469W        W25998  35.575  28.341   4.271
54470W        W25999  19.449  40.381   0.831
54471W        W26000  14.874  17.175  13.952
54472W        W26001  37.538  27.022   0.792
54473W        W26002  13.165  11.829  13.391
54474W        W26003  37.561  33.757   2.082
54475W        W26004   5.779  15.183  10.733
54476W        W26005  42.517   3.462   1.406
54477W        W26006   4.955  19.672  14.455
54478W        W26007  25.448   1.455  13.708
54479W        W26008  40.927  41.282   0.193
54480W        W26009  44.679  23.472   2.208
54481W        W26010  23.106  32.512  10.975
54482W        W26011   9.686  11.918   1.896
54483W        W26012  38.445  41.271  13.907
54484W        W26013  44.969  41.520   2.845
54485W        W26014  34.049  16.066   2.540
54486W        W26015  42.039  33.826   3.465
54487W        W26016  25.108  18.024  11.537
54488W        W26017  31.455  38.405  11.920
54489W        W26018   0.728  35.301  14.020
54490W        W26019  40.086   8.323  10.926
54491W        W26020   2.943  18.617  13.660
54492W        W26021  36.816  18.276   5.053
54493W        W26022  38.816  22.000  11.082
54494W        W26023  41.466  30.474   4.321
54495W        W26024  20.718  31.755   0.996
54496W        W26025  40.039  20.745   1.784
54497W        W26026  19.497  34.604   3.150
54498W        W26027  43.259  43.933  12.108
54499W        W26028  18.919  29.298  12.035
54500W        W26029   0.898  39.731  11.170
54501W        W26030  26.728  33.951   3.430
54502W        W26031  37.886  17.975  11.662
54503W        W26032   6.546   9.310  11.097
54504W        W26033   5.912  13.885  12.609
54505W        W26034  24.155  10.103   0.217
54506W        W26035  21.541   3.850  14.691
54507W        W26036  40.349  23.124   4.895
54508W        W26037  10.581  20.544  14.678
54509W        W26038  33.961  43.485   3.100
54510W        W26039  29.388  26.088   0.370
54511W        W26040  13.097  12.091   4.134
54512W        W26041   9.335  10.333   2.841
54513W        W26042  29.184  20.305  12.906
54514W        W26043  26.466  29.080   2.833
54515W        W26044  23.979  29.629   2.392
54516W        W26045   9.377  10.772   4.205
54517W        W26046  32.023   2.481   3.314
54518W        W26047  44.545  10.148  11.578
54519W        W26048  32.631  12.210  13.258
54520W        W26049  41.041   2.857   0.203
54521W        W26050   7.514  12.829   2.672
54522W        W26051  44.286   6.123  10.728
54523W        W26052   7.415  38.856   1.764
54524W        W26053  16.325   5.175  12.255
54525W        W26054  20.964  20.739   3.806
54526W        W26055  44.553   3.461   5.335
54527W        W26056  35.938  24.777   0.393
54528W        W26057  25.443  11.782  13.275
54529W        W26058  34.518   4.670  13.952
54530W        W26059   1.100   7.147  12.546
54531W        W26060  34.882   3.751   3.781
54532W        W26061  26.504  10.112  14.205
54533W        W26062  18.769  25.758  13.467
54534W        W26063  27.024  26.445   0.216
54535W        W26064  10.045   5.779   4.444
54536W        W26065  17.584   1.284  11.080
54537W        W26066  23.868   4.819   5.001
54538W        W26067  35.487  26.389   1.824
54539W        W26068  34.393  19.565  10.688
54540W        W26069  43.837  26.459   2.199
54541W        W26070   2.966   8.850   4.552
54542W        W26071  25.493   0.463   1.745
54543W        W26072   3.330  18.147  12.438
54544W        W26073  28.444  33.619   2.615
54545W        W26074  16.510  43.767   0.127
54546W        W26075   3.364  13.103  14.514
54547W        W26076  28.830  31.531  11.114
54548W        W26077   9.548   6.325   1.433
54549W        W26078   4.158  33.650   3.307
54550W        W26079  31.981  17.071   4.761
54551W        W26080  37.871  41.915   2.921
54552W        W26081  33.802   3.426   4.555
54553W        W26082   1.074   3.503   2.842
54554W        W26083  41.134  25.878   2.669
54555W        W26084  17.273  18.378  13.164
54556W        W26085   3.472  26.053  14.794
54557W        W26086  21.159   4.247   1.924
54558W        W26087   9.021  11.652  13.582
54559W        W26088   1.838   1.141   1.273
54560W        W26089   3.799  23.104   1.272
54561W        W26090  36.284  15.539  11.244
54562W        W26091   3.270  26.204   3.673
54563W        W26092   0.289   8.687  12.872
54564W        W26093  31.392  20.612  11.498
54565W        W26094   2.346  34.623   3.757
54566W        W26095  14.048  11.072   3.293
54567W        W26096  15.407  30.169  10.638
54568W        W26097  29.949  18.057   4.873
54569W        W26098   3.916  30.962   2.545
54570W        W26099  11.105  43.588  11.884
54571W        W26100  35.975  17.280   4.576
54572W        W26101  27.964  44.493  12.459
54573W        W26102  33.068   4.936   3.223
54574W        W26103  31.632   6.228   3.464
54575W        W26104  29.548   6.416  10.506
54576W        W26105  32.881  17.681   4.548
54577W        W26106  20.952  18.207  11.552
54578W        W26107  14.381  31.100   2.938
54579W        W26108  40.000  37.182   1.901
54580W        W26109   7.173  40.383  13.515
54581W        W26110  33.002  24.889  12.531
54582W        W26111  18.254  41.710  10.727
54583W        W26112  31.458   7.649   2.888
54584W        W26113  17.085  18.047   9.978
54585W        W26114  18.027  20.322  12.401
54586W        W26115  18.339  24.679  14.469
54587W        W26116  15.794  29.168  13.006
54588W        W26117  30.515  42.531  14.692
54589W        W26118  13.398   4.747   3.667
54590W        W26119   0.985  30.428   3.740
54591W        W26120   8.384  29.496  11.186
54592W        W26121  21.898  12.282   4.070
54593W        W26122  14.185   7.992  11.711
54594W        W26123  25.419  24.172   0.736
54595W        W26124  37.128   3.858  14.553
54596W        W26125  25.105  37.330   4.651
54597W        W26126  37.488   3.965  10.542
54598W        W26127  13.826  36.995  13.842
54599W        W26128   4.668  40.864  13.378
54600W        W26129  22.049  43.761  13.812
54601W        W26130  24.703  19.823  13.416
54602W        W26131   7.797  18.939   2.278
54603W        W26132  36.883  15.449   1.466
54604W        W26133  16.186   2.500  12.973
54605W        W26134  40.159  16.717   3.116
54606W        W26135  23.996  20.522   1.005
54607W        W26136  25.453  33.478   2.543
54608W        W26137   1.674  10.296   1.664
54609W        W26138  44.206  37.162   5.002
54610W        W26139  18.806  12.703  10.796
54611W        W26140  35.703  27.893  13.416
54612W        W26141   5.232  18.127  11.753
54613W        W26142   8.934  36.622   3.733
54614W        W26143   9.869  10.318   2.193
54615W        W26144   1.856   7.667   4.094
54616W        W26145   6.476   2.872  12.814
54617W        W26146  19.635  38.021  13.316
54618W        W26147   6.902  17.128  11.400
54619W        W26148  43.373  23.070   4.787
54620W        W26149  31.441   0.355   3.430
54621W        W26150   9.622  16.606   0.970
54622W        W26151  41.880  26.903   4.738
54623W        W26152  13.711   3.359   1.247
54624W        W26153  42.194  15.666   4.098
54625W        W26154  33.321  31.686   2.131
54626W        W26155   3.641  33.527   4.250
54627W        W26156  38.146   1.205   2.397
54628W        W26157  22.936  43.460   1.323
54629W        W26158  14.167  10.886   0.138
54630W        W26159  18.220  32.609  11.512
54631W        W26160  35.002   5.937  11.602
54632W        W26161  39.843  32.568   0.411
54633W        W26162  16.869  44.369   4.292
54634W        W26163  29.063   6.347   2.675
54635W        W26164  12.860  27.589   3.853
54636W        W26165  42.815  20.211   0.914
54637W        W26166  21.550   3.364  14.934
54638W        W26167   5.207  21.631  12.085
54639W        W26168  23.163  29.078   3.096
54640W        W26169   0.508  17.689   3.254
54641W        W26170   2.157  13.105   1.330
54642W        W26171   5.025  16.209  12.553
54643W        W26172  43.051  23.160  14.894
54644W        W26173  15.125  34.759  14.893
54645W        W26174  23.174  10.529  10.317
54646W        W26175  41.899   3.744  13.895
54647W        W26176  24.575  24.739  11.026
54648W        W26177  12.491  16.149   4.979
54649W        W26178  17.258  22.958   2.681
54650W        W26179  26.672  38.335  14.322
54651W        W26180  39.566  22.232   0.019
54652W        W26181  25.949  36.571  14.253
54653W        W26182  11.318  22.095  12.806
54654W        W26183  36.334  34.988  12.571
54655W        W26184   8.752  15.144  13.664
54656W        W26185  36.021  32.806   1.978
54657W        W26186  14.321  30.003  14.339
54658W        W26187  39.087  42.072  12.439
54659W        W26188  15.671  11.928  14.911
54660W        W26189  29.977   6.374  10.789
54661W        W26190  14.034  44.364   0.540
54662W        W26191   0.783  11.704  13.846
54663W        W26192  36.311  10.649   2.216
54664W        W26193  20.244   2.400   4.142
54665W        W26194  20.457  40.407  13.395
54666W        W26195  41.246  14.753   4.374
54667W        W26196  41.449  39.765  11.343
54668W        W26197  24.228  33.078  11.009
54669W        W26198  43.210  18.482   0.933
54670W        W26199   5.096  29.121   2.202
54671W        W26200  41.171  38.562  10.731
54672W        W26201  32.253  28.493  12.866
54673W        W26202   6.035  40.440  11.101
54674W        W26203  38.498  44.656  11.356
54675W        W26204  28.456  25.905   3.598
54676W        W26205   8.194  37.769   4.254
54677W        W26206  20.462  17.134   3.227
54678W        W26207  24.198  11.389   0.854
54679W        W26208  26.928   0.896   1.175
54680W        W26209  38.835   9.370  14.078
54681W        W26210   5.767   8.160  10.441
54682W        W26211  42.459  40.986  11.848
54683W        W26212  33.389  20.243  13.014
54684W        W26213  38.914   6.083   2.527
54685W        W26214  43.887  23.103   0.461
54686W        W26215  31.627  39.354   2.766
54687W        W26216  31.391   8.334  12.792
54688W        W26217  40.358  15.612  11.110
54689W        W26218  28.050  11.383  11.833
54690W        W26219  16.256  33.402   3.351
54691W        W26220  23.803  19.097  13.935
54692W        W26221  26.109  14.654   1.800
54693W        W26222  25.059  13.650   2.791
54694W        W26223  24.614   8.694   5.158
54695W        W26224  40.417  12.828   1.823
54696W        W26225  42.018  15.094   0.730
54697W        W26226  10.685   3.491   3.554
54698W        W26227  37.328  15.813  13.980
54699W        W26228  34.996  34.354   4.619
54700W        W26229  12.041   6.706  11.934
54701W        W26230  17.192  21.167  14.590
54702W        W26231  36.848  28.610   1.241
54703W        W26232  32.867   5.682   1.248
54704W        W26233  10.843   4.870   1.773
54705W        W26234  29.061  34.337   3.533
54706W        W26235  17.636  13.939  12.931
54707W        W26236  15.237  23.230  12.026
54708W        W26237  26.201   4.744  11.626
54709W        W26238   5.692   4.273   3.682
54710W        W26239   8.571   5.794   4.733
54711W        W26240  12.708  40.878  11.617
54712W        W26241  25.233  28.560   0.989
54713W        W26242   6.877   0.907   3.747
54714W        W26243   7.655  18.691   0.122
54715W        W26244   7.989  43.410   0.322
54716W        W26245  34.475  42.405   0.737
54717W        W26246  28.574  10.181  14.041
54718W        W26247  19.099  37.265   4.758
54719W        W26248  15.542   9.869  12.696
54720W        W26249  26.686  11.665  11.084
54721W        W26250  27.530  35.280  13.925
54722W        W26251  40.727  19.026   2.727
54723W        W26252  21.348  39.947   1.840
54724W        W26253  25.884  43.077   2.814
54725W        W26254   6.848   5.888   1.257
54726W        W26255   8.804  23.930   1.302
54727W        W26256  40.432  28.586  13.273
54728W        W26257  33.388  29.897  10.305
54729W        W26258  27.618  10.278  12.592
54730W        W26259   9.358  31.041  14.513
54731W        W26260  37.195  15.196   1.980
54732W        W26261  23.696  13.581  12.429
54733W        W26262   1.260  11.114   3.234
54734W        W26263  37.783  12.704  11.590
54735W        W26264  42.987  34.154   3.594
54736W        W26265  30.934  23.290   3.365
54737W        W26266  38.817   9.000  11.973
54738W        W26267  39.701  21.016  11.095
54739W        W26268   2.279   1.733  12.980
54740W        W26269  12.802  14.904  11.202
54741W        W26270  22.025  26.982   2.670
54742W        W26271  33.432   7.961   1.335
54743W        W26272  24.988  32.476   3.660
54744W        W26273  22.632  23.316   4.661
54745W        W26274  30.708  29.122   0.017
54746W        W26275  19.352  34.203  14.336
54747W        W26276  30.985  39.547   1.329
54748W        W26277  38.422  33.630   1.713
54749W        W26278   1.748  20.628  12.398
54750W        W26279  21.015  33.447  14.454
54751W        W26280  22.091  41.542  14.348
54752W        W26281  36.816   2.860   1.227
54753W        W26282  34.911  32.467   1.848
54754W        W26283  14.415  39.363  11.805
54755W        W26284  26.096  13.645   2.669
54756W        W26285  36.198  32.650   2.456
54757W        W26286  11.428  26.697   0.425
54758W        W26287  16.001   0.579  11.106
54759W        W26288   2.123   5.304  14.058
54760W        W26289  44.466  30.039   3.350
54761W        W26290  25.769   3.397   4.262
54762W        W26291  30.126  26.834  14.177
54763W        W26292  41.680  23.108   0.910
54764W        W26293  33.913  17.343   1.121
54765W        W26294  28.581  41.840   4.670
54766W        W26295   3.253  31.904   2.226
54767W        W26296  38.585   1.414  11.599
54768W        W26297  36.832  27.289  10.811
54769W        W26298  43.070  39.388   2.201
54770W        W26299  40.708  41.902   2.371
54771W        W26300  26.516   3.638   0.588
54772W        W26301  24.638  19.236  11.340
54773W        W26302  34.351  20.271  14.236
54774W        W26303  44.934   7.013   0.986
54775W        W26304  11.207  12.908  13.887
54776W        W26305   6.388  25.095   0.872
54777W        W26306   4.336  29.061   2.756
54778W        W26307   4.859   2.170   4.340
54779W        W26308   2.308  12.705   4.152
54780W        W26309  31.738  25.114   4.432
54781W        W26310   0.751  41.470   4.549
54782W        W26311   7.213  16.332   0.292
54783W        W26312  11.309  30.462   4.549
54784W        W26313  36.834  17.741   4.574
54785W        W26314  35.079  33.094   4.839
54786W        W26315  26.024   2.761  11.479
54787W        W26316  36.461   1.535  12.568
54788W        W26317  42.792  27.779   0.084
54789W        W26318  34.911  19.111   3.347
54790W        W26319  30.151  23.696   3.403
54791W        W26320   9.464  19.243  10.270
54792W        W26321   4.844   1.000  13.896
54793W        W26322  18.285  32.588   3.223
54794W        W26323  42.182  42.369   3.189
54795W        W26324  16.529   0.425  13.422
54796W        W26325  17.519  29.005   1.825
54797W        W26326   2.756  30.665   1.762
54798W        W26327  14.747  26.683   4.997
54799W        W26328  27.086   3.437  11.505
54800W        W26329  16.110  14.634   3.551
54801W        W26330   3.233   0.726  11.424
54802W        W26331  10.394  11.797   1.233
54803W        W26332   1.359  37.911  14.971
54804W        W26333  13.837  10.655   0.562
54805W        W26334  11.143  36.470  11.162
54806W        W26335  27.284  25.348  13.011
54807W        W26336  23.906  36.473   2.842
54808W        W26337   5.330  21.607   4.022
54809W        W26338   2.347  44.642   4.607
54810W        W26339  24.495  39.944   0.361
54811W        W26340  23.646  16.003  13.983
54812W        W26341   9.119   8.855   4.101
54813W        W26342  29.443  11.913   3.332
54814W        W26343  33.570  23.953  14.924
54815W        W26344   3.459  33.414  12.481
54816W        W26345   1.856  17.671   3.741
54817W        W26346  41.363  34.369   0.407
54818W        W26347  34.239   8.887  11.884
54819W        W26348   2.482   3.954   3.323
54820W        W26349   7.211  27.558  10.566
54821W        W26350   3.974   3.979   4.173
54822W        W26351  38.036  24.896  13.454
54823W        W26352   8.905  16.596   3.805
54824W        W26353  14.048  32.797   4.342
54825W        W26354  32.144  27.187  13.625
54826W        W26355  13.785  19.282   4.298
54827W        W26356  38.649  28.631  12.433
54828W        W26357  32.082  11.373  12.984
54829W        W26358  35.043  32.961   1.971
54830W        W26359  39.351   3.431  11.959
54831W        W26360  35.886   2.883   2.341
54832W        W26361  24.558   7.951  10.840
54833W        W26362   7.237   1.626  13.743
54834W        W26363   2.859  18.243   4.775
54835W        W26364   6.885  23.107  13.661
54836W        W26365   8.310  28.231   0.235
54837W        W26366   4.607  22.814  13.893
54838W        W26367  28.945   0.499  11.141
54839W        W26368  32.853  25.477  13.345
54840W        W26369  32.388  35.524  14.980
54841W        W26370  41.975   3.891  10.352
54842W        W26371  39.572  34.458  11.058
54843W        W26372  40.404  17.530  12.150
54844W        W26373   2.683  23.946  11.185
54845W        W26374  21.621  16.506   4.722
54846W        W26375  25.120  12.652  10.908
54847W        W26376  34.222  32.384  13.490
54848W        W26377  38.156  11.113  11.136
54849W        W26378  16.744  21.696  14.291
54850W        W26379  30.290   5.715  13.842
54851W        W26380   9.756  27.433  11.388
54852W        W26381  19.671  42.072  10.824
54853W        W26382  24.578  14.901   2.464
54854W        W26383  11.401  38.443  11.096
54855W        W26384   3.977   6.790   2.614
54856W        W26385  11.151  26.971   2.616
54857W        W26386  23.448  12.107   2.869
54858W        W26387  18.233  23.628  14.877
54859W        W26388  39.350   1.863  12.017
54860W        W26389  40.504  37.787  12.437
54861W        W26390  26.718   1.745  14.643
54862W        W26391  13.655  14.890   3.738
54863W        W26392   9.755  28.035   4.239
54864W        W26393  42.865  38.340   4.519
54865W        W26394  14.918  40.079   1.797
54866W        W26395   3.793   4.908   4.083
54867W        W26396  41.362  21.252  14.958
54868W        W26397   6.780  12.664  13.809
54869W        W26398  32.797  13.293   4.080
54870W        W26399  30.395  31.598   1.341
54871W        W26400  22.428   8.194   1.279
54872W        W26401  36.493  23.988  10.403
54873W        W26402  26.118   9.897  14.984
54874W        W26403  19.557   8.342  14.491
54875W        W26404  40.408   1.874   1.213
54876W        W26405  13.471  15.291   1.673
54877W        W26406  17.034   0.308  13.472
54878W        W26407  27.371  32.950   4.902
54879W        W26408  20.187  12.107   4.288
54880W        W26409   7.392  16.583   3.882
54881W        W26410  30.010  25.494   1.196
54882W        W26411  40.797  21.032   4.470
54883W        W26412  24.617   4.651   0.227
54884W        W26413  34.354   4.384  12.966
54885W        W26414  14.876  10.808   2.349
54886W        W26415  22.914  23.105  11.076
54887W        W26416  32.042  19.132   1.908
54888W        W26417  34.093  14.477   2.093
54889W        W26418  31.513   0.897  14.858
54890W        W26419  12.779  30.923   0.897
54891W        W26420  28.606   9.273   2.845
54892W        W26421  20.735  35.428   2.657
54893W        W26422  12.674  34.073  11.378
54894W        W26423   2.294  12.481  14.129
54895W        W26424  11.351  36.567  14.841
54896W        W26425  17.521  24.000  12.348
54897W        W26426  39.279  24.753  13.838
54898W        W26427  13.559  11.719   2.889
54899W        W26428  17.803  13.808   2.915
54900W        W26429   0.237  22.359  12.040
54901W        W26430  26.073   8.335  13.487
54902W        W26431  22.606   7.097  12.042
54903W        W26432  14.229  34.472   0.541
54904W        W26433   1.339  10.932   3.723
54905W        W26434  14.111   0.196  10.922
54906W        W26435  23.354  10.739   1.692
54907W        W26436  20.948  15.148  12.936
54908W        W26437  41.318  22.150   4.376
54909W        W26438  44.634  29.525   3.270
54910W        W26439   8.839   4.703  10.830
54911W        W26440  17.425  25.999  12.092
54912W        W26441  36.399   6.167   1.548
54913W        W26442  29.476  19.186  11.131
54914W        W26443  41.526   5.562   1.696
54915W        W26444  31.946  43.759   0.270
54916W        W26445   1.721  17.313  14.266
54917W        W26446  10.745  23.842   4.888
54918W        W26447  28.622  26.552  11.147
54919W        W26448   8.937   7.738  13.424
54920W        W26449   5.201  20.697   2.799
54921W        W26450  40.796   9.127   0.818
54922W        W26451  38.790  16.284  13.931
54923W        W26452  16.776  19.657   4.451
54924W        W26453  12.531  12.264   2.807
54925W        W26454  37.078  37.347   1.966
54926W        W26455  11.739  29.219   4.346
54927W        W26456  13.073  43.660   1.905
54928W        W26457  24.266   1.927  12.579
54929W        W26458  38.626   8.938  13.336
54930W        W26459  23.606  23.688   1.681
54931W        W26460  24.879   5.590  14.032
54932W        W26461  33.136  28.002   3.364
54933W        W26462  32.092   7.508   3.306
54934W        W26463  10.048  44.848   1.297
54935W        W26464  35.479  42.251  11.273
54936W        W26465  42.499   9.725  13.536
54937W        W26466  25.585  25.097   0.674
54938W        W26467   3.430   2.546   2.794
54939W        W26468   5.754   9.612  14.440
54940W        W26469  15.176   7.935  13.632
54941W        W26470  13.262  29.073  11.079
54942W        W26471  28.908   7.470   0.183
54943W        W26472   7.424  38.962   2.667
54944W        W26473  40.461  30.167   3.403
54945W        W26474  26.642  32.707  11.114
54946W        W26475  27.496  13.338   3.365
54947W        W26476  19.069  39.923  12.035
54948W        W26477  44.938  38.367  11.014
54949W        W26478   7.142   2.252  14.524
54950W        W26479  21.342  40.712  13.443
54951W        W26480   2.396  41.572  14.696
54952W        W26481  39.761  31.437  11.578
54953W        W26482  22.554  26.104  11.523
54954W        W26483  23.147   5.711   0.246
54955W        W26484  39.830  37.881  11.101
54956W        W26485  42.550  42.069  10.628
54957W        W26486  27.034  28.704   4.311
54958W        W26487  13.420   2.656   2.525
54959W        W26488  27.429   5.849   3.984
54960W        W26489  36.860  30.583   1.801
54961W        W26490  40.080  34.517   2.290
54962W        W26491  24.666   9.227  11.110
54963W        W26492  34.959  33.861   2.060
54964W        W26493   6.798  38.787  14.679
54965W        W26494  29.705  29.187  10.864
54966W        W26495  32.246  41.017  14.381
54967W        W26496   5.677  40.272   3.394
54968W        W26497  18.752   4.690   2.606
54969W        W26498   9.959  23.942   2.176
54970W        W26499  30.563  34.344  14.351
54971W        W26500  32.633  35.540  13.967
54972W        W26501  11.723  40.668   0.479
54973W        W26502   2.405  20.536   3.784
54974W        W26503  17.043  44.905  13.804
54975W        W26504  31.966  42.058   4.672
54976W        W26505   8.882  41.005  10.954
54977W        W26506  37.726  44.065  14.860
54978W        W26507  16.294  37.422   3.097
54979W        W26508  23.244  37.657  11.542
54980W        W26509   5.976  18.360  11.978
54981W        W26510   0.288  19.544   3.879
54982W        W26511  40.949  19.035  13.618
54983W        W26512  14.218  16.974  13.391
54984W        W26513  11.252  25.037  12.506
54985W        W26514   7.239  25.600  12.680
54986W        W26515  31.894  24.983   3.211
54987W        W26516  25.439   5.954   4.536
54988W        W26517  39.123  36.854  11.649
54989W        W26518  16.133  13.674   2.109
54990W        W26519  25.637  38.620   4.355
54991W        W26520  39.493  40.294   3.270
54992W        W26521   3.285   2.371   0.028
54993W        W26522  29.002  18.830   1.254
54994W        W26523  23.135   3.433   5.015
54995W        W26524   6.212  10.896  14.430
54996W        W26525  13.834  22.513  13.798
54997W        W26526  33.959  28.858   3.956
54998W        W26527  44.676   2.577   2.654
54999W        W26528  35.894  43.895  11.699
55000W        W26529  22.041  13.285   2.358
55001W        W26530  22.761  36.009   4.744
55002W        W26531  21.548  41.320   3.254
55003W        W26532  21.698  36.819   1.864
55004W        W26533  12.334  38.545   3.679
55005W        W26534  15.848  19.379   2.022
55006W        W26535   6.118  13.245   1.780
55007W        W26536  30.456  30.878   4.622
55008W        W26537  13.562  32.936  11.589
55009W        W26538  27.207  15.713   3.930
55010W        W26539  37.948  13.161  12.424
55011W        W26540  19.193  26.197   4.009
55012W        W26541  23.527   7.648   0.720
55013W        W26542  21.193  19.334  11.701
55014W        W26543  23.157  27.044   2.616
55015W        W26544  24.071   9.592   2.160
55016W        W26545  10.908  17.739   2.024
55017W        W26546  34.439  10.276   1.433
55018W        W26547  19.823  14.609   1.675
55019W        W26548  44.783  30.245  14.573
55020W        W26549   7.745  26.091  12.604
55021W        W26550  16.230  15.986   4.874
55022W        W26551  38.854  38.325  10.075
55023W        W26552   6.378   3.870   3.846
55024W        W26553  33.357  40.293   0.049
55025W        W26554  15.342  44.343   4.354
55026W        W26555   1.874   3.476   0.802
55027W        W26556  18.241  16.410   0.015
55028W        W26557   2.695   9.779  14.351
55029W        W26558   9.424  39.376   0.162
55030W        W26559   8.361  29.334   0.719
55031W        W26560  29.653  22.696  12.516
55032W        W26561  43.343  26.527   3.766
55033W        W26562  35.541  23.638   1.314
55034W        W26563  32.668   3.275   0.155
55035W        W26564   0.290  43.273  11.208
55036W        W26565  14.099  33.552   1.893
55037W        W26566   1.925  44.084   0.402
55038W        W26567  40.888  11.371   2.637
55039W        W26568  10.762  11.819  12.967
55040W        W26569  34.282  29.846  12.577
55041W        W26570  39.974  30.093   3.562
55042W        W26571  21.241   7.887  12.072
55043W        W26572  41.430   8.477  11.949
55044W        W26573  36.476  22.604  13.784
55045W        W26574  33.011  12.310  12.309
55046W        W26575   9.185   2.733   4.580
55047W        W26576  27.653  42.297  13.906
55048W        W26577  35.052  16.330   4.648
55049W        W26578  38.099  30.170   1.645
55050W        W26579  38.158  44.549  10.236
55051W        W26580  12.936   5.894   2.355
55052W        W26581  11.158  18.859  12.919
55053W        W26582  14.597  31.550  10.364
55054W        W26583  15.350  26.029   1.863
55055W        W26584  41.406   2.225  11.227
55056W        W26585   6.296  12.445  13.903
55057W        W26586  22.770   3.243   3.182
55058W        W26587  33.730   9.719  14.393
55059W        W26588   3.365  14.424   2.264
55060W        W26589  33.581  22.155   3.323
55061W        W26590  44.525  39.291  14.813
55062W        W26591  37.254  10.266   0.796
55063W        W26592   6.334  16.882   1.367
55064W        W26593  24.107  41.344   4.450
55065W        W26594  32.602   0.993   4.100
55066W        W26595   6.806  43.117   0.355
55067W        W26596  15.286  23.373   2.669
55068W        W26597  35.050  11.811   3.448
55069W        W26598  26.121  28.019  12.031
55070W        W26599   1.327   8.763   0.924
55071W        W26600   3.869   9.401  13.590
55072W        W26601  20.893  36.783   2.841
55073W        W26602  38.344  24.440  10.715
55074W        W26603  20.267   8.719  13.440
55075W        W26604  11.742  25.810   3.286
55076W        W26605   4.524  16.282  11.661
55077W        W26606  30.329   6.179   0.295
55078W        W26607   4.516  43.815   1.332
55079W        W26608   8.263  31.490  13.838
55080W        W26609  33.968   9.222  14.388
55081W        W26610  26.924  21.751   1.874
55082W        W26611   4.011  11.388   2.403
55083W        W26612  17.526  31.982   4.162
55084W        W26613   9.296  43.200   1.220
55085W        W26614   3.307  31.710   0.416
55086W        W26615  38.127  36.056  13.969
55087W        W26616  40.305  33.444  13.669
55088W        W26617  11.050   2.150   2.223
55089W        W26618  18.587  37.923  13.840
55090W        W26619   4.237   4.281   4.517
55091W        W26620  17.742   8.099  13.637
55092W        W26621  29.937  39.882  11.133
55093W        W26622  20.076   0.304  13.385
55094W        W26623  40.329  32.514  14.206
55095W        W26624  35.262  16.513  10.841
55096W        W26625  43.990  26.507  14.021
55097W        W26626  24.733  18.798  12.494
55098W        W26627  12.871   6.308   2.670
55099W        W26628   1.929  42.104   3.182
55100W        W26629  16.291  17.222  11.132
55101W        W26630  10.285  36.234  14.305
55102W        W26631  16.290   2.429   1.338
55103W        W26632  25.570  33.162  13.749
55104W        W26633  19.830  32.855   2.876
55105W        W26634  32.618   1.632  13.489
55106W        W26635   4.646  35.449  13.943
55107W        W26636  26.676   4.027  12.163
55108W        W26637  10.281  22.280  14.908
55109W        W26638  37.811  25.097   2.051
55110W        W26639  34.533  26.331   4.248
55111W        W26640  42.326  10.729   3.968
55112W        W26641  27.974  21.118  10.078
55113W        W26642  15.814  10.625  12.567
55114W        W26643  31.022  26.017  11.845
55115W        W26644   8.763  28.752   0.948
55116W        W26645   7.414   6.943   2.377
55117W        W26646  32.331  31.250  14.943
55118W        W26647  12.858  33.272  10.646
55119W        W26648  36.001  44.489  11.107
55120W        W26649   0.678  39.658   0.646
55121W        W26650  36.612   7.757  11.685
55122W        W26651   1.935  12.315  10.614
55123W        W26652  26.615   6.617   2.049
55124W        W26653  32.946  11.453  12.569
55125W        W26654   3.266   1.981  13.801
55126W        W26655   7.475  44.871   4.717
55127W        W26656  23.888   3.697   2.301
55128W        W26657   5.919   2.835  12.055
55129W        W26658  36.779   7.274   1.363
55130W        W26659  27.405  43.901  11.465
55131W        W26660  43.439  34.920  11.348
55132W        W26661   5.248  22.572   0.942
55133W        W26662  28.674  21.009   1.748
55134W        W26663  22.729  16.776  12.531
55135W        W26664   3.528   7.924   0.504
55136W        W26665   7.844   8.608   4.558
55137W        W26666   0.982  22.569  11.816
55138W        W26667  18.103   6.363   0.258
55139W        W26668  17.334   6.348   3.309
55140W        W26669   4.954  20.583  14.254
55141W        W26670   5.877  23.165  13.815
55142W        W26671  33.462  40.220   3.379
55143W        W26672  42.021  36.600  12.505
55144W        W26673   4.630   1.248   3.753
55145W        W26674  24.571  39.961   2.247
55146W        W26675   9.332   7.896   2.497
55147W        W26676  18.100   6.686   4.201
55148W        W26677  27.524  32.642   0.487
55149W        W26678   2.570  24.696   2.048
55150W        W26679   2.819  33.633  13.414
55151W        W26680  32.424   1.383   3.372
55152W        W26681  14.841  26.133  12.002
55153W        W26682  37.898  17.228   2.097
55154W        W26683  12.635  43.042   3.800
55155W        W26684   7.052   5.821  11.779
55156W        W26685   8.833  35.588   4.507
55157W        W26686   7.195  33.405  11.413
55158W        W26687  33.459  38.565   0.915
55159W        W26688  34.168  10.754  11.626
55160W        W26689  22.676  10.096  13.163
55161W        W26690  32.715  30.073   2.873
55162W        W26691  10.251  11.139  13.449
55163W        W26692  25.784  31.727  11.979
55164W        W26693  16.728  29.005  11.812
55165W        W26694   8.790  32.481  13.893
55166W        W26695  23.097   1.266  13.808
55167W        W26696   3.927   1.966   2.110
55168W        W26697  23.714  35.155  11.365
55169W        W26698  20.213  17.774  10.760
55170W        W26699  19.774  21.376   4.229
55171W        W26700  18.850  34.404   2.103
55172W        W26701  32.170  21.337   0.750
55173W        W26702  32.710   7.977  13.270
55174W        W26703  37.476  40.787   0.804
55175W        W26704  35.384  43.235   0.524
55176W        W26705  19.699  31.029   0.224
55177W        W26706  30.854  20.774  11.122
55178W        W26707  35.573  11.788  10.594
55179W        W26708  10.995   5.728   4.102
55180W        W26709  18.249  23.146   2.832
55181W        W26710   4.137  42.283   4.533
55182W        W26711  22.667  10.966  13.443
55183W        W26712  27.408   2.307  13.318
55184W        W26713  31.178   1.162  11.081
55185W        W26714  24.080   5.284  13.530
55186W        W26715  13.832  26.931   2.753
55187W        W26716  35.227   1.331  11.050
55188W        W26717   9.814   3.259   0.205
55189W        W26718  13.381  17.247   4.235
55190W        W26719  15.580   4.657  13.893
55191W        W26720  34.667  38.807  14.019
55192W        W26721  16.652  17.587  12.775
55193W        W26722   2.524  22.438   0.510
55194W        W26723  23.716   5.607   1.739
55195W        W26724   0.707   4.851  13.577
55196W        W26725  32.742  25.640  12.009
55197W        W26726  16.609  43.086   1.282
55198W        W26727   0.868   4.829   2.279
55199W        W26728  30.029  15.848   0.912
55200W        W26729   9.313  14.249  14.437
55201W        W26730  44.065  33.535  14.406
55202W        W26731  28.197  30.680   4.954
55203W        W26732  39.459  18.615   1.616
55204W        W26733  18.677  36.018   4.985
55205W        W26734  35.699  23.730   4.130
55206W        W26735   9.817   4.709  10.620
55207W        W26736   7.859  14.849  13.408
55208W        W26737  35.904   1.007   2.685
55209W        W26738  17.071  14.023   4.789
55210W        W26739  17.810  17.246  11.062
55211W        W26740  36.053   4.423   4.035
55212W        W26741  38.536   2.869   4.457
55213W        W26742  14.524  14.236   0.592
55214W        W26743  24.162  41.480   3.953
55215W        W26744  11.182   7.069   0.434
55216W        W26745  27.697   4.262   3.625
55217W        W26746  38.767  13.886   2.373
55218W        W26747   4.779  24.101   2.848
55219W        W26748   0.940   3.702   1.299
55220W        W26749   4.974   0.975  13.051
55221W        W26750   7.911  15.142  12.581
55222W        W26751  15.320  43.223   4.156
55223W        W26752   7.526  35.421   2.504
55224W        W26753   2.351  32.772  10.243
55225W        W26754  23.959  10.304   2.635
55226W        W26755  43.348  31.935  12.007
55227W        W26756   4.336  30.254  11.593
55228W        W26757   8.207   1.813  11.011
55229W        W26758  34.967  40.759   4.218
55230W        W26759  29.310   6.893   1.818
55231W        W26760   9.096  11.364  11.615
55232W        W26761   4.524  29.662  14.890
55233W        W26762  43.706  30.812  13.793
55234W        W26763  40.488   3.926  11.568
55235W        W26764  32.293  27.994   1.721
55236W        W26765  17.837  25.991  11.675
55237W        W26766  10.704   1.466   9.737
55238W        W26767   0.995   7.742   3.079
55239W        W26768   5.687   1.200   0.473
55240W        W26769  20.591  24.596  10.953
55241W        W26770  36.757   5.482  13.348
55242W        W26771  18.809   5.699  13.526
55243W        W26772  41.386  13.721   1.573
55244W        W26773  21.043   5.020  13.520
55245W        W26774  35.560  26.031  11.504
55246W        W26775  26.143  16.911  12.769
55247W        W26776  21.768  29.286  12.877
55248W        W26777  31.345  34.055  13.406
55249W        W26778  21.601  25.115  12.207
55250W        W26779  24.240  39.916   1.667
55251W        W26780  13.283  25.613  14.755
55252W        W26781  31.570  20.015  12.389
55253W        W26782  40.574  10.337   3.665
55254W        W26783  39.468  21.479   1.866
55255W        W26784   2.794   1.350   4.143
55256W        W26785  14.832  19.016   0.212
55257W        W26786   1.928  42.826   0.889
55258W        W26787  31.488  27.601  14.117
55259W        W26788  38.519   8.661   1.115
55260W        W26789   1.325   0.266  11.126
55261W        W26790  25.185  15.072  13.354
55262W        W26791  27.641  10.618   4.556
55263W        W26792  32.469  38.883  12.838
55264W        W26793  30.831  27.652  13.353
55265W        W26794  36.797  16.768  12.532
55266W        W26795  24.559  43.562  10.798
55267W        W26796   0.567  35.096   1.908
55268W        W26797  17.708  31.176  12.842
55269W        W26798  35.621  13.203  12.560
55270W        W26799   0.742  28.034   2.175
55271W        W26800  43.968  12.152  13.895
55272W        W26801  36.823  39.550   0.868
55273W        W26802  37.407  40.440  13.013
55274W        W26803  30.966  26.468  13.729
55275W        W26804  43.900  26.425   0.853
55276W        W26805   6.336  39.542   0.411
55277W        W26806  40.824  29.492   0.837
55278W        W26807  16.610  31.477   3.305
55279W        W26808   3.974  13.345   2.678
55280W        W26809   2.287  27.534   4.644
55281W        W26810   5.954  22.804  12.040
55282W        W26811  18.652   3.111   3.700
55283W        W26812   3.306   2.278   0.553
55284W        W26813  19.361  44.223   1.734
55285W        W26814  29.543   2.677   1.289
55286W        W26815  11.074  30.997  13.758
55287W        W26816  41.920  28.321  10.600
55288W        W26817  40.838  22.689  12.422
55289W        W26818  27.629   0.014   2.962
55290W        W26819  40.001  11.169  14.820
55291W        W26820   7.016  38.491   1.822
55292W        W26821  22.958  34.922   0.974
55293W        W26822   2.155  15.368   1.899
55294W        W26823  27.957  38.608   0.889
55295W        W26824  42.232   7.684   2.476
55296W        W26825   3.191  32.647   3.533
55297W        W26826  39.368  37.557   0.351
55298W        W26827  35.881   9.819   0.919
55299W        W26828  44.413   1.168   2.454
55300W        W26829  11.068  17.592   3.060
55301W        W26830  42.742  29.472   0.484
55302W        W26831  12.502  39.739   3.336
55303W        W26832  27.082  25.190  14.735
55304W        W26833  41.745   9.586  13.951
55305W        W26834  27.039  30.982  11.347
55306W        W26835  36.590   2.914   4.093
55307W        W26836  25.529  10.296   1.298
55308W        W26837  33.572  29.182   0.926
55309W        W26838   3.179  39.072   4.261
55310W        W26839  43.473   8.674  11.680
55311W        W26840  41.030  37.035  12.309
55312W        W26841  29.523  18.649  14.379
55313W        W26842  44.907  38.294   0.271
55314W        W26843   2.061   6.353  14.844
55315W        W26844   8.374  19.519   0.227
55316W        W26845  21.981  26.559  10.408
55317W        W26846  31.792  43.524  13.537
55318W        W26847  31.074  42.866   1.802
55319W        W26848  37.288  32.986   1.348
55320W        W26849  23.940  10.436  14.355
55321W        W26850  17.938  43.821  12.934
55322W        W26851  23.619  41.786   3.195
55323W        W26852   6.832  19.491  14.842
55324W        W26853  28.682  42.050  11.638
55325W        W26854  40.375  17.069  10.405
55326W        W26855  24.258  31.049   1.354
55327W        W26856  31.505  37.663   1.799
55328W        W26857  18.130   6.645  12.147
55329W        W26858  37.432   5.856   0.665
55330W        W26859  30.657  33.534  14.790
55331W        W26860  44.031   6.409  11.074
55332W        W26861   9.535  38.351  12.645
55333W        W26862  27.483  12.344   3.114
55334W        W26863  17.378   6.999  10.085
55335W        W26864  21.056  31.937  11.076
55336W        W26865  39.195  44.790   2.117
55337W        W26866  44.258  12.320   4.552
55338W        W26867  33.372   9.498   3.142
55339W        W26868  15.556  32.426   0.090
55340W        W26869  36.370  33.643  14.554
55341W        W26870   8.461  18.686   1.924
55342W        W26871  23.151   7.038  14.945
55343W        W26872   1.396  18.252  14.776
55344W        W26873  33.577  22.639   3.540
55345W        W26874  21.795  38.857  11.087
55346W        W26875  12.111  31.126  11.385
55347W        W26876  43.558  11.263   4.188
55348W        W26877  13.273  15.140   2.716
55349W        W26878   7.407  14.631  13.381
55350W        W26879  29.173  12.048   2.894
55351W        W26880   5.883  17.087   1.224
55352W        W26881  19.665  13.311  10.778
55353W        W26882  43.240  20.762   2.440
55354W        W26883   1.818   0.676  14.880
55355W        W26884  25.989  30.208  14.974
55356W        W26885  26.340   9.233  12.007
55357W        W26886  30.938  10.332   0.771
55358W        W26887  30.984  39.253   3.278
55359W        W26888  12.215  16.280   0.424
55360W        W26889  11.425  36.791   4.565
55361W        W26890   4.182  40.599   1.100
55362W        W26891   2.256  12.749   0.025
55363W        W26892  27.385  14.532   0.873
55364W        W26893  31.127  23.119   0.402
55365W        W26894   0.497  41.448  14.586
55366W        W26895  18.243   4.271   2.421
55367W        W26896  14.522  32.429  12.783
55368W        W26897  42.344  24.463   0.588
55369W        W26898  11.292  11.070   1.672
55370W        W26899  35.202  37.362   4.764
55371W        W26900  36.808  43.948  14.867
55372W        W26901  41.060   5.047  12.009
55373W        W26902  17.856   0.737   3.581
55374W        W26903  23.694   0.795  13.589
55375W        W26904  24.698  39.813   2.732
55376W        W26905   7.798  24.604  13.497
55377W        W26906   7.732  15.829   1.984
55378W        W26907  32.592  20.274  10.500
55379W        W26908   9.375  39.977  13.463
55380W        W26909  33.717  13.506   4.817
55381W        W26910   5.649  41.501  12.574
55382W        W26911   1.886  14.895  13.445
55383W        W26912  37.993   0.734   0.440
55384W        W26913  30.578  35.986   2.327
55385W        W26914  14.650  43.285   4.193
55386W        W26915   7.431  15.497   1.722
55387W        W26916  15.286  34.980  11.614
55388W        W26917  18.190  43.097   2.905
55389W        W26918  32.363  26.026  12.891
55390W        W26919  43.532  31.590  13.021
55391W        W26920  12.863  14.139   5.319
55392W        W26921  43.942  31.318   3.711
55393W        W26922  27.519  35.453  11.605
55394W        W26923  38.923  24.600   4.666
55395W        W26924  29.673  36.338  11.148
55396W        W26925  22.106   0.973  10.302
55397W        W26926  35.911   6.271   1.751
55398W        W26927  37.304  40.269   3.198
55399W        W26928   1.282  42.371   2.313
55400W        W26929  20.427   8.897   4.569
55401W        W26930  25.368  35.874   3.641
55402W        W26931  29.189   1.205  11.926
55403W        W26932  32.619  28.522  14.270
55404W        W26933  39.964  15.804   3.192
55405W        W26934  41.058  29.154   3.866
55406W        W26935  36.375  36.118   1.917
55407W        W26936  35.360  33.520  13.441
55408W        W26937  40.568  41.559   3.765
55409W        W26938  14.909   2.875  12.366
55410W        W26939  18.124  20.121   0.573
55411W        W26940  15.711   9.730  14.284
55412W        W26941   7.580  39.291  12.053
55413W        W26942  40.386  25.356   0.839
55414W        W26943  11.361  16.893   1.393
55415W        W26944   3.255  13.330  12.120
55416W        W26945  43.956   1.218   2.728
55417W        W26946  11.212   7.007   4.804
55418W        W26947  42.142  42.900  14.504
55419W        W26948  27.921  18.780   4.733
55420W        W26949  29.134   4.332  11.553
55421W        W26950  30.462  38.937  13.397
55422W        W26951  25.053   4.422   4.282
55423W        W26952  24.558  31.453   1.427
55424W        W26953   9.616  32.008   3.750
55425W        W26954  32.014  27.747   5.200
55426W        W26955  25.909  21.578   2.927
55427W        W26956  22.486   3.298   3.622
55428W        W26957  11.711  38.947  11.974
55429W        W26958  16.369  38.495   1.245
55430W        W26959  26.225   9.562   1.957
55431W        W26960  25.561  12.886  10.705
55432W        W26961   0.393  14.767   4.106
55433W        W26962   8.194   0.087  11.620
55434W        W26963  31.763  38.782   4.990
55435W        W26964  35.812  26.559  11.603
55436W        W26965  11.288  41.372  12.796
55437W        W26966  19.108  44.231   3.721
55438W        W26967  24.465  33.327   1.017
55439W        W26968  24.718  37.354   2.181
55440W        W26969  36.597   4.427  12.483
55441W        W26970  26.492  43.875   1.831
55442W        W26971  14.926  35.380  11.604
55443W        W26972  29.691  31.541  13.511
55444W        W26973   1.265  31.351   2.920
55445W        W26974   0.041   8.542   0.152
55446W        W26975   3.421  38.337  10.739
55447W        W26976  22.196   1.829  14.087
55448W        W26977  40.671   4.685  12.016
55449W        W26978  25.757  40.191  10.744
55450W        W26979  33.204  29.703   1.270
55451W        W26980  36.155   2.398   2.856
55452W        W26981  34.858  38.310  11.401
55453W        W26982  18.800   0.240   4.197
55454W        W26983  16.294  27.612  10.759
55455W        W26984  18.149  27.957  10.695
55456W        W26985   1.245  35.161   4.933
55457W        W26986  34.331   2.296   4.753
55458W        W26987  14.186   4.195   2.405
55459W        W26988   2.377  33.180   3.629
55460W        W26989   6.339  39.720   1.144
55461W        W26990  23.516  43.942  11.926
55462W        W26991  13.865  23.690  13.489
55463W        W26992  35.817  34.063  10.781
55464W        W26993  10.863  44.733  12.122
55465W        W26994  29.026   7.490  14.648
55466W        W26995  16.479   6.450  11.075
55467W        W26996  29.136  42.248  14.924
55468W        W26997  13.203  38.855  11.197
55469W        W26998  44.233  17.159   1.247
55470W        W26999   0.347  37.571   3.754
55471W        W27000  32.445  28.459   2.901
55472W        W27001  44.486  13.696   1.281
55473W        W27002  15.531  16.721  13.482
55474W        W27003  35.944  39.497   3.719
55475W        W27004   5.465  29.552   1.228
55476W        W27005  12.281  21.059  12.913
55477W        W27006  37.978   1.532  13.992
55478W        W27007   6.377  19.405  11.557
55479W        W27008  34.641  18.049  13.772
55480W        W27009  18.069  39.221   0.952
55481W        W27010  28.794  14.074  12.508
55482W        W27011   7.888  16.643  14.448
55483W        W27012   5.602   0.030  11.181
55484W        W27013   7.979  39.582   1.740
55485W        W27014  12.125  27.834  13.629
55486W        W27015   0.820  33.467  11.101
55487W        W27016   4.625  33.528  11.964
55488W        W27017  29.464  18.589   0.900
55489W        W27018  31.669   5.725   2.377
55490W        W27019   0.989  28.073   0.827
55491W        W27020  26.041  43.249   0.713
55492W        W27021  37.785  40.772  13.375
55493W        W27022  44.972  30.531  11.842
55494W        W27023   1.395  18.583   0.963
55495W        W27024   1.416  21.698  10.448
55496W        W27025   4.713  41.543   4.557
55497W        W27026   8.940  29.189  10.022
55498W        W27027  27.638  35.455   0.297
55499W        W27028  43.910  41.314   0.431
55500W        W27029  17.327  41.581  13.970
55501W        W27030  35.415  19.592  11.526
55502W        W27031  14.136  12.135   2.490
55503W        W27032  30.463  42.305  13.783
55504W        W27033  25.016  12.874   2.253
55505W        W27034  44.367   4.367  12.925
55506W        W27035  20.942  24.988  10.898
55507W        W27036   1.745   9.165  14.592
55508W        W27037   1.064   3.317  10.998
55509W        W27038  35.283  26.230  14.737
55510W        W27039  41.179  12.587  11.356
55511W        W27040  17.178  43.388  12.082
55512W        W27041  41.777  27.409   1.007
55513W        W27042  14.608   8.182   3.656
55514W        W27043  21.025  30.916  11.213
55515W        W27044  14.823  17.004   4.176
55516W        W27045  17.183  11.658   1.743
55517W        W27046  10.654  33.006   2.889
55518W        W27047  19.031  33.073   2.460
55519W        W27048  17.005  14.102   3.789
55520W        W27049   9.237  37.588   0.491
55521W        W27050  43.630  10.142   2.089
55522W        W27051  25.916  17.090  12.093
55523W        W27052  19.738  44.611   0.979
55524W        W27053  44.348   5.505   0.932
55525W        W27054  21.083  32.173  11.540
55526W        W27055  41.667   7.342  10.357
55527W        W27056  25.731   6.708  14.184
55528W        W27057  22.450  17.138  14.755
55529W        W27058   6.398  42.013   1.695
55530W        W27059  37.914   3.879  13.806
55531W        W27060  12.169   8.813   0.921
55532W        W27061   5.648   4.934  14.252
55533W        W27062  27.360  10.827   4.180
55534W        W27063  18.765  12.312   2.329
55535W        W27064  19.766   7.348  14.926
55536W        W27065  20.739  42.287   2.782
55537W        W27066  35.921  44.703   1.684
55538W        W27067  40.603  29.887  10.511
55539W        W27068   0.430  30.541  12.962
55540W        W27069   3.484  36.081  12.935
55541W        W27070  28.190  23.627  12.516
55542W        W27071  35.847   9.609  11.113
55543W        W27072  35.017  40.295   4.435
55544W        W27073  19.020  13.870  12.973
55545W        W27074  28.214  21.139   1.037
55546W        W27075   8.370  35.306  13.798
55547W        W27076  17.133  35.871   2.478
55548W        W27077  26.679  29.366  10.988
55549W        W27078  19.645  15.670   3.664
55550W        W27079  35.778  37.004   3.208
55551W        W27080   4.717  17.560  12.463
55552W        W27081  24.642  43.318  12.573
55553W        W27082  43.499   7.012  14.997
55554W        W27083  32.588  19.289  14.830
55555W        W27084   6.773  39.057  12.514
55556W        W27085  40.173  31.913   3.593
55557W        W27086   2.148   5.860  14.571
55558W        W27087  31.937  40.325  13.915
55559W        W27088  29.567  11.640   2.872
55560W        W27089  32.976  40.622  11.325
55561W        W27090   8.267  27.508  13.410
55562W        W27091   6.899  41.552   0.204
55563W        W27092  14.780  12.946   4.127
55564W        W27093  32.429  18.466  12.559
55565W        W27094  31.823  29.454   2.711
55566W        W27095  26.620  18.116  10.855
55567W        W27096  15.746  10.006   4.054
55568W        W27097  28.103  37.291   1.828
55569W        W27098  14.311  30.944  13.386
55570W        W27099  37.866  19.529  12.081
55571W        W27100  13.403  41.362  12.111
55572W        W27101  32.021  33.549  14.763
55573W        W27102   4.770  39.044   3.269
55574W        W27103  10.196   9.078   1.843
55575W        W27104  37.870  41.855   3.525
55576W        W27105  38.853   3.801   1.035
55577W        W27106  16.600  13.400  10.658
55578W        W27107  41.127  24.105   0.667
55579W        W27108  19.703  24.802   2.367
55580W        W27109   7.931  35.060  11.596
55581W        W27110  20.695  24.937   1.151
55582W        W27111   2.367  36.313  11.482
55583W        W27112  40.505  22.651  10.669
55584W        W27113  41.946  31.123  12.432
55585W        W27114  39.002   4.413  10.226
55586W        W27115   9.401  38.599  14.726
55587W        W27116   7.862  34.416  13.801
55588W        W27117  10.567  30.379  13.923
55589W        W27118   2.395  27.420   1.754
55590W        W27119  12.874  15.072  14.639
55591W        W27120  17.212  18.145   0.256
55592W        W27121  34.969   8.427   0.244
55593W        W27122  22.751  22.294   4.538
55594W        W27123  44.326   1.817  11.891
55595W        W27124   1.798  40.997   2.895
55596W        W27125  14.284  11.151   1.087
55597W        W27126  10.354  30.986  11.993
55598W        W27127  21.540  13.494   2.398
55599W        W27128  27.684  15.714  13.845
55600W        W27129  38.829   5.704   3.857
55601W        W27130  20.624  13.770   3.688
55602W        W27131  34.504  22.630   2.339
55603W        W27132  36.462   3.337   5.098
55604W        W27133   4.395  13.089   0.970
55605W        W27134  21.337  28.985  12.860
55606W        W27135  37.283  39.767   3.306
55607W        W27136  13.795  26.754   1.888
55608W        W27137  24.101  11.864  14.806
55609W        W27138   9.129  10.162  12.829
55610W        W27139  14.196  13.837   5.006
55611W        W27140  16.215  29.395   0.741
55612W        W27141  26.079   3.086  10.510
55613W        W27142   3.428  26.159   1.098
55614W        W27143  16.210   2.825  13.875
55615W        W27144   7.598  10.669  10.970
55616W        W27145  17.198  19.620  14.121
55617W        W27146  25.808   3.952   3.670
55618W        W27147  39.062  24.632   3.693
55619W        W27148  15.649  43.711  12.133
55620W        W27149  14.506  24.093   0.879
55621W        W27150  22.260  29.230  12.050
55622W        W27151   2.805  43.866   2.197
55623W        W27152  23.500  33.817  13.009
55624W        W27153   7.369  13.783   4.816
55625W        W27154  25.692  36.084   4.720
55626W        W27155  41.011  15.934  13.420
55627W        W27156   1.799  15.291   2.873
55628W        W27157   6.718  11.398   4.673
55629W        W27158  28.919   8.214   2.795
55630W        W27159   2.105  26.238  10.851
55631W        W27160   5.797  31.396  11.402
55632W        W27161  37.906  25.655   2.774
55633W        W27162  32.583  17.006  11.490
55634W        W27163   2.734  13.644   4.465
55635W        W27164  11.154   1.934   3.237
55636W        W27165  19.130  25.507  13.129
55637W        W27166  16.896  42.226  12.589
55638W        W27167  43.423  12.674   1.348
55639W        W27168  11.727  39.051   4.248
55640W        W27169   1.036  34.647  14.325
55641W        W27170   9.917  38.629   1.607
55642W        W27171  41.552  14.600  11.858
55643W        W27172  36.854  22.506  10.486
55644W        W27173  32.620   8.812   4.290
55645W        W27174  36.967  24.274   2.759
55646W        W27175  30.096  24.239  10.668
55647W        W27176  36.953  23.648  13.510
55648W        W27177  28.724  21.272  14.591
55649W        W27178  37.583  42.793  14.888
55650W        W27179  38.363  36.347   3.711
55651W        W27180  35.532  39.402  10.749
55652W        W27181  34.493  10.993  12.448
55653W        W27182  37.007  23.555   3.496
55654W        W27183  31.951  41.283  12.864
55655W        W27184  13.265  22.791   0.363
55656W        W27185  22.710  40.474  14.106
55657W        W27186  11.543  39.337   2.281
55658W        W27187  29.543  16.263  12.085
55659W        W27188  13.645  13.046   4.946
55660W        W27189  12.428  42.245   2.009
55661W        W27190   3.802  44.936  13.546
55662W        W27191  27.600  31.368   1.738
55663W        W27192  26.469  19.945   0.028
55664W        W27193   1.322  19.564   1.918
55665W        W27194  10.371  13.774  11.617
55666W        W27195  28.653  20.005  13.952
55667W        W27196  36.847  23.593  10.439
55668W        W27197  40.347  32.627   0.225
55669W        W27198  35.876   3.397  13.000
55670W        W27199  16.483  15.381   4.032
55671W        W27200   2.461   4.239  11.636
55672W        W27201  34.148  14.814   3.886
55673W        W27202  28.368  32.625   4.137
55674W        W27203  30.159  38.428   0.502
55675W        W27204  33.900   7.719   3.973
55676W        W27205  25.209  17.928  12.424
55677W        W27206   5.181   0.314   1.305
55678W        W27207  42.380   0.502   4.691
55679W        W27208  39.409  23.210   3.895
55680W        W27209  30.766  33.244   4.022
55681W        W27210  15.979   5.936   4.857
55682W        W27211  10.079   8.572   1.954
55683W        W27212  19.934  36.723  11.504
55684W        W27213  32.351   1.446   4.252
55685W        W27214  10.197  12.856   0.676
55686W        W27215   7.641  28.120  12.464
55687W        W27216  26.069  41.747  12.516
55688W        W27217  14.527   1.771  13.555
55689W        W27218  30.628  37.050   3.865
55690W        W27219  27.787  29.474   1.750
55691W        W27220   5.288  27.935   0.978
55692W        W27221  25.111   1.960   2.787
55693W        W27222   2.305  43.504   1.859
55694W        W27223  12.636  31.766  13.816
55695W        W27224   1.816  31.428  11.219
55696W        W27225  29.350  41.991   4.489
55697W        W27226   6.161  26.170   0.823
55698W        W27227  15.886  34.962   4.297
55699W        W27228   7.956  26.803  10.374
55700W        W27229   5.713  20.734   2.911
55701W        W27230  42.098   5.613  12.066
55702W        W27231  35.111  41.931   0.217
55703W        W27232  38.544  19.707   4.958
55704W        W27233  29.095   1.473  14.750
55705W        W27234  25.071   9.463  12.957
55706W        W27235  29.012  43.145   1.898
55707W        W27236   1.801  28.916  13.856
55708W        W27237  33.665  34.585   4.575
55709W        W27238  33.879   9.061  12.208
55710W        W27239   0.225  41.721   3.985
55711W        W27240   4.429  23.552   0.479
55712W        W27241   9.539  14.591  10.695
55713W        W27242  42.702  29.577  14.974
55714W        W27243  35.048   9.651   1.316
55715W        W27244  15.050  33.942  11.611
55716W        W27245  12.335  23.032  14.376
55717W        W27246   5.988  34.545   1.768
55718W        W27247  19.554  26.968  13.511
55719W        W27248   8.905  13.429  12.844
55720W        W27249  31.066  20.063   0.409
55721W        W27250  10.125  17.884   3.897
55722W        W27251  29.133  22.666  11.200
55723W        W27252  13.202  28.394  14.262
55724W        W27253  16.198  33.510   1.919
55725W        W27254   8.749  22.235   2.412
55726W        W27255  37.831  37.628   4.979
55727W        W27256  41.793  17.930  14.458
55728W        W27257  44.868  28.516   4.594
55729W        W27258  10.372  17.870  11.459
55730W        W27259  26.455  17.665   2.161
55731W        W27260  26.025  10.259  12.944
55732W        W27261  32.379  21.746  13.383
55733W        W27262   2.688  33.442   2.257
55734W        W27263  14.752  39.996  13.846
55735W        W27264   6.875   9.177   0.848
55736W        W27265  19.295   7.852  10.766
55737W        W27266  27.482   5.890   0.321
55738W        W27267  39.520  17.974  11.583
55739W        W27268  30.116  35.401  12.696
55740W        W27269  41.430  27.064   1.694
55741W        W27270  11.108  15.635   1.810
55742W        W27271   6.911  33.584  10.637
55743W        W27272  32.851  34.356  11.901
55744W        W27273   9.060  21.851  11.293
55745W        W27274  18.339  17.479   4.590
55746W        W27275  25.358  16.327  14.564
55747W        W27276  31.550  22.726   1.800
55748W        W27277  44.435   9.748   1.421
55749W        W27278  29.902   6.251   4.161
55750W        W27279  11.754  39.639   1.706
55751W        W27280   5.246  11.315   0.059
55752W        W27281   0.943  31.431  13.039
55753W        W27282  12.333  12.098   3.716
55754W        W27283  28.430  30.830  12.955
55755W        W27284   6.413  30.606   4.163
55756W        W27285  36.268  37.343   3.618
55757W        W27286  18.690   3.780  12.517
55758W        W27287  13.249  38.347  11.108
55759W        W27288  27.467  37.570  11.537
55760W        W27289  35.705  37.377  14.344
55761W        W27290  20.661  16.483   2.957
55762W        W27291  23.354  32.984  10.973
55763W        W27292   3.430   7.623  11.167
55764W        W27293  18.825  16.665   1.226
55765W        W27294  44.488  27.449  12.905
55766W        W27295  12.656  25.868  11.114
55767W        W27296  26.474  14.443  14.876
55768W        W27297  25.153  11.219  11.236
55769W        W27298  25.784  44.438   1.119
55770W        W27299   1.069  13.812  13.809
55771W        W27300  30.493  43.732  14.485
55772W        W27301  20.626  43.563  10.717
55773W        W27302   4.313  43.365   2.620
55774W        W27303  42.484  42.952  14.877
55775W        W27304  22.795  25.575  13.144
55776W        W27305  10.875  39.088   4.721
55777W        W27306  34.195   4.378  11.187
55778W        W27307   3.787  36.131  11.245
55779W        W27308  11.899  15.606   2.207
55780W        W27309   1.786  44.370   1.054
55781W        W27310  22.377  27.106  11.690
55782W        W27311  11.773  43.988   1.914
55783W        W27312  16.844  29.910   4.601
55784W        W27313  40.230  18.759  10.751
55785W        W27314   0.271  10.580   4.334
55786W        W27315  13.697  31.103  12.816
55787W        W27316  13.810  43.635  14.286
55788W        W27317  29.376  39.856  13.314
55789W        W27318  36.579  17.158  13.231
55790W        W27319  25.510   0.160   2.658
55791W        W27320  30.967  36.046  14.447
55792W        W27321  27.513  16.068   2.684
55793W        W27322   2.948  26.044   0.917
55794W        W27323  41.112  25.016  10.615
55795W        W27324  11.206   2.453   3.341
55796W        W27325  18.102  26.550  10.101
55797W        W27326   4.215  30.688   3.283
55798W        W27327  14.810   8.286  11.914
55799W        W27328  22.159   1.412  10.577
55800W        W27329  13.714   8.421   3.639
55801W        W27330  40.574  37.024  11.321
55802W        W27331   2.287   3.791  11.910
55803W        W27332  21.606  25.802   0.004
55804W        W27333  21.540  18.400  12.856
55805W        W27334  24.507   7.768   4.053
55806W        W27335   8.889   9.823   1.633
55807W        W27336  35.148  38.579  10.702
55808W        W27337  27.498   8.231  13.224
55809W        W27338  24.642   3.281  10.766
55810W        W27339  43.573  33.757   2.668
55811W        W27340  25.697  14.568   0.484
55812W        W27341  17.302  10.814  13.049
55813W        W27342  42.412  36.676   2.908
55814W        W27343   0.704  33.122   4.135
55815W        W27344  18.651  38.233   0.243
55816W        W27345  22.616  25.216   1.410
55817W        W27346  14.845  29.626   1.662
55818W        W27347  31.406  32.689  10.678
55819W        W27348  23.482  28.037   3.794
55820W        W27349  15.072  21.712  13.317
55821W        W27350  24.402  26.120  11.275
55822W        W27351  16.101  20.006   0.422
55823W        W27352  23.844   6.643  12.156
55824W        W27353  16.437  14.474  12.005
55825W        W27354  16.500  27.153  10.565
55826W        W27355  12.624   3.458  13.454
55827W        W27356  44.847  14.445   0.322
55828W        W27357  29.974   9.126   1.662
55829W        W27358  15.157  19.913   1.367
55830W        W27359  18.625  40.936   2.984
55831W        W27360  15.129  36.620  13.557
55832W        W27361  37.024  28.416   3.211
55833W        W27362   8.177  23.901  14.935
55834W        W27363   6.993  21.728  14.398
55835W        W27364  43.508  28.746  11.547
55836W        W27365  15.009  32.668  12.832
55837W        W27366  43.780  28.854  11.991
55838W        W27367  42.786  28.365   3.663
55839W        W27368  41.706   6.971   3.178
55840W        W27369  13.421  34.158   0.618
55841W        W27370   7.147  33.856   3.307
55842W        W27371   5.728  16.617  12.375
55843W        W27372  38.902  15.843   1.195
55844W        W27373  15.305  37.003  14.555
55845W        W27374   7.450  25.930  13.014
55846W        W27375  16.180   2.422   2.339
55847W        W27376   7.434  10.764   4.537
55848W        W27377  32.281   2.978   3.305
55849W        W27378  35.511   2.325   0.749
55850W        W27379   4.866  29.690   2.082
55851W        W27380  20.132  44.999  10.853
55852W        W27381   2.760  44.770   0.893
55853W        W27382  16.727  12.342   2.184
55854W        W27383  44.232   9.731   4.197
55855W        W27384  36.007  43.394   4.360
55856W        W27385  44.263  39.773  12.532
55857W        W27386  32.074  22.449  11.586
55858W        W27387  20.517  12.873   1.297
55859W        W27388   5.741   1.991  11.074
55860W        W27389   1.776  41.405  13.468
55861W        W27390   7.918   2.632  11.573
55862W        W27391  34.827  27.047   1.151
55863W        W27392  27.615  33.059   0.202
55864W        W27393  37.534   3.563  12.409
55865W        W27394  30.436   6.971  14.877
55866W        W27395  33.559  32.661   1.923
55867W        W27396   4.467  33.876   1.243
55868W        W27397   0.504   9.176  12.930
55869W        W27398  38.833   4.308   3.989
55870W        W27399  18.584  10.901  14.345
55871W        W27400   4.226  23.823   0.862
55872W        W27401  15.662  36.903   2.841
55873W        W27402  18.600  36.534  13.877
55874W        W27403  12.714  11.304   1.758
55875W        W27404  21.990  43.944  12.459
55876W        W27405  28.672   7.115  12.873
55877W        W27406  13.998   3.328   4.791
55878W        W27407  35.832   3.180   0.459
55879W        W27408  12.189  24.020   0.526
55880W        W27409  20.210  36.913   1.808
55881W        W27410  11.096   6.210   2.277
55882W        W27411  40.180  44.671   2.080
55883W        W27412  19.234   1.810   3.674
55884W        W27413  33.915  15.174   3.159
55885W        W27414  12.376  30.001  14.713
55886W        W27415   2.516  18.699  13.361
55887W        W27416  36.601   9.422  10.704
55888W        W27417  29.967   8.467  14.410
55889W        W27418  18.624  33.081   2.130
55890W        W27419  38.457   9.845   0.612
55891W        W27420   8.963  33.527  13.306
55892W        W27421  13.677  27.652  10.523
55893W        W27422  43.409  35.850  10.987
55894W        W27423   5.355  16.260  14.909
55895W        W27424  32.415   3.734   4.743
55896W        W27425   1.074  11.818  14.528
55897W        W27426   5.958  35.640   4.504
55898W        W27427  30.756  10.057  10.236
55899W        W27428  21.625  31.119   1.288
55900W        W27429   8.792  22.008   1.098
55901W        W27430  15.794  28.404   2.256
55902W        W27431  35.658   9.183   3.590
55903W        W27432  33.085  26.562   1.456
55904W        W27433  31.510  16.811   3.824
55905W        W27434  10.343  40.117  10.866
55906W        W27435  11.001  35.086  11.957
55907W        W27436  21.847  19.091  13.384
55908W        W27437  15.582   3.889   2.745
55909W        W27438  18.981   0.628  11.136
55910W        W27439  30.658  35.881  11.131
55911W        W27440  28.554  27.082  13.482
55912W        W27441  16.093  31.746  12.095
55913W        W27442  18.800  35.833  14.583
55914W        W27443  25.972  16.648  12.362
55915W        W27444  11.613  27.119  11.085
55916W        W27445  36.546  40.495   1.740
55917W        W27446  28.812  13.100  14.807
55918W        W27447  32.649  33.485  12.948
55919W        W27448  35.830  24.148  11.075
55920W        W27449   4.854   1.997   2.250
55921W        W27450   2.743  32.403   1.688
55922W        W27451   8.439  15.860   2.697
55923W        W27452  37.401   4.809   2.325
55924W        W27453   3.879  11.090   3.293
55925W        W27454   4.939  12.521  13.927
55926W        W27455  17.946  25.983  12.183
55927W        W27456  13.347   9.849  12.991
55928W        W27457  34.587  34.060  14.359
55929W        W27458   7.737  17.351  13.341
55930W        W27459   2.079  35.954   2.782
55931W        W27460   8.678  27.256  14.978
55932W        W27461  29.194  31.084   4.118
55933W        W27462  38.515  24.701   0.356
55934W        W27463  20.267  26.218   4.513
55935W        W27464   4.950  42.068  12.131
55936W        W27465   0.633  29.826  13.379
55937W        W27466   8.412   2.794  10.804
55938W        W27467  13.449  27.517   1.695
55939W        W27468  19.211  35.789   1.187
55940W        W27469  14.665  44.679  11.394
55941W        W27470  29.513  26.113  11.983
55942W        W27471  40.377  15.109   3.325
55943W        W27472  16.072  24.662   0.242
55944W        W27473   4.364  43.928   4.516
55945W        W27474  44.000  30.982  14.668
55946W        W27475  14.340  21.111  12.964
55947W        W27476  32.033   6.698  12.918
55948W        W27477  20.249  16.045  11.336
55949W        W27478  35.667  44.081   4.188
55950W        W27479  17.374  38.661   4.638
55951W        W27480  21.609  12.792   2.877
55952W        W27481  24.134   3.836   1.861
55953W        W27482  27.519  15.572   2.839
55954W        W27483  29.536  28.278  12.892
55955W        W27484  36.377  25.439  12.188
55956W        W27485  35.238  43.788   2.356
55957W        W27486   7.509  38.559   0.842
55958W        W27487  25.093  22.385   2.769
55959W        W27488  31.083  15.540   2.574
55960W        W27489   8.454  27.053   3.421
55961W        W27490  29.616  13.420  14.381
55962W        W27491  16.261  18.888   3.831
55963W        W27492  10.203  19.586   0.951
55964W        W27493  39.497   1.001  14.632
55965W        W27494  27.678  11.638   0.375
55966W        W27495  41.288  27.905  12.515
55967W        W27496  10.871  11.075   1.245
55968W        W27497  12.976  25.209   3.005
55969W        W27498  34.350  42.172  11.935
55970W        W27499  40.360   3.651  12.908
55971W        W27500   5.423   3.402  10.147
55972W        W27501  43.508  34.079   1.634
55973W        W27502  19.088  22.967  13.859
55974W        W27503  30.298  32.090   1.522
55975W        W27504  35.376  27.453   3.217
55976W        W27505   2.953  11.379  14.025
55977W        W27506  17.649  33.069  14.281
55978W        W27507  42.035   9.667  11.947
55979W        W27508  41.066  36.493  12.488
55980W        W27509   6.899   8.610  11.500
55981W        W27510   3.785  34.055   4.460
55982W        W27511  12.574  20.188  13.359
55983W        W27512   4.244  39.698  11.124
55984W        W27513  25.392  17.233  12.985
55985W        W27514  30.653  37.136  12.489
55986W        W27515  24.174  12.834   0.331
55987W        W27516  19.898  37.113   2.735
55988W        W27517  25.990  40.849   3.542
55989W        W27518  14.234  15.050  12.062
55990W        W27519   0.949  19.092  10.446
55991W        W27520  39.361  42.176  14.482
55992W        W27521   2.460   2.338  11.714
55993W        W27522  35.297  38.922   2.910
55994W        W27523  23.101  29.682   0.517
55995W        W27524  41.007  19.477   4.617
55996W        W27525  36.591  32.057  12.959
55997W        W27526  40.462  36.323  13.630
55998W        W27527  39.563  30.125  12.062
55999W        W27528  43.760  33.059  14.489
56000W        W27529  10.150  29.110  14.540
56001W        W27530  13.604  14.675  14.225
56002W        W27531   0.938  14.593   4.932
56003W        W27532  12.386   2.314   1.712
56004W        W27533  14.962   9.673  12.042
56005W        W27534  12.228  30.388  10.729
56006W        W27535  25.486   9.785  12.839
56007W        W27536  14.718  31.090  13.047
56008W        W27537   5.060   4.968  12.507
56009W        W27538  17.671  15.139  12.088
56010W        W27539  38.995  28.557   3.249
56011W        W27540  34.324  24.649  12.045
56012W        W27541  29.538  30.501   4.624
56013W        W27542   1.568   3.283   4.180
56014W        W27543  44.475  42.459   0.050
56015W        W27544  11.177   7.593   0.410
56016W        W27545  35.032  27.115   2.695
56017W        W27546   5.293  44.091   4.167
56018W        W27547  30.131  11.829  12.426
56019W        W27548   7.783  39.301   4.224
56020W        W27549  29.893  27.445  10.748
56021W        W27550  33.106  28.146   4.340
56022W        W27551  42.299   3.839   3.668
56023W        W27552  19.560  21.829  13.047
56024W        W27553   0.554  17.276   1.674
56025W        W27554  12.180  23.054  12.111
56026W        W27555  31.635  31.572   1.278
56027W        W27556  27.065   8.129   3.685
56028W        W27557  32.956   7.746   1.881
56029W        W27558  22.667  10.631  10.435
56030W        W27559  10.391  34.209   9.900
56031W        W27560   6.851   3.987   4.100
56032W        W27561  44.752  16.280  12.917
56033W        W27562  25.976  10.361  14.806
56034W        W27563   0.266  36.395   0.230
56035W        W27564  16.783   7.980  13.357
56036W        W27565  12.481   1.048   5.407
56037W        W27566  12.647  40.297   2.396
56038W        W27567   1.696  16.605  13.793
56039W        W27568  34.813  29.434  12.944
56040W        W27569   8.934  38.011   2.998
56041W        W27570  30.936  36.003  13.412
56042W        W27571  13.308  18.670   3.663
56043W        W27572   7.945  16.980   5.034
56044W        W27573  43.450   3.859   2.374
56045W        W27574  13.671   2.638  14.462
56046W        W27575  43.000  37.391  12.880
56047W        W27576  35.342   8.860   1.219
56048W        W27577   8.838   2.970  12.496
56049W        W27578  12.200  19.914   2.858
56050W        W27579  37.043  34.853  11.478
56051W        W27580  16.241  40.575  11.094
56052W        W27581   9.916  18.803  11.534
56053W        W27582  35.377   4.857   1.962
56054W        W27583  17.633  14.354   4.772
56055W        W27584  30.170  18.506   0.402
56056W        W27585  14.303  27.210  10.743
56057W        W27586  15.765  24.168   9.806
56058W        W27587  13.745  37.932   1.736
56059W        W27588  29.112  16.656  12.156
56060W        W27589  23.246  35.002   3.430
56061W        W27590  42.476  41.742   4.815
56062W        W27591  36.923  33.606  14.939
56063W        W27592  43.444  14.494   3.657
56064W        W27593  30.413  32.574  13.952
56065W        W27594  21.306  14.178   3.657
56066W        W27595  26.213   5.796  12.346
56067W        W27596  43.821  25.953  12.631
56068W        W27597  11.931  41.862   4.280
56069W        W27598  34.036  37.982   2.710
56070W        W27599  38.211  33.855  11.820
56071W        W27600  11.897   6.444   1.889
56072W        W27601   1.536  37.959   2.075
56073W        W27602  36.803  32.854  13.041
56074W        W27603  21.074  22.048   1.195
56075W        W27604  32.677  35.763   2.132
56076W        W27605  13.304  17.040   1.380
56077W        W27606  27.629   8.709  10.685
56078W        W27607  37.167  44.425  11.560
56079W        W27608  33.667  38.515  14.489
56080W        W27609   5.335  40.005  13.922
56081W        W27610   2.345  10.735   2.668
56082W        W27611  17.137  18.262   4.172
56083W        W27612  28.966  16.171  13.508
56084W        W27613  14.687   6.840   4.513
56085W        W27614   8.364  21.872   2.335
56086W        W27615  25.268   0.902  12.048
56087W        W27616  38.538   8.817  11.071
56088W        W27617   7.350  28.871  12.596
56089W        W27618   4.807   6.967   3.369
56090W        W27619  16.311  40.745  13.831
56091W        W27620  18.311   5.669   2.761
56092W        W27621  19.211  30.646  14.847
56093W        W27622  11.930  28.184   1.109
56094W        W27623   6.165   7.830   4.860
56095W        W27624   5.617  25.665  11.184
56096W        W27625  39.006  36.341   3.315
56097W        W27626  10.172  13.690  13.997
56098W        W27627  44.722   4.449   3.850
56099W        W27628  11.859  19.830  13.361
56100W        W27629  34.017   0.668   0.329
56101W        W27630   4.438  17.678  12.900
56102W        W27631   5.200  14.769  13.701
56103W        W27632   2.977   3.462   3.993
56104W        W27633  10.235   5.965   3.476
56105W        W27634  35.556  26.725   1.295
56106W        W27635   0.894  30.010  14.153
56107W        W27636  24.567  15.345  13.815
56108W        W27637   2.977  14.967  11.028
56109W        W27638  36.658   6.361   4.221
56110W        W27639  43.322   7.182  13.477
56111W        W27640  36.071   4.047   3.315
56112W        W27641   0.201  17.619  10.731
56113W        W27642  18.664   3.193  11.562
56114W        W27643   7.414  32.390  12.228
56115W        W27644  43.961  36.220  14.216
56116W        W27645  12.419   3.276  13.897
56117W        W27646  27.006  42.982  14.612
56118W        W27647  22.771  27.075   0.370
56119W        W27648  36.914   9.705   0.602
56120W        W27649  41.706   4.658   3.572
56121W        W27650   6.498  27.060  11.037
56122W        W27651  33.506   3.145   0.832
56123W        W27652  39.433  21.677  12.770
56124W        W27653   2.949   0.355   4.039
56125W        W27654  37.556  30.452  11.255
56126W        W27655  23.641  42.595   5.226
56127W        W27656  42.339  27.814  14.846
56128W        W27657  38.522  25.900   0.836
56129W        W27658   0.771  16.883  12.296
56130W        W27659  26.043  20.150  14.484
56131W        W27660  29.021  42.857   1.449
56132W        W27661  44.973  21.310  14.762
56133W        W27662  27.924   4.224   4.111
56134W        W27663   0.085   5.799   3.844
56135W        W27664   9.220  41.603  13.493
56136W        W27665  32.120  25.649  14.828
56137W        W27666  26.192  31.603  10.319
56138W        W27667   2.997  37.552  12.993
56139W        W27668  10.193  22.019   4.381
56140W        W27669  23.724  29.666  11.951
56141W        W27670  31.948   0.199  12.420
56142W        W27671  35.907  37.919   2.399
56143W        W27672  17.479  18.108  11.008
56144W        W27673  23.126  38.640  11.535
56145W        W27674   4.939   5.786  12.046
56146W        W27675  43.727  38.763  11.737
56147W        W27676   0.416  12.731   4.117
56148W        W27677  30.694  38.011  14.474
56149W        W27678  34.383  19.238   2.693
56150W        W27679  44.429  16.634   3.774
56151W        W27680  10.184  11.305   3.235
56152W        W27681  21.464  10.298  10.483
56153W        W27682  42.458   9.654  10.659
56154W        W27683  10.680   7.388   3.781
56155W        W27684   4.436  23.085  11.940
56156W        W27685  19.727  16.483   2.923
56157W        W27686  39.005  29.925   1.340
56158W        W27687   1.481  26.694   4.552
56159W        W27688   9.270  33.198  10.845
56160W        W27689  18.654  31.900   0.921
56161W        W27690  17.186  12.754   1.702
56162W        W27691  13.269  37.099   0.239
56163W        W27692  14.791  12.620   2.128
56164W        W27693  34.878  23.227  14.268
56165W        W27694   3.919   7.352  14.788
56166W        W27695  38.236  41.983   2.391
56167W        W27696  39.286  27.537  14.819
56168W        W27697  10.315  12.974  14.673
56169W        W27698  41.466  22.333  12.124
56170W        W27699  31.776  11.217   3.312
56171W        W27700  25.256  12.327   3.147
56172W        W27701  44.314  37.074  10.616
56173W        W27702   0.562  29.320   4.180
56174W        W27703  14.355  31.145  10.661
56175W        W27704  33.128  24.809   0.938
56176W        W27705  10.084  26.542  11.769
56177W        W27706  37.985  41.588   1.236
56178W        W27707  20.142  38.048  11.539
56179W        W27708   9.472  16.770  12.846
56180W        W27709  12.139   5.362   3.807
56181W        W27710  27.950  15.425  11.525
56182W        W27711  29.688  36.909   4.654
56183W        W27712  13.738  13.610  12.443
56184W        W27713  36.421  44.513   0.948
56185W        W27714  20.771  22.237  12.592
56186W        W27715   0.338   9.616   1.342
56187W        W27716   6.957  34.826   0.466
56188W        W27717  22.790  31.665   4.184
56189W        W27718  19.310  30.984   3.854
56190W        W27719   6.376   0.236  11.237
56191W        W27720  30.857  25.154  13.989
56192W        W27721  26.608  15.516   1.780
56193W        W27722  36.868  21.794  13.013
56194W        W27723   8.785  32.990   4.606
56195W        W27724  29.025  32.725   1.859
56196W        W27725  26.201  13.044  11.561
56197W        W27726  23.165  41.411  10.475
56198W        W27727  38.422  25.589   2.871
56199W        W27728  31.121   1.302  12.020
56200W        W27729  37.783   2.453   1.791
56201W        W27730  21.382  23.143  13.162
56202W        W27731   3.898  43.840   2.070
56203W        W27732  21.719  23.031  13.785
56204W        W27733   4.469  43.038   1.953
56205W        W27734   8.648  23.075  14.757
56206W        W27735  19.742  29.154  12.518
56207W        W27736  11.782  22.912   1.871
56208W        W27737  24.221  41.410  13.386
56209W        W27738  26.753   6.008  13.064
56210W        W27739  14.455  16.613   0.119
56211W        W27740  42.742  40.889  14.792
56212W        W27741   8.615   7.167   1.775
56213W        W27742  19.093  30.289  12.120
56214W        W27743  29.634  38.048  13.171
56215W        W27744  18.494   4.950   0.738
56216W        W27745  23.923   5.789   2.770
56217W        W27746  18.424  32.229  11.041
56218W        W27747  28.396  43.630   4.366
56219W        W27748  40.898  22.367   4.109
56220W        W27749  36.785  22.243   3.297
56221W        W27750  24.972  33.553   0.865
56222W        W27751  41.553  25.267   1.818
56223W        W27752  42.496   6.320   0.446
56224W        W27753  20.560  22.772   0.827
56225W        W27754  29.535  43.320  12.567
56226W        W27755  40.958  28.178   4.656
56227W        W27756  10.156  37.832   4.808
56228W        W27757  15.225   4.346  11.590
56229W        W27758  43.248  35.329  13.609
56230W        W27759   5.269  11.916   4.888
56231W        W27760  40.563  23.407  13.939
56232W        W27761  35.509   4.167  11.597
56233W        W27762   6.981   6.398  11.128
56234W        W27763   2.948  12.209   2.270
56235W        W27764  27.491   1.821  13.067
56236W        W27765  29.994  41.915  14.454
56237W        W27766  16.631   5.485   0.777
56238W        W27767  29.385  37.275   1.064
56239W        W27768  10.374  36.432  11.571
56240W        W27769  37.481  33.351   0.112
56241W        W27770  31.379  13.035  12.021
56242W        W27771   3.968  22.996   4.615
56243W        W27772  40.626  13.394   0.958
56244W        W27773  36.574  34.531   3.743
56245W        W27774   1.011  42.994  14.337
56246W        W27775  13.715   8.161  14.307
56247W        W27776  44.957  22.109  13.257
56248W        W27777  37.752  18.400   1.094
56249W        W27778  40.621  29.546  11.156
56250W        W27779  39.465  20.598   3.423
56251W        W27780  22.463   4.743   4.799
56252W        W27781  25.027  36.529   0.451
56253W        W27782  22.726  19.205  10.689
56254W        W27783  15.238  15.623   0.882
56255W        W27784  15.037  11.073  12.026
56256W        W27785   0.204  11.291  14.963
56257W        W27786  28.027   0.891   5.036
56258W        W27787   0.908   6.681  12.551
56259W        W27788  39.636  28.719  12.552
56260W        W27789  18.153  43.192   4.035
56261W        W27790  26.205  15.133   4.826
56262W        W27791  41.818   8.290  12.828
56263W        W27792  39.373  11.412  14.289
56264W        W27793   6.922   5.972   2.285
56265W        W27794  39.817  17.315   0.833
56266W        W27795  23.249  39.494  11.421
56267W        W27796  16.641   0.168   0.375
56268W        W27797   9.160   6.902  11.583
56269W        W27798  37.912   1.876   4.037
56270W        W27799  41.079  23.408  13.981
56271W        W27800  43.121  43.090   3.619
56272W        W27801  20.883   9.783  13.822
56273W        W27802   7.911  34.053   0.960
56274W        W27803   1.241   7.829  14.435
56275W        W27804  42.872  30.221   3.093
56276W        W27805  40.410  44.843  14.763
56277W        W27806  22.595   1.776  10.487
56278W        W27807  10.388   5.802  12.553
56279W        W27808  16.058   2.895   2.557
56280W        W27809  34.364  10.693  13.497
56281W        W27810  15.748   2.443  11.041
56282W        W27811  23.102  10.340  11.895
56283W        W27812  27.088   5.623  14.804
56284W        W27813  39.275   2.172   3.600
56285W        W27814  20.534  40.174   0.417
56286W        W27815  36.002  21.685   0.821
56287W        W27816   6.748  43.528  13.505
56288W        W27817  23.329  22.113   0.511
56289W        W27818  12.076  19.831  14.907
56290W        W27819  30.958  11.813   0.031
56291W        W27820  42.937  21.172  12.865
56292W        W27821  10.830  15.645   0.430
56293W        W27822  43.239   0.426  13.844
56294W        W27823  20.227  22.310   0.672
56295W        W27824  15.155   3.828   3.704
56296W        W27825  44.303  40.418  10.882
56297W        W27826  25.328  22.559  12.595
56298W        W27827  39.032  26.558   0.177
56299W        W27828   9.201  11.169  13.487
56300W        W27829  10.240   8.666  11.405
56301W        W27830  39.038   2.360   2.262
56302W        W27831  20.777  11.063  13.596
56303W        W27832  27.526  22.884   3.804
56304W        W27833  22.997  27.935   3.978
56305W        W27834  13.346  14.325  14.952
56306W        W27835  39.053  19.686  14.663
56307W        W27836  30.436   0.024  14.906
56308W        W27837  10.691  18.491  14.338
56309W        W27838   6.274  14.116  11.878
56310W        W27839  14.855  32.306   4.823
56311W        W27840   8.446   8.808   2.336
56312W        W27841  15.380  41.315  12.130
56313W        W27842  24.317  44.395   1.156
56314W        W27843   7.220  22.489   3.520
56315W        W27844  19.978  16.437  12.068
56316W        W27845  39.867  41.654   4.525
56317W        W27846  14.806  42.306   4.550
56318W        W27847  38.962   3.486   3.162
56319W        W27848  12.662  34.687  13.968
56320W        W27849  44.795   0.810   4.827
56321W        W27850  30.714  16.226  12.512
56322W        W27851  40.321   4.848  13.807
56323W        W27852  15.070  14.254   3.861
56324W        W27853  15.999  15.598   4.104
56325W        W27854   6.575  26.595   4.164
56326W        W27855  29.425  30.433  14.717
56327W        W27856  14.864  23.186   2.390
56328W        W27857  10.259  35.399   4.512
56329W        W27858   0.779  11.179   3.921
56330W        W27859  40.438  20.281   2.639
56331W        W27860  35.781  14.205   4.526
56332W        W27861  36.595   9.344  12.742
56333W        W27862   7.417  20.247   1.396
56334W        W27863  36.549  27.344   4.247
56335W        W27864  24.021  33.418   3.623
56336W        W27865  26.687  22.673  13.641
56337W        W27866   3.861  34.981   1.250
56338W        W27867   6.031  26.529   1.156
56339W        W27868  20.589  15.290   0.278
56340W        W27869  42.249  33.103  14.491
56341W        W27870   8.879  37.866   4.562
56342W        W27871  38.916  44.382   2.286
56343W        W27872   1.463  43.802   4.507
56344W        W27873  43.337   7.022  14.489
56345W        W27874  16.706  17.235  13.358
56346W        W27875  29.619  17.305   1.768
56347W        W27876  24.247  26.489  14.958
56348W        W27877  33.965   7.465   1.846
56349W        W27878  23.418  21.310  13.470
56350W        W27879  34.152  30.876  13.476
56351W        W27880   0.818  16.287   3.593
56352W        W27881   6.768  41.454   1.208
56353W        W27882   2.228  15.558   4.504
56354W        W27883   7.085  21.169  13.081
56355W        W27884  28.980  26.970   0.291
56356W        W27885  20.631  44.080   0.658
56357W        W27886   0.542   4.450   4.293
56358W        W27887   1.191   2.890   1.716
56359W        W27888   4.210  23.786   4.088
56360W        W27889   3.021  16.146   1.368
56361W        W27890   4.853  27.299  12.310
56362W        W27891  35.064   5.675   2.427
56363W        W27892  32.871  25.742   0.822
56364W        W27893  29.520  19.341   4.115
56365W        W27894  10.020  27.620   0.243
56366W        W27895   2.384   0.432   1.253
56367W        W27896  31.427  10.669   0.153
56368W        W27897   5.618  23.505  14.781
56369W        W27898  40.918  42.357   3.901
56370W        W27899   6.346   7.345   1.755
56371W        W27900   2.527  28.645   0.408
56372W        W27901  19.326  36.410   0.406
56373W        W27902   1.853  22.644  12.850
56374W        W27903  35.547  14.917  11.197
56375W        W27904   3.824   0.047   1.351
56376W        W27905  10.704  12.435   2.654
56377W        W27906  27.940   8.274   2.385
56378W        W27907  23.619  13.404   2.935
56379W        W27908  37.839  30.035  10.688
56380W        W27909  12.245   6.590  10.742
56381W        W27910  13.448   2.431  13.445
56382W        W27911  38.144  40.391  13.264
56383W        W27912   9.550  25.367  13.462
56384W        W27913  30.378   1.285   4.232
56385W        W27914   7.932  29.673   4.240
56386W        W27915   1.985  35.412   0.218
56387W        W27916  37.819  25.111   3.522
56388W        W27917  37.061  35.559  10.657
56389W        W27918  34.256  33.949   3.087
56390W        W27919  17.389  40.980  11.557
56391W        W27920   6.680  14.433   2.758
56392W        W27921  26.883   3.378   0.850
56393W        W27922   5.941  38.902   1.540
56394W        W27923  17.966  37.522   1.052
56395W        W27924  21.237  28.125  12.581
56396W        W27925  26.038  33.799  12.569
56397W        W27926  20.209  19.610   0.318
56398W        W27927  22.019  30.200  14.801
56399W        W27928  13.522  30.957  12.354
56400W        W27929   1.471  17.242   3.293
56401W        W27930  32.887  31.486   1.369
56402W        W27931  33.869  35.395  14.844
56403W        W27932  30.209  23.192  13.408
56404W        W27933  36.120   8.571   0.319
56405W        W27934  26.136  29.835  12.560
56406W        W27935  38.529  14.840  13.644
56407W        W27936  26.583  11.367   4.047
56408W        W27937  31.867  38.022  11.516
56409W        W27938  28.892  40.069   0.725
56410W        W27939  15.769  26.466   5.228
56411W        W27940  34.387  20.532   1.381
56412W        W27941   2.474  19.763  10.273
56413W        W27942  39.149  22.502   0.351
56414W        W27943   9.313  38.371   3.188
56415W        W27944   6.245  12.248   2.659
56416W        W27945  22.365  21.701  10.033
56417W        W27946  29.952  20.300  14.293
56418W        W27947  34.988  17.157   2.059
56419W        W27948   5.157  33.289  12.115
56420W        W27949  43.420  42.927  14.000
56421W        W27950   8.842  34.699  13.835
56422W        W27951  41.772  29.088  14.324
56423W        W27952  20.381  42.857   1.012
56424W        W27953  37.154   2.577  13.956
56425W        W27954  40.810  11.180  12.089
56426W        W27955   2.323  26.144  12.536
56427W        W27956  31.860   0.412   1.959
56428W        W27957  15.351  25.513   4.254
56429W        W27958  13.186  13.491   1.678
56430W        W27959  13.732  31.933  14.857
56431W        W27960  33.525   3.231   3.681
56432W        W27961   9.529  24.581  11.089
56433W        W27962  19.185  39.241   9.939
56434W        W27963   7.437  22.990   0.711
56435W        W27964   2.127  19.117   1.863
56436W        W27965  23.638  37.975   0.245
56437W        W27966  21.678  16.292  13.510
56438W        W27967  44.278  26.619  14.427
56439W        W27968  38.489  30.112  13.447
56440W        W27969  22.588   1.229   1.277
56441W        W27970  25.626  13.786  12.507
56442W        W27971  12.356   6.280  11.937
56443W        W27972   6.506  23.031   0.839
56444W        W27973   5.723  31.041  13.445
56445W        W27974  36.805  23.551   0.857
56446W        W27975  43.021  28.412  10.779
56447W        W27976   0.591  40.836  13.085
56448W        W27977  32.488  23.393   2.716
56449W        W27978  26.696  15.132   4.497
56450W        W27979  12.136  32.668  13.539
56451W        W27980   3.822   9.238   0.597
56452W        W27981  42.936  35.436   4.433
56453W        W27982  33.532   6.528  13.983
56454W        W27983  36.638   6.426  14.451
56455W        W27984   3.012   2.447  14.194
56456W        W27985  10.425  30.060  14.746
56457W        W27986  25.671  35.616  12.566
56458W        W27987  24.664   5.852  14.433
56459W        W27988  39.893  36.401  10.383
56460W        W27989  33.179  33.958   1.303
56461W        W27990  14.559  22.864   4.177
56462W        W27991   0.900  10.619  12.129
56463W        W27992  30.182  20.838   0.076
56464W        W27993  35.984  23.845   4.978
56465W        W27994  15.501  23.038  14.515
56466W        W27995   1.814  29.995  10.806
56467W        W27996  12.308  10.267   1.153
56468W        W27997  11.155  32.353   1.832
56469W        W27998  41.310  33.529   3.761
56470W        W27999  38.890   2.028  12.183
56471W        W28000  16.596  31.947  14.455
56472W        W28001   7.409   2.279   2.734
56473W        W28002  37.574  15.078   3.783
56474W        W28003  18.268  21.108   1.477
56475W        W28004  34.407  40.926  11.252
56476W        W28005  14.554  41.527   2.830
56477W        W28006  22.166   5.381  10.332
56478W        W28007   8.140  38.497   1.433
56479W        W28008  33.634   2.730   3.681
56480W        W28009   7.455  28.204   1.245
56481W        W28010  20.241  36.736  12.002
56482W        W28011  38.937  11.740  11.697
56483W        W28012  22.661   5.901   0.276
56484W        W28013  41.717  29.645   4.896
56485W        W28014  16.141   1.683   3.650
56486W        W28015  40.808   2.938   0.688
56487W        W28016  43.241  15.330  11.604
56488W        W28017  34.927  10.156   1.345
56489W        W28018  36.976   9.086   3.386
56490W        W28019  40.969   0.772   2.253
56491W        W28020  23.961  11.653  11.180
56492W        W28021  29.681  40.034  11.588
56493W        W28022   2.377  28.672  14.064
56494W        W28023   9.376   1.213  12.438
56495W        W28024  37.040   3.064  14.790
56496W        W28025  11.743  36.888  10.216
56497W        W28026   7.919  15.066  10.751
56498W        W28027  38.892   8.337  12.992
56499W        W28028  34.342  23.405   0.912
56500W        W28029  28.223  34.401  14.856
56501W        W28030  23.269   7.887   2.778
56502W        W28031  38.494  41.497  12.401
56503W        W28032   3.987  39.563   0.812
56504W        W28033  34.157   9.743   2.334
56505W        W28034  38.560  36.003   1.890
56506W        W28035  12.111  12.503  11.717
56507W        W28036  39.463  32.690   4.553
56508W        W28037  23.963  13.790   0.700
56509W        W28038   8.566  34.026   1.746
56510W        W28039  42.100  12.299  11.504
56511W        W28040  23.628   5.861   0.372
56512W        W28041  22.685  20.850   4.733
56513W        W28042  23.006  28.826  13.612
56514W        W28043   2.691  15.278   3.664
56515W        W28044  13.070   5.307   0.760
56516W        W28045  39.170   8.541   0.368
56517W        W28046  20.401  18.749   4.543
56518W        W28047   3.746  32.216  12.591
56519W        W28048  26.093   4.990  13.505
56520W        W28049  20.302  35.990  11.288
56521W        W28050   0.721  39.401  14.140
56522W        W28051   9.716  43.291   4.610
56523W        W28052  33.996  42.938  10.694
56524W        W28053  39.587   5.315  13.413
56525W        W28054  27.031  11.453   0.720
56526W        W28055  44.197  41.228   2.373
56527W        W28056  25.962  23.653  12.456
56528W        W28057  35.943   5.972   0.829
56529W        W28058  38.314  37.848   4.231
56530W        W28059  15.349   7.237   3.999
56531W        W28060   3.326  34.328  14.940
56532W        W28061  15.987   1.997  11.050
56533W        W28062  29.155  42.431  13.473
56534W        W28063   0.264   1.275  14.060
56535W        W28064  16.144  34.031   2.665
56536W        W28065  10.864   9.629   3.382
56537W        W28066  23.222  38.493   3.147
56538W        W28067  21.751  41.445  13.806
56539W        W28068  20.723   9.555  10.610
56540W        W28069  19.195   3.696  12.463
56541W        W28070  15.040  14.716   1.590
56542W        W28071   9.268  12.804   3.685
56543W        W28072  35.834  33.438   4.789
56544W        W28073  17.616  29.597  12.006
56545W        W28074  43.430   5.884  12.600
56546W        W28075  24.994  43.000  12.786
56547W        W28076  37.301  18.705   4.539
56548W        W28077   7.753   3.433   2.244
56549W        W28078  32.178  13.567   1.321
56550W        W28079   1.421   0.052  12.867
56551W        W28080  23.462  23.598   3.615
56552W        W28081   5.074  18.656   3.405
56553W        W28082   5.760  15.670  14.526
56554W        W28083  28.574   9.706   0.739
56555W        W28084  15.057  40.915   3.185
56556W        W28085   9.312   5.718  13.274
56557W        W28086   6.437   6.774  12.031
56558W        W28087  43.588   4.353   2.324
56559W        W28088  35.934  36.480   4.098
56560W        W28089  42.745   1.661   4.289
56561W        W28090  26.055  31.592   1.181
56562W        W28091   1.215  18.713  12.299
56563W        W28092   9.210   0.654   1.360
56564W        W28093  44.488   6.836   3.155
56565W        W28094  28.236  37.057  11.485
56566W        W28095  37.508  17.743  10.728
56567W        W28096  23.691  27.157   4.625
56568W        W28097  29.029  29.417   3.240
56569W        W28098  15.782   5.875   0.704
56570W        W28099   4.918   2.715   3.821
56571W        W28100  14.350  26.895   3.684
56572W        W28101  12.644  37.360   1.444
56573W        W28102  30.974   3.904  12.220
56574W        W28103  44.405  11.044   4.181
56575W        W28104  31.703  15.986   0.920
56576W        W28105  31.092  32.490   4.610
56577W        W28106  14.158  22.244   3.375
56578W        W28107   8.340   4.365   0.465
56579W        W28108  19.546  13.368   4.244
56580W        W28109   1.787   6.449  12.039
56581W        W28110  39.138  19.792   0.886
56582W        W28111  33.567  14.806  11.407
56583W        W28112  42.830   5.261  13.455
56584W        W28113   5.785   6.080  12.580
56585W        W28114  31.195  18.199  12.593
56586W        W28115  15.696  29.824  12.018
56587W        W28116  15.607  13.683  11.460
56588W        W28117   6.807   2.690   3.814
56589W        W28118   4.966  15.154  13.410
56590W        W28119  40.347  29.338   0.992
56591W        W28120   7.961  36.827   0.854
56592W        W28121  11.169  24.234  11.998
56593W        W28122  37.782  16.003   4.053
56594W        W28123  27.469  34.920   0.299
56595W        W28124  34.646   5.030   0.748
56596W        W28125  15.135  41.493  11.357
56597W        W28126  28.994   8.850  11.476
56598W        W28127  15.207  33.390   2.267
56599W        W28128  11.386   6.788  14.562
56600W        W28129  41.689  33.088   2.352
56601W        W28130   4.801  40.992   4.555
56602W        W28131  13.130  29.421   4.055
56603W        W28132  29.262  24.166  13.834
56604W        W28133  39.059  21.563  11.024
56605W        W28134   1.766  26.802  10.023
56606W        W28135   9.362  19.484   1.762
56607W        W28136   5.870  39.698  14.635
56608W        W28137  14.881  13.582  10.583
56609W        W28138  28.188   4.652   0.890
56610W        W28139  34.485  43.405   0.936
56611W        W28140  27.527   7.704  13.116
56612W        W28141   0.567  31.441  14.466
56613W        W28142  30.807  37.084   1.754
56614W        W28143  23.560  18.225  14.111
56615W        W28144  33.737  30.878  14.987
56616W        W28145  43.055   7.892   2.274
56617W        W28146  41.408   4.355  12.915
56618W        W28147  28.404  25.728  11.586
56619W        W28148   7.762   0.945  12.812
56620W        W28149  10.619  44.258  12.124
56621W        W28150   8.784   6.375  13.998
56622W        W28151  10.204  30.747   3.744
56623W        W28152   5.428  41.309  12.123
56624W        W28153  12.712   1.796  14.348
56625W        W28154  23.460   5.820  11.592
56626W        W28155  29.957  16.763  11.065
56627W        W28156   3.931  12.699  13.995
56628W        W28157  38.356  20.295  11.870
56629W        W28158  19.150  23.489  13.814
56630W        W28159  10.807  28.770  11.171
56631W        W28160  39.717  40.376   0.288
56632W        W28161  23.209   5.849  11.152
56633W        W28162  22.253  18.558   4.146
56634W        W28163   8.780  17.832   3.122
56635W        W28164  34.596  30.631   2.609
56636W        W28165  21.775   5.819  13.508
56637W        W28166  20.643   3.790   3.613
56638W        W28167   7.317   3.695   2.367
56639W        W28168  37.891  13.802  13.176
56640W        W28169  30.535  24.879  12.641
56641W        W28170  37.545  11.333   1.413
56642W        W28171  11.280  28.419   2.385
56643W        W28172  25.727  41.059   0.522
56644W        W28173  40.327   0.865   0.007
56645W        W28174   7.831  37.133  12.071
56646W        W28175  18.120   7.408   4.650
56647W        W28176  39.017   7.402   1.847
56648W        W28177  12.301  32.236  14.296
56649W        W28178  27.243  27.614   3.674
56650W        W28179  31.369  12.244  11.066
56651W        W28180  36.421  10.834   4.145
56652W        W28181  23.476  24.803   1.068
56653W        W28182  13.701  28.698   2.858
56654W        W28183   7.333  10.271  11.145
56655W        W28184  35.748  33.881  12.011
56656W        W28185  44.499  38.540  10.314
56657W        W28186   3.744  21.192  11.821
56658W        W28187  12.803  34.869  12.598
56659W        W28188  10.854   5.918  12.801
56660W        W28189  43.824   6.288   3.706
56661W        W28190  38.469  44.940   1.268
56662W        W28191  26.641  44.875   3.343
56663W        W28192  13.555  20.206  12.988
56664W        W28193  26.171   8.494  10.813
56665W        W28194  17.442   1.831   2.418
56666W        W28195  28.096  44.170   4.080
56667W        W28196  37.863  15.766   2.355
56668W        W28197  12.139   8.831   3.249
56669W        W28198  43.040   6.716   1.484
56670W        W28199  35.322  37.004   2.162
56671W        W28200   0.758  29.950  14.654
56672W        W28201   7.091  39.921   4.895
56673W        W28202  23.463  31.537  10.745
56674W        W28203   6.439  43.025  12.925
56675W        W28204  30.403  13.055  13.542
56676W        W28205  42.782  37.678   0.388
56677W        W28206   5.921  15.588   2.108
56678W        W28207  40.917  27.135   0.978
56679W        W28208  11.394  37.125   3.547
56680W        W28209  40.049  19.130   0.309
56681W        W28210  22.170  23.431   3.309
56682W        W28211  22.598   4.352  14.529
56683W        W28212   2.252  14.166   2.294
56684W        W28213  34.922  44.491  11.102
56685W        W28214  10.410  20.127  14.952
56686W        W28215  39.641  21.122   2.702
56687W        W28216  35.666  38.551  10.633
56688W        W28217  42.205  19.437   5.038
56689W        W28218  21.350  30.043   4.755
56690W        W28219  38.899  20.570   0.629
56691W        W28220  43.168   0.495  11.582
56692W        W28221  44.043  44.061   4.792
56693W        W28222  13.151  14.877  12.897
56694W        W28223  40.010  10.261  13.895
56695W        W28224  15.562  40.413  10.568
56696W        W28225  43.229  20.950  12.460
56697W        W28226   4.890   2.957  14.893
56698W        W28227  19.258   8.152  11.179
56699W        W28228  41.833  43.924   1.941
56700W        W28229  22.693  35.288   0.381
56701W        W28230  44.219  26.692  13.568
56702W        W28231  28.627   5.765  13.112
56703W        W28232  11.171  24.384  10.820
56704W        W28233   7.871  41.630  11.128
56705W        W28234  37.273   4.393  14.687
56706W        W28235  27.926  21.625   0.326
56707W        W28236  36.227  16.029   1.621
56708W        W28237  10.722  30.711  13.524
56709W        W28238  31.173   4.160  14.873
56710W        W28239   4.765  24.070  14.543
56711W        W28240   4.977  26.427  10.018
56712W        W28241  38.964   4.307  12.899
56713W        W28242  40.907  26.285  12.545
56714W        W28243  28.614  42.297  11.185
56715W        W28244   7.793   9.669  12.013
56716W        W28245  39.885   7.828  13.835
56717W        W28246  13.278  44.183  14.913
56718W        W28247  41.064  37.317  14.079
56719W        W28248  39.024  31.131   1.849
56720W        W28249   0.572   9.283   2.607
56721W        W28250  21.106  38.228  10.196
56722W        W28251   0.540  39.341   4.128
56723W        W28252  31.892  15.593  13.468
56724W        W28253  24.935  44.745  13.860
56725W        W28254  33.914  26.961   1.245
56726W        W28255  40.720  38.372   3.984
56727W        W28256  12.205  37.482  11.281
56728W        W28257   2.740  44.820   3.898
56729W        W28258  12.058  17.961  13.557
56730W        W28259  35.548  17.094   4.873
56731W        W28260  36.537  30.659   2.250
56732W        W28261  26.574  42.692   2.356
56733W        W28262  34.983  24.674  11.291
56734W        W28263  15.809  29.708   0.831
56735W        W28264  29.682  20.528   4.898
56736W        W28265  39.006  21.042  14.865
56737W        W28266  30.529   4.765   0.826
56738W        W28267  10.901  32.400   4.737
56739W        W28268  42.754  38.978   2.827
56740W        W28269  30.242  25.731  11.483
56741W        W28270   0.895  21.004  14.810
56742W        W28271  11.555  39.610  11.561
56743W        W28272  12.430  31.380  13.048
56744W        W28273  20.510   8.968  13.903
56745W        W28274  16.970  29.174   1.261
56746W        W28275  11.270  18.566   3.238
56747W        W28276  23.609  20.256   1.220
56748W        W28277  28.630  40.063  13.747
56749W        W28278  28.602  44.304  14.583
56750W        W28279  18.177   1.492   2.623
56751W        W28280  11.257  24.502   3.682
56752W        W28281   2.786   6.870   1.161
56753W        W28282  41.371  43.819  11.325
56754W        W28283  34.283  31.215  12.154
56755W        W28284   5.848  43.727  10.757
56756W        W28285   0.477  41.671  13.456
56757W        W28286  37.693  15.335   1.135
56758W        W28287  26.480   9.762   3.325
56759W        W28288  19.057  13.510  14.839
56760W        W28289  31.356  24.327   4.013
56761W        W28290   1.449   2.751   1.255
56762W        W28291   1.075   1.100   9.830
56763W        W28292  24.959  39.283   0.493
56764W        W28293  35.950  27.732   1.975
56765W        W28294  28.965  29.641  14.968
56766W        W28295  43.246  44.977   1.732
56767W        W28296   7.751   1.801  11.243
56768W        W28297   8.372  21.538  10.659
56769W        W28298   0.357  23.677  14.889
56770W        W28299  21.476  16.035   3.836
56771W        W28300  15.616  44.183   1.753
56772W        W28301  43.816  17.374  14.960
56773W        W28302  10.710  44.527  14.886
56774W        W28303  14.131   5.944  12.052
56775W        W28304  20.314  27.118   1.250
56776W        W28305  26.386  14.905  11.474
56777W        W28306  35.957  14.103  12.508
56778W        W28307  13.618  14.365  12.142
56779W        W28308  43.250  19.467   3.753
56780W        W28309  37.030  14.702   1.811
56781W        W28310  38.758   2.512  12.269
56782W        W28311  35.466   1.396  10.608
56783W        W28312  23.594  31.905  12.981
56784W        W28313  33.176  43.862  11.017
56785W        W28314  18.208  22.723  14.439
56786W        W28315  38.914  33.179   3.318
56787W        W28316  41.460  27.514   1.452
56788W        W28317  44.486  11.258  13.928
56789W        W28318  21.767   9.240   4.589
56790W        W28319  44.814  36.055   4.381
56791W        W28320  24.015  16.776   0.273
56792W        W28321   4.731  42.831   0.168
56793W        W28322  13.800   9.720  13.666
56794W        W28323  32.505  40.083  13.208
56795W        W28324  14.012  36.120   2.695
56796W        W28325  37.582   6.657  13.447
56797W        W28326  30.698   8.707  12.451
56798W        W28327  20.670  32.075  10.744
56799W        W28328  33.102  20.195  13.462
56800W        W28329  16.305   3.300   1.787
56801W        W28330  41.410  31.828   0.365
56802W        W28331   6.350   0.559  11.636
56803W        W28332   9.389  36.512   1.369
56804W        W28333  42.531  33.303  10.171
56805W        W28334  40.083  27.594   4.512
56806W        W28335  15.616  14.172  13.497
56807W        W28336   6.829  30.496   1.672
56808W        W28337  24.474  17.027  12.086
56809W        W28338  21.011  21.000   2.141
56810W        W28339  40.393  26.716   3.522
56811W        W28340  31.271  22.053  14.918
56812W        W28341   5.717  10.172   0.278
56813W        W28342  26.165   2.458   0.497
56814W        W28343   7.553  17.457  14.429
56815W        W28344  37.959  20.006  11.689
56816W        W28345  31.313  44.038   4.246
56817W        W28346   3.223  27.121   2.784
56818W        W28347  16.281   6.421  11.563
56819W        W28348  44.599   3.286   2.393
56820W        W28349  24.043  32.467   4.882
56821W        W28350  16.125  43.322  10.722
56822W        W28351  31.917  31.098  12.473
56823W        W28352  35.486  18.279  14.093
56824W        W28353   6.945  34.180   4.830
56825W        W28354  18.220  35.619  14.801
56826W        W28355   5.829   6.143   0.809
56827W        W28356   2.364   7.871   1.813
56828W        W28357  10.792  24.657  14.345
56829W        W28358  14.243  31.402  11.162
56830W        W28359  27.191  11.607   4.802
56831W        W28360   3.948  19.473  14.284
56832W        W28361  43.486  33.033  13.693
56833W        W28362  29.636  21.222   3.871
56834W        W28363  35.930  21.066  10.682
56835W        W28364  17.113  26.676   4.622
56836W        W28365  41.352  23.861   1.312
56837W        W28366  34.520  23.020  11.552
56838W        W28367  13.219  12.587   4.160
56839W        W28368  39.317  24.475   2.788
56840W        W28369  27.873  28.018   1.173
56841W        W28370  15.599  13.486   0.202
56842W        W28371  22.040  43.433  10.554
56843W        W28372  16.140  23.232  13.936
56844W        W28373   4.350  19.691  10.715
56845W        W28374  22.422  14.074  11.489
56846W        W28375  30.196  39.369  13.522
56847W        W28376  17.317  26.136   4.863
56848W        W28377  39.123  13.447   0.800
56849W        W28378   3.939  29.109  11.002
56850W        W28379  16.902  41.542   2.159
56851W        W28380  44.455  38.823  13.896
56852W        W28381  10.480  36.826   3.208
56853W        W28382  32.123  24.052   3.197
56854W        W28383  11.100   2.730   0.254
56855W        W28384  18.517  38.440  13.868
56856W        W28385  39.995  29.063  11.396
56857W        W28386   2.494  28.033  13.354
56858W        W28387  36.120  16.544  13.958
56859W        W28388  18.601  15.189   4.429
56860W        W28389  28.132  36.028   4.573
56861W        W28390  39.336  30.426   1.860
56862W        W28391  31.933  23.280   4.170
56863W        W28392   2.158  26.468   9.920
56864W        W28393  17.327  21.476  12.247
56865W        W28394  30.881  26.215  11.403
56866W        W28395   8.992  16.449  12.387
56867W        W28396  39.323  21.505   1.365
56868W        W28397   0.405  28.952   0.787
56869W        W28398  21.670   2.814   2.155
56870W        W28399  38.561  10.593   3.538
56871W        W28400  25.628   3.622  12.454
56872W        W28401  18.270  43.673   4.174
56873W        W28402   1.863   5.424  14.781
56874W        W28403  17.622  32.599  13.347
56875W        W28404  42.643  36.101  13.609
56876W        W28405  37.563   6.136  13.541
56877W        W28406  37.842  16.028  11.884
56878W        W28407   0.255  27.516   4.642
56879W        W28408  37.917   0.008  13.072
56880W        W28409  36.321  42.990  12.059
56881W        W28410   6.832  40.113  12.419
56882W        W28411   7.736   3.759   4.741
56883W        W28412  35.464  42.753  11.147
56884W        W28413   9.648   2.428  14.847
56885W        W28414  16.138  36.942   4.638
56886W        W28415   5.930  17.580   1.378
56887W        W28416  22.635  21.765  14.243
56888W        W28417  26.628   7.736  14.733
56889W        W28418  15.069   9.920  12.486
56890W        W28419   6.493   0.080  11.697
56891W        W28420   4.224  14.076   1.862
56892W        W28421  10.757   3.651  13.510
56893W        W28422  20.872   5.175   0.791
56894W        W28423  26.011  20.217  14.999
56895W        W28424  10.754  16.928   3.670
56896W        W28425  23.114   0.401   0.380
56897W        W28426  23.068   0.263  13.853
56898W        W28427   0.030  15.168   2.403
56899W        W28428  30.966  21.797   0.940
56900W        W28429  11.199  25.652   1.723
56901W        W28430  41.905  11.846  13.553
56902W        W28431  27.884  22.879  12.083
56903W        W28432   3.118  42.921  13.438
56904W        W28433  41.265  16.229  14.283
56905W        W28434  28.083   5.414   1.301
56906W        W28435  44.770   5.732  11.098
56907W        W28436  22.339  17.530   4.232
56908W        W28437   5.185  37.304   4.929
56909W        W28438  41.697   6.809   0.168
56910W        W28439  38.939  32.378   0.758
56911W        W28440  36.967  16.323   0.327
56912W        W28441  22.589  17.700   2.684
56913W        W28442  34.632  24.755   4.471
56914W        W28443   4.715  35.436   2.147
56915W        W28444   0.658  28.610  14.422
56916W        W28445   2.774  11.418  11.062
56917W        W28446   3.010  10.239  13.115
56918W        W28447  43.024   9.935  10.562
56919W        W28448   4.723  14.678  13.496
56920W        W28449  20.557  31.315   0.726
56921W        W28450   7.698  38.904  11.144
56922W        W28451  41.752  34.927   1.112
56923W        W28452  18.703  32.401  11.487
56924W        W28453  17.420  24.157   3.759
56925W        W28454   0.142  12.284   3.709
56926W        W28455   9.573   1.011  10.290
56927W        W28456  43.842  35.084   1.318
56928W        W28457   0.967  30.917   3.347
56929W        W28458   1.957  23.060   4.545
56930W        W28459  24.124  24.092  13.487
56931W        W28460  24.638  28.832  13.931
56932W        W28461  36.748  43.381   1.441
56933W        W28462  23.851  10.716   1.802
56934W        W28463  43.847  43.081   0.789
56935W        W28464  30.246  21.709  12.600
56936W        W28465  33.333   5.410  11.593
56937W        W28466  21.746  33.415  12.057
56938W        W28467  24.059  12.002  10.819
56939W        W28468  24.602  18.269  12.590
56940W        W28469  11.729  28.684   2.542
56941W        W28470  14.551   1.843  11.218
56942W        W28471  22.286  17.561   3.323
56943W        W28472  32.924  43.388  11.172
56944W        W28473  11.302  19.698   4.545
56945W        W28474  42.427   9.554   3.807
56946W        W28475  39.840   2.039  11.215
56947W        W28476  35.596  12.227  14.753
56948W        W28477  26.517  40.574  13.619
56949W        W28478   9.309   3.160   1.235
56950W        W28479  12.778   9.141  14.476
56951W        W28480  18.256  35.507   0.853
56952W        W28481   7.878  28.346   4.481
56953W        W28482  15.847   8.187   0.271
56954W        W28483   5.354  37.981   0.341
56955W        W28484  36.446  14.005   3.381
56956W        W28485  36.996  10.138  11.905
56957W        W28486  32.610  12.385   1.603
56958W        W28487  24.021  25.514  11.395
56959W        W28488   6.763  14.818  12.064
56960W        W28489  40.821  16.954  12.151
56961W        W28490  12.564  35.096  12.205
56962W        W28491  19.505  19.799  12.450
56963W        W28492  44.304  36.665  11.094
56964W        W28493  36.849  23.447  10.953
56965W        W28494   7.308  17.326   1.451
56966W        W28495  36.908  25.624  11.541
56967W        W28496  19.504  16.769  14.027
56968W        W28497  40.285  38.829   1.254
56969W        W28498  10.864  11.571   1.330
56970W        W28499  40.750  36.964  14.321
56971W        W28500  20.267  11.320  13.606
56972W        W28501  27.425  37.942  13.915
56973W        W28502   3.832  39.064   0.664
56974W        W28503  35.797   3.871   0.974
56975W        W28504   1.998  43.471   2.593
56976W        W28505  21.322  43.719   1.971
56977W        W28506  24.491   6.881   1.570
56978W        W28507   8.856   0.543  10.150
56979W        W28508   1.699  44.748   3.241
56980W        W28509  41.771  34.047  10.704
56981W        W28510   4.884  33.569   1.305
56982W        W28511  14.861  13.515   0.842
56983W        W28512  34.361   3.464   3.202
56984W        W28513  31.049  42.313   3.207
56985W        W28514  33.631  30.931   0.511
56986W        W28515   0.245  34.262  12.920
56987W        W28516  24.667  22.311   3.045
56988W        W28517  10.150  34.883  12.115
56989W        W28518  14.912  14.032   0.876
56990W        W28519  36.810  35.129   3.645
56991W        W28520  28.614  15.234  14.558
56992W        W28521  17.607   4.750   4.325
56993W        W28522  42.773  42.312  11.591
56994W        W28523  38.983  14.690  12.510
56995W        W28524  44.816   7.276  11.880
56996W        W28525   5.421  34.374  13.423
56997W        W28526  34.661   4.807  11.575
56998W        W28527  28.623  15.514  11.195
56999W        W28528  32.992  24.661   0.452
57000W        W28529   2.682   4.672   1.873
57001W        W28530   4.879  19.942   2.292
57002W        W28531  21.148  12.710  11.911
57003W        W28532   3.801   1.211  13.904
57004W        W28533  18.110   1.419   4.586
57005W        W28534  32.158  35.463   2.755
57006W        W28535  39.613  24.413  14.532
57007W        W28536  32.996  36.017  12.521
57008W        W28537  22.510  28.609   3.122
57009W        W28538  44.920   0.896   0.401
57010W        W28539  22.695  14.416  13.250
57011W        W28540  24.984  37.420   0.403
57012W        W28541  23.816  24.444  13.740
57013W        W28542  11.751  44.323  11.525
57014W        W28543  32.810  25.469   0.370
57015W        W28544  40.028  22.314  11.238
57016W        W28545   1.517   1.681   1.557
57017W        W28546  28.083  22.356   5.121
57018W        W28547  33.307  25.604  13.053
57019W        W28548   6.284   9.480   2.746
57020W        W28549  19.294  27.988   2.685
57021W        W28550  29.753   4.935   4.541
57022W        W28551   4.573  41.336   3.711
57023W        W28552  27.464  42.820  14.801
57024W        W28553   2.670  23.236   1.799
57025W        W28554  40.059  31.987   4.881
57026W        W28555  19.486  42.504  11.056
57027W        W28556  31.702  39.263   0.877
57028W        W28557  32.640  27.238   3.691
57029W        W28558  13.538  37.792  12.891
57030W        W28559   8.249  37.948  13.349
57031W        W28560  23.336   9.393   4.124
57032W        W28561  28.180  33.525  14.976
57033W        W28562   6.094  13.564  12.961
57034W        W28563  18.803  27.860   2.460
57035W        W28564  11.289   0.545  13.853
57036W        W28565  32.426  43.774   1.869
57037W        W28566  30.666   7.910  13.380
57038W        W28567  23.708  28.005   4.247
57039W        W28568  30.619  18.384  11.362
57040W        W28569   2.953   4.885  10.976
57041W        W28570  19.279   0.824   3.673
57042W        W28571  11.993  30.141   1.940
57043W        W28572   1.735  19.860   4.864
57044W        W28573  10.743  18.685  13.797
57045W        W28574  43.375  37.758   2.749
57046W        W28575   9.223   8.935  14.292
57047W        W28576  32.962  35.094   3.499
57048W        W28577   5.732  23.523  12.330
57049W        W28578  10.282  24.763  11.909
57050W        W28579   1.439   0.883  12.539
57051W        W28580  35.321   3.956  10.621
57052W        W28581  20.119  38.143   4.523
57053W        W28582  38.092  25.413  13.954
57054W        W28583  43.561   3.858  14.916
57055W        W28584   7.704  43.354  13.057
57056W        W28585  32.508  37.931  10.820
57057W        W28586  13.174   1.516   3.182
57058W        W28587   5.643  17.606   0.963
57059W        W28588  35.529  38.131   3.695
57060W        W28589  19.354   6.948   4.384
57061W        W28590  10.730  26.594   5.008
57062W        W28591  33.110   4.465   0.893
57063W        W28592  38.960  40.584   4.705
57064W        W28593  28.193  43.290  14.917
57065W        W28594  39.192  36.908   4.106
57066W        W28595   0.393  35.802   2.420
57067W        W28596  35.280  29.663  12.729
57068W        W28597  26.689   1.096   4.092
57069W        W28598  30.212   6.550   1.704
57070W        W28599  36.992   6.922   1.849
57071W        W28600  37.618  17.980   4.158
57072W        W28601  23.048  11.332  12.019
57073W        W28602   5.174  14.910   3.268
57074W        W28603  26.418  10.041   4.516
57075W        W28604  25.524  18.769   3.652
57076W        W28605  42.196  18.258  11.641
57077W        W28606  39.458  37.677   1.285
57078W        W28607  14.407  34.163   3.112
57079W        W28608  12.780   1.298   3.655
57080W        W28609  32.828  37.166  11.070
57081W        W28610   0.765  20.014   0.855
57082W        W28611  43.112  37.620  11.517
57083W        W28612   1.906  11.138  14.158
57084W        W28613   8.744   7.336  10.591
57085W        W28614  31.370   1.484   0.274
57086W        W28615  18.226   7.443   2.394
57087W        W28616  37.902  20.836   2.708
57088W        W28617  11.359  15.855   4.251
57089W        W28618  12.569   9.636   3.262
57090W        W28619  14.862  30.106   0.417
57091W        W28620  21.801  28.031  14.951
57092W        W28621  20.784  20.250   0.441
57093W        W28622  16.793  40.008   0.921
57094W        W28623  14.265  37.627   0.354
57095W        W28624   6.501  19.912  11.479
57096W        W28625  20.248  30.199   0.088
57097W        W28626   4.409   5.197   2.491
57098W        W28627  21.869   4.670   0.182
57099W        W28628  22.734  13.738  13.935
57100W        W28629  36.854  10.317   4.292
57101W        W28630  10.742  23.520   0.237
57102W        W28631  19.839  31.324  14.845
57103W        W28632   0.540   2.450   1.302
57104W        W28633  12.155  19.423  10.682
57105W        W28634   2.420  11.288   2.670
57106W        W28635  17.559   9.944  12.938
57107W        W28636  15.900   3.342  14.357
57108W        W28637  31.385   0.791   3.745
57109W        W28638  24.093  44.347   2.811
57110W        W28639  13.668  20.709  13.135
57111W        W28640  10.766  17.470   3.453
57112W        W28641  42.321  29.056   2.284
57113W        W28642   9.116  41.527   2.221
57114W        W28643  28.812  36.157   4.008
57115W        W28644  14.602  35.719   1.920
57116W        W28645  15.141  37.951   4.597
57117W        W28646   4.822  43.317  13.314
57118W        W28647  32.900  24.628  13.502
57119W        W28648  21.219  19.271   2.218
57120W        W28649  43.096  35.006   0.785
57121W        W28650   5.100  22.702  13.806
57122W        W28651  37.845  17.211   2.612
57123W        W28652  33.009  20.424   0.255
57124W        W28653   8.721  25.467  10.660
57125W        W28654  39.869  34.629  12.139
57126W        W28655  14.696  44.922   2.727
57127W        W28656  23.253  11.817  11.634
57128W        W28657  37.759  20.097  13.059
57129W        W28658  32.186   3.234  12.413
57130W        W28659  36.017   1.792  12.465
57131W        W28660  42.951  43.102  14.013
57132W        W28661  43.155  18.000   2.313
57133W        W28662  15.127   7.753  13.169
57134W        W28663  15.725  18.907  12.487
57135W        W28664  34.241  13.475   1.810
57136W        W28665  24.737  25.141   0.522
57137W        W28666   3.878  10.424  10.419
57138W        W28667  33.406  25.743   0.798
57139W        W28668  31.088  36.315  13.021
57140W        W28669  31.103  19.018  10.642
57141W        W28670  38.448  43.335   4.955
57142W        W28671  16.225  17.669   0.726
57143W        W28672  25.259  36.129   0.221
57144W        W28673   3.639  35.953   0.863
57145W        W28674  15.573  33.594   4.064
57146W        W28675  40.554  32.498  10.527
57147W        W28676  11.566   5.646  10.686
57148W        W28677  19.045  44.760   3.721
57149W        W28678  41.060  24.578   0.429
57150W        W28679  40.769  25.178   4.043
57151W        W28680  18.107  12.872   2.592
57152W        W28681  18.737   5.081  14.339
57153W        W28682  15.294  35.477  12.084
57154W        W28683  44.423   1.397   2.919
57155W        W28684  39.735   8.398   4.917
57156W        W28685   7.415  24.599  10.939
57157W        W28686  25.415  26.011   0.791
57158W        W28687  16.064  28.272   3.613
57159W        W28688  18.207  42.103   2.572
57160W        W28689   6.237  43.763   1.980
57161W        W28690   5.493  39.497   4.527
57162W        W28691   5.164  19.051   3.785
57163W        W28692  14.751  38.825  14.688
57164W        W28693  30.331  17.760   1.122
57165W        W28694  30.563  15.815   1.358
57166W        W28695  41.080   6.937   1.276
57167W        W28696   8.368  20.230   5.017
57168W        W28697  36.180  14.452  12.935
57169W        W28698  33.354   1.741   2.133
57170W        W28699  42.421  19.135   1.242
57171W        W28700  30.328  20.443   4.732
57172W        W28701  41.404   1.499   3.783
57173W        W28702  33.661  33.927  14.269
57174W        W28703  10.816  41.967  14.764
57175W        W28704   6.626  28.435  12.452
57176W        W28705  25.488  43.834  12.916
57177W        W28706   9.371  42.754   4.042
57178W        W28707  27.946  25.570   2.750
57179W        W28708  42.588  13.803  14.349
57180W        W28709  22.337  37.056   2.921
57181W        W28710   1.221  28.623   0.767
57182W        W28711  10.067  42.296   0.201
57183W        W28712  10.243  18.367  11.490
57184W        W28713  38.124   8.716  11.438
57185W        W28714  23.706   6.188  14.220
57186W        W28715   7.168   9.446  13.653
57187W        W28716  11.939  33.556  11.597
57188W        W28717  35.638  18.414  13.587
57189W        W28718  22.515   3.500   4.448
57190W        W28719  22.606   2.224  11.656
57191W        W28720  37.172  13.054  10.785
57192W        W28721  27.711  19.978   2.793
57193W        W28722  44.941  16.984  11.536
57194W        W28723   4.869  19.264  10.765
57195W        W28724  27.274   4.833  10.600
57196W        W28725  10.904  31.422   0.972
57197W        W28726  21.328  35.178   3.175
57198W        W28727   0.956  43.153  14.821
57199W        W28728  15.220  18.127   3.362
57200W        W28729  21.679  27.730   2.283
57201W        W28730  31.958  30.933  11.024
57202W        W28731  28.817   3.679   4.099
57203W        W28732   4.708   2.549  12.352
57204W        W28733  30.178  15.961   5.356
57205W        W28734  25.536  43.755   1.758
57206W        W28735  21.793  35.816  12.439
57207W        W28736  25.730   6.990  14.941
57208W        W28737  11.263  10.387   4.161
57209W        W28738  16.851  33.038  11.683
57210W        W28739  11.897  42.076  13.374
57211W        W28740  17.653  37.580  14.247
57212W        W28741  13.392  20.624  14.930
57213W        W28742   2.478  41.292   1.741
57214W        W28743   5.700  23.682  13.573
57215W        W28744  15.296  32.030  11.567
57216W        W28745   2.963  12.793   5.106
57217W        W28746  29.550   1.470   0.729
57218W        W28747  30.666  42.802   2.822
57219W        W28748   9.830   1.929  11.433
57220W        W28749   0.501   8.416   0.963
57221W        W28750   4.960  26.615   0.313
57222W        W28751  44.767  22.166  13.742
57223W        W28752   7.406  18.597  12.887
57224W        W28753  15.086  40.331   4.786
57225W        W28754  19.945   7.391  11.695
57226W        W28755  13.786  41.004  11.210
57227W        W28756  27.209  14.221   0.367
57228W        W28757  16.543   0.253   2.466
57229W        W28758  22.776  16.784  10.271
57230W        W28759  18.631  22.714  13.796
57231W        W28760  44.688  26.580  11.948
57232W        W28761  35.659   6.015  10.865
57233W        W28762  18.249  12.313   2.388
57234W        W28763  17.622  12.212   2.336
57235W        W28764  35.820  29.359   2.267
57236W        W28765  27.751  16.322  12.543
57237W        W28766  17.045  31.987   2.328
57238W        W28767  26.666  43.443  13.980
57239W        W28768   3.207  18.758   3.740
57240W        W28769  39.019   6.581  13.470
57241W        W28770  18.571  34.424  14.425
57242W        W28771  40.490  23.734  11.644
57243W        W28772  29.429  29.060   4.621
57244W        W28773  30.065  25.265  11.512
57245W        W28774  21.171  23.793  10.043
57246W        W28775  25.656   5.938   3.638
57247W        W28776  30.460   9.528  10.865
57248W        W28777   4.984  40.039  12.997
57249W        W28778   7.035  14.738  12.484
57250W        W28779  10.913  37.423   0.519
57251W        W28780  17.978   1.898   2.353
57252W        W28781  23.197  43.524  14.440
57253W        W28782   1.684  24.244  13.323
57254W        W28783  44.739  25.632   0.302
57255W        W28784   3.716  41.068  11.109
57256W        W28785  26.954  40.355  13.843
57257W        W28786   5.659  30.843  13.936
57258W        W28787  30.473  31.336   3.334
57259W        W28788  20.522  20.016   4.907
57260W        W28789  34.037  32.522  10.823
57261W        W28790   7.179  38.623   4.539
57262W        W28791  14.161  17.422  14.897
57263W        W28792  13.180   0.994   3.160
57264W        W28793  15.048  41.392   2.681
57265W        W28794  11.170   3.727   2.293
57266W        W28795  11.604  31.885   1.711
57267W        W28796  41.755  17.989  11.248
57268W        W28797  15.753  16.479   2.818
57269W        W28798  11.259  20.005   3.190
57270W        W28799   6.222  28.233   2.408
57271W        W28800  36.286  18.090  12.800
57272W        W28801  10.764   3.126   0.315
57273W        W28802  36.099   0.288  10.561
57274W        W28803  14.154  21.085   1.792
57275W        W28804  39.569  24.434   1.422
57276W        W28805  43.099   6.822   0.967
57277W        W28806  43.799  41.009   4.773
57278W        W28807  25.645  27.422   3.787
57279W        W28808  35.376  24.935  11.483
57280W        W28809  25.543  25.271   1.959
57281W        W28810   1.022  12.132  13.667
57282W        W28811  39.851  14.916  13.793
57283W        W28812  34.803  30.450   5.143
57284W        W28813   9.567   6.218   2.457
57285W        W28814  10.368  26.989  11.544
57286W        W28815   2.246  35.376  14.769
57287W        W28816  32.462  13.565   4.371
57288W        W28817  15.393   6.263   4.291
57289W        W28818   6.273   2.038  12.142
57290W        W28819   5.158  20.088  11.569
57291W        W28820  14.570  19.983  14.270
57292W        W28821  28.368   8.026   0.840
57293W        W28822   7.941  38.921   2.651
57294W        W28823  14.536  31.107  12.505
57295W        W28824  44.937   6.506   0.880
57296W        W28825  33.575   0.140   1.590
57297W        W28826   0.567   4.313  13.551
57298W        W28827  11.180   4.889   2.893
57299W        W28828  22.978   9.937   0.202
57300W        W28829   9.650  33.503  10.640
57301W        W28830  30.016   4.231  14.747
57302W        W28831  16.637  44.199  12.411
57303W        W28832  35.621  10.818  10.558
57304W        W28833  23.009  31.125  13.708
57305W        W28834  15.447  37.247   3.509
57306W        W28835  37.764  36.372  13.144
57307W        W28836  28.773  37.962  12.899
57308W        W28837   1.452  39.987  13.574
57309W        W28838  33.440  18.623  10.883
57310W        W28839  10.323  34.412  11.569
57311W        W28840   0.922  15.866  14.566
57312W        W28841  30.573  31.058   1.344
57313W        W28842   1.571  22.563   3.659
57314W        W28843  12.405  23.942  11.158
57315W        W28844  13.132   9.754  11.548
57316W        W28845  27.379   8.356   3.149
57317W        W28846  23.535  42.356   0.300
57318W        W28847  35.813  34.693   3.133
57319W        W28848  40.369  20.653  10.527
57320W        W28849  33.513  31.915  13.913
57321W        W28850  21.464  44.972   0.016
57322W        W28851  21.244  44.736   1.949
57323W        W28852  43.525  27.598   1.386
57324W        W28853  21.241  22.247  13.571
57325W        W28854  43.883   2.626  11.924
57326W        W28855  18.479  37.602   4.137
57327W        W28856  16.569  29.547   4.331
57328W        W28857  25.091  27.233   1.495
57329W        W28858   2.576  21.692   3.600
57330W        W28859  36.461  29.104   0.289
57331W        W28860  12.682  16.532  14.825
57332W        W28861  19.306  31.657   4.305
57333W        W28862   4.384   7.739   0.691
57334W        W28863  20.232  20.701   1.951
57335W        W28864  37.805  34.393  12.792
57336W        W28865  26.235  36.585  11.157
57337W        W28866  34.114  43.353   1.739
57338W        W28867  37.170  34.439  14.708
57339W        W28868  13.328  31.083   2.823
57340W        W28869  36.834  31.411   4.244
57341W        W28870  28.150  24.236  12.065
57342W        W28871  31.515  15.124  12.060
57343W        W28872  31.767  24.444   2.255
57344W        W28873  19.249  15.637  12.049
57345W        W28874  11.180  28.847  10.803
57346W        W28875  32.657   6.618  12.022
57347W        W28876  27.044  18.051   1.423
57348W        W28877   9.823  25.436   2.404
57349W        W28878   6.689  16.564   2.461
57350W        W28879  21.280  44.077   1.523
57351W        W28880  31.405  13.282   2.912
57352W        W28881   1.786  10.664  10.344
57353W        W28882  15.143  30.702   5.039
57354W        W28883   1.742   4.866   4.165
57355W        W28884   2.920  10.717   0.366
57356W        W28885  21.493   7.234   3.654
57357W        W28886  32.040  29.662   4.503
57358W        W28887  44.544  30.342  12.641
57359W        W28888  31.087  32.604  12.016
57360W        W28889   5.970  17.437  11.573
57361W        W28890  10.406   4.935   3.658
57362W        W28891   8.549   6.889  10.324
57363W        W28892  20.547  24.565   0.013
57364W        W28893   4.472   1.851  10.739
57365W        W28894  32.861   3.723   0.754
57366W        W28895  39.025   0.040   5.062
57367W        W28896  40.891   0.434   1.847
57368W        W28897  44.248  15.331   2.900
57369W        W28898  17.756  37.042   3.929
57370W        W28899  44.087  16.078   0.366
57371W        W28900  30.588  25.104   0.386
57372W        W28901  44.874  21.569  10.916
57373W        W28902   1.426  23.255   2.169
57374W        W28903  22.555  23.735  13.913
57375W        W28904  44.841  44.261  11.951
57376W        W28905  13.999  30.952  11.938
57377W        W28906  14.164  40.797   0.771
57378W        W28907  34.063  40.790  13.453
57379W        W28908  27.627  31.645   4.585
57380W        W28909  28.748   6.584   1.039
57381W        W28910  36.593  29.896   1.667
57382W        W28911  35.827  14.371  10.708
57383W        W28912   2.360  28.888   4.080
57384W        W28913   9.776   1.037  11.734
57385W        W28914   4.679   0.210   1.209
57386W        W28915   7.676  20.425  14.355
57387W        W28916   5.565   4.526  12.335
57388W        W28917   2.788  41.419   0.505
57389W        W28918   7.727  10.649   1.076
57390W        W28919  26.854  42.948   4.798
57391W        W28920  36.032  33.636  12.387
57392W        W28921   3.578  15.547   4.182
57393W        W28922   3.239  10.091   2.793
57394W        W28923  30.530   0.794   4.132
57395W        W28924   4.912  19.142  13.459
57396W        W28925  23.960  38.012   4.753
57397W        W28926  42.332  10.153   1.193
57398W        W28927  31.010   9.263   0.202
57399W        W28928  17.550  12.661  12.481
57400W        W28929   0.019  31.817  13.501
57401W        W28930  26.159  44.714   0.764
57402W        W28931   7.430  11.713  14.866
57403W        W28932  42.133  42.882   3.352
57404W        W28933  33.650  36.631   4.918
57405W        W28934  10.174  27.001   2.916
57406W        W28935  42.885  34.015  13.828
57407W        W28936  12.517  42.536  11.600
57408W        W28937   9.151  36.290   1.844
57409W        W28938  28.139   6.601  11.639
57410W        W28939  36.553  14.665   4.098
57411W        W28940  34.647  20.699   3.712
57412W        W28941  12.311  28.899  13.840
57413W        W28942   0.714  41.523   0.208
57414W        W28943  11.804  20.085   4.057
57415W        W28944  31.670   8.921  13.900
57416W        W28945  11.568  13.326   2.388
57417W        W28946  22.853  35.044  13.808
57418W        W28947  39.674  21.069   0.444
57419W        W28948  37.928   4.195   0.444
57420W        W28949   1.766   5.595  14.285
57421W        W28950   9.879  15.860  14.061
57422W        W28951   5.308   8.027  14.842
57423W        W28952  29.822  12.704   9.822
57424W        W28953   9.819  40.940   3.236
57425W        W28954  34.666  33.118  13.734
57426W        W28955  31.981  21.426  11.595
57427W        W28956  11.770  24.526   3.565
57428W        W28957   8.268   3.841  13.856
57429W        W28958  27.225   6.230  11.329
57430W        W28959   9.377  41.125   0.849
57431W        W28960  40.470   1.261   2.856
57432W        W28961  11.914  34.888  11.735
57433W        W28962  27.176  34.399   1.359
57434W        W28963  11.598  11.587   4.147
57435W        W28964  12.068  44.503  14.610
57436W        W28965  36.831  15.692  13.871
57437W        W28966  26.628  28.989  12.297
57438W        W28967  39.200  14.315  10.574
57439W        W28968  42.396   0.063  13.141
57440W        W28969  19.174   7.748   1.774
57441W        W28970  19.406   9.155  12.053
57442W        W28971  36.639  24.159  13.977
57443W        W28972  31.779  39.431   1.847
57444W        W28973  34.080  23.086   4.027
57445W        W28974  42.700   8.823   2.725
57446W        W28975  13.203  30.040  13.215
57447W        W28976   6.403  27.225  12.493
57448W        W28977  25.174  12.607   0.373
57449W        W28978   2.877  32.938   2.211
57450W        W28979  29.715  42.465   1.736
57451W        W28980  37.992  33.828  11.367
57452W        W28981  10.683  19.231  12.517
57453W        W28982  25.014  21.602   1.869
57454W        W28983  13.828  31.859   2.942
57455W        W28984  39.279  29.901  14.848
57456W        W28985  23.949  44.416   3.759
57457W        W28986  33.915  25.023   1.555
57458W        W28987  26.042  41.040  10.659
57459W        W28988  31.653  13.575  12.013
57460W        W28989  18.138  28.642  11.492
57461W        W28990  10.538  25.511   3.679
57462W        W28991  18.299  15.013  10.997
57463W        W28992  29.352  18.993  11.597
57464W        W28993  15.012   9.562  12.922
57465W        W28994  25.160   8.953  14.389
57466W        W28995  12.744   6.445   0.339
57467W        W28996  43.854  24.663  10.976
57468W        W28997  44.054  13.199   2.896
57469W        W28998  32.226  14.081  10.641
57470W        W28999  15.239   4.830  14.838
57471W        W29000  12.455  22.714   1.290
57472W        W29001  13.855  11.720  12.035
57473W        W29002   7.121  20.620  13.656
57474W        W29003  44.014   4.764  10.698
57475W        W29004  32.590  18.223  10.630
57476W        W29005  17.725   6.851  11.727
57477W        W29006   5.367   2.981   3.715
57478W        W29007  31.946   5.496   0.317
57479W        W29008  21.620  32.162  13.230
57480W        W29009  20.432  17.321  11.652
57481W        W29010  31.251  34.156  14.439
57482W        W29011  17.213  43.509  12.592
57483W        W29012  27.556  23.675  13.848
57484W        W29013   6.697  41.907   3.598
57485W        W29014  18.769  27.911   5.428
57486W        W29015  17.945  22.255  14.417
57487W        W29016   3.437   2.631  11.953
57488W        W29017  12.839  27.117   4.046
57489W        W29018  21.032  11.141   2.336
57490W        W29019   5.805  28.112  10.865
57491W        W29020  20.360  18.816   3.751
57492W        W29021  11.293  41.500  11.809
57493W        W29022  40.750  11.647   3.386
57494W        W29023  29.149  23.048   3.262
57495W        W29024   1.933   5.534  12.138
57496W        W29025  16.258  26.669  10.708
57497W        W29026  31.056  20.541   1.311
57498W        W29027  31.012   8.208  13.118
57499W        W29028   1.952  17.369  14.724
57500W        W29029  20.510  27.767  14.532
57501W        W29030  22.158  22.729  14.964
57502W        W29031   4.751  13.585  12.395
57503W        W29032  20.183  35.967  14.572
57504W        W29033  36.431  21.070  12.030
57505W        W29034  29.652  27.443   1.590
57506W        W29035  13.880  41.944   4.428
57507W        W29036  23.793  31.490  11.958
57508W        W29037  27.335  40.079   3.379
57509W        W29038   5.826  10.250  11.530
57510W        W29039  15.776  42.926  12.378
57511W        W29040  44.742   0.771  10.669
57512W        W29041   4.310  43.904  11.917
57513W        W29042   5.013  41.826   1.962
57514W        W29043  26.999   3.142  11.090
57515W        W29044  42.293  12.801  12.144
57516W        W29045  29.379  44.681   1.728
57517W        W29046  39.802  41.481   0.803
57518W        W29047  31.838  36.558   0.711
57519W        W29048  13.124  17.917   1.625
57520W        W29049  22.978  16.677  12.073
57521W        W29050  22.418  12.241  13.822
57522W        W29051  40.909  14.677   2.065
57523W        W29052   7.707   1.081   4.039
57524W        W29053  37.642  21.692   3.289
57525W        W29054  29.915  32.622   4.354
57526W        W29055  33.187  26.103  11.449
57527W        W29056  20.760  29.582  11.120
57528W        W29057  42.899  17.643  13.414
57529W        W29058  19.873  38.069   2.413
57530W        W29059  22.924  30.182  12.960
57531W        W29060  31.897   8.581   0.778
57532W        W29061  10.839  31.719   0.531
57533W        W29062   9.935  27.895   1.311
57534W        W29063  19.991   1.364  14.255
57535W        W29064   1.839  22.202   2.988
57536W        W29065  23.504  29.942  14.842
57537W        W29066  42.378  31.395  11.533
57538W        W29067   0.955  42.040   4.526
57539W        W29068   1.501  19.968   1.659
57540W        W29069  36.928  12.345   1.799
57541W        W29070  36.622  23.830  11.193
57542W        W29071  21.919  13.333  14.998
57543W        W29072  29.603   9.628  11.671
57544W        W29073  38.903  11.760   1.846
57545W        W29074  15.670  35.685  10.591
57546W        W29075  17.134  14.238  13.963
57547W        W29076   1.191  39.600   2.344
57548W        W29077   6.999  32.496  14.279
57549W        W29078  27.287  24.887   3.198
57550W        W29079  43.119  36.426   2.698
57551W        W29080  37.244   5.647   2.322
57552W        W29081  35.495  17.857  13.792
57553W        W29082  33.044  26.019   3.188
57554W        W29083  25.848   2.835   1.303
57555W        W29084   7.701  14.759   3.312
57556W        W29085  39.285  22.715  11.428
57557W        W29086   3.705  21.154  13.952
57558W        W29087   2.908   0.933   3.363
57559W        W29088   1.484  14.149  14.315
57560W        W29089  22.652  37.386   3.585
57561W        W29090  21.736  11.613  13.801
57562W        W29091  21.692   1.426  14.863
57563W        W29092  27.201  37.017   0.908
57564W        W29093  25.651  29.063   4.233
57565W        W29094  20.489  22.722  13.468
57566W        W29095  34.333   8.082   4.882
57567W        W29096  39.857  36.961  14.971
57568W        W29097  31.241  27.986   2.828
57569W        W29098  20.470   9.351   0.637
57570W        W29099   5.515  40.820   2.325
57571W        W29100  11.134   0.577  11.938
57572W        W29101  17.189  14.523   1.219
57573W        W29102  40.410   1.165   4.310
57574W        W29103  32.584  40.458  12.744
57575W        W29104   5.151  40.310   0.898
57576W        W29105  17.595   2.963   4.266
57577W        W29106  20.208  15.360   1.052
57578W        W29107  18.596  16.270  12.138
57579W        W29108   1.966  13.653   3.760
57580W        W29109  17.663  12.223  10.828
57581W        W29110  39.899  10.309   2.600
57582W        W29111  30.916  41.657  11.439
57583W        W29112  33.571  35.475  13.811
57584W        W29113  24.599  17.303   3.463
57585W        W29114  40.284  27.710  13.246
57586W        W29115  20.221  44.796  10.388
57587W        W29116  16.813  35.152   0.619
57588W        W29117  32.046  35.413  12.571
57589W        W29118  36.829  43.423  11.407
57590W        W29119   0.999  14.273   0.388
57591W        W29120   9.741  25.185  11.907
57592W        W29121  37.786  25.479  11.881
57593W        W29122  31.610  25.124  13.520
57594W        W29123  15.977   8.688   0.425
57595W        W29124  28.589  26.784   1.384
57596W        W29125  28.723   2.427   2.307
57597W        W29126   2.883  28.015   5.018
57598W        W29127  41.456  33.601   2.743
57599W        W29128  23.026  11.862   0.379
57600W        W29129   8.298  26.457  10.553
57601W        W29130  13.731  39.988  14.857
57602W        W29131  14.533   0.677  13.343
57603W        W29132  44.869   7.119   2.960
57604W        W29133  25.137  31.907  13.820
57605W        W29134  38.550   7.210   1.950
57606W        W29135  22.062   7.065  13.552
57607W        W29136  43.784   2.043  14.662
57608W        W29137   4.917  33.625  11.194
57609W        W29138   8.128  44.029   2.058
57610W        W29139  25.127  32.001   3.452
57611W        W29140  18.963   9.810  12.424
57612W        W29141  15.295  36.825  14.045
57613W        W29142  38.348   1.967   4.300
57614W        W29143  34.213   1.943  12.983
57615W        W29144   1.190   6.638   2.743
57616W        W29145  36.813  35.095  10.581
57617W        W29146  28.732  31.115  11.411
57618W        W29147  43.206  18.017  12.975
57619W        W29148  35.402   8.729   3.710
57620W        W29149   1.870  19.348   2.826
57621W        W29150  31.215  23.111   4.850
57622W        W29151  10.443   5.553   3.232
57623W        W29152  31.918  32.503  11.818
57624W        W29153  13.378  31.098  14.684
57625W        W29154  25.903  28.157   1.442
57626W        W29155  35.330   9.175   3.994
57627W        W29156   4.070  21.521  13.216
57628W        W29157  17.514  31.494  11.604
57629W        W29158  20.739  23.656   2.716
57630W        W29159  25.479  13.072  14.312
57631W        W29160  11.081  21.814   4.268
57632W        W29161  15.548  12.660   4.704
57633W        W29162  13.317  11.925  13.879
57634W        W29163   6.096  29.445   2.886
57635W        W29164  39.087  27.204   1.017
57636W        W29165   2.951  10.982   4.554
57637W        W29166  11.102  25.731  11.168
57638W        W29167  15.886   4.191   0.840
57639W        W29168  13.090  19.749   3.779
57640W        W29169   7.465   4.166  12.426
57641W        W29170  33.076   1.764  11.440
57642W        W29171  14.225  37.635   3.621
57643W        W29172  11.870  33.711  12.390
57644W        W29173  30.773   8.159   3.848
57645W        W29174   2.646  31.950   0.945
57646W        W29175  30.128  19.565   5.240
57647W        W29176   6.706  15.094   4.820
57648W        W29177  10.124   0.943   1.274
57649W        W29178  33.335  39.344  13.595
57650W        W29179  20.425  20.843   3.742
57651W        W29180  36.445  14.697   1.172
57652W        W29181  10.648  36.439   4.902
57653W        W29182  11.374  12.268  14.409
57654W        W29183  30.526   6.773  11.466
57655W        W29184  12.810  22.116   4.527
57656W        W29185  29.980  17.212   3.811
57657W        W29186  21.599  23.471  12.365
57658W        W29187  36.274  16.622  12.528
57659W        W29188  22.076  37.756  14.067
57660W        W29189  30.445  19.251   3.567
57661W        W29190  21.529  29.620   1.351
57662W        W29191  21.864   6.208  11.313
57663W        W29192  30.449  17.364   3.580
57664W        W29193  36.453  23.475   4.148
57665W        W29194  12.621  41.969   2.728
57666W        W29195  43.968  43.808  11.457
57667W        W29196  21.533   3.404  12.495
57668W        W29197   5.772  24.978   4.569
57669W        W29198  35.489  33.905  11.184
57670W        W29199  30.340  25.543   2.542
57671W        W29200  41.546  37.056   0.780
57672W        W29201  26.033  34.643  12.035
57673W        W29202  44.943  20.696   1.996
57674W        W29203  38.371  20.604   5.004
57675W        W29204  23.032  39.821   3.703
57676W        W29205  35.420  44.524  10.519
57677W        W29206  43.634   7.996   1.012
57678W        W29207   6.425   0.225   1.819
57679W        W29208  14.086  24.251   3.173
57680W        W29209   4.870  36.983   0.687
57681W        W29210   6.939  42.356   3.757
57682W        W29211   8.289  36.077  12.527
57683W        W29212   5.216   7.550  11.139
57684W        W29213  17.978  29.245   0.335
57685W        W29214  36.052  16.835  12.935
57686W        W29215  32.399  32.742   1.191
57687W        W29216  10.915   0.993   3.704
57688W        W29217  11.503  24.045  11.615
57689W        W29218  17.891  40.469   4.197
57690W        W29219  26.034  10.409   0.320
57691W        W29220   8.060  22.565  14.201
57692W        W29221  39.129  37.982  10.339
57693W        W29222   9.972  21.771  10.990
57694W        W29223   7.284  31.917   0.835
57695W        W29224  17.165  10.751  14.029
57696W        W29225  36.534  26.162   4.998
57697W        W29226  11.873  34.332   3.672
57698W        W29227  20.266  43.800   2.759
57699W        W29228  33.734  21.662  10.265
57700W        W29229   7.370  13.697   4.275
57701W        W29230   3.693  30.160   2.538
57702W        W29231  29.088  12.225   2.398
57703W        W29232   4.755   5.618   3.602
57704W        W29233  38.824  25.735   1.265
57705W        W29234  20.590  18.501  13.153
57706W        W29235   0.264  12.635  13.264
57707W        W29236  16.617  24.117  11.981
57708W        W29237  17.532  34.893  13.918
57709W        W29238  41.860  20.581  12.814
57710W        W29239   4.863  32.923  12.865
57711W        W29240   6.286   9.879  14.368
57712W        W29241   7.032  29.218   4.276
57713W        W29242  40.191  34.435   1.331
57714W        W29243  19.210  22.162  13.494
57715W        W29244  27.968  11.848  12.601
57716W        W29245   7.132  20.646   0.044
57717W        W29246  23.209  37.866  11.035
57718W        W29247  32.878  22.980  10.610
57719W        W29248  19.735  26.020  12.590
57720W        W29249  18.838  32.107   4.576
57721W        W29250   0.765  36.001  11.254
57722W        W29251  31.539  23.426   1.211
57723W        W29252  38.052   1.846  12.121
57724W        W29253  14.380   2.863  14.952
57725W        W29254  20.317  40.917  13.395
57726W        W29255   7.066  44.796  10.825
57727W        W29256  19.782   2.757  13.693
57728W        W29257  15.204  23.795   1.342
57729W        W29258  33.012  19.233   2.176
57730W        W29259  25.827   3.058  13.822
57731W        W29260  36.341   5.955   4.157
57732W        W29261  32.797  20.974   4.449
57733W        W29262   6.927  11.668   3.771
57734W        W29263  22.603  13.079   0.536
57735W        W29264  26.577  21.482  12.025
57736W        W29265   9.927  21.622   3.839
57737W        W29266   2.738   6.795   2.609
57738W        W29267  33.633   7.045  13.879
57739W        W29268  41.414   5.172  13.431
57740W        W29269  16.187  20.533  13.166
57741W        W29270  42.465  41.312  13.588
57742W        W29271  27.148  18.110  13.255
57743W        W29272  27.237  22.706  12.601
57744W        W29273   8.742   0.470   2.248
57745W        W29274  33.229  13.069  11.680
57746W        W29275  22.093  11.603   2.232
57747W        W29276  17.598  40.350   3.810
57748W        W29277  27.661  15.168  12.701
57749W        W29278  13.888  40.008   1.819
57750W        W29279  17.857  43.643  12.011
57751W        W29280   0.786  42.029  10.692
57752W        W29281  42.756  27.082  14.265
57753W        W29282  13.406   7.261  12.002
57754W        W29283  44.310   3.319   1.635
57755W        W29284  15.419  31.173  10.722
57756W        W29285  39.942   8.795   1.705
57757W        W29286  30.319  29.126   4.249
57758W        W29287   5.883  12.617   1.426
57759W        W29288  39.440  30.947   2.081
57760W        W29289  17.882   8.071   0.056
57761W        W29290  11.348  27.557   2.669
57762W        W29291  40.012  18.581   1.718
57763W        W29292  34.824  33.986  13.899
57764W        W29293   6.811  37.679   4.613
57765W        W29294   2.738   6.365   1.341
57766W        W29295  11.248  43.233   3.731
57767W        W29296  42.995  21.153  13.841
57768W        W29297  11.652  27.327  10.067
57769W        W29298  37.521  17.552   1.294
57770W        W29299   6.889  33.354   2.176
57771W        W29300  25.523  29.492  11.463
57772W        W29301  13.227   8.395  12.791
57773W        W29302  12.645  21.490   0.965
57774W        W29303  10.061  12.767   2.169
57775W        W29304  19.772   6.676   4.593
57776W        W29305  10.265   7.210   4.007
57777W        W29306  33.925   4.441  12.474
57778W        W29307  27.476  43.745  12.297
57779W        W29308  37.971  25.260  13.084
57780W        W29309  14.766   4.243   3.603
57781W        W29310  30.847  41.976   1.438
57782W        W29311   3.866  14.665   2.219
57783W        W29312  44.896   2.878   1.483
57784W        W29313  12.450  44.934   0.825
57785W        W29314  10.208  32.907  13.042
57786W        W29315  23.662  37.815  11.264
57787W        W29316  13.674  40.853   3.130
57788W        W29317  10.776  27.499  12.881
57789W        W29318   4.711  21.517  12.004
57790W        W29319  10.604   3.143   4.545
57791W        W29320  25.995  25.557   1.958
57792W        W29321  34.960  41.477   2.140
57793W        W29322  34.724  21.620  14.887
57794W        W29323   9.440  10.754   4.732
57795W        W29324  12.633  35.947  10.684
57796W        W29325  34.662  32.298   4.809
57797W        W29326   1.828  20.001   0.771
57798W        W29327   6.042  19.635  12.496
57799W        W29328   5.747  30.468  12.444
57800W        W29329  25.009  41.931   2.996
57801W        W29330   7.332  41.036   4.214
57802W        W29331   7.107  25.584  13.194
57803W        W29332  34.346  42.633  13.810
57804W        W29333  17.335  42.914  10.785
57805W        W29334  32.971  38.697  14.166
57806W        W29335  40.000  39.775  13.444
57807W        W29336   4.511  35.504   1.205
57808W        W29337  18.077   4.257  12.081
57809W        W29338  27.936  42.036  13.529
57810W        W29339  43.860  39.387   2.395
57811W        W29340  44.511  16.235   0.916
57812W        W29341  10.196  33.542  11.548
57813W        W29342  35.208  15.841   4.932
57814W        W29343  24.238  16.075   2.870
57815W        W29344  21.786  33.483   2.971
57816W        W29345  16.616  16.576  10.777
57817W        W29346   5.662  34.125   4.166
57818W        W29347  24.293  26.679  10.755
57819W        W29348  12.267  20.587  13.123
57820W        W29349  18.705  18.191  13.949
57821W        W29350  27.123  24.624   2.577
57822W        W29351  19.676   1.616   1.690
57823W        W29352  15.283  24.558   4.093
57824W        W29353  27.021   9.122   3.832
57825W        W29354   3.379  31.893  12.394
57826W        W29355  26.208  11.359   0.913
57827W        W29356  40.523  11.330  12.507
57828W        W29357  13.593   3.122  11.168
57829W        W29358   0.935  33.584  12.870
57830W        W29359  42.030  16.042   2.059
57831W        W29360  41.224  18.621   4.077
57832W        W29361  18.806  11.299   0.933
57833W        W29362   7.214  17.738   2.939
57834W        W29363  18.719  44.752  11.737
57835W        W29364  42.319   1.765  12.002
57836W        W29365   2.457  40.546   0.243
57837W        W29366  44.012  21.955  10.754
57838W        W29367  37.449   6.157   3.100
57839W        W29368  31.481  40.824  14.807
57840W        W29369  24.427  24.241  11.135
57841W        W29370  35.985  37.810  13.478
57842W        W29371  25.401  21.651   0.729
57843W        W29372  31.005  17.046  13.262
57844W        W29373  12.798  22.313  13.980
57845W        W29374  25.227  42.753  12.003
57846W        W29375  39.395  37.404   0.837
57847W        W29376  21.582  15.031   4.278
57848W        W29377  28.119  10.561   3.633
57849W        W29378  18.102  40.492   1.815
57850W        W29379  32.601  24.656   4.378
57851W        W29380  23.263  19.831   1.959
57852W        W29381   6.815  21.681  12.432
57853W        W29382  23.428  40.112  10.782
57854W        W29383  42.814  44.764   1.888
57855W        W29384  28.934   8.387   0.154
57856W        W29385  15.933  14.493   1.358
57857W        W29386  41.077  23.844   3.405
57858W        W29387   0.294  35.439   3.787
57859W        W29388  22.697  39.420   3.734
57860W        W29389  17.901  18.168  11.472
57861W        W29390  34.954  38.788   1.611
57862W        W29391  15.929   7.273  10.710
57863W        W29392  28.789   4.773   2.419
57864W        W29393  19.258  29.184  14.946
57865W        W29394  15.011   8.396  12.365
57866W        W29395   0.483  36.583  11.053
57867W        W29396  41.483  39.990   4.789
57868W        W29397   0.754  24.571   0.379
57869W        W29398  25.148  11.748   3.599
57870W        W29399  12.170  16.074   3.125
57871W        W29400  21.446  19.366  11.071
57872W        W29401   9.592  34.672   2.175
57873W        W29402  31.268  19.176  11.964
57874W        W29403  13.757  13.728   4.557
57875W        W29404  30.994  27.978  13.899
57876W        W29405  37.847  38.516   4.899
57877W        W29406  30.834   8.845   0.685
57878W        W29407  32.100  27.694  11.516
57879W        W29408  18.539  10.154  11.552
57880W        W29409  39.305  23.726  11.884
57881W        W29410  26.747  31.378  13.352
57882W        W29411  27.287  43.127   3.494
57883W        W29412  12.694  32.484  11.027
57884W        W29413   1.294  40.955  11.968
57885W        W29414  24.663   8.810  14.298
57886W        W29415  19.576  26.540  11.455
57887W        W29416  33.668  13.437  12.820
57888W        W29417  19.235  27.661   2.271
57889W        W29418  41.085  29.907   0.188
57890W        W29419  40.873  17.983  14.205
57891W        W29420  42.646  20.149   3.291
57892W        W29421  16.179  28.934   3.134
57893W        W29422  35.173  22.498   0.474
57894W        W29423   0.730   6.784   1.628
57895W        W29424   8.304  44.964   1.707
57896W        W29425  24.211  22.246  10.652
57897W        W29426  34.340  41.376  11.501
57898W        W29427   5.523  42.412  10.576
57899W        W29428  22.218   0.520   0.491
57900W        W29429  41.933  11.466   3.706
57901W        W29430  30.111   5.920  10.599
57902W        W29431  31.055  25.606   2.271
57903W        W29432   0.971  11.728  13.002
57904W        W29433   6.858   0.298  12.515
57905W        W29434  19.071  35.643  12.837
57906W        W29435  33.141  42.246  13.087
57907W        W29436  21.271  17.267  12.003
57908W        W29437  36.674   0.304   3.869
57909W        W29438   6.413  38.410  11.364
57910W        W29439   0.986  32.870   2.888
57911W        W29440  11.095  17.889   4.576
57912W        W29441  43.703   6.483   1.791
57913W        W29442   1.982  27.567   2.201
57914W        W29443  32.310   8.226  11.979
57915W        W29444  32.940  34.401  12.398
57916W        W29445  22.497  11.076   1.520
57917W        W29446  16.041   0.803  10.633
57918W        W29447  10.297   1.304   3.325
57919W        W29448  41.728  33.171   2.857
57920W        W29449  41.568  19.691  12.174
57921W        W29450  22.178  36.764  13.814
57922W        W29451  23.474   9.654  10.834
57923W        W29452   2.489  26.854  12.007
57924W        W29453  16.057   7.673   3.324
57925W        W29454  37.939   2.303  12.626
57926W        W29455   7.057  34.840  14.298
57927W        W29456  42.482  41.025  14.364
57928W        W29457  27.607   9.468  12.933
57929W        W29458  26.972  20.265  11.878
57930W        W29459  28.638  39.454  11.515
57931W        W29460  38.088   3.207  13.066
57932W        W29461  36.658  27.934  10.492
57933W        W29462  24.105  30.234   2.221
57934W        W29463  21.132  29.967  11.995
57935W        W29464  11.605  30.275   0.290
57936W        W29465  22.985  12.170  14.487
57937W        W29466  32.620  17.438   3.592
57938W        W29467  24.347  15.175   2.881
57939W        W29468  21.023   3.414  13.390
57940W        W29469  42.928   8.647  14.063
57941W        W29470  22.646  38.769  13.610
57942W        W29471  16.644  24.762   1.412
57943W        W29472  38.027  35.273  13.368
57944W        W29473  10.672  33.885  13.130
57945W        W29474  12.372  34.889  14.357
57946W        W29475  26.205   3.786   3.368
57947W        W29476  30.450  15.101  13.296
57948W        W29477  12.861  24.943  11.054
57949W        W29478  20.598  21.619   1.708
57950W        W29479  24.178  44.376  10.614
57951W        W29480   5.293   4.312   1.258
57952W        W29481  32.948   8.648   3.150
57953W        W29482  43.767   1.115   4.228
57954W        W29483  44.880  23.307  14.950
57955W        W29484  37.983   9.978   0.778
57956W        W29485   6.075   7.619   2.432
57957W        W29486   5.259  25.674   2.700
57958W        W29487   1.732  40.024  11.761
57959W        W29488  13.803  19.727  13.816
57960W        W29489  22.727  30.470   1.936
57961W        W29490  22.064  36.842  12.932
57962W        W29491  40.887  34.494   0.118
57963W        W29492  23.987  24.002   4.533
57964W        W29493  22.486  12.800  12.045
57965W        W29494  36.175  30.206   1.522
57966W        W29495  22.484   5.268  11.962
57967W        W29496  43.527  41.874   4.647
57968W        W29497  18.365  12.658  12.958
57969W        W29498  11.666  39.878   3.700
57970W        W29499  12.147  21.429   1.873
57971W        W29500  17.066   5.489  14.302
57972W        W29501  37.163   7.255   3.824
57973W        W29502   6.407  17.330   2.166
57974W        W29503  13.043  24.967   4.571
57975W        W29504  22.064  17.539   2.410
57976W        W29505   7.887  11.795   1.180
57977W        W29506  28.023  31.382  11.553
57978W        W29507   4.990  44.773   2.391
57979W        W29508  30.231  41.544   1.272
57980W        W29509  28.683  16.564  11.029
57981W        W29510  44.555  10.683   1.166
57982W        W29511  38.928  41.320   2.588
57983W        W29512  19.033  29.168  13.200
57984W        W29513  16.546  34.246  11.229
57985W        W29514  39.536  20.637   2.887
57986W        W29515  40.494   0.736   0.898
57987W        W29516  42.270  42.508   2.209
57988W        W29517  27.202  43.123   0.147
57989W        W29518  22.131  38.860   0.733
57990W        W29519   3.727  17.350   3.923
57991W        W29520  39.059  15.925   4.313
57992W        W29521  24.009  30.652   5.028
57993W        W29522  18.044  24.443   1.808
57994W        W29523  21.749   3.154  14.483
57995W        W29524  10.792  42.438   4.627
57996W        W29525  10.654  27.877   2.718
57997W        W29526  31.240  23.594   4.632
57998W        W29527  40.996  19.277  10.631
57999W        W29528  37.888   5.768   1.614
58000W        W29529  16.725   1.895  12.381
58001W        W29530  37.461  30.498  10.751
58002W        W29531  15.512  35.883   4.187
58003W        W29532  37.130  44.855   2.294
58004W        W29533  13.520  28.746  14.029
58005W        W29534  10.161  22.412  11.828
58006W        W29535  39.949   8.336   3.910
58007W        W29536  36.030  43.009  14.329
58008W        W29537  25.048   9.293   2.702
58009W        W29538   6.377  11.617  12.096
58010W        W29539  16.133  13.473  11.895
58011W        W29540   8.171  26.541  12.156
58012W        W29541  20.880  32.113   5.164
58013W        W29542  29.394  34.028   3.193
58014W        W29543  16.232   5.420  13.985
58015W        W29544  38.370  14.402   3.692
58016W        W29545  19.988   3.867  10.911
58017W        W29546  36.556  14.375  12.546
58018W        W29547  41.080  18.742  14.013
58019W        W29548   4.171  37.599   3.816
58020W        W29549  40.460  26.202   0.388
58021W        W29550   5.267  11.949  11.220
58022W        W29551  11.259  28.962   3.189
58023W        W29552  18.624   6.649   2.390
58024W        W29553   0.314  27.731   1.894
58025W        W29554  18.551  32.030   4.122
58026W        W29555  23.526  19.280   1.896
58027W        W29556   8.431  27.967   3.996
58028W        W29557  10.301  31.320   1.890
58029W        W29558  42.629  18.065   2.356
58030W        W29559  29.927  26.583  12.434
58031W        W29560  39.847  22.344  12.885
58032W        W29561  19.725  43.496   0.768
58033W        W29562  14.678  10.354  11.091
58034W        W29563  24.903  31.352   1.816
58035W        W29564  12.879  16.666  12.504
58036W        W29565  25.619  23.153   3.774
58037W        W29566  18.237  33.874  12.524
58038W        W29567  35.424  34.984   3.850
58039W        W29568   8.665  15.698   4.226
58040W        W29569  16.596   4.921   2.384
58041W        W29570   3.520  13.419   2.422
58042W        W29571  31.006  37.999   3.631
58043W        W29572  29.423  39.057  13.926
58044W        W29573   0.702  28.431   2.712
58045W        W29574   1.160  30.938   0.712
58046W        W29575  18.290  29.986   1.007
58047W        W29576  22.598   2.518  13.610
58048W        W29577  30.064   4.847   4.146
58049W        W29578  32.173   1.881  10.650
58050W        W29579  15.698  30.514   3.307
58051W        W29580  28.961  38.044   4.776
58052W        W29581  33.447  31.058   3.410
58053W        W29582  39.056  43.144  14.511
58054W        W29583   0.980   7.400  13.009
58055W        W29584  15.044  17.513  14.343
58056W        W29585  35.541  10.172   0.725
58057W        W29586  13.017  36.248  14.887
58058W        W29587  12.819   1.477  13.960
58059W        W29588  16.624  11.854  13.960
58060W        W29589   2.174   9.883  11.234
58061W        W29590  23.517  20.708   1.481
58062W        W29591  11.724   9.336   2.717
58063W        W29592  32.070   7.483  12.443
58064W        W29593   8.755   8.138   3.745
58065W        W29594  12.977  31.262  14.951
58066W        W29595  38.807   3.271  14.884
58067W        W29596  10.204  16.128  13.080
58068W        W29597  16.038  11.149  12.151
58069W        W29598   7.677  21.550   3.303
58070W        W29599  11.388  32.033  10.250
58071W        W29600  40.470  33.416  12.046
58072W        W29601   2.658  32.336   0.057
58073W        W29602  41.081  10.749  12.172
58074W        W29603  22.426  23.188   2.370
58075W        W29604  14.138  35.785   4.373
58076W        W29605  41.779  40.537  13.311
58077W        W29606  14.153   1.755  13.153
58078W        W29607  34.252  38.122  11.150
58079W        W29608  42.871   7.261  14.321
58080W        W29609   5.520  44.021   3.193
58081W        W29610  43.303  16.997  12.926
58082W        W29611   3.545  26.243  10.699
58083W        W29612   7.145  42.987  12.008
58084W        W29613   1.162  37.508   4.890
58085W        W29614   6.342   9.621   0.728
58086W        W29615  32.659  29.110   1.010
58087W        W29616  13.645  13.200   3.630
58088W        W29617  31.509  18.287  11.968
58089W        W29618  19.497  17.932   2.999
58090W        W29619  42.732  15.303   1.482
58091W        W29620  30.214  17.648  14.394
58092W        W29621  43.495  29.457   2.815
58093W        W29622  20.230   8.511   2.457
58094W        W29623   7.889   5.965   2.658
58095W        W29624  10.952  17.382  14.854
58096W        W29625  28.242  41.552  14.450
58097W        W29626  24.736  14.224  11.785
58098W        W29627  28.696  22.179   2.283
58099W        W29628  31.997  40.770  12.985
58100W        W29629  41.895  14.219  10.962
58101W        W29630  26.885  40.356  13.326
58102W        W29631  25.264  42.401  11.177
58103W        W29632  44.981   0.374   0.716
58104W        W29633  36.247   2.041  10.272
58105W        W29634  36.334  37.580   5.247
58106W        W29635  44.004   9.367   3.656
58107W        W29636  17.912  23.414  12.963
58108W        W29637  26.272  42.823  14.432
58109W        W29638  37.930  20.339  14.078
58110W        W29639  33.043  14.248  13.777
58111W        W29640  28.147   5.079  12.365
58112W        W29641  13.632  18.707  13.035
58113W        W29642  10.266  28.489  12.042
58114W        W29643  43.433  28.490   0.050
58115W        W29644  20.784  39.899   2.680
58116W        W29645  14.340  38.528  14.028
58117W        W29646  29.594  15.876   4.491
58118W        W29647  16.758   6.676  11.632
58119W        W29648  38.102  10.192   2.152
58120W        W29649  16.310  34.468  14.434
58121W        W29650  44.121   5.894   3.558
58122W        W29651  16.784   1.171   1.506
58123W        W29652   4.462  43.721  10.583
58124W        W29653  42.534  13.284   3.843
58125W        W29654  23.197  40.428  11.646
58126W        W29655  26.027   8.740  14.472
58127W        W29656  44.935   4.737  13.137
58128W        W29657  27.407  38.780  12.614
58129W        W29658  27.399   7.410  12.497
58130W        W29659  35.213   5.941  12.553
58131W        W29660  44.004  20.597  12.204
58132W        W29661  31.084  44.810   3.370
58133W        W29662   7.159  35.905  13.811
58134W        W29663   4.189  19.158   1.685
58135W        W29664  39.936  12.974   3.651
58136W        W29665  42.464  14.298  14.361
58137W        W29666  43.313  35.920  10.449
58138W        W29667  40.932  35.679  12.049
58139W        W29668  32.050  11.089   2.381
58140W        W29669  24.791  36.528   3.690
58141W        W29670  23.672  28.231   2.234
58142W        W29671  37.294  43.181   2.880
58143W        W29672  35.435  23.053   0.819
58144W        W29673  43.485  11.057   3.259
58145W        W29674  38.290   4.292  12.051
58146W        W29675   9.572  26.457  10.962
58147W        W29676  10.215  22.782  10.381
58148W        W29677  14.263   4.479  14.468
58149W        W29678  21.518  14.123   4.165
58150W        W29679  32.455  32.528   2.414
58151W        W29680  14.338  37.875  11.667
58152W        W29681   1.953  16.162   3.145
58153W        W29682  13.887  40.323  13.404
58154W        W29683  33.031   4.779  13.583
58155W        W29684  44.689  20.558   2.406
58156W        W29685  28.601   6.842   0.282
58157W        W29686  16.438  11.481   4.068
58158W        W29687  39.484  33.197   4.464
58159W        W29688  22.113  35.426  10.717
58160W        W29689  35.930  27.222   1.850
58161W        W29690  43.058  29.978   4.101
58162W        W29691  19.881  44.335  14.974
58163W        W29692  32.954  32.985   3.766
58164W        W29693  19.885  25.258   0.960
58165W        W29694  26.218   7.227   0.013
58166W        W29695  36.011  14.945  12.877
58167W        W29696  15.679  22.154  10.092
58168W        W29697   9.095  40.293  11.480
58169W        W29698  22.948   3.967  14.877
58170W        W29699  34.874   1.778   0.327
58171W        W29700  40.584  42.818  11.192
58172W        W29701  39.347  38.562   4.803
58173W        W29702  31.886   7.979   2.699
58174W        W29703  15.651   7.718  13.769
58175W        W29704  11.342  36.146  10.426
58176W        W29705  22.190  31.317   3.778
58177W        W29706  26.031  23.471   0.928
58178W        W29707  12.094  11.510  11.381
58179W        W29708  39.548   9.834  12.554
58180W        W29709  15.607  17.359  14.730
58181W        W29710  23.782   9.138   0.317
58182W        W29711   2.867   5.772  12.014
58183W        W29712  33.565   1.917  10.756
58184W        W29713  23.121   1.262   0.497
58185W        W29714  27.419  25.487   2.554
58186W        W29715  33.559   3.503   4.115
58187W        W29716   0.312  19.927   3.509
58188W        W29717  18.893  21.710   2.028
58189W        W29718   8.580  31.892   4.576
58190W        W29719  35.389  27.014   0.883
58191W        W29720  15.101  11.392  14.292
58192W        W29721  24.958  16.962   1.493
58193W        W29722  19.195  33.597  11.402
58194W        W29723  40.258  31.577  14.505
58195W        W29724  16.002  11.218   1.329
58196W        W29725  44.246  40.482  10.008
58197W        W29726  31.506   3.509   3.066
58198W        W29727  10.491  35.282  12.075
58199W        W29728  35.023  43.084  12.824
58200W        W29729  42.416   7.862   1.223
58201W        W29730  44.802  30.464  10.945
58202W        W29731   6.789  17.933   0.001
58203W        W29732  39.212  35.047   4.663
58204W        W29733  44.379  29.812  13.431
58205W        W29734  37.379  21.201   0.825
58206W        W29735  27.961   2.390   1.061
58207W        W29736  14.605  39.063   3.431
58208W        W29737  28.544  26.437  13.144
58209W        W29738   1.549  36.553   4.982
58210W        W29739  13.853  10.194   0.318
58211W        W29740  42.881   3.914  11.570
58212W        W29741  13.865  43.497   4.980
58213W        W29742  16.272  31.265  12.064
58214W        W29743   3.497  33.434  14.732
58215W        W29744  12.848  35.361   4.537
58216W        W29745  11.346  25.006   0.941
58217W        W29746  29.616  36.522   3.826
58218W        W29747  14.938  17.784   1.442
58219W        W29748  11.914  43.337   2.442
58220W        W29749  34.454  29.552  14.117
58221W        W29750  18.862  21.250  10.346
58222W        W29751  38.342   2.856   0.021
58223W        W29752  14.036  30.121   0.925
58224W        W29753  14.221  12.360   4.899
58225W        W29754   2.599  25.570  14.638
58226W        W29755   5.413  38.360   3.203
58227W        W29756  41.396  10.388  14.028
58228W        W29757  37.907  35.607   4.173
58229W        W29758  39.214  41.619  10.222
58230W        W29759   6.393  19.813  10.259
58231W        W29760  25.224  37.948   3.331
58232W        W29761  12.109  20.506  12.334
58233W        W29762  41.769   1.309   4.622
58234W        W29763  42.299  11.598   1.401
58235W        W29764  28.996   9.446   2.232
58236W        W29765  39.192   8.447  13.812
58237W        W29766  18.998  22.252   5.029
58238W        W29767  21.782  16.632   2.760
58239W        W29768   2.288   3.503   3.488
58240W        W29769  36.988  10.746  10.541
58241W        W29770  38.024  24.531   0.371
58242W        W29771  20.094  36.145   0.037
58243W        W29772  22.146  39.917  14.808
58244W        W29773  26.001   9.725   2.405
58245W        W29774  27.683  19.124   0.544
58246W        W29775  11.062  29.989   4.564
58247W        W29776  34.165  12.363   1.898
58248W        W29777  12.120   5.498   0.933
58249W        W29778   8.660  35.350   3.521
58250W        W29779  11.844  42.622   0.402
58251W        W29780  33.552  26.431  10.623
58252W        W29781   3.941  42.993  14.474
58253W        W29782  10.894  26.577  11.136
58254W        W29783  16.826  14.402   4.181
58255W        W29784   7.772  10.692   1.949
58256W        W29785  29.651  20.772   1.642
58257W        W29786   0.297   1.707   3.721
58258W        W29787   2.752  14.898  14.528
58259W        W29788   8.894  27.342   4.097
58260W        W29789  16.535  37.571   1.718
58261W        W29790  23.191  17.028   4.123
58262W        W29791   8.199   5.963   4.349
58263W        W29792  25.275  38.434   2.825
58264W        W29793  41.586  10.612  12.079
58265W        W29794  23.786  27.609  11.111
58266W        W29795  14.196   4.700  10.876
58267W        W29796  37.305   3.818   4.734
58268W        W29797  31.657  32.371  10.372
58269W        W29798  36.621  42.999  10.506
58270W        W29799  43.196   5.716  11.712
58271W        W29800   4.640   6.462   3.291
58272W        W29801  12.161  21.440   3.214
58273W        W29802  43.334  29.830   3.679
58274W        W29803  12.108  28.470  10.678
58275W        W29804  36.550  22.108  10.625
58276W        W29805  15.201   3.673   4.331
58277W        W29806  34.103   4.604  10.735
58278W        W29807  23.253   4.418   0.844
58279W        W29808  17.137   4.490   3.202
58280W        W29809  11.761  39.084  12.983
58281W        W29810  14.547  40.509  13.921
58282W        W29811  41.565  39.974   0.025
58283W        W29812  14.290  25.173   2.815
58284W        W29813   2.940  27.495  14.867
58285W        W29814  30.050  41.830   0.530
58286W        W29815  21.944  22.858  11.410
58287W        W29816  29.711  11.276  11.286
58288W        W29817  39.096  39.801   2.466
58289W        W29818  41.156  40.955  10.452
58290W        W29819   0.304  20.256   3.076
58291W        W29820  26.632  30.022   2.822
58292W        W29821   7.338  33.173  12.914
58293W        W29822  29.132  19.070   4.678
58294W        W29823  19.455  29.886  11.377
58295W        W29824   6.606  23.707   4.631
58296W        W29825  36.659   2.369   0.141
58297W        W29826  28.084   1.876  11.999
58298W        W29827  21.671  29.775  13.966
58299W        W29828  39.950  18.105   4.204
58300W        W29829  26.492   4.709  13.324
58301W        W29830  18.575  19.215  13.821
58302W        W29831  19.586  18.617  11.403
58303W        W29832   6.320  30.598   5.052
58304W        W29833  21.670   9.780   4.659
58305W        W29834  17.781  23.258   4.446
58306W        W29835  31.949  34.567  13.041
58307W        W29836  20.434  16.080  12.820
58308W        W29837  22.000  21.251   2.962
58309W        W29838  22.645  30.837   2.319
58310W        W29839  21.745  40.849   4.147
58311W        W29840  29.547  10.832  11.144
58312W        W29841  11.811   2.742  11.084
58313W        W29842   9.402  36.339  12.923
58314W        W29843  38.334  24.507   0.813
58315W        W29844  24.008  28.087  10.882
58316W        W29845  23.926  35.645  12.052
58317W        W29846  10.876   0.081   2.157
58318W        W29847  40.432  14.792  12.460
58319W        W29848  33.886   7.731   1.378
58320W        W29849  37.446  28.952   2.203
58321W        W29850   0.942   4.465  14.308
58322W        W29851  39.888  36.032  11.204
58323W        W29852   9.182  29.859   1.782
58324W        W29853  18.583  18.280   0.995
58325W        W29854  40.396   8.281   4.178
58326W        W29855  44.992   3.405  12.104
58327W        W29856  41.511  28.939  14.890
58328W        W29857  11.520   8.246  11.728
58329W        W29858  42.991  16.683   2.473
58330W        W29859  10.483  12.315   0.901
58331W        W29860  33.831   2.818  14.888
58332W        W29861  41.552  20.055   2.074
58333W        W29862  41.997  44.706   3.755
58334W        W29863  29.879  11.819   0.589
58335W        W29864   3.379  27.949  10.634
58336W        W29865  12.136  35.631   1.532
58337W        W29866   6.100  31.458  12.101
58338W        W29867  42.364  27.209  12.828
58339W        W29868   0.816  22.230   2.292
58340W        W29869  30.819  19.774   4.094
58341W        W29870   3.197  43.395  14.454
58342W        W29871  41.996  40.979  11.624
58343W        W29872  35.921  28.004   4.573
58344W        W29873  17.694  39.386   2.107
58345W        W29874  25.015  25.224  14.706
58346W        W29875  33.824   1.169  12.116
58347W        W29876  37.023  41.947   4.646
58348W        W29877  20.210  37.423   9.940
58349W        W29878  34.431  34.914   0.179
58350W        W29879  42.839  31.651  14.557
58351W        W29880  24.590  22.286  14.408
58352W        W29881  15.288  34.610   1.493
58353W        W29882  18.288   0.426  11.612
58354W        W29883   7.755  41.532   3.255
58355W        W29884  14.623  10.412  14.748
58356W        W29885  27.487  34.031   0.784
58357W        W29886  12.142   7.839   1.893
58358W        W29887  31.813  38.427   2.285
58359W        W29888   9.160  36.421  14.456
58360W        W29889  24.618  32.954   1.390
58361W        W29890  43.458  11.338   3.697
58362W        W29891  30.032  43.536   3.774
58363W        W29892  17.630   8.564   1.402
58364W        W29893  18.587  19.019   3.333
58365W        W29894  28.121  32.193   5.053
58366W        W29895   3.264  29.394   4.083
58367W        W29896  10.733  26.989  12.992
58368W        W29897   5.829  15.426   2.995
58369W        W29898  20.786  15.702  12.867
58370W        W29899  43.828  40.285   0.336
58371W        W29900  42.276  24.515  14.597
58372W        W29901  27.133  17.092   1.225
58373W        W29902  40.437  33.000  13.971
58374W        W29903  15.332  31.369  12.053
58375W        W29904  29.452   1.581   2.171
58376W        W29905  15.841   4.300  12.030
58377W        W29906  18.017  20.893  12.002
58378W        W29907  38.532  33.650   0.880
58379W        W29908  10.241   7.670   1.548
58380W        W29909  31.041  35.211   4.503
58381W        W29910  23.136  43.747   4.163
58382W        W29911  37.032  15.090  12.095
58383W        W29912  11.919  31.045  13.951
58384W        W29913  28.274  36.499   1.444
58385W        W29914  20.997  13.655  11.423
58386W        W29915   8.953  32.380  14.519
58387W        W29916  40.896   8.933   1.835
58388W        W29917  29.709  10.880  12.330
58389W        W29918   5.616  32.567  12.474
58390W        W29919  26.808   0.246   2.842
58391W        W29920  26.255   0.853   4.152
58392W        W29921  26.525  19.949  10.490
58393W        W29922  31.192  20.704   1.771
58394W        W29923  33.898   2.287   0.834
58395W        W29924   0.722  32.588   4.072
58396W        W29925  27.484  39.837   2.563
58397W        W29926  44.895  21.024   3.308
58398W        W29927  31.643   4.908  13.016
58399W        W29928  32.964  12.131   2.186
58400W        W29929  29.438  10.297  10.318
58401W        W29930  33.542  39.840  11.081
58402W        W29931  40.688   1.914  12.561
58403W        W29932  15.355   7.860   3.883
58404W        W29933  14.182   3.179   2.413
58405W        W29934   2.509  22.204  11.847
58406W        W29935  15.580  20.660   0.385
58407W        W29936  21.969  41.338   2.418
58408W        W29937  35.573  43.517  11.852
58409W        W29938  18.637  26.189   0.588
58410W        W29939  44.477  19.649  11.221
58411W        W29940   7.286  17.941  14.855
58412W        W29941  26.172  35.111  11.806
58413W        W29942   7.396  14.669   4.649
58414W        W29943  37.819  36.349  12.655
58415W        W29944  35.923  43.863   1.659
58416W        W29945  30.503   6.324   3.766
58417W        W29946  19.866   8.805  14.251
58418W        W29947   6.961   5.405  13.492
58419W        W29948  37.000  29.961   4.572
58420W        W29949  17.116  31.479  11.260
58421W        W29950  44.790  16.201   1.360
58422W        W29951  38.029  36.219  11.201
58423W        W29952  31.648  39.466  10.720
58424W        W29953  29.494  17.701  11.338
58425W        W29954   4.066  21.538   2.696
58426W        W29955  43.258  25.664  14.354
58427W        W29956   8.790  27.546   0.409
58428W        W29957  35.596  13.232   4.564
58429W        W29958  17.791   5.959   0.419
58430W        W29959  36.397  30.699  12.971
58431W        W29960  35.871  20.240   0.817
58432W        W29961  28.910  34.653  14.049
58433W        W29962   4.696   5.862  11.606
58434W        W29963  17.015  44.978   1.286
58435W        W29964   5.808  36.579   4.584
58436W        W29965  40.492   3.159  13.836
58437W        W29966  11.283  41.996   1.394
58438W        W29967  32.722  30.553   3.076
58439W        W29968  41.189  24.473   1.749
58440W        W29969  10.560  44.754   1.270
58441W        W29970   6.022  17.573  10.229
58442W        W29971  20.653  29.514   1.956
58443W        W29972  37.725  27.033  11.120
58444W        W29973   5.146  21.109  11.649
58445W        W29974  18.922  12.666   4.139
58446W        W29975  40.208   2.348   1.438
58447W        W29976   3.117   3.833  13.001
58448W        W29977  11.068  13.376   2.343
58449W        W29978  31.872  31.574   4.851
58450W        W29979  38.962  18.808   1.481
58451W        W29980  31.645   0.704  14.395
58452W        W29981  11.727   9.669  14.931
58453W        W29982  14.610  33.605   1.883
58454W        W29983  12.310  23.039   4.913
58455W        W29984   7.856  42.110   3.727
58456W        W29985  12.977  40.928   0.907
58457W        W29986  27.274   1.339  13.023
58458W        W29987  39.361   8.571  12.892
58459W        W29988  37.508  31.490   1.951
58460W        W29989  15.598  20.646  11.606
58461W        W29990  31.374  21.482  11.134
58462W        W29991  19.760   8.213   3.566
58463W        W29992   6.664   7.339  11.183
58464W        W29993  35.269   4.961  13.425
58465W        W29994   1.468  25.783  11.036
58466W        W29995  34.600  31.937  11.650
58467W        W29996  28.609  29.472   0.334
58468W        W29997  36.429   8.934   0.832
58469W        W29998  19.347  27.772  14.954
58470W        W29999   3.979  10.651  13.990
58471W        W30000  10.214  43.993   2.723
58472W        W30001  32.541   2.447   0.314
58473W        W30002  20.246  38.316  11.970
58474W        W30003  33.558  13.862  11.469
58475W        W30004   7.192  12.503  14.320
58476W        W30005  40.237  23.968  12.019
58477W        W30006   4.145  17.180  11.686
58478W        W30007  12.352  24.848  11.088
58479W        W30008  11.035  42.125  10.790
58480W        W30009   4.846  19.162  14.516
58481W        W30010   9.882   6.019  12.500
58482W        W30011   6.990  37.446   0.819
58483W        W30012   6.827  43.519  14.010
58484W        W30013  13.239   1.276   1.853
58485W        W30014  38.175   9.327   4.960
58486W        W30015  36.598  42.066   2.824
58487W        W30016  26.499  22.382  11.121
58488W        W30017  24.316  15.582   3.601
58489W        W30018  22.169   4.718  10.649
58490W        W30019  33.222  43.382  10.759
58491W        W30020  20.212  25.440  13.838
58492W        W30021  11.716  39.938  14.776
58493W        W30022   0.280   8.855  14.114
58494W        W30023  29.488   6.848   0.512
58495W        W30024  35.374  30.019  11.064
58496W        W30025  20.069  41.635  12.326
58497W        W30026  12.744  35.977   4.897
58498W        W30027  35.633  42.330  13.835
58499W        W30028  35.018   4.452   2.842
58500W        W30029   9.330  22.430  14.079
58501W        W30030  15.856  12.221  10.198
58502W        W30031  20.120  43.918  10.791
58503W        W30032  44.977  21.226   1.317
58504W        W30033  33.294   8.902  11.554
58505W        W30034  18.043  30.838  12.108
58506W        W30035  22.147  25.349   2.797
58507W        W30036  33.639  12.215  10.086
58508W        W30037  39.676  42.442   2.473
58509W        W30038   3.536  30.502  11.063
58510W        W30039   4.030   2.982   1.346
58511W        W30040  39.064  23.001   2.291
58512W        W30041  10.405  39.479   4.257
58513W        W30042   0.400  16.914   2.881
58514W        W30043  16.739  36.117   3.693
58515W        W30044  19.766  17.263   0.805
58516W        W30045  35.346   6.041   4.111
58517W        W30046  34.367   2.648   3.356
58518W        W30047   4.907   0.466  11.562
58519W        W30048  33.404  23.419   2.165
58520W        W30049  18.049   7.156   1.934
58521W        W30050   7.619   8.145   4.435
58522W        W30051  29.754  37.496   3.105
58523W        W30052  25.224  26.627   3.119
58524W        W30053  17.163  12.077  10.587
58525W        W30054  34.048   3.478  14.375
58526W        W30055  39.924  40.608   3.227
58527W        W30056  33.632  15.742   0.276
58528W        W30057  30.087   7.675   0.492
58529W        W30058  19.520  36.606   0.853
58530W        W30059  39.541  22.539  13.279
58531W        W30060  14.105   0.168   0.203
58532W        W30061  34.981  11.637   4.441
58533W        W30062   0.924   9.731  11.248
58534W        W30063  44.470  17.684   2.406
58535W        W30064  37.067   8.135   3.288
58536W        W30065  28.865  22.644   2.422
58537W        W30066  14.805  14.741  14.855
58538W        W30067  22.724  41.337   3.714
58539W        W30068  38.346   1.318  10.585
58540W        W30069  34.953  40.988  13.835
58541W        W30070   2.292  25.373   3.262
58542W        W30071  37.324  34.279   1.875
58543W        W30072  28.009  12.829  10.731
58544W        W30073  12.649  35.067   3.118
58545W        W30074  40.123  30.491   2.998
58546W        W30075  19.121  16.042  14.872
58547W        W30076   8.697  44.387  13.071
58548W        W30077  31.791  12.287   0.350
58549W        W30078  33.487  14.140   0.825
58550W        W30079  18.512   4.608   2.127
58551W        W30080  43.755  24.310  14.420
58552W        W30081   2.842  29.176  10.633
58553W        W30082  35.603  27.665   2.803
58554W        W30083  14.557  28.010   1.751
58555W        W30084  29.515  31.409   0.293
58556W        W30085  14.217  36.919   1.775
58557W        W30086  32.548  18.312   0.993
58558W        W30087  27.170  29.407  14.573
58559W        W30088  33.162  31.134  12.603
58560W        W30089   6.285  12.379   1.214
58561W        W30090  15.142  18.708  13.330
58562W        W30091  25.867  39.538  12.118
58563W        W30092  28.655   3.276  14.965
58564W        W30093  16.604   9.250   1.930
58565W        W30094  27.882  37.647  11.878
58566W        W30095  36.603   9.465  13.663
58567W        W30096  34.728   1.218  11.075
58568W        W30097   4.569   8.704   0.633
58569W        W30098   1.359  15.137   4.559
58570W        W30099  21.289  37.123  13.515
58571W        W30100   1.400   1.894   0.052
58572W        W30101  37.945  25.957  11.942
58573W        W30102  16.647  22.028  13.917
58574W        W30103  13.988  34.149  14.067
58575W        W30104   9.282  44.453   0.746
58576W        W30105   9.643   7.099  10.460
58577W        W30106  43.290  37.923   1.001
58578W        W30107   0.756  26.252   0.639
58579W        W30108  35.890  20.021  12.328
58580W        W30109  32.585   6.039  12.990
58581W        W30110  11.061  39.343   2.116
58582W        W30111  17.420  42.223   2.112
58583W        W30112  18.065   5.707   3.214
58584W        W30113   3.862  32.591   4.704
58585W        W30114   6.235  35.318   2.698
58586W        W30115  21.400  36.351  12.470
58587W        W30116  29.553   3.345  12.028
58588W        W30117  33.942  39.427   1.424
58589W        W30118  34.899  44.240   4.554
58590W        W30119  33.017  38.602   3.159
58591W        W30120  32.172  22.304   2.242
58592W        W30121  35.254  22.752  13.447
58593W        W30122  27.437  21.093  12.602
58594W        W30123  19.142  16.396  14.455
58595W        W30124  27.704  10.892   2.832
58596W        W30125   2.554  31.684   3.696
58597W        W30126  34.287  30.605  11.493
58598W        W30127  37.869  17.507   4.157
58599W        W30128  21.025  23.212   1.843
58600W        W30129  37.921  39.977  14.443
58601W        W30130  31.009  37.014   3.489
58602W        W30131  32.710  16.693  13.980
58603W        W30132  42.387  37.648  14.978
58604W        W30133  38.346   9.568   3.735
58605W        W30134   5.856  21.265  13.484
58606W        W30135  16.805  23.287   2.673
58607W        W30136  33.805   8.137  14.537
58608W        W30137  29.553  24.514   0.031
58609W        W30138  33.508  24.152  10.601
58610W        W30139  11.347   0.224  12.891
58611W        W30140  36.728  22.072   1.925
58612W        W30141  17.214  19.628  12.426
58613W        W30142  41.303  22.159  13.515
58614W        W30143  18.954  15.615  11.609
58615W        W30144  17.612  14.586   1.989
58616W        W30145  35.336  44.928  12.489
58617W        W30146  12.718  25.067   1.179
58618W        W30147  32.901  17.124  13.273
58619W        W30148  41.199  27.044  14.054
58620W        W30149   9.578  38.908   4.262
58621W        W30150  44.439  42.644  10.211
58622W        W30151  28.371  39.867   4.565
58623W        W30152  10.685  27.835  13.268
58624W        W30153  28.831  18.154   3.222
58625W        W30154  10.446  42.504   2.695
58626W        W30155  24.428  29.827   4.093
58627W        W30156  15.902  23.638  14.743
58628W        W30157  30.100  16.878  10.100
58629W        W30158   5.784   6.434   0.325
58630W        W30159  13.407  36.444  13.342
58631W        W30160  21.588  43.081   4.773
58632W        W30161  12.736  25.462  13.532
58633W        W30162  21.913  28.397  13.078
58634W        W30163  38.263  14.215  14.398
58635W        W30164  20.781  13.595  14.902
58636W        W30165   4.320   7.611  11.192
58637W        W30166   6.920   6.670  11.960
58638W        W30167  39.601  34.453   4.068
58639W        W30168  36.020   2.259  10.688
58640W        W30169   7.946  17.009  10.338
58641W        W30170  38.864  40.329  13.180
58642W        W30171   3.823   8.007  14.083
58643W        W30172  11.980   4.414  13.555
58644W        W30173  43.484  28.301   2.154
58645W        W30174  38.819   2.347   3.223
58646W        W30175   0.836  21.627  13.013
58647W        W30176   2.530  16.688   2.822
58648W        W30177  37.713  23.915  14.528
58649W        W30178  22.375  31.929   2.369
58650W        W30179  43.952  27.350   2.593
58651W        W30180   5.836  36.570   1.949
58652W        W30181   6.291  41.684  14.777
58653W        W30182  12.593  27.938  12.009
58654W        W30183  44.453  17.264   0.757
58655W        W30184  27.571  15.095  12.189
58656W        W30185   1.902  39.866  11.316
58657W        W30186  24.681  29.791   1.204
58658W        W30187   6.590  15.021   0.342
58659W        W30188  22.056   7.429   4.919
58660W        W30189  10.817  44.020  14.881
58661W        W30190  21.774  15.695   3.597
58662W        W30191  39.311   9.739   4.190
58663W        W30192  42.767  37.924   0.847
58664W        W30193  25.118  19.690  10.767
58665W        W30194  13.425  33.089  13.463
58666W        W30195  31.210  12.718   3.246
58667W        W30196  32.002   1.217   5.227
58668W        W30197  29.457  24.115   4.685
58669W        W30198  31.759  26.966   3.642
58670W        W30199  24.938  25.334  12.459
58671W        W30200  22.815  23.665   4.987
58672W        W30201  35.844   3.212   4.902
58673W        W30202  37.583  27.552   3.148
58674W        W30203  22.753   3.837  10.511
58675W        W30204   3.020  43.291  10.737
58676W        W30205  24.952  42.934   3.343
58677W        W30206  19.068  33.950   2.248
58678W        W30207  31.866  12.153  11.094
58679W        W30208  43.423  10.953  11.622
58680W        W30209  17.080  25.149   3.723
58681W        W30210  23.274  33.987   0.872
58682W        W30211  26.559  28.114  14.901
58683W        W30212  41.406  44.427  13.907
58684W        W30213  23.233  24.022  11.403
58685W        W30214  20.202  40.302   1.303
58686W        W30215  18.332   3.938   3.927
58687W        W30216  27.218  34.177   3.251
58688W        W30217  28.001  22.927   0.855
58689W        W30218  25.560  11.583   2.414
58690W        W30219   0.420  11.720   4.156
58691W        W30220  37.606  15.065   2.874
58692W        W30221  40.250  25.869  10.773
58693W        W30222  29.214  13.271   3.564
58694W        W30223  11.164  25.278  12.048
58695W        W30224  15.743  31.457  12.329
58696W        W30225  12.794  44.844  11.963
58697W        W30226  28.018   7.182   0.634
58698W        W30227  11.617  21.171   3.863
58699W        W30228   7.260  27.538   1.853
58700W        W30229   8.674  30.108   4.310
58701W        W30230  23.712  43.343   3.265
58702W        W30231   7.417  11.698   4.603
58703W        W30232   8.671  36.416  12.405
58704W        W30233   9.708  33.569  14.843
58705W        W30234  27.974  25.178   4.352
58706W        W30235  14.800  34.606  11.976
58707W        W30236  29.250  26.746   3.327
58708W        W30237   8.153  17.804  10.731
58709W        W30238  20.336   7.791  10.689
58710W        W30239   6.270   0.555   1.413
58711W        W30240   9.803  40.786   0.702
58712W        W30241  35.042   4.377   0.492
58713W        W30242  35.000   6.397  11.210
58714W        W30243   6.638  37.504  10.658
58715W        W30244  44.365  30.981   4.762
58716W        W30245  44.029  17.175  14.453
58717W        W30246   1.027  29.527   4.177
58718W        W30247  28.045  32.984  11.121
58719W        W30248  20.635  12.545  13.131
58720W        W30249  43.846  42.651  14.012
58721W        W30250  19.706  14.828  11.613
58722W        W30251  21.598  24.823  14.850
58723W        W30252  33.040  14.877   4.338
58724W        W30253  10.089  39.532   4.687
58725W        W30254   9.395  15.344  10.740
58726W        W30255  10.802  43.991   0.842
58727W        W30256  16.606  39.380   2.230
58728W        W30257  33.733  17.231   5.193
58729W        W30258  13.148  12.072  10.824
58730W        W30259  13.878  39.641   4.528
58731W        W30260  33.259   9.786   2.714
58732W        W30261  10.015  24.729  11.144
58733W        W30262   0.072  30.546  11.352
58734W        W30263   8.927  19.802  13.981
58735W        W30264  22.989  28.555   2.874
58736W        W30265  11.326  24.565  11.635
58737W        W30266   0.259  36.234  12.851
58738W        W30267  10.259  34.890   2.331
58739W        W30268  28.584  41.522  10.664
58740W        W30269  16.330  12.974  13.923
58741W        W30270  27.958  42.804  10.073
58742W        W30271  19.193  20.683  13.124
58743W        W30272  10.580   9.487  12.958
58744W        W30273  29.934  42.553  11.798
58745W        W30274  18.856   7.313  14.802
58746W        W30275  22.735  34.975   3.161
58747W        W30276  40.529  21.520   1.659
58748W        W30277  29.909  23.783   9.770
58749W        W30278  13.319  36.863  12.035
58750W        W30279  19.483  11.211  14.063
58751W        W30280  26.176  16.648   3.177
58752W        W30281  13.340  21.199  11.724
58753W        W30282  27.347  35.718  10.805
58754W        W30283  17.075  41.164  10.395
58755W        W30284  34.439  41.395   4.700
58756W        W30285  41.751   3.923  12.937
58757W        W30286   9.330  44.704  10.964
58758W        W30287  29.686   4.423  10.547
58759W        W30288  29.990   9.411   2.108
58760W        W30289  14.314  37.570   4.581
58761W        W30290   7.346  23.064  11.065
58762W        W30291  39.458  35.581   4.107
58763W        W30292   6.223  39.785   2.761
58764W        W30293  34.391   3.380   1.602
58765W        W30294  10.293  16.557  12.797
58766W        W30295  20.179  27.032  10.876
58767W        W30296  18.997  25.790  10.654
58768W        W30297  27.662   6.838   3.627
58769W        W30298  25.557  16.305   0.566
58770W        W30299  20.697  24.059   2.148
58771W        W30300  37.402  16.781  14.927
58772W        W30301   3.190  25.566   2.341
58773W        W30302  10.694  18.610   4.090
58774W        W30303   8.546   8.868   3.241
58775W        W30304  13.405  27.906   2.581
58776W        W30305   9.814  31.720  13.326
58777W        W30306  44.583  19.078   4.107
58778W        W30307  28.937  14.268  14.309
58779W        W30308  16.078  11.767  10.031
58780W        W30309  24.866   1.942   3.324
58781W        W30310  30.572  10.945   4.549
58782W        W30311  29.180  43.633   1.928
58783W        W30312  26.677   2.886   3.619
58784W        W30313  22.535  37.096  13.075
58785W        W30314  34.309   5.859   0.538
58786W        W30315  26.710  15.253   5.017
58787W        W30316   7.759   8.243   1.890
58788W        W30317  12.455  17.556  12.414
58789W        W30318  18.800  37.909   2.777
58790W        W30319  25.646  35.611  13.485
58791W        W30320  20.561  34.608   3.692
58792W        W30321  29.967  32.507  11.572
58793W        W30322  10.389   2.216  10.638
58794W        W30323   8.140  28.067   3.512
58795W        W30324   1.514  16.443  12.098
58796W        W30325  19.561   0.281  13.373
58797W        W30326  39.905   8.301   4.413
58798W        W30327  22.909  26.613   2.739
58799W        W30328  38.602  10.628  13.970
58800W        W30329  16.069   1.308  14.249
58801W        W30330  38.502  28.129   3.660
58802W        W30331  36.942  25.680   2.615
58803W        W30332  27.731  35.568  12.220
58804W        W30333  39.811  38.535  10.555
58805W        W30334  26.076  34.952  10.988
58806W        W30335  25.704  24.015   2.242
58807W        W30336  20.238  20.839  11.928
58808W        W30337  12.228   9.852   4.144
58809W        W30338   7.538  23.861   0.553
58810W        W30339  36.381  44.300   4.741
58811W        W30340  35.904  40.521  11.004
58812W        W30341  14.702  44.406   2.781
58813W        W30342  15.617  12.733  13.417
58814W        W30343   7.984  21.624   4.600
58815W        W30344  25.332  33.743   0.046
58816W        W30345  15.859  27.707  14.074
58817W        W30346  42.659  30.077  12.454
58818W        W30347  10.352  13.581  13.107
58819W        W30348   7.870  39.300  14.785
58820W        W30349   0.032   8.629   1.118
58821W        W30350  14.334  12.125   0.946
58822W        W30351  34.158  38.967  13.986
58823W        W30352  43.571  10.112  13.355
58824W        W30353  25.827  14.748   3.739
58825W        W30354  24.638  15.148  10.953
58826W        W30355  18.690   3.770   1.998
58827W        W30356  31.171  38.230  12.879
58828W        W30357  22.196   3.551   1.184
58829W        W30358  10.568  18.009   4.163
58830W        W30359  41.118  37.874   1.639
58831W        W30360   1.832  34.603  13.487
58832W        W30361   4.481  37.213   2.282
58833W        W30362  41.186  25.710   1.827
58834W        W30363  31.332  16.570   2.556
58835W        W30364  26.228   7.618   3.922
58836W        W30365  34.056  24.672   1.930
58837W        W30366  32.881  30.404   4.336
58838W        W30367  16.475  44.488   0.764
58839W        W30368  10.331  17.034  11.890
58840W        W30369  31.414   9.545   1.660
58841W        W30370  19.373   8.248   1.377
58842W        W30371  36.561   8.956  13.582
58843W        W30372  24.997   2.740   1.347
58844W        W30373  10.820  42.685  12.092
58845W        W30374  13.727   3.156  14.414
58846W        W30375  20.496   3.858  14.432
58847W        W30376   3.701   3.923  11.215
58848W        W30377  12.335  38.528  12.187
58849W        W30378  37.919  38.324   1.968
58850W        W30379  12.405   5.754   2.267
58851W        W30380  33.201  15.128  11.789
58852W        W30381  34.386   0.245  11.435
58853W        W30382  33.157  19.576  11.095
58854W        W30383   7.338  44.172   3.183
58855W        W30384  26.222  10.916   0.230
58856W        W30385  37.073  38.807   3.169
58857W        W30386  35.653  18.633  14.802
58858W        W30387  33.457  20.605  10.602
58859W        W30388   6.401  13.085  10.461
58860W        W30389  14.633  10.265   4.001
58861W        W30390  44.019   2.653   3.273
58862W        W30391   6.749  35.655  13.046
58863W        W30392  31.021  18.157  11.104
58864W        W30393   6.432  42.817  10.230
58865W        W30394  20.882   5.114   1.871
58866W        W30395  12.301  33.367   2.849
58867W        W30396  35.548   3.744  13.362
58868W        W30397  43.729  27.243   0.315
58869W        W30398  14.329  24.168  11.311
58870W        W30399  13.920  33.966   4.073
58871W        W30400   8.809  25.655   0.755
58872W        W30401   1.001  15.210   2.859
58873W        W30402   8.927  10.837  12.505
58874W        W30403  32.210  32.562   1.950
58875W        W30404  22.390  40.536  11.213
58876W        W30405   1.733  34.932  11.373
58877W        W30406  33.752  24.424   2.294
58878W        W30407  12.179  22.583  10.507
58879W        W30408  27.417   6.721  14.175
58880W        W30409  41.931  19.601   4.173
58881W        W30410  15.856  25.153   1.024
58882W        W30411   2.976  44.966  11.654
58883W        W30412  43.336  28.136  13.017
58884W        W30413  27.982  40.684   0.343
58885W        W30414  39.741  18.033   4.686
58886W        W30415   6.731   7.104  10.702
58887W        W30416  37.928  27.901   0.479
58888W        W30417  44.424  30.817  12.436
58889W        W30418   8.607   0.274  12.888
58890W        W30419  43.653  41.576  12.098
58891W        W30420  23.663  36.879   0.824
58892W        W30421  28.949   1.864   1.946
58893W        W30422  23.204  27.239  11.801
58894W        W30423  44.161  29.482   0.546
58895W        W30424  41.510  36.280   2.770
58896W        W30425   1.378   6.470   3.616
58897W        W30426  32.828   8.750  11.777
58898W        W30427  37.565  37.500  14.382
58899W        W30428  40.848  42.299  12.493
58900W        W30429  30.932   5.281   4.398
58901W        W30430  22.086  15.208   3.628
58902W        W30431  16.175  22.062   1.384
58903W        W30432  11.959  27.552   3.891
58904W        W30433  30.575  17.361  13.355
58905W        W30434  29.065  21.339   2.150
58906W        W30435   8.780  37.369  10.889
58907W        W30436  41.181   5.724  12.976
58908W        W30437  26.499  30.693   1.797
58909W        W30438  35.970  43.019   4.718
58910W        W30439  28.959  23.592   4.063
58911W        W30440   5.819  37.761  12.506
58912W        W30441  12.303  37.996  10.621
58913W        W30442   6.344  26.791  12.181
58914W        W30443  42.298  28.323   3.848
58915W        W30444  40.119  25.614   2.826
58916W        W30445   4.828   3.459   4.289
58917W        W30446   9.676   9.057   1.399
58918W        W30447  13.769   2.095   3.634
58919W        W30448   4.801  14.760  11.131
58920W        W30449  34.602  39.765   0.748
58921W        W30450   5.892  28.134  11.909
58922W        W30451  12.899   0.303   4.652
58923W        W30452  20.017  23.279   2.113
58924W        W30453  30.543  13.907  13.982
58925W        W30454  39.953  41.710   1.917
58926W        W30455  11.983  39.813  10.782
58927W        W30456  19.279   6.922  10.753
58928W        W30457   1.945  39.610   2.649
58929W        W30458  22.708  12.650   3.615
58930W        W30459  33.845  31.552  12.985
58931W        W30460  22.099  18.716  14.446
58932W        W30461  30.221  31.648  14.046
58933W        W30462  17.988  24.290  14.376
58934W        W30463   0.442  43.938   4.558
58935W        W30464  20.544   2.182   2.993
58936W        W30465   2.465  20.738   2.271
58937W        W30466  24.228   3.996   3.013
58938W        W30467  42.943  25.786  12.269
58939W        W30468  13.700  17.092  11.563
58940W        W30469  42.784  25.082   2.992
58941W        W30470   5.571  39.828   1.748
58942W        W30471   0.186  24.311  12.508
58943W        W30472  44.967  10.276  13.072
58944W        W30473  17.592   5.726  14.094
58945W        W30474  12.795  34.664   1.206
58946W        W30475  14.827   6.885  10.712
58947W        W30476   7.298   5.317  13.887
58948W        W30477   4.057  15.930   3.183
58949W        W30478   1.653  31.864  10.643
58950W        W30479  19.132  32.549   3.969
58951W        W30480  20.067  39.574   4.095
58952W        W30481  22.019  38.858   3.082
58953W        W30482   7.899  21.017  14.812
58954W        W30483  23.784  39.591   0.690
58955W        W30484  29.161  19.766  10.718
58956W        W30485  29.725  10.184  14.421
58957W        W30486  41.587  24.448  11.634
58958W        W30487  22.752   6.324   1.288
58959W        W30488  33.932  39.912   1.651
58960W        W30489  11.654  31.012   3.635
58961W        W30490  14.207  13.886  13.614
58962W        W30491  34.154   8.334   3.212
58963W        W30492  36.055  11.673  12.900
58964W        W30493   5.397  36.632  13.769
58965W        W30494  12.175  14.198  14.818
58966W        W30495  11.775  23.785  13.979
58967W        W30496   0.714   5.827   1.883
58968W        W30497  40.738  24.163   3.203
58969W        W30498  23.510   2.610  12.058
58970W        W30499  26.601  28.551   4.561
58971W        W30500  28.600  23.927   4.242
58972W        W30501  39.676  33.426   4.886
58973W        W30502  29.163   8.394  12.886
58974W        W30503  30.634   7.455   3.316
58975W        W30504  18.891   4.707  11.642
58976W        W30505  29.946  39.365  11.264
58977W        W30506   0.281  38.072  14.223
58978W        W30507  39.370  41.092  11.953
58979W        W30508  24.917  43.737   4.253
58980W        W30509  16.334   0.878  14.426
58981W        W30510   6.316  38.870  10.451
58982W        W30511  21.097  23.990  13.035
58983W        W30512  27.926  13.523  12.225
58984W        W30513  16.508  26.197  10.729
58985W        W30514  17.316  31.054   3.652
58986W        W30515  10.833  26.250   3.198
58987W        W30516   5.219  44.569   0.820
58988W        W30517  33.365  17.693  14.966
58989W        W30518  41.824  23.065  10.681
58990W        W30519   7.603  19.770  13.499
58991W        W30520  16.285  22.311  10.748
58992W        W30521  16.384  21.635   2.645
58993W        W30522  41.332  40.346   2.766
58994W        W30523  25.446  44.067   0.779
58995W        W30524  27.180  13.629  14.737
58996W        W30525  17.347  12.571  11.704
58997W        W30526  20.145  27.751   3.674
58998W        W30527   9.783  43.540  14.865
58999W        W30528  33.355  11.357  11.654
59000W        W30529   7.400  31.841   4.380
59001W        W30530  35.447  35.885   2.911
59002W        W30531  24.663  11.678   2.210
59003W        W30532  24.192  14.698  11.180
59004W        W30533  36.812   3.364   2.225
59005W        W30534  22.665  18.835   1.455
59006W        W30535  41.564  19.003   4.791
59007W        W30536  10.095  37.453  13.887
59008W        W30537  25.127  16.560   3.979
59009W        W30538  21.705   9.034   1.272
59010W        W30539   9.463  30.951  12.506
59011W        W30540   8.806  25.207  11.093
59012W        W30541  20.503   7.444  12.606
59013W        W30542  32.926  32.825   4.651
59014W        W30543  21.943  39.815   2.243
59015W        W30544  44.492   2.181   2.360
59016W        W30545  37.138   1.264   4.573
59017W        W30546  30.382  39.613  11.129
59018W        W30547  30.588   2.024   3.199
59019W        W30548  15.906  14.323  12.159
59020W        W30549  30.238   0.331   2.467
59021W        W30550   9.421  34.036  13.910
59022W        W30551  11.171  37.242  13.021
59023W        W30552   6.881   2.269   2.727
59024W        W30553  33.314  30.767   1.974
59025W        W30554   0.387  25.274  12.369
59026W        W30555  11.848  36.921  13.938
59027W        W30556  35.284  35.010  10.723
59028W        W30557  16.420  40.384  11.938
59029W        W30558  36.720   4.074  11.159
59030W        W30559  28.412  10.703  14.034
59031W        W30560   4.868  30.083   3.214
59032W        W30561  42.968  22.924   2.045
59033W        W30562  11.625  38.912   2.591
59034W        W30563  22.734   4.502   0.954
59035W        W30564   9.593  16.161   1.256
59036W        W30565  28.958  18.474  13.506
59037W        W30566  15.732  40.769  14.346
59038W        W30567  24.497  33.131  11.642
59039W        W30568  21.128  26.724   0.953
59040W        W30569  44.121   5.420   2.478
59041W        W30570  39.626   5.369  12.871
59042W        W30571   6.191  40.957  14.298
59043W        W30572   3.940   0.693  10.703
59044W        W30573  41.371  34.090   1.863
59045W        W30574  19.186  39.228   4.130
59046W        W30575  10.130  29.990   0.352
59047W        W30576   7.177  33.591  13.796
59048W        W30577   1.169  23.155  11.682
59049W        W30578  12.103  39.830   4.269
59050W        W30579  32.368   4.755   0.262
59051W        W30580  39.392   7.737   0.952
59052W        W30581  11.450  27.712  11.549
59053W        W30582  19.124  39.532   0.685
59054W        W30583  17.944  34.372   3.620
59055W        W30584  27.497  11.157   0.491
59056W        W30585   3.724  44.819  10.576
59057W        W30586  19.534  30.294  14.553
59058W        W30587  26.991   7.104  12.631
59059W        W30588  38.329  26.581  12.970
59060W        W30589  25.255  27.101  14.530
59061W        W30590  40.800  21.028   2.302
59062W        W30591   6.888  43.935   3.115
59063W        W30592   9.310  40.759   2.792
59064W        W30593  33.936  12.162  11.758
59065W        W30594  37.932  35.488   0.778
59066W        W30595   1.265  26.708   3.275
59067W        W30596  27.068  22.256   2.662
59068W        W30597   4.111  15.563  11.163
59069W        W30598  36.189  36.425  10.850
59070W        W30599  43.949  11.199   3.417
59071W        W30600  21.310  25.694  13.038
59072W        W30601  17.385  13.875   0.409
59073W        W30602  27.679  42.926   1.408
59074W        W30603  29.106  39.964   1.691
59075W        W30604  18.989  19.543  12.128
59076W        W30605  43.526  30.455  13.433
59077W        W30606  40.294  35.477  12.020
59078W        W30607  43.935  10.198  10.464
59079W        W30608  14.368  19.017  14.295
59080W        W30609  22.110  18.974  14.001
59081W        W30610  10.413  27.030  13.426
59082W        W30611  26.629  23.740  13.756
59083W        W30612  44.054   1.273   3.260
59084W        W30613  25.364  15.080  11.498
59085W        W30614  33.074  29.183   1.303
59086W        W30615  38.996  36.127  11.246
59087W        W30616  10.710  25.517  12.108
59088W        W30617  36.693  33.124   3.608
59089W        W30618   1.895  25.329   4.711
59090W        W30619  39.484   7.577   1.826
59091W        W30620  43.899   6.160   0.915
59092W        W30621   5.434  31.722  13.862
59093W        W30622   0.923  21.449  14.489
59094W        W30623  42.890  10.353  13.823
59095W        W30624   3.355  20.274  12.033
59096W        W30625  33.563  19.713   0.940
59097W        W30626  19.099  28.260   4.200
59098W        W30627  20.299  43.325  11.411
59099W        W30628   7.894  34.494   1.251
59100W        W30629  12.273   0.821  13.088
59101W        W30630  25.466   9.601   1.305
59102W        W30631   1.843  10.724   2.834
59103W        W30632   8.622  26.255   3.133
59104W        W30633  37.716   6.755  12.546
59105W        W30634  11.949   4.394  14.936
59106W        W30635   2.369  39.085  12.688
59107W        W30636  26.071   9.730  14.478
59108W        W30637  40.913  41.519   2.665
59109W        W30638  37.991  21.994  13.238
59110W        W30639  21.976  34.352   3.591
59111W        W30640  11.519  41.285   0.685
59112W        W30641  40.415  17.610   4.361
59113W        W30642  31.122  14.624  14.542
59114W        W30643  11.707   5.017  11.923
59115W        W30644  31.122   7.006  13.537
59116W        W30645  24.402  13.159  11.888
59117W        W30646  26.527  24.932  12.416
59118W        W30647  31.552  38.992   1.686
59119W        W30648  32.523   3.307  13.150
59120W        W30649  19.317   8.888  11.573
59121W        W30650   0.530  30.527   1.359
59122W        W30651  17.192  19.681  13.615
59123W        W30652  34.707  18.082   4.127
59124W        W30653   6.328  16.690  13.970
59125W        W30654  10.492  11.152  14.450
59126W        W30655  15.565   2.912   2.735
59127W        W30656  31.476   9.191  11.918
59128W        W30657  19.600  38.743  11.269
59129W        W30658  28.606  35.466   2.832
59130W        W30659  19.723  39.302   0.006
59131W        W30660   7.338  25.890  11.317
59132W        W30661  43.430  23.525  10.679
59133W        W30662  42.443  23.397  13.020
59134W        W30663   9.288  24.568   1.576
59135W        W30664  25.447  28.933   4.850
59136W        W30665  37.489  30.242   4.598
59137W        W30666   5.669  23.442   1.819
59138W        W30667  29.977  34.430   1.967
59139W        W30668  33.004   5.005  14.523
59140W        W30669  29.805  12.702  10.729
59141W        W30670  37.667  44.837   2.249
59142W        W30671  28.924  13.629   4.850
59143W        W30672  43.243  37.100   5.230
59144W        W30673  14.800  25.938   0.191
59145W        W30674  25.906   5.768  14.019
59146W        W30675   8.342  14.658  13.090
59147W        W30676  10.373  44.905   2.184
59148W        W30677   1.927  14.510  12.329
59149W        W30678  29.335  34.748   2.251
59150W        W30679  15.596  21.837   3.328
59151W        W30680   4.717  14.259   1.849
59152W        W30681  31.177  18.668  12.189
59153W        W30682  33.748  41.585   0.428
59154W        W30683  35.872  42.507  12.954
59155W        W30684  15.746  41.276  13.031
59156W        W30685  11.902  27.096  10.647
59157W        W30686  41.971   4.175   1.702
59158W        W30687  32.390  26.991   2.389
59159W        W30688  19.060  40.464  13.199
59160W        W30689  42.096  39.416  14.768
59161W        W30690  14.841   7.221  13.110
59162W        W30691   8.977  21.690  12.088
59163W        W30692   6.221  40.753   1.247
59164W        W30693  30.245  39.446   0.792
59165W        W30694  36.526  38.125  12.311
59166W        W30695  22.122  10.433  14.426
59167W        W30696  32.677  44.678  10.923
59168W        W30697   9.423  10.719  12.641
59169W        W30698  27.338  12.081  10.743
59170W        W30699  18.106  34.182  14.217
59171W        W30700  41.897  13.702  13.748
59172W        W30701  15.627  29.706  10.447
59173W        W30702   5.307  13.238   4.608
59174W        W30703  15.334  12.091  11.111
59175W        W30704   9.624  13.667  10.869
59176W        W30705  21.182  30.887   0.094
59177W        W30706   2.694  44.129  13.849
59178W        W30707  18.236   8.701  12.972
59179W        W30708  12.258  39.927  13.736
59180W        W30709  29.188  28.346  11.517
59181W        W30710  30.645  16.503   0.745
59182W        W30711  33.027  18.142  11.394
59183W        W30712  42.754  40.600   5.261
59184W        W30713  23.661  42.261   1.807
59185W        W30714  18.825   0.755  14.612
59186W        W30715  28.943   1.185   4.149
59187W        W30716  35.417  13.873  11.054
59188W        W30717  37.093  15.637   3.299
59189W        W30718  40.453   9.359  13.492
59190W        W30719  27.715  34.347  14.442
59191W        W30720  22.581  17.275   3.013
59192W        W30721   2.877  37.982  14.475
59193W        W30722  19.084  23.685  11.022
59194W        W30723  35.825  22.334  12.030
59195W        W30724   4.263  34.099   3.059
59196W        W30725  44.667   8.411  13.943
59197W        W30726  44.520   2.517   1.330
59198W        W30727  27.717  43.860   3.873
59199W        W30728  36.119   7.805   1.934
59200W        W30729  14.175  30.528  11.711
59201W        W30730  22.234  23.657   2.851
59202W        W30731   1.830  10.235  10.054
59203W        W30732   6.308  26.464   0.355
59204W        W30733  29.698  38.995  11.602
59205W        W30734  26.952  42.535   3.850
59206W        W30735  41.371  20.052   1.593
59207W        W30736  20.055  15.042   1.430
59208W        W30737   9.363  29.196   2.553
59209W        W30738  42.588   0.509   1.153
59210W        W30739  42.076   6.660   1.167
59211W        W30740  20.347  21.056  12.376
59212W        W30741  34.869  16.696   0.803
59213W        W30742  39.425  27.546  14.313
59214W        W30743  26.453  34.237   4.398
59215W        W30744   1.427   0.788   2.540
59216W        W30745  13.990  13.787  11.555
59217W        W30746   5.222  10.256   3.064
59218W        W30747  29.092  13.395  14.283
59219W        W30748  25.433  19.235   2.638
59220W        W30749  21.095   6.518   0.737
59221W        W30750   4.933  10.261  13.430
59222W        W30751  30.050  23.475   4.960
59223W        W30752  16.642  27.951   9.913
59224W        W30753  14.866  18.167  14.820
59225W        W30754  19.323  43.470   1.690
59226W        W30755   4.307   3.906   1.653
59227W        W30756  37.793  23.130  12.955
59228W        W30757  21.710  26.747   3.709
59229W        W30758  10.612  25.998   2.762
59230W        W30759  42.212  25.567  14.402
59231W        W30760   6.347  38.768  12.605
59232W        W30761  20.218  27.957  12.568
59233W        W30762  29.067   5.808   2.717
59234W        W30763  37.488  39.893   4.775
59235W        W30764  40.825   4.876  11.572
59236W        W30765   0.543  33.005   1.323
59237W        W30766   4.292  22.542   3.072
59238W        W30767  28.122  11.492  12.985
59239W        W30768  41.541  41.046  10.788
59240W        W30769   5.494  36.957  12.005
59241W        W30770  14.310  24.485  11.842
59242W        W30771  20.984  11.605  12.945
59243W        W30772   7.937  27.178  11.569
59244W        W30773  26.479   4.149   0.509
59245W        W30774   0.878  16.736   2.743
59246W        W30775   0.288  24.729   0.555
59247W        W30776  17.294  16.554   3.818
59248W        W30777   7.697  17.155   1.758
59249W        W30778  23.266  15.134   0.533
59250W        W30779  40.444  31.484  12.956
59251W        W30780   6.190  30.338   3.754
59252W        W30781  13.636  30.583  13.810
59253W        W30782  32.606  32.415  11.265
59254W        W30783   9.651  19.167   4.609
59255W        W30784  44.477  37.129   3.638
59256W        W30785   9.648  31.818   2.181
59257W        W30786  10.782  43.494   3.688
59258W        W30787  40.268  38.415   4.750
59259W        W30788   1.358  18.031  12.021
59260W        W30789  21.691  15.645   4.131
59261W        W30790   9.841  35.228  13.515
59262W        W30791  30.924  43.849   2.791
59263W        W30792  21.230  16.869  11.125
59264W        W30793   5.064  40.220   4.106
59265W        W30794  35.085   4.787   0.939
59266W        W30795  35.554  29.124   3.896
59267W        W30796   2.847  19.099  10.793
59268W        W30797  23.449  40.410  11.206
59269W        W30798  43.541  11.241  13.106
59270W        W30799  40.318  29.603  12.486
59271W        W30800  21.859  31.593   1.193
59272W        W30801  37.490   4.583  12.224
59273W        W30802   4.840   1.851   1.213
59274W        W30803  41.562  18.840   2.960
59275W        W30804  33.468  20.401   1.519
59276W        W30805  38.031  33.559   4.634
59277W        W30806  32.314  40.397   1.910
59278W        W30807   1.924  41.901  11.218
59279W        W30808  43.519   6.351  11.087
59280W        W30809  42.551  18.143  11.999
59281W        W30810  32.806  14.525  13.406
59282W        W30811  22.029   4.680   0.671
59283W        W30812   0.269  21.935  10.769
59284W        W30813  37.554  32.443   2.663
59285W        W30814  36.078  15.694  14.349
59286W        W30815  24.571  19.801  11.600
59287W        W30816  28.678   9.731  13.295
59288W        W30817  27.846  12.859  14.595
59289W        W30818  10.435   0.280   0.685
59290W        W30819   6.139  25.975  13.338
59291W        W30820  12.657   9.427   1.413
59292W        W30821  35.880  39.708   4.194
59293W        W30822  30.611  37.544  13.205
59294W        W30823   6.855   6.478   3.116
59295W        W30824  24.048   9.602   1.139
59296W        W30825  25.871  16.645   2.040
59297W        W30826  41.975  32.696   3.702
59298W        W30827  30.091  24.565  13.932
59299W        W30828  11.699  32.382  13.346
59300W        W30829  10.789  22.575  14.061
59301W        W30830  30.182  30.125  13.616
59302W        W30831   7.775  11.148  10.856
59303W        W30832  35.362  24.836  10.958
59304W        W30833  34.688  28.151  13.465
59305W        W30834   6.716  15.828   0.620
59306W        W30835  21.113  36.407   3.628
59307W        W30836   0.997  35.045  10.415
59308W        W30837  30.429   4.791  13.862
59309W        W30838  32.374  21.056   1.161
59310W        W30839  43.961  12.927  13.539
59311W        W30840  40.901   6.008   2.247
59312W        W30841  37.219  43.762   4.586
59313W        W30842  34.839   9.334   0.456
59314W        W30843  29.210  18.037  12.415
59315W        W30844  35.591  39.496   2.926
59316W        W30845  16.141   4.390   0.128
59317W        W30846  19.472  14.119   3.170
59318W        W30847   4.932  24.779  10.648
59319W        W30848  12.625   4.251  11.095
59320W        W30849  33.958  12.513  12.133
59321W        W30850   2.204  37.411   2.611
59322W        W30851   8.266  17.870   1.860
59323W        W30852  22.531   6.979   4.183
59324W        W30853   1.403  12.689   4.022
59325W        W30854  20.308  32.971   0.502
59326W        W30855  24.115  44.345  14.825
59327W        W30856  36.397  38.566  10.298
59328W        W30857  36.666   9.839  12.571
59329W        W30858  21.561  39.798   1.395
59330W        W30859  25.941  42.961  12.958
59331W        W30860  36.296   6.269   2.746
59332W        W30861  19.648  27.642  10.381
59333W        W30862  22.112  21.060   3.418
59334W        W30863  35.507  34.114  14.290
59335W        W30864  18.062  26.795   1.568
59336W        W30865   2.704  38.966   0.977
59337W        W30866  43.702  18.232   3.237
59338W        W30867  23.654   6.960   1.281
59339W        W30868  31.520  44.566   2.689
59340W        W30869  28.459   1.899  13.833
59341W        W30870  17.005  20.957   0.429
59342W        W30871  37.283  41.745   2.206
59343W        W30872   8.539  36.797  11.487
59344W        W30873   9.473  38.035  14.543
59345W        W30874  35.046  22.017  10.770
59346W        W30875  34.429  24.326  14.049
59347W        W30876  12.931  19.248   0.306
59348W        W30877  41.548   1.885  10.804
59349W        W30878  28.636  33.870  13.159
59350W        W30879  22.823  40.217   0.467
59351W        W30880   4.219   8.273   3.929
59352W        W30881  24.156   8.125  13.509
59353W        W30882   4.007   6.762   1.232
59354W        W30883  12.567  15.752  11.903
59355W        W30884   3.491  13.183   2.895
59356W        W30885  39.284   0.599   0.458
59357W        W30886  17.179   3.404   3.581
59358W        W30887  27.259  26.353   4.133
59359W        W30888  26.023  37.557  11.254
59360W        W30889  24.552  22.191  13.543
59361W        W30890   5.232   7.046   3.669
59362W        W30891  44.150  22.421   2.758
59363W        W30892  28.364   4.807  13.511
59364W        W30893  17.051  36.507  11.609
59365W        W30894  44.877   7.248  14.049
59366W        W30895  20.386  33.166  12.785
59367W        W30896  34.958  43.758   4.721
59368W        W30897   7.329  25.974  11.818
59369W        W30898  23.048   6.857  11.730
59370W        W30899  43.872  37.106  11.539
59371W        W30900   3.848  28.247   1.240
59372W        W30901  33.867  44.342   2.607
59373W        W30902  24.756  21.974  14.796
59374W        W30903  21.169   4.673  13.163
59375W        W30904  33.018   2.908   2.774
59376W        W30905   1.798  22.690   3.185
59377W        W30906   5.719  21.248   3.932
59378W        W30907  23.057  23.597   4.526
59379W        W30908  36.424  35.193   1.655
59380W        W30909   6.856   2.054  11.796
59381W        W30910  39.940   2.975   2.303
59382W        W30911  15.618  15.722   0.376
59383W        W30912  29.828  35.356   3.997
59384W        W30913   7.227  39.553  13.058
59385W        W30914  15.289  42.379  10.735
59386W        W30915  22.419  24.711   5.060
59387W        W30916  15.689  43.344   4.537
59388W        W30917   5.658  33.891   1.240
59389W        W30918  14.000  28.066  10.507
59390W        W30919  24.575   6.391  14.255
59391W        W30920  27.208   0.960  14.707
59392W        W30921   9.003  22.264   4.666
59393W        W30922  36.510  23.718   3.668
59394W        W30923  20.584  16.313   3.824
59395W        W30924  26.088  35.647   0.252
59396W        W30925  18.665  13.250  14.101
59397W        W30926   6.126   8.145  12.998
59398W        W30927   3.417  38.315  11.523
59399W        W30928  26.951  30.310  12.998
59400W        W30929  29.469   6.349  14.280
59401W        W30930  24.360  29.299  12.426
59402W        W30931  30.760   2.708  10.713
59403W        W30932  14.202   4.702   1.440
59404W        W30933  25.109  24.742  13.260
59405W        W30934  13.133  29.776   0.407
59406W        W30935  41.732  10.195  14.369
59407W        W30936  43.530  15.849  13.489
59408W        W30937  15.281  24.891  14.287
59409W        W30938  27.995  43.999   1.399
59410W        W30939  20.723  13.560  13.141
59411W        W30940  23.379   4.937  11.122
59412W        W30941  25.117   5.183  11.963
59413W        W30942  26.769  16.375  13.374
59414W        W30943  38.506  13.949  13.812
59415W        W30944  41.533  43.514   1.719
59416W        W30945   1.984  40.797   0.295
59417W        W30946  29.842   7.181  12.650
59418W        W30947  26.491  11.700   3.616
59419W        W30948  25.755  23.223   4.264
59420W        W30949  36.338  16.807  13.538
59421W        W30950  29.891   2.941   4.203
59422W        W30951  26.440  14.032   2.670
59423W        W30952  20.672  42.587   3.205
59424W        W30953  44.422   7.949  13.942
59425W        W30954  20.297   0.962  14.065
59426W        W30955   3.314  28.245  12.574
59427W        W30956   6.580  13.848  10.453
59428W        W30957   1.372  27.610   1.727
59429W        W30958   5.047  21.715  12.855
59430W        W30959  23.058   1.384  12.460
59431W        W30960  21.119   0.434   4.874
59432W        W30961   0.076   0.889   1.256
59433W        W30962  17.291  20.853   0.839
59434W        W30963  17.077   6.679   2.386
59435W        W30964  43.576  38.325  10.521
59436W        W30965  34.924  19.785  14.793
59437W        W30966  44.431  12.767   4.376
59438W        W30967  35.933  30.461  12.892
59439W        W30968   3.194  35.312  13.879
59440W        W30969   2.331   3.865   4.388
59441W        W30970  11.820   1.225  14.244
59442W        W30971  40.544  24.561   0.387
59443W        W30972   6.418  20.070  12.331
59444W        W30973   0.250  30.879  10.733
59445W        W30974  17.225  35.116   1.880
59446W        W30975  37.009  38.845  14.424
59447W        W30976  28.080   1.576   1.910
59448W        W30977  44.660  43.507   4.623
59449W        W30978  39.251   8.145  11.159
59450W        W30979  44.891   2.225   4.592
59451W        W30980  17.717   3.760  12.455
59452W        W30981  40.774  37.526  13.388
59453W        W30982  26.229   1.334   4.940
59454W        W30983   6.445   2.089  10.502
59455W        W30984  24.671  11.211  12.452
59456W        W30985  34.065  19.772   4.112
59457W        W30986  14.791  43.938  12.521
59458W        W30987  15.556  41.547  13.440
59459W        W30988  32.553  22.006  12.416
59460W        W30989  32.638  11.245   4.318
59461W        W30990  17.518   0.411  14.428
59462W        W30991   9.176   7.850   2.985
59463W        W30992  21.143  37.330   1.489
59464W        W30993   9.266  26.682   3.583
59465W        W30994  27.968  41.170  11.032
59466W        W30995   8.904   1.594   3.696
59467W        W30996  44.020  12.081  14.852
59468W        W30997  20.357  13.187   3.039
59469W        W30998   2.399  24.178  14.521
59470W        W30999   8.892   8.799  12.414
59471W        W31000  32.058  37.097   3.061
59472W        W31001   4.442  22.904   2.715
59473W        W31002  42.273  24.686   2.468
59474W        W31003   7.915  28.943  12.922
59475W        W31004  31.089   5.511   0.498
59476W        W31005  26.033  42.512  11.542
59477W        W31006   9.356  11.187   1.744
59478W        W31007  21.694   6.757   4.536
59479W        W31008   3.922  20.204   2.898
59480W        W31009  27.130  16.697  12.391
59481W        W31010   3.964   2.883  14.335
59482W        W31011  23.643  44.235   4.920
59483W        W31012  36.473  33.381  12.546
59484W        W31013   3.328  32.149   3.570
59485W        W31014   0.476   4.223   1.721
59486W        W31015  29.721   1.458  10.711
59487W        W31016  29.220  29.743   5.186
59488W        W31017  22.569  28.922   2.208
59489W        W31018   0.467  30.480  12.053
59490W        W31019  31.038  10.378  12.107
59491W        W31020  22.042  20.564   0.840
59492W        W31021  13.571   6.074   0.199
59493W        W31022   1.082  41.233   0.502
59494W        W31023  16.167  14.702  10.746
59495W        W31024  21.037   4.384   0.392
59496W        W31025   9.863  31.048  12.814
59497W        W31026  40.581  32.407   2.322
59498W        W31027  27.189   0.891   2.148
59499W        W31028   2.724  22.503  12.546
59500W        W31029  13.385  17.702   3.986
59501W        W31030  15.120  19.608  10.646
59502W        W31031  41.999  12.795  10.086
59503W        W31032   4.696  32.941   4.545
59504W        W31033  33.324   4.567   0.430
59505W        W31034  42.501  18.723  12.864
59506W        W31035  34.840  20.666  12.631
59507W        W31036  29.264  31.853   2.258
59508W        W31037   1.378  25.999  14.694
59509W        W31038  34.879  24.088  13.978
59510W        W31039  24.509  28.387   2.276
59511W        W31040  36.996  27.004   0.802
59512W        W31041   3.879  20.086   4.830
59513W        W31042  24.854  37.349   1.352
59514W        W31043  28.089  10.538  11.297
59515W        W31044   2.846  24.251   4.049
59516W        W31045   3.787  44.199   1.107
59517W        W31046  41.537   9.257  14.815
59518W        W31047   9.727  17.239  13.009
59519W        W31048  32.010  17.501  14.966
59520W        W31049  20.307  28.411   5.050
59521W        W31050   4.985  16.778  11.992
59522W        W31051  20.056   7.712   2.860
59523W        W31052  19.992  27.923   1.789
59524W        W31053  20.225  33.778  10.552
59525W        W31054  20.451  26.643  10.689
59526W        W31055  16.176  40.914  12.085
59527W        W31056  37.431  42.502   0.325
59528W        W31057  11.115   4.517  12.598
59529W        W31058  25.124  41.297   3.731
59530W        W31059  16.036  17.810   4.695
59531W        W31060  24.381  10.853  13.264
59532W        W31061  28.838  34.732  12.501
59533W        W31062  38.525  18.566   0.314
59534W        W31063  27.579  28.113  12.954
59535W        W31064  43.690   8.873   2.744
59536W        W31065  16.244  34.268   3.297
59537W        W31066  29.629  31.329   4.247
59538W        W31067  14.591  38.500   0.509
59539W        W31068  42.296  43.810  11.166
59540W        W31069  44.456   3.537   1.137
59541W        W31070  38.494   8.516   3.799
59542W        W31071  15.075  20.122  14.322
59543W        W31072   3.235  31.368   2.267
59544W        W31073  38.966   7.203   3.715
59545W        W31074   6.526  11.941   2.327
59546W        W31075  40.617  31.671  11.517
59547W        W31076  25.863  15.612   1.280
59548W        W31077   5.222  12.804   2.279
59549W        W31078   7.194  35.535   4.295
59550W        W31079  35.048  14.964  11.023
59551W        W31080  35.661  14.357  12.859
59552W        W31081  22.492   8.700  11.225
59553W        W31082   3.923  16.456   4.217
59554W        W31083  23.682  35.518   1.336
59555W        W31084  17.574  41.809  13.510
59556W        W31085   4.541   8.754   1.145
59557W        W31086  25.395  13.589   0.243
59558W        W31087  20.192  24.003   3.229
59559W        W31088   3.824  44.365   0.063
59560W        W31089  43.995  28.132  14.407
59561W        W31090  12.244  13.594  12.492
59562W        W31091  36.880  29.423  10.694
59563W        W31092  14.480  29.027   3.291
59564W        W31093  37.115  23.136   4.568
59565W        W31094  26.952  24.128   4.657
59566W        W31095   3.501  17.217   3.478
59567W        W31096  44.800  17.146  11.041
59568W        W31097  13.669   0.217   5.009
59569W        W31098  35.943  38.080   4.714
59570W        W31099   0.982  36.145  13.526
59571W        W31100  24.049  38.135   1.185
59572W        W31101   0.405  12.633  14.765
59573W        W31102  39.329  30.586  10.458
59574W        W31103   9.407  13.797  14.789
59575W        W31104  25.446  26.727  12.911
59576W        W31105  33.842   2.496   4.759
59577W        W31106  34.887  42.120  11.972
59578W        W31107  13.041   4.906   2.397
59579W        W31108  39.833  23.122   4.192
59580W        W31109  11.661  10.633   1.376
59581W        W31110  12.143  30.491  14.755
59582W        W31111  36.063  26.613  10.664
59583W        W31112   7.582  34.907   1.323
59584W        W31113  34.313  15.392  13.473
59585W        W31114   4.239  24.171  10.462
59586W        W31115  21.820  28.062   2.716
59587W        W31116  29.982  33.172   3.141
59588W        W31117  10.068  11.795   3.183
59589W        W31118  32.878  21.607  13.342
59590W        W31119  10.331   7.345   0.722
59591W        W31120  37.973  30.461   1.231
59592W        W31121  26.700  10.628   2.846
59593W        W31122  18.683  12.746  12.535
59594W        W31123  37.606  41.779   4.907
59595W        W31124  27.997  33.168  13.417
59596W        W31125   0.339  11.262   3.648
59597W        W31126  15.955  16.574   4.126
59598W        W31127  23.136  19.538   3.214
59599W        W31128   1.598  29.923  13.129
59600W        W31129  27.522   6.821   2.084
59601W        W31130   1.347   0.448   3.643
59602W        W31131  28.964   2.018  14.630
59603W        W31132  16.609  12.334  13.310
59604W        W31133  35.168  23.455   3.270
59605W        W31134   5.339   2.380   1.744
59606W        W31135  44.227  35.119  11.035
59607W        W31136   0.982   4.042   2.789
59608W        W31137  21.827  39.121  12.846
59609W        W31138  39.724  33.054  14.389
59610W        W31139  32.978  36.855   3.810
59611W        W31140  44.056  10.319  12.023
59612W        W31141  38.988  35.875  14.617
59613W        W31142  12.279  37.345   0.563
59614W        W31143  10.877  42.274  14.169
59615W        W31144  37.835   5.353  14.806
59616W        W31145  14.161  27.067  11.676
59617W        W31146   2.994  18.820   2.202
59618W        W31147  35.011  17.191   0.742
59619W        W31148  23.897  29.659   2.914
59620W        W31149  14.114  34.862   3.685
59621W        W31150  17.765  42.516   3.428
59622W        W31151  37.876   9.183   1.434
59623W        W31152  10.781  25.741   0.077
59624W        W31153  35.640  29.405   0.561
59625W        W31154   7.814   4.827  11.081
59626W        W31155  40.377  17.256  14.442
59627W        W31156  15.090  44.338   3.296
59628W        W31157  20.035  40.353  14.188
59629W        W31158  33.525  14.450   1.228
59630W        W31159  32.542  28.163  12.035
59631W        W31160  40.983  37.039  13.286
59632W        W31161  21.334  36.227   9.820
59633W        W31162  26.527   4.311   1.835
59634W        W31163  40.273   7.209   0.239
59635W        W31164  44.964  38.082  11.575
59636W        W31165   6.321  13.873   1.128
59637W        W31166   8.515  30.721   3.188
59638W        W31167  19.632  24.501  13.442
59639W        W31168  23.034  31.005  11.955
59640W        W31169  21.295  14.627   1.839
59641W        W31170  34.347  26.954  13.124
59642W        W31171  33.099  11.244   2.807
59643W        W31172  28.850  42.927   2.731
59644W        W31173  10.981  33.869  12.512
59645W        W31174  15.387  37.078  13.585
59646W        W31175   9.947  26.438   1.369
59647W        W31176  29.868  10.413   3.159
59648W        W31177  23.671   7.543  10.667
59649W        W31178  43.443  43.317  13.555
59650W        W31179   1.781  10.623  14.288
59651W        W31180  23.852  44.971  11.880
59652W        W31181  18.833  27.007  12.931
59653W        W31182   4.306   0.920   2.802
59654W        W31183  19.784  40.632   1.780
59655W        W31184  31.740  32.622   4.067
59656W        W31185   4.667  26.004   3.383
59657W        W31186  42.903  39.249  12.807
59658W        W31187  35.287   6.704   3.342
59659W        W31188  29.904   1.403   4.668
59660W        W31189  42.413  11.713   0.383
59661W        W31190  37.033  11.965  12.548
59662W        W31191   3.213  22.623  11.036
59663W        W31192  37.567   1.976  12.021
59664W        W31193   4.351   3.742  10.691
59665W        W31194  18.198  33.086   0.687
59666W        W31195  10.906   2.797  11.107
59667W        W31196  11.095  35.644  13.662
59668W        W31197  23.594   7.484   1.206
59669W        W31198  21.075  16.624  11.563
59670W        W31199  21.516   6.214   0.884
59671W        W31200  22.731  43.780   0.021
59672W        W31201  40.532  29.902  12.068
59673W        W31202  39.273  35.002   0.354
59674W        W31203   2.460   0.824   2.802
59675W        W31204   8.699  30.448  13.986
59676W        W31205  36.637  43.913   3.941
59677W        W31206  40.739  35.276  11.218
59678W        W31207  34.974  39.624   0.389
59679W        W31208  23.087  18.405   4.510
59680W        W31209   0.942  15.166   2.349
59681W        W31210  21.016   9.176  10.277
59682W        W31211  44.028  24.193  11.882
59683W        W31212  42.037  20.728   2.639
59684W        W31213  10.348  22.062  12.583
59685W        W31214  15.379   2.493  14.417
59686W        W31215  36.599  43.092   0.728
59687W        W31216  44.740  13.094  14.617
59688W        W31217  35.071  18.469   1.750
59689W        W31218  41.002  31.048  12.071
59690W        W31219  44.784  31.104   0.805
59691W        W31220  22.338  19.560  14.863
59692W        W31221   8.938  21.542  10.469
59693W        W31222  30.384  16.780  11.975
59694W        W31223  20.933  15.662   0.341
59695W        W31224  37.077  28.650  13.092
59696W        W31225  25.718   1.183  12.802
59697W        W31226  25.819   7.619  13.032
59698W        W31227   3.369  11.024   0.278
59699W        W31228  19.673  18.340   4.776
59700W        W31229  25.346  30.942  12.424
59701W        W31230  35.322  12.293  13.810
59702W        W31231  42.419   7.798  12.549
59703W        W31232   4.020  28.474  13.895
59704W        W31233  22.463  27.133  12.223
59705W        W31234  44.926  17.864   4.817
59706W        W31235  10.351   3.041  11.956
59707W        W31236  35.136  25.180  13.102
59708W        W31237  25.738  39.922  11.166
59709W        W31238  43.257  39.931  10.607
59710W        W31239   8.951  10.840   4.488
59711W        W31240  11.442  20.751   1.927
59712W        W31241  44.292  10.879   0.690
59713W        W31242   0.455  13.355   2.809
59714W        W31243  26.802   7.714   2.751
59715W        W31244  13.033  37.529  10.737
59716W        W31245  41.488   3.864  10.559
59717W        W31246  37.838  44.382   0.832
59718W        W31247  37.362   2.888   3.591
59719W        W31248  13.667  15.390   3.640
59720W        W31249  31.974  33.847   1.879
59721W        W31250  15.241  12.224  14.840
59722W        W31251  31.088  26.964   0.211
59723W        W31252  28.655  17.653  14.635
59724W        W31253  23.185   3.057  13.364
59725W        W31254   4.108   6.722  13.484
59726W        W31255  43.939  33.192   0.366
59727W        W31256   0.961  19.659  11.967
59728W        W31257  36.630  19.245  10.729
59729W        W31258  25.594  36.855  11.640
59730W        W31259  31.630  16.757   0.315
59731W        W31260  38.617  17.910  13.912
59732W        W31261  31.187  17.529   0.286
59733W        W31262  26.243  34.025  10.793
59734W        W31263  20.733  41.953  10.905
59735W        W31264  30.128  17.625   0.281
59736W        W31265  38.102  37.680   3.782
59737W        W31266   4.991  17.110  12.586
59738W        W31267  41.773  41.265  11.978
59739W        W31268  32.517  34.264  11.204
59740W        W31269  17.773  27.287  14.044
59741W        W31270   7.415   3.217   4.214
59742W        W31271  34.970  18.241  13.303
59743W        W31272  28.228   0.789   1.882
59744W        W31273   8.221  24.461  14.292
59745W        W31274   2.045  42.706  12.623
59746W        W31275  37.056  22.646   4.698
59747W        W31276  19.292  36.351   3.345
59748W        W31277  11.827  36.797  11.617
59749W        W31278  22.424  33.301  11.499
59750W        W31279   5.145   8.424  11.505
59751W        W31280   3.466  10.239   4.103
59752W        W31281  18.067  26.718  12.071
59753W        W31282   8.767   5.867  14.062
59754W        W31283  10.804   1.435  10.780
59755W        W31284  28.730  10.727  10.747
59756W        W31285  37.653  13.901   0.063
59757W        W31286  42.186  28.501   4.669
59758W        W31287  14.301  26.092   2.444
59759W        W31288  41.419  36.023   4.645
59760W        W31289  18.691  14.768   3.200
59761W        W31290  42.419  10.294  11.092
59762W        W31291  42.698  16.609  13.439
59763W        W31292  35.040  14.827   0.812
59764W        W31293  20.071  40.811  12.954
59765W        W31294  21.205  14.510  11.597
59766W        W31295  41.763  36.940   1.258
59767W        W31296  21.672  13.910  13.031
59768W        W31297  17.640  37.299  13.805
59769W        W31298   1.673  38.767  14.447
59770W        W31299  38.000   8.689   4.629
59771W        W31300  30.506  36.006  14.759
59772W        W31301  36.603  38.626  13.646
59773W        W31302   8.107  32.912  14.779
59774W        W31303  34.490  12.560   0.695
59775W        W31304  29.972  41.217  14.317
59776W        W31305  22.046   6.195  13.732
59777W        W31306  41.433   2.034   1.928
59778W        W31307  36.409  10.362  14.833
59779W        W31308  13.638   3.482  12.468
59780W        W31309  33.766  37.666  12.811
59781W        W31310  10.660  14.989  13.535
59782W        W31311  12.813  14.582  11.610
59783W        W31312  37.048  30.941  12.615
59784W        W31313  21.042   8.928   1.942
59785W        W31314   5.794  15.745   2.586
59786W        W31315  12.583  13.105   2.313
59787W        W31316   8.250  16.141  11.525
59788W        W31317  21.142  13.162  12.715
59789W        W31318   7.660  43.499  13.551
59790W        W31319  27.643  19.761   1.347
59791W        W31320  27.194  28.956   2.149
59792W        W31321  39.013  30.454  14.446
59793W        W31322  24.942  34.685  12.084
59794W        W31323  39.355   3.769  12.403
59795W        W31324  18.838  37.424  11.401
59796W        W31325  13.770  32.708   1.392
59797W        W31326  14.845  13.801   3.796
59798W        W31327  24.043   0.107   3.258
59799W        W31328  25.288  18.280  11.113
59800W        W31329  27.499  36.970  13.295
59801W        W31330  31.166  24.724  10.787
59802W        W31331  10.693  12.832  13.807
59803W        W31332   7.897   8.794  13.912
59804W        W31333  12.453  39.966  13.268
59805W        W31334  10.422  42.305  13.322
59806W        W31335  44.943  14.970   4.249
59807W        W31336  23.710  11.622  10.734
59808W        W31337  27.198  23.836   2.175
59809W        W31338  27.458  41.299   0.015
59810W        W31339  13.592  40.301   2.449
59811W        W31340   5.144   9.038  11.601
59812W        W31341  11.268   8.528  13.414
59813W        W31342  12.258  37.603  14.865
59814W        W31343  19.755  16.959   2.647
59815W        W31344  39.266  39.032  11.224
59816W        W31345  25.642   7.718   1.564
59817W        W31346  14.579  32.358   1.751
59818W        W31347  33.937  18.722   1.182
59819W        W31348   2.768  23.738  11.996
59820W        W31349  26.451  43.896   3.750
59821W        W31350   5.868  20.129  13.562
59822W        W31351  32.884  43.863   1.669
59823W        W31352  26.414  32.602  11.571
59824W        W31353   4.412  27.354  14.186
59825W        W31354  15.381  23.700  13.593
59826W        W31355   5.138   6.266   3.178
59827W        W31356  18.350  11.269   3.593
59828W        W31357  20.194  14.144   4.662
59829W        W31358  38.413   7.202   2.451
59830W        W31359  20.142  26.440   3.143
59831W        W31360  32.507   0.222  12.617
59832W        W31361  31.166  37.519  10.959
59833W        W31362  12.053  14.345   1.736
59834W        W31363  42.615  44.291  11.431
59835W        W31364   0.385  32.983  13.872
59836W        W31365  41.509   7.115  10.803
59837W        W31366  35.311   5.325   3.167
59838W        W31367   7.978   4.953   3.252
59839W        W31368  19.176  15.266   0.488
59840W        W31369  15.101  42.190   4.074
59841W        W31370  10.224  39.742   3.377
59842W        W31371   0.488  19.306  14.316
59843W        W31372  24.063  30.953   0.033
59844W        W31373   8.853  15.299  14.661
59845W        W31374  20.617   4.651  13.457
59846W        W31375  40.903   1.415   3.589
59847W        W31376   0.121   9.130   1.300
59848W        W31377   1.357  28.211  12.014
59849W        W31378  24.611  34.594   4.509
59850W        W31379  43.674   6.099   1.376
59851W        W31380  31.089  11.790   0.974
59852W        W31381  21.302  36.454  14.505
59853W        W31382  14.884  29.459  13.235
59854W        W31383   5.383   1.156  11.668
59855W        W31384  34.178  22.635   0.269
59856W        W31385  32.317  35.541  11.254
59857W        W31386   7.154   6.137   4.043
59858W        W31387  12.228  43.468  11.852
59859W        W31388  42.743  15.615   3.198
59860W        W31389  13.649   7.325   2.738
59861W        W31390  36.545  33.149  10.788
59862W        W31391  37.329  21.765  11.368
59863W        W31392  27.502  30.880   1.763
59864W        W31393  19.592   7.858  13.343
59865W        W31394  25.679  18.563  11.273
59866W        W31395  42.758   7.643   0.804
59867W        W31396  41.769  22.698  10.316
59868W        W31397  19.828  40.652   0.036
59869W        W31398  19.115  41.788   1.556
59870W        W31399  30.960   6.901   4.545
59871W        W31400  34.568  21.978  10.591
59872W        W31401  22.984  39.520  12.590
59873W        W31402  44.781  38.357  13.415
59874W        W31403   3.596  29.138  12.577
59875W        W31404  32.162  23.186   2.360
59876W        W31405  27.994  15.173   3.814
59877W        W31406  27.584  31.388   2.642
59878W        W31407  40.837  28.341   2.350
59879W        W31408   1.664  10.384   0.242
59880W        W31409  19.224  44.719   0.843
59881W        W31410   0.765  26.616  13.375
59882W        W31411  39.509   3.965   1.232
59883W        W31412  14.585   8.488   3.222
59884W        W31413   9.357  23.049  11.801
59885W        W31414  11.608   6.885   1.780
59886W        W31415   0.531  37.010  12.104
59887W        W31416  40.787  34.405  11.701
59888W        W31417  39.152   6.326  12.635
59889W        W31418  18.231  37.692   3.263
59890W        W31419  22.198  12.134   0.535
59891W        W31420   1.662  15.291  13.722
59892W        W31421  26.481   3.816  12.580
59893W        W31422  13.331  12.530  11.699
59894W        W31423   1.059  42.277   1.800
59895W        W31424  26.675   5.396   3.887
59896W        W31425  41.303  38.061  14.807
59897W        W31426  35.233  35.104  11.683
59898W        W31427  13.630  44.260   3.166
59899W        W31428  43.715  44.518   3.320
59900W        W31429  16.311  38.357  11.822
59901W        W31430   3.393  27.526  11.970
59902W        W31431   5.478  22.964  13.513
59903W        W31432  42.005  43.992   0.537
59904W        W31433   1.698  31.397  12.615
59905W        W31434  29.553  32.063  14.439
59906W        W31435  44.969  21.135  14.281
59907W        W31436  41.960   5.257   1.742
59908W        W31437  34.913  19.663  12.429
59909W        W31438  22.297  32.172   1.916
59910W        W31439  14.026  28.424  11.370
59911W        W31440  38.101   5.218  12.140
59912W        W31441  43.297  19.754  14.246
59913W        W31442  44.821  37.840  13.370
59914W        W31443   8.223  42.560   0.804
59915W        W31444  24.126   0.376   3.694
59916W        W31445  25.714  23.723  13.951
59917W        W31446  10.017  16.977  14.712
59918W        W31447  17.725  25.009  11.597
59919W        W31448   0.349  44.848   3.587
59920W        W31449   3.879  14.610  11.568
59921W        W31450  38.316  12.692  13.280
59922W        W31451   3.894  32.960   2.865
59923W        W31452  20.613  22.143   1.430
59924W        W31453  33.019   3.195   3.388
59925W        W31454   7.309  38.681   3.121
59926W        W31455  12.387  18.200   2.997
59927W        W31456  40.967  11.682  13.503
59928W        W31457  12.746  21.141   1.806
59929W        W31458  24.306   3.427   3.230
59930W        W31459  16.405  25.710  12.486
59931W        W31460  27.160  35.459  11.205
59932W        W31461  29.192  36.632  10.802
59933W        W31462   4.871  37.976   3.225
59934W        W31463   7.193  40.254  11.576
59935W        W31464   0.525  38.816  12.755
59936W        W31465  10.281  23.134   0.682
59937W        W31466  17.758  17.588  13.619
59938W        W31467  44.788  33.607  12.599
59939W        W31468  13.567  19.718   3.253
59940W        W31469  12.459  16.160   0.880
59941W        W31470  44.876  25.656  11.760
59942W        W31471  15.164  16.681   2.088
59943W        W31472  20.956   5.470   2.251
59944W        W31473  26.854  31.458   1.491
59945W        W31474  36.789  12.979  12.444
59946W        W31475  23.135   1.939   1.403
59947W        W31476   1.277  14.091  12.919
59948W        W31477  25.860  44.247  11.812
59949W        W31478  19.003   8.449  13.437
59950W        W31479   3.366  27.370   4.821
59951W        W31480  19.810  14.307  10.795
59952W        W31481  37.270  27.145   1.236
59953W        W31482  17.541  36.577  14.374
59954W        W31483  14.328  37.216   2.758
59955W        W31484   4.583  11.113   0.786
59956W        W31485   8.301  37.040   4.395
59957W        W31486  12.220   8.298   2.125
59958W        W31487  26.558  29.965  12.308
59959W        W31488  18.460   7.388  10.732
59960W        W31489  11.604  37.031  12.549
59961W        W31490  28.809  13.154   4.645
59962W        W31491   8.910  15.803   3.776
59963W        W31492  24.059  34.824   4.652
59964W        W31493  20.480  18.700  14.469
59965W        W31494   4.409   8.183  13.437
59966W        W31495  11.261  35.545  12.038
59967W        W31496  24.933  24.670   0.440
59968W        W31497  18.489  27.951  13.009
59969W        W31498  23.652  42.842   4.164
59970W        W31499  42.863  36.102   0.791
59971W        W31500  35.528  19.343   0.407
59972W        W31501   0.192   3.259   3.786
59973W        W31502  36.620  19.539   0.866
59974W        W31503  42.465  34.395   0.937
59975W        W31504   0.437   2.810  14.630
59976W        W31505  23.559  14.639   1.629
59977W        W31506  25.246  34.519  13.888
59978W        W31507  38.365  28.478   1.210
59979W        W31508  37.017  31.220   0.785
59980W        W31509  38.353  10.756  14.966
59981W        W31510  28.495   8.381   4.491
59982W        W31511  40.753  25.186  13.925
59983W        W31512  23.018  44.052  11.769
59984W        W31513   4.411  15.289  12.102
59985W        W31514  19.539  23.067   0.270
59986W        W31515  22.852  15.127   0.240
59987W        W31516  30.192  15.491   2.807
59988W        W31517  36.566  42.778   4.298
59989W        W31518   6.783  23.000  11.755
59990W        W31519   4.019  31.625  14.842
59991W        W31520  30.503  16.842  10.493
59992W        W31521   1.201  40.365   3.792
59993W        W31522  39.394  28.619   1.332
59994W        W31523  26.948   4.740   2.891
59995W        W31524  30.232  31.717   0.632
59996W        W31525  21.664   0.052   2.819
59997W        W31526  29.762  38.780  10.284
59998W        W31527  30.161  38.372  10.985
59999W        W31528   5.350  12.446   1.297
60000W        W31529  24.104   0.452   0.004
60001W        W31530   1.975  17.595  12.554
60002W        W31531  32.535  27.736  10.208
60003W        W31532  25.840  31.000  12.511
60004W        W31533   8.291  27.689   0.269
60005W        W31534  30.761  16.167   4.088
60006W        W31535  19.380  27.453   3.328
60007W        W31536  38.157  28.385   0.707
60008W        W31537  27.943  31.680   4.173
60009W        W31538  44.403  13.820   2.911
60010W        W31539  40.828  18.234   0.813
60011W        W31540  18.324  20.572   1.514
60012W        W31541  36.854  44.499   5.095
60013W        W31542  40.575  19.609  14.774
60014W        W31543  15.220   6.319   1.400
60015W        W31544   2.082  21.751   0.036
60016W        W31545  35.219  30.381  14.968
60017W        W31546  35.271  14.310   4.424
60018W        W31547  19.518  27.553   1.297
60019W        W31548  38.651  38.505   1.220
60020W        W31549   9.897  29.972  14.875
60021W        W31550  17.265  38.446  10.846
60022W        W31551  35.613  28.894   2.344
60023W        W31552  22.839  39.196   3.283
60024W        W31553  39.371   3.497  12.874
60025W        W31554   1.944  17.302   1.928
60026W        W31555  33.590  19.130   1.868
60027W        W31556  18.000  13.872  10.625
60028W        W31557   0.402  16.375  14.482
60029W        W31558   8.835  21.430   1.776
60030W        W31559  13.872  30.988  14.527
60031W        W31560  32.028  41.599   4.264
60032W        W31561   0.079  42.366   1.840
60033W        W31562  37.887   7.443  14.937
60034W        W31563   4.142  15.644   1.753
60035W        W31564  20.689  10.162   3.700
60036W        W31565  22.612   5.403   3.691
60037W        W31566  17.961  20.116   3.711
60038W        W31567  13.680  15.543  14.387
60039W        W31568  31.554  38.729  12.688
60040W        W31569  36.416  13.211  13.944
60041W        W31570  25.923  27.443   1.911
60042W        W31571   8.768  20.418  10.440
60043W        W31572  36.775  30.980  11.656
60044W        W31573  22.776  21.917  12.809
60045W        W31574   4.956  10.549   2.288
60046W        W31575  30.425  14.750  12.890
60047W        W31576  34.866  22.009   3.119
60048W        W31577  14.615  15.087   3.204
60049W        W31578  21.799  26.332   4.556
60050W        W31579  29.694  18.793   1.783
60051W        W31580  43.581   0.687  12.872
60052W        W31581  37.320  22.976   1.789
60053W        W31582  36.162  37.390   2.297
60054W        W31583  14.780  37.594   1.207
60055W        W31584  28.776  37.838   0.493
60056W        W31585  25.354  27.190   0.035
60057W        W31586  40.014   9.568  14.302
60058W        W31587  11.249  35.151  10.648
60059W        W31588   4.309  30.763  11.699
60060W        W31589  33.024  22.713  11.038
60061W        W31590  40.854  17.287  10.558
60062W        W31591  21.162  27.447   3.218
60063W        W31592  10.786   9.108   3.064
60064W        W31593  24.771  17.066  14.427
60065W        W31594  14.642  36.531   0.908
60066W        W31595  35.389  14.629   2.075
60067W        W31596  22.063   9.111   4.147
60068W        W31597  17.112  12.133   2.479
60069W        W31598  41.159   0.575  10.517
60070W        W31599   5.827  39.598  13.296
60071W        W31600  32.110  13.821  11.988
60072W        W31601  42.969  24.660   0.816
60073W        W31602  43.796  23.259  13.006
60074W        W31603  28.642   8.450   0.965
60075W        W31604  41.387  40.078   4.196
60076W        W31605  34.986   2.248   0.556
60077W        W31606  32.247  12.999   5.234
60078W        W31607   8.915  41.727   2.695
60079W        W31608  35.493  38.739  12.562
60080W        W31609  32.139  40.441   0.454
60081W        W31610  31.843  42.387   3.723
60082W        W31611  25.707  15.267   4.683
60083W        W31612   3.435  15.366  14.000
60084W        W31613  13.089  12.216   1.424
60085W        W31614  28.676  39.543  13.705
60086W        W31615  21.712  19.958  13.438
60087W        W31616  36.924  24.122  12.648
60088W        W31617   1.678  34.870  12.647
60089W        W31618  22.275   4.377   3.759
60090W        W31619  19.996   2.376  13.402
60091W        W31620  36.472  44.001   1.694
60092W        W31621  20.601   1.803   0.306
60093W        W31622  44.883  14.745  14.886
60094W        W31623  38.085  42.654  14.867
60095W        W31624  33.923  14.605   4.832
60096W        W31625  42.914  10.076   4.330
60097W        W31626  16.212  13.866   3.090
60098W        W31627  37.737  24.604  12.512
60099W        W31628  21.636  25.262   4.607
60100W        W31629  30.719  36.624   3.228
60101W        W31630  36.892  28.958   0.541
60102W        W31631  38.071  44.580  11.623
60103W        W31632   2.211  16.625  14.002
60104W        W31633   9.583   5.018   4.081
60105W        W31634  35.345  13.231   3.636
60106W        W31635  19.514  40.590   4.170
60107W        W31636  22.499  36.018  14.718
60108W        W31637  10.786   6.217   2.697
60109W        W31638  39.827  42.757   0.504
60110W        W31639   7.795  28.369  12.053
60111W        W31640   7.384  31.469   3.569
60112W        W31641  22.646  18.685  10.682
60113W        W31642  41.761  43.058   1.882
60114W        W31643  12.320  30.360   1.251
60115W        W31644  28.095  25.280   0.517
60116W        W31645  42.274  21.311  12.420
60117W        W31646  42.525  16.437   3.887
60118W        W31647  29.907  29.888   2.284
60119W        W31648  21.641  39.048   2.749
60120W        W31649  40.716  36.290   3.440
60121W        W31650  23.526  21.979   1.324
60122W        W31651  14.958  33.243  11.932
60123W        W31652  16.789  25.192   1.150
60124W        W31653   8.088  41.419   4.607
60125W        W31654  17.670  23.718   4.641
60126W        W31655  12.762  31.689   2.281
60127W        W31656   4.839  35.539  11.371
60128W        W31657   7.155  12.863  12.982
60129W        W31658  40.337  22.260   0.497
60130W        W31659  37.007  37.185   3.919
60131W        W31660  19.606   7.200  12.082
60132W        W31661  30.136  38.177   0.019
60133W        W31662   9.895  42.944   3.822
60134W        W31663   1.762  29.618   3.608
60135W        W31664   4.425  28.886   3.657
60136W        W31665  26.390  39.114  11.232
60137W        W31666  29.579   3.959   2.636
60138W        W31667   3.148  12.324   0.812
60139W        W31668  27.142  35.315   1.652
60140W        W31669   3.486  39.337   2.657
60141W        W31670  26.442  24.338   4.667
60142W        W31671  10.156  29.148  12.452
60143W        W31672  13.631  16.310   2.279
60144W        W31673   1.073  34.074  12.535
60145W        W31674  28.025  25.688  14.542
60146W        W31675  10.783  12.523  11.203
60147W        W31676  18.247  31.941  12.837
60148W        W31677  22.079  34.724  13.356
60149W        W31678  37.827  12.669  10.288
60150W        W31679  21.345   0.422   2.667
60151W        W31680   8.638  22.202   3.806
60152W        W31681  38.531  19.786  14.686
60153W        W31682  35.759  37.893  11.946
60154W        W31683  27.557  32.642   2.705
60155W        W31684   1.680  22.599   0.332
60156W        W31685   2.504  27.647   2.220
60157W        W31686   7.966  37.341   0.909
60158W        W31687  11.805   3.195  12.095
60159W        W31688  32.898  33.240  14.758
60160W        W31689  28.682   0.850   3.131
60161W        W31690  18.792  37.641   1.467
60162W        W31691  31.074  25.383   1.793
60163W        W31692  32.019   3.124   0.039
60164W        W31693  20.555  12.768  11.575
60165W        W31694  30.060  34.402   3.686
60166W        W31695  14.296  34.444   1.072
60167W        W31696  42.802  37.594   2.747
60168W        W31697  20.605  19.273   1.780
60169W        W31698  30.521   9.718   2.692
60170W        W31699  43.413  16.674   1.595
60171W        W31700  27.720  21.084  13.105
60172W        W31701  33.438  34.841   0.434
60173W        W31702   0.672  42.740  14.644
60174W        W31703   1.454   0.807   1.378
60175W        W31704  29.605  35.874  13.475
60176W        W31705   8.817  19.064   1.251
60177W        W31706   2.186  42.077  13.812
60178W        W31707   0.685  21.678   0.178
60179W        W31708   0.584  29.010  13.216
60180W        W31709  38.647  13.615  11.569
60181W        W31710   2.874  33.492   0.900
60182W        W31711   7.942  43.542   2.194
60183W        W31712  30.705  21.006  12.561
60184W        W31713   4.705  39.948   0.142
60185W        W31714  14.675  10.703  13.909
60186W        W31715  27.947  18.577   0.751
60187W        W31716  26.643  18.256   1.649
60188W        W31717  26.771  10.462  12.968
60189W        W31718  39.819   7.225  13.586
60190W        W31719  40.004  43.676   1.928
60191W        W31720   5.223   6.450   3.689
60192W        W31721  17.217  38.265  11.721
60193W        W31722   1.927  24.394   0.410
60194W        W31723  25.959   9.427   3.217
60195W        W31724  15.835  36.589  13.048
60196W        W31725  29.216  10.755   3.623
60197W        W31726  26.650  44.266   2.164
60198W        W31727   7.125   7.372   2.191
60199W        W31728  37.994  30.297  14.420
60200W        W31729  16.137  34.666  12.960
60201W        W31730  18.372  44.245   0.496
60202W        W31731  42.460  27.825   3.741
60203W        W31732  39.361  28.932   4.150
60204W        W31733  26.202  28.198  13.084
60205W        W31734  16.762  32.225   2.680
60206W        W31735  40.282  18.159   5.153
60207W        W31736  34.735  26.397   4.993
60208W        W31737   8.880  31.955  11.174
60209W        W31738  31.341  18.572  14.398
60210W        W31739   3.644   1.052  11.700
60211W        W31740   8.785  33.363  14.223
60212W        W31741  31.535  31.043  13.445
60213W        W31742  22.576  11.636   0.406
60214W        W31743  27.436  41.963  13.386
60215W        W31744  20.990  35.106   2.296
60216W        W31745  40.602  16.877  12.607
60217W        W31746   7.730  35.011  12.054
60218W        W31747   8.822  39.234   0.907
60219W        W31748  10.922  26.461  13.152
60220W        W31749  12.481  20.465   4.607
60221W        W31750  18.834  24.594  14.547
60222W        W31751  18.275  21.818   4.165
60223W        W31752   6.850  25.054  13.938
60224W        W31753   5.729  12.103   1.385
60225W        W31754  18.202  35.583  13.778
60226W        W31755  43.304  28.437  13.981
60227W        W31756  11.748   0.769  12.990
60228W        W31757  26.491  37.988   2.644
60229W        W31758  15.745  12.314   4.338
60230W        W31759  35.106  37.734   3.839
60231W        W31760  42.790  32.634  13.536
60232W        W31761  35.629  31.663   3.806
60233W        W31762  31.560  21.732   2.224
60234W        W31763  11.976  33.840  13.503
60235W        W31764  33.472  13.223   0.172
60236W        W31765   8.863   6.732  14.361
60237W        W31766   5.483  14.554  10.682
60238W        W31767  22.526  26.909  11.113
60239W        W31768  33.087   9.229  10.962
60240W        W31769  29.672  42.151  11.983
60241W        W31770  34.312  10.217   0.931
60242W        W31771  22.710  39.094  12.682
60243W        W31772  23.254  37.788   1.275
60244W        W31773  25.561   4.718   0.691
60245W        W31774  40.549  13.343  12.347
60246W        W31775  31.927  21.026  12.925
60247W        W31776  30.154  15.114   2.250
60248W        W31777   6.972   5.743   3.686
60249W        W31778  44.534  15.078  11.929
60250W        W31779  16.265  32.631   1.983
60251W        W31780  16.684  33.889   4.868
60252W        W31781  11.198  44.792   0.491
60253W        W31782  17.644   8.210  10.779
60254W        W31783   2.712  14.000  14.752
60255W        W31784  34.443   8.307   3.649
60256W        W31785   6.716  37.850   3.063
60257W        W31786  11.099  35.765   1.419
60258W        W31787  15.885  12.366  12.652
60259W        W31788  34.188  32.825  12.585
60260W        W31789   7.566  18.497   4.160
60261W        W31790   1.241  32.073   3.370
60262W        W31791   1.785   1.842   3.796
60263W        W31792  43.784  23.468   2.345
60264W        W31793  44.553  22.832   3.692
60265W        W31794  31.105  33.933  13.843
60266W        W31795  39.976   0.244  10.327
60267W        W31796  44.790  19.357  14.944
60268W        W31797  37.903  31.136  14.830
60269W        W31798  11.624  24.758   3.088
60270W        W31799  36.194  19.775  14.067
60271W        W31800   3.396  18.850  11.106
60272W        W31801   3.384   1.176  11.231
60273W        W31802  12.631  18.478  14.942
60274W        W31803  26.127  34.382   2.375
60275W        W31804  21.732  16.264  12.982
60276W        W31805  36.320  25.788   3.407
60277W        W31806  16.473  30.790  12.064
60278W        W31807   0.536   5.532  11.592
60279W        W31808  17.048   3.915  14.868
60280W        W31809  17.868  27.847  10.278
60281W        W31810  11.236  20.665  12.000
60282W        W31811   4.932  17.800  11.490
60283W        W31812  40.544  33.126   3.856
60284W        W31813  13.090   6.705   0.843
60285W        W31814  41.900  18.511  12.439
60286W        W31815   8.431  19.816   0.651
60287W        W31816   1.412   3.347   1.855
60288W        W31817   2.396   9.597   0.226
60289W        W31818  36.987  37.662   0.914
60290W        W31819   6.814  43.163   2.642
60291W        W31820  40.124  30.529   4.849
60292W        W31821   2.805  14.243  10.478
60293W        W31822   5.759   1.381  12.632
60294W        W31823  13.595  26.905  11.096
60295W        W31824  26.657  32.950  13.441
60296W        W31825   8.210  39.315  11.954
60297W        W31826  44.264   4.426   0.269
60298W        W31827  23.695  19.280  13.045
60299W        W31828  10.607   4.880   2.748
60300W        W31829  33.586   4.802  14.010
60301W        W31830  26.240  11.744   0.529
60302W        W31831  24.176   6.470  11.776
60303W        W31832  27.484  33.333  11.765
60304W        W31833  43.706  23.187   2.786
60305W        W31834   2.195   1.840   4.142
60306W        W31835   2.590  28.283  14.358
60307W        W31836  44.471  34.504   0.843
60308W        W31837  27.031  20.148   2.205
60309W        W31838  34.220  24.997   4.662
60310W        W31839  11.263   1.704  10.705
60311W        W31840  23.883  37.115   1.250
60312W        W31841   4.905   9.165  10.480
60313W        W31842  15.893  12.868   3.206
60314W        W31843  11.877  20.724  12.758
60315W        W31844  29.862  21.271  13.787
60316W        W31845  40.503  41.211  14.898
60317W        W31846  34.931  41.980   2.248
60318W        W31847  41.495  14.330   4.134
60319W        W31848  35.968  35.341   3.675
60320W        W31849   6.281  42.375   2.629
60321W        W31850  10.812   5.311   3.489
60322W        W31851  41.900  26.935   1.893
60323W        W31852  15.174  39.597  11.061
60324W        W31853  22.302  31.819   3.699
60325W        W31854  16.074  12.634   4.618
60326W        W31855  41.944   4.726   1.717
60327W        W31856  38.409  35.679   4.385
60328W        W31857   9.850   3.730  14.986
60329W        W31858  33.893  10.780   3.151
60330W        W31859  36.713  38.034  11.082
60331W        W31860  35.954  30.488   3.500
60332W        W31861  33.999  28.378   0.810
60333W        W31862  20.689   5.578   4.577
60334W        W31863  25.110  19.289  14.220
60335W        W31864  31.501  30.548   1.787
60336W        W31865  39.257  36.561  14.373
60337W        W31866  27.519  27.519  12.368
60338W        W31867   3.152  36.881  12.571
60339W        W31868  42.187  22.148   0.150
60340W        W31869  41.622   1.245   2.190
60341W        W31870  22.178  44.472  11.594
60342W        W31871  37.818  34.455   2.734
60343W        W31872  42.720   4.312   0.891
60344W        W31873   3.971  16.390  13.373
60345W        W31874  22.427  11.947  13.399
60346W        W31875  32.047  40.938  10.743
60347W        W31876   9.447  35.062   0.282
60348W        W31877   4.850  26.179  13.551
60349W        W31878  39.636  39.772   2.435
60350W        W31879  33.900  29.079   0.388
60351W        W31880  15.637  29.636   1.958
60352W        W31881  40.865  14.768  11.198
60353W        W31882  21.600  39.850  11.094
60354W        W31883  28.989  38.323  14.331
60355W        W31884  36.385   5.334  14.605
60356W        W31885  33.694   9.741   1.377
60357W        W31886   1.303  39.510  12.500
60358W        W31887   0.433  20.788  12.558
60359W        W31888  30.945  13.829   0.376
60360W        W31889  23.762  18.648   0.837
60361W        W31890  10.735  35.837  10.774
60362W        W31891  34.383  18.439  11.570
60363W        W31892  39.819  24.571  10.792
60364W        W31893  22.219  31.672   1.677
60365W        W31894  42.088  35.371  11.585
60366W        W31895   3.968  35.250  10.239
60367W        W31896   8.704  44.767   1.403
60368W        W31897  27.736   2.772   1.423
60369W        W31898  43.997  10.123   0.790
60370W        W31899  20.552  34.205  13.886
60371W        W31900  19.298  29.359  14.464
60372W        W31901  35.840  10.130   2.801
60373W        W31902  43.751  37.606  14.796
60374W        W31903  30.086  25.161  10.648
60375W        W31904  11.349   8.031  13.517
60376W        W31905  16.507  16.687  13.226
60377W        W31906   8.189  16.952  12.584
60378W        W31907   3.906  21.718  12.380
60379W        W31908   9.552  15.132  12.108
60380W        W31909  13.694  21.185  14.820
60381W        W31910  32.147  20.869  13.365
60382W        W31911  37.996  11.839  10.692
60383W        W31912   6.581  25.062   0.374
60384W        W31913  20.316  15.664  13.248
60385W        W31914  40.758  33.400  13.315
60386W        W31915   8.676  39.604  11.989
60387W        W31916  21.552  42.942   1.292
60388W        W31917  29.683  14.869  13.349
60389W        W31918   0.305  31.014  11.225
60390W        W31919   5.346   6.974   1.742
60391W        W31920  11.811   6.747  14.280
60392W        W31921  27.979  39.432  12.032
60393W        W31922   9.857  13.124   0.202
60394W        W31923  20.256  44.952  13.944
60395W        W31924  35.859  32.925   0.339
60396W        W31925  40.421   1.778  12.048
60397W        W31926  18.504  30.843   5.741
60398W        W31927  20.787  28.960   4.688
60399W        W31928  38.881   9.863   4.429
60400W        W31929  43.022  34.474   0.510
60401W        W31930  26.122  17.090   4.916
60402W        W31931   7.415  15.120   2.081
60403W        W31932  17.733  38.320   0.960
60404W        W31933  29.608   3.371   0.435
60405W        W31934  28.630   4.278  12.326
60406W        W31935   7.874  43.323   1.304
60407W        W31936   8.959   1.459  11.691
60408W        W31937  32.912  39.024  12.456
60409W        W31938  18.562  38.281   2.246
60410W        W31939  40.417  33.493  14.207
60411W        W31940  11.203   7.553   3.664
60412W        W31941  15.853  15.812   4.553
60413W        W31942  28.511  32.884  13.926
60414W        W31943  22.695  34.299   2.957
60415W        W31944   4.067  37.084   3.618
60416W        W31945   3.889  40.155   4.733
60417W        W31946   3.487  37.774  14.867
60418W        W31947   5.643   3.362  14.973
60419W        W31948   1.793  11.764   0.489
60420W        W31949  10.267  28.853  12.856
60421W        W31950   3.069   4.458  14.669
60422W        W31951  38.441   2.893  13.968
60423W        W31952  18.190  35.482  11.612
60424W        W31953   0.254  25.767   3.325
60425W        W31954  11.088  19.020  13.988
60426W        W31955  36.303  41.860  10.794
60427W        W31956   1.050  32.937   4.986
60428W        W31957  36.010  10.069   0.480
60429W        W31958  29.567  34.667  11.495
60430W        W31959  16.756  31.605   2.108
60431W        W31960  11.837  42.737  12.951
60432W        W31961  18.224  32.870  10.503
60433W        W31962  30.516   8.130  11.192
60434W        W31963  13.130  33.839   3.808
60435W        W31964  25.913  16.743   4.561
60436W        W31965   9.588   4.493  11.548
60437W        W31966   5.357   9.851   1.368
60438W        W31967  38.985  25.834   1.756
60439W        W31968  12.604   2.413   0.072
60440W        W31969  24.567  30.038  11.357
60441W        W31970   0.886  30.630  10.150
60442W        W31971  16.590   0.286   1.433
60443W        W31972  13.110  29.688   3.145
60444W        W31973  42.042  11.157   1.303
60445W        W31974   7.397  27.245  10.964
60446W        W31975  35.873   7.432  14.477
60447W        W31976  24.696  19.101  12.931
60448W        W31977  23.727  20.904   0.560
60449W        W31978  20.115  25.086   2.227
60450W        W31979  41.529  11.746  10.827
60451W        W31980   1.694   2.754  12.583
60452W        W31981  19.638   8.594   2.141
60453W        W31982  44.494  31.790   0.291
60454W        W31983  21.192  35.044   0.871
60455W        W31984  26.309  36.893  10.764
60456W        W31985  40.986  18.130   4.195
60457W        W31986  31.377   7.760  11.256
60458W        W31987   2.935   1.592   1.880
60459W        W31988  42.965  16.661   4.441
60460W        W31989  27.621  14.175  11.166
60461W        W31990  16.804  26.549   0.842
60462W        W31991  27.461  24.814   1.912
60463W        W31992  32.870  24.134   4.192
60464W        W31993  40.645  19.728  11.952
60465W        W31994  19.194  11.786   0.751
60466W        W31995  12.276   7.935  13.281
60467W        W31996  23.422  25.624   1.687
60468W        W31997  22.933  10.186  14.296
60469W        W31998  16.543  36.189  14.284
60470W        W31999  10.671  11.124   3.278
60471W        W32000   9.733   3.724  13.563
60472W        W32001  18.343  39.386  11.202
60473W        W32002   3.802  24.238  11.366
60474W        W32003  32.870  29.598   4.340
60475W        W32004  21.086   8.292  11.200
60476W        W32005  26.107  42.305   5.093
60477W        W32006  37.972  32.600   0.914
60478W        W32007  15.201  16.327   2.933
60479W        W32008  22.030  20.279  13.111
60480W        W32009  24.242  18.496  13.520
60481W        W32010  13.153  13.218   0.654
60482W        W32011   3.394  19.383   4.980
60483W        W32012   3.677  37.587   1.645
60484W        W32013  18.498  37.456   5.094
60485W        W32014  24.673  25.598   4.918
60486W        W32015  26.293  33.599   0.408
60487W        W32016  36.985  26.130  11.565
60488W        W32017  13.147  31.814  13.915
60489W        W32018   8.799  10.696  12.004
60490W        W32019  28.458  13.897   5.000
60491W        W32020  19.756  19.690   4.555
60492W        W32021   7.835  10.499  14.058
60493W        W32022  19.827  21.629   3.034
60494W        W32023  29.149  44.827   2.198
60495W        W32024  14.118  15.134  14.082
60496W        W32025   2.771  41.624   3.069
60497W        W32026  15.900  43.043   0.998
60498W        W32027   1.978  41.735   1.867
60499W        W32028  29.947  29.026   4.802
60500W        W32029  23.100   2.293   3.652
60501W        W32030  34.586   7.865  14.559
60502W        W32031  10.259  10.801   3.234
60503W        W32032  39.050   8.673   1.313
60504W        W32033  43.926   6.916  13.438
60505W        W32034  22.695  23.577   3.131
60506W        W32035  30.059  19.594  12.959
60507W        W32036  24.217  11.759   2.505
60508W        W32037   8.905  31.271  13.669
60509W        W32038   7.661  16.236   4.559
60510W        W32039  31.341  43.353  12.723
60511W        W32040  29.427   4.874  12.563
60512W        W32041  24.753   4.285   0.603
60513W        W32042  17.093  30.269   4.876
60514W        W32043  40.251  12.827   4.056
60515W        W32044  35.062   1.791   1.796
60516W        W32045   1.939   9.800   3.306
60517W        W32046  33.383  21.054   0.748
60518W        W32047  38.808  31.849   2.863
60519W        W32048  16.223  18.160  12.560
60520W        W32049   3.533  44.621   0.420
60521W        W32050  28.829  21.722  11.655
60522W        W32051  21.196  34.597   0.520
60523W        W32052  19.516  43.456  12.008
60524W        W32053  13.654  25.690  10.470
60525W        W32054  21.313   1.859   2.766
60526W        W32055  14.038  32.826  11.892
60527W        W32056  36.808  13.490  11.625
60528W        W32057  42.338  41.247   3.484
60529W        W32058  35.838  26.976  11.923
60530W        W32059  34.581  11.380   2.783
60531W        W32060  18.544  33.586  14.267
60532W        W32061  26.790  33.830   2.342
60533W        W32062  15.633  18.251  10.917
60534W        W32063  17.459  30.111  11.430
60535W        W32064  28.058  34.517   2.723
60536W        W32065  35.327  13.407   2.758
60537W        W32066  20.002   6.814  11.172
60538W        W32067  25.560  16.462   1.686
60539W        W32068  11.367   4.018   3.192
60540W        W32069   4.255  38.790   4.569
60541W        W32070  40.828  37.190   1.489
60542W        W32071  18.761  14.003   4.170
60543W        W32072  24.051  30.198  11.145
60544W        W32073  21.291   6.172  14.076
60545W        W32074  25.493  19.268   0.395
60546W        W32075  27.398  32.090   1.325
60547W        W32076  32.379  33.573  10.058
60548W        W32077  30.664  43.330   1.660
60549W        W32078  28.716  12.415  14.469
60550W        W32079   1.866  34.059  11.537
60551W        W32080  31.587  28.483  13.520
60552W        W32081   6.678   7.665   4.837
60553W        W32082  31.166   7.919   4.754
60554W        W32083  23.735  13.912   3.632
60555W        W32084  22.988  40.335   2.673
60556W        W32085  38.296  27.925   4.104
60557W        W32086  29.022   6.760   3.825
60558W        W32087  33.280  12.518  11.477
60559W        W32088  23.735  14.426   2.698
60560W        W32089  40.922  18.545  11.187
60561W        W32090  26.695  35.536  13.412
60562W        W32091  33.523  35.022  13.529
60563W        W32092  31.214  19.625   5.014
60564W        W32093   5.743  37.836   4.116
60565W        W32094  24.914  41.051   1.676
60566W        W32095   7.732  32.970   2.393
60567W        W32096  34.616  31.425  14.409
60568W        W32097  32.955  23.139  14.693
60569W        W32098  35.368   4.306   4.235
60570W        W32099  26.374   1.707   3.253
60571W        W32100  14.808  21.247  14.745
60572W        W32101   5.656   1.623   4.129
60573W        W32102  28.433  37.763   3.737
60574W        W32103   2.618  26.043   3.264
60575W        W32104  26.210  29.475  14.953
60576W        W32105  15.546  32.002   1.950
60577W        W32106  17.213  24.132   1.428
60578W        W32107  17.620  27.951  10.723
60579W        W32108  26.483  31.784  11.037
60580W        W32109  44.354   0.291  14.426
60581W        W32110  18.772  16.126   2.429
60582W        W32111  22.447  44.514  13.361
60583W        W32112  35.968  10.137   3.701
60584W        W32113   7.098  43.889   1.183
60585W        W32114  34.655  37.365   4.661
60586W        W32115  44.853  12.878   2.327
60587W        W32116  16.770  15.233   3.585
60588W        W32117  10.944  18.357  12.905
60589W        W32118   9.538  19.813  11.695
60590W        W32119  38.237   6.833  12.540
60591W        W32120  23.240   1.751   0.434
60592W        W32121  34.238   4.453  12.079
60593W        W32122   0.755  31.119   1.033
60594W        W32123   9.371  13.627  13.028
60595W        W32124  31.608  18.702   4.695
60596W        W32125  36.368  42.354   2.194
60597W        W32126  25.980  40.747   1.774
60598W        W32127  33.390  20.100   3.458
60599W        W32128  12.973  39.062  14.486
60600W        W32129  21.486  30.121   3.855
60601W        W32130   5.876  23.602   2.780
60602W        W32131  20.340   9.099   1.092
60603W        W32132  19.739  29.628  14.418
60604W        W32133  14.067  12.801  12.831
60605W        W32134  35.304  35.463   2.627
60606W        W32135  44.924  27.653   4.106
60607W        W32136  39.053  37.315   0.007
60608W        W32137  29.569  42.529  14.848
60609W        W32138   6.338   9.947  10.820
60610W        W32139  11.504   8.248  10.490
60611W        W32140  26.638  23.640  14.976
60612W        W32141  30.906  32.440  13.980
60613W        W32142  39.871   4.701  10.393
60614W        W32143  25.135  29.299   3.689
60615W        W32144  21.374  10.965   4.258
60616W        W32145  30.932  24.553   3.684
60617W        W32146  35.481  10.421  14.730
60618W        W32147   5.487  36.578  12.369
60619W        W32148   0.996  24.506  13.713
60620W        W32149   6.054  23.293  12.026
60621W        W32150  31.827  10.531  13.014
60622W        W32151   6.086  11.832  11.705
60623W        W32152  44.497  23.779  14.409
60624W        W32153  36.516  18.718  12.549
60625W        W32154  27.981  11.025   4.509
60626W        W32155  34.629  12.718   1.157
60627W        W32156  24.994   1.665  13.931
60628W        W32157  40.600  16.813  14.571
60629W        W32158  29.706  18.324  13.984
60630W        W32159   6.546  31.596  12.050
60631W        W32160   5.234  42.817   3.641
60632W        W32161   7.254  10.069   0.808
60633W        W32162  37.288  23.298   0.040
60634W        W32163  27.460  35.533   4.593
60635W        W32164  40.306   4.892  11.708
60636W        W32165  40.849  40.775  11.969
60637W        W32166  22.689  39.457  11.944
60638W        W32167  13.115   2.831   1.698
60639W        W32168  38.363  39.639  12.074
60640W        W32169  44.341  27.686  10.587
60641W        W32170  32.485  37.569  11.200
60642W        W32171   0.875   3.798   4.220
60643W        W32172  11.265  25.526   0.238
60644W        W32173  28.502   0.880   4.107
60645W        W32174  42.015   7.246   0.065
60646W        W32175   0.255   0.439   2.788
60647W        W32176   6.999  43.486  11.046
60648W        W32177  17.638   7.848   4.145
60649W        W32178  12.290  41.067  14.747
60650W        W32179  37.760  39.784  12.612
60651W        W32180  26.170  12.116   4.766
60652W        W32181  39.292  16.467  10.366
60653W        W32182  21.799  24.042  14.413
60654W        W32183  20.122  14.775  12.639
60655W        W32184   7.929  24.120   2.425
60656W        W32185  12.641   6.989   1.532
60657W        W32186  25.715  40.203  11.580
60658W        W32187  38.732   6.192  14.446
60659W        W32188  13.990  21.687   4.046
60660W        W32189   7.154  12.315   1.721
60661W        W32190   7.498  30.612   4.098
60662W        W32191  36.093  16.688  10.447
60663W        W32192   6.098  36.722   2.873
60664W        W32193  11.990  18.235  14.927
60665W        W32194  13.706   6.922   2.391
60666W        W32195   3.954  10.677   4.666
60667W        W32196  29.019   9.399  13.005
60668W        W32197  25.484  20.562   0.818
60669W        W32198   5.500  15.209   2.638
60670W        W32199  41.727  44.289  12.998
60671W        W32200  29.452  15.289  13.092
60672W        W32201   4.456  41.237  13.070
60673W        W32202  29.076  40.986  12.776
60674W        W32203   5.281  41.639   3.208
60675W        W32204   7.846  28.995  13.898
60676W        W32205  37.722  17.710   2.246
60677W        W32206  27.662  43.221   3.132
60678W        W32207  35.530  44.353   0.981
60679W        W32208  40.702  19.404  10.201
60680W        W32209  19.781   0.078  13.787
60681W        W32210   9.822  34.334  14.365
60682W        W32211  15.169  43.137  13.009
60683W        W32212   1.271  20.353   1.944
60684W        W32213  35.482  33.579  14.240
60685W        W32214  37.594  32.261   2.190
60686W        W32215  36.030  18.593  11.472
60687W        W32216  14.397  20.071   5.435
60688W        W32217   5.636   2.175   3.947
60689W        W32218  22.159  26.391  14.427
60690W        W32219  28.004   3.444  11.601
60691W        W32220  41.072   6.964   2.698
60692W        W32221  43.297  28.062   4.108
60693W        W32222  43.716  37.776  13.417
60694W        W32223  32.660   8.882   3.767
60695W        W32224  38.979  28.929  12.939
60696W        W32225  23.992  12.359  12.276
60697W        W32226  36.418  23.198  11.057
60698W        W32227  11.686  23.839   0.358
60699W        W32228  17.713  36.363  14.819
60700W        W32229  36.005   1.792   4.052
60701W        W32230  20.241  43.536  12.699
60702W        W32231   2.348  44.501  14.773
60703W        W32232  12.292  19.797  13.092
60704W        W32233   0.324  21.656   1.465
60705W        W32234  34.898  10.255   2.291
60706W        W32235  44.085  31.183  10.855
60707W        W32236  32.517  12.688  14.940
60708W        W32237  34.354  14.811  12.628
60709W        W32238  27.700   1.397   2.526
60710W        W32239  36.574  29.457   2.721
60711W        W32240  23.250  20.197   2.883
60712W        W32241  17.101  39.847  11.979
60713W        W32242  28.066   1.365   1.287
60714W        W32243   9.957  37.505  10.798
60715W        W32244   5.807  30.704  11.983
60716W        W32245  19.289   5.631  14.919
60717W        W32246  42.613   1.981   2.892
60718W        W32247   0.108  33.131   0.678
60719W        W32248  41.945  35.737   1.035
60720W        W32249  22.052  16.821   4.578
60721W        W32250  30.088   4.865   0.426
60722W        W32251   9.316  21.440   0.460
60723W        W32252  27.974  16.852   1.242
60724W        W32253  34.693  26.069  12.229
60725W        W32254  14.308  42.032  13.875
60726W        W32255  37.436  33.866  13.841
60727W        W32256  32.599  43.274  10.202
60728W        W32257  22.565   6.460   4.109
60729W        W32258  36.071  28.496  13.018
60730W        W32259  43.487   7.627   2.283
60731W        W32260  20.559  41.934  14.983
60732W        W32261  15.930  19.048   4.627
60733W        W32262  19.196  12.523  14.607
60734W        W32263  18.932  40.342   0.964
60735W        W32264  34.965  22.019  14.568
60736W        W32265  25.609   2.393  14.797
60737W        W32266  23.306  39.901   2.739
60738W        W32267  36.062  41.529   4.585
60739W        W32268  31.956  21.598   3.652
60740W        W32269  15.471  41.912   0.946
60741W        W32270  36.455  31.644   0.493
60742W        W32271  21.240  24.404  13.401
60743W        W32272  41.915  44.486   0.701
60744W        W32273  28.008  40.576   5.052
60745W        W32274  37.410  33.166   4.542
60746W        W32275  10.335  19.748   3.652
60747W        W32276  38.856  32.121   2.363
60748W        W32277   3.492  42.274  11.693
60749W        W32278   0.924   0.614  11.052
60750W        W32279  16.583  27.881   0.052
60751W        W32280  26.527   4.048   4.336
60752W        W32281  37.321  40.860  14.188
60753W        W32282  19.202  17.237  10.497
60754W        W32283  40.698  34.403   1.162
60755W        W32284  44.417  25.477   4.458
60756W        W32285  26.657  33.628   4.159
60757W        W32286  20.231   5.450   0.087
60758W        W32287  16.528  38.946   4.634
60759W        W32288  38.917  12.201  10.952
60760W        W32289  14.683   0.056  14.016
60761W        W32290  16.719  19.583   2.712
60762W        W32291  38.930   3.755  12.728
60763W        W32292  24.717  38.274  13.357
60764W        W32293  28.769   4.688  11.429
60765W        W32294  18.759  37.900   3.673
60766W        W32295  20.169  31.609   2.703
60767W        W32296  18.707  15.881  13.594
60768W        W32297  33.590   1.593   4.461
60769W        W32298  36.941   9.231  12.349
60770W        W32299  40.264  28.942  11.953
60771W        W32300  14.639  32.445  13.730
60772W        W32301  40.333  32.868   2.442
60773W        W32302   9.162  19.530   1.253
60774W        W32303  31.548  20.893   4.059
60775W        W32304  10.420  15.990  12.631
60776W        W32305   9.368   6.392   0.860
60777W        W32306  25.973  13.172   2.848
60778W        W32307   6.225   2.811   4.466
60779W        W32308  35.462  23.185  11.180
60780W        W32309  44.189  40.429  13.332
60781W        W32310  41.245   4.031  14.117
60782W        W32311  38.468  39.843   1.725
60783W        W32312  42.437  13.125   2.874
60784W        W32313  18.736   1.543  12.014
60785W        W32314  14.564  13.889  12.281
60786W        W32315  36.910   7.420  10.551
60787W        W32316   8.987  12.336  11.563
60788W        W32317   8.830  23.266   0.408
60789W        W32318  39.030  17.232   1.260
60790W        W32319  32.827  13.898   0.414
60791W        W32320  18.057  33.035   3.357
60792W        W32321  27.413  42.042  10.654
60793W        W32322  15.943  21.077  14.044
60794W        W32323  43.843  26.218   1.730
60795W        W32324   2.060  28.366  14.351
60796W        W32325  25.712  30.713  11.941
60797W        W32326  43.054   7.276   1.731
60798W        W32327  43.855  36.085  11.106
60799W        W32328  20.097  12.636  11.385
60800W        W32329  39.625   6.321   4.844
60801W        W32330  16.729   5.551  11.043
60802W        W32331   6.880  27.521  13.423
60803W        W32332  40.345   0.218   3.885
60804W        W32333  34.364  36.908   3.083
60805W        W32334  19.005  40.780   2.654
60806W        W32335  11.257  18.594   2.302
60807W        W32336  44.382  32.635  14.906
60808W        W32337  41.233  44.918   3.440
60809W        W32338  12.962  19.765  12.487
60810W        W32339  13.220   7.223   4.514
60811W        W32340   1.258   7.948   0.397
60812W        W32341  35.644  11.701   2.662
60813W        W32342   6.694  20.047   1.898
60814W        W32343  42.031  40.766   3.624
60815W        W32344  43.099  21.768  14.495
60816W        W32345  30.319  26.123   0.396
60817W        W32346  40.251  33.486   3.607
60818W        W32347  40.276   3.458   2.930
60819W        W32348   0.465  39.901   3.851
60820W        W32349  32.447  36.250   3.256
60821W        W32350  28.518   1.780   4.047
60822W        W32351  25.147  16.163   2.447
60823W        W32352  28.122  24.589   3.638
60824W        W32353  24.010  40.063  13.612
60825W        W32354  14.827  17.260   2.162
60826W        W32355  28.096   1.660   4.616
60827W        W32356   3.469  17.829  10.636
60828W        W32357  26.216  17.032  13.288
60829W        W32358  39.795  39.786  10.761
60830W        W32359  31.186  16.653   2.041
60831W        W32360   6.292  35.377  13.154
60832W        W32361  39.264  25.012   4.586
60833W        W32362   7.347  40.796   0.208
60834W        W32363  43.370  22.153  12.071
60835W        W32364  28.738  40.398   1.884
60836W        W32365   7.691  16.119   2.700
60837W        W32366  21.221  11.468   0.296
60838W        W32367  11.826  13.873   1.826
60839W        W32368  12.567  39.547  11.569
60840W        W32369  15.500  39.740   0.325
60841W        W32370   2.430  37.963   1.394
60842W        W32371   2.565  25.285   2.817
60843W        W32372   2.295  22.782  12.591
60844W        W32373  30.427  12.915   4.852
60845W        W32374  24.005  25.492   0.426
60846W        W32375   1.968  42.167  12.891
60847W        W32376  36.629  16.257  12.393
60848W        W32377   2.957  28.133  13.573
60849W        W32378  12.653  34.004  14.390
60850W        W32379  22.175   8.824  11.644
60851W        W32380   1.378  40.813  11.446
60852W        W32381   6.673   5.793  11.439
60853W        W32382  30.202  19.069  13.900
60854W        W32383  32.930  39.630   4.597
60855W        W32384   1.382  32.152   2.576
60856W        W32385  31.164   3.213  14.804
60857W        W32386  42.553  30.574  12.483
60858W        W32387  14.133  33.710  13.042
60859W        W32388  16.677  27.839   1.391
60860W        W32389   9.881  17.206   1.807
60861W        W32390  33.000  42.623  13.405
60862W        W32391   1.839   8.664   1.733
60863W        W32392  18.514  42.317  13.467
60864W        W32393  36.331  11.353   3.561
60865W        W32394  31.380  14.332  11.664
60866W        W32395  17.076  44.806  13.278
60867W        W32396  37.848  16.552  11.932
60868W        W32397  18.270  13.743  12.627
60869W        W32398  25.565  14.323   3.670
60870W        W32399  41.890   6.611  12.036
60871W        W32400  20.024  29.269  11.532
60872W        W32401  25.245  38.102  13.866
60873W        W32402  15.043  41.726   3.851
60874W        W32403  11.411  41.816  13.026
60875W        W32404  12.070  32.023  12.479
60876W        W32405   5.159  35.427  12.706
60877W        W32406  21.160  12.095  12.092
60878W        W32407   2.799  13.245  13.838
60879W        W32408  24.763  34.295  13.760
60880W        W32409   5.502  31.095   1.389
60881W        W32410  19.643  19.358   4.938
60882W        W32411  15.324  42.302   2.253
60883W        W32412  19.409  31.005  12.510
60884W        W32413  27.114   7.154   0.917
60885W        W32414  39.298  29.521   1.255
60886W        W32415   4.764   5.882   4.060
60887W        W32416  12.930  20.303   2.240
60888W        W32417  38.357  28.536  11.542
60889W        W32418  41.957  17.475   1.708
60890W        W32419  25.344   1.921  14.882
60891W        W32420  39.238   2.649   0.934
60892W        W32421   4.184  33.266   2.456
60893W        W32422  37.282  10.547   4.134
60894W        W32423  13.908  15.864   3.644
60895W        W32424  35.435  28.342  14.954
60896W        W32425  30.666  38.308  10.823
60897W        W32426  20.256  34.696   2.921
60898W        W32427  10.382  32.056  13.325
60899W        W32428   4.379  43.248   3.762
60900W        W32429  21.464  23.199   2.731
60901W        W32430  17.826  17.987  11.964
60902W        W32431  44.053  17.136   0.424
60903W        W32432   5.806   2.307   3.432
60904W        W32433  25.356  17.732   2.721
60905W        W32434  19.611  14.131   1.767
60906W        W32435   5.639  14.552  13.932
60907W        W32436   9.675   3.817   3.661
60908W        W32437  32.372  43.811  11.448
60909W        W32438  12.864  33.592   0.322
60910W        W32439  21.578  44.551   2.802
60911W        W32440  37.652  15.719  14.892
60912W        W32441  12.764  20.113   1.710
60913W        W32442  35.584   5.086  11.955
60914W        W32443  15.626  35.121  10.536
60915W        W32444  16.700  18.410   9.996
60916W        W32445  41.388  15.258  10.745
60917W        W32446  44.887  32.463   0.413
60918W        W32447   7.349  32.707  13.096
60919W        W32448  28.928  17.346  14.947
60920W        W32449   4.944  24.464   4.123
60921W        W32450   8.741  23.088   0.921
60922W        W32451  41.370  27.978   3.203
60923W        W32452  41.068  17.539  12.829
60924W        W32453   9.629  18.597  13.458
60925W        W32454  22.587   1.264  12.635
60926W        W32455  38.282  14.411   0.361
60927W        W32456  33.519  43.457   2.774
60928W        W32457  33.754  13.107  11.063
60929W        W32458   3.407  26.911   4.578
60930W        W32459  40.301  41.333   0.818
60931W        W32460  39.503   3.770   2.482
60932W        W32461  40.871   3.060  13.452
60933W        W32462  27.233  24.079   4.207
60934W        W32463  29.613   3.428   2.728
60935W        W32464  39.051   6.703  10.216
60936W        W32465  39.094  20.266  11.386
60937W        W32466  39.568  11.776   2.634
60938W        W32467  10.912  35.119  11.450
60939W        W32468  40.480  25.627  14.090
60940W        W32469  38.360  13.576  11.142
60941W        W32470   0.234  27.061  12.898
60942W        W32471  29.956  15.157   3.101
60943W        W32472  23.123  32.070   4.135
60944W        W32473  16.705   7.833   4.114
60945W        W32474  10.123  19.125   1.201
60946W        W32475  35.796  15.071  11.625
60947W        W32476  15.686  32.985   1.777
60948W        W32477  13.571  10.667   4.623
60949W        W32478  31.231   5.434   3.195
60950W        W32479  24.469  18.895   3.362
60951W        W32480  10.177  21.180   1.756
60952W        W32481  33.446  44.569   2.840
60953W        W32482  44.356  44.966  10.749
60954W        W32483  10.773  23.019  12.092
60955W        W32484  22.348   6.079   1.007
60956W        W32485  26.681  31.882  13.410
60957W        W32486   3.959  16.614  11.986
60958W        W32487  23.080   6.307   4.040
60959W        W32488  10.194  30.047  11.044
60960W        W32489  21.029  26.856  11.883
60961W        W32490  41.377  44.279  11.060
60962W        W32491  24.292  34.503  13.771
60963W        W32492  12.361  11.806  13.826
60964W        W32493  35.684  25.101  13.412
60965W        W32494   0.972  13.291  11.735
60966W        W32495  36.180  32.502   4.787
60967W        W32496  40.356  42.899  14.141
60968W        W32497  19.129  28.866  12.249
60969W        W32498  11.158   7.798  14.922
60970W        W32499  44.757  10.911   3.131
60971W        W32500  41.442  37.337  12.466
60972W        W32501  25.161  21.649   5.041
60973W        W32502  22.972  16.313  12.655
60974W        W32503  35.397   6.498  14.399
60975W        W32504  29.139  43.979  13.117
60976W        W32505  11.533  38.395   3.140
60977W        W32506  22.293  43.988   2.261
60978W        W32507   3.766   2.551  12.353
60979W        W32508   2.244  24.972   1.733
60980W        W32509  31.957  22.157  11.165
60981W        W32510  20.679  38.642   2.779
60982W        W32511  29.943  32.615  13.016
60983W        W32512   1.820   0.170   3.523
60984W        W32513  31.875   3.717   2.705
60985W        W32514  14.973  28.930   0.048
60986W        W32515   0.086  12.255  12.066
60987W        W32516   5.887  12.028   2.941
60988W        W32517  44.438   2.785   4.191
60989W        W32518   7.679  35.082   3.062
60990W        W32519  39.491  40.571  11.962
60991W        W32520  42.884   0.707  11.211
60992W        W32521  36.502  40.021  13.792
60993W        W32522  26.683  25.594  13.015
60994W        W32523   8.315  17.849  14.001
60995W        W32524   1.008   9.134  12.196
60996W        W32525  39.242   5.152   0.969
60997W        W32526  32.556   3.241  10.638
60998W        W32527  33.879  41.330   4.542
60999W        W32528  33.824  42.649  14.736
61000W        W32529  35.000  25.262   3.599
61001W        W32530  43.768  42.053   1.051
61002W        W32531  33.463   7.438   1.299
61003W        W32532  44.301  14.548  13.163
61004W        W32533   6.484  24.653   2.561
61005W        W32534  22.750   3.771  13.826
61006W        W32535  14.140  36.698   2.726
61007W        W32536  20.365  36.985   4.565
61008W        W32537  40.513  26.029  11.205
61009W        W32538  30.786  29.598  11.188
61010W        W32539   9.904  34.936   1.243
61011W        W32540  27.063  44.053   0.870
61012W        W32541  42.584  35.443  14.450
61013W        W32542  21.681  29.384   1.794
61014W        W32543  16.782   0.708   2.380
61015W        W32544  41.655   9.439   3.571
61016W        W32545  43.061  32.900  11.967
61017W        W32546  31.897  15.165  14.404
61018W        W32547  41.001   3.176   3.211
61019W        W32548  39.753  16.675  12.868
61020W        W32549  31.321  12.017  12.876
61021W        W32550  15.685   4.644  11.619
61022W        W32551  30.610  13.755  14.982
61023W        W32552  30.443  38.780   2.166
61024W        W32553  15.114   8.674  14.779
61025W        W32554   8.208  38.482   0.485
61026W        W32555  29.658  38.912  12.937
61027W        W32556  19.265  33.827  14.730
61028W        W32557  34.026   0.489  14.350
61029W        W32558  31.549  26.679   4.484
61030W        W32559   7.467  23.184  10.578
61031W        W32560  14.991   6.696  14.305
61032W        W32561   6.719  42.095  11.023
61033W        W32562  21.655  27.536  11.940
61034W        W32563   3.251  23.494  14.987
61035W        W32564  20.512  36.660  12.485
61036W        W32565  15.896  32.625   2.386
61037W        W32566  10.616   7.599  14.857
61038W        W32567  19.161   9.981   2.237
61039W        W32568   3.421  24.424   1.591
61040W        W32569   1.367  40.015  12.411
61041W        W32570  36.437  26.979  10.681
61042W        W32571  30.214   0.828   0.263
61043W        W32572  20.367  23.175  12.381
61044W        W32573  27.222   1.841  13.529
61045W        W32574  43.239  13.643   1.027
61046W        W32575  23.637   9.939  13.514
61047W        W32576  39.294  13.211   2.136
61048W        W32577   1.965  35.030   3.656
61049W        W32578  13.287  14.246   4.127
61050W        W32579  16.670  42.283  14.484
61051W        W32580  24.738   4.256   1.316
61052W        W32581  33.978  12.634   3.805
61053W        W32582   7.373  33.000  11.669
61054W        W32583  11.471  32.687  12.864
61055W        W32584  23.551  12.113   4.702
61056W        W32585  31.395   6.466   0.989
61057W        W32586   0.225  17.831   2.804
61058W        W32587  38.530  40.994   0.791
61059W        W32588   3.916  31.082  13.447
61060W        W32589  26.143  10.073  11.553
61061W        W32590   8.688  22.028   0.099
61062W        W32591  41.045  29.198   4.407
61063W        W32592   9.850  13.371   3.775
61064W        W32593  22.560  12.814   0.994
61065W        W32594   1.444  40.825  12.993
61066W        W32595   2.883   9.781  12.872
61067W        W32596   5.870  30.374   1.758
61068W        W32597   3.296  25.254   1.909
61069W        W32598   3.032   8.966  13.442
61070W        W32599  21.147  20.139   2.086
61071W        W32600   8.685  33.404   3.833
61072W        W32601   1.161  31.981   2.150
61073W        W32602  11.158  23.678   4.614
61074W        W32603   9.852  11.954   3.625
61075W        W32604  33.588  15.269   3.757
61076W        W32605  20.275  12.899   0.254
61077W        W32606  26.140  28.754  12.384
61078W        W32607  38.814  32.439  12.291
61079W        W32608  24.743   0.212  14.070
61080W        W32609   1.355  13.647  14.992
61081W        W32610  25.158  23.713   2.393
61082W        W32611  26.494  14.646   4.537
61083W        W32612  40.906  44.657  14.038
61084W        W32613   9.229  20.307   4.682
61085W        W32614  20.559  11.787   4.175
61086W        W32615  10.811  30.594  13.016
61087W        W32616  24.432  39.798   3.754
61088W        W32617  18.484  37.020  14.070
61089W        W32618  30.866  13.272  13.450
61090W        W32619  35.073  24.980  14.668
61091W        W32620   6.889  27.525  11.585
61092W        W32621  22.538  42.460   1.350
61093W        W32622  40.924  22.289  12.029
61094W        W32623  31.597  15.838   1.766
61095W        W32624  42.456  44.512  13.341
61096W        W32625   6.692   9.202   4.831
61097W        W32626  21.215  15.605   3.721
61098W        W32627  42.567   2.965   4.142
61099W        W32628   2.334   1.868  13.818
61100W        W32629  34.756   5.946   0.261
61101W        W32630   6.815   6.258  10.637
61102W        W32631   3.892  24.688   3.266
61103W        W32632  13.310   6.613   2.683
61104W        W32633  21.017  10.016   2.346
61105W        W32634  12.152  18.258   3.459
61106W        W32635   8.377  25.862  13.466
61107W        W32636  37.942  41.849   1.682
61108W        W32637  32.865  17.890   3.694
61109W        W32638  34.354   5.058  10.789
61110W        W32639  26.623  38.402   0.279
61111W        W32640  44.753  31.292   2.786
61112W        W32641  26.942  38.967   2.772
61113W        W32642  36.352  30.891   3.653
61114W        W32643  30.682  41.083   4.805
61115W        W32644  40.914   5.727  12.504
61116W        W32645  12.609  36.921   0.938
61117W        W32646  32.198   3.324  11.405
61118W        W32647   3.204  22.183   4.516
61119W        W32648   1.696  43.106   3.229
61120W        W32649  41.530  32.545  11.647
61121W        W32650  30.858  11.790  10.744
61122W        W32651  35.375  10.295   2.933
61123W        W32652  11.198  33.646   2.311
61124W        W32653   6.328  42.499   4.167
61125W        W32654  44.810  38.842   4.151
61126W        W32655  37.516  27.549   2.597
61127W        W32656   4.795  31.072  13.936
61128W        W32657  12.275  12.101  13.408
61129W        W32658   1.917  30.120   2.618
61130W        W32659  43.540  33.510  14.464
61131W        W32660  41.882   7.681  14.819
61132W        W32661   7.444  11.920   1.492
61133W        W32662  10.426  17.173   3.179
61134W        W32663  17.689  25.565  11.940
61135W        W32664  15.286   9.593  13.967
61136W        W32665  31.022  10.377  13.515
61137W        W32666  24.958  42.328   2.206
61138W        W32667   5.532  26.408   3.629
61139W        W32668  38.032  39.802  10.845
61140W        W32669  36.983  30.117  13.875
61141W        W32670  26.942  19.569   0.891
61142W        W32671  42.295  15.052   1.758
61143W        W32672  27.715  42.933   3.709
61144W        W32673  15.360  27.968  14.964
61145W        W32674  44.066   9.224   2.768
61146W        W32675   2.392   8.350   4.467
61147W        W32676   8.208  22.427  12.067
61148W        W32677  37.344  29.085  13.534
61149W        W32678   3.008  40.188   3.576
61150W        W32679   2.243   8.874   0.864
61151W        W32680  37.588   1.513   1.827
61152W        W32681  41.337  15.576   3.179
61153W        W32682  18.024  26.596  11.560
61154W        W32683  20.747  22.228   3.416
61155W        W32684  25.460   2.233   0.743
61156W        W32685  20.133   3.098   3.446
61157W        W32686   4.395  36.334  10.666
61158W        W32687  24.915  13.606  12.540
61159W        W32688   7.736  37.884   3.588
61160W        W32689  28.632   6.825   4.163
61161W        W32690  39.056   9.869  12.746
61162W        W32691   2.619  11.298   3.676
61163W        W32692  39.247  14.777   1.374
61164W        W32693   8.234  16.391  13.874
61165W        W32694  40.549  32.811   1.983
61166W        W32695  13.257  32.347  13.908
61167W        W32696   6.764  16.639  11.517
61168W        W32697   4.981   2.496   2.071
61169W        W32698  31.675   8.040  13.115
61170W        W32699  34.562  43.461   4.576
61171W        W32700  42.945   2.549   3.854
61172W        W32701  30.473  29.449  11.567
61173W        W32702  12.824   1.321  12.476
61174W        W32703  38.563  37.410  11.889
61175W        W32704  36.890   2.234  12.419
61176W        W32705  13.753  28.203   3.812
61177W        W32706  24.172  17.739  12.639
61178W        W32707  33.933  37.935  10.802
61179W        W32708  34.341   1.679   1.310
61180W        W32709  24.921   1.942   3.846
61181W        W32710   7.686  34.065  14.498
61182W        W32711  36.895  22.488   0.990
61183W        W32712  44.291  35.327   4.379
61184W        W32713  11.314  18.491  12.535
61185W        W32714  14.719  14.238   3.032
61186W        W32715  15.035   4.739   3.261
61187W        W32716  36.123  43.251  12.505
61188W        W32717  29.414  12.692   0.923
61189W        W32718  24.541  16.816  10.771
61190W        W32719   2.349  31.543   0.779
61191W        W32720  26.101  12.745   4.070
61192W        W32721  17.020  15.722   0.320
61193W        W32722  19.723  36.464  11.059
61194W        W32723   2.918  19.272   4.872
61195W        W32724  16.827  12.941   2.233
61196W        W32725  16.023  33.048  11.252
61197W        W32726  12.626  26.639   1.489
61198W        W32727  39.558  32.081  14.746
61199W        W32728  26.477  15.809   2.207
61200W        W32729  40.509  12.487   0.813
61201W        W32730   6.925  30.023   1.460
61202W        W32731  24.626  39.884  12.749
61203W        W32732  44.443  40.555   0.499
61204W        W32733   4.250   1.415   4.604
61205W        W32734  12.920  34.110   0.732
61206W        W32735  32.849   8.293  12.012
61207W        W32736  34.887  18.380  11.126
61208W        W32737  42.224   2.286   4.662
61209W        W32738  15.165  24.935   1.761
61210W        W32739  37.865   3.415  14.545
61211W        W32740  15.649  38.316  12.422
61212W        W32741  21.031  39.501  12.921
61213W        W32742  44.478  14.542   9.828
61214W        W32743  29.455  18.270  12.018
61215W        W32744  18.951  22.127  14.346
61216W        W32745  26.331  43.120   3.593
61217W        W32746  42.764  26.829   2.653
61218W        W32747  30.574  26.580   0.514
61219W        W32748  26.072   8.912   3.144
61220W        W32749  18.528  38.026  11.221
61221W        W32750  30.856  13.316   1.066
61222W        W32751   3.446  31.940   3.104
61223W        W32752  39.943   9.606   0.650
61224W        W32753  16.819  21.012  11.627
61225W        W32754  16.166   7.222  13.251
61226W        W32755  40.550   1.758   3.801
61227W        W32756  38.094  23.108   4.296
61228W        W32757  33.695  13.320  10.598
61229W        W32758  18.785  19.000  14.785
61230W        W32759  25.467  23.827   0.317
61231W        W32760  42.238  26.189   3.664
61232W        W32761  12.248  32.509   4.786
61233W        W32762  18.994   1.082  14.993
61234W        W32763  37.937  12.134  12.418
61235W        W32764   2.501  30.170  12.838
61236W        W32765  11.695  39.912   1.247
61237W        W32766  19.733  11.991  12.344
61238W        W32767  27.393   8.794  11.520
61239W        W32768   4.839   5.343  11.820
61240W        W32769   1.530  24.094  14.277
61241W        W32770   5.794  17.210  14.269
61242W        W32771   1.354  29.099  14.057
61243W        W32772  29.492   8.975   1.482
61244W        W32773  28.044  11.051   4.003
61245W        W32774  23.629  27.124   4.090
61246W        W32775   6.421   7.358   5.157
61247W        W32776   5.695  10.176  12.955
61248W        W32777  41.905  37.022   2.213
61249W        W32778  32.428  16.228   3.223
61250W        W32779  21.431   0.007  12.427
61251W        W32780  10.810   5.369   1.967
61252W        W32781   7.696   6.714  11.525
61253W        W32782   5.129  44.956  10.723
61254W        W32783  14.376   6.220  14.973
61255W        W32784   2.808  16.007   1.840
61256W        W32785   1.494  20.674   0.617
61257W        W32786  27.196   9.207  14.725
61258W        W32787  35.914  33.519   1.377
61259W        W32788  21.416  32.630  13.492
61260W        W32789  26.018  43.493  12.343
61261W        W32790  24.163  35.317  10.666
61262W        W32791  30.168   4.488  12.885
61263W        W32792  13.105  36.626   3.841
61264W        W32793  20.558  17.907   0.794
61265W        W32794  16.043  26.399   4.782
61266W        W32795  25.608   5.803   1.329
61267W        W32796  19.038  23.381   0.241
61268W        W32797  29.071  14.878   3.313
61269W        W32798  21.809  38.917  13.326
61270W        W32799  26.012  19.221  10.614
61271W        W32800  35.364  37.896   2.330
61272W        W32801  27.419  41.756  14.758
61273W        W32802  13.299  43.490  14.310
61274W        W32803  32.676  13.491  10.113
61275W        W32804  19.938  23.501  10.442
61276W        W32805  16.597  13.167  11.920
61277W        W32806  42.918  27.328  12.394
61278W        W32807  38.503  26.204   5.122
61279W        W32808  44.918  11.263   4.929
61280W        W32809  27.442   1.321  14.401
61281W        W32810  14.959   5.459  12.942
61282W        W32811  20.018  19.042  12.985
61283W        W32812  42.210   9.858   1.849
61284W        W32813   1.867  41.941   2.698
61285W        W32814  29.355  10.411   3.047
61286W        W32815  15.754  13.963  10.698
61287W        W32816  44.175  14.710  11.224
61288W        W32817   2.851  10.261  13.596
61289W        W32818  23.236  19.498   1.508
61290W        W32819  21.659  27.544  14.790
61291W        W32820  28.037   7.825   2.880
61292W        W32821   1.014   2.306   1.142
61293W        W32822   8.171  17.636  11.964
61294W        W32823  42.897  25.054   4.859
61295W        W32824   2.505  18.351  13.796
61296W        W32825  40.334   5.263  10.457
61297W        W32826   1.240  27.726  12.945
61298W        W32827  35.353   5.589  10.787
61299W        W32828  25.088  21.091   2.697
61300W        W32829  28.397  16.077   3.140
61301W        W32830  15.235  42.035  12.989
61302W        W32831  29.501  18.916   1.324
61303W        W32832  38.958   1.033   1.812
61304W        W32833   2.289  14.287  14.829
61305W        W32834  12.367  36.845   3.310
61306W        W32835  28.368  41.822   1.398
61307W        W32836  36.080  21.335   0.029
61308W        W32837  33.283   8.574  11.958
61309W        W32838  17.213  20.872  13.555
61310W        W32839  37.493   4.465  13.805
61311W        W32840   5.735  22.978   0.264
61312W        W32841  40.442  44.956   0.293
61313W        W32842   9.476  18.235   1.258
61314W        W32843   8.205   7.114   0.565
61315W        W32844  36.739  29.497   1.331
61316W        W32845  41.929   2.218  13.070
61317W        W32846  40.099  22.751  10.984
61318W        W32847  26.201  34.560  14.144
61319W        W32848  30.482  31.905  10.720
61320W        W32849  10.116   4.480   2.154
61321W        W32850   6.200  25.884   0.396
61322W        W32851  36.471  41.071   2.281
61323W        W32852  14.587   6.383  14.537
61324W        W32853  27.867   6.776  12.943
61325W        W32854  40.237  42.691  13.009
61326W        W32855   4.252  22.021   4.439
61327W        W32856  39.548  38.772  14.162
61328W        W32857  23.607  13.590   1.573
61329W        W32858  42.734  32.445  14.003
61330W        W32859  26.675   9.655  13.263
61331W        W32860   9.627  42.195   1.817
61332W        W32861  42.420  14.736  11.930
61333W        W32862  30.215  38.277   1.392
61334W        W32863  32.047   2.442  11.902
61335W        W32864  22.272  29.949  11.535
61336W        W32865  14.591   6.283   2.465
61337W        W32866   1.459   5.317   1.761
61338W        W32867   7.352   1.744  10.410
61339W        W32868  37.410  32.650   3.112
61340W        W32869  43.871  12.598   1.795
61341W        W32870  43.585  21.664   2.968
61342W        W32871  40.556  44.799  13.677
61343W        W32872  37.381  11.714   4.088
61344W        W32873  34.020  13.197   2.298
61345W        W32874  26.458  18.496  13.918
61346W        W32875  17.619  20.418  14.935
61347W        W32876   5.510  34.534  14.359
61348W        W32877   2.432   7.875   0.036
61349W        W32878  21.278  39.544  14.849
61350W        W32879  30.972  28.193   1.003
61351W        W32880  36.006  26.536  13.826
61352W        W32881  28.490  28.295   3.829
61353W        W32882   7.479  33.636  12.797
61354W        W32883   7.219  12.260   2.764
61355W        W32884  34.450   2.205   1.327
61356W        W32885  24.464  31.476   2.739
61357W        W32886  24.238  14.045  11.861
61358W        W32887  18.103  22.538   1.779
61359W        W32888  11.303  43.309  12.292
61360W        W32889   8.095  19.647  13.542
61361W        W32890  12.241  40.555  14.867
61362W        W32891   6.874  10.843  14.934
61363W        W32892  29.460   9.847   2.064
61364W        W32893  19.004  27.026   3.685
61365W        W32894  30.021  21.233  14.778
61366W        W32895  39.507  28.689  13.463
61367W        W32896  10.182  41.350   1.892
61368W        W32897   0.406  11.425  12.022
61369W        W32898  39.977  13.051   2.669
61370W        W32899  26.053  23.599   3.139
61371W        W32900  22.675  32.969   0.539
61372W        W32901  15.682  12.078   2.914
61373W        W32902  38.513  43.438   0.001
61374W        W32903  22.089  37.366   0.992
61375W        W32904   6.826  24.092  12.636
61376W        W32905  32.190  10.197   3.766
61377W        W32906   1.905  15.539   0.984
61378W        W32907   6.040  36.379   3.745
61379W        W32908  14.110   4.647   4.999
61380W        W32909  10.299  32.564   2.695
61381W        W32910  23.777   0.211   2.195
61382W        W32911  11.938   7.054   2.132
61383W        W32912  23.763  43.958   2.614
61384W        W32913   2.952   4.284   1.656
61385W        W32914  19.599  43.071  10.637
61386W        W32915  30.061  42.941  13.487
61387W        W32916  26.935  22.570   0.909
61388W        W32917  19.850  14.628  13.451
61389W        W32918   7.854  31.321  14.713
61390W        W32919  36.404  23.594  11.596
61391W        W32920  33.051  43.567   0.973
61392W        W32921  28.729   6.731  11.007
61393W        W32922  37.749   4.431   2.393
61394W        W32923  21.012  16.492  14.632
61395W        W32924  40.116  42.021   0.030
61396W        W32925  41.734  32.436  12.373
61397W        W32926   1.212  28.396  13.650
61398W        W32927  43.517  29.453  10.381
61399W        W32928  18.045  15.861   3.135
61400W        W32929  21.619  36.041  12.853
61401W        W32930  33.822  41.466   3.109
61402W        W32931  35.327  32.598  13.784
61403W        W32932  37.654  22.171  10.098
61404W        W32933  29.677   4.538  14.504
61405W        W32934  44.772  44.524  12.798
61406W        W32935   6.724  16.795   3.828
61407W        W32936  20.049  44.914   2.802
61408W        W32937  17.796   2.279   1.215
61409W        W32938  39.533  16.463  14.374
61410W        W32939  25.634   9.076   3.387
61411W        W32940  29.166  12.636  13.482
61412W        W32941  35.393  40.605  11.154
61413W        W32942  15.215  22.452   1.735
61414W        W32943  20.259  28.218   2.181
61415W        W32944  30.442  25.465   3.077
61416W        W32945  20.704   1.898  12.514
61417W        W32946   8.637  38.278  14.434
61418W        W32947  36.292  25.675  13.970
61419W        W32948  31.994  33.878   4.493
61420W        W32949   9.729   3.228  14.232
61421W        W32950  39.964  35.555   4.179
61422W        W32951  20.177  31.112   2.488
61423W        W32952  26.053  14.796   0.822
61424W        W32953   0.494   5.691  12.091
61425W        W32954  36.321   2.702  10.617
61426W        W32955  44.922   5.128   4.274
61427W        W32956   1.407  34.269   3.702
61428W        W32957  27.659  29.088   3.193
61429W        W32958  15.137  42.530   1.299
61430W        W32959  33.009   6.657   1.287
61431W        W32960  26.521   0.069   4.208
61432W        W32961  28.115   5.645  14.375
61433W        W32962   4.205  28.681  13.009
61434W        W32963  35.992  23.448  13.494
61435W        W32964  27.538  39.414  13.038
61436W        W32965  21.635   3.415   4.084
61437W        W32966   0.438  24.227  11.168
61438W        W32967  14.509  41.918   0.761
61439W        W32968  42.290  29.754   0.384
61440W        W32969   2.266  23.697  12.107
61441W        W32970  13.320  31.006   3.807
61442W        W32971   5.264  39.995   2.624
61443W        W32972  43.567  29.648   1.939
61444W        W32973  22.204  23.478  13.425
61445W        W32974   2.211  37.104   3.478
61446W        W32975  36.930  32.742   0.941
61447W        W32976  26.162  11.294   3.724
61448W        W32977   5.021  25.089   1.317
61449W        W32978  36.435  17.720   3.215
61450W        W32979   5.838  19.232   3.199
61451W        W32980  39.989   7.872   3.076
61452W        W32981   9.588   8.852  10.740
61453W        W32982  10.581  27.967   9.539
61454W        W32983  30.396  44.118   3.451
61455W        W32984   6.786   2.850   0.714
61456W        W32985   4.912  41.253   4.120
61457W        W32986  33.696   7.772  11.120
61458W        W32987   9.041  37.533   2.810
61459W        W32988  23.015  39.000   4.030
61460W        W32989  36.232  17.472  11.151
61461W        W32990  13.646  30.109   0.560
61462W        W32991   9.209  30.650   4.158
61463W        W32992  20.592   0.368   4.913
61464W        W32993   1.769  43.351   0.917
61465W        W32994   8.778   9.706   3.332
61466W        W32995   7.644   2.262  14.488
61467W        W32996   0.856  39.726  11.864
61468W        W32997   4.461   1.899   1.926
61469W        W32998  28.949   7.261   3.639
61470W        W32999  39.974  29.169  12.311
61471W        W33000   7.210   4.695   2.913
61472W        W33001  26.013  24.899  14.864
61473W        W33002  14.224   5.958   2.704
61474W        W33003  27.940  11.107  10.577
61475W        W33004  20.943   4.879  10.152
61476W        W33005   2.343  13.328   0.906
61477W        W33006  30.477  23.168   4.166
61478W        W33007   3.382  19.927   4.938
61479W        W33008  18.252  29.416  14.381
61480W        W33009   1.546  39.557  11.556
61481W        W33010   5.999  15.217  13.408
61482W        W33011   0.504  22.660   4.502
61483W        W33012  30.839  35.530   4.148
61484W        W33013  29.684  40.091  14.223
61485W        W33014  41.049  13.325  11.035
61486W        W33015  26.112  10.903  12.613
61487W        W33016  34.884   9.984   1.838
61488W        W33017  43.965  10.202  14.843
61489W        W33018  43.808  11.276   2.226
61490W        W33019  19.318  12.020  11.961
61491W        W33020  42.596  21.698  13.434
61492W        W33021  15.232  41.891   0.195
61493W        W33022  31.762  28.439  12.082
61494W        W33023  41.083   5.875  10.719
61495W        W33024  38.367  21.567   0.280
61496W        W33025  32.389  13.051   4.351
61497W        W33026  43.503  17.170   0.306
61498W        W33027  18.125  21.017   1.961
61499W        W33028  31.336  18.521  13.536
61500W        W33029  24.137  15.605   2.625
61501W        W33030  14.877   2.511  13.008
61502W        W33031  11.133  26.168  14.356
61503W        W33032  14.215  18.561  12.369
61504W        W33033  37.858  29.679   5.086
61505W        W33034  24.541  41.839   2.746
61506W        W33035   4.665  27.756  14.019
61507W        W33036  39.894  28.940   4.167
61508W        W33037  26.819   8.370   5.156
61509W        W33038  13.609  12.345  14.673
61510W        W33039  38.067  26.614   3.624
61511W        W33040  41.950  26.535  14.776
61512W        W33041  26.975  18.021  12.800
61513W        W33042   8.713  24.407  14.527
61514W        W33043  20.716  18.015  13.095
61515W        W33044  11.341   2.324  12.443
61516W        W33045   5.832  27.642  10.640
61517W        W33046   1.489  11.100  10.370
61518W        W33047  19.621  27.900  11.690
61519W        W33048  33.031  35.850   2.500
61520W        W33049  15.848  37.473  11.552
61521W        W33050  38.498  11.754  11.919
61522W        W33051  42.046  12.815   4.578
61523W        W33052  14.797  13.825   0.426
61524W        W33053  35.884  43.061   0.452
61525W        W33054  31.865  32.293  14.302
61526W        W33055  21.355  15.886   3.321
61527W        W33056  35.016  34.452  13.745
61528W        W33057  43.234  40.337   0.892
61529W        W33058  39.626   3.037  12.877
61530W        W33059  10.694  24.230  14.090
61531W        W33060  21.740   4.260   0.808
61532W        W33061  13.035  20.202  14.955
61533W        W33062   5.494   7.689  14.356
61534W        W33063   6.510  11.821  12.545
61535W        W33064   3.318  34.501  11.587
61536W        W33065  22.512   9.160   1.226
61537W        W33066  37.254  19.926   4.206
61538W        W33067  19.767  27.284  13.103
61539W        W33068  36.180  28.227  12.564
61540W        W33069  25.645  42.267   2.404
61541W        W33070   6.459  36.589  11.510
61542W        W33071   9.719   3.356  11.350
61543W        W33072  14.963   6.876   4.094
61544W        W33073  31.979  39.065   4.008
61545W        W33074  20.259  15.276  10.824
61546W        W33075  39.529  38.040  12.113
61547W        W33076  23.056  39.520   1.650
61548W        W33077  33.094  40.115  12.534
61549W        W33078  26.556  31.151   0.448
61550W        W33079  29.925  27.255  13.925
61551W        W33080   0.114  26.571  14.748
61552W        W33081  23.516   8.506  13.772
61553W        W33082  17.067  41.362  14.418
61554W        W33083  41.822   3.426  11.711
61555W        W33084  37.255  13.954   2.238
61556W        W33085  37.535  30.370   0.960
61557W        W33086  42.424  39.235  11.135
61558W        W33087  36.604  14.148  13.027
61559W        W33088  17.543  31.152   4.131
61560W        W33089   3.920  24.759  13.917
61561W        W33090  12.896  41.271  13.498
61562W        W33091   5.678   8.446  13.864
61563W        W33092  44.592  10.786  13.752
61564W        W33093   4.428  44.918   4.791
61565W        W33094  37.529  12.683   3.900
61566W        W33095  10.742  12.260   3.184
61567W        W33096  13.632  17.605   3.442
61568W        W33097   8.847   0.526   0.443
61569W        W33098  44.683  29.340   2.371
61570W        W33099  18.004   6.631   2.008
61571W        W33100  44.517   0.032   4.299
61572W        W33101  10.642  13.088  11.992
61573W        W33102   6.645  22.248  13.627
61574W        W33103  32.681  13.441   1.659
61575W        W33104  13.881  40.612   4.402
61576W        W33105   4.719  24.252   3.661
61577W        W33106  41.087  19.020  11.121
61578W        W33107  30.151  41.467  13.484
61579W        W33108  23.004   9.721   3.860
61580W        W33109  28.543  15.497  11.928
61581W        W33110  28.534  26.649   0.475
61582W        W33111  32.557  17.297   0.515
61583W        W33112   5.931  24.447   3.706
61584W        W33113  10.997   5.822  10.302
61585W        W33114  37.953  10.627   4.812
61586W        W33115  41.366   1.301   0.725
61587W        W33116   3.370  37.122  12.978
61588W        W33117  18.999  44.968  12.652
61589W        W33118  16.213  42.933  14.240
61590W        W33119  39.849   7.461   2.158
61591W        W33120  29.502  22.487  13.470
61592W        W33121  10.549  12.733  10.783
61593W        W33122  26.604  36.128   4.540
61594W        W33123   2.154  43.050   2.227
61595W        W33124   8.875  23.218  11.134
61596W        W33125  14.035  30.181  13.890
61597W        W33126  31.141  12.204  10.604
61598W        W33127  25.585  42.097   4.572
61599W        W33128   4.897  44.564   3.827
61600W        W33129  34.941  35.318   4.406
61601W        W33130  24.236  11.877   1.987
61602W        W33131   1.277  33.715  11.173
61603W        W33132  16.378  43.621  11.068
61604W        W33133  42.855  22.559  14.811
61605W        W33134  22.310   3.185  14.773
61606W        W33135  30.577  44.946  11.430
61607W        W33136  30.924  44.284  12.269
61608W        W33137  12.774  25.187  11.483
61609W        W33138   2.969   9.093   2.241
61610W        W33139  38.519   1.274  12.877
61611W        W33140  44.605  34.087  11.665
61612W        W33141  14.122  10.425  11.903
61613W        W33142  30.851  33.578  11.884
61614W        W33143  40.052  42.529  14.916
61615W        W33144   2.683   5.772  14.548
61616W        W33145  39.384   4.427  11.105
61617W        W33146   4.649  20.694   4.564
61618W        W33147  36.494  18.307  14.048
61619W        W33148   6.322   1.323  13.304
61620W        W33149  26.397  27.898   4.249
61621W        W33150  37.664   9.434   0.931
61622W        W33151  11.680  27.045  13.542
61623W        W33152  24.066  42.824  10.711
61624W        W33153   9.398  36.351  10.730
61625W        W33154  21.595  33.731  12.501
61626W        W33155  41.820   1.443  14.386
61627W        W33156  30.446  39.825  13.459
61628W        W33157  43.107  44.122   2.191
61629W        W33158   9.922  35.656  12.660
61630W        W33159  41.361  14.102  11.608
61631W        W33160   7.811  29.395  12.006
61632W        W33161  16.517  19.946   1.819
61633W        W33162  25.160   0.339   0.475
61634W        W33163   1.759  14.513  11.587
61635W        W33164  44.096   6.140   4.664
61636W        W33165  15.540   0.905   2.814
61637W        W33166  13.688  20.277   4.099
61638W        W33167  15.140  14.512  12.662
61639W        W33168  11.194  12.293   0.349
61640W        W33169  19.774  33.142  13.397
61641W        W33170   6.009  15.276   2.529
61642W        W33171  30.459  39.272   2.258
61643W        W33172   5.466   5.405  14.153
61644W        W33173  14.611  13.672   2.270
61645W        W33174  38.311  38.405   0.740
61646W        W33175  44.230  14.867   0.749
61647W        W33176  17.270   0.377  13.937
61648W        W33177  39.460  28.471  14.778
61649W        W33178  41.726  27.674   2.844
61650W        W33179  40.395  32.543  14.719
61651W        W33180  10.287  21.659   1.587
61652W        W33181   0.593  29.826   4.075
61653W        W33182   0.805  39.006   4.500
61654W        W33183  44.801  18.361  10.983
61655W        W33184  29.125  15.254   2.075
61656W        W33185  18.758   2.225   2.222
61657W        W33186  35.159  12.667   1.214
61658W        W33187  17.537  15.585   1.858
61659W        W33188  40.431  16.556   3.643
61660W        W33189  34.556  30.538  11.079
61661W        W33190   8.896  19.259   1.733
61662W        W33191  40.789  23.515   0.145
61663W        W33192  32.831  17.699  12.186
61664W        W33193  19.027  42.333   0.171
61665W        W33194  25.488   7.205   1.728
61666W        W33195   4.885  38.114  14.798
61667W        W33196  14.996   4.176  13.536
61668W        W33197  13.063  39.387   2.331
61669W        W33198  43.927  33.018   2.898
61670W        W33199  19.565  39.186   3.344
61671W        W33200  12.715  19.609   1.729
61672W        W33201  25.193  30.870   1.882
61673W        W33202  43.353  22.686  13.328
61674W        W33203  40.291  20.361   0.903
61675W        W33204  44.253  28.791  14.461
61676W        W33205  15.654   7.938  11.941
61677W        W33206  23.685  25.278   4.348
61678W        W33207   2.502  11.732   4.671
61679W        W33208   0.894  27.313  10.636
61680W        W33209  35.787  36.460  13.102
61681W        W33210   3.721  14.376   3.957
61682W        W33211  25.830   8.064  11.619
61683W        W33212  21.069  38.518  12.988
61684W        W33213  13.813  42.654  13.039
61685W        W33214  14.875  21.734   1.388
61686W        W33215   3.827  42.808  14.945
61687W        W33216   7.279  10.229   3.359
61688W        W33217  14.868  12.432  11.990
61689W        W33218  44.943  43.933  13.258
61690W        W33219  33.075  12.770  12.560
61691W        W33220  12.024   5.150  11.492
61692W        W33221  31.006   2.448   1.507
61693W        W33222  38.430  17.244   0.876
61694W        W33223  16.397  14.319   3.249
61695W        W33224  10.720  24.446   2.762
61696W        W33225  20.963  16.192   4.564
61697W        W33226   7.924  41.610   0.675
61698W        W33227  11.151  13.853  13.967
61699W        W33228  43.443  32.686  14.774
61700W        W33229  22.118  33.581   2.194
61701W        W33230  17.788  15.715  10.535
61702W        W33231   2.676  16.723  10.850
61703W        W33232  28.644  44.925   3.093
61704W        W33233   8.094  28.682   1.454
61705W        W33234  13.919   9.784  11.206
61706W        W33235  17.397   9.370   3.679
61707W        W33236   5.758  23.199  11.585
61708W        W33237  26.988  26.940  14.655
61709W        W33238  43.307  16.783  12.055
61710W        W33239   4.357  44.405   2.249
61711W        W33240  39.748  41.358   4.076
61712W        W33241  31.811  12.185  13.494
61713W        W33242  42.374  36.235  14.044
61714W        W33243  38.536  22.555   1.222
61715W        W33244  44.393  20.219   2.010
61716W        W33245  15.398  14.678  13.540
61717W        W33246  21.526  37.517   5.343
61718W        W33247  30.886  25.570  13.329
61719W        W33248  40.295  24.899   1.054
61720W        W33249  18.781  33.864  14.919
61721W        W33250  10.862  30.037  10.739
61722W        W33251   6.372   1.850  13.797
61723W        W33252  39.852  19.704  11.192
61724W        W33253  40.305  31.469  11.112
61725W        W33254   8.391   8.859  14.866
61726W        W33255  31.475   2.411   1.798
61727W        W33256   8.805  31.401  11.141
61728W        W33257   3.894  29.705  14.030
61729W        W33258   2.066  15.798   4.080
61730W        W33259  28.969  15.714   1.830
61731W        W33260   4.001  44.841   4.480
61732W        W33261  41.829  11.366  14.566
61733W        W33262   6.842   6.200   4.472
61734W        W33263  22.194  40.811  12.340
61735W        W33264   3.140  31.666   1.182
61736W        W33265   7.828  31.477   1.249
61737W        W33266  40.912   0.001   0.574
61738W        W33267  21.745   1.703   4.727
61739W        W33268  38.405   1.681   4.813
61740W        W33269  16.118  41.483   2.687
61741W        W33270  38.086  25.231   3.055
61742W        W33271   4.561  34.592  12.146
61743W        W33272  19.531  23.974  11.149
61744W        W33273  27.067  26.257   2.218
61745W        W33274  11.425   6.166   3.737
61746W        W33275  21.142  33.703  10.776
61747W        W33276  34.462  29.648   0.858
61748W        W33277  39.471  15.824   2.962
61749W        W33278  43.362  14.791   0.408
61750W        W33279   7.384  30.678  14.548
61751W        W33280  18.146  41.886  14.924
61752W        W33281  10.485  39.005   0.424
61753W        W33282  16.193  29.144   0.263
61754W        W33283  24.661  14.255   0.904
61755W        W33284   5.136  19.489  11.254
61756W        W33285  29.352  20.704   4.546
61757W        W33286  39.809   8.881   2.711
61758W        W33287  37.376  26.069  14.876
61759W        W33288  11.379  22.135   2.301
61760W        W33289  30.413   4.275   0.966
61761W        W33290   5.983   8.174   1.429
61762W        W33291  37.561  28.309  13.949
61763W        W33292  32.442  41.494   2.824
61764W        W33293  36.461  23.434   0.315
61765W        W33294  27.019   5.002  14.030
61766W        W33295  37.460  27.145   4.639
61767W        W33296  42.433  14.992   0.090
61768W        W33297  44.967   4.430   2.918
61769W        W33298  13.455  39.842   4.778
61770W        W33299   5.423  38.141  12.517
61771W        W33300   4.892  21.493   1.659
61772W        W33301  34.518   8.111  13.131
61773W        W33302  30.075  43.759   2.229
61774W        W33303  27.155  11.431  10.448
61775W        W33304  32.083   9.127  13.628
61776W        W33305  25.746   5.968  11.273
61777W        W33306  43.519   0.199   4.600
61778W        W33307  20.282  42.740  13.924
61779W        W33308  14.423  16.166  14.336
61780W        W33309  11.371  23.480  10.369
61781W        W33310  10.838  12.000  14.200
61782W        W33311  17.467   5.455   4.435
61783W        W33312   9.504   0.677  13.211
61784W        W33313  36.831  21.590   3.667
61785W        W33314  10.844  29.764  11.161
61786W        W33315  15.735  27.253  14.303
61787W        W33316  34.433   3.189  11.062
61788W        W33317  24.115  28.975   0.188
61789W        W33318  20.456  43.333   1.327
61790W        W33319  19.072   1.566   3.189
61791W        W33320  11.954   8.872  11.305
61792W        W33321   4.450   7.853  10.770
61793W        W33322   2.202  44.983   2.266
61794W        W33323  41.200  34.640  11.002
61795W        W33324  10.309  39.283   1.806
61796W        W33325  20.779   9.053  14.781
61797W        W33326   4.208  44.887  11.850
61798W        W33327  35.482  36.637   1.759
61799W        W33328  11.642  37.869   1.300
61800W        W33329  35.805  24.333  10.611
61801W        W33330   2.373  11.289   4.159
61802W        W33331  24.567  35.117   1.870
61803W        W33332  31.854  40.511   0.887
61804W        W33333  42.781  21.051   0.436
61805W        W33334   2.756   5.741   4.397
61806W        W33335   3.762  39.984   1.802
61807W        W33336   2.278  17.579  14.003
61808W        W33337  22.616  19.909  11.131
61809W        W33338  35.625  32.633  14.782
61810W        W33339   4.865   6.475   0.389
61811W        W33340  27.466   0.906   2.596
61812W        W33341  22.959   0.309   2.173
61813W        W33342   5.940  32.682  12.049
61814W        W33343  42.232   6.173  13.944
61815W        W33344  27.007  24.865   2.145
61816W        W33345   2.172  23.013  14.795
61817W        W33346  42.420  35.818   0.790
61818W        W33347  37.797  21.740  11.541
61819W        W33348  40.752  11.822   2.406
61820W        W33349  17.181  33.622   4.575
61821W        W33350  17.136  27.965   1.686
61822W        W33351  30.797   3.282  12.485
61823W        W33352   2.956  25.391  14.314
61824W        W33353  42.476  25.972  13.734
61825W        W33354   3.387  37.875   3.729
61826W        W33355  11.665  25.843   1.615
61827W        W33356  15.482   3.190  14.973
61828W        W33357  25.648  40.514   0.428
61829W        W33358  37.062  13.261   0.867
61830W        W33359  37.878   8.397   4.187
61831W        W33360   0.985  29.979   3.233
61832W        W33361  11.294   8.054   3.656
61833W        W33362   3.943  18.301   2.641
61834W        W33363   3.460   7.933  10.749
61835W        W33364  42.888  23.766  14.191
61836W        W33365  12.215  40.683   3.716
61837W        W33366  40.444  11.433   3.766
61838W        W33367  39.193  25.502  10.344
61839W        W33368  10.915  17.127   0.786
61840W        W33369  35.971  42.194  13.407
61841W        W33370  43.105  20.268   1.358
61842W        W33371  30.707  27.877   2.766
61843W        W33372  30.121   4.022  11.800
61844W        W33373  39.948  19.400   2.126
61845W        W33374  15.021   5.556  10.621
61846W        W33375  16.573  32.110   2.159
61847W        W33376   5.804  35.510   0.379
61848W        W33377   4.382  13.167  10.711
61849W        W33378   1.974  16.185   1.121
61850W        W33379  22.714  39.226  10.904
61851W        W33380   3.479  29.447  12.164
61852W        W33381  25.012  10.438  10.786
61853W        W33382  26.232  11.888  11.117
61854W        W33383   9.832  28.311   2.603
61855W        W33384  16.786  26.672   4.125
61856W        W33385  22.556  15.775   4.117
61857W        W33386  15.752  30.597  12.664
61858W        W33387  21.786  15.265   2.811
61859W        W33388  28.439   8.725   3.617
61860W        W33389   2.761  37.023  11.651
61861W        W33390  42.887   5.846  10.922
61862W        W33391   9.694  42.790  10.576
61863W        W33392  27.475  36.869  11.885
61864W        W33393  42.239   3.228  11.447
61865W        W33394   9.182  42.485  12.850
61866W        W33395  20.929  16.985   1.673
61867W        W33396  35.015  11.087   2.731
61868W        W33397  23.946  32.447  11.715
61869W        W33398   6.787  21.376  14.075
61870W        W33399  16.830  21.664   3.946
61871W        W33400  31.558  36.452  12.817
61872W        W33401  32.407  15.060  14.404
61873W        W33402  22.837  27.540   1.147
61874W        W33403  20.323   7.315   1.776
61875W        W33404   9.260  26.152  14.831
61876W        W33405  42.966  36.797   2.311
61877W        W33406  27.671  37.658  13.522
61878W        W33407  40.568  44.318   3.583
61879W        W33408  10.886  17.914   3.766
61880W        W33409   6.859   0.338  11.475
61881W        W33410  11.658  12.779  11.809
61882W        W33411  42.024  19.287  14.602
61883W        W33412  42.784  26.930  14.781
61884W        W33413  35.609   8.298   3.926
61885W        W33414   0.361  32.260   0.046
61886W        W33415  32.284  30.905   1.976
61887W        W33416   6.696  30.532   2.684
61888W        W33417  12.868  26.504   3.311
61889W        W33418   7.869  19.103   4.542
61890W        W33419  41.744   6.251  14.102
61891W        W33420  42.955  34.899  11.191
61892W        W33421  28.006  43.275   4.112
61893W        W33422  18.725   8.852  13.129
61894W        W33423  36.269  15.224  13.491
61895W        W33424  41.823  17.275  11.610
61896W        W33425  24.205  36.066  11.903
61897W        W33426   0.507  26.901  13.797
61898W        W33427   3.274  34.887  13.531
61899W        W33428  40.968  39.807   3.992
61900W        W33429  25.542  26.516   4.625
61901W        W33430   3.077  13.215   2.565
61902W        W33431  22.020  33.505  12.718
61903W        W33432  32.090  19.448   2.328
61904W        W33433  30.473  41.433  12.664
61905W        W33434  28.976  23.106  11.961
61906W        W33435  14.248   4.235  13.989
61907W        W33436  40.395  36.161  11.158
61908W        W33437  29.983  22.711  13.402
61909W        W33438   0.515  25.132   1.345
61910W        W33439  43.444  22.184  13.502
61911W        W33440   3.612   1.729  12.839
61912W        W33441  27.938   5.456  14.914
61913W        W33442   3.800  33.415   1.500
61914W        W33443   7.631   3.500  12.935
61915W        W33444  30.889  15.656   2.106
61916W        W33445   5.442  39.325   1.753
61917W        W33446  38.372  20.045   1.451
61918W        W33447   7.568  25.580   2.842
61919W        W33448  21.127  35.556   1.118
61920W        W33449  41.593  42.834   3.344
61921W        W33450   2.764   3.690  14.820
61922W        W33451   4.762  10.107   0.407
61923W        W33452  19.893  25.152  10.507
61924W        W33453   2.471  14.354   2.766
61925W        W33454  17.281   1.961  14.550
61926W        W33455   3.657  20.300  12.894
61927W        W33456  27.979   4.267  10.944
61928W        W33457  40.282   0.576  11.121
61929W        W33458  17.006   0.200   2.238
61930W        W33459   7.717  13.129  12.412
61931W        W33460  29.403  26.589   0.221
61932W        W33461  23.188  30.404   3.990
61933W        W33462  34.530   5.400  14.365
61934W        W33463  36.471  21.040   2.811
61935W        W33464   5.979   6.430   1.263
61936W        W33465  36.658  34.905  14.830
61937W        W33466  34.871  34.714  10.609
61938W        W33467  25.086  44.218   4.101
61939W        W33468  39.558  18.292  11.183
61940W        W33469  42.944  19.282   2.114
61941W        W33470   7.414   7.363  14.441
61942W        W33471   9.862  21.500  12.070
61943W        W33472  40.616   8.203  12.528
61944W        W33473   0.674  16.819   4.715
61945W        W33474  22.017  40.094   3.623
61946W        W33475  15.192  18.111  11.696
61947W        W33476   4.374  29.875   1.213
61948W        W33477  36.333   4.429  11.196
61949W        W33478  38.836   4.421  11.173
61950W        W33479  38.871   0.173  14.282
61951W        W33480  32.801  13.802   4.675
61952W        W33481  33.142  10.618   3.550
61953W        W33482  23.229  42.288  11.035
61954W        W33483  36.966  39.859  11.943
61955W        W33484  42.494  25.216   0.384
61956W        W33485  19.613  11.392  11.558
61957W        W33486  35.048  23.884   0.557
61958W        W33487  26.939  40.792   0.283
61959W        W33488  29.921  33.150   1.095
61960W        W33489  40.730   6.269   1.817
61961W        W33490  32.951  28.810  14.928
61962W        W33491   1.695  35.857  12.846
61963W        W33492   5.174  13.706   1.788
61964W        W33493  40.293  19.347   4.325
61965W        W33494   9.462  43.301   2.734
61966W        W33495  28.960  34.779  10.807
61967W        W33496  21.972  38.075   4.070
61968W        W33497  29.098  42.931   0.357
61969W        W33498  27.213  41.954   0.788
61970W        W33499  21.000  35.596   2.176
61971W        W33500  12.171  16.724   0.708
61972W        W33501  22.282  39.374  14.840
61973W        W33502  22.310  19.584   1.157
61974W        W33503  23.010  31.989  14.082
61975W        W33504  33.036  22.458  13.039
61976W        W33505  11.529  34.522  10.994
61977W        W33506  17.558   3.157   1.654
61978W        W33507  29.502  30.732   2.343
61979W        W33508  28.510  18.814  11.140
61980W        W33509  34.467  28.179   0.705
61981W        W33510  18.581  14.198  13.689
61982W        W33511  22.865  13.155  11.993
61983W        W33512  41.603  31.175   0.932
61984W        W33513  33.626  37.933   0.441
61985W        W33514  25.234  41.452  11.683
61986W        W33515  41.840   4.948  13.803
61987W        W33516  22.798  42.032   1.673
61988W        W33517  29.111  35.437   2.736
61989W        W33518  14.699  20.569  11.665
61990W        W33519  22.552  31.191   4.166
61991W        W33520  25.966  16.565   0.347
61992W        W33521  32.100   1.560   9.823
61993W        W33522  39.921   1.232   2.192
61994W        W33523  32.361  12.167  11.183
61995W        W33524  23.763   0.767  11.976
61996W        W33525  38.006   0.136   1.274
61997W        W33526  26.432  25.566   1.662
61998W        W33527   1.061  18.120  10.479
61999W        W33528  29.671   2.461   1.862
62000W        W33529  12.704  27.498  14.414
62001W        W33530  12.599   3.416   0.920
62002W        W33531  13.375  26.579  12.011
62003W        W33532  20.030   2.822  13.015
62004W        W33533  17.530   7.194   1.886
62005W        W33534  41.930  22.090   3.708
62006W        W33535  20.483  32.535  14.930
62007W        W33536  36.018  18.577   4.070
62008W        W33537  37.326  18.557   0.283
62009W        W33538  33.032  20.812  13.975
62010W        W33539  19.125  40.631  14.843
62011W        W33540  15.146  22.162   2.516
62012W        W33541  27.205  18.812   3.713
62013W        W33542  10.066  25.580  11.365
62014W        W33543  26.773  34.011  14.084
62015W        W33544  10.018   6.941  11.744
62016W        W33545   4.612  12.781   4.485
62017W        W33546  28.222   9.420   0.019
62018W        W33547  30.060  17.115   1.580
62019W        W33548  35.166  14.022   0.485
62020W        W33549  11.833  34.347  14.374
62021W        W33550  28.031  17.246   1.874
62022W        W33551   2.831  40.692   3.413
62023W        W33552   5.261  21.757  10.762
62024W        W33553  17.402  10.936   2.597
62025W        W33554  19.102  40.741   0.703
62026W        W33555  24.654  28.464  10.670
62027W        W33556  34.672   6.245  12.526
62028W        W33557  34.810  41.541   0.401
62029W        W33558  22.020  44.746  14.242
62030W        W33559  15.769  37.961  14.910
62031W        W33560  36.437  10.856  13.534
62032W        W33561  24.869   4.831   4.037
62033W        W33562  15.625  34.374  11.912
62034W        W33563  27.683  36.990   4.777
62035W        W33564   6.116  26.876   5.000
62036W        W33565   9.722   6.987  14.995
62037W        W33566   9.674   8.216   4.677
62038W        W33567  18.652  23.150   2.030
62039W        W33568  42.202  10.330   2.770
62040W        W33569   1.345  38.626   2.669
62041W        W33570  29.109  39.863  13.798
62042W        W33571  39.887  19.013   3.095
62043W        W33572  22.239  29.525   3.870
62044W        W33573  32.398   2.962  13.517
62045W        W33574  18.800  44.030  13.149
62046W        W33575  29.860   3.524  11.625
62047W        W33576  30.706  44.502  10.666
62048W        W33577  15.351  20.300  13.780
62049W        W33578  39.444  18.076   4.121
62050W        W33579  31.610  34.863  13.803
62051W        W33580  29.688   5.531  11.906
62052W        W33581  14.816  19.158  11.550
62053W        W33582  26.462  11.585  14.350
62054W        W33583   7.686  32.652  13.482
62055W        W33584  29.783  14.249   3.123
62056W        W33585  22.287  22.073   4.603
62057W        W33586  13.168  44.685   1.827
62058W        W33587   6.878  34.851   1.385
62059W        W33588  38.846  23.303  11.143
62060W        W33589   5.601  44.775   1.296
62061W        W33590   4.278   2.254  13.626
62062W        W33591  20.752  38.434  11.951
62063W        W33592  30.074  13.654  12.918
62064W        W33593  38.489  24.962   3.223
62065W        W33594  35.479   0.736   2.945
62066W        W33595   8.922  37.609   1.817
62067W        W33596  33.897  23.962   1.302
62068W        W33597   3.695   8.705  12.987
62069W        W33598  40.364   8.821  13.686
62070W        W33599  10.814  35.386  10.527
62071W        W33600  19.330  40.944  14.328
62072W        W33601  38.316  44.155   1.494
62073W        W33602  30.075   7.350  11.719
62074W        W33603  17.019  33.622  14.432
62075W        W33604   6.264  40.322  11.723
62076W        W33605  30.530  35.352   4.545
62077W        W33606  43.377  29.899   0.525
62078W        W33607  35.484  34.152  11.636
62079W        W33608  41.235  16.074  14.777
62080W        W33609  21.457  10.188  10.970
62081W        W33610  44.319  33.598  12.350
62082W        W33611   1.390   2.314  12.546
62083W        W33612  43.283  24.002  10.873
62084W        W33613  37.576  39.547  10.702
62085W        W33614  44.563   1.176  14.825
62086W        W33615  18.686   9.408   4.293
62087W        W33616  39.005   2.224  14.988
62088W        W33617  11.826  15.801   4.033
62089W        W33618  39.381  20.608  11.148
62090W        W33619   4.775  41.186  10.136
62091W        W33620  25.508  24.415   3.183
62092W        W33621  41.819   9.847   4.541
62093W        W33622   5.280  22.459  10.326
62094W        W33623  13.647   4.304   0.302
62095W        W33624  17.196  44.104  11.623
62096W        W33625  17.210  23.112  13.523
62097W        W33626  41.913  24.564   4.884
62098W        W33627   1.066  43.345  10.382
62099W        W33628   1.932  11.865   3.166
62100W        W33629   2.160  10.281   1.440
62101W        W33630  20.729   9.666   3.600
62102W        W33631  26.203  38.664   4.854
62103W        W33632  34.801   5.639  13.908
62104W        W33633  10.649   8.635  14.712
62105W        W33634  33.956  35.166  13.781
62106W        W33635  11.281  37.151  12.139
62107W        W33636  15.075  42.835   3.340
62108W        W33637   7.655  42.431  11.467
62109W        W33638  24.536  15.723   0.281
62110W        W33639   7.797   9.824  11.131
62111W        W33640   1.421  28.926   1.450
62112W        W33641  26.624  10.002  12.389
62113W        W33642  37.325  43.280   4.126
62114W        W33643  33.205  21.614   2.341
62115W        W33644  29.145  13.025  10.184
62116W        W33645  30.718  31.622  13.830
62117W        W33646  43.203  20.987   1.757
62118W        W33647  17.658  24.629   2.474
62119W        W33648  29.397  30.098   3.691
62120W        W33649   0.863  41.504  11.488
62121W        W33650   2.675   6.371   3.286
62122W        W33651  43.843  10.612  12.487
62123W        W33652  28.734  16.796   0.806
62124W        W33653  35.874  22.208  14.599
62125W        W33654   3.401  14.412  11.589
62126W        W33655  17.503  38.204  12.506
62127W        W33656  27.587  26.424  13.775
62128W        W33657  43.983  28.590  12.368
62129W        W33658   1.105   5.537   3.751
62130W        W33659  36.117  36.525   1.247
62131W        W33660  26.316  22.417  12.753
62132W        W33661  44.832  10.382  14.545
62133W        W33662  29.511  19.830  14.013
62134W        W33663  43.595   6.253   4.578
62135W        W33664  43.783  15.347   1.815
62136W        W33665  43.846  36.643   0.055
62137W        W33666  24.953  27.626   2.213
62138W        W33667  38.268  40.317   0.888
62139W        W33668  37.971  43.251  12.401
62140W        W33669  11.843  17.597   2.397
62141W        W33670  38.292  13.139  13.535
62142W        W33671  24.632  14.234   3.732
62143W        W33672  16.046  21.944   3.593
62144W        W33673   1.333  13.385  13.941
62145W        W33674  23.036   3.316   3.648
62146W        W33675  24.154  32.634  13.055
62147W        W33676  23.219   7.720  11.929
62148W        W33677   4.026  43.853  10.831
62149W        W33678  44.029  27.640   2.182
62150W        W33679  22.288  12.887  14.277
62151W        W33680   5.826  32.055   2.364
62152W        W33681  29.462  17.377   5.045
62153W        W33682  10.715  43.838   2.210
62154W        W33683  28.732  19.040  14.489
62155W        W33684  15.698  27.354   0.398
62156W        W33685   7.413  36.949   2.631
62157W        W33686  19.188   9.811  10.995
62158W        W33687   1.881  16.119   4.940
62159W        W33688  37.649  41.389  14.944
62160W        W33689   0.751  13.302   2.158
62161W        W33690  32.279  35.896  13.730
62162W        W33691  20.136  20.818   2.467
62163W        W33692   5.249  38.268  11.186
62164W        W33693  16.266  28.680  10.264
62165W        W33694  22.225  39.081   3.899
62166W        W33695  10.872  17.051  11.159
62167W        W33696  42.497  35.903  12.395
62168W        W33697   1.899  30.151   4.362
62169W        W33698   8.893   1.202  14.932
62170W        W33699  43.718  39.805  12.333
62171W        W33700  23.072  31.198   3.496
62172W        W33701  14.195  28.877  11.183
62173W        W33702  23.141   9.285   2.848
62174W        W33703   1.447  21.566  10.960
62175W        W33704  40.805  13.152  10.596
62176W        W33705   0.537  31.668  13.361
62177W        W33706  23.354  43.282   4.164
62178W        W33707   8.014   5.139   4.186
62179W        W33708  37.983  19.458  10.820
62180W        W33709  37.235   8.730   4.301
62181W        W33710  22.674  26.024   2.614
62182W        W33711  10.808  10.918  13.015
62183W        W33712   0.814   9.703   2.766
62184W        W33713  44.521  21.134  14.037
62185W        W33714  43.934  25.177   0.281
62186W        W33715  21.617   7.630  11.250
62187W        W33716  12.387  25.696  12.731
62188W        W33717  11.388  39.382   4.056
62189W        W33718  41.943  34.509   0.325
62190W        W33719  15.360  15.090   1.725
62191W        W33720  35.816  27.162   3.120
62192W        W33721  10.195  41.859  13.463
62193W        W33722  24.021  22.012   3.639
62194W        W33723  16.771  14.750   1.514
62195W        W33724  23.653  15.281   2.587
62196W        W33725  14.674  22.462  13.506
62197W        W33726  40.515   6.390  12.842
62198W        W33727  44.694  15.135  13.445
62199W        W33728  42.989  41.888   0.314
62200W        W33729  14.822  24.998  13.978
62201W        W33730  20.804  15.536  13.376
62202W        W33731  42.443   5.513   4.831
62203W        W33732   8.198   9.352   0.457
62204W        W33733  31.900   9.473   0.541
62205W        W33734  17.670   0.024  10.689
62206W        W33735  41.798   5.247  10.707
62207W        W33736  41.453  18.021   4.667
62208W        W33737  14.287  34.208  13.102
62209W        W33738  21.701   8.164  14.397
62210W        W33739  32.302   3.008   0.458
62211W        W33740  30.298  23.819  12.523
62212W        W33741  23.317   6.603  12.098
62213W        W33742  31.910   9.194   0.108
62214W        W33743  23.294  20.269  12.415
62215W        W33744  15.546  19.805   1.932
62216W        W33745  11.309  18.354   4.653
62217W        W33746  16.156  13.627   4.123
62218W        W33747   4.791  38.293   2.749
62219W        W33748   1.022  18.038   3.862
62220W        W33749  15.201   9.403  12.426
62221W        W33750  11.222  28.243  14.926
62222W        W33751   5.711  34.946  12.053
62223W        W33752  42.281   2.845   0.813
62224W        W33753  39.894  20.035  12.157
62225W        W33754  29.458  44.297   4.276
62226W        W33755  10.680  26.724   0.052
62227W        W33756  39.035  30.945   0.293
62228W        W33757  30.028  28.641   4.465
62229W        W33758  10.709  25.012  12.024
62230W        W33759  33.416  34.384  13.589
62231W        W33760  10.108  11.346   0.324
62232W        W33761  44.393   4.009  14.763
62233W        W33762  44.603   3.970  13.403
62234W        W33763  26.783   7.888  12.000
62235W        W33764  43.240  28.704   4.551
62236W        W33765  19.162  25.623   4.106
62237W        W33766   0.791  31.632   1.141
62238W        W33767  12.870   5.154  12.507
62239W        W33768  13.611  22.820   2.721
62240W        W33769  31.382   8.684   0.582
62241W        W33770  37.832  22.064   1.197
62242W        W33771  36.591   2.540  12.801
62243W        W33772   7.358  37.434  12.059
62244W        W33773   9.290  11.975   0.272
62245W        W33774  10.806   1.521  12.478
62246W        W33775  11.142  29.213   1.775
62247W        W33776   2.348  19.825  14.078
62248W        W33777  44.763  13.864  11.034
62249W        W33778   8.000  33.769  11.631
62250W        W33779  25.577  30.151   0.857
62251W        W33780   2.805  27.269   0.339
62252W        W33781  24.384  13.693   0.970
62253W        W33782  21.275  27.971   1.950
62254W        W33783  27.542   6.279   2.368
62255W        W33784  35.362  38.108  10.816
62256W        W33785  13.858  34.849   3.158
62257W        W33786  41.362  20.154  12.098
62258W        W33787   9.944  19.226   5.180
62259W        W33788  31.160   3.322   1.740
62260W        W33789   4.701   4.499  10.566
62261W        W33790  17.586  31.207   3.250
62262W        W33791  44.700  37.433   5.298
62263W        W33792   5.807  17.806   3.858
62264W        W33793   5.431  20.609   1.896
62265W        W33794  39.054  24.124  11.629
62266W        W33795  35.121  15.413   2.643
62267W        W33796  24.772  42.248  11.234
62268W        W33797  29.515   3.659  13.030
62269W        W33798  34.761  15.252  11.652
62270W        W33799  29.421   1.205  14.405
62271W        W33800   4.256   5.487  12.464
62272W        W33801  17.170  33.457  13.079
62273W        W33802  23.683  44.340   3.106
62274W        W33803  11.301   4.626  13.072
62275W        W33804  37.325  27.583  11.460
62276W        W33805  42.846   3.147   4.694
62277W        W33806  15.278   7.386   0.270
62278W        W33807  12.525   1.693   1.202
62279W        W33808   2.592  18.778   4.068
62280W        W33809  21.460  21.653   3.633
62281W        W33810  33.835  21.075  11.244
62282W        W33811  24.192   8.954  10.553
62283W        W33812  30.644  37.937   4.474
62284W        W33813  37.000  42.614  11.692
62285W        W33814  39.983  38.543  14.843
62286W        W33815  13.566  36.348   3.772
62287W        W33816  15.746  31.144   0.050
62288W        W33817   8.784  33.179   0.133
62289W        W33818  33.466  23.808   4.152
62290W        W33819  41.762   0.011   4.298
62291W        W33820  26.738   6.422  11.449
62292W        W33821  44.959   7.947  11.341
62293W        W33822  17.489  20.642  13.989
62294W        W33823  18.764   3.338   4.572
62295W        W33824  43.285  26.009   4.587
62296W        W33825  12.935  11.468  14.798
62297W        W33826   7.894  32.361  13.876
62298W        W33827  15.790  26.706   2.669
62299W        W33828  19.854   3.328  11.987
62300W        W33829  44.635  44.136  12.400
62301W        W33830  15.694  41.440   0.944
62302W        W33831  40.830   7.589   2.200
62303W        W33832   9.649  16.256   0.344
62304W        W33833  16.335  22.083   2.401
62305W        W33834  16.526  20.767   0.348
62306W        W33835   6.819   0.214   2.657
62307W        W33836  31.014   7.492   1.201
62308W        W33837  21.972   8.751  11.166
62309W        W33838  17.594   4.640   2.431
62310W        W33839   1.048  23.854   5.002
62311W        W33840  19.201  30.585  11.206
62312W        W33841  21.465  32.670   4.224
62313W        W33842   8.020  20.022  14.349
62314W        W33843  14.502   5.279   0.868
62315W        W33844  22.369   6.123  11.480
62316W        W33845  17.301  11.910   2.917
62317W        W33846   2.749  15.749   0.468
62318W        W33847  23.909  34.247   0.010
62319W        W33848   4.477  24.722  11.718
62320W        W33849  25.645  43.494   0.291
62321W        W33850   3.921  33.228  12.541
62322W        W33851  44.210  12.327   5.057
62323W        W33852  32.895  11.641  11.707
62324W        W33853  22.178  18.152   1.432
62325W        W33854   1.266  25.069   2.531
62326W        W33855  12.895  27.525  12.007
62327W        W33856  36.847  41.490   4.397
62328W        W33857  20.369  20.536  14.719
62329W        W33858  20.964  31.033   1.956
62330W        W33859   7.974  40.828  13.054
62331W        W33860  11.942  36.410   2.469
62332W        W33861   6.274   9.154  14.880
62333W        W33862  17.490   0.454   0.287
62334W        W33863  31.438  33.469  11.959
62335W        W33864  32.127  21.643  11.138
62336W        W33865  15.263  30.534  12.410
62337W        W33866  25.180  33.053   2.390
62338W        W33867  34.909   7.109   3.254
62339W        W33868  32.158  27.511  14.893
62340W        W33869   2.787  25.606   1.268
62341W        W33870   9.181  30.380   1.864
62342W        W33871   9.358  33.463  12.950
62343W        W33872  38.939  34.456  13.332
62344W        W33873  27.392  21.304  14.514
62345W        W33874  41.731  36.045  10.508
62346W        W33875  37.345  26.303   1.919
62347W        W33876  12.691   5.021   4.112
62348W        W33877  21.021   6.547   0.177
62349W        W33878  35.377  16.595   0.815
62350W        W33879  36.829   2.425  11.060
62351W        W33880  42.396  24.509   1.497
62352W        W33881  11.380   4.444  11.201
62353W        W33882  11.323  44.267   0.535
62354W        W33883  19.327  42.927   3.219
62355W        W33884   8.656  15.654  14.338
62356W        W33885   8.860  42.671   4.108
62357W        W33886  22.615  19.715   3.008
62358W        W33887  11.539  33.248   3.361
62359W        W33888  23.439  29.994   0.821
62360W        W33889  24.343   5.440  14.001
62361W        W33890   6.102  10.245  10.471
62362W        W33891  26.384   3.035  13.848
62363W        W33892   8.131  44.818   0.329
62364W        W33893   6.190  27.247  11.434
62365W        W33894  25.296  30.169  12.385
62366W        W33895   1.225  25.722  11.466
62367W        W33896  27.727  20.700  11.607
62368W        W33897  38.987  20.668   3.615
62369W        W33898  23.106  24.498   2.330
62370W        W33899  39.408  11.958   1.332
62371W        W33900  19.057  19.703  11.651
62372W        W33901  27.920  25.647  11.717
62373W        W33902  41.316  20.826   0.447
62374W        W33903  28.931  16.621   1.372
62375W        W33904  27.492   5.459  13.070
62376W        W33905  39.277  30.482   3.608
62377W        W33906  14.148  23.536  13.044
62378W        W33907  11.377  36.562  10.725
62379W        W33908  42.117  23.962   0.832
62380W        W33909  24.099  35.920   1.841
62381W        W33910  33.911  41.050  14.840
62382W        W33911  19.353  23.339  11.289
62383W        W33912   0.311  37.502   2.643
62384W        W33913  39.451  30.096  10.616
62385W        W33914  37.147   0.876   0.642
62386W        W33915  38.938   3.139   3.559
62387W        W33916  40.397  10.086  12.633
62388W        W33917  19.831  40.853  14.336
62389W        W33918   5.732  15.060  13.872
62390W        W33919  27.578  41.394   1.442
62391W        W33920  14.208  27.196   4.127
62392W        W33921  29.754  35.360  14.308
62393W        W33922  22.931  22.398  12.765
62394W        W33923  42.782  23.251   4.271
62395W        W33924  31.838   9.787  11.041
62396W        W33925  18.639   8.287   2.710
62397W        W33926  38.595  42.948   0.749
62398W        W33927   1.329  13.923  11.069
62399W        W33928   9.978  40.871   1.818
62400W        W33929  35.064  42.923  10.870
62401W        W33930   4.225  26.959  12.170
62402W        W33931  15.807  31.154   3.729
62403W        W33932  37.612   5.385  12.329
62404W        W33933  44.730  27.456  12.347
62405W        W33934  15.482  27.211  13.819
62406W        W33935  34.494  43.615  12.958
62407W        W33936  27.513  37.841   4.678
62408W        W33937  40.812   9.817  10.692
62409W        W33938  33.490  23.947   4.970
62410W        W33939   8.807  15.777  12.008
62411W        W33940  25.083  22.677  13.063
62412W        W33941  11.294  27.509  11.043
62413W        W33942   2.605  11.672   3.302
62414W        W33943  28.652  27.050   2.358
62415W        W33944   5.184   1.816   4.172
62416W        W33945   7.962  15.221  14.353
62417W        W33946   5.155  38.727   4.125
62418W        W33947  30.938  17.548   2.113
62419W        W33948   7.820  25.678   4.118
62420W        W33949  17.985  29.160   3.188
62421W        W33950   7.850  20.902  13.410
62422W        W33951  34.792  37.003   3.421
62423W        W33952  12.342   5.924  12.560
62424W        W33953   5.933  13.291  11.932
62425W        W33954  23.337  26.486  14.869
62426W        W33955  23.694  41.357  12.492
62427W        W33956  36.312   5.975  10.673
62428W        W33957   9.770  18.686   4.279
62429W        W33958  15.038  33.180  12.879
62430W        W33959   7.916  43.005   4.297
62431W        W33960  35.640   5.534   0.855
62432W        W33961  20.239   2.493   3.284
62433W        W33962   6.039  25.195   4.159
62434W        W33963  15.369   6.022   3.705
62435W        W33964  20.108  11.107   4.301
62436W        W33965  19.057  19.530  14.193
62437W        W33966  37.930  28.188   9.968
62438W        W33967  33.027  35.730   1.169
62439W        W33968  23.167  30.753  10.755
62440W        W33969  19.144  32.340   4.953
62441W        W33970  43.891  26.735  12.448
62442W        W33971  34.758  34.475  11.044
62443W        W33972  18.714  17.053  14.087
62444W        W33973  29.399  23.511   2.559
62445W        W33974  32.036  17.795   1.838
62446W        W33975  11.239  24.154   4.421
62447W        W33976  32.077  35.637  14.550
62448W        W33977  31.307  25.272  14.892
62449W        W33978  28.421  39.913  14.721
62450W        W33979  39.426  42.099   2.806
62451W        W33980  28.998  32.968  13.506
62452W        W33981  18.802  13.698  12.543
62453W        W33982  36.088  26.857  14.283
62454W        W33983   5.414  13.748   4.599
62455W        W33984  35.079   5.746  14.755
62456W        W33985  31.989  22.005  14.155
62457W        W33986   3.074  24.477  13.402
62458W        W33987   8.991  23.450  13.344
62459W        W33988  38.548  28.955   1.399
62460W        W33989  15.176  43.409  10.215
62461W        W33990  38.969   6.886   1.813
62462W        W33991   6.606  27.584  13.854
62463W        W33992  30.957  34.724   1.622
62464W        W33993   1.758  36.480  12.149
62465W        W33994   9.310  19.668  14.319
62466W        W33995  35.149  24.586  14.362
62467W        W33996   7.246   2.687   0.911
62468W        W33997  39.632  23.967  14.758
62469W        W33998  26.283  30.284   0.392
62470W        W33999  37.615   4.972  13.893
62471W        W34000  13.166  39.546   0.317
62472W        W34001  33.062  38.267   3.562
62473W        W34002   1.209  41.506   3.276
62474W        W34003  15.985  41.004   1.469
62475W        W34004   7.004   9.835  14.923
62476W        W34005  43.726  35.588   3.287
62477W        W34006  35.183  14.940   2.903
62478W        W34007   0.190  20.114  14.776
62479W        W34008   9.229  30.168  12.206
62480W        W34009  21.565   7.268   0.778
62481W        W34010  42.790   7.394  12.829
62482W        W34011  20.216  16.214   2.860
62483W        W34012  26.658   2.324   0.470
62484W        W34013  30.259  39.874  12.959
62485W        W34014   5.724   1.924  12.584
62486W        W34015  25.130  25.052   2.375
62487W        W34016  25.106  15.351   1.350
62488W        W34017  36.174  36.323  12.230
62489W        W34018  38.556   6.634   4.140
62490W        W34019  21.117  14.898  12.508
62491W        W34020  14.448   4.511   0.774
62492W        W34021  38.223   6.743  13.840
62493W        W34022  13.712   9.366   3.894
62494W        W34023  40.987  37.583  12.424
62495W        W34024  44.335  11.787   4.537
62496W        W34025   5.818  30.637   2.208
62497W        W34026  44.142  10.672   2.856
62498W        W34027  13.677  25.893  13.524
62499W        W34028   1.575  31.539  12.152
62500W        W34029  21.134  43.581  11.576
62501W        W34030   8.406  19.613   2.391
62502W        W34031  24.036  18.619  13.981
62503W        W34032   7.862  20.148   0.216
62504W        W34033  35.626  42.750  11.631
62505W        W34034  35.490  25.126  10.533
62506W        W34035  38.245   9.988   1.674
62507W        W34036   5.186   1.322  10.499
62508W        W34037  44.418  30.646  14.563
62509W        W34038  30.459  36.895  12.100
62510W        W34039  40.961  10.195   3.990
62511W        W34040  26.608  34.005  10.412
62512W        W34041  34.324  17.593  10.780
62513W        W34042  44.545  38.752   4.609
62514W        W34043   7.813  37.511   1.400
62515W        W34044  32.623  27.945  10.757
62516W        W34045   8.246  37.516  13.054
62517W        W34046  35.911  15.475   2.367
62518W        W34047  32.603  20.545   4.788
62519W        W34048  31.944  39.856  11.798
62520W        W34049  42.479  28.766  13.918
62521W        W34050  28.896  44.730   0.825
62522W        W34051  42.285  15.264  10.619
62523W        W34052  36.560  36.928  12.916
62524W        W34053  44.254  39.578  13.496
62525W        W34054  36.354   1.961   3.650
62526W        W34055   0.888   5.250   2.664
62527W        W34056  28.233  22.506   4.262
62528W        W34057  39.084  30.887   3.853
62529W        W34058   5.464   0.416  10.875
62530W        W34059  12.952  33.325  13.531
62531W        W34060  27.011  24.295   1.640
62532W        W34061  13.250  17.269   3.324
62533W        W34062  38.092   2.913   3.352
62534W        W34063  25.178   3.422   0.524
62535W        W34064  29.217   9.323  11.463
62536W        W34065  11.859  20.736  10.589
62537W        W34066  40.241  32.603  13.192
62538W        W34067   2.233  32.990   2.742
62539W        W34068   1.897   7.886   4.679
62540W        W34069  19.001  11.848   2.242
62541W        W34070   5.659  23.958   3.655
62542W        W34071  24.177  13.155   4.012
62543W        W34072  44.998  10.305  11.180
62544W        W34073   6.483  20.348  14.930
62545W        W34074  37.426  36.865   3.387
62546W        W34075  17.519  16.611   0.032
62547W        W34076  27.877   2.968  14.967
62548W        W34077  32.248  25.892  11.764
62549W        W34078  21.963  37.581   2.981
62550W        W34079  24.953  19.013   1.696
62551W        W34080   1.878   9.814  10.391
62552W        W34081   6.547  40.331   0.703
62553W        W34082  39.215  41.303  12.941
62554W        W34083  15.540   5.704   4.062
62555W        W34084  29.395  13.700   3.760
62556W        W34085  39.577   1.832  14.203
62557W        W34086  20.931  20.295   2.819
62558W        W34087  15.625  17.562   4.970
62559W        W34088  38.035   8.097   3.202
62560W        W34089   9.618  30.577  11.628
62561W        W34090  44.315  30.681  10.263
62562W        W34091  31.817  15.641   5.467
62563W        W34092  38.396   2.132  12.357
62564W        W34093  31.624  29.382  14.513
62565W        W34094  25.001  38.714  10.796
62566W        W34095  31.076  30.168  13.101
62567W        W34096  33.881   3.875  13.894
62568W        W34097  20.622  28.249  13.871
62569W        W34098  11.389  38.529  11.964
62570W        W34099  41.871  25.407  14.758
62571W        W34100  30.015   6.824   4.566
62572W        W34101  25.180  28.449  10.577
62573W        W34102  20.180  39.584  14.920
62574W        W34103  14.752  27.395  11.479
62575W        W34104  29.393  37.474  14.374
62576W        W34105  17.590  40.030   1.248
62577W        W34106   9.238  17.183   4.758
62578W        W34107   7.163  21.454   9.898
62579W        W34108  35.697  11.820  14.343
62580W        W34109   3.721  18.435  11.787
62581W        W34110   8.438  27.482   2.815
62582W        W34111   5.293  30.155  14.934
62583W        W34112  12.203  34.361  13.812
62584W        W34113   3.210   4.165   2.593
62585W        W34114   2.687  12.200   3.630
62586W        W34115  32.857  21.217   3.623
62587W        W34116  29.411  20.874   3.103
62588W        W34117  14.199   3.698  13.955
62589W        W34118  10.718  32.084   0.180
62590W        W34119  35.856  36.019   0.360
62591W        W34120  20.270   7.830  14.485
62592W        W34121  42.985  16.393   1.759
62593W        W34122  25.217   6.797   4.738
62594W        W34123  14.111  25.482   1.325
62595W        W34124   8.444  31.017  13.687
62596W        W34125  27.074  18.686  14.460
62597W        W34126  12.870  33.928   1.655
62598W        W34127  29.864   2.569  12.579
62599W        W34128  25.255  29.735  13.980
62600W        W34129  21.855  33.759   4.409
62601W        W34130   1.746   7.487   2.712
62602W        W34131  31.075  40.370   1.706
62603W        W34132  19.394  19.971   9.444
62604W        W34133  31.639  32.179   0.411
62605W        W34134  29.692   2.467   2.392
62606W        W34135  14.378  40.751   4.359
62607W        W34136  29.004   6.699   2.289
62608W        W34137   8.306   7.041   1.354
62609W        W34138  42.895  41.586   0.756
62610W        W34139  43.372  17.047   2.325
62611W        W34140  18.537  32.957   4.079
62612W        W34141  10.578   5.104   4.939
62613W        W34142  37.437  13.572   3.680
62614W        W34143  21.523  40.900  10.899
62615W        W34144  21.555   0.728   4.305
62616W        W34145  39.733  27.148  14.416
62617W        W34146  25.555  34.891  14.839
62618W        W34147   5.822  29.157   1.248
62619W        W34148  28.198  31.615   3.217
62620W        W34149  39.595  34.587  10.549
62621W        W34150  42.317  30.569  12.039
62622W        W34151  22.734   5.151   4.634
62623W        W34152  44.744   3.133   0.749
62624W        W34153   9.767  40.154   4.155
62625W        W34154  25.570  35.886  13.914
62626W        W34155  15.758  23.401   2.889
62627W        W34156  39.348   7.447  13.484
62628W        W34157  43.452  31.349   0.817
62629W        W34158   6.726  38.326  10.957
62630W        W34159  29.604  29.504   4.863
62631W        W34160  28.575  37.088  14.283
62632W        W34161   4.388   2.894  13.900
62633W        W34162  10.566  12.879  12.474
62634W        W34163   1.189   6.913  13.009
62635W        W34164   7.288  21.103  10.868
62636W        W34165  43.959  28.574   1.179
62637W        W34166  39.262  19.136   1.786
62638W        W34167  25.261  38.006  14.374
62639W        W34168  28.059  29.924  12.444
62640W        W34169  32.105  31.735   1.636
62641W        W34170  34.817   4.675   4.992
62642W        W34171  16.007  28.404   3.128
62643W        W34172   2.799  16.559   1.172
62644W        W34173   3.324  30.449   2.337
62645W        W34174   2.846  40.840   4.879
62646W        W34175  30.544   2.994   1.700
62647W        W34176  40.954  27.744   4.356
62648W        W34177  34.653  15.858  12.790
62649W        W34178  44.251  27.635   0.897
62650W        W34179  39.470  24.069  13.456
62651W        W34180  23.366  35.781   0.649
62652W        W34181  28.982  44.007  12.620
62653W        W34182   5.396  29.531   2.159
62654W        W34183  34.520   4.861  12.980
62655W        W34184  43.388   6.656  13.300
62656W        W34185  36.582   5.933  14.233
62657W        W34186   7.138   9.121   3.241
62658W        W34187  30.590  34.472   3.615
62659W        W34188  16.094  19.115  13.526
62660W        W34189  38.291  13.210   2.334
62661W        W34190  26.672  24.628   3.864
62662W        W34191   6.113   8.127   2.455
62663W        W34192  27.651   3.925  13.130
62664W        W34193   7.999  36.873  10.673
62665W        W34194  25.291  14.004  11.113
62666W        W34195  33.030  34.792   0.738
62667W        W34196  32.107   6.426   3.546
62668W        W34197  41.022  25.055   0.239
62669W        W34198  17.447  34.528  12.705
62670W        W34199  40.427  44.185  12.102
62671W        W34200  18.565  13.352  13.626
62672W        W34201  42.994  12.951   1.166
62673W        W34202  35.931  37.453   1.658
62674W        W34203   5.305  17.577   2.772
62675W        W34204  25.686   2.281   3.358
62676W        W34205  39.959  17.148  13.034
62677W        W34206  41.555   8.668   0.370
62678W        W34207  30.897  16.588  10.239
62679W        W34208  19.532  42.409  13.494
62680W        W34209   1.650  41.276   3.304
62681W        W34210   5.818  27.464   4.625
62682W        W34211   3.893  41.564  11.158
62683W        W34212  11.877  10.194  14.943
62684W        W34213  36.663  12.954   3.532
62685W        W34214  29.277  19.143   1.849
62686W        W34215   8.642  23.157   3.667
62687W        W34216  25.188  10.837  12.182
62688W        W34217  29.330  12.895  10.863
62689W        W34218  11.169   6.833   0.957
62690W        W34219  16.112  40.215  12.732
62691W        W34220  43.564  12.185  13.067
62692W        W34221  40.044  26.180   0.775
62693W        W34222   2.281  38.126  11.212
62694W        W34223  29.414  41.466   2.378
62695W        W34224  10.479  19.142  11.190
62696W        W34225   9.911  15.868  12.551
62697W        W34226  27.885  15.504   5.300
62698W        W34227  27.168  14.658   2.705
62699W        W34228  25.129  17.608  10.618
62700W        W34229  42.804  13.004  11.055
62701W        W34230  34.893  31.906  13.949
62702W        W34231  17.118  38.045   1.351
62703W        W34232  26.965  18.621  13.953
62704W        W34233  17.055  16.849  10.691
62705W        W34234  24.333   1.889  14.730
62706W        W34235  39.477  13.009   3.432
62707W        W34236  23.714  19.584  13.502
62708W        W34237  25.782  32.715   0.938
62709W        W34238   2.303  17.678  14.517
62710W        W34239  41.218  15.937  12.001
62711W        W34240  16.035  29.611  11.133
62712W        W34241   4.675  41.708  13.744
62713W        W34242  42.504  15.916  10.323
62714W        W34243  14.363  27.130   1.887
62715W        W34244   2.318   4.791  13.791
62716W        W34245  30.998  17.423   4.592
62717W        W34246  29.215   8.186   1.397
62718W        W34247  15.689  29.681  13.032
62719W        W34248  33.257  38.295  14.289
62720W        W34249  19.069  20.818   3.751
62721W        W34250  11.221  39.755   1.870
62722W        W34251  15.680   5.933   0.213
62723W        W34252  43.817  35.365   4.169
62724W        W34253  27.571  30.794   0.229
62725W        W34254  39.991  28.517  13.521
62726W        W34255  34.530  30.702  12.875
62727W        W34256  12.869  27.107   0.901
62728W        W34257  34.520  20.199   3.685
62729W        W34258  35.618   5.137  11.446
62730W        W34259  24.157  37.765   0.815
62731W        W34260   2.072  31.160   1.029
62732W        W34261  23.495  16.566  11.405
62733W        W34262  29.682  33.543   0.860
62734W        W34263  16.341  15.729  10.707
62735W        W34264   2.023  25.532  13.337
62736W        W34265   2.844   1.549  13.018
62737W        W34266  30.043   2.610   0.266
62738W        W34267  44.214  20.844  10.492
62739W        W34268  23.852  30.552  11.985
62740W        W34269  22.159  21.560   1.976
62741W        W34270  22.643  27.592   3.797
62742W        W34271  22.203   4.844  12.056
62743W        W34272  12.531  10.717   3.228
62744W        W34273  34.998  29.864  11.999
62745W        W34274   6.455  18.350   4.453
62746W        W34275   0.535  11.365  12.510
62747W        W34276   9.060  39.057   4.196
62748W        W34277  29.010  20.734   0.401
62749W        W34278  29.147  27.129  11.129
62750W        W34279  43.882  41.234  10.785
62751W        W34280   0.531  37.464   2.190
62752W        W34281  12.080  44.488  13.285
62753W        W34282   9.981  19.713  12.513
62754W        W34283  29.999  24.527   0.884
62755W        W34284   7.422  19.941  14.277
62756W        W34285  28.063   9.890  14.878
62757W        W34286  38.792  20.282   9.894
62758W        W34287   3.939  16.696   0.144
62759W        W34288  31.176  12.135   1.363
62760W        W34289  11.170  11.520   1.938
62761W        W34290  40.881  14.791   3.039
62762W        W34291  27.251  38.033  13.009
62763W        W34292  15.542  43.995   2.911
62764W        W34293  30.403  24.058  14.551
62765W        W34294  31.127  10.319  11.142
62766W        W34295  11.976  18.574  10.577
62767W        W34296  40.430  12.196   0.230
62768W        W34297  15.856   5.007   3.759
62769W        W34298   4.932  22.738   2.836
62770W        W34299  10.759   9.713   4.358
62771W        W34300   8.769  22.525   5.064
62772W        W34301   3.906  28.483   0.737
62773W        W34302   2.075   4.646  14.237
62774W        W34303   0.592  19.457   0.197
62775W        W34304  43.850   7.193   3.750
62776W        W34305  40.039  41.888  12.671
62777W        W34306  23.674  43.990  13.311
62778W        W34307   5.236   7.941  12.941
62779W        W34308  13.915   8.401   4.622
62780W        W34309  20.802  11.761   4.636
62781W        W34310  35.652  32.293  11.027
62782W        W34311  20.552   8.728  13.014
62783W        W34312   1.921  42.044   1.324
62784W        W34313   2.243   9.623  14.209
62785W        W34314  15.500  18.817   3.128
62786W        W34315  10.001  37.970  14.518
62787W        W34316  17.436  17.864   3.609
62788W        W34317  29.617  16.731  11.898
62789W        W34318  42.379   4.427   0.450
62790W        W34319  35.996  44.810  12.484
62791W        W34320   8.857  15.854   2.313
62792W        W34321  22.263  23.693   2.336
62793W        W34322  18.852  29.397   1.675
62794W        W34323  12.447  37.608  12.560
62795W        W34324  40.348   2.184  13.810
62796W        W34325   8.746  39.241   3.323
62797W        W34326  30.629  12.864  13.953
62798W        W34327  22.626  44.401   4.049
62799W        W34328  36.856  40.096  13.042
62800W        W34329  24.075  31.798   0.923
62801W        W34330  16.027   7.614  10.308
62802W        W34331  18.268   2.167   1.415
62803W        W34332  41.466  27.596   0.260
62804W        W34333  15.526  15.297  13.698
62805W        W34334  30.348  34.982   3.766
62806W        W34335   2.369   3.468   0.990
62807W        W34336   7.247  22.035  13.067
62808W        W34337  32.079  25.025  13.799
62809W        W34338  18.396  24.064  13.831
62810W        W34339  41.448  17.781   1.948
62811W        W34340  16.588  43.942   4.055
62812W        W34341  10.787  39.574  14.598
62813W        W34342  10.417   1.909  12.351
62814W        W34343  42.904   2.714  12.570
62815W        W34344  11.669  29.471  14.116
62816W        W34345   1.672  30.566   2.488
62817W        W34346  15.052  35.307  13.448
62818W        W34347  29.590  13.745  14.808
62819W        W34348  37.367  43.181  14.482
62820W        W34349  25.981  15.013   0.365
62821W        W34350  36.806  27.279   0.200
62822W        W34351  36.134   2.701   4.192
62823W        W34352  38.405  32.253   4.918
62824W        W34353  35.367  38.506   1.874
62825W        W34354  29.567  37.956   3.296
62826W        W34355   3.095  28.644  13.523
62827W        W34356  38.364  10.994  11.595
62828W        W34357  23.145  18.344   1.847
62829W        W34358  30.045  32.557   4.852
62830W        W34359  25.155  13.161  12.448
62831W        W34360   5.433  22.744   2.749
62832W        W34361  33.868  27.620   4.184
62833W        W34362   2.887   0.654  14.800
62834W        W34363  27.911   8.703   3.571
62835W        W34364  33.960  44.015  12.887
62836W        W34365   6.579  33.339   0.794
62837W        W34366   6.323   5.925   0.867
62838W        W34367  34.573  20.066   1.386
62839W        W34368   2.681  20.501   1.838
62840W        W34369   9.575  16.542   4.213
62841W        W34370  18.924  11.491   5.085
62842W        W34371  24.139  25.049   3.611
62843W        W34372  43.011  16.552  13.848
62844W        W34373  23.237  31.492   4.942
62845W        W34374  15.610  33.052  11.600
62846W        W34375  36.048  32.164   0.851
62847W        W34376  41.871   2.672  14.875
62848W        W34377  16.982   4.444  14.855
62849W        W34378  16.599  27.789  14.555
62850W        W34379  39.515   6.668   0.022
62851W        W34380  43.131  12.709   4.105
62852W        W34381  26.910  27.657   4.166
62853W        W34382  37.427  32.566   0.866
62854W        W34383  23.950   9.622   0.204
62855W        W34384   7.448  39.974  14.449
62856W        W34385  24.674  31.501   4.488
62857W        W34386  30.698  10.830  13.603
62858W        W34387  17.923  28.633   1.711
62859W        W34388  15.866  19.055   2.849
62860W        W34389  32.664  35.872  11.041
62861W        W34390  15.736  36.940   0.493
62862W        W34391  12.634   2.899   0.235
62863W        W34392  30.825  18.553   4.551
62864W        W34393   0.466  23.622  14.379
62865W        W34394  33.492  12.771  13.909
62866W        W34395   8.153  44.892   2.612
62867W        W34396  14.451  36.467  14.954
62868W        W34397  25.958  24.268   1.419
62869W        W34398   0.886  19.006   0.285
62870W        W34399  32.667   5.491   4.059
62871W        W34400  16.316   2.484  10.719
62872W        W34401  11.923  23.474   4.902
62873W        W34402  22.532  41.574   1.701
62874W        W34403  34.453  30.367   0.297
62875W        W34404  24.813  39.589  14.885
62876W        W34405  36.347   4.449   0.140
62877W        W34406  33.967  38.054  11.987
62878W        W34407  18.040  32.899  13.977
62879W        W34408  20.593  30.025  10.832
62880W        W34409  29.354  20.670   1.228
62881W        W34410   8.799   1.275  13.100
62882W        W34411  38.987  35.320   1.446
62883W        W34412  25.980  42.967   4.389
62884W        W34413  17.239   3.557  12.441
62885W        W34414   3.281  31.430   3.099
62886W        W34415   2.763  25.607   0.183
62887W        W34416   5.100  30.566   0.225
62888W        W34417   5.773  40.314  11.949
62889W        W34418   4.498  30.219  12.458
62890W        W34419  40.795   8.342   0.309
62891W        W34420   6.680  39.392   1.385
62892W        W34421  22.697  16.129  14.071
62893W        W34422  40.357  10.259  12.151
62894W        W34423  18.653  16.361   0.364
62895W        W34424  39.726  38.048   1.544
62896W        W34425  24.034   5.262  14.921
62897W        W34426  41.608  14.364  13.138
62898W        W34427  21.104  38.751  10.282
62899W        W34428  34.499   7.882  14.064
62900W        W34429  43.527  26.611  14.246
62901W        W34430   5.868   8.369   2.866
62902W        W34431  36.143  21.118  11.163
62903W        W34432   5.632  31.678   4.657
62904W        W34433  35.353   0.968   1.337
62905W        W34434  44.423  33.489   2.337
62906W        W34435  23.058  34.596  10.225
62907W        W34436  11.405  19.614  13.472
62908W        W34437  19.267  21.608  12.694
62909W        W34438  16.129   3.491   1.308
62910W        W34439  32.066  11.170  11.272
62911W        W34440  39.489  14.845   0.437
62912W        W34441   4.641  17.634   1.078
62913W        W34442  26.599  29.631   4.673
62914W        W34443   5.830  37.908  10.735
62915W        W34444  38.605  36.919  11.683
62916W        W34445   2.763  26.269   3.700
62917W        W34446  19.100  19.232   3.605
62918W        W34447  32.617  27.477  13.197
62919W        W34448  43.362  23.608   0.053
62920W        W34449  17.196  40.334   9.593
62921W        W34450  14.341  27.090   0.105
62922W        W34451  41.490   4.667   1.436
62923W        W34452  38.337  32.696  11.596
62924W        W34453  43.817  18.612  10.656
62925W        W34454  29.703   0.931   0.435
62926W        W34455  39.897   5.617   0.640
62927W        W34456  29.990   0.766  12.926
62928W        W34457  40.952  24.356   3.642
62929W        W34458  16.129  31.349  13.388
62930W        W34459  10.155  11.643  12.685
62931W        W34460  19.747  20.532  11.177
62932W        W34461   9.384  31.902   1.334
62933W        W34462  26.468  41.802  14.473
62934W        W34463  12.723  20.480  12.939
62935W        W34464  37.964   0.305  12.341
62936W        W34465   9.269  31.221  14.037
62937W        W34466  13.161  22.953   1.668
62938W        W34467  12.317  27.984   2.854
62939W        W34468  19.913   4.493   4.513
62940W        W34469  38.202  17.663  11.351
62941W        W34470  41.234   7.876   3.375
62942W        W34471   9.459  43.254  11.878
62943W        W34472  29.166  10.707   4.541
62944W        W34473  12.546  35.484   4.150
62945W        W34474  12.080   2.879  13.904
62946W        W34475  11.154  30.097  12.992
62947W        W34476  34.857  26.582  10.123
62948W        W34477  13.348   3.891   0.395
62949W        W34478  21.654  39.477  14.046
62950W        W34479  23.469  40.868  11.662
62951W        W34480   6.001  31.592   3.623
62952W        W34481  41.535  41.385  14.596
62953W        W34482  16.080  40.388  10.651
62954W        W34483  32.123  35.415   1.389
62955W        W34484   6.371  25.580   2.174
62956W        W34485  12.153  25.191   4.899
62957W        W34486  40.763  18.594   0.384
62958W        W34487   9.660  11.087   0.287
62959W        W34488  31.065   2.355  10.492
62960W        W34489  43.785  25.922  11.984
62961W        W34490  20.623  31.794  12.637
62962W        W34491  40.233  29.941  14.794
62963W        W34492  30.564  27.478  11.345
62964W        W34493  19.172  39.884   1.064
62965W        W34494  44.773  26.997  12.600
62966W        W34495  35.875   3.556   4.509
62967W        W34496  17.344  31.648   3.113
62968W        W34497  20.676  32.413  13.942
62969W        W34498  22.316  29.174  14.828
62970W        W34499   4.891   1.255   1.350
62971W        W34500  43.258  41.585   2.351
62972W        W34501  23.971  11.775  14.322
62973W        W34502  14.654  27.711   3.715
62974W        W34503  32.640  22.644   0.444
62975W        W34504  36.357   0.019   0.456
62976W        W34505  23.077   2.930  11.107
62977W        W34506  39.963  15.714  13.205
62978W        W34507  35.621  31.835   0.950
62979W        W34508  13.311  35.400   1.461
62980W        W34509  12.155   0.998  13.575
62981W        W34510  36.348  37.848   3.307
62982W        W34511   6.335  17.587   5.030
62983W        W34512  15.146  34.219  12.074
62984W        W34513  11.373  30.200  12.518
62985W        W34514   6.972   2.755  12.964
62986W        W34515  34.080  31.531  14.333
62987W        W34516   3.336  27.774  13.431
62988W        W34517  20.295  19.689   5.276
62989W        W34518  30.127  34.091  14.221
62990W        W34519  41.458   3.689  13.628
62991W        W34520  17.486  39.280   0.768
62992W        W34521  29.312  11.903  10.718
62993W        W34522  33.443  34.911   2.681
62994W        W34523  38.770  40.249   0.716
62995W        W34524  21.306  34.578  11.661
62996W        W34525  33.604  41.836   0.962
62997W        W34526  13.288   8.947  12.440
62998W        W34527  13.422  36.398   0.724
62999W        W34528  11.071  10.763  10.478
63000W        W34529  14.604   3.521  12.961
63001W        W34530  42.984  37.953  14.060
63002W        W34531  35.966  22.096  13.158
63003W        W34532   1.067  41.796  12.996
63004W        W34533  40.967   2.438  11.737
63005W        W34534  38.023   4.474   4.206
63006W        W34535  20.883   4.219  12.351
63007W        W34536  28.041  41.543  11.408
63008W        W34537  30.833  35.555  14.746
63009W        W34538  41.748  23.610   1.056
63010W        W34539  35.028  38.593  14.474
63011W        W34540  36.635  14.658  10.590
63012W        W34541  38.989   0.449   1.828
63013W        W34542  12.845   0.980  10.314
63014W        W34543  17.195  21.092  14.032
63015W        W34544  34.842  35.341  13.098
63016W        W34545  30.931   6.394   4.532
63017W        W34546  19.313  22.303   0.932
63018W        W34547   4.576  43.522   2.171
63019W        W34548  31.333  21.378  12.005
63020W        W34549   0.703  10.837   4.302
63021W        W34550  37.030   2.760   0.251
63022W        W34551   4.959   0.286   3.204
63023W        W34552  40.544  25.185  14.414
63024W        W34553   9.152  24.903   4.150
63025W        W34554  19.667  40.983  10.261
63026W        W34555  17.270  35.907   1.484
63027W        W34556  44.888  41.376   1.784
63028W        W34557  13.927  14.294  14.013
63029W        W34558  21.052   0.603   2.266
63030W        W34559   7.228  42.541   4.136
63031W        W34560   2.913  28.517  10.735
63032W        W34561  19.058  16.112  11.900
63033W        W34562  10.301  35.448   3.098
63034W        W34563  20.359  41.074  11.682
63035W        W34564  19.994  11.813  12.904
63036W        W34565  17.410  21.811   1.303
63037W        W34566   4.830  28.202   0.980
63038W        W34567   3.397  44.582  12.471
63039W        W34568   1.489  23.857   4.667
63040W        W34569   6.087  19.775  13.893
63041W        W34570  18.995  30.823  12.752
63042W        W34571  42.280  35.279   1.672
63043W        W34572  13.086  20.244  13.235
63044W        W34573   7.288  19.415   4.233
63045W        W34574  42.303   3.493  11.888
63046W        W34575  22.227  35.015   2.806
63047W        W34576  32.489   8.372   1.374
63048W        W34577  29.433  27.226   3.223
63049W        W34578   4.015  41.079   4.162
63050W        W34579   6.687   4.705  12.380
63051W        W34580  24.224  12.924  10.361
63052W        W34581  22.764  23.143  12.793
63053W        W34582  19.480  29.944  12.063
63054W        W34583  44.492  42.713   2.162
63055W        W34584   6.008  13.700   2.006
63056W        W34585  41.788  30.177  12.742
63057W        W34586  35.284  25.489  13.503
63058W        W34587  44.822  16.823   4.555
63059W        W34588  25.877  28.937  14.006
63060W        W34589   6.158  34.889  13.076
63061W        W34590  29.689  17.803   1.841
63062W        W34591   2.517   9.815  11.994
63063W        W34592  25.997  14.155   4.404
63064W        W34593   0.896   6.727   3.160
63065W        W34594  13.858  10.792  10.864
63066W        W34595  27.376  18.432  11.985
63067W        W34596  38.277  22.964  13.159
63068W        W34597   9.535  22.702   2.723
63069W        W34598   1.819  42.296   3.635
63070W        W34599  28.164  35.208  12.645
63071W        W34600   6.775  32.687   4.832
63072W        W34601  34.233  19.186  12.658
63073W        W34602   4.487  37.839  12.287
63074W        W34603   9.404  38.537   1.659
63075W        W34604  38.040  24.219  14.899
63076W        W34605   8.453  17.185  10.250
63077W        W34606  30.669   7.067   4.934
63078W        W34607   9.890  37.011   1.862
63079W        W34608  20.760  34.665   0.225
63080W        W34609   1.211  33.800   3.567
63081W        W34610  10.756  27.948   4.477
63082W        W34611  22.176  31.206   1.364
63083W        W34612  34.673  44.344   4.117
63084W        W34613  39.877  23.522   4.552
63085W        W34614  32.341  41.592  11.727
63086W        W34615   8.849  31.680   3.237
63087W        W34616  12.195  31.292  10.895
63088W        W34617  36.908  21.294  12.937
63089W        W34618   7.211  36.766   2.181
63090W        W34619  20.719  19.667  13.344
63091W        W34620  24.583  41.017   2.456
63092W        W34621  27.045  22.766   2.495
63093W        W34622  40.979  34.972   4.070
63094W        W34623  25.187  44.037  12.525
63095W        W34624  30.770  42.440   1.679
63096W        W34625  26.691  18.356  14.388
63097W        W34626  16.625  13.763   3.914
63098W        W34627  38.961   8.739  11.569
63099W        W34628  34.134  25.053  11.132
63100W        W34629  41.340  30.327   3.233
63101W        W34630  42.645   0.969   4.750
63102W        W34631  14.101   3.236  11.110
63103W        W34632  38.854  18.291  14.348
63104W        W34633  24.159  35.372   0.723
63105W        W34634  13.202  30.351  11.907
63106W        W34635  13.838  23.978  13.938
63107W        W34636  33.073  33.929  12.625
63108W        W34637   6.311   4.758   0.475
63109W        W34638  10.387   0.438   0.189
63110W        W34639   7.782  20.976   4.236
63111W        W34640  42.520  31.456   0.996
63112W        W34641  22.979  38.658   4.930
63113W        W34642   8.319  39.571   3.358
63114W        W34643   3.221  26.201   2.769
63115W        W34644  24.134  34.433   0.486
63116W        W34645   2.676  39.393   2.404
63117W        W34646  25.539  32.866   1.413
63118W        W34647  42.934  17.613   4.488
63119W        W34648  20.560  16.205  14.792
63120W        W34649  11.681   9.080   3.181
63121W        W34650  20.285  18.260   1.748
63122W        W34651  27.239  21.585   3.194
63123W        W34652  35.094  25.754   1.856
63124W        W34653  43.043  39.514   1.300
63125W        W34654  20.753  11.824  12.463
63126W        W34655  10.341  44.639  13.969
63127W        W34656  18.800  21.734  10.165
63128W        W34657  26.975  44.016   1.643
63129W        W34658  12.929   9.856  13.329
63130W        W34659  41.804  38.148  13.461
63131W        W34660  18.597  27.625   3.622
63132W        W34661  27.063  32.382   1.818
63133W        W34662  29.555   7.414  11.662
63134W        W34663   6.049  34.391   2.728
63135W        W34664   8.919  33.796  12.853
63136W        W34665  28.417  37.423   3.344
63137W        W34666   3.604  39.260   1.077
63138W        W34667   7.545  15.594  13.815
63139W        W34668  31.329   6.000  10.881
63140W        W34669  43.126   3.835   1.980
63141W        W34670  31.191  38.476   3.719
63142W        W34671  13.730  24.064   1.356
63143W        W34672   6.071  37.763  14.332
63144W        W34673  41.404  44.287   4.022
63145W        W34674  25.143  38.736   2.443
63146W        W34675   3.377  36.949   4.858
63147W        W34676   1.384  15.175  12.119
63148W        W34677  29.441   0.331  11.164
63149W        W34678  29.019  39.864   3.130
63150W        W34679  25.653  30.138   1.743
63151W        W34680   8.952  11.661   4.765
63152W        W34681  20.085  32.215  11.115
63153W        W34682  40.533   0.795   2.594
63154W        W34683   3.291  17.941   2.395
63155W        W34684   8.641  33.490   4.846
63156W        W34685   9.391  27.324   0.820
63157W        W34686  14.268   9.800  12.567
63158W        W34687  29.159  22.036  11.921
63159W        W34688  28.323  13.193   3.739
63160W        W34689   1.863  43.775   4.857
63161W        W34690  32.926  33.324   4.622
63162W        W34691  35.438  31.611   2.806
63163W        W34692   8.161   6.552   1.496
63164W        W34693  31.293  12.471  14.430
63165W        W34694  28.697   9.132  12.172
63166W        W34695  24.582  12.332  11.653
63167W        W34696   0.854  21.248   3.181
63168W        W34697  36.420  36.861   4.576
63169W        W34698   3.547  33.987  13.528
63170W        W34699  43.226  33.148   0.732
63171W        W34700  39.336   4.959  14.035
63172W        W34701   5.008  35.816   2.806
63173W        W34702   3.134   7.185  11.183
63174W        W34703  11.292  42.916  11.972
63175W        W34704  34.587  33.124  14.237
63176W        W34705  31.238  39.398   1.840
63177W        W34706  15.118   3.534  12.101
63178W        W34707  16.141  34.821  11.550
63179W        W34708   0.794  30.435   1.875
63180W        W34709  27.966  42.484   0.845
63181W        W34710   3.755  31.437  14.443
63182W        W34711   4.909  21.830   3.345
63183W        W34712  39.053   3.732   0.042
63184W        W34713  26.711  43.101  11.197
63185W        W34714  25.953   4.331   0.429
63186W        W34715  42.858  35.406   3.152
63187W        W34716   5.019  14.356   2.818
63188W        W34717   1.340   7.464   2.230
63189W        W34718  14.629  34.754  14.781
63190W        W34719   3.981  23.100   3.778
63191W        W34720  28.546  16.497  14.031
63192W        W34721  23.631  10.840  14.391
63193W        W34722  14.243   2.085   4.279
63194W        W34723   8.135  18.658   2.928
63195W        W34724  11.582  20.529   4.299
63196W        W34725   7.902   1.693   4.653
63197W        W34726  25.747  16.717   2.819
63198W        W34727  40.842  37.349   3.784
63199W        W34728   1.848   6.182   3.618
63200W        W34729  29.789  28.559   4.989
63201W        W34730   8.247  37.453  10.749
63202W        W34731  43.927  38.456   1.264
63203W        W34732  36.083  17.801   3.586
63204W        W34733   5.451  42.325   0.329
63205W        W34734  33.493  18.206  11.162
63206W        W34735  44.948  29.915   3.186
63207W        W34736  11.697  39.432   4.920
63208W        W34737  39.405  35.849  11.070
63209W        W34738   6.918  35.568  14.781
63210W        W34739  16.191  27.927  11.914
63211W        W34740   5.466  42.367   3.722
63212W        W34741   7.205  14.152   2.229
63213W        W34742  25.124  36.175   2.467
63214W        W34743   0.884  13.071  13.976
63215W        W34744  11.246  35.679   3.547
63216W        W34745  34.198   9.719  14.165
63217W        W34746   1.446  41.079   4.239
63218W        W34747  21.229  32.337   4.808
63219W        W34748  36.678  23.904  13.125
63220W        W34749  31.674   8.401  13.920
63221W        W34750  43.936  14.571   3.813
63222W        W34751  43.774  15.090   3.825
63223W        W34752  24.575  22.528  13.957
63224W        W34753  41.021  24.740   1.312
63225W        W34754   6.311   0.846  13.545
63226W        W34755  17.718  16.160  14.340
63227W        W34756  42.014  36.799  14.880
63228W        W34757  39.905  25.126   0.763
63229W        W34758  15.416  36.324  14.872
63230W        W34759   8.838  44.239  13.545
63231W        W34760  40.054  25.459   3.337
63232W        W34761  33.223  33.085  12.386
63233W        W34762  21.517   5.698   4.654
63234W        W34763  42.149  12.762   1.789
63235W        W34764  28.673  30.245  11.663
63236W        W34765  12.132  11.127  12.316
63237W        W34766  17.948  16.575   1.025
63238W        W34767  29.385   9.888  13.839
63239W        W34768  39.990  37.863  12.313
63240W        W34769   6.703  21.662  10.923
63241W        W34770  42.444  10.838  14.934
63242W        W34771   8.421   6.641   2.911
63243W        W34772  27.167  35.640   2.642
63244W        W34773  27.238   8.821   3.410
63245W        W34774  13.230  23.581   0.866
63246W        W34775  13.253  33.185  14.912
63247W        W34776  25.483   6.139  11.881
63248W        W34777  10.640  13.293  12.796
63249W        W34778  25.714  33.074   2.289
63250W        W34779  11.649   4.360   1.292
63251W        W34780  18.337   7.374   3.365
63252W        W34781  37.825  12.716  14.774
63253W        W34782  32.830   5.171  12.923
63254W        W34783   2.315  28.000   4.078
63255W        W34784  16.759  19.510  13.851
63256W        W34785   1.704  13.956  14.746
63257W        W34786   3.457  41.405  11.391
63258W        W34787   8.819  43.349  11.559
63259W        W34788   4.055  32.762  10.868
63260W        W34789   3.981  40.305   4.231
63261W        W34790  44.744  33.683   4.151
63262W        W34791   2.435  12.656   3.625
63263W        W34792   9.177  19.527  11.477
63264W        W34793  25.542  18.457  14.994
63265W        W34794  37.885  34.909  13.019
63266W        W34795   1.238  31.881  12.995
63267W        W34796  28.491  28.642   2.446
63268W        W34797   0.791  35.543  12.897
63269W        W34798  14.473  17.493  11.666
63270W        W34799  15.119  32.090   2.301
63271W        W34800  33.401  24.705  12.232
63272W        W34801  12.204  25.557   0.011
63273W        W34802  31.071  44.991  14.523
63274W        W34803   4.307  37.371   1.807
63275W        W34804  32.410  31.159   3.859
63276W        W34805  42.733  33.049   0.677
63277W        W34806   5.957  34.837   2.204
63278W        W34807  15.328   6.449   2.855
63279W        W34808  44.544   4.955  14.057
63280W        W34809  22.101  23.103   4.752
63281W        W34810   7.344  25.907  10.804
63282W        W34811  37.280   2.419  12.105
63283W        W34812   9.615  11.261   0.782
63284W        W34813  33.012  11.331   4.725
63285W        W34814  10.312  25.533   2.246
63286W        W34815  21.714  30.473  13.380
63287W        W34816  38.989   8.211  11.587
63288W        W34817   6.979  29.996  14.039
63289W        W34818  39.115  18.997  13.370
63290W        W34819  18.275   2.704  10.609
63291W        W34820  30.391  28.549   0.782
63292W        W34821  18.300  29.581   2.966
63293W        W34822  42.705  15.057  14.224
63294W        W34823  30.457  36.099  14.239
63295W        W34824  15.334  18.883   0.239
63296W        W34825  23.636  40.026   2.249
63297W        W34826  17.799  36.998  12.797
63298W        W34827  19.631  32.173   1.670
63299W        W34828  16.232   8.045  12.050
63300W        W34829  35.724  13.066   3.957
63301W        W34830  11.431   3.740  10.656
63302W        W34831  19.587  44.257  12.440
63303W        W34832  35.723   9.612  14.431
63304W        W34833  26.213  20.159   4.640
63305W        W34834  19.548  13.364   1.547
63306W        W34835  17.033   1.706   3.338
63307W        W34836  15.529  30.712   3.763
63308W        W34837  40.755  18.528   2.672
63309W        W34838  26.108  30.389   1.715
63310W        W34839  41.394  34.012  13.336
63311W        W34840  37.856  34.379  12.262
63312W        W34841  33.819  28.356  10.784
63313W        W34842  18.803  28.072   2.920
63314W        W34843   8.417   1.885   2.203
63315W        W34844  19.132  33.288  12.589
63316W        W34845  18.031   1.724  12.552
63317W        W34846  41.779  34.140   1.143
63318W        W34847   4.064  37.905   0.794
63319W        W34848   6.905  36.143   2.815
63320W        W34849   3.303  14.826   4.591
63321W        W34850  34.626  25.683  12.577
63322W        W34851   3.990  25.277  13.816
63323W        W34852  17.300  37.179   3.662
63324W        W34853   3.859  42.431  11.392
63325W        W34854  44.689  15.638  10.504
63326W        W34855  30.800  38.499  12.600
63327W        W34856   7.739  11.139   0.827
63328W        W34857  35.938  24.399   4.841
63329W        W34858  20.453  20.623   3.259
63330W        W34859  10.747  21.401   4.940
63331W        W34860   3.037  19.082  14.321
63332W        W34861  41.451  22.076  11.273
63333W        W34862   9.018  11.369   1.389
63334W        W34863  18.864  36.995  13.697
63335W        W34864  27.293  19.046  13.728
63336W        W34865  28.441  20.153   4.780
63337W        W34866  17.478  11.288   2.190
63338W        W34867  38.191  29.656  11.977
63339W        W34868  12.213  33.943  10.631
63340W        W34869   8.674  30.628  11.674
63341W        W34870  13.193  22.497   1.965
63342W        W34871   3.309  11.415  13.256
63343W        W34872   9.285  44.746  12.464
63344W        W34873  40.566   7.143   3.068
63345W        W34874  21.035   8.486  10.724
63346W        W34875  25.983  39.389  13.018
63347W        W34876   6.444   5.390   4.228
63348W        W34877  30.136   2.090   0.187
63349W        W34878  28.016  14.590   3.318
63350W        W34879  24.250  18.153   1.540
63351W        W34880  20.668  15.819  13.831
63352W        W34881  34.455  14.348   1.314
63353W        W34882  37.648   7.180   0.866
63354W        W34883   7.757  29.153  12.459
63355W        W34884   1.150   0.388   4.659
63356W        W34885  38.777  22.836  11.302
63357W        W34886  44.367  20.826   4.085
63358W        W34887   4.276   4.696  10.292
63359W        W34888  26.173  25.967  13.033
63360W        W34889   3.763  25.684   3.246
63361W        W34890  17.185  32.650  13.609
63362W        W34891   5.607  33.554  12.873
63363W        W34892   7.297  23.020  11.845
63364W        W34893  44.270  19.975  14.504
63365W        W34894   9.232  19.827   4.508
63366W        W34895  44.232  40.164  11.554
63367W        W34896  39.939  42.938  11.120
63368W        W34897  21.811  20.288   3.226
63369W        W34898  37.359  38.306  14.000
63370W        W34899  36.499  29.371   0.866
63371W        W34900  25.855   0.463   3.078
63372W        W34901  27.668   8.332  11.483
63373W        W34902  22.328  44.474  12.443
63374W        W34903  14.047  43.677   2.918
63375W        W34904  13.563   5.133   0.882
63376W        W34905   9.884  22.425   4.176
63377W        W34906  18.127   4.409   3.796
63378W        W34907  30.084  41.919  13.047
63379W        W34908   1.347  20.095   4.569
63380W        W34909  22.603  32.142   4.289
63381W        W34910  32.101  11.147   2.902
63382W        W34911  30.334  43.487  14.999
63383W        W34912  27.124  21.494  13.020
63384W        W34913   0.304  35.745  12.994
63385W        W34914   2.432  22.644  12.111
63386W        W34915  37.533   9.489  13.043
63387W        W34916  26.042  23.366  13.706
63388W        W34917  38.559  20.753  12.022
63389W        W34918  26.578  36.630   1.274
63390W        W34919  17.817  39.398   2.614
63391W        W34920  36.017  35.299  12.254
63392W        W34921  39.503   9.227   2.414
63393W        W34922   3.337  40.386  14.865
63394W        W34923   6.652  37.923   2.566
63395W        W34924  37.392  42.455   4.056
63396W        W34925  13.855   4.781  14.675
63397W        W34926  10.489  18.294   3.713
63398W        W34927  10.908  26.616  12.644
63399W        W34928  32.071  40.806  12.078
63400W        W34929  24.707  12.671   2.619
63401W        W34930  42.485  11.191   3.722
63402W        W34931   7.226  31.462   1.195
63403W        W34932  41.465  20.631   1.394
63404W        W34933  30.862  40.471  11.209
63405W        W34934  44.455  10.204  12.939
63406W        W34935  16.258  26.070   1.503
63407W        W34936  34.966  31.181   1.383
63408W        W34937  18.664  40.041   4.272
63409W        W34938  37.384  16.717   4.428
63410W        W34939   5.617   9.871  14.870
63411W        W34940  26.690   8.251  11.473
63412W        W34941  27.110  24.826  13.580
63413W        W34942  22.589  36.447  11.352
63414W        W34943   0.857  17.029   4.268
63415W        W34944  38.578   0.935  10.885
63416W        W34945   4.893  35.617  14.384
63417W        W34946  12.162   3.887   2.164
63418W        W34947  27.710  19.831  13.435
63419W        W34948  20.986  29.956   3.781
63420W        W34949  34.830  18.262   3.668
63421W        W34950  36.393  27.959   1.770
63422W        W34951   7.638   9.343  13.338
63423W        W34952  37.119  26.717  10.845
63424W        W34953  32.982   3.263   2.013
63425W        W34954   3.037   6.264  14.833
63426W        W34955   8.112  25.772  11.256
63427W        W34956  25.558  20.483  14.936
63428W        W34957  33.886   5.306   3.088
63429W        W34958  32.086  26.890   2.776
63430W        W34959  34.515  29.238  11.610
63431W        W34960  26.934  39.011   1.738
63432W        W34961  33.936  28.552   2.439
63433W        W34962   9.000  22.973  13.108
63434W        W34963   0.890   6.950   3.622
63435W        W34964  14.264  12.414   1.795
63436W        W34965   4.920  15.336   0.609
63437W        W34966  42.041  18.736   2.750
63438W        W34967  43.226  15.652   4.137
63439W        W34968  32.199  39.604   0.407
63440W        W34969   9.872  44.853   3.580
63441W        W34970  39.793  28.187   0.024
63442W        W34971  17.169  30.984  14.883
63443W        W34972  41.851   7.281  11.617
63444W        W34973  21.087  27.378  11.958
63445W        W34974   4.406   4.201  10.928
63446W        W34975   5.739  27.725   4.109
63447W        W34976   6.503  27.736  12.549
63448W        W34977  42.701  26.387  12.919
63449W        W34978  26.210  32.429   0.878
63450W        W34979   8.295  38.922  13.843
63451W        W34980  37.467  35.865   0.389
63452W        W34981  12.604  38.768  11.800
63453W        W34982  35.165  16.714   2.279
63454W        W34983  26.533  41.566   0.434
63455W        W34984  15.280  34.110  14.394
63456W        W34985  41.220  32.385  10.762
63457W        W34986  29.061   7.963  14.413
63458W        W34987  37.120  12.405  14.908
63459W        W34988  17.447  36.803   2.282
63460W        W34989  33.438  22.585   5.004
63461W        W34990  29.959  30.460   2.258
63462W        W34991  14.731   3.229   2.840
63463W        W34992  15.807   0.309   2.732
63464W        W34993  39.817  26.121   3.165
63465W        W34994   4.474  42.327   3.734
63466W        W34995   2.978   8.735   2.614
63467W        W34996  11.465  32.707   3.307
63468W        W34997  35.416  24.865   2.718
63469W        W34998  22.426   2.376   0.977
63470W        W34999  10.777   3.433   1.415
63471W        W35000  15.965  35.039  13.786
63472W        W35001  27.817  28.575  10.535
63473W        W35002  43.030  32.813   3.351
63474W        W35003  20.964  43.507  14.354
63475W        W35004   7.403  38.408  11.613
63476W        W35005  16.367  44.550  12.052
63477W        W35006   2.742   0.078  11.179
63478W        W35007  19.661   4.784  10.777
63479W        W35008  44.468  44.760  14.015
63480W        W35009  11.638  14.670   2.192
63481W        W35010  25.082   0.465   2.736
63482W        W35011  30.087   8.938   3.807
63483W        W35012  34.060  44.876  12.154
63484W        W35013   2.767   3.243   4.961
63485W        W35014  28.246  41.059   4.288
63486W        W35015  12.393  41.860  13.169
63487W        W35016  17.331  35.016  11.996
63488W        W35017   9.361   6.595  14.248
63489W        W35018  43.418   2.740  13.099
63490W        W35019  33.063  15.575  12.041
63491W        W35020  42.891   4.697   5.068
63492W        W35021  31.680  16.255   3.791
63493W        W35022  28.508   2.929   0.468
63494W        W35023  37.006  21.031  12.470
63495W        W35024  36.378   9.382   4.052
63496W        W35025  30.209  31.703   1.862
63497W        W35026  25.235  32.961  14.638
63498W        W35027  43.250  10.174  12.509
63499W        W35028  14.780  31.203  14.973
63500W        W35029  31.162  16.544  13.175
63501W        W35030  27.761  39.593  11.611
63502W        W35031  26.651  19.248  11.244
63503W        W35032  38.411  27.978   1.922
63504W        W35033  43.423  18.980   3.673
63505W        W35034  22.237  30.472   2.356
63506W        W35035  10.887  34.539   1.970
63507W        W35036  15.332  43.882   4.097
63508W        W35037  15.138  17.175   2.841
63509W        W35038  42.553  10.148  10.597
63510W        W35039  36.849   3.425  14.462
63511W        W35040  20.567   4.333   4.342
63512W        W35041   7.834  25.091   5.048
63513W        W35042  30.341  44.602  13.113
63514W        W35043  31.647  13.268   1.425
63515W        W35044  30.914   5.380  14.531
63516W        W35045  41.021  16.386   1.004
63517W        W35046   2.320  32.592   3.614
63518W        W35047   4.200   7.490   2.309
63519W        W35048  39.504   6.348  13.518
63520W        W35049  31.094  31.398  14.082
63521W        W35050  20.439  31.029  11.882
63522W        W35051  23.041   0.250  12.190
63523W        W35052  41.881  21.293   1.769
63524W        W35053  26.080   5.512   0.393
63525W        W35054  14.270  27.380  11.231
63526W        W35055   8.688  41.730  14.284
63527W        W35056  31.567   3.772  14.432
63528W        W35057   1.134   2.019  11.288
63529W        W35058   0.389  42.176  12.217
63530W        W35059  34.928  29.263   1.938
63531W        W35060   5.302   1.787  12.290
63532W        W35061  28.593  44.504  11.727
63533W        W35062   7.929  38.569  12.481
63534W        W35063  26.158  31.612  14.430
63535W        W35064  21.094   3.926   3.821
63536W        W35065   8.412  42.335   4.128
63537W        W35066  31.001  23.314   0.882
63538W        W35067  19.278   6.034   4.166
63539W        W35068  31.624   7.232   3.240
63540W        W35069  35.559   3.584   0.257
63541W        W35070  11.882  25.972  14.451
63542W        W35071   6.410   1.787   3.668
63543W        W35072   7.623   0.769  14.484
63544W        W35073   1.298  26.142  12.917
63545W        W35074   5.806  40.789   4.088
63546W        W35075   2.130  22.482  10.556
63547W        W35076  32.303  19.564   0.174
63548W        W35077  13.793   3.669   1.675
63549W        W35078  43.813  37.466  12.544
63550W        W35079   5.315   2.901  10.210
63551W        W35080   9.157  42.908  12.110
63552W        W35081  13.256  37.380   0.698
63553W        W35082  37.555   1.301  14.844
63554W        W35083  14.814  28.678  12.878
63555W        W35084  34.024  16.390   4.720
63556W        W35085   3.595  38.679  12.086
63557W        W35086  34.401   6.919   4.542
63558W        W35087  31.824  44.673  12.524
63559W        W35088  26.196  38.564  14.452
63560W        W35089  27.067   7.000  14.451
63561W        W35090  20.673  27.075  11.616
63562W        W35091  19.231   0.279  12.992
63563W        W35092  34.573  26.030  11.740
63564W        W35093  37.860  28.439   2.796
63565W        W35094   4.227  16.847   4.211
63566W        W35095   3.904  44.628  13.133
63567W        W35096  23.713  30.017  14.102
63568W        W35097  20.961   8.442   0.672
63569W        W35098  44.785  38.884   1.625
63570W        W35099  13.719   1.142   1.815
63571W        W35100   0.502  39.066  11.445
63572W        W35101  38.033  40.042  11.311
63573W        W35102  10.303  35.864   2.776
63574W        W35103   5.577  42.896  12.700
63575W        W35104  19.836   4.302   1.647
63576W        W35105  10.754  23.365  11.088
63577W        W35106  24.647   3.865  14.835
63578W        W35107  34.481  25.178   2.449
63579W        W35108  26.294   7.541  13.213
63580W        W35109  31.142  35.807  12.968
63581W        W35110  28.751   6.644  14.824
63582W        W35111   0.402  31.627   3.352
63583W        W35112   9.417  14.249   0.927
63584W        W35113  20.951  23.799   0.426
63585W        W35114  26.290  33.604  11.125
63586W        W35115   3.211  25.530  11.658
63587W        W35116  12.337   6.468  12.567
63588W        W35117  11.625  23.484   4.478
63589W        W35118  36.030  18.272   4.506
63590W        W35119  12.565   4.425   0.789
63591W        W35120  36.225  13.178   0.428
63592W        W35121   8.938  31.082   1.323
63593W        W35122  25.999  25.197   1.005
63594W        W35123  21.738  16.632  12.525
63595W        W35124  31.478  25.514   3.553
63596W        W35125  33.456   1.136   1.280
63597W        W35126  31.365  43.007   2.259
63598W        W35127  16.474   2.420   0.467
63599W        W35128  13.397  29.154  12.457
63600W        W35129  24.475  12.664  14.889
63601W        W35130   4.962  39.511  10.727
63602W        W35131  36.342  32.942  12.810
63603W        W35132  32.331  11.263   4.765
63604W        W35133  19.361   4.561  11.740
63605W        W35134   4.286  27.326   2.687
63606W        W35135  25.670  31.049  13.393
63607W        W35136  21.764  31.030   3.833
63608W        W35137  30.880   2.987   3.285
63609W        W35138  22.657  16.842  13.468
63610W        W35139  25.412  18.769   1.754
63611W        W35140  16.197  27.128   3.791
63612W        W35141  34.146  15.226  14.309
63613W        W35142   8.515  15.685  12.987
63614W        W35143  22.746   6.407   0.387
63615W        W35144  40.415   0.989  12.393
63616W        W35145  37.635  13.284  11.085
63617W        W35146  31.064  40.176  11.674
63618W        W35147  39.197  25.107  12.616
63619W        W35148   6.731  18.243   2.480
63620W        W35149  44.721  40.030   4.305
63621W        W35150  15.606  35.440   2.631
63622W        W35151  15.053  39.034   3.776
63623W        W35152   4.933  39.597   2.554
63624W        W35153   4.001  25.675   3.720
63625W        W35154  37.821  37.498  14.825
63626W        W35155  16.422  29.873   2.344
63627W        W35156  28.659  20.608   2.550
63628W        W35157   7.395  36.814   4.058
63629W        W35158  30.588   3.199  13.579
63630W        W35159  31.270  44.454  13.483
63631W        W35160  10.255  23.218  10.662
63632W        W35161  29.957   0.751   2.294
63633W        W35162  15.218   4.787   9.836
63634W        W35163  44.248  41.923  13.934
63635W        W35164   9.466   8.799   2.331
63636W        W35165  39.466   9.086   1.908
63637W        W35166   7.362  30.619   2.205
63638W        W35167  17.726   3.328   2.756
63639W        W35168  37.589  35.420  11.458
63640W        W35169  35.217  42.412  11.684
63641W        W35170  26.591   4.352   4.790
63642W        W35171  10.312  40.872  13.060
63643W        W35172   7.162   2.454  14.040
63644W        W35173  24.595   9.916  11.725
63645W        W35174   6.798  16.663  12.635
63646W        W35175  18.788  23.959  10.690
63647W        W35176   1.219   3.346  13.449
63648W        W35177  22.116  17.622   1.407
63649W        W35178   3.651  34.569   3.473
63650W        W35179   3.275  39.977  10.718
63651W        W35180  15.523   1.939  10.232
63652W        W35181  30.083  24.059   2.636
63653W        W35182  21.255  32.996  14.395
63654W        W35183  22.188  34.491   2.710
63655W        W35184  29.183  20.922   1.851
63656W        W35185  43.838   7.709  12.841
63657W        W35186  26.014  17.500   3.483
63658W        W35187  31.240  33.829   1.809
63659W        W35188  30.056  22.639   2.751
63660W        W35189  30.904   7.560  14.203
63661W        W35190  18.057  29.007   1.328
63662W        W35191  37.683  34.504  13.280
63663W        W35192  21.587  37.591   3.367
63664W        W35193   3.700  17.060  11.931
63665W        W35194  29.569  26.462   1.932
63666W        W35195  35.126  18.192  11.569
63667W        W35196  13.812  15.360   1.309
63668W        W35197   1.718   9.170   4.628
63669W        W35198  18.964  33.695   0.487
63670W        W35199   6.316  27.527   0.236
63671W        W35200  44.019  13.182   5.126
63672W        W35201  25.666   5.378  12.861
63673W        W35202   1.292  21.562   3.231
63674W        W35203   5.210   7.139  12.098
63675W        W35204  18.477  14.665   3.659
63676W        W35205  25.233   0.315   2.225
63677W        W35206  20.917  12.333  10.665
63678W        W35207  42.273  32.834   0.795
63679W        W35208   3.879  28.127  11.948
63680W        W35209  37.916  14.659   3.699
63681W        W35210   8.672  25.260   1.470
63682W        W35211  18.068  37.342  14.455
63683W        W35212  14.513  29.153  14.948
63684W        W35213   8.116  40.864  11.470
63685W        W35214  16.577   3.690  14.832
63686W        W35215  24.126   5.207   3.543
63687W        W35216  15.306   9.797  11.658
63688W        W35217  40.804   3.795  13.985
63689W        W35218  38.954  15.252   1.487
63690W        W35219  13.455   8.485   4.401
63691W        W35220  31.504  28.875  12.118
63692W        W35221  16.074  43.461   3.617
63693W        W35222   9.749  40.722  11.063
63694W        W35223  43.396   9.374   5.059
63695W        W35224  34.904  15.179   4.228
63696W        W35225  31.161   5.462   2.420
63697W        W35226  34.493  10.687  12.025
63698W        W35227  10.086   3.767  11.455
63699W        W35228   6.144   1.393   2.798
63700W        W35229   1.771   1.533   0.142
63701W        W35230  13.780  11.168   3.733
63702W        W35231  44.054   0.466  12.701
63703W        W35232  40.180  32.016   3.035
63704W        W35233  37.579  26.404   2.376
63705W        W35234  13.707  24.021   3.434
63706W        W35235  41.579  36.424   0.441
63707W        W35236  43.445  36.147   0.311
63708W        W35237   8.109  42.011  13.419
63709W        W35238  15.723  20.249   0.688
63710W        W35239  35.250  39.241  12.324
63711W        W35240  36.414  13.914  14.366
63712W        W35241  13.631  10.253  11.951
63713W        W35242  36.032  41.983  14.446
63714W        W35243  34.068  10.243   0.486
63715W        W35244  30.186  10.722  12.402
63716W        W35245   3.549  44.333  13.868
63717W        W35246  22.063  32.564   2.181
63718W        W35247  20.939  26.682  10.553
63719W        W35248  28.511  19.007   4.047
63720W        W35249   2.683  15.484   1.916
63721W        W35250  22.477  20.630  12.547
63722W        W35251  27.985  35.513  13.055
63723W        W35252  19.304  27.814  13.375
63724W        W35253  32.836  22.562   3.254
63725W        W35254  31.557  12.812   4.634
63726W        W35255  22.898  24.039   2.892
63727W        W35256  25.795  23.714   2.681
63728W        W35257  33.134   2.893   3.784
63729W        W35258  26.946  35.134   3.437
63730W        W35259   4.401  39.479  10.690
63731W        W35260  23.471  16.684   0.359
63732W        W35261  40.672  21.893   4.125
63733W        W35262   2.359  10.695   1.717
63734W        W35263  36.316  26.621  11.663
63735W        W35264  18.954   2.568   4.465
63736W        W35265  21.991  10.633   2.315
63737W        W35266  42.562  43.120   4.095
63738W        W35267  38.643   4.837  10.880
63739W        W35268  31.152  43.323   1.487
63740W        W35269  25.604  25.861   2.986
63741W        W35270  31.073  19.303  13.337
63742W        W35271  28.206  35.562   3.779
63743W        W35272   5.694  38.464   1.375
63744W        W35273  12.170  32.651   1.762
63745W        W35274  12.052  37.937  14.503
63746W        W35275  23.511  16.188   4.028
63747W        W35276  36.829  28.605  11.647
63748W        W35277  30.996  23.189  12.986
63749W        W35278  28.575  24.872  13.869
63750W        W35279   7.739  32.166   4.120
63751W        W35280  14.856  30.087  10.191
63752W        W35281  21.077  18.515  13.031
63753W        W35282  38.883  22.551  10.568
63754W        W35283   8.448  15.147  12.376
63755W        W35284  32.348  23.303   3.219
63756W        W35285   2.948  39.509  12.141
63757W        W35286   3.469  17.841   4.084
63758W        W35287  41.068   8.448  12.696
63759W        W35288  10.094  26.141   2.722
63760W        W35289   1.378  13.556  13.444
63761W        W35290  24.132  39.644  10.907
63762W        W35291  37.516  44.916  13.475
63763W        W35292  41.271  18.261   3.702
63764W        W35293  28.191  15.183  14.972
63765W        W35294   3.375  36.412   3.626
63766W        W35295  12.131   5.647  12.975
63767W        W35296  17.145  27.863  11.007
63768W        W35297   7.939  25.405   4.575
63769W        W35298   4.199   9.396   1.803
63770W        W35299  23.461  31.035   4.785
63771W        W35300  16.896  19.378   1.355
63772W        W35301  31.601   6.230   2.955
63773W        W35302  10.027  23.455  13.051
63774W        W35303   1.297  41.170   1.328
63775W        W35304  42.980   2.756   4.371
63776W        W35305  28.603   9.740   3.143
63777W        W35306  17.430  24.311  10.200
63778W        W35307   4.293  40.002   1.000
63779W        W35308  22.573  18.777   3.371
63780W        W35309  31.198  43.178  10.852
63781W        W35310  31.070  15.501  14.297
63782W        W35311   3.454  34.163   3.196
63783W        W35312   5.332  36.124  13.819
63784W        W35313  25.451  20.579  13.022
63785W        W35314  10.566   6.077   1.376
63786W        W35315   6.224  22.232  14.878
63787W        W35316  36.310  26.231   1.211
63788W        W35317  39.299  41.665  11.141
63789W        W35318  15.469  13.261  13.348
63790W        W35319  19.410  27.217  13.952
63791W        W35320  43.569  40.297  10.780
63792W        W35321  28.707  31.876   5.364
63793W        W35322   8.305  35.998   3.319
63794W        W35323  42.002  18.802   1.239
63795W        W35324  29.200  14.855   0.451
63796W        W35325   2.894  42.686  12.039
63797W        W35326  36.828  26.628  11.639
63798W        W35327  38.653  26.749   0.519
63799W        W35328  35.643  10.172  12.532
63800W        W35329  19.143  32.664   0.982
63801W        W35330  18.983   1.541  10.489
63802W        W35331   9.070  31.413   0.462
63803W        W35332   5.173  41.219   2.255
63804W        W35333   3.091  20.038  10.760
63805W        W35334  20.190  11.857   3.773
63806W        W35335   4.813  19.418   2.340
63807W        W35336  14.050   0.744   0.891
63808W        W35337  18.958  26.308  13.298
63809W        W35338  30.639  44.154  11.512
63810W        W35339  14.035  34.104   2.661
63811W        W35340  33.841   4.343  14.722
63812W        W35341   7.789  42.452  13.365
63813W        W35342  25.150  31.062   0.284
63814W        W35343  34.421  13.301   1.275
63815W        W35344   1.729  22.112  12.032
63816W        W35345  28.226  22.106  13.209
63817W        W35346   2.888  42.003  14.353
63818W        W35347  34.097  42.224  14.049
63819W        W35348  30.857  14.624  12.638
63820W        W35349  33.797  33.549  10.246
63821W        W35350  43.511  35.985   2.633
63822W        W35351  41.066  36.904  11.283
63823W        W35352  28.927  26.389   0.232
63824W        W35353  19.620  18.755   1.955
63825W        W35354  32.420   8.117   3.570
63826W        W35355  15.236  37.964  12.457
63827W        W35356  38.216  37.791  14.998
63828W        W35357  11.411  34.554   1.999
63829W        W35358  12.806  31.757   5.163
63830W        W35359   3.306   0.936  14.201
63831W        W35360  24.380   1.888  10.879
63832W        W35361  11.869  25.468  14.570
63833W        W35362  41.602  44.227  11.530
63834W        W35363  12.780  31.238  13.944
63835W        W35364  39.460  16.101  12.563
63836W        W35365  12.244  12.078  10.790
63837W        W35366   5.132   2.484  14.876
63838W        W35367  25.499  30.727   4.574
63839W        W35368  15.688  13.334   4.096
63840W        W35369  21.951  10.926   1.663
63841W        W35370  40.425  33.605  14.750
63842W        W35371  32.466   5.647   0.898
63843W        W35372   3.853   4.922   3.114
63844W        W35373  35.860  11.859  11.970
63845W        W35374  39.278  15.020  14.303
63846W        W35375  18.992   7.409  10.769
63847W        W35376   7.272  30.976   1.033
63848W        W35377  13.741   1.243  12.008
63849W        W35378   7.778  11.484   2.498
63850W        W35379   3.509  13.651   1.300
63851W        W35380  32.464  10.701  14.096
63852W        W35381  29.436   7.410   1.795
63853W        W35382  34.641  44.936  11.106
63854W        W35383   7.837  29.702   2.444
63855W        W35384  27.764  34.964   3.525
63856W        W35385  30.912  15.271  13.468
63857W        W35386  35.893  44.959   3.579
63858W        W35387  29.148  36.923   2.762
63859W        W35388  43.604  31.861   0.181
63860W        W35389  22.749  23.204  14.975
63861W        W35390  44.760  14.708   2.499
63862W        W35391   9.789   0.730  14.540
63863W        W35392  17.592  19.215  10.608
63864W        W35393  42.463  35.053   2.381
63865W        W35394  17.928   6.452  10.787
63866W        W35395  29.634   4.230   3.778
63867W        W35396  36.511  32.130   4.503
63868W        W35397  38.763  36.464  14.280
63869W        W35398   5.621  37.374   3.924
63870W        W35399  20.286  21.608  14.368
63871W        W35400  33.007  40.524  14.666
63872W        W35401   0.074  35.220   1.897
63873W        W35402  36.956  10.904  13.645
63874W        W35403  37.406  25.582   0.366
63875W        W35404  13.115  18.768  12.984
63876W        W35405  22.812  41.442   4.661
63877W        W35406   7.010  32.709   1.223
63878W        W35407  40.529  11.724   5.100
63879W        W35408  31.380   5.147   1.250
63880W        W35409  20.943  37.251  12.965
63881W        W35410  34.609  10.434   1.899
63882W        W35411  33.799  40.283  13.309
63883W        W35412  43.259  23.614   1.485
63884W        W35413  42.588  28.457  11.729
63885W        W35414  36.119  28.998  12.970
63886W        W35415  38.853   6.700   3.699
63887W        W35416  30.950  38.468  14.238
63888W        W35417  31.936  37.792  13.379
63889W        W35418  23.479  33.262   2.960
63890W        W35419  22.440   7.876  12.559
63891W        W35420  34.192  30.625  12.014
63892W        W35421   3.809  15.689  10.755
63893W        W35422   6.582   5.103  14.750
63894W        W35423  28.081  24.770   1.402
63895W        W35424  28.740   5.257  12.082
63896W        W35425  10.203  14.194   1.427
63897W        W35426  15.311  36.697  13.038
63898W        W35427  37.506  39.075  12.019
63899W        W35428  42.009  41.223   3.931
63900W        W35429   6.166   9.890   0.291
63901W        W35430  31.572  32.421   1.374
63902W        W35431  32.470  27.768   3.596
63903W        W35432   1.378   5.684  12.140
63904W        W35433  36.039   7.333   1.711
63905W        W35434  43.358  16.076   1.957
63906W        W35435  13.790   9.051  12.503
63907W        W35436  22.475  27.034  14.009
63908W        W35437  24.418   2.476  13.457
63909W        W35438  26.577  21.441  12.987
63910W        W35439  38.309  29.856   3.235
63911W        W35440  15.051   9.664   3.808
63912W        W35441  16.243  23.397   2.643
63913W        W35442  40.517  24.502   1.305
63914W        W35443   1.316   4.154  13.132
63915W        W35444  38.640  22.266  11.483
63916W        W35445  22.653  19.132  10.181
63917W        W35446  37.665   2.540   2.635
63918W        W35447  41.632  35.373  12.467
63919W        W35448  17.527  33.427  12.173
63920W        W35449  16.279  13.436  11.104
63921W        W35450  17.637  13.113  13.518
63922W        W35451  24.671   7.240  13.310
63923W        W35452  43.056  31.533   2.273
63924W        W35453  32.015  13.781   0.873
63925W        W35454  21.643  21.571   2.719
63926W        W35455  26.489  22.617   2.550
63927W        W35456  10.819  20.063  12.090
63928W        W35457  41.224  14.434  13.787
63929W        W35458  13.751   8.123  10.197
63930W        W35459   5.331  39.871  10.726
63931W        W35460  33.882  29.014   2.708
63932W        W35461   5.235  13.662  10.775
63933W        W35462  31.925   7.382   0.246
63934W        W35463  30.175  16.815   4.338
63935W        W35464  40.739  34.639  13.093
63936W        W35465  11.029  39.137   3.787
63937W        W35466  27.973  24.746  14.156
63938W        W35467  35.180  22.297  11.545
63939W        W35468  16.138  37.132  11.986
63940W        W35469  10.578  25.027   4.989
63941W        W35470  37.064   3.743  12.140
63942W        W35471  40.478  23.194  11.646
63943W        W35472  24.003  19.298   4.796
63944W        W35473   4.143  29.128   0.948
63945W        W35474  21.829  15.619  12.434
63946W        W35475  22.730   2.256   1.357
63947W        W35476   2.887  11.169  14.502
63948W        W35477  21.749   8.226   3.505
63949W        W35478  21.903  13.128  14.047
63950W        W35479  13.785  36.690  14.646
63951W        W35480  17.697  14.396  12.565
63952W        W35481  32.312  19.436   3.553
63953W        W35482  25.961   8.876  14.979
63954W        W35483   9.636  36.589   4.160
63955W        W35484   3.761  32.702   4.193
63956W        W35485   2.924  29.125   1.639
63957W        W35486   8.140   9.632   2.657
63958W        W35487  13.399  40.052   0.889
63959W        W35488  28.985  18.178   3.716
63960W        W35489  29.994  21.643  13.055
63961W        W35490  25.638  35.094   1.330
63962W        W35491  28.810  27.954  13.574
63963W        W35492  34.147  11.511  11.167
63964W        W35493  27.521   8.384   4.665
63965W        W35494  29.432  26.039  14.431
63966W        W35495  44.837  29.997  13.576
63967W        W35496  15.835  28.659  13.971
63968W        W35497  33.786  40.276   0.798
63969W        W35498  17.377  22.970   4.445
63970W        W35499   9.331  13.112  12.839
63971W        W35500   4.100  13.737   4.577
63972W        W35501  12.248  20.015  12.289
63973W        W35502  10.615  16.234  13.912
63974W        W35503  35.600   5.637  12.752
63975W        W35504   3.603  20.009   0.948
63976W        W35505  14.224  15.988  10.729
63977W        W35506  24.259  34.247  10.731
63978W        W35507  16.820   8.753   3.526
63979W        W35508  28.530  29.444   3.062
63980W        W35509  12.513  20.734  12.566
63981W        W35510   2.592  22.541   2.692
63982W        W35511  31.482   1.544  12.466
63983W        W35512  34.909  10.296  13.992
63984W        W35513  27.435  14.814  14.971
63985W        W35514  12.440  33.355   1.126
63986W        W35515  15.102  41.003  11.178
63987W        W35516   4.971  23.018  13.345
63988W        W35517  40.419  16.384   1.884
63989W        W35518  30.007   1.356   0.537
63990W        W35519  27.049  27.990   1.711
63991W        W35520  38.038  27.506   2.581
63992W        W35521   8.696  38.107  13.062
63993W        W35522  38.971  14.098  14.931
63994W        W35523  26.679  19.640   3.290
63995W        W35524  26.396  30.589  10.430
63996W        W35525  15.223  39.309   0.299
63997W        W35526  21.888  13.553   0.840
63998W        W35527  28.244  18.434   4.957
63999W        W35528  33.615  21.800  12.844
64000W        W35529   3.487  44.420   2.143
64001W        W35530  26.885  12.917   2.726
64002W        W35531  10.821   8.635   0.924
64003W        W35532  14.750  35.911   0.313
64004W        W35533  14.311  39.362   4.321
64005W        W35534  13.066  19.401  10.497
64006W        W35535   4.840  27.916  11.180
64007W        W35536  29.032   8.751   0.758
64008W        W35537  26.216   4.462   0.871
64009W        W35538   1.758  35.479   1.189
64010W        W35539  29.806  26.705   0.530
64011W        W35540  19.681  20.076   0.894
64012W        W35541  43.908  23.725   4.120
64013W        W35542  43.838  44.598  11.855
64014W        W35543  17.099  34.178   2.741
64015W        W35544  17.187  36.149   3.449
64016W        W35545  26.014  16.133   3.248
64017W        W35546  21.783  36.807   4.078
64018W        W35547  40.799   9.926  11.567
64019W        W35548   1.275  27.084  10.273
64020W        W35549  22.740  13.826   3.735
64021W        W35550   2.009  29.501   1.930
64022W        W35551  21.099  38.336   2.608
64023W        W35552   9.197  44.794  14.355
64024W        W35553  42.456  34.535   0.448
64025W        W35554  43.808  17.271   2.156
64026W        W35555  31.437   2.716   0.408
64027W        W35556   7.316  25.916   4.150
64028W        W35557   7.657   4.924  13.949
64029W        W35558  16.184  20.763   2.593
64030W        W35559  37.354   0.583  11.717
64031W        W35560  30.630  19.211  13.596
64032W        W35561   4.153  10.896   4.209
64033W        W35562  39.265  41.879  14.067
64034W        W35563   3.472  17.108  13.921
64035W        W35564  27.081   3.322  12.517
64036W        W35565   8.655  26.411   2.298
64037W        W35566   8.365  19.843   2.876
64038W        W35567  26.945   2.945  11.586
64039W        W35568  24.683  23.933  11.454
64040W        W35569  42.731  44.778  11.303
64041W        W35570   3.971   0.404  14.847
64042W        W35571  37.494  26.845  14.871
64043W        W35572   7.463  16.218   2.235
64044W        W35573   3.384  35.068   4.123
64045W        W35574   2.958   9.596   2.328
64046W        W35575   8.236  35.195   1.975
64047W        W35576  10.932  44.395  10.514
64048W        W35577  27.023  14.688  13.091
64049W        W35578  38.067  29.600  11.460
64050W        W35579   2.254   9.129  14.399
64051W        W35580  42.536  22.845   4.484
64052W        W35581   4.847  17.933   2.281
64053W        W35582  27.396   3.006   1.855
64054W        W35583  22.211  33.387  13.181
64055W        W35584  24.286  30.725  10.195
64056W        W35585   6.659  42.335   4.793
64057W        W35586   7.271   1.358  12.040
64058W        W35587  35.853  20.567   1.469
64059W        W35588  41.885  13.306  14.078
64060W        W35589  33.397  19.624   1.910
64061W        W35590  32.665   0.779  10.607
64062W        W35591   7.434  25.115   2.640
64063W        W35592  20.624  37.984   4.563
64064W        W35593  16.607  10.219  11.645
64065W        W35594  22.684  30.806  10.565
64066W        W35595  36.152  43.814   0.712
64067W        W35596  35.082  28.853  12.170
64068W        W35597  38.533  44.190  11.017
64069W        W35598  23.257   2.272  11.440
64070W        W35599  29.342  28.934  12.118
64071W        W35600  32.011  39.390  13.652
64072W        W35601   6.936  35.262  11.901
64073W        W35602  24.807  43.325  14.417
64074W        W35603  23.676   8.568   4.456
64075W        W35604   4.960  16.246   1.054
64076W        W35605  42.249  23.723  13.647
64077W        W35606  42.732   9.302   2.362
64078W        W35607  21.641  30.966   4.333
64079W        W35608  41.780  24.587  13.371
64080W        W35609  28.165  22.011   1.165
64081W        W35610  26.133  29.469  13.328
64082W        W35611  42.486  21.573   0.977
64083W        W35612  43.031  17.233  12.094
64084W        W35613   1.586  27.879  14.945
64085W        W35614  38.144  23.051  13.813
64086W        W35615  33.935  42.773   2.875
64087W        W35616  14.109   1.250   0.950
64088W        W35617  15.264  44.028   2.450
64089W        W35618  35.162   5.411  12.552
64090W        W35619  27.036  21.492   2.325
64091W        W35620  36.021  21.779  11.768
64092W        W35621  24.678   4.169   4.545
64093W        W35622  23.708  13.373   3.475
64094W        W35623  17.996   5.016  12.552
64095W        W35624  22.293  39.098  13.446
64096W        W35625   9.300  11.699   4.282
64097W        W35626   3.325  39.298  12.485
64098W        W35627  29.516   1.061   2.298
64099W        W35628  43.102  20.260   2.229
64100W        W35629   4.334  37.320   4.786
64101W        W35630  24.014   2.715   0.010
64102W        W35631  40.364  34.916   4.973
64103W        W35632  35.554  36.151   1.943
64104W        W35633  27.988  16.073   3.817
64105W        W35634  40.130  16.169  10.928
64106W        W35635   8.363  40.854   4.084
64107W        W35636   5.470  34.011   4.656
64108W        W35637  28.061  35.496   2.105
64109W        W35638  24.999  44.236   0.359
64110W        W35639  16.815  44.426  12.830
64111W        W35640  18.663  21.477  10.772
64112W        W35641  28.599  30.571  14.633
64113W        W35642   1.226  42.382   4.871
64114W        W35643  42.292  12.672   3.133
64115W        W35644  31.462  19.056   3.987
64116W        W35645   0.761  14.413   4.168
64117W        W35646   0.491  44.695  11.253
64118W        W35647  11.156  10.845   2.143
64119W        W35648   5.875   6.594  12.498
64120W        W35649   1.929  26.555   0.392
64121W        W35650  30.024  10.922   3.275
64122W        W35651  32.207   1.227   3.814
64123W        W35652   9.400  39.912  11.716
64124W        W35653   7.862  35.527  12.849
64125W        W35654   3.817  32.611  13.630
64126W        W35655   3.463   1.922   3.565
64127W        W35656  29.328  22.270  11.505
64128W        W35657  31.533  24.420   5.428
64129W        W35658   8.905  21.717   4.081
64130W        W35659  11.090  41.952  11.985
64131W        W35660  44.484  21.073  12.272
64132W        W35661   5.962  40.089  12.365
64133W        W35662  39.698   9.762  14.766
64134W        W35663  26.054   2.123  12.940
64135W        W35664  26.210   4.879  12.501
64136W        W35665  34.628  23.928   2.363
64137W        W35666  39.737  36.322   1.772
64138W        W35667   9.289  14.052   4.914
64139W        W35668  22.700  31.381  13.358
64140W        W35669  12.215   0.093   2.350
64141W        W35670  28.058  10.257   1.291
64142W        W35671  23.686  38.799  12.322
64143W        W35672   4.256  16.707  11.518
64144W        W35673  27.527  24.648   4.877
64145W        W35674  21.676  41.067   0.206
64146W        W35675  15.726  31.117  14.513
64147W        W35676  43.510  24.192   3.321
64148W        W35677  37.316  13.315   1.322
64149W        W35678  31.692  28.943   2.347
64150W        W35679  10.281  43.757  10.573
64151W        W35680  39.958  26.428   3.544
64152W        W35681   3.294  19.018   4.615
64153W        W35682  41.497   4.754  12.015
64154W        W35683  36.270   0.288  12.416
64155W        W35684  25.386  38.311  11.721
64156W        W35685   6.758   3.276  12.954
64157W        W35686  16.817  38.134  12.576
64158W        W35687  38.295  43.266   0.446
64159W        W35688  20.640  30.682   2.869
64160W        W35689   1.003  31.067  10.472
64161W        W35690   2.360  18.090  14.219
64162W        W35691  43.214  44.425   1.758
64163W        W35692  34.861  29.573   1.227
64164W        W35693  28.334  21.404   1.828
64165W        W35694  35.109  43.561   3.460
64166W        W35695  14.190  27.494   0.901
64167W        W35696  43.417  14.252   4.509
64168W        W35697  40.981  25.106  11.121
64169W        W35698  18.972   3.444   5.065
64170W        W35699  31.572   4.662   2.374
64171W        W35700  15.288  16.342   4.315
64172W        W35701  35.331  23.275   1.849
64173W        W35702   9.840  28.189  14.278
64174W        W35703   4.346   5.007   2.949
64175W        W35704  37.028  27.605   1.275
64176W        W35705  17.532  25.943   4.438
64177W        W35706   7.236   4.751   9.851
64178W        W35707  23.036   8.497  12.516
64179W        W35708  23.705   6.337   4.213
64180W        W35709  18.131   8.211  14.314
64181W        W35710  27.693   1.737   5.086
64182W        W35711  20.766  36.484  14.414
64183W        W35712  27.442   6.175   4.377
64184W        W35713  40.588  31.943  12.801
64185W        W35714  26.555  42.200   2.682
64186W        W35715   7.287  36.821   0.323
64187W        W35716  41.603  37.619  14.885
64188W        W35717  40.995  30.428   0.197
64189W        W35718  16.612  24.791   1.952
64190W        W35719  33.175  29.127  12.459
64191W        W35720  14.248  13.054  11.970
64192W        W35721  22.747  10.441  13.583
64193W        W35722  43.488  18.091   3.724
64194W        W35723  26.064  30.358   0.855
64195W        W35724   3.332  14.081   0.455
64196W        W35725  29.919  32.471  12.488
64197W        W35726   2.698  38.943  13.041
64198W        W35727   2.118  36.618   3.262
64199W        W35728  25.778  31.871   2.793
64200W        W35729  44.074   5.667  11.855
64201W        W35730  40.753  26.221  13.048
64202W        W35731   1.366   1.269   4.773
64203W        W35732   8.674  24.059  14.939
64204W        W35733  32.396  38.931   2.652
64205W        W35734  27.797  25.191  12.871
64206W        W35735  23.497  43.198  14.782
64207W        W35736  20.247   4.637  13.980
64208W        W35737   7.164  39.982  14.905
64209W        W35738  41.025   3.392   3.682
64210W        W35739   7.785  32.524   3.379
64211W        W35740  44.375  16.209  14.957
64212W        W35741   9.950  14.540  10.983
64213W        W35742   9.663  19.432   1.049
64214W        W35743  24.017  29.964  14.990
64215W        W35744  26.150  13.247  12.529
64216W        W35745  29.269  25.119   4.553
64217W        W35746   8.533  27.659   0.854
64218W        W35747   3.724  37.433  13.800
64219W        W35748  39.495  28.723   3.233
64220W        W35749  16.594  39.899  12.082
64221W        W35750   4.804  25.663   2.445
64222W        W35751   9.362  17.670  12.362
64223W        W35752  33.906  24.065  12.894
64224W        W35753   1.265   7.990   2.249
64225W        W35754  30.633   4.738  11.162
64226W        W35755  15.074   9.186   4.020
64227W        W35756   5.843   5.129  11.588
64228W        W35757  30.842   6.580   5.000
64229W        W35758   8.276  13.965   3.807
64230W        W35759  23.988  44.730   2.306
64231W        W35760  11.741  34.587  13.935
64232W        W35761  44.837  35.978  12.101
64233W        W35762  19.092  41.860  12.082
64234W        W35763  44.506  17.810  11.337
64235W        W35764  30.500   0.554  14.879
64236W        W35765  38.054  16.781  13.690
64237W        W35766  20.732   5.732  10.996
64238W        W35767  35.213   8.002   3.735
64239W        W35768  27.034  36.623   0.420
64240W        W35769  40.030  36.090   2.742
64241W        W35770  12.117  22.749   4.244
64242W        W35771   4.167  24.986   0.610
64243W        W35772  43.655  24.044   0.736
64244W        W35773  15.060  24.553  13.808
64245W        W35774  22.939  10.301   2.437
64246W        W35775  14.062  11.424  13.382
64247W        W35776  42.138  20.452   4.214
64248W        W35777  14.822  15.730  10.686
64249W        W35778  14.555  15.835  11.103
64250W        W35779  10.187  29.948  13.337
64251W        W35780  17.171   5.243  10.998
64252W        W35781  41.564  29.573  11.998
64253W        W35782   9.455   3.391  12.086
64254W        W35783  30.499  43.219  10.783
64255W        W35784  19.606  27.338  11.208
64256W        W35785  12.814  36.658  14.586
64257W        W35786  13.089  28.977   4.874
64258W        W35787   8.348  43.587  14.041
64259W        W35788  25.094  41.331   1.278
64260W        W35789  17.829  36.074  13.033
64261W        W35790   1.026  17.620   3.226
64262W        W35791  25.072  20.327  14.345
64263W        W35792  28.307  12.145  10.707
64264W        W35793  23.116  27.014  13.081
64265W        W35794  33.418  21.132  13.321
64266W        W35795   3.501  41.433  12.019
64267W        W35796  41.361  44.253   1.181
64268W        W35797   6.733   4.201   3.647
64269W        W35798  15.311  44.302  10.730
64270W        W35799  11.555   9.049  13.889
64271W        W35800  13.098   4.381   4.079
64272W        W35801  36.100  37.518   0.329
64273W        W35802  42.910  23.727   0.250
64274W        W35803  34.945  39.339  11.479
64275W        W35804  17.320  19.488   0.535
64276W        W35805  39.078  27.143  11.554
64277W        W35806  29.094   2.434   3.631
64278W        W35807  26.986   0.745  11.642
64279W        W35808  11.615  28.000   4.083
64280W        W35809   1.991  22.043   4.280
64281W        W35810   9.232  20.998  13.811
64282W        W35811  28.176  18.663   3.797
64283W        W35812   1.271  27.596   0.812
64284W        W35813  39.073  22.657  14.440
64285W        W35814  44.949  13.999   4.033
64286W        W35815  18.474   4.353   4.190
64287W        W35816  19.583   1.088   1.630
64288W        W35817  35.958  40.960  14.342
64289W        W35818  31.768  15.767  10.751
64290W        W35819  12.238  18.109   4.320
64291W        W35820  19.849   3.318  13.039
64292W        W35821  43.794  37.498  13.859
64293W        W35822  20.637  17.574   4.497
64294W        W35823  24.279  33.436   2.386
64295W        W35824  33.142  43.409  14.023
64296W        W35825  44.968  42.893   0.826
64297W        W35826   9.265  19.995   2.806
64298W        W35827  11.838  13.206  14.839
64299W        W35828  25.538  14.261  13.124
64300W        W35829   8.417  32.075   2.873
64301W        W35830   4.667  26.820  11.971
64302W        W35831   8.162   4.709   1.279
64303W        W35832  41.912   0.651   1.730
64304W        W35833  43.973  25.941   0.711
64305W        W35834   7.683  29.508   2.905
64306W        W35835  26.436  20.025   1.737
64307W        W35836   6.943  28.783  11.253
64308W        W35837   4.430   3.315   2.081
64309W        W35838  22.592  43.605   2.458
64310W        W35839  22.540  36.485   1.698
64311W        W35840  37.472  38.153  10.441
64312W        W35841  11.433   7.566   5.053
64313W        W35842  24.925  15.807   1.554
64314W        W35843   9.263  39.733  12.728
64315W        W35844  42.872  41.761   1.265
64316W        W35845  31.411  44.017   2.819
64317W        W35846  38.937  41.562   4.638
64318W        W35847  12.107  12.266  12.968
64319W        W35848  10.946  14.392   0.822
64320W        W35849  23.649  22.298   4.373
64321W        W35850  18.662  25.740   3.383
64322W        W35851  38.782  40.986   3.994
64323W        W35852  19.296  26.404   2.530
64324W        W35853   6.165  10.721  13.526
64325W        W35854  13.466   3.012   3.714
64326W        W35855   0.376  27.491  10.819
64327W        W35856   3.674   7.648   2.349
64328W        W35857  22.314  15.697  12.546
64329W        W35858  26.691  25.949   1.920
64330W        W35859   3.813   9.988   2.371
64331W        W35860  15.682  38.039   1.868
64332W        W35861   0.016   1.281  14.513
64333W        W35862  27.516  38.281  12.633
64334W        W35863  17.616  34.934  12.440
64335W        W35864  25.468  37.380   0.589
64336W        W35865  27.865  15.827   1.224
64337W        W35866  24.613   9.412   1.881
64338W        W35867  43.562  13.587  14.090
64339W        W35868  44.232  23.492  11.193
64340W        W35869   0.865   0.238  14.922
64341W        W35870   3.783  24.336  12.406
64342W        W35871  32.039  34.589   3.136
64343W        W35872  19.821  10.649  14.833
64344W        W35873  11.213   3.701  14.898
64345W        W35874  41.223  38.618   3.805
64346W        W35875  30.189  24.544   1.369
64347W        W35876  31.044  27.661   2.448
64348W        W35877  23.724  11.206  11.065
64349W        W35878   5.772  33.974   2.629
64350W        W35879  38.922  43.280   1.276
64351W        W35880   2.979  32.148  11.495
64352W        W35881  38.550  26.192  11.621
64353W        W35882  17.754   2.936   0.361
64354W        W35883   4.508  33.498  14.832
64355W        W35884   0.980  28.500  11.551
64356W        W35885   2.309  40.984   3.597
64357W        W35886  19.131  16.476   1.719
64358W        W35887   1.735  29.038  11.221
64359W        W35888  19.846   3.595  13.943
64360W        W35889   5.555  34.929  14.013
64361W        W35890  24.504  43.147   3.077
64362W        W35891  15.979  39.124   4.636
64363W        W35892   0.785  20.407  10.696
64364W        W35893  32.032  31.115   4.668
64365W        W35894  44.402  13.957  14.952
64366W        W35895   3.671   7.778  13.564
64367W        W35896  14.204   3.794  10.983
64368W        W35897  26.935  39.132  13.855
64369W        W35898  38.521  16.478  11.601
64370W        W35899   5.207  44.434  10.768
64371W        W35900  32.136  43.773  10.963
64372W        W35901  42.527  23.463   0.479
64373W        W35902   0.384  23.725   1.810
64374W        W35903  28.456   6.438   1.925
64375W        W35904  21.309  18.269   4.733
64376W        W35905   5.690   7.208  14.518
64377W        W35906  33.556  23.421  11.215
64378W        W35907  10.315  28.986   0.516
64379W        W35908  39.110  43.954  11.159
64380W        W35909  12.138   1.936  10.552
64381W        W35910  41.009  26.106   0.832
64382W        W35911  17.463  32.016   1.378
64383W        W35912   2.794  26.523   1.708
64384W        W35913   3.849  28.906   2.038
64385W        W35914  16.326   3.301   4.049
64386W        W35915  37.857  35.295  11.925
64387W        W35916  30.080  22.201  13.335
64388W        W35917  38.812  22.197  14.447
64389W        W35918   4.328   0.879  10.400
64390W        W35919  43.448   2.944  13.574
64391W        W35920  39.924   7.581   2.648
64392W        W35921  22.315  16.126  10.626
64393W        W35922  30.562  28.002  14.215
64394W        W35923  16.733   8.685   1.213
64395W        W35924  26.123  23.086   3.888
64396W        W35925  19.784  25.661   0.658
64397W        W35926  12.593  11.642  14.261
64398W        W35927   9.726  42.304  12.932
64399W        W35928  33.858  39.610  11.881
64400W        W35929  12.783  30.176   0.458
64401W        W35930  35.543  28.758  13.094
64402W        W35931   6.703  19.191  14.454
64403W        W35932   5.424  29.741   4.713
64404W        W35933  26.090  31.395  13.427
64405W        W35934  30.984  33.740   1.379
64406W        W35935  16.370  44.441   2.703
64407W        W35936  19.062  14.095   1.736
64408W        W35937  19.868   8.481  11.507
64409W        W35938  41.479  35.408   2.207
64410W        W35939   2.121  11.375   4.608
64411W        W35940   5.223  18.286   1.710
64412W        W35941   4.920  32.690   2.801
64413W        W35942  17.721  35.425  12.315
64414W        W35943   5.397  17.688   4.161
64415W        W35944  20.675  12.251   4.417
64416W        W35945   0.932  44.214   0.826
64417W        W35946  39.776  13.601  10.753
64418W        W35947   1.057  43.478  10.875
64419W        W35948  12.125   2.348   3.383
64420W        W35949  42.368  38.617   1.307
64421W        W35950  33.387  19.781  13.327
64422W        W35951   0.548  11.820   1.843
64423W        W35952  13.178  20.651   3.105
64424W        W35953  23.853  39.478   5.560
64425W        W35954  26.983  36.516   5.031
64426W        W35955  36.096  28.939   2.094
64427W        W35956   0.858  15.223  12.153
64428W        W35957   3.817  34.131  14.893
64429W        W35958  18.591   7.078  13.460
64430W        W35959  40.860  23.556  13.528
64431W        W35960  40.504  36.296   2.903
64432W        W35961  40.875  17.464   0.308
64433W        W35962  42.453  14.629  13.970
64434W        W35963   8.882  44.817  11.195
64435W        W35964  23.056  17.829   1.902
64436W        W35965  32.017  43.911  11.825
64437W        W35966   7.508  38.336   1.667
64438W        W35967   3.847  29.553   0.789
64439W        W35968  30.212  18.019  12.390
64440W        W35969  36.527  40.547   1.220
64441W        W35970  29.100  14.696  14.028
64442W        W35971   0.130  19.440   4.921
64443W        W35972  20.574  22.453   4.726
64444W        W35973   9.216   6.093  14.189
64445W        W35974  36.027  21.401  12.108
64446W        W35975  26.145  25.836   2.400
64447W        W35976  24.230  40.533  10.705
64448W        W35977  37.321  25.542  14.452
64449W        W35978  19.754  17.794  12.041
64450W        W35979  22.734  32.061   1.671
64451W        W35980  31.714   8.787  12.437
64452W        W35981  43.946  25.569  13.918
64453W        W35982  27.942  34.902   1.670
64454W        W35983  27.523   2.547   4.584
64455W        W35984  29.719  43.291  14.429
64456W        W35985  36.441  15.749  10.802
64457W        W35986  20.051  17.996   1.273
64458W        W35987  18.011   3.677  10.712
64459W        W35988  30.443   5.623   2.967
64460W        W35989   2.937   4.903  14.463
64461W        W35990   6.858  12.457   3.188
64462W        W35991  36.073  11.634   1.319
64463W        W35992   7.347   6.759   2.862
64464W        W35993  35.850   6.783  11.075
64465W        W35994   5.056  37.880   0.792
64466W        W35995  29.393   6.323   4.087
64467W        W35996   8.431  28.714  14.308
64468W        W35997  27.226  27.767   0.909
64469W        W35998  25.433   9.928  13.693
64470W        W35999   0.437  14.102   3.936
64471W        W36000  34.073  39.187  11.091
64472W        W36001  19.563  11.804   1.327
64473W        W36002  21.996  24.454   0.282
64474W        W36003  18.781  36.118  12.701
64475W        W36004  39.482  41.434  11.571
64476W        W36005  27.230  32.065   4.542
64477W        W36006  24.136  28.854   3.202
64478W        W36007  12.725  43.569  11.679
64479W        W36008  39.135  34.635  12.433
64480W        W36009  35.345  22.071   1.417
64481W        W36010  37.386  12.922  11.379
64482W        W36011  39.503  35.994   2.732
64483W        W36012  19.996  38.815  10.836
64484W        W36013  40.410  35.488  12.896
64485W        W36014  39.896  10.118   0.672
64486W        W36015  39.481  38.467   1.699
64487W        W36016  42.083  10.558  13.524
64488W        W36017  42.988   6.452   2.374
64489W        W36018  26.042  41.043  14.309
64490W        W36019   8.432   6.795   2.306
64491W        W36020  38.821  43.976  12.855
64492W        W36021  20.526  39.466  13.353
64493W        W36022  32.163  17.736   4.297
64494W        W36023  41.454   9.449   2.397
64495W        W36024  29.937  34.368   1.011
64496W        W36025   0.384  13.845   4.701
64497W        W36026  17.719  13.188  14.019
64498W        W36027  30.967  35.131   1.262
64499W        W36028  36.813  11.565  11.649
64500W        W36029   0.735  23.058  14.986
64501W        W36030  37.250   6.631   3.120
64502W        W36031  12.848   4.788  13.889
64503W        W36032  12.815  11.192  14.378
64504W        W36033   8.687   1.923   4.361
64505W        W36034  40.566  44.807  10.735
64506W        W36035  23.132   9.886   4.792
64507W        W36036  35.568  21.608   1.267
64508W        W36037  29.589   5.477   4.755
64509W        W36038  20.132  36.184   1.403
64510W        W36039  40.348  18.549   3.655
64511W        W36040  43.858  19.680   2.530
64512W        W36041  21.607   4.974  14.817
64513W        W36042   2.822  28.097  10.355
64514W        W36043  38.849  19.834  10.170
64515W        W36044  37.443  43.548  11.564
64516W        W36045  42.041  41.775  14.341
64517W        W36046  12.251  19.954  10.701
64518W        W36047   6.559  24.698  10.552
64519W        W36048  37.570  20.009  12.085
64520W        W36049  18.882  29.940   0.923
64521W        W36050  43.233  26.217  14.055
64522W        W36051  28.569  21.097   2.249
64523W        W36052  10.629  39.704  13.954
64524W        W36053   4.178   8.905  12.505
64525W        W36054  38.888  26.321   3.341
64526W        W36055   3.841  44.351  10.774
64527W        W36056  19.281  15.059   3.613
64528W        W36057   2.668  16.799  11.690
64529W        W36058   1.444  39.672   2.767
64530W        W36059  27.627  12.304   4.468
64531W        W36060   1.826  17.456   2.800
64532W        W36061  16.719   4.967  14.473
64533W        W36062  19.118  32.591  14.897
64534W        W36063  11.295  14.308   0.373
64535W        W36064   9.472  42.844  14.036
64536W        W36065  37.078   6.839  13.389
64537W        W36066  12.910  14.029  11.577
64538W        W36067  33.611  19.506   4.152
64539W        W36068  37.358  30.369  13.115
64540W        W36069  40.546   9.348  10.661
64541W        W36070   4.549  43.825  14.557
64542W        W36071  24.149   9.719  13.292
64543W        W36072   0.177  41.261  12.039
64544W        W36073  13.656  23.158   1.355
64545W        W36074  16.646  37.788   0.001
64546W        W36075  40.059  11.222   4.059
64547W        W36076  34.873  36.257  10.495
64548W        W36077   8.331  26.053  14.946
64549W        W36078  35.828  34.115   2.205
64550W        W36079  21.692  30.773  11.643
64551W        W36080  37.932   8.385   0.994
64552W        W36081  42.028  42.541   1.733
64553W        W36082   6.101  25.174   2.399
64554W        W36083  14.510  25.167  14.489
64555W        W36084  22.356  20.264   4.041
64556W        W36085   2.531  18.801  12.046
64557W        W36086  42.161   7.473  11.233
64558W        W36087  33.551   2.187  12.812
64559W        W36088  41.312   8.168   4.491
64560W        W36089  26.353  21.766   4.884
64561W        W36090  40.976  28.735  13.445
64562W        W36091   5.291  42.036  14.317
64563W        W36092  19.222  18.814  11.047
64564W        W36093  38.772  41.466   2.117
64565W        W36094  42.835  42.938  11.106
64566W        W36095   3.319  37.585   3.295
64567W        W36096  21.748  33.020   2.751
64568W        W36097   1.736  38.366   0.365
64569W        W36098  17.865  23.183  11.172
64570W        W36099  11.366  25.010   3.454
64571W        W36100  28.116   0.583   3.759
64572W        W36101  40.778  34.010   0.328
64573W        W36102  18.186  25.293  10.720
64574W        W36103   6.815  20.653   2.328
64575W        W36104  26.670  15.346  13.571
64576W        W36105  13.371  22.083   2.271
64577W        W36106   9.278   5.809   0.684
64578W        W36107  43.672   9.172  12.538
64579W        W36108   4.695  19.243   4.107
64580W        W36109  20.175  42.865  11.618
64581W        W36110   3.793   6.603  12.833
64582W        W36111  34.976  14.821  11.908
64583W        W36112   1.028   3.282   4.239
64584W        W36113  40.231  24.068   3.171
64585W        W36114  30.570  23.480   4.567
64586W        W36115   6.414  27.572  11.112
64587W        W36116   4.955   4.355   1.671
64588W        W36117   5.403  11.121   2.851
64589W        W36118  32.403  38.932  11.050
64590W        W36119  32.321  24.720   3.155
64591W        W36120   8.676  18.064   0.260
64592W        W36121  33.931  21.014  12.023
64593W        W36122   5.267   3.401   1.772
64594W        W36123  37.292  27.191   2.919
64595W        W36124  12.582  14.289  13.667
64596W        W36125  30.848  12.218  11.044
64597W        W36126  32.391  13.794  11.039
64598W        W36127  15.231  36.205  13.204
64599W        W36128   5.304  43.588   4.134
64600W        W36129  39.439  42.513  11.668
64601W        W36130  12.569  13.360  11.699
64602W        W36131  13.139  34.186  11.540
64603W        W36132  19.972   4.431  14.382
64604W        W36133  16.701  27.207   4.531
64605W        W36134  37.137  26.951   2.028
64606W        W36135  28.966  22.655  11.674
64607W        W36136  38.464  22.716   4.278
64608W        W36137  28.599  24.063  11.583
64609W        W36138  10.557  32.444   0.518
64610W        W36139  18.172  43.923  14.313
64611W        W36140   4.768  25.494   3.326
64612W        W36141  17.070  11.351  13.329
64613W        W36142  10.307  31.789  12.858
64614W        W36143  34.195  33.242  14.568
64615W        W36144  38.935  15.636  11.995
64616W        W36145   8.792  43.052   4.497
64617W        W36146   5.033   3.935  13.911
64618W        W36147  43.869  22.647  13.448
64619W        W36148   5.296  42.525   1.804
64620W        W36149  43.450  30.827   0.811
64621W        W36150  17.261  21.829   3.676
64622W        W36151  27.437  15.203   3.663
64623W        W36152   4.507  26.101   2.046
64624W        W36153  14.371  34.051   1.749
64625W        W36154  26.490  10.154  13.490
64626W        W36155   5.229   3.613  14.265
64627W        W36156  33.926  43.735   2.630
64628W        W36157   8.634  19.728  14.824
64629W        W36158  28.096  31.399   1.840
64630W        W36159  23.386  25.906   1.239
64631W        W36160  37.863  11.389   0.972
64632W        W36161  39.833  38.404  11.082
64633W        W36162  44.886  28.297   3.599
64634W        W36163  41.823  36.344   1.764
64635W        W36164   3.040   6.700   0.186
64636W        W36165  35.972  26.898   2.693
64637W        W36166   3.357  13.198   3.427
64638W        W36167  30.258  24.118  10.176
64639W        W36168   7.481   0.862   2.867
64640W        W36169  36.702  32.504   4.826
64641W        W36170   3.335  44.677  13.500
64642W        W36171  44.123  33.351   1.935
64643W        W36172   7.722   8.978   1.224
64644W        W36173   3.045  27.148  10.792
64645W        W36174  32.695  37.825  13.026
64646W        W36175   9.876  38.914   4.706
64647W        W36176  42.949  17.058  13.853
64648W        W36177  15.758  42.753  14.373
64649W        W36178  23.608   4.802   0.792
64650W        W36179  41.399   3.114   0.489
64651W        W36180  27.427  40.274   2.835
64652W        W36181   6.423  15.559   4.135
64653W        W36182  27.234  35.293  12.513
64654W        W36183  27.537   0.283  11.070
64655W        W36184  18.741  27.961   1.958
64656W        W36185   5.415  17.407   4.611
64657W        W36186  31.037  14.369   4.073
64658W        W36187  10.823  28.295  13.430
64659W        W36188  43.435  39.925   1.149
64660W        W36189  31.074  24.699   1.144
64661W        W36190   3.255  35.854   2.325
64662W        W36191  31.435  44.164  14.471
64663W        W36192  26.471  41.485   0.951
64664W        W36193  38.458  36.958   0.146
64665W        W36194  39.492  39.129  12.447
64666W        W36195   8.290  44.425   1.722
64667W        W36196  15.651  37.532  13.440
64668W        W36197  36.165  37.781   1.972
64669W        W36198  41.670   1.911   2.826
64670W        W36199  41.872  38.752   1.095
64671W        W36200  10.253   8.066  11.805
64672W        W36201  22.098   4.849  11.546
64673W        W36202  15.144  20.384   0.445
64674W        W36203  37.143   8.881  12.937
64675W        W36204   1.443  33.271  13.480
64676W        W36205  33.562  22.010  10.618
64677W        W36206  39.963  26.137   0.258
64678W        W36207   7.654  12.235   1.906
64679W        W36208  14.194  25.518  13.756
64680W        W36209  43.362  27.049  13.527
64681W        W36210  27.040   5.528  12.828
64682W        W36211  43.044  20.916  11.963
64683W        W36212   1.131  18.199   4.849
64684W        W36213  34.967   3.864  14.296
64685W        W36214  16.765  35.544  11.561
64686W        W36215   3.984   7.815   4.572
64687W        W36216  21.142  27.114  10.376
64688W        W36217  17.571  31.239   0.896
64689W        W36218  34.936   9.709   4.792
64690W        W36219  37.518  28.087   2.598
64691W        W36220  14.789  36.865  10.899
64692W        W36221  21.086   5.734  14.367
64693W        W36222  32.061  33.593  13.740
64694W        W36223  36.710   6.691   4.609
64695W        W36224   2.787  41.780  11.698
64696W        W36225  18.850  40.510  11.390
64697W        W36226  15.903  21.707  11.471
64698W        W36227  39.835  27.996   4.194
64699W        W36228  14.970  13.586  12.417
64700W        W36229  23.160  26.249   4.356
64701W        W36230  21.092   7.486  13.491
64702W        W36231   1.568  29.413   2.705
64703W        W36232  44.295  30.299  11.092
64704W        W36233  26.604  44.976  11.215
64705W        W36234  16.958  33.492   5.035
64706W        W36235  16.793   5.262  10.623
64707W        W36236  33.813   9.442  13.938
64708W        W36237  17.044  26.422   3.151
64709W        W36238  27.551   4.476  11.170
64710W        W36239   5.454  20.522   0.866
64711W        W36240  37.954   8.669   0.561
64712W        W36241  41.795   3.438  10.595
64713W        W36242  12.107   2.373   2.847
64714W        W36243   7.721  35.036  14.402
64715W        W36244  23.764  27.702   1.385
64716W        W36245   5.759   4.281  10.620
64717W        W36246  44.545   9.741   0.344
64718W        W36247   1.412  40.917   4.740
64719W        W36248   6.776  22.480  14.677
64720W        W36249  16.973   7.634  13.714
64721W        W36250  44.911  33.205  13.940
64722W        W36251  43.030  25.951  14.986
64723W        W36252  44.202  24.014  11.135
64724W        W36253   4.837  12.870   0.802
64725W        W36254  39.731  27.782  12.855
64726W        W36255  22.590  36.798  13.479
64727W        W36256  43.738  12.733  13.028
64728W        W36257  36.130  15.960  11.923
64729W        W36258  44.773  12.934   0.457
64730W        W36259   9.725  21.247   3.563
64731W        W36260   2.940  40.505   2.178
64732W        W36261  40.331  40.245  13.084
64733W        W36262  29.388  18.154  13.585
64734W        W36263  13.537  35.525   1.946
64735W        W36264  26.000  35.798  11.457
64736W        W36265  41.367  33.928   1.350
64737W        W36266   5.381  11.739  13.769
64738W        W36267  22.034   0.493   4.188
64739W        W36268  21.710  32.668  13.055
64740W        W36269   6.750  38.826  13.855
64741W        W36270  43.019  44.965   0.487
64742W        W36271  23.527  30.122  12.100
64743W        W36272  21.228  20.393  13.328
64744W        W36273   7.703   7.760  13.809
64745W        W36274  17.803   6.104  14.392
64746W        W36275   9.151   9.444  12.550
64747W        W36276  12.626  41.444  14.932
64748W        W36277  37.383  21.130  14.093
64749W        W36278   5.407   2.425   3.089
64750W        W36279  22.391  44.837   1.127
64751W        W36280  41.351  17.260   3.371
64752W        W36281  37.722   0.186   3.697
64753W        W36282  19.019  24.255   2.735
64754W        W36283  23.511  22.271  13.535
64755W        W36284   2.870  31.928  10.260
64756W        W36285  11.560  21.521  13.850
64757W        W36286  23.599  19.322  11.063
64758W        W36287   6.185  12.763   0.874
64759W        W36288  23.632  44.851   4.404
64760W        W36289  36.942  25.685  10.652
64761W        W36290  31.545  20.308   0.441
64762W        W36291   5.084  24.050   2.420
64763W        W36292   9.721  21.988   2.607
64764W        W36293  34.402  29.244  10.717
64765W        W36294  32.823  29.235  13.270
64766W        W36295  36.517  34.671  11.662
64767W        W36296  36.772  41.244   0.833
64768W        W36297  21.188  22.107  11.180
64769W        W36298  25.453  34.308  12.913
64770W        W36299  39.588   5.775  14.351
64771W        W36300  40.791  25.140  11.605
64772W        W36301   9.120   9.580  14.939
64773W        W36302  38.784  31.333   3.764
64774W        W36303  40.198   8.556   9.907
64775W        W36304  11.137   7.895  11.704
64776W        W36305  23.072  10.253   2.949
64777W        W36306   4.916  29.119   0.375
64778W        W36307  41.532  43.802   0.720
64779W        W36308  37.963  27.082   1.727
64780W        W36309  41.945  14.412  14.460
64781W        W36310  40.453  12.472  12.527
64782W        W36311  42.789  23.841  13.691
64783W        W36312  31.694  24.347   4.540
64784W        W36313  13.640   6.312  10.815
64785W        W36314  14.883  39.047  10.591
64786W        W36315   7.375   1.783  13.276
64787W        W36316  31.946  39.250   4.493
64788W        W36317  13.019  40.779   4.595
64789W        W36318  23.232  13.089   2.773
64790W        W36319   3.938  17.010   1.626
64791W        W36320  44.277  25.062  12.214
64792W        W36321  22.158  12.556   4.789
64793W        W36322  44.678   3.051   1.918
64794W        W36323   9.420   8.442   4.241
64795W        W36324   6.937   9.743  14.046
64796W        W36325   0.663  33.857  13.704
64797W        W36326  25.819  15.644  13.938
64798W        W36327  24.743  28.608   4.153
64799W        W36328  20.833  23.580  14.431
64800W        W36329   9.630  42.012  11.667
64801W        W36330  10.884  26.831  13.488
64802W        W36331  36.852  34.392  14.280
64803W        W36332  26.950  26.023  13.427
64804W        W36333  17.891  41.941  11.549
64805W        W36334  22.083  21.412   1.082
64806W        W36335  28.920  35.381  14.663
64807W        W36336  17.563  39.112  14.271
64808W        W36337  22.936  34.467   2.181
64809W        W36338  42.801   9.517  12.059
64810W        W36339  41.751   1.299   0.315
64811W        W36340  33.314   5.290  12.942
64812W        W36341  12.677   4.036   3.137
64813W        W36342  26.410  40.818   4.040
64814W        W36343   3.997  30.788  13.024
64815W        W36344  15.031   1.902  13.828
64816W        W36345   7.135  30.926   3.329
64817W        W36346  29.076  33.960  10.275
64818W        W36347  31.850  35.977  14.003
64819W        W36348  25.568  31.455  12.518
64820W        W36349   3.415  16.060  10.771
64821W        W36350   5.304   0.404   4.592
64822W        W36351  12.821  11.223  11.665
64823W        W36352  23.845  10.178  10.292
64824W        W36353  31.726  18.234  12.420
64825W        W36354  36.476  23.407   1.704
64826W        W36355  16.724   8.593   2.547
64827W        W36356   7.131  36.075  13.303
64828W        W36357   3.471  27.507   3.180
64829W        W36358   3.371  38.359   1.245
64830W        W36359  21.798  42.490   2.852
64831W        W36360  20.961   7.207  12.592
64832W        W36361  18.285  10.567   2.898
64833W        W36362  37.028   7.742   0.369
64834W        W36363  13.479  26.357   1.957
64835W        W36364  36.258  24.689  12.613
64836W        W36365  21.055  39.733   1.458
64837W        W36366  33.729   5.890  12.221
64838W        W36367  23.906   2.531  13.465
64839W        W36368  23.042  18.509   3.065
64840W        W36369  33.817  28.509  13.033
64841W        W36370  20.000  19.164  10.531
64842W        W36371  26.149   5.410  11.960
64843W        W36372  42.476  32.831  11.974
64844W        W36373  11.156  16.067  13.144
64845W        W36374  10.862  16.481   4.627
64846W        W36375  17.721   0.277  12.533
64847W        W36376  27.425   0.492  11.518
64848W        W36377  15.255  22.508   2.879
64849W        W36378  13.224  27.031   0.465
64850W        W36379  21.998  41.861  13.933
64851W        W36380  30.152  30.806   2.743
64852W        W36381  40.351  40.898   3.114
64853W        W36382  15.639   2.031   0.919
64854W        W36383  12.230  41.910   0.259
64855W        W36384   5.809  20.552  11.793
64856W        W36385  28.615  43.251  12.631
64857W        W36386   2.426  21.876   1.858
64858W        W36387  27.945  13.013   0.924
64859W        W36388  24.765  30.616  13.084
64860W        W36389  40.824   0.052   2.861
64861W        W36390  10.293  28.989  11.219
64862W        W36391  25.646  41.988   0.171
64863W        W36392   1.060  26.632  11.522
64864W        W36393  21.673  39.018   0.959
64865W        W36394   4.751   6.713  14.850
64866W        W36395   3.741   2.534  14.890
64867W        W36396   8.899  32.250   0.032
64868W        W36397  44.838  30.458   2.302
64869W        W36398  19.159  20.012  12.048
64870W        W36399  14.243  30.214   1.735
64871W        W36400  38.318   8.251   1.351
64872W        W36401  40.642  22.246   0.941
64873W        W36402  40.971  13.610   1.273
64874W        W36403  18.737  15.846   0.429
64875W        W36404  32.654  38.618   4.599
64876W        W36405  17.730  17.642   3.264
64877W        W36406  28.564   3.991  13.130
64878W        W36407  20.528  19.145  10.719
64879W        W36408  40.608   7.388  11.990
64880W        W36409  13.045   8.165  13.735
64881W        W36410  11.837  41.348  12.079
64882W        W36411   3.567  38.794   2.000
64883W        W36412  40.242   4.887   5.055
64884W        W36413  11.206  17.281   4.414
64885W        W36414  20.554  13.815   2.554
64886W        W36415  24.949  23.758   0.366
64887W        W36416  28.706  24.384   0.192
64888W        W36417  11.134  44.002  11.140
64889W        W36418  43.028   1.140   1.227
64890W        W36419  38.019  20.569   2.279
64891W        W36420  18.026  22.467   0.313
64892W        W36421   4.609   0.667  11.905
64893W        W36422  25.935  24.981  13.099
64894W        W36423  33.895  10.694   0.724
64895W        W36424   1.196  28.108   4.265
64896W        W36425   4.161  32.039   0.932
64897W        W36426   6.200  33.919   2.921
64898W        W36427  18.244   1.407  13.735
64899W        W36428   4.518  14.211   0.428
64900W        W36429  16.722  23.409   0.938
64901W        W36430  26.195  25.164  10.677
64902W        W36431  18.838  42.558  13.926
64903W        W36432   6.463  13.218   0.900
64904W        W36433  33.922  19.548   1.833
64905W        W36434  44.954   2.034  12.657
64906W        W36435   2.840  20.199   3.634
64907W        W36436  28.274  40.991   4.854
64908W        W36437  24.606  41.338   0.548
64909W        W36438   9.714  37.559   4.996
64910W        W36439  27.489  28.171  14.880
64911W        W36440  23.596  34.351  14.602
64912W        W36441   9.573  43.883   2.649
64913W        W36442  28.907   7.715   2.990
64914W        W36443  25.028  39.262  10.696
64915W        W36444  35.307   8.770   0.684
64916W        W36445  41.733  33.969  11.561
64917W        W36446   2.948  20.702  13.039
64918W        W36447  35.171  27.956  11.753
64919W        W36448   8.488  11.515  12.232
64920W        W36449  30.697   2.732   4.539
64921W        W36450  33.565   9.296   1.169
64922W        W36451  30.457  44.836   0.864
64923W        W36452  21.081  23.209  14.123
64924W        W36453   2.327   2.869  11.324
64925W        W36454  15.806   7.184   3.272
64926W        W36455   0.878  13.232   3.131
64927W        W36456  39.864  39.319   2.662
64928W        W36457  26.109  21.626   1.455
64929W        W36458  34.482   8.329   0.043
64930W        W36459  34.294  43.514   2.327
64931W        W36460  42.802  40.503   1.140
64932W        W36461   3.060  21.234   3.757
64933W        W36462  12.604  23.073   2.926
64934W        W36463   2.273  31.885   4.879
64935W        W36464  13.251   1.580  12.641
64936W        W36465   6.104  26.824  11.735
64937W        W36466   6.174  17.463   3.696
64938W        W36467  34.026   4.852  13.087
64939W        W36468  24.138  35.383   1.718
64940W        W36469  26.654  25.030   0.374
64941W        W36470  10.520  21.475  14.745
64942W        W36471  34.127  20.541  12.073
64943W        W36472   3.834  14.640   0.878
64944W        W36473  29.736  19.613  14.558
64945W        W36474  18.094  38.937   0.495
64946W        W36475  39.094  12.332   2.254
64947W        W36476  36.320  14.215  10.747
64948W        W36477  35.393  12.731   3.728
64949W        W36478   0.103  43.558   2.737
64950W        W36479  34.865  34.230  14.751
64951W        W36480  38.251  39.842  14.032
64952W        W36481  33.452  43.312  10.313
64953W        W36482  37.595  34.006  13.371
64954W        W36483  18.244  19.927   3.104
64955W        W36484  14.181  42.982  10.578
64956W        W36485  35.562  15.879  12.896
64957W        W36486  43.989  36.174   0.248
64958W        W36487  27.061  28.510   2.340
64959W        W36488  27.995  15.070  13.117
64960W        W36489  11.964  32.826  12.789
64961W        W36490   2.766  29.480  14.585
64962W        W36491  25.203  14.550  13.436
64963W        W36492   1.847  42.533   4.090
64964W        W36493  15.101   6.986   2.110
64965W        W36494  19.816  34.824  11.431
64966W        W36495  20.815  19.703  10.692
64967W        W36496  43.044  25.234  10.608
64968W        W36497  33.944  16.191   0.430
64969W        W36498  12.670  39.001   3.410
64970W        W36499  21.018  24.529  10.655
64971W        W36500  27.420  13.301   0.989
64972W        W36501  25.373  10.804  13.974
64973W        W36502  29.115  30.651   4.358
64974W        W36503  12.707  22.687   1.744
64975W        W36504  16.357   7.907   2.398
64976W        W36505  34.990  12.699  10.618
64977W        W36506  11.009   6.286   0.058
64978W        W36507  38.491   4.395   1.663
64979W        W36508  34.370  31.587  12.952
64980W        W36509  33.271  40.380   2.917
64981W        W36510  30.882  38.388   3.292
64982W        W36511  27.731   4.788  12.454
64983W        W36512  25.465  44.213  12.128
64984W        W36513   9.257   7.917  12.361
64985W        W36514   6.458  18.098  11.129
64986W        W36515   6.090   7.491  11.653
64987W        W36516  42.876  20.007   1.836
64988W        W36517  10.512  33.934  11.562
64989W        W36518  31.325  22.638  10.584
64990W        W36519  19.504   8.609  11.161
64991W        W36520   5.258  43.085   4.124
64992W        W36521  24.096  32.915   0.480
64993W        W36522  39.335   8.904  14.094
64994W        W36523  26.788  25.491   0.159
64995W        W36524   3.211  16.739  12.567
64996W        W36525  34.051  41.168   0.732
64997W        W36526  19.516   6.485   4.183
64998W        W36527  10.592  20.993  10.172
64999W        W36528   1.750  13.894   3.304
65000W        W36529  14.332  41.400  12.955
65001W        W36530  21.591  22.535   3.633
65002W        W36531  36.422   9.768   0.894
65003W        W36532   5.917  37.594   0.869
65004W        W36533   9.240  33.496  14.545
65005W        W36534   6.711   5.597  14.805
65006W        W36535   6.734  14.834  12.924
65007W        W36536  32.349  13.222  10.907
65008W        W36537   0.087  10.548   2.900
65009W        W36538  31.909   4.787   4.690
65010W        W36539   9.170   9.415  13.955
65011W        W36540  33.439   7.778  12.619
65012W        W36541   3.219   3.924   1.905
65013W        W36542  17.723  31.293  14.311
65014W        W36543  36.510  44.830   2.706
65015W        W36544  14.196   7.829   3.676
65016W        W36545  39.142   9.247  10.458
65017W        W36546  38.582  21.854  14.893
65018W        W36547  33.919  14.351   3.796
65019W        W36548  44.937  13.146   0.917
65020W        W36549  33.610  39.759  13.524
65021W        W36550  43.863  44.331   4.339
65022W        W36551   6.210  29.416  10.698
65023W        W36552  40.290  31.110   3.181
65024W        W36553   9.819   3.344   1.292
65025W        W36554  20.621  26.972  14.097
65026W        W36555   9.771  31.329   3.107
65027W        W36556   0.950  29.402  11.368
65028W        W36557   5.679  15.699   1.674
65029W        W36558  25.439   2.807   0.075
65030W        W36559  38.813  15.092  13.223
65031W        W36560   6.136   1.391   2.282
65032W        W36561  19.213   9.756  12.880
65033W        W36562  28.569  28.795  11.111
65034W        W36563  43.712   2.102  10.908
65035W        W36564  38.899  17.750  10.790
65036W        W36565   5.440   7.497   1.853
65037W        W36566  29.753   2.361  10.704
65038W        W36567   4.747   4.340   4.612
65039W        W36568   6.399  32.245  12.586
65040W        W36569  33.569  24.654  10.426
65041W        W36570  15.213   3.317  12.566
65042W        W36571   6.368  11.453  10.757
65043W        W36572  19.928  38.985   2.323
65044W        W36573  43.345  17.826   4.168
65045W        W36574  14.313  41.009  11.666
65046W        W36575  31.684  25.319  14.004
65047W        W36576  40.887   6.955   3.650
65048W        W36577  21.202  30.082   3.323
65049W        W36578   9.765   6.914   2.931
65050W        W36579  32.899  11.176  11.492
65051W        W36580   2.374  15.341  12.824
65052W        W36581   4.439  35.023   4.141
65053W        W36582  27.246  22.421   1.293
65054W        W36583  34.946  22.737   3.917
65055W        W36584   1.398  14.707  10.752
65056W        W36585  42.543   5.955  12.017
65057W        W36586  33.545  41.306   2.131
65058W        W36587   1.366  25.486  10.633
65059W        W36588  24.595  13.272   3.237
65060W        W36589  14.716  27.491   1.478
65061W        W36590   4.945   3.117   4.657
65062W        W36591  35.296  26.359  12.414
65063W        W36592  31.870   0.551   3.202
65064W        W36593   1.791  10.065  14.836
65065W        W36594   4.225  21.953   0.012
65066W        W36595   6.425  38.878   1.725
65067W        W36596  29.809  12.143   1.355
65068W        W36597  19.562  29.935   2.764
65069W        W36598  18.597  22.128   2.451
65070W        W36599  24.122  21.350  11.066
65071W        W36600  25.654  36.325  14.882
65072W        W36601  19.283  17.254   0.323
65073W        W36602  13.570  22.935  13.919
65074W        W36603  22.035  18.319   0.898
65075W        W36604  42.722  24.215  14.450
65076W        W36605  39.956  15.299   4.927
65077W        W36606  24.206  37.500  14.345
65078W        W36607  33.786  29.218  13.521
65079W        W36608  28.841  14.545   3.644
65080W        W36609  10.074  36.633   0.309
65081W        W36610  15.720  29.522  11.604
65082W        W36611  25.453  39.146   0.601
65083W        W36612  43.013  38.029   4.130
65084W        W36613  19.097  25.039   3.718
65085W        W36614  21.930  24.951  14.007
65086W        W36615  27.418  12.756   2.760
65087W        W36616   6.381  35.703  11.240
65088W        W36617   4.197  44.835   2.022
65089W        W36618  24.139   3.557   2.750
65090W        W36619  29.711  32.468  12.004
65091W        W36620  37.495  36.989  14.329
65092W        W36621  30.010  20.966   4.155
65093W        W36622  44.520  10.146   3.997
65094W        W36623  35.953  30.637   2.981
65095W        W36624  37.939  39.027   4.388
65096W        W36625  16.363  33.367   0.441
65097W        W36626  14.299   5.978  13.329
65098W        W36627  34.148  10.586   2.694
65099W        W36628  13.294  39.955  13.967
65100W        W36629  35.581  44.430   1.960
65101W        W36630  28.541  11.190   0.359
65102W        W36631  38.824   3.153   2.595
65103W        W36632  24.676   1.537   1.940
65104W        W36633  36.999  22.229   0.541
65105W        W36634  15.696  20.696   2.447
65106W        W36635  20.763   0.170  12.850
65107W        W36636   6.251  44.838   3.750
65108W        W36637  17.848  34.596   2.327
65109W        W36638  26.361  20.155  11.406
65110W        W36639   6.448  28.532   4.136
65111W        W36640   4.704  44.808  12.103
65112W        W36641  31.590  20.498  12.239
65113W        W36642  29.343   7.766  12.836
65114W        W36643  21.594   7.751  14.984
65115W        W36644  36.275   2.945  13.082
65116W        W36645   9.609  40.915   2.388
65117W        W36646   6.616   5.191   0.679
65118W        W36647  23.659   6.376   0.273
65119W        W36648  24.133   0.880   2.830
65120W        W36649  28.730   2.403  12.354
65121W        W36650  32.530  33.282  12.081
65122W        W36651  23.005  40.393   1.723
65123W        W36652  10.254  37.926  14.042
65124W        W36653   9.801  23.327  11.922
65125W        W36654  23.240  15.353  12.353
65126W        W36655  41.766  35.074  14.360
65127W        W36656  12.787  12.321  13.483
65128W        W36657  25.178   8.952  12.966
65129W        W36658   1.275  20.175   2.576
65130W        W36659   5.378   2.212  14.508
65131W        W36660   8.710  21.011  13.884
65132W        W36661  11.646  14.512   3.537
65133W        W36662  37.917   1.935   1.754
65134W        W36663   6.199  35.053   1.766
65135W        W36664   8.962   8.746   2.440
65136W        W36665  23.365  30.477   2.529
65137W        W36666  22.016  16.995   2.443
65138W        W36667   7.546  32.911   1.915
65139W        W36668  40.471  23.405  14.757
65140W        W36669   6.773   9.926  12.991
65141W        W36670  16.623  30.408   3.208
65142W        W36671  33.441  22.860  13.443
65143W        W36672  27.046  34.495  12.870
65144W        W36673  13.821  36.852  11.870
65145W        W36674  32.735  15.126  12.059
65146W        W36675  19.732   5.814   4.054
65147W        W36676   8.950  26.227  11.994
65148W        W36677  39.014  25.573  14.319
65149W        W36678   2.707  25.074   2.367
65150W        W36679  39.730   0.815   1.272
65151W        W36680   3.575  27.657   3.658
65152W        W36681  24.649  14.279   3.195
65153W        W36682  23.526   2.167   3.314
65154W        W36683  26.975   3.354   3.183
65155W        W36684  12.342  29.240   2.724
65156W        W36685  44.984  43.367  12.035
65157W        W36686   3.232   9.662   0.079
65158W        W36687   2.247  23.178  11.426
65159W        W36688  41.573   4.802  10.554
65160W        W36689   0.232   4.676   1.683
65161W        W36690   9.884  36.321   1.312
65162W        W36691  18.333  16.891   5.216
65163W        W36692  37.933   7.821  12.511
65164W        W36693  25.555  37.465   2.260
65165W        W36694  28.907   8.893  10.577
65166W        W36695  22.497   8.261  10.448
65167W        W36696  20.622  12.896  14.458
65168W        W36697   4.965  42.381   3.617
65169W        W36698  12.088  40.332  12.581
65170W        W36699  35.085  27.132   2.159
65171W        W36700  33.194  11.638  14.864
65172W        W36701  28.968   3.454  10.577
65173W        W36702  19.807  12.971   0.437
65174W        W36703  15.094   8.849  13.273
65175W        W36704   9.413  25.310   0.869
65176W        W36705  19.121  30.570   2.164
65177W        W36706   4.688  25.661   0.649
65178W        W36707  28.660  25.445   3.626
65179W        W36708   8.899   6.801   0.028
65180W        W36709  18.361  33.298  13.870
65181W        W36710  43.061   6.343   0.362
65182W        W36711  38.942   6.690   0.334
65183W        W36712  12.824  42.029   2.244
65184W        W36713  24.775   0.499  10.455
65185W        W36714  34.618  28.063   0.245
65186W        W36715  29.569   1.664  11.201
65187W        W36716  35.619  32.375  13.390
65188W        W36717  10.817  28.302   4.097
65189W        W36718  26.217  37.011  14.961
65190W        W36719  15.375  18.278  14.900
65191W        W36720  26.477   1.756  12.977
65192W        W36721  16.298  14.647   0.770
65193W        W36722   1.908  19.984  14.296
65194W        W36723   6.452  21.219  11.896
65195W        W36724  44.827  25.486   3.171
65196W        W36725  34.116  26.164   3.334
65197W        W36726  20.511  19.515   2.244
65198W        W36727  32.925  34.504  11.414
65199W        W36728  20.211   9.623  11.864
65200W        W36729  26.703   9.166  14.539
65201W        W36730   9.774  21.532  13.370
65202W        W36731  28.177  23.578   1.244
65203W        W36732  17.691  29.259  11.096
65204W        W36733  28.660  35.715   0.951
65205W        W36734   3.479   2.206   1.442
65206W        W36735  42.923  38.201   0.430
65207W        W36736  43.353  36.786   1.542
65208W        W36737   0.659  19.245  11.899
65209W        W36738  16.257   6.952  13.946
65210W        W36739  19.797   2.872  12.265
65211W        W36740  15.767  36.470   3.116
65212W        W36741  17.781  39.946  14.233
65213W        W36742  16.239   0.059  11.995
65214W        W36743   9.772  35.106  14.855
65215W        W36744  15.511   3.297   2.172
65216W        W36745  13.671  14.673   4.795
65217W        W36746  15.762  12.786  11.600
65218W        W36747  26.920   1.886  10.963
65219W        W36748  31.136  28.147   4.203
65220W        W36749  21.465  16.206  12.439
65221W        W36750   0.418  38.467  13.716
65222W        W36751  24.772   2.046   1.868
65223W        W36752  15.192  23.414  13.230
65224W        W36753  42.779  14.174  12.019
65225W        W36754  43.809   1.973   0.962
65226W        W36755   0.360  20.773   3.204
65227W        W36756  36.221  19.097  12.005
65228W        W36757  40.987  19.824  12.319
65229W        W36758  24.260  18.934   5.061
65230W        W36759  43.347  39.043  13.432
65231W        W36760  37.887  17.463  13.337
65232W        W36761  22.532  17.735   3.766
65233W        W36762  15.254  18.090   0.742
65234W        W36763  37.357  40.424  13.904
65235W        W36764  39.450   7.401   2.763
65236W        W36765  39.005   3.349  14.371
65237W        W36766   0.864  26.470   1.647
65238W        W36767  33.549  14.163  13.592
65239W        W36768  42.058  15.338   0.241
65240W        W36769  10.412  40.451   4.514
65241W        W36770  31.865  18.626  13.583
65242W        W36771  37.568  13.645  12.011
65243W        W36772  41.848  41.245   2.797
65244W        W36773  28.155  12.172  12.972
65245W        W36774  27.174  12.755   3.891
65246W        W36775  17.338  10.870   3.090
65247W        W36776   5.203  28.665   0.258
65248W        W36777  11.719  14.591   0.422
65249W        W36778  29.548  25.704   0.820
65250W        W36779  41.829   7.646   0.795
65251W        W36780  22.097   2.861  13.780
65252W        W36781  18.572  43.350  13.508
65253W        W36782  24.956  36.855  11.526
65254W        W36783  23.704  39.071   2.821
65255W        W36784  34.649  26.283   0.666
65256W        W36785  43.323  18.117  13.491
65257W        W36786  24.722  18.332  11.682
65258W        W36787   2.128  11.580  14.029
65259W        W36788  18.497   8.960  12.097
65260W        W36789  15.241  17.985  12.209
65261W        W36790  14.701  12.448  10.226
65262W        W36791   3.192   0.297   2.666
65263W        W36792  36.592  24.461  10.624
65264W        W36793  38.290  16.608   4.585
65265W        W36794  40.533  24.635  14.552
65266W        W36795  14.916  44.433  14.473
65267W        W36796  15.591  32.903   3.314
65268W        W36797  18.520  30.405   1.771
65269W        W36798  39.051  35.670  13.785
65270W        W36799  44.369   7.126   3.594
65271W        W36800  31.077  13.112  11.425
65272W        W36801  44.887  11.351   3.891
65273W        W36802   3.314   3.303  11.401
65274W        W36803  31.621  18.139  10.952
65275W        W36804  17.841  44.473   0.391
65276W        W36805  29.954  13.013  14.404
65277W        W36806  12.396  35.390  14.396
65278W        W36807   2.441  34.461  11.492
65279W        W36808  35.317  39.156  12.843
65280W        W36809  41.129  30.513   1.839
65281W        W36810   0.422  29.053   2.581
65282W        W36811  33.944   5.029  12.056
65283W        W36812   1.665   5.981  12.859
65284W        W36813  12.317   7.621   1.469
65285W        W36814  26.973   3.139   2.724
65286W        W36815  12.999  25.115  14.481
65287W        W36816  10.392  17.207  11.042
65288W        W36817  36.607  30.087  14.243
65289W        W36818  36.558  35.553  11.472
65290W        W36819  33.794   8.158   3.681
65291W        W36820  12.692  23.514  11.159
65292W        W36821  30.657   0.385  10.713
65293W        W36822  30.583   1.916   3.718
65294W        W36823  30.106  33.578  12.977
65295W        W36824  39.371  19.399  14.962
65296W        W36825  44.223   6.882  12.994
65297W        W36826  32.925  13.738  13.985
65298W        W36827  31.042  12.829   0.484
65299W        W36828  42.071  34.546   1.242
65300W        W36829  14.074   9.218   2.217
65301W        W36830  42.993  41.012  11.994
65302W        W36831  35.599  22.857   1.664
65303W        W36832   6.233   8.442  12.593
65304W        W36833   3.846   7.292  13.366
65305W        W36834  32.963  15.285   0.821
65306W        W36835  37.463  23.639  13.617
65307W        W36836   0.928  26.979   1.816
65308W        W36837  15.300  30.592  11.373
65309W        W36838   1.316   6.774   0.933
65310W        W36839  11.768  10.755  13.069
65311W        W36840  11.688   8.622   4.686
65312W        W36841  26.982  34.947   0.156
65313W        W36842  43.817  27.978  13.047
65314W        W36843  30.216   7.665   2.252
65315W        W36844  12.253  21.604  14.289
65316W        W36845  28.179  41.924  11.736
65317W        W36846   0.750   0.060   4.001
65318W        W36847  42.867  42.065   3.234
65319W        W36848  41.244   2.497  14.782
65320W        W36849  36.957  23.037  13.478
65321W        W36850   7.429   0.550   1.724
65322W        W36851   0.472   5.914   4.165
65323W        W36852   3.802  10.794  11.659
65324W        W36853  33.736   1.176  11.222
65325W        W36854  40.338  36.599  14.579
65326W        W36855  27.450   4.847   2.731
65327W        W36856  20.524   5.376  10.418
65328W        W36857  33.840  19.700  13.615
65329W        W36858   1.065  24.159   4.545
65330W        W36859  26.694   0.195  12.165
65331W        W36860  33.590  29.147  11.700
65332W        W36861  30.382  19.605  13.842
65333W        W36862  12.598   8.593   3.268
65334W        W36863  35.806  21.787   2.197
65335W        W36864  22.766  21.142   0.066
65336W        W36865   1.324  13.563   3.108
65337W        W36866  35.130  39.140   0.351
65338W        W36867   1.539   1.270  11.200
65339W        W36868  32.163  27.198   0.913
65340W        W36869  16.704   9.651   1.581
65341W        W36870  26.925  28.964   1.707
65342W        W36871  38.845   3.407  11.965
65343W        W36872  11.807  35.407  10.581
65344W        W36873  27.783  38.121  12.045
65345W        W36874   3.324  18.726  11.604
65346W        W36875  39.359  28.595  12.975
65347W        W36876  27.720  16.593   0.855
65348W        W36877   2.735  43.405  11.160
65349W        W36878  29.847   7.213  13.374
65350W        W36879  19.948  26.276   3.602
65351W        W36880  43.367  35.913   2.135
65352W        W36881  14.944  31.611   1.395
65353W        W36882  43.474  34.894   3.757
65354W        W36883  28.381  12.891  14.569
65355W        W36884  39.287  32.014   3.643
65356W        W36885  19.154  21.180  14.916
65357W        W36886   2.424   2.270   0.527
65358W        W36887  10.668  13.802  14.922
65359W        W36888   5.780  16.901  10.711
65360W        W36889   3.733  11.783   4.194
65361W        W36890  40.907  16.548   1.853
65362W        W36891  15.090  23.462  10.535
65363W        W36892  21.299  35.129  10.524
65364W        W36893  34.730  40.062  14.418
65365W        W36894  10.033  14.488   0.118
65366W        W36895  30.819   3.782  14.927
65367W        W36896  31.949  24.195   1.379
65368W        W36897   8.007  25.784   2.686
65369W        W36898  15.522   7.706  12.385
65370W        W36899  23.298  44.969  12.538
65371W        W36900  43.268  29.445   2.342
65372W        W36901  35.854  30.510   4.512
65373W        W36902   8.884   2.322   2.742
65374W        W36903  27.750  13.785   9.950
65375W        W36904  11.614  23.695   2.345
65376W        W36905  37.313   3.078  12.453
65377W        W36906  26.665  29.578  14.701
65378W        W36907  17.818   8.715   3.624
65379W        W36908   2.025  32.880  13.440
65380W        W36909  29.677   1.707   3.653
65381W        W36910  20.096  10.821   0.853
65382W        W36911   7.818  42.228   1.333
65383W        W36912  19.557  41.558   4.302
65384W        W36913   1.604   1.207   2.794
65385W        W36914  18.608  30.129  12.088
65386W        W36915  23.433  32.949   2.121
65387W        W36916  39.613  17.631   0.408
65388W        W36917  14.254  21.890   3.026
65389W        W36918  16.669   5.218  11.534
65390W        W36919   2.931  19.201   3.788
65391W        W36920  22.357  11.669   1.774
65392W        W36921  36.803  24.026   3.352
65393W        W36922  40.075  20.482  14.858
65394W        W36923   8.238  31.175   1.863
65395W        W36924  41.829  12.171   1.943
65396W        W36925   0.457   6.725  14.241
65397W        W36926   6.875  17.193   0.694
65398W        W36927  36.110  19.911   1.705
65399W        W36928  13.084  39.008   3.714
65400W        W36929  25.555  35.209   4.852
65401W        W36930  39.154  44.309  12.529
65402W        W36931  37.079  28.346   2.678
65403W        W36932   9.796  28.065  13.131
65404W        W36933  10.450   5.707   1.017
65405W        W36934  35.931   1.229  13.964
65406W        W36935   4.364   2.222   4.174
65407W        W36936   5.845  35.672  13.193
65408W        W36937  41.464  21.070  11.371
65409W        W36938   7.623  22.186   3.660
65410W        W36939  29.939  33.757   3.657
65411W        W36940  15.624  28.782  12.105
65412W        W36941  35.951  12.420   0.728
65413W        W36942  42.877  23.042   1.543
65414W        W36943  29.159  23.668  13.904
65415W        W36944  11.745  16.772  11.693
65416W        W36945   5.601  23.063  11.088
65417W        W36946  13.065  23.532  12.082
65418W        W36947  16.244  18.076   1.795
65419W        W36948  38.385  36.983  10.627
65420W        W36949  14.157  40.326  10.874
65421W        W36950  29.124  40.296  10.699
65422W        W36951  28.266  17.794   3.902
65423W        W36952  33.961   9.805  14.876
65424W        W36953  28.173  14.651   4.679
65425W        W36954  28.570  21.269  13.597
65426W        W36955  33.978  36.592  11.035
65427W        W36956  24.383  17.298  13.811
65428W        W36957  27.592   6.785   0.203
65429W        W36958  10.736  20.585   3.247
65430W        W36959  18.527  16.519  11.283
65431W        W36960  34.519  15.223  13.924
65432W        W36961  28.505  25.623  14.755
65433W        W36962  43.919  41.584   0.881
65434W        W36963  22.080   6.045  12.989
65435W        W36964  20.694  11.201   4.910
65436W        W36965  17.788   5.807   3.664
65437W        W36966  39.714   7.846   0.540
65438W        W36967   9.217  23.418   4.901
65439W        W36968  16.889  36.057   1.174
65440W        W36969  39.580  17.842  14.922
65441W        W36970  37.967  42.950   9.962
65442W        W36971  25.163   8.792   2.161
65443W        W36972  21.111  44.794   2.823
65444W        W36973  40.305  13.244   4.824
65445W        W36974  24.705  21.040   1.002
65446W        W36975  44.396   4.733   3.407
65447W        W36976  12.285   4.194   2.577
65448W        W36977  38.920  30.544   3.239
65449W        W36978  43.410  19.107  13.737
65450W        W36979  44.530  17.230  14.546
65451W        W36980  42.783   5.594  14.652
65452W        W36981   2.289  30.391   2.395
65453W        W36982  14.886   3.432  10.731
65454W        W36983  37.848  35.212   3.839
65455W        W36984  16.350  14.273  11.511
65456W        W36985  12.672  33.932   5.004
65457W        W36986  20.470  44.951   4.221
65458W        W36987  44.558  18.481   1.949
65459W        W36988  27.606  10.757   1.940
65460W        W36989  20.483  10.105  13.874
65461W        W36990   8.943   5.000  13.033
65462W        W36991  22.352  35.659   4.669
65463W        W36992  22.091  39.577  12.743
65464W        W36993  14.331   7.377   3.421
65465W        W36994  13.047   4.343  14.313
65466W        W36995   1.415  44.373  12.158
65467W        W36996  41.427  41.855  14.806
65468W        W36997   0.736  28.610  12.387
65469W        W36998  21.059  43.886   4.559
65470W        W36999  17.767  41.110   3.397
65471W        W37000  29.144  16.742  11.136
65472W        W37001  22.714  18.691  12.601
65473W        W37002  24.783  30.388  14.856
65474W        W37003  25.605   1.834   1.577
65475W        W37004  39.550  35.390  14.037
65476W        W37005  12.030  39.069   5.074
65477W        W37006  26.902  12.180   2.141
65478W        W37007  11.194   4.143   0.713
65479W        W37008  28.863  39.817  11.999
65480W        W37009   1.366  12.663   1.308
65481W        W37010  39.296  33.476   4.064
65482W        W37011  22.790   9.103  11.181
65483W        W37012   7.605  40.662  13.433
65484W        W37013  29.647  23.803  12.055
65485W        W37014  40.528  14.772   0.970
65486W        W37015  20.200  36.531  12.937
65487W        W37016   7.212  27.875   4.140
65488W        W37017   4.736   3.883   1.971
65489W        W37018  43.892   9.797   3.338
65490W        W37019  24.065  24.542  11.744
65491W        W37020  12.680  34.884  13.503
65492W        W37021  15.585  42.387   4.077
65493W        W37022  29.994  16.216   4.524
65494W        W37023  27.496  38.812   0.455
65495W        W37024  37.324  24.174   1.338
65496W        W37025  21.782  43.906   2.185
65497W        W37026   8.211  25.528  12.231
65498W        W37027  31.408  25.280   4.057
65499W        W37028   1.749  35.680  13.863
65500W        W37029   6.598  41.532   4.256
65501W        W37030  17.717  31.687  12.925
65502W        W37031  40.588  21.306   0.264
65503W        W37032  28.487  29.153  14.217
65504W        W37033  30.927  37.510  14.360
65505W        W37034  24.165  18.005   2.039
65506W        W37035  31.692   0.227  11.695
65507W        W37036  24.222  37.216  13.902
65508W        W37037  44.393  12.253  11.161
65509W        W37038  19.087   3.312  13.442
65510W        W37039   3.194  36.746  11.135
65511W        W37040  14.546  10.959   3.261
65512W        W37041  21.684  37.650  12.860
65513W        W37042  35.022  14.376   2.706
65514W        W37043   5.382   3.709  12.001
65515W        W37044  18.475   8.804  10.631
65516W        W37045  14.767  25.046  11.211
65517W        W37046  19.119  33.528  13.070
65518W        W37047  11.901  30.552   1.573
65519W        W37048   2.290  43.187   0.958
65520W        W37049   1.756  39.827   3.134
65521W        W37050  36.059  36.436  11.730
65522W        W37051  15.260  11.852  13.386
65523W        W37052  43.752  14.847   3.379
65524W        W37053  40.430  18.312   4.194
65525W        W37054  40.344  13.904   2.580
65526W        W37055  42.016  24.576  11.915
65527W        W37056  12.312  29.562  11.218
65528W        W37057   8.333  36.189   0.703
65529W        W37058  20.288  33.270   9.919
65530W        W37059  40.908  19.283   2.318
65531W        W37060  44.535  20.335  12.678
65532W        W37061  42.957  40.892   2.318
65533W        W37062  18.151  35.850  10.590
65534W        W37063   7.996  29.914   2.903
65535W        W37064  36.921  39.889   0.478
65536W        W37065   1.238  13.436  11.002
65537W        W37066  17.731  32.578   3.394
65538W        W37067  16.265  23.098  11.968
65539W        W37068  35.646  16.138  14.755
65540W        W37069  30.943  25.210   4.316
65541W        W37070  22.994  20.480  13.975
65542W        W37071  19.815  42.543  13.922
65543W        W37072   2.119   2.340  14.579
65544W        W37073   3.369  11.268  10.636
65545W        W37074  18.293  17.394  11.127
65546W        W37075   3.186  44.718   4.143
65547W        W37076  18.196   8.174  12.894
65548W        W37077   7.027  15.990  12.630
65549W        W37078  23.985  39.290  12.930
65550W        W37079   7.612  20.771   2.841
65551W        W37080  10.392  23.293  14.180
65552W        W37081  22.038  27.555   1.681
65553W        W37082  16.704  39.470   1.025
65554W        W37083  34.937  21.324   5.023
65555W        W37084   9.359  25.821   3.283
65556W        W37085  10.306   6.687   2.181
65557W        W37086  32.275   3.245   4.513
65558W        W37087  38.331  41.400  13.392
65559W        W37088  28.637  15.518   0.852
65560W        W37089  21.692   9.810  10.677
65561W        W37090  11.728  40.792  10.571
65562W        W37091   1.717  16.309   0.269
65563W        W37092   7.414  42.645   3.139
65564W        W37093  18.290   0.487  10.676
65565W        W37094   8.694  41.834  12.534
65566W        W37095  21.241  38.767   0.808
65567W        W37096  13.806  43.023   4.232
65568W        W37097  12.321   2.446  12.122
65569W        W37098   1.336  10.712  10.681
65570W        W37099  42.023  21.836   0.987
65571W        W37100  36.924  38.050   1.551
65572W        W37101  40.421   3.412   1.878
65573W        W37102  38.762  18.180   1.313
65574W        W37103  19.599  27.525   4.317
65575W        W37104  22.690  32.683  12.983
65576W        W37105  40.980  29.203  12.612
65577W        W37106  28.073  28.476  14.235
65578W        W37107  26.432  29.510   0.914
65579W        W37108  15.209  39.459   3.100
65580W        W37109  20.210  18.729  10.794
65581W        W37110  32.905  33.730   4.912
65582W        W37111  31.201  34.494   3.571
65583W        W37112  35.276  27.920  14.526
65584W        W37113  35.670   7.786   0.932
65585W        W37114   0.102  29.526   4.133
65586W        W37115  41.283  14.280  12.124
65587W        W37116  20.741  35.433   4.131
65588W        W37117  40.808   2.530  10.744
65589W        W37118  25.531  37.391   4.381
65590W        W37119  29.526  31.697   3.166
65591W        W37120  20.183  32.150   0.282
65592W        W37121   9.250  12.029   2.151
65593W        W37122  12.192  26.556  11.486
65594W        W37123  31.407  40.295  14.809
65595W        W37124  29.014  14.733   1.941
65596W        W37125  33.323  10.389  14.972
65597W        W37126  19.577  27.500   2.858
65598W        W37127  10.043   5.084   2.347
65599W        W37128  12.613  30.367  11.107
65600W        W37129  26.123  30.601  14.622
65601W        W37130  24.889  28.381   3.702
65602W        W37131  20.728   0.400  10.457
65603W        W37132  16.020   3.297   2.238
65604W        W37133  25.165  25.648   1.090
65605W        W37134   4.592  19.401   4.610
65606W        W37135  29.110  42.969  13.395
65607W        W37136   0.411  36.774   1.479
65608W        W37137  42.787  22.989  11.520
65609W        W37138  31.396  29.621   1.233
65610W        W37139   0.508  15.966   2.809
65611W        W37140  35.838  24.551   2.742
65612W        W37141  43.883  25.954   2.228
65613W        W37142   7.776  10.020  11.627
65614W        W37143  38.059  21.642  12.836
65615W        W37144  42.057  43.447   1.762
65616W        W37145  43.266  27.041   0.095
65617W        W37146  33.456   6.716  11.653
65618W        W37147   1.133  27.446   1.294
65619W        W37148   2.559   4.460   3.126
65620W        W37149   3.898  21.107  13.469
65621W        W37150   9.029  12.578  12.365
65622W        W37151   9.757  19.641  14.552
65623W        W37152  39.828  19.640  14.241
65624W        W37153  33.733  12.549   3.248
65625W        W37154  27.589   6.987   4.122
65626W        W37155  28.459   4.836  12.031
65627W        W37156  11.218  17.733   4.112
65628W        W37157  24.607  34.904   4.098
65629W        W37158  41.459  31.805   4.715
65630W        W37159  11.768  20.030   1.780
65631W        W37160  11.307  36.728   3.209
65632W        W37161   3.979  25.464   4.611
65633W        W37162   4.306  44.477  11.003
65634W        W37163  39.669  41.838   1.479
65635W        W37164  20.475  44.228   1.674
65636W        W37165  11.105  11.389   3.276
65637W        W37166   2.108  39.013  13.127
65638W        W37167  24.603  19.761  10.664
65639W        W37168   8.102  28.693   0.125
65640W        W37169  22.143  34.509   0.505
65641W        W37170  19.749  39.871   2.539
65642W        W37171  37.066  17.161  14.782
65643W        W37172   4.535  20.842   1.293
65644W        W37173  31.991  27.437  11.968
65645W        W37174  21.455  16.386   1.844
65646W        W37175   1.484   8.942  12.948
65647W        W37176  40.098  11.720   2.596
65648W        W37177  20.011  34.583  13.883
65649W        W37178  37.353  12.721  11.885
65650W        W37179  33.563  22.948  11.499
65651W        W37180  21.844   6.143   3.081
65652W        W37181  13.472  25.518  11.453
65653W        W37182  36.166  29.264  12.477
65654W        W37183  42.616  29.551   4.583
65655W        W37184  20.524  35.569  11.454
65656W        W37185  15.326  28.964   0.878
65657W        W37186  18.145  16.014  10.749
65658W        W37187  35.187  36.347  10.879
65659W        W37188  26.883  28.937   3.130
65660W        W37189  10.846  22.575   3.415
65661W        W37190  19.802  33.610  13.627
65662W        W37191  32.640  33.906  10.861
65663W        W37192   5.213  43.340  12.784
65664W        W37193  23.176   9.816   1.080
65665W        W37194   4.781  11.705  14.342
65666W        W37195  16.934   8.706  14.546
65667W        W37196  11.833  19.294  14.252
65668W        W37197  31.332  23.467  10.686
65669W        W37198  24.738  23.022   2.275
65670W        W37199   2.868  13.354  10.956
65671W        W37200  35.545  31.877   4.718
65672W        W37201  22.838  11.686   4.961
65673W        W37202  13.610  16.276   3.560
65674W        W37203  14.938  30.723  14.836
65675W        W37204  11.327  40.276   3.829
65676W        W37205  20.040  13.119   1.555
65677W        W37206  32.436  23.617   4.914
65678W        W37207  15.739  44.893   2.422
65679W        W37208  16.783  32.743   2.731
65680W        W37209  20.507  16.112   3.337
65681W        W37210   5.789  11.133  10.592
65682W        W37211  42.958  25.588   0.766
65683W        W37212  20.002  12.289  12.675
65684W        W37213  43.011  44.578  11.675
65685W        W37214   1.502  12.669  13.082
65686W        W37215  21.772  12.333   0.953
65687W        W37216  27.099  24.199  14.391
65688W        W37217  11.297  28.259   1.737
65689W        W37218  39.768  21.802   2.140
65690W        W37219  21.303   2.186   4.077
65691W        W37220  20.059   7.274   3.185
65692W        W37221  27.111  26.588  14.223
65693W        W37222  24.544  28.282   1.224
65694W        W37223   1.900  31.203   4.249
65695W        W37224  38.333  25.690  14.345
65696W        W37225   6.294  32.409   3.629
65697W        W37226  14.170  43.594  12.053
65698W        W37227  31.461   8.885   0.097
65699W        W37228  24.956  33.344  13.740
65700W        W37229  27.939  40.995   3.003
65701W        W37230  10.138  26.517  12.323
65702W        W37231  36.882   9.221  13.264
65703W        W37232  43.272  21.205   0.256
65704W        W37233  15.364  38.459   1.339
65705W        W37234  17.920   0.844  11.092
65706W        W37235  11.826  11.627  13.826
65707W        W37236   6.925  25.853   3.688
65708W        W37237  36.954  34.137   3.847
65709W        W37238   5.401   4.063  12.526
65710W        W37239  28.479  21.096  12.605
65711W        W37240  13.869   2.743  13.319
65712W        W37241  29.857   7.831  11.552
65713W        W37242  15.757   1.033  11.305
65714W        W37243  29.848  42.097  13.989
65715W        W37244   8.613  32.324   2.392
65716W        W37245   8.293  22.524   0.556
65717W        W37246  21.300  16.600  10.239
65718W        W37247   4.621  10.651  11.095
65719W        W37248   9.137  23.002   1.813
65720W        W37249  44.314  14.368   2.841
65721W        W37250  20.551  16.875   1.326
65722W        W37251  42.017  21.086   4.640
65723W        W37252  11.524  29.188  14.945
65724W        W37253  10.907  30.949  12.637
65725W        W37254  36.501  32.888  12.316
65726W        W37255  19.274  17.718  12.166
65727W        W37256  43.038   3.242  14.454
65728W        W37257  12.903  26.511  12.880
65729W        W37258  32.945   6.516   2.678
65730W        W37259   0.324  41.370   1.023
65731W        W37260  15.065  40.424  13.904
65732W        W37261   2.401  13.825  12.515
65733W        W37262  11.306  38.284   1.788
65734W        W37263   4.870   7.701  13.990
65735W        W37264   4.311  23.753   2.189
65736W        W37265  27.141   5.440   0.395
65737W        W37266  29.694  14.192  11.163
65738W        W37267  12.312  39.094  13.054
65739W        W37268  12.973  12.943   2.834
65740W        W37269  33.264  27.179  10.715
65741W        W37270  15.286  26.027   4.386
65742W        W37271  16.798  20.722  13.244
65743W        W37272  34.908  17.724  11.654
65744W        W37273   0.486  18.760   2.762
65745W        W37274  33.094  20.563   4.661
65746W        W37275  20.545  41.557   2.251
65747W        W37276  23.078  14.613  12.926
65748W        W37277  15.076  23.196  13.692
65749W        W37278  16.361  23.320   3.495
65750W        W37279  19.724  28.223   2.392
65751W        W37280   1.992   3.761  13.458
65752W        W37281   1.241   3.357   3.769
65753W        W37282  37.292  38.003  12.868
65754W        W37283  24.982  14.734  11.637
65755W        W37284  15.999   7.942  12.567
65756W        W37285  21.546  44.343   2.348
65757W        W37286  12.811   2.958  13.326
65758W        W37287   4.621  33.384  12.931
65759W        W37288  16.679  37.137  12.049
65760W        W37289  17.396   5.471   3.588
65761W        W37290   6.825  32.403   2.921
65762W        W37291  19.517  35.558   4.787
65763W        W37292  42.376  13.707  13.518
65764W        W37293  32.530  35.449  14.468
65765W        W37294  42.998  33.619  10.760
65766W        W37295  30.129   8.644  13.169
65767W        W37296  26.124  30.697   0.142
65768W        W37297  28.042  35.846  11.885
65769W        W37298  11.124  22.258   0.393
65770W        W37299   5.834  39.795   4.255
65771W        W37300   8.980  26.280   5.157
65772W        W37301  22.534   5.834  14.784
65773W        W37302  39.878  40.582   4.579
65774W        W37303   8.560  30.942   4.829
65775W        W37304  34.873  21.318  13.546
65776W        W37305   1.587   3.336   2.772
65777W        W37306  31.212  18.504  10.776
65778W        W37307   5.684  18.815  11.994
65779W        W37308  42.622  10.352   4.677
65780W        W37309   1.597  11.115  12.327
65781W        W37310  35.593  33.622   0.255
65782W        W37311  28.229  38.369   1.275
65783W        W37312   0.282  32.102   3.122
65784W        W37313  36.934  31.907   3.173
65785W        W37314  13.709  36.380  11.745
65786W        W37315   4.356  15.360   4.571
65787W        W37316   0.965   4.745   1.426
65788W        W37317  13.718  40.917  14.667
65789W        W37318  35.894  10.839   0.828
65790W        W37319  33.072  16.545   0.236
65791W        W37320  12.104  12.762  14.947
65792W        W37321  24.647  21.809   0.274
65793W        W37322  30.471  23.011   3.278
65794W        W37323  22.078  38.435   4.500
65795W        W37324  18.483  40.011   3.387
65796W        W37325  13.240  19.644   2.102
65797W        W37326  34.407  15.963   2.184
65798W        W37327   9.378  36.007  12.498
65799W        W37328  36.075  21.049   3.789
65800W        W37329  15.241   8.887  12.338
65801W        W37330  20.838  35.388  13.070
65802W        W37331  16.547  41.585  13.498
65803W        W37332   3.924  30.153   1.227
65804W        W37333  22.867  24.496   4.032
65805W        W37334  44.033   1.577  12.886
65806W        W37335  13.564  27.992  11.946
65807W        W37336  15.431  30.697  14.969
65808W        W37337  39.038  31.709  13.980
65809W        W37338  29.844  31.327   1.855
65810W        W37339  12.289  22.115   4.551
65811W        W37340  24.073  20.054   1.856
65812W        W37341   4.169  21.262   3.147
65813W        W37342  34.397   8.975  10.616
65814W        W37343  33.553   4.830  12.893
65815W        W37344   7.331  10.285  14.012
65816W        W37345  44.606  19.533   4.950
65817W        W37346   1.666  40.566   0.674
65818W        W37347  36.847  30.561   0.460
65819W        W37348  37.930  28.183   1.865
65820W        W37349  13.712  41.965   0.336
65821W        W37350  13.050  31.206  12.288
65822W        W37351  10.698  24.286  12.618
65823W        W37352   3.351  10.667   1.529
65824W        W37353  44.883   5.695  14.688
65825W        W37354  14.208  35.111  12.567
65826W        W37355  41.348  28.450   4.085
65827W        W37356   4.622  38.468   2.262
65828W        W37357   9.907   2.763   4.094
65829W        W37358  11.959  43.099   0.529
65830W        W37359  41.499   3.028  12.913
65831W        W37360  24.305  31.074   0.461
65832W        W37361  13.419  16.261  14.425
65833W        W37362  15.052   3.232  13.610
65834W        W37363  30.787  17.204   0.175
65835W        W37364   0.001  35.033   3.822
65836W        W37365  12.755  11.939   1.143
65837W        W37366  40.899  43.718  13.988
65838W        W37367   8.252  24.578   3.645
65839W        W37368  30.668  38.837  10.726
65840W        W37369   5.022  13.337   3.737
65841W        W37370  28.390   2.349  13.042
65842W        W37371  17.148  30.429  13.987
65843W        W37372  40.842   1.831   3.206
65844W        W37373   6.331  23.829   4.205
65845W        W37374  19.185  28.396  14.276
65846W        W37375   7.011  43.436  14.926
65847W        W37376  26.075  12.224   4.229
65848W        W37377  23.728  31.548   4.085
65849W        W37378  33.226  21.070   1.423
65850W        W37379  34.797  30.528   4.621
65851W        W37380  13.086  24.686  13.703
65852W        W37381   0.034  43.821   1.915
65853W        W37382   4.645  38.975   1.851
65854W        W37383  44.372  28.104  11.677
65855W        W37384  44.982  44.289   0.729
65856W        W37385   4.654  37.642   3.689
65857W        W37386  27.478  28.682  14.914
65858W        W37387  35.667   5.619  11.244
65859W        W37388   1.191  30.581   2.266
65860W        W37389  21.250  39.906   4.073
65861W        W37390  29.030   0.697   3.998
65862W        W37391  13.355  23.657   3.261
65863W        W37392  20.371  42.424  14.761
65864W        W37393  42.574  11.119   1.374
65865W        W37394  11.775  13.039  10.333
65866W        W37395   5.786  42.763  13.820
65867W        W37396  10.274   1.256  14.973
65868W        W37397   6.569  17.798   4.608
65869W        W37398  11.135  17.771  10.895
65870W        W37399  12.525  26.218   1.207
65871W        W37400  18.489   7.767  13.922
65872W        W37401  26.741   1.808   0.175
65873W        W37402  19.928  23.602   1.332
65874W        W37403  34.150  25.641  14.006
65875W        W37404  18.865   3.298  10.768
65876W        W37405  33.545  41.813   1.465
65877W        W37406  30.919  14.741  12.145
65878W        W37407  33.764  16.935   1.407
65879W        W37408  15.682  16.529  13.036
65880W        W37409   1.318  42.873   4.137
65881W        W37410  38.452  23.130   3.487
65882W        W37411  14.802  25.547  12.554
65883W        W37412  41.074  34.326   1.505
65884W        W37413  37.922  27.072  13.610
65885W        W37414  40.362   0.285  10.668
65886W        W37415  17.836   3.511   1.885
65887W        W37416  22.237   3.873   3.625
65888W        W37417  24.026   8.268   2.211
65889W        W37418   4.803  11.172  14.421
65890W        W37419  12.032  18.724   3.736
65891W        W37420   2.795  29.945  14.365
65892W        W37421  16.369  14.753  13.369
65893W        W37422  37.469  27.004  13.871
65894W        W37423   8.413  14.399   4.088
65895W        W37424   1.271  38.440   1.219
65896W        W37425  12.405  35.941   1.850
65897W        W37426  14.732  30.929   4.851
65898W        W37427  13.703   3.180   1.787
65899W        W37428  15.593  25.079  13.543
65900W        W37429  38.793  44.674  12.588
65901W        W37430  16.483  32.912  13.972
65902W        W37431  40.686   5.855   4.942
65903W        W37432  38.648  24.368  14.898
65904W        W37433  25.752  39.423   1.051
65905W        W37434  37.015  40.390   1.973
65906W        W37435   4.825  10.715  11.571
65907W        W37436   6.582  29.788  10.725
65908W        W37437  26.438  40.738  14.440
65909W        W37438  40.589   2.658   3.568
65910W        W37439  33.312   8.297   3.851
65911W        W37440  17.822  21.810   4.497
65912W        W37441  31.114  33.200   9.828
65913W        W37442  14.983  26.566  14.895
65914W        W37443  23.440  43.057  12.976
65915W        W37444  25.005   4.290   3.123
65916W        W37445  44.401  40.917  13.860
65917W        W37446  21.246  37.563  13.239
65918W        W37447  25.226  43.846   3.238
65919W        W37448  27.439  18.714   2.389
65920W        W37449  19.471  44.464   2.697
65921W        W37450  44.917  44.767   4.978
65922W        W37451  18.776  33.601   3.387
65923W        W37452  19.155  44.659   0.337
65924W        W37453  38.070  38.940  14.957
65925W        W37454  12.252  20.326  14.859
65926W        W37455  16.587  34.769   2.123
65927W        W37456  37.284   4.740   0.411
65928W        W37457  23.027  29.569  13.962
65929W        W37458  40.987  11.755   1.885
65930W        W37459   0.777  29.532  14.339
65931W        W37460  11.337   2.511  11.124
65932W        W37461   1.298  10.164   1.303
65933W        W37462  25.064  32.847  13.844
65934W        W37463  25.663  16.298   1.203
65935W        W37464  27.269  25.973   4.522
65936W        W37465  44.499  14.740   1.199
65937W        W37466  31.426  21.686   3.655
65938W        W37467   8.670  11.852   1.681
65939W        W37468  44.013  33.103  11.687
65940W        W37469  20.153  40.589  11.609
65941W        W37470  19.690  20.966   4.552
65942W        W37471  17.444  38.562   3.744
65943W        W37472  22.443  38.922   2.309
65944W        W37473  13.613   1.998   0.811
65945W        W37474  37.493  17.998   1.822
65946W        W37475   0.527  30.159   3.670
65947W        W37476  18.131  44.366  11.179
65948W        W37477  11.231  14.330   2.282
65949W        W37478  24.468  38.994  14.397
65950W        W37479  29.150  42.601  11.130
65951W        W37480  39.520   7.298   1.278
65952W        W37481  26.611  18.178   0.731
65953W        W37482  19.745  43.751   3.238
65954W        W37483   2.712  23.644  13.256
65955W        W37484  42.912  40.647   0.636
65956W        W37485  17.728   2.083  10.682
65957W        W37486  18.864  33.990  14.423
65958W        W37487  38.427  16.967  10.712
65959W        W37488  40.960   1.057   2.690
65960W        W37489  34.082   9.752   1.015
65961W        W37490  39.120  29.728  11.450
65962W        W37491  31.667  13.369  14.113
65963W        W37492  31.008   3.145  10.688
65964W        W37493  16.336   7.401   1.306
65965W        W37494  35.483  31.203  14.689
65966W        W37495  40.155   9.303  13.041
65967W        W37496  29.435   0.848  12.989
65968W        W37497  40.775  39.530  10.681
65969W        W37498  38.022  24.970   5.080
65970W        W37499  29.947  39.124  13.922
65971W        W37500  24.877  18.045   0.567
65972W        W37501  32.516  19.647   0.642
65973W        W37502  41.843  42.570   0.140
65974W        W37503  39.345  13.632  12.800
65975W        W37504  36.016   2.002   1.852
65976W        W37505  30.128  34.496  14.573
65977W        W37506  10.698  17.560   1.014
65978W        W37507   1.907   8.596  13.045
65979W        W37508  37.787  28.205  14.759
65980W        W37509  31.783  33.166   0.538
65981W        W37510  36.031  36.618   2.565
65982W        W37511  16.114  34.457   2.048
65983W        W37512  41.555  30.510   2.750
65984W        W37513   5.388   6.710   0.485
65985W        W37514  10.144  29.474   4.098
65986W        W37515   7.283  34.635   0.883
65987W        W37516  14.876  26.568  10.174
65988W        W37517  15.586  26.902   0.662
65989W        W37518  44.051  35.218  14.181
65990W        W37519  11.906   9.726  11.251
65991W        W37520  40.590  12.893   3.640
65992W        W37521   1.322  36.935  14.575
65993W        W37522   2.648  41.368  12.002
65994W        W37523  35.298  26.968   3.153
65995W        W37524  42.948   1.699  14.581
65996W        W37525  18.652  35.645  10.675
65997W        W37526  16.790  24.890  12.500
65998W        W37527  11.678  17.111  14.061
65999W        W37528  22.155  39.555  14.359
66000W        W37529   3.281  13.027   3.899
66001W        W37530  26.671  15.185  12.182
66002W        W37531   2.978  35.379  11.535
66003W        W37532  36.801  41.260   1.807
66004W        W37533  39.378  29.199   2.206
66005W        W37534  20.852  11.542  14.005
66006W        W37535  37.458  10.603  10.833
66007W        W37536  10.493  30.423   1.438
66008W        W37537  25.609  16.060  11.603
66009W        W37538  34.212  44.013  11.038
66010W        W37539  40.596  34.963   3.577
66011W        W37540  40.051   4.868   1.238
66012W        W37541   3.731  35.043   3.700
66013W        W37542   3.130  10.213   1.381
66014W        W37543  38.087  15.606  10.701
66015W        W37544  40.392   6.154   3.896
66016W        W37545  23.159  41.868  10.741
66017W        W37546  34.034   5.676   4.310
66018W        W37547  20.499  18.562   2.253
66019W        W37548  18.228  42.003   4.315
66020W        W37549  34.683  14.744  13.789
66021W        W37550  27.172  40.737  12.543
66022W        W37551  27.018  37.598   2.249
66023W        W37552  30.676  31.159  11.150
66024W        W37553  15.551   8.898  13.588
66025W        W37554  34.050  31.482  10.664
66026W        W37555  32.446   2.388   4.249
66027W        W37556  23.198   6.356   1.713
66028W        W37557  15.682  41.557  14.740
66029W        W37558  17.803  32.607  10.663
66030W        W37559  37.867  12.210   2.332
66031W        W37560   9.663   6.266  11.154
66032W        W37561   2.780   8.206   0.327
66033W        W37562  14.158  11.733  12.464
66034W        W37563  20.790  35.367   0.758
66035W        W37564  11.451  29.655   1.736
66036W        W37565  20.011  16.380  12.647
66037W        W37566  14.353  44.527   1.488
66038W        W37567  14.136  41.053   1.218
66039W        W37568  25.121  35.075   4.065
66040W        W37569  26.456  30.092   3.816
66041W        W37570  22.561   3.173   1.292
66042W        W37571  34.752  43.583  12.011
66043W        W37572  34.033   6.361  11.013
66044W        W37573  21.278  11.297  13.793
66045W        W37574   8.770  20.150  13.227
66046W        W37575  34.015  11.833  12.147
66047W        W37576  21.505  18.239   0.888
66048W        W37577  36.464   8.269  14.360
66049W        W37578  41.094  29.225  13.528
66050W        W37579  22.182  28.100  14.013
66051W        W37580  29.840  21.041   4.813
66052W        W37581  14.238  16.765  12.496
66053W        W37582  16.692  36.552  13.938
66054W        W37583  31.580  20.579  14.500
66055W        W37584   7.425  35.377  13.755
66056W        W37585  36.706  42.849   3.446
66057W        W37586  26.682  43.000  12.472
66058W        W37587  23.139  14.548   3.388
66059W        W37588  30.512  18.240  13.091
66060W        W37589  10.729  27.219  11.887
66061W        W37590  32.799  39.239  11.129
66062W        W37591  22.156  35.025  14.553
66063W        W37592  20.823  31.006  12.208
66064W        W37593  21.017  20.911   9.907
66065W        W37594  30.496  29.605   4.297
66066W        W37595  19.536   1.745  11.666
66067W        W37596  34.179  38.824   3.171
66068W        W37597  39.299   1.195  13.405
66069W        W37598  17.620  12.386  11.314
66070W        W37599  15.162  29.434  12.377
66071W        W37600  27.385  18.078   2.789
66072W        W37601  36.063  12.131  12.608
66073W        W37602  42.343  43.995   4.924
66074W        W37603  43.230  33.459   2.891
66075W        W37604   6.776  19.539   3.194
66076W        W37605   0.255   2.442   4.289
66077W        W37606  10.035  34.476  10.742
66078W        W37607  13.877  29.646   2.731
66079W        W37608  28.497  10.357   4.818
66080W        W37609   1.908  44.263  10.379
66081W        W37610   2.739  37.181  12.458
66082W        W37611  39.007  24.456   2.349
66083W        W37612  35.080  23.562   2.715
66084W        W37613  28.395   7.984   2.246
66085W        W37614  22.228  35.517  11.578
66086W        W37615  33.509  31.949  13.034
66087W        W37616   1.685   8.578   0.211
66088W        W37617   7.712  34.959   1.862
66089W        W37618  35.196  43.954   0.908
66090W        W37619  17.751   7.847  12.127
66091W        W37620  15.299  34.651  11.155
66092W        W37621   3.558  21.015  10.802
66093W        W37622  22.052  41.887  13.035
66094W        W37623   9.954  43.801  13.817
66095W        W37624  42.635  24.567   2.862
66096W        W37625   5.554  14.557   1.909
66097W        W37626  35.923  15.588  11.631
66098W        W37627  28.293  31.337   0.903
66099W        W37628  36.517  36.826  11.567
66100W        W37629  14.729  28.214  11.151
66101W        W37630  25.676  43.391   4.347
66102W        W37631  42.531  35.035  11.499
66103W        W37632   1.376  33.390   3.843
66104W        W37633  40.831  28.455  11.875
66105W        W37634   3.247  15.569   0.356
66106W        W37635  30.985  28.647   3.035
66107W        W37636   6.641  27.265   3.928
66108W        W37637  24.454  41.103  10.661
66109W        W37638  32.638  31.775  14.120
66110W        W37639  10.777   8.195   0.678
66111W        W37640  18.204  42.605   2.739
66112W        W37641  41.033  27.173  14.544
66113W        W37642  34.846   9.355  13.041
66114W        W37643  34.571  23.658   2.804
66115W        W37644  16.585  13.779  14.900
66116W        W37645  23.018  11.327  10.486
66117W        W37646  18.492  12.162   1.890
66118W        W37647  18.145  15.563   4.040
66119W        W37648  28.495  39.385  10.630
66120W        W37649  11.966  14.123   4.285
66121W        W37650  30.951  29.754  12.205
66122W        W37651  14.634   8.028  11.414
66123W        W37652  11.740   8.757  13.372
66124W        W37653   6.659  36.053   1.388
66125W        W37654  15.705   3.639  13.977
66126W        W37655   1.479  32.969   3.072
66127W        W37656   6.079  30.587  14.820
66128W        W37657   8.152  37.267   3.276
66129W        W37658  24.948   9.183  13.369
66130W        W37659  12.070   0.917  12.599
66131W        W37660  17.084   7.501   1.829
66132W        W37661  38.831  32.544   0.275
66133W        W37662   5.935  13.107  10.666
66134W        W37663  35.429  36.149  14.028
66135W        W37664  34.640  27.158   3.740
66136W        W37665   0.256  34.579   3.083
66137W        W37666  19.557  36.888  10.708
66138W        W37667  40.121  40.136   4.475
66139W        W37668  18.602  44.805   1.394
66140W        W37669  24.540  42.807   2.684
66141W        W37670  27.633  35.291   4.164
66142W        W37671   3.062  44.498  14.019
66143W        W37672  20.641  38.468  10.294
66144W        W37673  22.790  10.380  11.451
66145W        W37674  20.663  19.644   1.419
66146W        W37675   7.211   4.375  11.470
66147W        W37676  37.015  25.229   0.314
66148W        W37677  41.489  36.919  13.421
66149W        W37678  36.810  13.078   4.520
66150W        W37679   5.910  15.275  11.214
66151W        W37680   3.680  29.114   2.470
66152W        W37681  41.360  16.390  11.781
66153W        W37682  44.981  31.420  11.334
66154W        W37683  15.130   7.208  14.283
66155W        W37684  33.170  40.375  11.712
66156W        W37685   9.256   3.383  11.009
66157W        W37686  41.904  38.298  12.970
66158W        W37687  45.000  32.948   0.198
66159W        W37688  34.949  39.439  14.480
66160W        W37689   9.605  33.982   1.717
66161W        W37690  44.520   9.371  11.189
66162W        W37691  38.231  39.937   1.274
66163W        W37692   3.930  42.514  11.894
66164W        W37693   4.154  34.991   1.816
66165W        W37694   8.295  29.511   1.250
66166W        W37695  18.047  41.825  13.284
66167W        W37696  27.816  23.209  13.727
66168W        W37697   3.607  22.567   4.607
66169W        W37698  27.754  23.372  12.002
66170W        W37699  19.162  22.602  14.461
66171W        W37700  19.046   3.531   4.198
66172W        W37701  35.455  34.450  10.771
66173W        W37702  42.023   7.719   4.565
66174W        W37703  20.025  32.946   2.340
66175W        W37704  33.549  29.295  13.994
66176W        W37705  20.529  23.166   2.445
66177W        W37706  12.357  44.445  13.718
66178W        W37707  20.891  16.437   2.468
66179W        W37708   7.370  19.606  11.940
66180W        W37709  27.208  17.812  11.171
66181W        W37710  42.884  33.050   1.219
66182W        W37711  20.534  34.581  12.993
66183W        W37712  43.685  10.707  11.171
66184W        W37713   7.851  41.731   4.232
66185W        W37714  13.441  19.307  13.930
66186W        W37715  10.491   8.949   4.964
66187W        W37716   0.428   9.716   1.855
66188W        W37717  31.040  16.557  11.983
66189W        W37718   5.295   3.235  14.614
66190W        W37719   3.798  14.671  13.547
66191W        W37720  33.075   0.473  11.947
66192W        W37721  16.929  28.445   1.667
66193W        W37722   9.070  19.479   2.192
66194W        W37723  33.948   2.038   1.314
66195W        W37724   0.863  13.770  11.939
66196W        W37725  35.569   2.990   0.905
66197W        W37726   2.342  12.176  11.896
66198W        W37727   0.725  31.898  12.926
66199W        W37728   1.480  38.498   3.643
66200W        W37729   6.639  33.919   3.248
66201W        W37730   0.519  39.466   1.138
66202W        W37731  27.590  27.499  10.632
66203W        W37732   7.146  43.226  13.716
66204W        W37733  34.966   4.225   4.775
66205W        W37734  44.353  18.189  11.715
66206W        W37735   3.714   3.355   1.502
66207W        W37736  27.926  21.604   0.879
66208W        W37737  29.057   9.391  10.592
66209W        W37738  36.531   7.834   3.827
66210W        W37739   3.656  36.941   2.765
66211W        W37740  25.170  23.286   1.191
66212W        W37741  43.929  34.396   0.961
66213W        W37742   9.426  40.218   2.729
66214W        W37743   8.898  19.267  14.854
66215W        W37744  42.091  22.545  12.016
66216W        W37745  16.708  15.698  13.212
66217W        W37746  32.487  40.607  11.491
66218W        W37747  36.166   8.896  12.965
66219W        W37748  26.917  24.113   3.786
66220W        W37749  29.116   2.229   0.418
66221W        W37750  14.153   7.414   4.777
66222W        W37751  20.645  14.341  13.259
66223W        W37752  42.177   1.862   5.066
66224W        W37753  16.812   0.334  13.005
66225W        W37754   9.382  34.745  12.699
66226W        W37755  37.375  14.060   3.571
66227W        W37756  22.433  19.260   2.744
66228W        W37757  23.089  13.629  12.051
66229W        W37758  34.310   0.421  12.785
66230W        W37759  22.225  25.665  10.765
66231W        W37760   0.726  18.495  10.768
66232W        W37761   0.865   4.575   2.729
66233W        W37762   0.318  34.604  13.317
66234W        W37763   0.471  39.602  11.431
66235W        W37764  24.755   6.875  13.946
66236W        W37765  41.451   0.942  13.097
66237W        W37766  37.510  23.466   2.879
66238W        W37767  19.800   2.257  13.861
66239W        W37768  16.148  37.987   1.168
66240W        W37769   9.673   7.692   1.167
66241W        W37770  36.374  15.614  14.802
66242W        W37771  43.729   6.241  12.341
66243W        W37772  16.008  32.956  12.572
66244W        W37773  11.438  17.161   0.874
66245W        W37774  28.562   3.820   2.235
66246W        W37775  41.873   0.239   4.744
66247W        W37776  10.447  16.973  10.355
66248W        W37777  40.536  42.057   3.633
66249W        W37778  12.804  10.776   1.642
66250W        W37779  33.029  27.061  14.153
66251W        W37780  23.064  29.153   2.247
66252W        W37781  10.685  20.256   1.802
66253W        W37782  31.056   8.266  10.675
66254W        W37783  17.522  36.261   2.267
66255W        W37784  13.099  14.752  14.274
66256W        W37785  41.028  25.389   3.627
66257W        W37786  10.292  10.692   4.156
66258W        W37787  23.176  42.800  14.886
66259W        W37788   6.272  21.056  14.368
66260W        W37789  13.899  37.600  14.995
66261W        W37790  40.578  35.929   1.919
66262W        W37791  15.840  34.590  14.227
66263W        W37792  24.720   6.232   2.680
66264W        W37793   1.068   7.765  14.935
66265W        W37794  24.195  40.914   1.226
66266W        W37795  39.841  33.611   0.411
66267W        W37796  15.463  32.899  12.658
66268W        W37797  13.945   7.884   2.278
66269W        W37798  28.543  25.907   0.929
66270W        W37799  28.374  26.073  14.437
66271W        W37800  15.828  41.079  12.560
66272W        W37801   0.820  31.793   3.671
66273W        W37802  18.352  19.205  11.542
66274W        W37803   0.827   4.537  14.818
66275W        W37804  30.125  29.072  11.572
66276W        W37805  29.169  35.248  10.722
66277W        W37806  20.104  18.602   4.963
66278W        W37807  27.518   3.687  13.592
66279W        W37808   7.248  38.906  13.777
66280W        W37809   4.675  14.636  12.566
66281W        W37810   4.247  16.613  14.540
66282W        W37811  40.922  31.624   3.150
66283W        W37812  15.527  22.035   2.836
66284W        W37813  15.131  17.227  11.478
66285W        W37814  11.291   9.140  14.326
66286W        W37815  23.848  42.350  13.380
66287W        W37816  17.536  24.496   3.357
66288W        W37817  39.442  24.693   3.310
66289W        W37818  40.050   2.018   0.428
66290W        W37819  44.995  34.083  12.506
66291W        W37820  10.162  16.321   3.724
66292W        W37821  41.253  42.111  13.328
66293W        W37822  28.397   7.322   0.270
66294W        W37823  15.069   7.378   1.726
66295W        W37824  21.185   9.293  12.448
66296W        W37825   5.761   9.834  12.022
66297W        W37826   3.442   9.182   1.392
66298W        W37827  40.514   4.303   1.921
66299W        W37828  18.676   9.750   2.382
66300W        W37829  19.259  20.327  11.120
66301W        W37830   2.507   4.625  10.975
66302W        W37831  14.422   2.686  11.194
66303W        W37832   4.624   5.138   0.659
66304W        W37833  33.303  28.041   9.978
66305W        W37834  10.407  41.391   3.271
66306W        W37835  24.255  43.994  12.484
66307W        W37836   7.620  36.275  13.294
66308W        W37837  12.725  28.452  14.513
66309W        W37838   6.178  12.239  12.597
66310W        W37839  28.262  22.082  12.408
66311W        W37840  13.424  21.528   0.122
66312W        W37841   2.023   3.431  13.857
66313W        W37842  12.224  43.728   1.893
66314W        W37843  30.747  43.295   3.062
66315W        W37844  23.916  23.619  12.735
66316W        W37845   5.880  44.034  11.165
66317W        W37846  23.809  19.545  10.635
66318W        W37847  41.347  37.290  10.666
66319W        W37848  17.365  28.054  14.497
66320W        W37849  11.700  16.643   3.607
66321W        W37850  44.297  27.975  11.158
66322W        W37851  43.217  40.342   1.414
66323W        W37852  14.643  22.630   0.819
66324W        W37853   5.448  11.850   2.179
66325W        W37854  15.449  28.469   4.592
66326W        W37855   5.689  24.225  12.653
66327W        W37856  19.728  43.439   4.519
66328W        W37857  11.715   1.314  12.266
66329W        W37858  33.551  34.048  10.789
66330W        W37859   1.793   0.949   2.192
66331W        W37860  24.522  10.362  11.987
66332W        W37861  41.958   3.689   0.302
66333W        W37862  20.118  30.656   0.707
66334W        W37863  34.046  37.896   0.768
66335W        W37864  16.584  36.996   0.948
66336W        W37865  39.630  38.139   4.588
66337W        W37866  13.602  10.254  12.447
66338W        W37867  44.207  30.515   4.555
66339W        W37868  28.471  30.511   0.140
66340W        W37869  19.254  12.750   0.987
66341W        W37870  10.249  14.808   1.810
66342W        W37871  39.506  39.493  14.743
66343W        W37872  35.833  35.467   2.648
66344W        W37873  15.672  29.746   4.872
66345W        W37874  37.515  26.540  14.103
66346W        W37875  42.050  30.048   4.062
66347W        W37876  14.171  10.939  13.535
66348W        W37877   2.424  24.481   3.761
66349W        W37878   9.124  24.179   4.245
66350W        W37879  34.835   2.735   4.202
66351W        W37880   0.458  29.498   2.826
66352W        W37881  28.529  20.697  11.252
66353W        W37882  44.155  41.296  12.038
66354W        W37883   7.269   9.093  13.026
66355W        W37884  35.618   8.899   2.365
66356W        W37885  23.258  35.842   1.953
66357W        W37886   0.431  24.988  10.673
66358W        W37887  30.613   2.906  12.838
66359W        W37888  37.118  17.991  10.497
66360W        W37889  30.350  26.222  11.507
66361W        W37890  20.608  33.979  12.603
66362W        W37891  19.279  29.511   0.339
66363W        W37892  17.329   5.154   1.248
66364W        W37893   8.246   1.745   0.334
66365W        W37894  35.896  39.674   2.008
66366W        W37895   1.973  25.944  13.975
66367W        W37896  40.508  23.697  14.348
66368W        W37897   5.640   5.581  12.485
66369W        W37898   2.645  21.714  13.081
66370W        W37899  19.645  20.809  11.592
66371W        W37900  10.000  22.389  10.101
66372W        W37901  15.228  40.190  13.471
66373W        W37902  17.627  11.009   0.462
66374W        W37903  32.277   2.216   3.763
66375W        W37904   3.644  19.609  14.703
66376W        W37905  18.255   9.966  14.776
66377W        W37906  15.261   6.892  13.877
66378W        W37907  27.660  28.105   3.400
66379W        W37908  34.945   0.731   4.272
66380W        W37909  28.695   4.712   0.871
66381W        W37910  36.588  17.533   2.667
66382W        W37911   5.206  25.430   2.217
66383W        W37912  44.279  16.682   4.264
66384W        W37913  28.392  40.519   2.809
66385W        W37914  14.669  23.998   2.837
66386W        W37915  44.300   2.295   2.875
66387W        W37916  38.256   6.235   1.668
66388W        W37917  26.431  22.358   0.442
66389W        W37918  18.110  38.129   2.401
66390W        W37919  30.756  20.587   2.881
66391W        W37920  25.528  42.961   4.652
66392W        W37921  39.030  28.621   1.763
66393W        W37922  10.328  10.397  13.992
66394W        W37923   4.799  35.909   1.391
66395W        W37924   5.919  15.055   2.036
66396W        W37925  13.667   8.265  11.107
66397W        W37926   7.896   4.592  11.931
66398W        W37927  34.559   1.322   3.791
66399W        W37928   6.168  22.835  10.753
66400W        W37929  30.137   8.452  13.923
66401W        W37930  38.598   7.338   0.985
66402W        W37931  10.981  10.789  10.990
66403W        W37932  22.164  42.242  12.312
66404W        W37933  14.111  15.218  13.580
66405W        W37934  37.075  40.606   3.835
66406W        W37935   3.177  29.369  13.577
66407W        W37936   4.936  36.882   3.103
66408W        W37937  17.794   7.716   2.250
66409W        W37938  40.069  29.957   0.303
66410W        W37939   8.265   2.377  12.843
66411W        W37940  21.207  10.903  10.705
66412W        W37941  32.550   4.738  12.293
66413W        W37942  20.672  18.940   0.860
66414W        W37943  30.866   9.303   2.757
66415W        W37944  17.832  35.897  12.504
66416W        W37945  28.949  15.274   0.295
66417W        W37946   6.840  22.504   2.279
66418W        W37947  11.366  29.946  10.682
66419W        W37948  19.679  14.734   5.127
66420W        W37949  36.393  17.729   4.296
66421W        W37950  17.155   6.757  14.762
66422W        W37951   3.761   3.540  14.838
66423W        W37952   8.374  32.361  12.581
66424W        W37953  31.006  12.368   2.829
66425W        W37954  43.743  22.150   2.559
66426W        W37955  30.061  13.119  10.613
66427W        W37956  16.171  30.266  13.034
66428W        W37957  31.237   6.222   4.904
66429W        W37958  16.305  39.352  11.399
66430W        W37959  20.115  31.985  14.370
66431W        W37960  23.781  35.004   4.210
66432W        W37961   7.025  35.391   2.321
66433W        W37962  16.781   2.848  12.423
66434W        W37963  27.454  42.777  13.056
66435W        W37964  44.581  14.473   1.656
66436W        W37965  19.499   5.895  12.510
66437W        W37966  37.962  44.733  14.448
66438W        W37967  41.689  23.422  10.330
66439W        W37968  44.995   6.729  14.005
66440W        W37969  11.205   1.360   4.550
66441W        W37970  18.242  42.346  14.734
66442W        W37971  23.204  23.504   0.795
66443W        W37972  11.254  44.687   2.366
66444W        W37973   7.145  18.559   0.867
66445W        W37974  24.191  44.997   4.603
66446W        W37975   2.865  29.192   1.124
66447W        W37976  33.140  42.266  14.292
66448W        W37977   4.828  30.337  11.449
66449W        W37978  28.001  26.207  14.082
66450W        W37979   3.819  27.039  11.416
66451W        W37980   5.731  35.185   0.797
66452W        W37981  11.707  43.789  12.967
66453W        W37982  34.629  17.426   1.785
66454W        W37983  21.195  25.088   1.058
66455W        W37984  11.741  29.455  12.816
66456W        W37985  42.947   3.176  11.119
66457W        W37986  34.774  23.699  12.509
66458W        W37987  39.889  32.530   1.702
66459W        W37988  40.720  18.490  14.261
66460W        W37989   5.020  41.044   3.133
66461W        W37990  11.693  34.492  11.998
66462W        W37991  21.619  28.938   4.282
66463W        W37992  35.406   4.736   3.783
66464W        W37993   4.781  11.157   0.313
66465W        W37994  42.312   0.894   1.432
66466W        W37995  22.226   3.785  10.706
66467W        W37996   9.715  19.636   0.056
66468W        W37997  15.852  26.868  11.188
66469W        W37998   2.184   8.635   0.348
66470W        W37999  34.926   1.155  10.586
66471W        W38000   2.485  17.651  12.575
66472W        W38001  11.203   5.998  13.559
66473W        W38002  42.706   4.963  13.063
66474W        W38003  17.806  29.650   3.209
66475W        W38004  34.813   2.829  11.501
66476W        W38005  21.145  29.474   1.745
66477W        W38006  42.629  28.662  12.204
66478W        W38007  25.248  32.670  11.096
66479W        W38008  17.688  28.413  11.495
66480W        W38009   0.268  29.735  12.571
66481W        W38010  23.515  38.844  11.028
66482W        W38011  27.537   5.272  11.582
66483W        W38012  33.644  33.545  11.642
66484W        W38013   0.788  36.606  13.386
66485W        W38014  31.551  21.710  11.584
66486W        W38015  10.935  14.808   3.580
66487W        W38016  36.385  11.344  14.054
66488W        W38017  43.005   1.781  14.050
66489W        W38018  36.239  21.200  13.462
66490W        W38019   5.473  31.554   0.813
66491W        W38020   2.785  24.186  12.531
66492W        W38021  33.987  19.315   3.849
66493W        W38022  36.017   2.209   4.376
66494W        W38023  28.055   5.633   3.855
66495W        W38024  15.858  27.860  14.928
66496W        W38025  29.456  22.913  12.974
66497W        W38026  20.396  37.649   4.923
66498W        W38027  41.361  17.866  13.115
66499W        W38028  37.709  11.254  10.241
66500W        W38029  10.850  32.090  11.127
66501W        W38030  12.732  25.149   3.487
66502W        W38031  38.131  20.034  14.466
66503W        W38032  35.666   8.022  10.771
66504W        W38033   5.045  16.165  11.700
66505W        W38034  17.053  23.809   0.859
66506W        W38035   9.588   4.338  13.089
66507W        W38036   1.976   6.588  11.054
66508W        W38037  12.735  12.213  14.425
66509W        W38038  21.527  39.388  13.528
66510W        W38039   9.688   4.202   2.177
66511W        W38040  44.034  21.928   2.918
66512W        W38041  38.550  29.067   4.599
66513W        W38042  38.174  11.809  14.439
66514W        W38043  34.061  41.250  13.811
66515W        W38044  16.236  19.463   9.782
66516W        W38045  26.608  43.014   0.466
66517W        W38046  26.196  19.155   3.964
66518W        W38047  22.192  27.061   2.173
66519W        W38048   6.151  35.789  11.694
66520W        W38049   6.138  18.737  13.932
66521W        W38050  34.969  37.583   2.553
66522W        W38051  19.598  27.677  14.506
66523W        W38052  35.172  44.483  13.776
66524W        W38053  17.783  33.035  13.562
66525W        W38054  28.005  19.711   3.735
66526W        W38055  21.691  11.324  13.360
66527W        W38056   3.992   7.780   0.338
66528W        W38057  18.733  38.824  10.267
66529W        W38058  16.723  39.968   4.826
66530W        W38059   1.874  13.354  13.296
66531W        W38060  14.286  25.516  12.498
66532W        W38061  11.084  24.077  14.426
66533W        W38062   1.840  44.877  12.550
66534W        W38063  42.213  38.083   3.651
66535W        W38064   8.277  20.926   2.226
66536W        W38065  28.904   1.299   0.199
66537W        W38066  30.966  16.424   4.559
66538W        W38067  21.443  30.915   1.812
66539W        W38068   5.690  18.255  11.549
66540W        W38069   3.460  15.389   2.200
66541W        W38070  20.310   8.042  13.969
66542W        W38071  11.783  11.271   0.333
66543W        W38072  28.779   6.648  12.666
66544W        W38073  38.444  24.219  11.365
66545W        W38074  36.124  12.797  13.909
66546W        W38075   7.277  26.224   3.735
66547W        W38076  29.506  20.638   2.603
66548W        W38077  10.671  31.633  13.224
66549W        W38078  11.121  10.558  13.263
66550W        W38079  16.796  37.373   4.741
66551W        W38080   0.963  32.500  10.851
66552W        W38081  15.202  25.395   4.796
66553W        W38082  22.102  10.852   3.735
66554W        W38083  12.617   3.822   2.394
66555W        W38084  23.680  37.812  12.018
66556W        W38085  27.146  29.093   2.680
66557W        W38086   1.323  41.386  12.612
66558W        W38087  35.168  23.973  12.723
66559W        W38088  32.656  28.568   0.961
66560W        W38089  41.546   7.728   4.314
66561W        W38090  11.295  13.848   1.390
66562W        W38091  29.148   5.954  11.522
66563W        W38092  39.530  20.409   2.155
66564W        W38093  31.425   5.544  10.675
66565W        W38094  44.458   9.217  12.958
66566W        W38095   0.616  40.550   2.706
66567W        W38096  28.649  43.506   1.701
66568W        W38097  13.266  17.907  10.316
66569W        W38098  12.979  13.492  13.987
66570W        W38099  24.460  20.141   4.560
66571W        W38100  16.770   0.731   1.216
66572W        W38101  22.150  22.720   1.352
66573W        W38102  31.552  12.881  13.273
66574W        W38103   5.251   5.417   1.898
66575W        W38104   7.917  29.738  10.648
66576W        W38105  39.425  28.922   0.030
66577W        W38106  14.192   6.667  14.696
66578W        W38107  21.524  11.812   4.033
66579W        W38108  10.170  20.099   1.709
66580W        W38109   0.295  24.237   1.258
66581W        W38110  15.145  27.056  10.781
66582W        W38111  31.944  16.110   0.051
66583W        W38112  27.080  18.257  14.754
66584W        W38113  40.876  15.298   3.230
66585W        W38114  29.603  10.743   0.927
66586W        W38115  43.869  24.920  14.826
66587W        W38116  44.492  24.113  12.065
66588W        W38117  35.600  33.082  10.740
66589W        W38118   3.117  31.980  14.998
66590W        W38119   0.472  15.025  12.895
66591W        W38120  34.061  31.553   0.848
66592W        W38121   2.696  29.986   2.577
66593W        W38122   8.423  25.581   2.453
66594W        W38123   3.226   8.933  10.718
66595W        W38124   1.398  18.062  11.231
66596W        W38125  34.149  24.993  13.484
66597W        W38126  39.947   9.322   4.760
66598W        W38127  17.140   4.902  13.649
66599W        W38128  21.221  23.078  10.758
66600W        W38129  23.180  27.495   4.743
66601W        W38130  14.350  18.444  10.545
66602W        W38131   3.699  42.394  12.884
66603W        W38132  38.525  29.044   0.454
66604W        W38133  33.446  20.094  10.725
66605W        W38134  28.565   2.678   1.797
66606W        W38135  27.053  14.857  11.483
66607W        W38136  40.756  44.337  12.760
66608W        W38137  13.632   4.700  10.997
66609W        W38138  20.276  41.425  14.478
66610W        W38139  19.196  14.809   0.862
66611W        W38140  14.448  19.278  10.226
66612W        W38141  32.977  13.062   3.180
66613W        W38142   9.094   4.403   3.232
66614W        W38143   8.801  13.564   3.166
66615W        W38144  17.260   1.469  13.539
66616W        W38145  32.569   2.693   2.605
66617W        W38146  10.480  37.060   1.073
66618W        W38147  27.408  11.863  10.270
66619W        W38148  41.850   2.176  12.057
66620W        W38149   0.234  29.994  14.710
66621W        W38150   2.056  21.531   0.894
66622W        W38151  23.651   3.432  14.253
66623W        W38152  35.004  26.629  13.406
66624W        W38153  19.138   2.886  14.129
66625W        W38154  21.151  28.438   3.520
66626W        W38155   3.067  33.014   0.383
66627W        W38156  15.136  44.254   0.900
66628W        W38157  11.847  27.587   3.404
66629W        W38158   9.053  22.578  14.520
66630W        W38159  27.946  20.004   4.153
66631W        W38160  18.796  21.992  12.107
66632W        W38161  36.484  31.058   1.352
66633W        W38162  35.960  41.822  11.626
66634W        W38163  28.445  12.188   3.229
66635W        W38164  17.264  43.303   2.725
66636W        W38165  19.556   1.115   0.812
66637W        W38166   3.056  21.786  13.883
66638W        W38167  30.838  24.656  13.482
66639W        W38168  38.745  12.870  13.570
66640W        W38169   8.882  34.155  13.822
66641W        W38170  16.928  43.928  12.974
66642W        W38171  16.006  26.205  10.793
66643W        W38172  31.252  40.673  13.509
66644W        W38173  14.446  41.052   4.803
66645W        W38174   9.908  14.011  11.560
66646W        W38175  25.724  21.058  13.008
66647W        W38176   8.926  25.410  13.337
66648W        W38177  25.059  32.004   3.942
66649W        W38178  20.556  29.990  11.340
66650W        W38179  23.080  17.171  12.274
66651W        W38180  43.284  43.794  13.385
66652W        W38181   0.156  30.770   3.167
66653W        W38182   1.891  34.581   2.508
66654W        W38183  42.928   0.825   2.767
66655W        W38184  37.746  40.016  14.928
66656W        W38185  13.331  26.245   1.082
66657W        W38186  25.959  11.909   2.537
66658W        W38187  22.326  38.077  12.398
66659W        W38188  43.874  39.262   0.234
66660W        W38189  25.608  19.505  14.957
66661W        W38190  35.831  39.217   2.326
66662W        W38191   0.526  37.903  13.809
66663W        W38192  39.779  41.506  13.960
66664W        W38193  22.251  24.661  11.849
66665W        W38194  26.693  32.034   4.600
66666W        W38195  11.082  26.680   3.972
66667W        W38196  12.669  20.518   3.880
66668W        W38197  41.712  37.942   2.255
66669W        W38198   4.222  26.478  11.932
66670W        W38199  36.611  26.329  12.517
66671W        W38200  31.152  34.880   5.291
66672W        W38201  21.605  14.900   1.213
66673W        W38202  20.015  13.137  13.644
66674W        W38203  17.667  14.914  12.562
66675W        W38204   9.636  40.765  12.026
66676W        W38205  14.212  24.250   0.457
66677W        W38206  11.842  16.286  14.897
66678W        W38207   0.469  25.595  13.650
66679W        W38208  28.594  42.044  13.950
66680W        W38209  30.752   3.361  11.183
66681W        W38210   4.776  14.575   4.547
66682W        W38211  16.176  11.713   3.655
66683W        W38212  36.555   5.660  13.796
66684W        W38213  25.243   5.394   1.579
66685W        W38214  15.317  32.849  12.009
66686W        W38215  23.637  35.137  13.331
66687W        W38216  30.685  10.589  14.442
66688W        W38217  36.573  20.306   1.343
66689W        W38218  18.007  17.087  12.386
66690W        W38219  33.633   6.378  10.677
66691W        W38220  39.915  12.280   0.012
66692W        W38221  11.603  30.041  13.384
66693W        W38222  34.181  14.782   1.693
66694W        W38223  26.512  35.353   2.309
66695W        W38224  19.914   3.588   3.611
66696W        W38225  15.664  14.746   3.354
66697W        W38226  39.886  41.712  11.070
66698W        W38227  20.015  28.949  13.966
66699W        W38228  27.893  43.751   4.354
66700W        W38229  44.292  37.436  13.971
66701W        W38230   6.808  29.192  12.878
66702W        W38231  36.476  30.121   4.252
66703W        W38232  16.463  21.533   1.284
66704W        W38233  28.101  35.518   2.730
66705W        W38234   8.914  34.560   3.461
66706W        W38235  22.020  34.218   2.303
66707W        W38236  25.657  43.394  11.559
66708W        W38237  13.304   7.853  14.328
66709W        W38238   0.786  39.979  10.719
66710W        W38239  25.654  13.288  12.438
66711W        W38240  38.481  35.420  14.448
66712W        W38241  43.317  15.803  11.771
66713W        W38242  37.148  44.007  13.808
66714W        W38243   2.174  36.036   4.583
66715W        W38244   0.909   5.860   3.399
66716W        W38245  13.091  37.587   0.224
66717W        W38246   4.384  41.317  10.483
66718W        W38247  33.411  43.799  11.633
66719W        W38248  36.624  13.295  10.901
66720W        W38249  11.345   7.454   2.762
66721W        W38250   2.840  24.285   1.878
66722W        W38251  43.062  11.295  13.800
66723W        W38252   3.524  30.917   2.219
66724W        W38253  38.948  26.667  13.803
66725W        W38254  32.345  17.992   2.235
66726W        W38255  19.236  21.557   4.185
66727W        W38256  10.392  25.698  11.750
66728W        W38257  23.986   3.413  13.329
66729W        W38258  42.142  27.460  10.542
66730W        W38259  35.077  31.733  11.564
66731W        W38260   5.744  25.574  14.496
66732W        W38261  44.245  23.965  14.863
66733W        W38262  23.436  24.151   2.753
66734W        W38263  22.029  12.592  12.113
66735W        W38264  18.390  22.655   2.284
66736W        W38265  16.268  24.724  11.267
66737W        W38266  19.876  30.449   4.984
66738W        W38267   3.148  35.937   2.829
66739W        W38268   9.219  12.370   4.068
66740W        W38269   7.106  39.472   0.007
66741W        W38270   0.801  42.238  13.029
66742W        W38271  31.038  26.685   3.842
66743W        W38272  38.799  34.632  11.429
66744W        W38273  42.072   9.585   3.210
66745W        W38274  43.564   7.211   3.230
66746W        W38275  44.965  10.467   1.450
66747W        W38276  43.917  42.582  11.213
66748W        W38277  14.360  32.447   3.518
66749W        W38278  20.799  15.540  11.136
66750W        W38279  13.944  35.446   4.749
66751W        W38280  14.112  43.330  11.620
66752W        W38281  43.937  26.180  13.514
66753W        W38282  12.692   0.451   2.413
66754W        W38283  16.662  29.577   0.941
66755W        W38284  37.545  24.511   4.786
66756W        W38285  42.020  12.096   2.872
66757W        W38286  16.698   7.033   2.281
66758W        W38287   5.952  21.751   2.322
66759W        W38288  14.381  29.728  11.164
66760W        W38289  21.068  34.998  11.873
66761W        W38290   6.623  38.401   9.909
66762W        W38291   3.365  19.101  10.658
66763W        W38292  34.366  17.773   0.751
66764W        W38293  18.793  39.389  13.993
66765W        W38294  37.099  24.440  10.766
66766W        W38295  20.633  34.032  10.737
66767W        W38296  11.152  11.799   0.528
66768W        W38297  39.118  10.971   2.308
66769W        W38298  11.940  17.492  12.445
66770W        W38299   3.539  19.650   1.313
66771W        W38300  43.302  21.634  12.358
66772W        W38301  17.294  16.711   0.973
66773W        W38302  39.270  23.251  12.120
66774W        W38303  15.300  11.550  10.177
66775W        W38304  19.698  18.671  10.916
66776W        W38305  23.653   1.262  10.689
66777W        W38306   9.168  18.742  11.086
66778W        W38307  22.746   8.859   0.892
66779W        W38308  36.691   7.807  14.344
66780W        W38309   8.451  13.138  12.840
66781W        W38310  37.949  41.056   4.943
66782W        W38311   7.717  31.203   0.207
66783W        W38312   3.461  24.958   3.408
66784W        W38313  26.520  20.893  10.094
66785W        W38314  21.052  27.522  10.067
66786W        W38315  13.567  11.992   1.307
66787W        W38316  19.041  29.946   0.431
66788W        W38317  35.476  32.082  12.961
66789W        W38318   7.140  38.426  10.652
66790W        W38319  34.366  13.328   2.762
66791W        W38320  23.337  35.555   4.599
66792W        W38321  42.373  31.940   2.810
66793W        W38322  23.014  37.343   1.355
66794W        W38323  15.680   4.821  14.397
66795W        W38324  17.577  34.775   4.804
66796W        W38325  14.768  38.140  11.584
66797W        W38326  34.455   9.418   0.831
66798W        W38327  11.200  40.263  11.115
66799W        W38328   4.898   3.811  14.960
66800W        W38329  14.085   6.924  14.241
66801W        W38330  42.217   4.188   0.900
66802W        W38331  40.287  17.423   2.592
66803W        W38332  12.643  16.618   2.853
66804W        W38333   3.455  35.338  10.195
66805W        W38334  27.904  33.469  14.506
66806W        W38335   1.261  29.157   3.388
66807W        W38336  17.999  14.929   2.120
66808W        W38337  36.610   4.917  14.826
66809W        W38338   5.554  17.345  10.818
66810W        W38339  39.928  33.098   0.392
66811W        W38340  26.152  38.101  14.227
66812W        W38341   1.235  28.495  12.597
66813W        W38342  35.076  16.950  13.822
66814W        W38343   6.867  14.574   3.697
66815W        W38344  41.441  36.857   4.231
66816W        W38345  20.490  41.802  10.489
66817W        W38346  26.626   5.528   0.317
66818W        W38347  28.370  13.120   1.863
66819W        W38348  16.315  31.362  10.716
66820W        W38349  34.611  12.841  12.851
66821W        W38350  28.088  19.298  12.149
66822W        W38351  40.445  43.246   0.042
66823W        W38352  41.101   7.653  14.298
66824W        W38353  11.196  12.495  14.880
66825W        W38354  41.921  14.242  12.436
66826W        W38355  41.484  23.080   3.757
66827W        W38356   4.386  43.227  13.963
66828W        W38357  18.703  10.047   0.952
66829W        W38358   1.021  37.204  12.080
66830W        W38359  24.183  38.820   0.164
66831W        W38360  32.622   1.002   2.131
66832W        W38361  32.462   5.427   0.417
66833W        W38362  24.826   3.167  12.929
66834W        W38363  33.400   5.523  13.569
66835W        W38364  15.141  35.008  14.390
66836W        W38365  10.649  27.812   3.974
66837W        W38366   0.004  27.907   4.888
66838W        W38367  17.680   4.025   1.913
66839W        W38368  15.585  18.719   4.869
66840W        W38369  33.497   5.872  11.753
66841W        W38370  33.372  20.081  12.113
66842W        W38371  34.187  23.018   2.237
66843W        W38372  24.081  26.085   4.830
66844W        W38373  17.287  40.871  14.463
66845W        W38374  44.457  18.081  14.542
66846W        W38375  10.145  30.872   5.130
66847W        W38376   6.318   3.147   3.227
66848W        W38377  24.154  44.440   4.642
66849W        W38378  22.705  29.962   0.347
66850W        W38379  36.552  35.615  14.451
66851W        W38380  32.194  10.012   5.097
66852W        W38381  29.409   3.810   0.174
66853W        W38382  16.360  10.557  11.348
66854W        W38383  14.750  21.486   0.338
66855W        W38384  10.427  31.610  14.066
66856W        W38385  13.281   7.368   2.262
66857W        W38386  36.329  27.068   0.415
66858W        W38387   4.907   2.391  14.402
66859W        W38388  20.951  17.025   4.902
66860W        W38389  33.754  14.130   4.651
66861W        W38390   1.397  35.941   0.464
66862W        W38391   4.658  29.910  14.439
66863W        W38392  23.416  23.064  11.065
66864W        W38393  32.100  21.087  10.132
66865W        W38394  31.094  25.040  14.436
66866W        W38395  41.788  33.340  13.781
66867W        W38396   8.681  22.939   4.154
66868W        W38397  27.724  26.175   4.734
66869W        W38398   6.320  14.740   0.004
66870W        W38399  33.278  18.191   3.750
66871W        W38400   0.978  15.344  14.620
66872W        W38401  20.537   0.852   0.383
66873W        W38402  38.270  25.190   4.617
66874W        W38403   9.340  39.759   2.473
66875W        W38404  27.223  28.645  11.514
66876W        W38405  23.701  27.491  13.504
66877W        W38406   1.413  19.050  13.109
66878W        W38407   2.113  11.644  11.651
66879W        W38408   6.244   6.527  13.817
66880W        W38409   2.319  33.662  13.570
66881W        W38410  43.977   8.738   2.269
66882W        W38411  38.583  27.549   1.168
66883W        W38412  20.357  14.320   3.313
66884W        W38413   2.359  32.601  10.741
66885W        W38414  26.229  37.359  12.555
66886W        W38415   1.793  38.434   1.325
66887W        W38416  12.694  31.153   2.233
66888W        W38417   1.762   5.969  12.336
66889W        W38418  44.201  35.823  14.926
66890W        W38419  43.024   9.885  14.465
66891W        W38420  32.579  33.418   3.286
66892W        W38421  15.071  33.682  12.955
66893W        W38422   2.025  13.853  10.651
66894W        W38423   7.835  18.052  13.808
66895W        W38424  24.512  28.165  11.081
66896W        W38425  33.496  26.623  14.682
66897W        W38426   1.003  40.529  13.026
66898W        W38427  28.632  19.173  13.849
66899W        W38428   3.774   6.527  14.166
66900W        W38429  20.184   8.422   4.702
66901W        W38430   5.964  26.326  11.727
66902W        W38431  25.556  25.695  10.793
66903W        W38432  18.330  11.190   1.793
66904W        W38433  19.830  29.927   0.969
66905W        W38434  37.434  34.964   0.422
66906W        W38435  27.609  40.936   4.166
66907W        W38436  37.445   4.930  10.949
66908W        W38437  11.986  26.284  14.854
66909W        W38438  38.949  43.536   4.896
66910W        W38439  26.608   6.709  14.616
66911W        W38440  32.577  37.576   0.977
66912W        W38441  34.434  34.559   1.928
66913W        W38442  42.927   6.497  12.961
66914W        W38443  23.557  37.371   3.117
66915W        W38444  28.142  44.287  12.896
66916W        W38445   4.729  26.926   3.988
66917W        W38446  39.772  33.855   1.255
66918W        W38447  19.322  24.112  12.508
66919W        W38448   8.381   5.618  12.370
66920W        W38449  37.194  31.043   1.966
66921W        W38450  13.765  34.072   4.559
66922W        W38451  22.584   4.830  14.773
66923W        W38452  28.692  43.895  14.269
66924W        W38453  19.159  37.882  13.529
66925W        W38454  25.204   3.157  10.616
66926W        W38455  31.462  38.028   2.863
66927W        W38456  21.228   9.238   4.744
66928W        W38457  43.140  33.497  11.597
66929W        W38458  31.797  17.772   4.691
66930W        W38459  14.723  32.975   1.063
66931W        W38460  16.284  43.518   4.108
66932W        W38461  31.961  16.305  12.992
66933W        W38462  36.502  31.919  10.076
66934W        W38463  41.335   9.663   4.485
66935W        W38464   7.808  12.748  13.537
66936W        W38465  26.706  30.404  12.481
66937W        W38466  28.534   3.424  13.979
66938W        W38467  34.936   7.462   4.561
66939W        W38468  11.150  39.803   3.911
66940W        W38469  31.519  29.916   2.419
66941W        W38470  16.647  22.136   4.120
66942W        W38471  42.857  14.561  10.733
66943W        W38472  10.245  21.063  12.698
66944W        W38473  38.176  16.177   3.216
66945W        W38474  25.562  27.164  13.162
66946W        W38475  34.085  12.140   4.668
66947W        W38476  13.632  15.614   0.891
66948W        W38477  40.046  31.317  14.935
66949W        W38478   3.302  36.919  14.791
66950W        W38479  30.640   4.990   5.150
66951W        W38480   3.469   4.281   1.647
66952W        W38481  17.111  32.032   1.791
66953W        W38482  33.527  40.299  12.235
66954W        W38483  19.251  16.881   3.651
66955W        W38484  22.323  10.090  13.543
66956W        W38485  31.136  29.105  13.481
66957W        W38486  30.418   4.516  14.602
66958W        W38487  20.455  22.614  12.421
66959W        W38488  21.881  31.540   0.277
66960W        W38489  24.144  32.073  10.830
66961W        W38490  29.735  29.941   4.063
66962W        W38491  12.213  21.512   2.376
66963W        W38492  19.086  12.913   4.566
66964W        W38493  33.857  38.498   1.947
66965W        W38494  12.262  27.422   1.240
66966W        W38495  26.192  40.470   1.372
66967W        W38496  24.582  32.239  10.588
66968W        W38497  41.409   2.474  12.887
66969W        W38498  17.248  32.009   3.714
66970W        W38499   3.313  12.404  12.897
66971W        W38500  27.098   8.438   4.347
66972W        W38501  20.109  18.031   4.075
66973W        W38502  25.473  36.249  10.742
66974W        W38503  13.048  29.414  14.443
66975W        W38504  40.167  42.523   4.628
66976W        W38505  35.084   6.967   4.642
66977W        W38506  26.998  31.418   0.383
66978W        W38507  31.508  28.915   0.478
66979W        W38508   1.903  30.999   4.799
66980W        W38509  23.193  20.233  11.557
66981W        W38510  32.092  26.913  10.292
66982W        W38511  18.600   6.590  14.349
66983W        W38512   5.773   6.654   0.844
66984W        W38513   1.881  15.963   0.647
66985W        W38514  33.301  25.555   3.187
66986W        W38515  39.494  36.525  11.552
66987W        W38516  29.041  18.810  12.612
66988W        W38517  10.020   9.817  14.970
66989W        W38518  18.304  38.499  11.100
66990W        W38519  16.189  31.869  13.444
66991W        W38520   4.916   8.634  10.288
66992W        W38521   9.182  41.852  14.343
66993W        W38522   3.974  44.534  14.565
66994W        W38523  39.893  23.768   0.483
66995W        W38524  37.413  32.961  11.262
66996W        W38525  40.922  34.536  14.587
66997W        W38526   8.757   5.223  10.762
66998W        W38527   5.379   1.667  11.801
66999W        W38528  30.634  31.912   4.548
67000W        W38529   1.364  39.053   2.370
67001W        W38530   5.869  34.188  13.567
67002W        W38531  33.151   8.680  11.100
67003W        W38532  13.250  17.056  12.358
67004W        W38533  43.266  20.573   3.852
67005W        W38534   6.773  33.117   0.015
67006W        W38535  31.231  23.755  12.567
67007W        W38536   7.424  33.366   2.180
67008W        W38537  35.050  26.999  11.374
67009W        W38538  31.444  31.994   3.582
67010W        W38539   1.349  29.642  13.465
67011W        W38540  13.547  42.940   2.830
67012W        W38541  16.952  12.502  10.328
67013W        W38542   3.376  30.134   3.773
67014W        W38543   3.718  19.764   3.684
67015W        W38544  29.897  22.504   0.858
67016W        W38545   1.446  44.839   2.760
67017W        W38546  43.984  14.902   1.198
67018W        W38547  10.807  30.053   4.123
67019W        W38548  37.546  28.004  14.358
67020W        W38549  30.679  30.637  11.027
67021W        W38550  29.027  26.230  11.055
67022W        W38551  44.494  22.113  13.007
67023W        W38552   9.601  38.722  12.997
67024W        W38553  20.818  19.782   1.896
67025W        W38554  25.443   1.508  13.175
67026W        W38555   4.469  15.152  13.565
67027W        W38556  39.483  14.751  12.354
67028W        W38557  38.388  29.864  14.881
67029W        W38558   8.288  37.553   0.038
67030W        W38559  36.408  34.613   4.756
67031W        W38560  36.893  39.894  14.453
67032W        W38561  44.288  27.485  12.048
67033W        W38562   5.794   5.416   4.950
67034W        W38563  32.814  31.360  12.957
67035W        W38564  16.209  39.190  10.034
67036W        W38565  19.219  19.062   2.116
67037W        W38566  34.585  31.962   0.353
67038W        W38567   6.945  42.966  12.912
67039W        W38568  18.005  39.076   3.406
67040W        W38569  22.553   9.223   3.574
67041W        W38570  34.611   9.196   2.753
67042W        W38571  10.080  31.965  10.721
67043W        W38572  23.751  32.232   1.700
67044W        W38573  40.731  20.717  12.883
67045W        W38574  37.948  34.655   4.530
67046W        W38575  24.951  26.586   4.061
67047W        W38576  14.942   5.349  11.099
67048W        W38577   3.635  39.261   2.165
67049W        W38578   6.699   0.975  12.758
67050W        W38579   5.694  30.872   3.203
67051W        W38580  16.914   7.856   3.658
67052W        W38581  25.082  27.145  10.680
67053W        W38582  15.592  19.119  11.066
67054W        W38583  10.823   5.276   2.988
67055W        W38584  28.469  11.141  12.737
67056W        W38585  39.310  16.963  12.700
67057W        W38586  14.480  33.832   2.707
67058W        W38587   3.163  42.985   0.471
67059W        W38588  29.203   6.978  11.598
67060W        W38589  18.862  35.798  11.110
67061W        W38590  44.877  44.451  13.293
67062W        W38591  18.361   4.149  10.809
67063W        W38592  28.680  44.904  14.062
67064W        W38593  26.264  37.923   4.152
67065W        W38594  39.216   4.463   3.650
67066W        W38595  13.622  23.664   2.098
67067W        W38596  32.156  14.284   0.829
67068W        W38597  37.216  26.476  14.558
67069W        W38598   4.505  15.577   0.850
67070W        W38599  16.697  23.325   0.388
67071W        W38600  41.832  27.824  10.773
67072W        W38601  12.872  24.620  13.012
67073W        W38602  38.551  40.581  11.072
67074W        W38603  12.405  41.370  13.368
67075W        W38604  15.106   4.264  10.682
67076W        W38605  25.978   9.893   0.486
67077W        W38606  12.955  43.895  14.325
67078W        W38607   6.420  15.741   1.865
67079W        W38608  32.878   9.182   0.429
67080W        W38609  30.910  35.907   0.547
67081W        W38610  36.668  38.864  11.488
67082W        W38611  25.488  35.688   5.006
67083W        W38612  32.827  12.309  11.337
67084W        W38613  24.319  24.923  14.379
67085W        W38614   4.535  40.374   4.214
67086W        W38615  23.810  32.086  13.585
67087W        W38616  35.802  28.130   2.927
67088W        W38617  15.195  10.834  13.383
67089W        W38618  13.121  35.845  12.129
67090W        W38619  42.574  14.346  13.055
67091W        W38620   3.232  28.503   4.144
67092W        W38621   0.933   4.184  13.865
67093W        W38622   8.530  34.875   3.338
67094W        W38623  23.492  13.220  10.783
67095W        W38624  39.374   4.453   1.156
67096W        W38625  14.874  43.262  12.150
67097W        W38626   4.494  10.333   2.375
67098W        W38627  14.777  13.668  14.212
67099W        W38628   2.774  41.484  14.362
67100W        W38629  17.223  22.965  12.525
67101W        W38630   0.741   8.742  12.025
67102W        W38631  24.969  12.755   3.083
67103W        W38632  35.611  12.414   4.127
67104W        W38633  17.263  38.406   1.689
67105W        W38634  26.068   5.479   1.794
67106W        W38635   0.774  24.935  13.529
67107W        W38636  35.152  39.434   4.340
67108W        W38637  21.165   8.302   2.969
67109W        W38638   3.575  32.663  10.989
67110W        W38639  37.495  41.011   4.647
67111W        W38640  34.145  32.929   1.493
67112W        W38641   2.783  39.095   1.482
67113W        W38642  36.871  29.583  12.025
67114W        W38643  34.935  38.301   4.560
67115W        W38644  39.197  35.567   4.562
67116W        W38645   6.527  44.101   3.446
67117W        W38646  13.826   4.857   2.714
67118W        W38647   9.733  32.713  13.067
67119W        W38648   2.781  41.915  10.755
67120W        W38649  30.581   6.311   1.394
67121W        W38650   9.836  10.841  11.400
67122W        W38651   5.660  28.708   0.486
67123W        W38652  30.653   1.441   2.943
67124W        W38653  22.250  19.330   5.019
67125W        W38654  32.005  19.582  13.332
67126W        W38655  14.041   8.779   0.729
67127W        W38656  20.091   0.543  11.699
67128W        W38657   0.474  26.969  14.704
67129W        W38658  12.712  14.232  13.154
67130W        W38659  14.803  32.730  11.910
67131W        W38660  16.090   1.373  11.517
67132W        W38661  10.407  26.679   1.412
67133W        W38662   4.741  13.674   3.403
67134W        W38663  39.242  39.305   4.182
67135W        W38664  12.803  41.946  14.022
67136W        W38665  23.678   0.041   0.825
67137W        W38666  42.298  35.148  13.469
67138W        W38667   1.480  41.952   4.641
67139W        W38668  29.308   3.000   2.656
67140W        W38669  41.753  41.589   0.427
67141W        W38670   6.741   4.230  12.944
67142W        W38671  12.675  37.788   0.474
67143W        W38672  24.522  12.565   1.587
67144W        W38673  39.302  41.629   0.881
67145W        W38674  12.738  34.551  11.569
67146W        W38675  14.720  30.099   1.480
67147W        W38676  11.780  36.191  12.689
67148W        W38677  35.394  30.752  10.708
67149W        W38678  36.528  28.998   3.664
67150W        W38679  23.025   2.864   2.933
67151W        W38680  28.507  26.415  12.103
67152W        W38681  10.661  32.666   0.053
67153W        W38682  33.620   2.035  14.344
67154W        W38683  21.651  12.762  11.717
67155W        W38684  33.538  26.621   1.185
67156W        W38685  26.976  30.162   3.856
67157W        W38686  36.486   9.874   0.345
67158W        W38687  43.948  18.014   2.820
67159W        W38688   0.039  41.421  13.647
67160W        W38689  36.565  30.497   1.276
67161W        W38690  42.347  12.486   4.354
67162W        W38691   6.736  38.794  11.201
67163W        W38692  24.038  26.108   3.782
67164W        W38693   3.971  25.109   4.220
67165W        W38694   7.721  32.469   2.364
67166W        W38695  20.794  21.139   4.153
67167W        W38696  21.205  26.396  13.548
67168W        W38697  32.028   4.599   2.644
67169W        W38698  22.888  43.553   4.575
67170W        W38699  28.127  37.477   4.038
67171W        W38700   2.403  26.559  11.126
67172W        W38701  32.877  12.318   3.211
67173W        W38702  41.994   9.551  11.468
67174W        W38703  44.365   3.193  12.450
67175W        W38704   5.391  29.164  11.219
67176W        W38705  13.121  10.680   4.383
67177W        W38706  27.031  24.602   0.333
67178W        W38707  11.273  21.281   4.274
67179W        W38708  25.230   9.983  10.683
67180W        W38709   3.990   0.136  13.014
67181W        W38710  16.671  33.070  12.184
67182W        W38711   5.853  41.874   3.223
67183W        W38712  27.100  26.181  12.561
67184W        W38713  15.713  22.289  14.885
67185W        W38714  33.851  39.080   2.830
67186W        W38715   3.592  22.708   2.578
67187W        W38716  12.764  35.020   4.057
67188W        W38717  18.224  20.611   3.804
67189W        W38718  12.129   1.895   1.534
67190W        W38719  33.849   4.916   4.568
67191W        W38720  20.693  37.591   9.821
67192W        W38721  37.046  23.014  10.710
67193W        W38722   4.757   4.357   3.193
67194W        W38723  27.568  40.348   1.766
67195W        W38724  43.849   9.200   0.893
67196W        W38725  34.309  27.886  12.526
67197W        W38726   9.807  10.446  12.366
67198W        W38727   8.143  29.823   0.873
67199W        W38728   4.400  38.998  13.310
67200W        W38729  12.719  27.642   1.337
67201W        W38730  31.366   7.783  10.744
67202W        W38731  16.178  22.528   1.693
67203W        W38732  24.820  33.982   0.556
67204W        W38733  13.307  44.704   0.022
67205W        W38734  34.923   4.353   3.338
67206W        W38735   9.981  14.771   4.687
67207W        W38736  21.075  37.818   2.795
67208W        W38737  12.214   3.771  13.894
67209W        W38738   4.597  37.430   1.364
67210W        W38739  38.253  20.009   3.903
67211W        W38740  31.836   0.413   2.594
67212W        W38741   9.765   0.318   1.790
67213W        W38742   0.056  27.095  13.548
67214W        W38743  37.356  42.401  13.107
67215W        W38744  10.966  14.106  13.315
67216W        W38745  12.977  20.484  11.742
67217W        W38746  34.650  20.250  14.806
67218W        W38747  21.498  35.603   1.502
67219W        W38748   5.363   9.824   2.791
67220W        W38749  13.596  44.280   0.304
67221W        W38750  43.759  16.246   2.236
67222W        W38751  26.451   1.760   1.927
67223W        W38752  41.818  26.482  10.340
67224W        W38753   6.474   9.792  13.838
67225W        W38754  40.539  40.011  14.297
67226W        W38755  17.277  36.569  12.055
67227W        W38756   7.220   3.967   3.601
67228W        W38757   6.349   2.122   2.127
67229W        W38758  25.104  21.100  13.847
67230W        W38759  33.065   5.320  12.039
67231W        W38760  37.105  34.487   4.208
67232W        W38761   5.408  26.925   0.409
67233W        W38762   9.644  11.258  12.850
67234W        W38763  37.108   8.973   3.877
67235W        W38764  37.892  18.542   3.341
67236W        W38765   5.274   8.346  14.427
67237W        W38766  30.047  28.426   2.500
67238W        W38767  17.056  31.365   4.214
67239W        W38768  28.209  18.812  11.551
67240W        W38769  24.323  27.712   0.133
67241W        W38770  42.752  43.130  10.636
67242W        W38771   5.937  25.745  14.020
67243W        W38772  33.689  22.833  14.325
67244W        W38773  14.671  13.363  11.165
67245W        W38774  27.448  13.681   2.623
67246W        W38775  33.065  16.027   0.008
67247W        W38776  26.390   4.358  12.428
67248W        W38777  16.573  22.799   9.784
67249W        W38778  41.000  26.245   3.808
67250W        W38779  10.326  18.339   1.679
67251W        W38780  27.854  35.944   4.134
67252W        W38781  41.356  35.329   1.138
67253W        W38782   4.466  32.566   3.585
67254W        W38783   6.368  20.054  12.833
67255W        W38784  32.707  30.882   0.853
67256W        W38785   8.340  12.810  11.002
67257W        W38786   5.865  24.445  11.050
67258W        W38787   7.236  24.689   4.327
67259W        W38788  13.306  25.756   1.285
67260W        W38789   4.221  42.846   0.395
67261W        W38790   1.824   6.505   0.295
67262W        W38791  15.742   2.766  10.612
67263W        W38792   3.339   1.954   1.874
67264W        W38793  32.600  21.126  13.930
67265W        W38794  38.978   0.242   3.340
67266W        W38795  30.421  15.064   1.817
67267W        W38796  19.757   6.603  10.764
67268W        W38797   8.244   3.303  13.921
67269W        W38798  21.868  30.107   4.811
67270W        W38799   8.158  13.226   1.192
67271W        W38800   1.582  40.459  12.303
67272W        W38801  40.335  40.895  12.000
67273W        W38802  40.339  39.040  14.717
67274W        W38803  38.374  30.571  11.835
67275W        W38804  44.504  24.405   2.634
67276W        W38805  41.088  34.686   3.190
67277W        W38806   3.416   0.957  12.401
67278W        W38807  16.224   2.972  10.521
67279W        W38808  44.398   2.763  13.376
67280W        W38809  12.098  17.690   4.621
67281W        W38810  35.145  42.318  12.447
67282W        W38811  34.791  17.064   1.201
67283W        W38812  21.482   5.782   3.768
67284W        W38813  36.828  36.844   0.727
67285W        W38814  36.543  44.502   1.955
67286W        W38815  32.047  17.545   0.494
67287W        W38816  27.497  24.102   3.217
67288W        W38817  20.536  42.844   2.786
67289W        W38818   5.861   1.286  11.553
67290W        W38819   2.870  35.547  12.916
67291W        W38820  26.145  33.026   3.671
67292W        W38821  14.094  23.653  10.506
67293W        W38822  14.768   9.476   3.167
67294W        W38823  19.813  27.957   2.827
67295W        W38824  39.338  22.682  13.762
67296W        W38825  36.405  34.598  14.503
67297W        W38826  42.265  27.606   1.945
67298W        W38827  22.946  21.569  11.596
67299W        W38828  16.768  12.248   1.242
67300W        W38829  17.542  44.589  13.440
67301W        W38830  35.576  38.545   1.208
67302W        W38831  11.584  40.030   4.224
67303W        W38832  15.509  31.053  14.025
67304W        W38833  29.778  26.440   2.759
67305W        W38834  36.601  24.113  12.258
67306W        W38835  28.223   1.978  13.359
67307W        W38836  37.875  24.659  10.672
67308W        W38837  35.563  10.091  14.328
67309W        W38838  43.038  36.739  14.262
67310W        W38839  29.303   6.253  13.799
67311W        W38840   7.793   1.535  13.006
67312W        W38841  22.749  38.331   3.287
67313W        W38842  41.421  37.346   1.367
67314W        W38843  37.988  10.935   0.311
67315W        W38844   8.366  20.380   2.907
67316W        W38845   6.417  17.067   4.990
67317W        W38846  26.709  33.049   2.621
67318W        W38847  30.723   4.707  12.894
67319W        W38848  23.172  16.322   2.588
67320W        W38849   2.633   0.217  12.900
67321W        W38850  36.071  39.895   0.029
67322W        W38851  28.590   2.248  10.532
67323W        W38852  39.095  27.503   4.017
67324W        W38853  12.290  26.279  14.421
67325W        W38854  34.627   9.341  13.549
67326W        W38855  41.235  42.716   1.370
67327W        W38856  36.942  16.651  14.482
67328W        W38857  36.045  13.028  12.817
67329W        W38858   4.805  40.796  12.620
67330W        W38859  37.401  23.731   3.857
67331W        W38860  19.760  42.521  12.044
67332W        W38861  27.534  22.967   2.453
67333W        W38862  21.486  14.227  14.785
67334W        W38863   9.383  17.612  12.869
67335W        W38864  13.085   7.800  13.337
67336W        W38865  37.625  34.141   3.233
67337W        W38866  21.229  21.585   0.908
67338W        W38867  29.986  19.331   2.834
67339W        W38868  30.045  19.630  12.095
67340W        W38869  42.199  25.065  14.534
67341W        W38870  28.891  11.431  11.526
67342W        W38871  17.570  34.650  10.609
67343W        W38872  26.434  26.765  11.266
67344W        W38873   8.217  19.088   3.191
67345W        W38874  33.543  25.139   1.043
67346W        W38875   2.975  41.543  11.246
67347W        W38876  33.165  41.927   4.741
67348W        W38877  12.267  30.912  10.513
67349W        W38878   9.912  16.815   4.479
67350W        W38879   5.197  41.999   0.714
67351W        W38880   6.309  20.728  11.723
67352W        W38881  24.531  44.592  10.906
67353W        W38882  32.425  30.573   4.535
67354W        W38883   0.279  21.279  11.102
67355W        W38884  37.111  17.932  13.451
67356W        W38885  29.923  20.097   4.114
67357W        W38886  12.470  28.581  11.030
67358W        W38887  32.074  17.794  11.574
67359W        W38888  17.388  39.635   0.388
67360W        W38889  21.300  38.001   3.220
67361W        W38890  41.768  17.657  12.855
67362W        W38891  27.433  23.429  13.373
67363W        W38892  37.694   9.973  12.953
67364W        W38893  43.799   9.231  10.696
67365W        W38894  43.618  13.154   3.841
67366W        W38895  19.324  14.911   4.786
67367W        W38896  22.627  33.426  10.538
67368W        W38897  39.070  40.793   2.429
67369W        W38898  37.625  29.877  11.593
67370W        W38899   5.832  27.614   0.007
67371W        W38900  31.104   7.937   3.226
67372W        W38901  20.143   4.661  10.631
67373W        W38902  15.503  41.842   4.055
67374W        W38903  15.071  11.709   4.125
67375W        W38904  42.263  33.449   5.129
67376W        W38905   2.296  38.368   3.089
67377W        W38906   7.032  11.254   1.426
67378W        W38907   9.729  19.189   3.565
67379W        W38908  22.215  11.640  12.181
67380W        W38909  28.206  43.998  14.420
67381W        W38910  43.318  34.460  11.733
67382W        W38911  28.904  41.283   2.411
67383W        W38912   5.845  39.034   2.426
67384W        W38913  42.749  22.074  11.173
67385W        W38914  16.463  39.446   0.541
67386W        W38915  17.978  23.617   2.783
67387W        W38916   9.899  14.230  12.429
67388W        W38917   2.691  39.350   3.191
67389W        W38918  12.184  40.363   4.887
67390W        W38919  37.852  33.438  12.697
67391W        W38920  21.567   7.285  10.465
67392W        W38921  29.915  41.502   2.716
67393W        W38922   8.113   5.647   3.003
67394W        W38923  28.296  37.967  12.033
67395W        W38924   7.413  35.173  11.655
67396W        W38925  44.253   4.270  10.597
67397W        W38926   3.850  19.088  13.476
67398W        W38927  15.261  35.263  14.875
67399W        W38928  10.333  29.145   1.014
67400W        W38929  43.331  14.030  11.902
67401W        W38930   6.416  28.058  13.790
67402W        W38931  18.131   1.914   0.023
67403W        W38932  41.353  16.795   1.895
67404W        W38933  33.488  25.943  14.310
67405W        W38934  41.895  13.696   0.428
67406W        W38935  40.578  42.288   1.679
67407W        W38936  25.208   7.358   0.402
67408W        W38937   3.736  18.633  13.294
67409W        W38938  13.945   9.427  14.720
67410W        W38939  12.527  16.351  10.687
67411W        W38940  30.152  22.796  12.484
67412W        W38941  20.682   8.874   0.707
67413W        W38942  15.738  42.584  11.463
67414W        W38943  23.733  20.523  12.540
67415W        W38944   0.063  17.474  11.351
67416W        W38945  13.702  14.721  11.372
67417W        W38946  24.618   5.055  10.940
67418W        W38947   9.238  10.751  11.071
67419W        W38948  25.483  15.444   0.973
67420W        W38949  31.278  21.711   1.790
67421W        W38950  33.740  43.146  14.583
67422W        W38951  26.522   2.682   4.192
67423W        W38952  44.042  11.344   4.390
67424W        W38953  14.643   3.685  10.343
67425W        W38954  18.750  19.119  14.299
67426W        W38955  37.923  44.025   3.273
67427W        W38956   3.885  30.119  11.833
67428W        W38957  30.508  17.561   3.105
67429W        W38958  37.893   8.868  13.673
67430W        W38959  19.287  24.417  14.801
67431W        W38960  35.581  12.360  12.695
67432W        W38961  29.226   8.134   3.817
67433W        W38962  24.051  21.522  12.414
67434W        W38963  36.330  44.280   3.821
67435W        W38964  16.208  13.723  10.679
67436W        W38965  26.515  36.145   3.599
67437W        W38966   3.938   7.300   2.704
67438W        W38967  29.088  35.193   2.289
67439W        W38968   2.438   0.988   4.485
67440W        W38969  33.564  41.783  13.496
67441W        W38970  42.754  28.625  13.503
67442W        W38971  17.845   3.001  10.685
67443W        W38972  40.002  39.954   0.275
67444W        W38973   5.418  13.820  14.713
67445W        W38974  41.198  30.128  12.610
67446W        W38975   4.971   9.929  10.284
67447W        W38976  23.059  24.495   0.325
67448W        W38977   9.585  36.912   3.166
67449W        W38978  20.642  20.901   4.604
67450W        W38979  23.110   8.661  11.251
67451W        W38980   6.199  39.428   3.757
67452W        W38981  41.275  43.429   3.702
67453W        W38982  34.027  18.013   3.378
67454W        W38983  27.623  16.925   1.808
67455W        W38984  17.332   8.842   3.764
67456W        W38985  29.937  42.464  12.296
67457W        W38986  44.054  43.916  14.272
67458W        W38987   1.458   7.911   3.877
67459W        W38988  35.598   0.776  11.162
67460W        W38989  13.455   6.860  11.047
67461W        W38990   6.318  26.179  14.078
67462W        W38991   6.439  15.479  13.369
67463W        W38992  37.982   9.181   2.280
67464W        W38993   7.679  26.112   2.390
67465W        W38994   9.465  43.454  12.909
67466W        W38995  44.321  35.344   3.867
67467W        W38996  13.873  38.886  10.698
67468W        W38997   7.876  42.574   1.888
67469W        W38998  31.210  33.932  11.964
67470W        W38999  30.115  10.829   0.835
67471W        W39000  17.220   3.241   2.526
67472W        W39001   5.454  43.452  10.570
67473W        W39002  16.698   9.170   1.403
67474W        W39003   0.011  35.133  12.046
67475W        W39004   6.447   0.762   2.784
67476W        W39005  27.228   1.354   2.361
67477W        W39006  26.385   1.874   4.366
67478W        W39007  19.270  34.341   4.246
67479W        W39008   6.487  10.589   4.703
67480W        W39009  31.194  13.414   1.809
67481W        W39010  30.627  35.470  12.890
67482W        W39011  42.067  40.934   2.020
67483W        W39012   1.651  12.285   3.755
67484W        W39013   1.962  28.423  13.848
67485W        W39014  27.973  12.415   3.255
67486W        W39015  24.144  35.618   4.024
67487W        W39016   7.392  41.055  12.034
67488W        W39017  13.870  17.577   2.426
67489W        W39018  11.272  22.468   3.681
67490W        W39019  32.596   0.509   1.248
67491W        W39020   0.824   9.337  11.624
67492W        W39021  17.682   0.022   2.344
67493W        W39022   0.404   4.211  12.371
67494W        W39023  40.028  18.617  14.726
67495W        W39024  15.807  42.782  13.281
67496W        W39025  44.406  15.476   5.039
67497W        W39026  16.773  20.114  11.883
67498W        W39027   0.553   6.875  10.733
67499W        W39028   6.502  28.385   1.990
67500W        W39029   0.695  17.309   1.101
67501W        W39030  21.855  35.864   4.770
67502W        W39031   9.342  14.306   1.825
67503W        W39032  32.174  39.778  12.731
67504W        W39033  31.807  27.186   5.030
67505W        W39034  35.506  33.513   3.148
67506W        W39035  20.465  41.553  11.129
67507W        W39036  21.907   0.965  12.551
67508W        W39037   5.743  36.072   0.978
67509W        W39038   9.081   1.496   4.992
67510W        W39039  20.255  18.655   2.805
67511W        W39040   8.570  30.044   0.322
67512W        W39041  13.650   4.393  12.448
67513W        W39042   0.765  20.232  11.761
67514W        W39043  42.363   0.067  11.557
67515W        W39044  25.227  40.037  11.129
67516W        W39045  22.265  31.640   4.195
67517W        W39046   5.899   9.693   3.646
67518W        W39047   6.711  30.162   4.368
67519W        W39048  37.122  29.348   0.287
67520W        W39049  21.091  24.597  11.165
67521W        W39050  15.529  23.011  12.441
67522W        W39051  13.728  35.101   1.384
67523W        W39052  27.209   0.260  12.847
67524W        W39053  35.422   4.269  14.688
67525W        W39054  12.292  21.007  11.490
67526W        W39055  30.735  18.658  10.643
67527W        W39056   7.346  35.018   3.836
67528W        W39057  41.064   5.575  11.119
67529W        W39058   0.462  29.194  11.499
67530W        W39059  31.582   4.158   4.639
67531W        W39060  36.700  35.132  11.733
67532W        W39061  44.904  20.982  10.938
67533W        W39062   4.840  28.710   2.383
67534W        W39063  13.411   0.350  10.203
67535W        W39064   8.961  27.043  11.456
67536W        W39065  35.586  24.447   3.618
67537W        W39066  20.066  38.015  13.597
67538W        W39067  27.219   0.156   4.160
67539W        W39068  22.762   2.826  12.384
67540W        W39069   7.269   0.770   0.913
67541W        W39070  32.156  37.518  10.803
67542W        W39071  29.107  35.541   1.195
67543W        W39072  10.602  41.471  14.650
67544W        W39073   1.040   8.696   3.267
67545W        W39074  11.892  39.471  14.834
67546W        W39075  40.223  27.953   3.338
67547W        W39076  29.066  15.173  14.309
67548W        W39077  37.333  40.066   0.224
67549W        W39078  38.413  21.823  11.960
67550W        W39079  19.729   9.152  12.520
67551W        W39080  18.091  17.347   0.940
67552W        W39081  27.629  33.903   0.281
67553W        W39082  33.873   5.307   1.229
67554W        W39083  22.487  34.077  11.071
67555W        W39084  37.793  41.832  12.020
67556W        W39085  31.022   2.405  12.024
67557W        W39086  41.542   7.189   1.398
67558W        W39087  14.718  21.007  11.373
67559W        W39088  31.563  31.197   4.194
67560W        W39089  16.480  37.588   0.819
67561W        W39090  19.537  20.199  13.720
67562W        W39091  44.303  17.703  13.829
67563W        W39092  43.327  12.757   9.930
67564W        W39093  28.550  41.962   2.691
67565W        W39094  34.300  15.725   1.731
67566W        W39095  13.264   3.707   4.368
67567W        W39096  36.928  44.436   1.001
67568W        W39097  25.489   1.855   2.273
67569W        W39098   1.786  43.035   3.984
67570W        W39099  17.299  11.139   1.683
67571W        W39100   6.191   4.684   2.067
67572W        W39101  42.773  34.042   1.276
67573W        W39102  36.648  28.084   1.304
67574W        W39103  41.550   4.497  11.549
67575W        W39104   7.430  31.571   3.068
67576W        W39105  26.540  30.287  11.435
67577W        W39106  25.155   1.887  14.387
67578W        W39107  36.309  19.307  14.890
67579W        W39108  25.017  21.652  11.994
67580W        W39109  39.593  22.333  14.076
67581W        W39110  21.319  22.618  10.540
67582W        W39111  43.903  29.349  11.077
67583W        W39112  29.670  22.175   4.613
67584W        W39113  31.336  13.664  13.844
67585W        W39114  26.008   0.456  13.496
67586W        W39115  33.126   6.118   5.332
67587W        W39116  16.897  14.804   4.713
67588W        W39117  25.039  37.410  10.425
67589W        W39118  40.362  30.935  14.808
67590W        W39119   2.901  38.434   4.234
67591W        W39120  32.432  36.404   4.109
67592W        W39121  42.423  36.831   3.412
67593W        W39122  27.177  41.372  11.721
67594W        W39123  36.992  42.430  13.498
67595W        W39124   3.013   7.803   0.594
67596W        W39125  27.649  44.628  14.076
67597W        W39126  16.786   3.951  14.406
67598W        W39127  15.660   6.704  13.123
67599W        W39128  44.821   9.907  14.918
67600W        W39129  38.786  23.006  13.113
67601W        W39130  37.158  16.896   1.305
67602W        W39131   0.499   3.096  13.806
67603W        W39132   3.830   5.226   1.332
67604W        W39133   4.437  20.421   4.182
67605W        W39134  14.206  14.195   1.466
67606W        W39135  14.699   7.674  12.907
67607W        W39136   7.699  25.134   3.143
67608W        W39137  11.770  21.350   1.289
67609W        W39138  42.430  22.909  13.189
67610W        W39139  15.439  39.508   2.436
67611W        W39140  18.254  22.251  13.515
67612W        W39141  40.646  14.681  14.833
67613W        W39142  35.702  34.605   4.096
67614W        W39143  10.554  44.955  12.496
67615W        W39144  38.757  21.095  13.351
67616W        W39145  26.966  41.175   1.132
67617W        W39146   1.926  34.077   0.334
67618W        W39147   8.108  44.387   2.858
67619W        W39148  15.884  19.550  11.033
67620W        W39149   6.165  20.504   2.695
67621W        W39150  34.623   0.117  11.875
67622W        W39151  13.911  12.719  14.274
67623W        W39152  17.140  40.553   0.484
67624W        W39153  18.356   6.900   4.641
67625W        W39154  19.198  30.917   9.796
67626W        W39155  43.395   3.978  10.823
67627W        W39156   0.450  36.554  12.418
67628W        W39157  36.519   8.235   2.996
67629W        W39158  32.530  14.633   2.994
67630W        W39159  39.491  32.186   4.535
67631W        W39160   7.237  30.528   4.563
67632W        W39161   5.434   0.303   2.641
67633W        W39162   5.171  11.131   3.786
67634W        W39163  30.245  44.515   0.486
67635W        W39164   0.092  42.966   1.385
67636W        W39165  28.899  17.535  13.124
67637W        W39166  34.998  10.015   2.739
67638W        W39167  19.477  20.803  12.366
67639W        W39168  35.144  17.393   4.990
67640W        W39169   1.570  27.783   2.494
67641W        W39170  24.890  12.925  12.828
67642W        W39171  29.858  21.617   2.754
67643W        W39172  36.690  19.213  12.184
67644W        W39173  40.710  20.330   4.167
67645W        W39174   1.381  12.809  11.673
67646W        W39175  43.558  18.444   0.546
67647W        W39176  22.849  40.500  14.985
67648W        W39177  18.550   6.994   1.426
67649W        W39178   3.787  32.507  11.703
67650W        W39179  21.220  33.566   0.859
67651W        W39180  19.136  27.900   1.242
67652W        W39181  25.484  17.096   3.275
67653W        W39182   0.346  36.856  11.530
67654W        W39183  19.973  31.822  14.941
67655W        W39184   4.585  10.261  11.458
67656W        W39185   6.275   1.290  10.749
67657W        W39186  10.403   2.923   0.696
67658W        W39187  31.094  10.170   4.538
67659W        W39188   2.851  40.381  13.203
67660W        W39189  24.447  39.810  11.715
67661W        W39190  39.749  12.680   4.032
67662W        W39191   8.795  16.814   2.911
67663W        W39192  36.949   3.762   1.235
67664W        W39193  39.900  22.111   4.913
67665W        W39194  11.323  29.563   3.651
67666W        W39195  40.260  27.754   2.692
67667W        W39196  16.757  26.402   0.337
67668W        W39197  28.403  31.730   2.142
67669W        W39198  31.793  33.532  11.574
67670W        W39199  16.607   1.868  11.872
67671W        W39200   6.621   8.990   3.165
67672W        W39201  18.039  20.838   2.458
67673W        W39202  28.030  16.176  11.793
67674W        W39203  28.265   9.393   1.023
67675W        W39204   5.941  43.343   0.008
67676W        W39205  39.903  32.849   0.858
67677W        W39206  29.980  38.952  12.042
67678W        W39207   7.641  31.598  13.377
67679W        W39208   6.657  13.547  13.418
67680W        W39209   6.458  13.582   3.772
67681W        W39210  18.226  23.291   0.789
67682W        W39211  14.846   9.142  14.075
67683W        W39212  14.313  12.233  12.556
67684W        W39213  38.351  11.714   0.764
67685W        W39214  23.699  42.516   4.561
67686W        W39215  34.532   2.441  11.680
67687W        W39216  39.271  16.639   0.518
67688W        W39217  15.243   7.194  10.222
67689W        W39218  12.453  17.296  12.961
67690W        W39219  16.413  32.989  10.276
67691W        W39220  33.569  19.226   4.590
67692W        W39221   8.693  23.045  13.514
67693W        W39222  22.025  42.679  12.532
67694W        W39223  14.043  19.134  11.054
67695W        W39224  30.606  19.794  12.900
67696W        W39225  35.899   0.494   2.708
67697W        W39226   6.903  18.178  13.516
67698W        W39227   4.960  13.804  11.175
67699W        W39228  14.363   0.842  12.030
67700W        W39229  42.352  31.916   1.864
67701W        W39230  12.736  41.377  11.466
67702W        W39231  28.029  40.751   3.470
67703W        W39232  30.503  35.387   2.802
67704W        W39233  32.380  37.750  11.690
67705W        W39234   3.324  25.284   0.994
67706W        W39235  40.746  17.345  12.487
67707W        W39236  41.457   8.407   1.286
67708W        W39237  36.165  12.082  14.383
67709W        W39238  11.345   3.762   4.522
67710W        W39239  41.111  11.875   4.524
67711W        W39240  26.487  31.612   3.758
67712W        W39241  32.901   5.851   3.751
67713W        W39242  27.098  12.288  13.164
67714W        W39243  35.715  24.613  11.244
67715W        W39244  13.743   9.788  12.651
67716W        W39245  38.648  32.164   1.477
67717W        W39246   2.898  13.104  14.319
67718W        W39247  22.923  15.512   3.215
67719W        W39248  10.474  40.923   1.972
67720W        W39249  37.977  16.310   2.723
67721W        W39250  14.804  23.182   3.290
67722W        W39251  20.931  16.889   3.221
67723W        W39252  20.258  24.941   0.283
67724W        W39253  30.189   9.128  11.186
67725W        W39254  24.996  34.005  10.759
67726W        W39255  27.069   5.648  11.174
67727W        W39256  28.139   9.876  11.836
67728W        W39257  36.816  40.599  13.897
67729W        W39258  29.606  39.640   2.079
67730W        W39259  26.704  15.171   1.372
67731W        W39260   6.959  29.585  10.979
67732W        W39261   4.672  14.915  13.024
67733W        W39262  39.810  33.964   4.178
67734W        W39263   5.339   0.369   3.604
67735W        W39264  20.246  35.856   3.234
67736W        W39265  23.684  37.387  11.559
67737W        W39266  44.979  28.059   4.399
67738W        W39267   8.287  25.270  11.327
67739W        W39268   1.549  24.344   2.002
67740W        W39269  44.850  42.405   0.404
67741W        W39270  13.754  17.146   3.191
67742W        W39271   8.347  20.928   0.432
67743W        W39272   5.163  23.522   4.138
67744W        W39273  16.958  30.396   2.792
67745W        W39274  41.697  27.894   1.729
67746W        W39275  10.157  27.057  12.989
67747W        W39276  37.556  32.834   3.582
67748W        W39277  10.067   4.757   1.418
67749W        W39278  39.644  16.935   2.275
67750W        W39279  36.864  27.643  13.995
67751W        W39280  34.581  24.703   3.462
67752W        W39281  20.342  34.497  14.284
67753W        W39282  13.295  18.745  10.783
67754W        W39283   9.146  38.341  13.811
67755W        W39284  31.700  16.219   4.670
67756W        W39285  38.496  26.224   2.370
67757W        W39286  44.962  36.398  12.437
67758W        W39287  13.594  36.975  13.368
67759W        W39288  24.304   4.655  12.948
67760W        W39289  19.397  15.857  11.587
67761W        W39290   4.732  18.131   1.837
67762W        W39291  10.912  14.159  10.684
67763W        W39292  30.398  31.346  12.900
67764W        W39293  27.201  18.223  14.255
67765W        W39294  30.408  41.363   3.543
67766W        W39295   0.320  16.251  12.499
67767W        W39296  17.747   0.778   1.311
67768W        W39297   7.938  15.390   1.756
67769W        W39298  19.786  20.663  13.422
67770W        W39299  25.589  44.740  10.938
67771W        W39300  38.991  32.580   1.453
67772W        W39301   7.870  13.212   0.282
67773W        W39302  41.052  32.003   9.878
67774W        W39303  38.036  34.766  13.544
67775W        W39304  19.140   3.746   1.718
67776W        W39305  15.936  17.596   0.241
67777W        W39306  39.126   5.854   4.248
67778W        W39307   1.728   5.754   2.672
67779W        W39308  30.641  41.566   5.111
67780W        W39309  11.128  17.344   1.230
67781W        W39310  35.452  33.296   2.205
67782W        W39311  39.138  41.370   4.064
67783W        W39312  35.402  41.807   3.618
67784W        W39313   5.346  31.701   1.683
67785W        W39314  33.497  35.194  12.479
67786W        W39315  24.119   6.981  12.530
67787W        W39316   1.849  31.913   0.298
67788W        W39317  13.072   2.075  13.499
67789W        W39318  32.882  17.664  13.936
67790W        W39319  12.582  29.455  10.787
67791W        W39320  33.618  30.043  11.946
67792W        W39321  10.450  41.496  10.303
67793W        W39322   1.831   3.342   3.716
67794W        W39323  32.091   5.294   0.796
67795W        W39324  41.923  20.021  10.796
67796W        W39325  34.638  26.486  13.063
67797W        W39326  36.338  15.404   3.266
67798W        W39327  17.245  22.816  13.953
67799W        W39328  40.376  18.815   4.366
67800W        W39329  14.072  20.306   3.700
67801W        W39330  32.850  41.102   0.233
67802W        W39331  27.021  28.359  14.841
67803W        W39332  42.202  21.103   0.490
67804W        W39333  32.387  37.071   0.857
67805W        W39334  13.508  44.004  11.335
67806W        W39335  38.583  43.226   2.957
67807W        W39336   3.252  10.285  12.112
67808W        W39337  19.259  13.849   4.217
67809W        W39338  30.444  36.547  14.749
67810W        W39339  39.889  12.822   3.155
67811W        W39340  25.000  24.201   2.584
67812W        W39341   6.694  35.863  13.551
67813W        W39342  20.273   7.960   2.430
67814W        W39343  10.037   8.372  12.179
67815W        W39344  13.797  16.781   2.677
67816W        W39345  12.092  29.709   2.765
67817W        W39346  43.101  38.745  14.560
67818W        W39347  14.653  23.553  12.622
67819W        W39348  19.944  37.339   5.059
67820W        W39349  37.097  22.632   3.348
67821W        W39350  44.038  18.152  12.111
67822W        W39351   9.257  18.128   1.758
67823W        W39352   5.483  34.619   1.820
67824W        W39353  31.022   5.508  13.450
67825W        W39354  34.029  30.659  11.026
67826W        W39355  24.245  24.659   2.727
67827W        W39356  24.189  15.685  14.001
67828W        W39357  15.430  41.481   3.584
67829W        W39358  12.595  12.787   1.663
67830W        W39359  33.937   6.380  12.822
67831W        W39360   6.405  43.186  12.412
67832W        W39361   3.481  43.134  12.559
67833W        W39362  34.614  16.125   2.632
67834W        W39363  18.605   1.552   4.689
67835W        W39364  44.658  22.675  10.367
67836W        W39365   9.494  36.007   2.732
67837W        W39366  18.251  26.689   0.325
67838W        W39367  18.177  24.776  11.424
67839W        W39368  33.825  23.412  10.757
67840W        W39369  34.174  41.667  11.937
67841W        W39370  17.633  16.707  14.081
67842W        W39371  29.954   7.926  14.514
67843W        W39372  33.805   4.652   0.278
67844W        W39373   9.936  20.641   2.786
67845W        W39374  16.629  18.154  13.909
67846W        W39375  19.193  42.187  13.844
67847W        W39376  18.342  30.632  11.619
67848W        W39377  39.983   7.827  10.763
67849W        W39378   4.149  30.633   1.223
67850W        W39379  34.489  13.658   0.831
67851W        W39380  29.068  34.083   1.270
67852W        W39381   2.810  23.420  11.179
67853W        W39382  31.050  42.088  11.718
67854W        W39383  18.800  14.553   1.811
67855W        W39384  21.014   3.822   1.014
67856W        W39385   1.724   3.286  13.446
67857W        W39386  26.086   2.962  11.011
67858W        W39387  34.630   2.171   3.135
67859W        W39388  43.912  27.504   3.688
67860W        W39389  24.574  33.173   0.450
67861W        W39390   2.653  10.308   0.524
67862W        W39391  25.893   8.533  12.524
67863W        W39392  36.083   9.819   4.090
67864W        W39393   4.141   2.258  10.731
67865W        W39394  34.954   1.992  14.557
67866W        W39395  19.647  39.069  12.999
67867W        W39396   8.138  34.876  14.008
67868W        W39397  13.258  34.661  12.453
67869W        W39398  38.271  22.842   0.849
67870W        W39399  30.142  36.736   2.486
67871W        W39400  15.032  27.862  11.380
67872W        W39401  14.208   1.977  14.536
67873W        W39402  25.299  15.723  14.005
67874W        W39403  19.504  34.080   0.852
67875W        W39404   4.392   8.584  10.367
67876W        W39405  26.978   1.395  14.946
67877W        W39406  28.554  31.868  14.134
67878W        W39407   3.452  19.628   4.112
67879W        W39408  29.041  44.225   0.839
67880W        W39409  29.453   7.839  14.748
67881W        W39410  12.223  13.294   0.205
67882W        W39411   5.233   9.897  12.512
67883W        W39412  42.052  41.531   0.846
67884W        W39413  44.317  39.403   3.785
67885W        W39414  16.293  34.865  13.416
67886W        W39415  42.903  36.463   4.538
67887W        W39416  29.451  35.453   4.338
67888W        W39417  22.483  28.058  10.986
67889W        W39418  22.229  35.601   2.655
67890W        W39419  20.700  27.662   3.412
67891W        W39420  31.648  12.537  12.049
67892W        W39421  14.825  29.226   2.936
67893W        W39422  44.381  44.623  14.912
67894W        W39423  29.716   9.763  13.471
67895W        W39424  24.991  12.236   3.621
67896W        W39425   5.180  15.140   2.214
67897W        W39426  41.245  33.200  14.380
67898W        W39427  24.793  30.234   1.459
67899W        W39428  13.433  21.351   4.972
67900W        W39429  19.309  12.925   0.493
67901W        W39430  25.141  16.275   1.445
67902W        W39431  41.575  23.637  13.814
67903W        W39432  18.012  13.677  12.152
67904W        W39433   1.383  26.764   3.750
67905W        W39434  43.534   3.358   1.380
67906W        W39435  17.136  15.718  12.917
67907W        W39436  31.471  42.041  12.049
67908W        W39437  33.004  17.233   2.155
67909W        W39438  37.581  29.067   0.303
67910W        W39439   6.775  13.334   4.846
67911W        W39440  34.071  35.504   1.323
67912W        W39441  14.771  26.193  13.350
67913W        W39442  11.806  43.329  11.223
67914W        W39443  15.011   0.024   3.672
67915W        W39444  25.148  29.039  14.241
67916W        W39445  40.042  21.336  10.930
67917W        W39446  19.522  35.657   1.611
67918W        W39447  13.504  35.460  12.156
67919W        W39448  14.049   8.405  13.854
67920W        W39449  43.859  38.948  11.278
67921W        W39450   3.369  34.080   0.480
67922W        W39451  15.867  26.211   1.811
67923W        W39452  20.187  22.838  12.794
67924W        W39453  42.990  12.879  11.619
67925W        W39454  17.644  30.443   1.513
67926W        W39455   0.801   6.501  13.016
67927W        W39456   0.707  18.190  11.392
67928W        W39457  26.213  40.007  10.959
67929W        W39458  38.828   9.469  11.630
67930W        W39459  44.948   3.775   4.646
67931W        W39460  38.275  39.976   4.222
67932W        W39461  10.851   3.910   4.494
67933W        W39462  41.099  21.283   0.435
67934W        W39463   7.442  40.510  14.434
67935W        W39464  38.793  28.162  14.937
67936W        W39465  14.755  24.767   3.568
67937W        W39466  13.430  21.198   1.326
67938W        W39467   6.089  41.221   1.012
67939W        W39468  27.492  40.941  13.530
67940W        W39469  26.143  34.538  10.695
67941W        W39470  17.708  43.020   2.134
67942W        W39471  28.942  12.579  13.936
67943W        W39472  19.798  19.442  13.273
67944W        W39473  27.299  17.332   4.486
67945W        W39474  42.006  21.558   3.786
67946W        W39475  32.368  10.045  12.488
67947W        W39476   3.329  28.042  12.064
67948W        W39477  38.915  18.728  11.665
67949W        W39478  25.156   9.660   4.633
67950W        W39479  32.226  23.660  12.316
67951W        W39480   2.738   3.780   0.823
67952W        W39481  15.559   0.881   3.672
67953W        W39482   0.815  31.506  10.286
67954W        W39483  41.071   1.421   1.416
67955W        W39484  13.026  44.000  11.840
67956W        W39485   8.678  35.125  14.741
67957W        W39486   6.774  35.383   3.200
67958W        W39487   8.191  34.758  12.373
67959W        W39488   2.371  11.168  10.840
67960W        W39489  16.832  15.684  10.835
67961W        W39490  23.550   1.049   0.690
67962W        W39491   7.440  41.146  13.825
67963W        W39492  17.477  23.450   2.629
67964W        W39493  26.009  29.070  11.167
67965W        W39494   8.442  23.885   2.297
67966W        W39495  21.230  12.907   3.857
67967W        W39496  38.553  39.591  14.383
67968W        W39497   5.098  43.476   2.138
67969W        W39498  37.221  33.541  11.452
67970W        W39499  44.999   2.172   2.733
67971W        W39500   6.705  11.695  11.095
67972W        W39501  16.575   0.760   3.684
67973W        W39502  33.542   4.399   4.422
67974W        W39503  41.198   7.198   0.394
67975W        W39504  34.446  43.682   0.488
67976W        W39505  18.302  28.667  12.578
67977W        W39506   0.995   0.067   1.428
67978W        W39507  31.162  36.867   2.082
67979W        W39508  38.660  17.062  14.350
67980W        W39509  38.451   9.275   4.166
67981W        W39510  19.083  38.841  11.104
67982W        W39511  23.973  13.327   0.479
67983W        W39512   1.800  21.657   4.550
67984W        W39513  38.245  26.981  11.121
67985W        W39514  34.372  43.856  11.674
67986W        W39515   5.319  20.492   3.397
67987W        W39516  34.392   3.003   1.206
67988W        W39517  20.576  31.104   4.357
67989W        W39518  22.297  14.541   0.499
67990W        W39519  19.327   0.244   1.666
67991W        W39520  26.223  11.224  14.635
67992W        W39521  13.665   8.738   1.891
67993W        W39522  10.877  10.337  11.656
67994W        W39523  17.782  14.113  11.034
67995W        W39524   6.939   0.542  14.319
67996W        W39525   4.323  11.857  11.228
67997W        W39526   0.837  34.699  13.407
67998W        W39527  15.286   0.851   0.847
67999W        W39528  37.161  19.069  13.932
68000W        W39529  42.088  44.082  11.541
68001W        W39530  27.611  29.159  14.477
68002W        W39531  36.970  36.187   3.543
68003W        W39532  16.064   1.712   3.103
68004W        W39533  23.227  42.743  10.770
68005W        W39534  23.439  37.899   4.719
68006W        W39535  18.991  41.001   1.148
68007W        W39536  37.076  14.838  11.498
68008W        W39537  14.700   7.672   3.639
68009W        W39538   2.914   8.201   2.483
68010W        W39539  16.025  26.937  10.353
68011W        W39540  12.709  21.720  12.334
68012W        W39541  31.154  35.581  10.307
68013W        W39542  20.227  26.994  11.374
68014W        W39543  27.816  12.043  10.568
68015W        W39544  17.942  34.567  11.538
68016W        W39545  16.502  33.388  14.914
68017W        W39546  38.365   7.709   0.717
68018W        W39547  21.440  20.375  11.548
68019W        W39548  43.738   4.904   3.168
68020W        W39549   7.729   1.082  11.922
68021W        W39550  36.646  35.881   3.253
68022W        W39551  38.946  12.680  10.196
68023W        W39552  15.140  24.391  14.315
68024W        W39553  39.306   4.749  11.582
68025W        W39554  32.485  28.855  13.601
68026W        W39555  22.530  14.037   4.137
68027W        W39556   1.864  14.142   0.992
68028W        W39557  28.003  18.019  13.316
68029W        W39558  28.408   2.063   2.055
68030W        W39559   3.694  30.008  10.865
68031W        W39560  38.990  26.918  12.437
68032W        W39561  12.061   7.387   4.292
68033W        W39562  42.898   8.205   4.329
68034W        W39563  14.835  18.099  14.284
68035W        W39564   1.455  35.360   3.576
68036W        W39565  40.035  33.794  10.392
68037W        W39566   8.005  44.385   3.724
68038W        W39567  23.676   1.404   2.218
68039W        W39568  16.558  29.346  14.314
68040W        W39569  33.451   7.780  13.133
68041W        W39570  36.959  37.503  13.248
68042W        W39571  15.764  28.881   4.471
68043W        W39572  23.167  14.542  13.453
68044W        W39573  15.819  32.697  13.464
68045W        W39574   9.163  14.048   1.368
68046W        W39575  35.783  25.003   0.932
68047W        W39576  29.345  29.136   4.105
68048W        W39577  31.539  16.673  11.887
68049W        W39578   8.981  15.603   4.660
68050W        W39579  22.908  32.094   3.191
68051W        W39580   2.080  44.138   5.201
68052W        W39581  39.547  38.301  13.954
68053W        W39582  18.489  26.126  13.108
68054W        W39583   1.284  42.056  13.990
68055W        W39584   4.117  24.950   2.856
68056W        W39585   9.678  38.513  11.680
68057W        W39586  26.481  41.424  14.921
68058W        W39587   8.087  16.209   4.850
68059W        W39588  10.715   9.771  13.601
68060W        W39589  35.401   4.558   0.151
68061W        W39590   6.900  24.983   2.652
68062W        W39591   5.161   8.818   2.842
68063W        W39592  18.910  30.640   3.102
68064W        W39593  38.072  23.213   4.797
68065W        W39594  36.129  33.686  14.093
68066W        W39595   3.718  10.891   0.809
68067W        W39596  39.955  26.777   3.917
68068W        W39597  23.636   0.474   3.851
68069W        W39598  36.515   3.467  10.334
68070W        W39599  36.687  24.705  14.930
68071W        W39600  22.913  40.324   4.565
68072W        W39601  24.077  16.762   4.094
68073W        W39602  31.145  19.375   3.194
68074W        W39603  16.644  19.585  10.635
68075W        W39604   0.240  21.278   1.844
68076W        W39605  13.508  25.029  12.143
68077W        W39606  33.009  30.438  13.940
68078W        W39607   5.091  43.856   0.383
68079W        W39608  28.423  38.925   2.809
68080W        W39609   9.518  14.627  11.223
68081W        W39610  13.647  16.653   0.919
68082W        W39611  32.916  26.750  13.039
68083W        W39612  22.194  41.009   2.909
68084W        W39613   5.748  26.815   2.114
68085W        W39614  30.612  25.557   4.109
68086W        W39615  42.748  43.364   3.303
68087W        W39616  40.465  24.140   3.675
68088W        W39617   2.611  41.926  11.250
68089W        W39618  11.604  37.676  13.808
68090W        W39619  13.855  35.506  13.419
68091W        W39620   3.607  42.011   4.650
68092W        W39621  26.692  24.530  13.332
68093W        W39622  30.483   1.896   2.704
68094W        W39623   3.837  27.541  12.667
68095W        W39624  30.934  17.451  12.941
68096W        W39625   2.469  10.200   4.248
68097W        W39626   8.803  42.252  14.418
68098W        W39627  20.131  38.935   0.013
68099W        W39628  27.972  14.779  14.118
68100W        W39629   2.714  16.512  14.726
68101W        W39630  14.668  26.840  13.990
68102W        W39631  12.441  39.955   4.645
68103W        W39632   9.245  18.891   0.432
68104W        W39633  18.673  28.147  14.993
68105W        W39634   8.436  10.321  11.177
68106W        W39635  21.432  43.835  14.374
68107W        W39636  32.127  36.832   2.630
68108W        W39637  18.277  38.939  12.643
68109W        W39638  21.546  39.922   0.501
68110W        W39639  16.039  41.811  11.879
68111W        W39640  22.867  37.268  14.398
68112W        W39641   3.526   7.655  11.940
68113W        W39642  20.686  42.048   2.285
68114W        W39643  38.434  28.230  12.159
68115W        W39644  37.612  43.002  14.001
68116W        W39645   9.637   2.762   1.138
68117W        W39646  43.605  38.323  12.019
68118W        W39647   7.340  24.240   4.107
68119W        W39648  17.206  37.813  12.695
68120W        W39649  27.916   8.034  12.981
68121W        W39650  24.512  39.442   0.284
68122W        W39651  38.794  28.135  10.393
68123W        W39652  26.593  39.022  12.890
68124W        W39653  20.529  14.524  12.202
68125W        W39654  29.634  40.335  12.071
68126W        W39655  23.292  21.190   1.371
68127W        W39656  41.425  42.851   0.040
68128W        W39657  17.263  27.074  11.504
68129W        W39658  13.249  25.654  13.300
68130W        W39659  39.037   2.390  11.310
68131W        W39660  35.568  35.076   2.857
68132W        W39661  25.312  44.521   1.649
68133W        W39662  39.148  12.622   0.351
68134W        W39663  33.525   0.380  11.716
68135W        W39664  37.949   7.741  13.546
68136W        W39665   9.727   8.178  12.554
68137W        W39666  22.931  36.176   3.453
68138W        W39667   1.928   7.583   1.841
68139W        W39668  14.317  31.145   4.104
68140W        W39669  31.944  37.288   2.489
68141W        W39670  28.591  30.857   3.257
68142W        W39671  33.257   1.628  13.629
68143W        W39672  24.080  32.446   0.278
68144W        W39673  13.503  26.561   2.855
68145W        W39674  10.580  13.280   2.478
68146W        W39675  10.743  29.496  12.468
68147W        W39676  22.440  31.063  13.042
68148W        W39677  12.933   6.272   1.772
68149W        W39678   3.425   9.186  14.800
68150W        W39679   5.289  40.566   3.766
68151W        W39680  43.962  42.567  14.988
68152W        W39681  11.366  24.000  11.091
68153W        W39682   9.103  22.789   4.508
68154W        W39683  31.084   4.821   4.190
68155W        W39684  26.464  31.557  13.763
68156W        W39685  37.005  40.988  11.107
68157W        W39686  12.593   1.761  13.371
68158W        W39687  44.782  27.950  10.523
68159W        W39688  10.610  30.930   4.373
68160W        W39689   6.775  35.260  14.401
68161W        W39690  37.160  43.997   0.885
68162W        W39691  40.846  14.107  13.929
68163W        W39692  16.003  33.481   4.351
68164W        W39693  31.563  37.591  14.241
68165W        W39694   0.590  32.307   1.211
68166W        W39695  38.430  26.023  10.728
68167W        W39696  34.227   6.041  10.644
68168W        W39697  32.033   6.135  14.696
68169W        W39698   7.237  10.111  13.055
68170W        W39699  24.289  22.651  13.532
68171W        W39700  37.918  20.614  13.120
68172W        W39701  29.024  39.279   3.845
68173W        W39702  44.417  43.437  10.699
68174W        W39703  34.540  12.238   2.872
68175W        W39704  38.805  31.948   5.035
68176W        W39705  13.116  13.391  13.459
68177W        W39706  21.195   2.401   4.527
68178W        W39707   9.130   4.257  11.524
68179W        W39708   3.273  40.102   1.980
68180W        W39709   3.211  36.417   1.483
68181W        W39710  33.879  43.038   3.782
68182W        W39711  13.422  21.052  10.621
68183W        W39712  37.516  38.731   2.860
68184W        W39713  37.396  23.472   2.386
68185W        W39714   6.746  44.701   2.637
68186W        W39715  11.845  26.608  12.671
68187W        W39716   8.770  37.070  13.940
68188W        W39717   4.431  37.786   4.612
68189W        W39718  14.805   9.685  13.799
68190W        W39719  42.487   2.476  12.988
68191W        W39720  38.064  42.789   3.354
68192W        W39721  43.894  11.842  10.560
68193W        W39722   7.943  11.751   3.767
68194W        W39723  25.445  11.655  11.149
68195W        W39724   7.530   1.142   3.301
68196W        W39725   1.112  44.728  13.153
68197W        W39726  20.255  10.261  10.222
68198W        W39727  10.516  29.998   4.602
68199W        W39728   0.661  21.581   1.899
68200W        W39729  40.291  44.473   0.302
68201W        W39730   9.863  40.016  13.264
68202W        W39731  21.108  12.879   0.954
68203W        W39732  38.068  34.575   2.275
68204W        W39733  16.064  14.399   0.367
68205W        W39734  40.475  29.056  11.099
68206W        W39735   7.783   7.255  13.574
68207W        W39736  22.689  16.255  10.254
68208W        W39737  24.638  25.498  13.171
68209W        W39738  28.509  29.768  11.581
68210W        W39739  23.552  20.527   3.227
68211W        W39740  16.696  34.444   0.801
68212W        W39741  31.508  23.581  13.894
68213W        W39742  31.962  31.639   2.326
68214W        W39743   3.168  23.573   0.813
68215W        W39744   5.410  33.463  11.251
68216W        W39745   5.389  19.065  11.093
68217W        W39746  32.265  38.515  12.166
68218W        W39747  22.244  42.825   4.562
68219W        W39748  38.079  30.520   2.733
68220W        W39749  35.994  33.955   3.576
68221W        W39750  13.331   9.584  13.511
68222W        W39751  31.867  42.526  13.313
68223W        W39752  12.548   0.291  12.007
68224W        W39753   9.842  39.624  12.891
68225W        W39754  17.646  23.018   3.405
68226W        W39755  12.389  14.798   3.236
68227W        W39756  35.950  31.199   2.872
68228W        W39757  16.155  25.303  10.485
68229W        W39758   6.994  35.943  10.686
68230W        W39759   1.402   7.022   3.673
68231W        W39760  17.564  37.993   4.203
68232W        W39761  22.622   3.162  11.091
68233W        W39762  12.311  18.272   4.874
68234W        W39763  14.314  14.641  10.751
68235W        W39764  32.919  44.729   2.913
68236W        W39765   5.759  30.130   0.848
68237W        W39766  15.690  10.861  14.024
68238W        W39767  22.161  10.324  14.955
68239W        W39768  36.502   4.163   4.711
68240W        W39769  20.673  39.154   2.604
68241W        W39770  11.721  23.743  13.454
68242W        W39771  20.587  35.390  11.929
68243W        W39772  40.775  18.809  10.748
68244W        W39773  13.583   4.247   3.206
68245W        W39774  25.536  36.603   1.196
68246W        W39775   3.792  30.024   3.469
68247W        W39776  43.258  40.836  13.829
68248W        W39777  37.548  31.076   4.060
68249W        W39778   1.808  19.264  14.900
68250W        W39779  15.147  25.730   1.294
68251W        W39780  44.510   0.892  11.135
68252W        W39781   3.240  34.797  14.038
68253W        W39782  44.319  26.099   1.957
68254W        W39783   8.341  17.403   5.072
68255W        W39784  34.668  15.162   0.736
68256W        W39785  28.968  11.103  12.539
68257W        W39786   1.795  29.996   0.334
68258W        W39787  15.290  12.712  10.818
68259W        W39788  44.329  34.947   2.199
68260W        W39789  26.438  13.171   4.226
68261W        W39790   0.990  21.973  12.418
68262W        W39791  34.413  29.742   2.849
68263W        W39792  33.871  16.808   4.956
68264W        W39793  44.070  11.190  12.977
68265W        W39794   5.642  14.055  14.096
68266W        W39795  30.509  36.480   2.235
68267W        W39796  20.498   6.239  11.646
68268W        W39797  19.043  23.513  10.534
68269W        W39798  20.012  38.423  14.818
68270W        W39799  43.529   7.215  13.992
68271W        W39800   3.490  27.159  11.031
68272W        W39801  34.552  24.226   4.531
68273W        W39802  14.562   2.532   0.907
68274W        W39803   6.718  33.753  13.518
68275W        W39804   6.864  37.389  11.918
68276W        W39805  21.648   7.486   1.254
68277W        W39806  42.068  35.564   4.088
68278W        W39807  10.993  19.629  13.777
68279W        W39808  27.717  41.613  13.104
68280W        W39809  14.393  18.462   1.712
68281W        W39810  43.552  40.410  14.891
68282W        W39811  11.592  30.022   4.538
68283W        W39812   1.865  27.975   3.801
68284W        W39813   1.719   2.394   4.770
68285W        W39814  31.952  11.243   3.802
68286W        W39815   2.368  41.554   0.208
68287W        W39816  24.141  32.112  11.339
68288W        W39817  38.088  44.752   4.340
68289W        W39818   8.676   9.197  12.633
68290W        W39819  11.382  29.474  11.967
68291W        W39820  42.237  16.660   3.190
68292W        W39821  19.723  13.592  11.249
68293W        W39822  15.385  44.900   4.541
68294W        W39823  19.541  40.873   2.702
68295W        W39824  34.313  42.608   2.461
68296W        W39825   8.414   6.802   4.702
68297W        W39826   4.516  17.715   4.189
68298W        W39827  13.547   9.751  12.178
68299W        W39828  28.344  11.166   0.838
68300W        W39829  25.556   8.315   2.787
68301W        W39830  16.239  21.232   0.041
68302W        W39831   8.195  40.247   2.187
68303W        W39832  34.224  31.067  14.520
68304W        W39833  39.808  17.072  13.600
68305W        W39834  26.953  32.800   3.964
68306W        W39835  29.876  18.185   3.402
68307W        W39836   2.444  25.446  13.026
68308W        W39837   7.214   1.273  13.347
68309W        W39838  27.968  24.738   4.616
68310W        W39839   5.265  21.948  14.493
68311W        W39840  26.643  19.988  12.204
68312W        W39841  37.343   3.751   2.970
68313W        W39842   6.015  27.051   0.833
68314W        W39843  22.099  37.290  14.902
68315W        W39844  44.208  10.222   0.333
68316W        W39845  40.798  15.847   1.086
68317W        W39846  16.726  19.466  14.358
68318W        W39847   9.625   4.618   0.225
68319W        W39848  10.875  29.098  11.571
68320W        W39849  24.703  13.772  13.484
68321W        W39850  11.775   9.644   0.810
68322W        W39851   4.860  35.644   3.755
68323W        W39852   2.203  21.448   3.328
68324W        W39853  39.115  10.759  14.639
68325W        W39854  15.228  20.983   4.095
68326W        W39855  37.980  39.633  13.055
68327W        W39856  31.056   1.732   4.491
68328W        W39857   2.081   8.563   4.109
68329W        W39858  16.333  25.725   3.268
68330W        W39859  40.000  33.900  14.917
68331W        W39860  21.926  10.261  10.782
68332W        W39861  40.392  24.611  13.033
68333W        W39862  30.504  17.961  14.839
68334W        W39863  36.897  29.746   4.121
68335W        W39864  15.585   4.313   0.437
68336W        W39865  13.012   9.174  10.718
68337W        W39866  29.634  18.029   2.772
68338W        W39867  23.075  44.722  10.683
68339W        W39868  29.404  40.985   3.263
68340W        W39869  13.556  11.504  13.399
68341W        W39870  29.066  25.676  13.031
68342W        W39871  22.288  20.103   3.131
68343W        W39872   4.990  18.219   2.774
68344W        W39873   6.313  39.432  14.523
68345W        W39874  39.783  40.948   1.306
68346W        W39875  42.870  18.043   4.224
68347W        W39876   5.169  29.909  11.974
68348W        W39877  25.508  14.405  10.877
68349W        W39878   4.724  24.874  12.986
68350W        W39879  18.195  18.612  11.470
68351W        W39880  20.006  16.306   4.172
68352W        W39881  25.541  39.795  12.409
68353W        W39882  12.856  28.616   1.351
68354W        W39883   2.335  39.572   0.547
68355W        W39884  25.020  13.052  13.634
68356W        W39885  20.864  28.248   4.245
68357W        W39886   7.236  38.939  10.904
68358W        W39887  41.067  30.645   2.895
68359W        W39888  19.337  31.943   3.718
68360W        W39889   3.926   2.641  13.842
68361W        W39890  32.667  36.992   0.412
68362W        W39891  20.814  17.526  11.953
68363W        W39892   1.397  39.840   1.915
68364W        W39893  39.495   2.210  11.684
68365W        W39894  42.473   2.692  13.953
68366W        W39895  15.383  36.251  10.361
68367W        W39896  17.850   3.010  11.498
68368W        W39897   5.475  10.821  13.971
68369W        W39898   5.175  27.741  12.331
68370W        W39899  24.794  26.665   0.719
68371W        W39900  17.182  35.387   2.326
68372W        W39901  33.589  12.038  12.369
68373W        W39902   9.637  27.457  11.894
68374W        W39903  13.159  36.795  14.231
68375W        W39904  14.977  31.676  14.853
68376W        W39905  21.132  25.210   1.942
68377W        W39906  12.491  14.452   2.852
68378W        W39907  24.095   3.189   2.403
68379W        W39908  31.414  20.927   3.224
68380W        W39909  14.277  24.662   3.377
68381W        W39910  41.934  41.742   2.661
68382W        W39911  11.787  21.198  10.815
68383W        W39912  41.650  11.723   2.726
68384W        W39913  36.538   5.826  14.754
68385W        W39914  14.788  26.151   4.241
68386W        W39915   3.997  19.452  12.540
68387W        W39916   9.986  44.809  14.825
68388W        W39917  37.291  22.209  12.099
68389W        W39918   4.621   2.452  10.658
68390W        W39919  35.703  27.970   2.396
68391W        W39920  39.626  44.458  10.626
68392W        W39921   1.407  26.798   2.399
68393W        W39922  39.262  11.801   4.320
68394W        W39923  20.214   5.836   3.863
68395W        W39924  13.941   7.182  12.705
68396W        W39925  12.439  28.626   0.374
68397W        W39926  31.075  43.770   4.674
68398W        W39927  16.121   3.429  14.829
68399W        W39928  16.533  25.461  11.208
68400W        W39929  15.087  32.023   4.463
68401W        W39930  27.588  18.284  13.447
68402W        W39931   3.230   6.453   4.575
68403W        W39932  22.282   9.138  11.017
68404W        W39933  26.328  29.009   0.863
68405W        W39934  44.308  20.228  13.547
68406W        W39935   1.920  24.603   3.721
68407W        W39936  30.117  22.131  14.341
68408W        W39937  28.519  35.255  10.004
68409W        W39938  27.497   6.789   1.552
68410W        W39939  12.839  27.703  13.950
68411W        W39940  42.398  13.262  10.547
68412W        W39941  39.555   8.980  11.103
68413W        W39942   0.748  20.301   2.788
68414W        W39943  31.194  10.220   0.321
68415W        W39944  20.583  36.225  10.468
68416W        W39945  22.319   6.186   3.331
68417W        W39946  32.906  23.498   3.633
68418W        W39947  38.415   0.986  14.297
68419W        W39948  40.792  22.967  14.091
68420W        W39949  35.018  28.077   3.717
68421W        W39950  28.460  26.511  14.972
68422W        W39951  26.243   5.256   2.229
68423W        W39952   7.721  21.194  13.845
68424W        W39953   5.285  43.329  13.710
68425W        W39954  14.237  33.108   0.851
68426W        W39955  40.467  36.883  13.574
68427W        W39956  24.832   5.918  11.113
68428W        W39957  33.091  23.280  13.233
68429W        W39958  33.359  44.408   2.346
68430W        W39959  44.273  17.626   3.702
68431W        W39960  20.253  43.467  13.254
68432W        W39961  18.164  16.094   1.278
68433W        W39962  29.863  34.035  13.224
68434W        W39963  14.577   2.504  12.548
68435W        W39964   1.944  16.771   0.264
68436W        W39965  25.356   6.839   0.417
68437W        W39966  23.734  10.683   4.548
68438W        W39967   5.698  37.370   2.903
68439W        W39968  19.198  19.582  10.739
68440W        W39969  34.531  41.753   0.004
68441W        W39970  41.600  40.445   4.540
68442W        W39971   0.442   4.961   2.551
68443W        W39972  23.171  43.929   1.380
68444W        W39973  11.878   6.760  13.786
68445W        W39974   0.836  42.461   3.199
68446W        W39975  43.933  19.344  14.905
68447W        W39976  22.100   2.500  10.790
68448W        W39977   5.017   2.915   2.376
68449W        W39978  36.063  34.880   5.040
68450W        W39979  19.732  32.129  11.530
68451W        W39980   4.774  37.031  11.677
68452W        W39981   1.828  15.069   0.164
68453W        W39982  26.738  21.612   3.264
68454W        W39983  38.352  18.310   2.524
68455W        W39984   4.870  21.241   1.202
68456W        W39985   4.613   0.303  11.162
68457W        W39986  42.489   4.756  11.070
68458W        W39987  18.005  36.979  13.927
68459W        W39988  42.265   5.259  12.411
68460W        W39989  25.086  37.495   0.917
68461W        W39990   4.694  41.770   0.997
68462W        W39991   9.848  31.563   3.613
68463W        W39992  22.635  33.108  13.237
68464W        W39993  43.958   3.345   3.110
68465W        W39994   6.721  31.469   4.124
68466W        W39995  33.431  40.248   5.090
68467W        W39996  16.882  20.667  11.035
68468W        W39997  38.372  43.496   3.953
68469W        W39998  31.031  13.065  14.295
68470W        W39999  25.889  16.762  11.563
68471W        W40000  34.174  31.892  13.326
68472W        W40001  35.019  30.605  14.401
68473W        W40002  21.129   2.747  12.518
68474W        W40003  24.783  29.665   3.731
68475W        W40004   5.003  16.065   0.234
68476W        W40005  25.175  35.043  13.919
68477W        W40006   4.907  42.757  14.193
68478W        W40007  23.075  16.785  11.220
68479W        W40008  43.352  34.825  13.420
68480W        W40009  42.434   5.483   1.772
68481W        W40010  30.651   4.558   3.749
68482W        W40011  18.049   8.181   4.139
68483W        W40012   4.341  14.274   1.398
68484W        W40013  42.778  26.515   2.198
68485W        W40014   2.498  43.358   3.355
68486W        W40015   4.951  15.907   4.138
68487W        W40016  26.295  42.803  13.482
68488W        W40017  26.573  20.576  11.698
68489W        W40018   5.498  28.926  13.462
68490W        W40019  44.912   3.806   1.233
68491W        W40020  15.798  21.741  12.839
68492W        W40021  29.792  25.565   2.405
68493W        W40022  39.923  28.607  13.000
68494W        W40023  22.215  38.097  11.013
68495W        W40024  19.016  22.431  11.491
68496W        W40025  31.456   3.679   0.463
68497W        W40026  18.239  14.222   3.783
68498W        W40027  18.612  25.976  11.032
68499W        W40028  27.891  32.595  14.597
68500W        W40029  40.929   1.012   0.653
68501W        W40030  25.271   0.005  10.597
68502W        W40031  43.266  43.359   2.328
68503W        W40032  27.363  33.368  14.492
68504W        W40033   0.921   1.407   4.475
68505W        W40034  13.847  42.961  13.901
68506W        W40035  31.815   6.302   0.630
68507W        W40036  26.691  29.641  11.420
68508W        W40037  34.005  15.118  12.988
68509W        W40038   2.355  19.168  14.939
68510W        W40039  23.651  32.568   2.374
68511W        W40040   8.100   0.745   4.536
68512W        W40041  10.685  35.969  13.696
68513W        W40042  41.410  12.594  13.364
68514W        W40043  28.995   8.583  12.381
68515W        W40044  15.575   8.822  11.948
68516W        W40045  37.492  15.478   0.358
68517W        W40046  36.862  17.558  14.516
68518W        W40047  22.948   8.119   4.115
68519W        W40048   9.533  26.279   0.335
68520W        W40049   7.950  30.963  12.088
68521W        W40050   5.367  42.953  14.070
68522W        W40051  18.884  14.765   4.549
68523W        W40052   4.933  23.217  13.813
68524W        W40053  32.441  20.295   2.757
68525W        W40054   5.416  44.482  13.769
68526W        W40055  27.102  19.616   0.349
68527W        W40056  23.416  24.298  14.027
68528W        W40057   7.724  22.552   2.292
68529W        W40058  24.030  32.194  12.706
68530W        W40059  31.121  27.929   0.268
68531W        W40060  13.931  20.217  12.591
68532W        W40061   5.765  42.803  14.367
68533W        W40062   2.014  39.947  13.922
68534W        W40063  43.302  36.159   4.669
68535W        W40064  33.063  28.673   4.146
68536W        W40065  14.249  27.396   3.642
68537W        W40066  16.674  33.449   1.666
68538W        W40067  44.045   9.736   0.228
68539W        W40068  13.658   2.666   1.789
68540W        W40069  22.019  44.825   3.510
68541W        W40070  35.059  25.231   1.836
68542W        W40071  30.743  13.134   3.717
68543W        W40072  21.750   0.664   0.319
68544W        W40073  31.396  38.485   4.210
68545W        W40074  20.098  20.434   3.948
68546W        W40075  32.864  39.526  14.766
68547W        W40076  33.576  14.608  12.986
68548W        W40077  19.829  30.707  12.451
68549W        W40078   1.444  23.229  13.326
68550W        W40079  12.112  22.133   3.689
68551W        W40080  33.109  17.786  14.376
68552W        W40081  31.577  28.233  11.379
68553W        W40082  10.165   6.691  14.963
68554W        W40083  34.893  28.109  10.817
68555W        W40084  34.835  40.476   1.414
68556W        W40085  18.840   3.426  12.078
68557W        W40086  10.765  40.788  10.735
68558W        W40087  34.988  28.590  10.972
68559W        W40088  35.918   9.400  11.558
68560W        W40089  38.387  16.539   2.103
68561W        W40090  32.101  26.683   1.352
68562W        W40091  20.263  11.403  11.598
68563W        W40092  11.292  15.255   3.660
68564W        W40093   9.545  27.317  14.080
68565W        W40094  13.223   6.810  14.447
68566W        W40095  15.914  24.303  13.930
68567W        W40096  17.754  37.973   2.840
68568W        W40097  21.631  18.845  13.765
68569W        W40098  34.792  14.395  11.680
68570W        W40099  34.948  10.390  11.510
68571W        W40100  33.049  32.440  12.849
68572W        W40101  20.712  39.068   1.931
68573W        W40102  44.795  43.819   1.402
68574W        W40103  25.046   7.672  10.929
68575W        W40104  23.037  36.064   0.976
68576W        W40105  17.133  19.744  11.568
68577W        W40106  21.821  14.758   0.370
68578W        W40107  34.040  33.903  11.589
68579W        W40108  24.678  14.282  14.066
68580W        W40109   1.020   5.966  14.840
68581W        W40110  27.179  32.095  12.659
68582W        W40111  41.481  26.554   0.904
68583W        W40112  20.743  41.073   4.086
68584W        W40113  29.466  37.338   2.710
68585W        W40114  31.712  32.070   4.940
68586W        W40115  28.615  11.558   3.598
68587W        W40116   8.239   8.368  11.822
68588W        W40117  33.356   9.190  13.232
68589W        W40118  29.182  39.563   2.393
68590W        W40119  28.411  28.479   1.434
68591W        W40120  30.001  10.818   2.369
68592W        W40121  41.884  41.638  14.862
68593W        W40122   0.640  43.957  12.102
68594W        W40123  30.425  29.449  12.456
68595W        W40124  36.705   6.407  12.520
68596W        W40125  31.537  24.984   1.272
68597W        W40126  11.651  34.323  12.968
68598W        W40127  10.338  25.169   3.013
68599W        W40128  32.969  14.604   2.104
68600W        W40129  29.634   2.639   3.622
68601W        W40130   5.683   8.623  10.646
68602W        W40131  20.573  38.767  14.775
68603W        W40132  10.832  41.121   1.664
68604W        W40133   3.142  33.700  12.184
68605W        W40134   7.324  24.663   3.809
68606W        W40135  20.193  41.126  12.533
68607W        W40136  16.779   3.983   2.114
68608W        W40137  42.763  24.584  12.562
68609W        W40138   7.203   1.461  14.252
68610W        W40139  10.776  17.552   1.535
68611W        W40140  26.165  41.018  14.833
68612W        W40141  19.656  28.186  12.136
68613W        W40142  36.450   2.600   4.572
68614W        W40143  43.331  19.090  10.923
68615W        W40144  32.616  39.471  10.691
68616W        W40145  40.862  13.996  12.011
68617W        W40146  21.522  14.336   0.747
68618W        W40147  17.598  44.101   4.900
68619W        W40148  34.104  39.889  13.554
68620W        W40149  39.393  15.711  10.113
68621W        W40150  29.054  31.034   3.152
68622W        W40151  22.280  34.943   1.879
68623W        W40152  26.194  32.715   4.088
68624W        W40153   0.358  22.951   0.888
68625W        W40154   4.787   4.303   1.172
68626W        W40155  12.645  37.625   1.903
68627W        W40156  25.413  34.066  11.945
68628W        W40157  26.781  24.113   0.238
68629W        W40158  39.995   6.149  13.508
68630W        W40159  23.162  15.091   2.359
68631W        W40160  16.592  10.174  11.111
68632W        W40161  16.544   6.789   3.180
68633W        W40162  37.385   5.162   3.648
68634W        W40163  32.102  18.843  14.006
68635W        W40164  22.677  27.091   1.344
68636W        W40165  24.674  40.049  10.357
68637W        W40166  35.423  12.819   4.828
68638W        W40167  34.992  29.796   4.144
68639W        W40168   8.223  38.816   2.191
68640W        W40169   5.371   4.479  13.358
68641W        W40170  35.614  33.633  11.590
68642W        W40171  21.886  20.950  13.419
68643W        W40172  42.057  26.091  13.464
68644W        W40173  18.705   8.905   4.292
68645W        W40174  35.115  20.261  10.524
68646W        W40175  22.605   4.212   0.509
68647W        W40176  11.675   3.862  13.987
68648W        W40177   9.068  18.526   3.105
68649W        W40178  13.382  40.786   2.330
68650W        W40179  20.031  42.410   4.022
68651W        W40180  10.680  19.578   0.029
68652W        W40181  17.259  25.141   1.410
68653W        W40182   1.409  17.880  13.885
68654W        W40183  37.023  16.372   1.252
68655W        W40184   3.372  27.821   1.647
68656W        W40185  17.835  35.612  10.919
68657W        W40186  11.111  25.057   1.416
68658W        W40187  14.902  12.279  12.470
68659W        W40188   2.998  21.369   4.300
68660W        W40189  43.008  43.822   3.410
68661W        W40190  11.124  40.258  13.296
68662W        W40191   1.468  22.463   2.739
68663W        W40192  37.248  27.453   2.138
68664W        W40193  36.812  17.942  13.876
68665W        W40194  26.582  16.927   4.713
68666W        W40195  31.046  14.474   0.054
68667W        W40196  37.013  36.546  10.667
68668W        W40197  31.714  21.736  10.856
68669W        W40198  26.229  24.963  10.210
68670W        W40199  19.789  21.557  14.427
68671W        W40200  39.194  10.322  11.053
68672W        W40201   3.413  24.766   3.865
68673W        W40202  14.910  20.155   5.453
68674W        W40203  12.464  31.410  11.634
68675W        W40204   4.454  43.985  11.072
68676W        W40205  31.343  42.898  13.820
68677W        W40206  28.500  13.560   4.517
68678W        W40207  12.856  29.412   4.553
68679W        W40208  44.681  41.407   2.355
68680W        W40209   9.405  35.833  14.352
68681W        W40210  33.302  25.991   2.733
68682W        W40211   3.598  32.560   2.776
68683W        W40212  33.732  29.613   0.456
68684W        W40213  16.138  42.283  11.638
68685W        W40214  21.475   8.717   2.835
68686W        W40215  41.020  38.378  13.005
68687W        W40216  16.131   5.417   4.836
68688W        W40217  30.561  37.917   2.856
68689W        W40218  20.390  30.147  14.610
68690W        W40219   1.330   3.948   2.327
68691W        W40220  43.878  38.658   1.736
68692W        W40221  38.763   0.303   3.808
68693W        W40222  28.666  37.293   3.773
68694W        W40223   1.026  25.053   4.614
68695W        W40224  23.051  25.917  11.578
68696W        W40225  38.332  38.854  13.034
68697W        W40226  13.499  12.245  10.414
68698W        W40227   2.890  11.849   1.442
68699W        W40228  15.359   7.579  14.559
68700W        W40229  44.904   7.110   4.421
68701W        W40230  28.235   5.891  14.809
68702W        W40231  16.125   8.536   4.176
68703W        W40232  20.290  15.005  12.144
68704W        W40233  44.390  23.709   1.674
68705W        W40234   3.670   8.819  12.441
68706W        W40235  34.889  34.199  10.629
68707W        W40236  26.662  14.775   0.443
68708W        W40237   8.723   3.289   2.306
68709W        W40238  34.463  42.100   2.473
68710W        W40239  29.095  20.784   5.010
68711W        W40240  40.920   3.176  14.795
68712W        W40241   7.284  12.639   4.474
68713W        W40242  39.965   7.818  11.617
68714W        W40243  11.100   1.437   2.599
68715W        W40244  26.852   6.449   0.311
68716W        W40245  43.333  28.647  12.961
68717W        W40246   6.163  11.890   4.087
68718W        W40247  41.000  43.753   2.418
68719W        W40248  33.488  36.839   3.912
68720W        W40249  29.677  39.409  14.917
68721W        W40250  21.278  39.160   2.339
68722W        W40251  33.413  21.138   2.379
68723W        W40252   8.379   0.468  12.467
68724W        W40253  19.477  22.687  12.676
68725W        W40254   0.727   8.413   3.590
68726W        W40255  26.187  30.551   3.845
68727W        W40256  33.058  26.764   4.891
68728W        W40257   4.189  26.643  14.932
68729W        W40258  26.937  14.871  12.504
68730W        W40259  40.981  12.807  13.547
68731W        W40260  15.156  20.168   1.818
68732W        W40261  19.985   3.890  14.363
68733W        W40262  37.187  44.458  10.605
68734W        W40263  16.467  36.158  12.060
68735W        W40264   3.205  38.359   2.838
68736W        W40265  33.854  42.889  11.535
68737W        W40266  35.175   1.253   1.893
68738W        W40267  13.199  31.636   4.847
68739W        W40268  29.712  34.989  14.711
68740W        W40269  16.067   3.003  13.012
68741W        W40270  41.972  22.204  13.000
68742W        W40271  30.062  31.127  11.634
68743W        W40272   6.385  15.914   3.696
68744W        W40273  19.738   2.747   2.378
68745W        W40274  18.822  15.653   4.542
68746W        W40275  23.232  22.016   3.208
68747W        W40276  16.065   7.422   0.845
68748W        W40277  26.622  34.909   0.496
68749W        W40278  20.182  33.549  13.958
68750W        W40279  23.613   8.203  13.359
68751W        W40280  35.562  24.045  12.372
68752W        W40281   8.866  36.791  13.489
68753W        W40282  10.686  13.665  14.097
68754W        W40283  12.352   0.309   2.785
68755W        W40284   6.237   4.745  14.948
68756W        W40285  11.893  13.709   2.305
68757W        W40286  25.923  21.478  11.186
68758W        W40287   4.730  37.565   5.034
68759W        W40288  40.486  29.725  13.259
68760W        W40289  10.966  33.998   3.272
68761W        W40290  30.088  43.484   2.845
68762W        W40291   2.594  27.552  11.497
68763W        W40292  14.168  23.252  13.487
68764W        W40293   5.310  16.225  12.991
68765W        W40294  35.201   9.866   4.363
68766W        W40295   4.247  21.216  10.718
68767W        W40296  34.441  20.158  11.911
68768W        W40297   4.446  11.868  13.454
68769W        W40298  32.052  41.877   3.695
68770W        W40299   6.919  20.127   5.351
68771W        W40300  33.088  20.495  11.922
68772W        W40301  24.196  26.440   1.429
68773W        W40302  39.415  22.908   2.847
68774W        W40303  26.425  25.044  12.914
68775W        W40304  31.989   6.281  14.198
68776W        W40305  43.919  33.257   4.899
68777W        W40306  18.252  17.276   0.157
68778W        W40307   0.375  13.773  14.303
68779W        W40308  32.636  16.340  12.368
68780W        W40309  39.896  38.815   3.592
68781W        W40310  35.826  27.162   0.258
68782W        W40311   2.725  25.170   1.841
68783W        W40312   4.795   0.923   5.113
68784W        W40313  20.433   7.858  13.400
68785W        W40314  41.843   4.312   4.398
68786W        W40315  44.923  38.991   2.700
68787W        W40316   3.008  12.713   2.409
68788W        W40317   4.753  31.711  12.592
68789W        W40318   6.356  29.384  12.099
68790W        W40319  30.845  22.586   2.398
68791W        W40320  26.169  28.541   0.778
68792W        W40321  19.532  18.254  14.824
68793W        W40322   1.307   9.928  13.893
68794W        W40323  26.125  40.230   4.650
68795W        W40324   2.840   3.219   0.884
68796W        W40325   6.674   8.536  10.645
68797W        W40326  10.317  19.711  12.107
68798W        W40327  36.025   7.939  12.931
68799W        W40328  11.860  36.895   1.491
68800W        W40329   2.772  20.587  10.763
68801W        W40330  37.423  22.633   3.778
68802W        W40331   1.933  11.297  13.150
68803W        W40332  18.796  15.240  14.793
68804W        W40333   6.497  29.417  11.120
68805W        W40334  10.409   1.392   4.638
68806W        W40335  17.310  42.014  10.685
68807W        W40336  43.111   5.622  14.274
68808W        W40337  19.568  16.700  14.540
68809W        W40338  16.082   1.725  14.565
68810W        W40339  32.566  42.544   3.339
68811W        W40340  24.175  12.658  11.722
68812W        W40341  34.756   7.470   5.029
68813W        W40342  28.507  29.791  14.774
68814W        W40343  23.884  18.974   2.860
68815W        W40344  18.495  20.517   0.699
68816W        W40345  38.058  27.025  12.466
68817W        W40346   0.635  11.665   2.354
68818W        W40347   0.307  39.954   4.749
68819W        W40348  23.889  35.855   0.709
68820W        W40349  24.553  13.772  14.124
68821W        W40350  39.580   4.725  14.426
68822W        W40351  30.085  18.075  12.884
68823W        W40352   3.524  35.657  14.380
68824W        W40353  14.809  18.808  11.931
68825W        W40354  13.799  43.579   4.182
68826W        W40355  16.572  11.340  14.076
68827W        W40356   6.674  10.202  10.534
68828W        W40357  43.656  23.536   1.840
68829W        W40358  42.395  18.146  14.031
68830W        W40359  39.526  31.578  13.423
68831W        W40360   1.817  36.018  11.928
68832W        W40361  37.942  26.602  13.333
68833W        W40362  18.118  31.226   3.317
68834W        W40363   0.701  20.532  13.001
68835W        W40364   8.234  11.271  12.616
68836W        W40365  37.950  31.335  13.372
68837W        W40366  38.476  29.870   4.163
68838W        W40367  37.428  24.652  14.530
68839W        W40368  35.986   4.377  11.696
68840W        W40369   6.114  19.122  11.167
68841W        W40370  28.386   5.129   0.806
68842W        W40371  25.385   7.346  11.140
68843W        W40372   5.583  37.999   0.815
68844W        W40373  13.044   8.664   4.644
68845W        W40374   0.340  38.412   1.602
68846W        W40375  25.214  40.457   3.673
68847W        W40376   7.471   1.943   3.769
68848W        W40377   4.896  19.033  12.545
68849W        W40378   3.246   3.485  14.898
68850W        W40379   5.306  32.450  11.212
68851W        W40380  25.439  15.325  12.181
68852W        W40381   0.877  22.101  11.042
68853W        W40382  28.168   0.811   3.253
68854W        W40383  37.197  20.599   0.660
68855W        W40384  31.133   6.760   1.881
68856W        W40385  37.559  15.841   3.222
68857W        W40386  32.952  10.598   2.248
68858W        W40387  29.561   9.836   0.996
68859W        W40388  11.765  18.586   2.318
68860W        W40389  20.641  38.146   1.894
68861W        W40390  20.534  39.939   2.169
68862W        W40391  41.425   7.249  12.617
68863W        W40392   9.146  30.028   2.280
68864W        W40393  36.394  20.339  13.567
68865W        W40394  12.644  31.880  11.603
68866W        W40395  24.647   7.463  10.685
68867W        W40396  43.280   1.446   0.334
68868W        W40397  41.601  14.759   2.473
68869W        W40398  40.282  29.584  14.079
68870W        W40399  33.374  16.256  13.781
68871W        W40400  31.415  30.177  14.043
68872W        W40401  30.669  10.281   0.285
68873W        W40402  12.981   8.627   4.137
68874W        W40403  12.705  42.796   3.364
68875W        W40404  36.598  14.903  12.337
68876W        W40405  22.145  29.368   1.161
68877W        W40406  33.075   3.332   1.028
68878W        W40407   2.112  29.641  14.558
68879W        W40408   9.452  11.287  11.980
68880W        W40409  39.531  34.851  12.715
68881W        W40410  16.793  22.451  14.771
68882W        W40411   9.734  34.104  14.842
68883W        W40412  15.721  13.914   0.908
68884W        W40413  23.645  26.254   4.602
68885W        W40414  16.299   6.327  12.486
68886W        W40415  29.143  21.328  11.537
68887W        W40416   3.299  16.640  14.530
68888W        W40417  14.804  40.954  12.546
68889W        W40418  24.091  35.413  12.559
68890W        W40419  40.522   1.115  12.944
68891W        W40420  31.252  27.126   3.667
68892W        W40421  17.795  26.419   2.396
68893W        W40422   7.992  27.680  14.393
68894W        W40423  21.997  41.802  12.516
68895W        W40424  41.762  28.122  13.865
68896W        W40425  26.230  19.685  11.943
68897W        W40426   0.227  26.964   1.449
68898W        W40427  11.692  20.497   0.955
68899W        W40428  20.529  23.717  14.871
68900W        W40429  35.047  22.335   3.602
68901W        W40430  26.141  11.905  13.548
68902W        W40431   5.339  24.515  14.032
68903W        W40432  24.114   9.077   1.244
68904W        W40433  11.326  19.634  12.019
68905W        W40434  13.178  20.707  13.007
68906W        W40435  36.874  35.373   4.135
68907W        W40436   2.092  28.815   3.607
68908W        W40437   2.927  31.053   0.514
68909W        W40438  36.512  28.357   0.899
68910W        W40439  10.350  34.445   0.887
68911W        W40440   1.854  15.265   3.382
68912W        W40441  27.988  27.481   4.250
68913W        W40442   6.822  14.846  11.239
68914W        W40443  10.272  34.357   2.778
68915W        W40444  14.080  22.505  11.328
68916W        W40445   7.176   5.424  12.985
68917W        W40446  37.731  31.926   1.820
68918W        W40447  35.741  40.371   4.975
68919W        W40448   7.988  36.027  12.966
68920W        W40449  35.279  15.128  11.633
68921W        W40450   3.045  23.095   0.932
68922W        W40451  22.576  23.018   1.365
68923W        W40452  38.379   7.335  14.769
68924W        W40453  40.350  23.628  13.496
68925W        W40454  38.991   3.490   2.249
68926W        W40455  44.040  10.245   3.115
68927W        W40456  25.583  18.590  12.571
68928W        W40457  41.921  18.573   3.229
68929W        W40458  28.466  37.509   0.764
68930W        W40459  44.486  19.534   0.376
68931W        W40460  34.998  40.498   3.028
68932W        W40461   5.732  13.588  10.623
68933W        W40462  14.232  42.389   4.377
68934W        W40463  24.721  16.875   2.727
68935W        W40464  17.322  39.260  12.742
68936W        W40465  21.777   3.956   1.212
68937W        W40466  20.288   5.438   2.617
68938W        W40467   1.929  37.097  12.071
68939W        W40468  42.814  11.701  12.954
68940W        W40469  37.305   4.167   3.669
68941W        W40470  42.573   4.291   3.670
68942W        W40471  14.801   5.428  14.952
68943W        W40472  36.902  22.375   5.083
68944W        W40473   6.119   1.948   1.426
68945W        W40474  33.653  12.173   0.846
68946W        W40475  41.011  30.225  14.353
68947W        W40476  18.081  32.584  13.553
68948W        W40477  29.188  34.084  12.075
68949W        W40478  44.764  11.374   2.371
68950W        W40479  37.984  27.735  14.446
68951W        W40480  44.477  22.629  11.208
68952W        W40481  14.830  39.289  14.964
68953W        W40482  18.164  34.829  10.798
68954W        W40483  43.564  43.377   1.861
68955W        W40484  42.582   6.359  14.380
68956W        W40485  43.591  38.966   4.640
68957W        W40486  22.160  36.066   4.413
68958W        W40487  44.474  15.350  14.394
68959W        W40488  33.937  44.745   4.295
68960W        W40489  39.134  30.595  13.034
68961W        W40490  39.197   8.008  12.074
68962W        W40491  37.347   6.456   2.648
68963W        W40492  39.042  23.113  13.573
68964W        W40493   8.754  33.036  11.669
68965W        W40494  38.007   8.697  12.198
68966W        W40495  16.242  24.282  10.002
68967W        W40496  11.820  42.214  12.101
68968W        W40497  20.727   8.134   4.877
68969W        W40498   6.515  44.081   0.184
68970W        W40499   7.571  25.099  11.925
68971W        W40500  40.919  26.562  11.541
68972W        W40501  19.119  17.666  14.090
68973W        W40502   1.025  31.577  14.757
68974W        W40503  38.409   7.911  13.365
68975W        W40504   5.759   6.395  10.799
68976W        W40505  16.445  44.413   3.446
68977W        W40506  35.453  31.079   2.794
68978W        W40507   8.388  22.131   1.406
68979W        W40508   4.899  15.402   4.080
68980W        W40509  35.593   9.146   4.452
68981W        W40510  32.645   3.244  11.140
68982W        W40511  19.034  17.693   0.467
68983W        W40512  12.685  41.423  12.460
68984W        W40513  17.194  29.982  14.924
68985W        W40514   3.341   1.076  13.693
68986W        W40515  11.616   7.406   1.293
68987W        W40516  15.990   4.493  14.644
68988W        W40517  44.208  41.020  11.567
68989W        W40518  41.067   2.877   3.641
68990W        W40519   1.112  17.138  11.634
68991W        W40520   0.525  15.164   2.631
68992W        W40521   3.082   6.491  11.156
68993W        W40522  13.767  32.279  11.094
68994W        W40523  18.087   8.664  13.957
68995W        W40524  31.565  15.760  14.973
68996W        W40525  20.024  21.184   3.729
68997W        W40526  26.676  12.396   2.755
68998W        W40527   0.926  41.985  11.195
68999W        W40528  11.364   0.459   2.660
69000W        W40529  34.287  32.916  13.389
69001W        W40530  20.732  10.690  11.102
69002W        W40531   5.289  26.982   2.293
69003W        W40532  20.286  33.673   2.812
69004W        W40533   7.146  33.018   3.304
69005W        W40534  37.392   8.723  10.666
69006W        W40535   5.048  32.585   2.288
69007W        W40536  27.170  28.498   1.821
69008W        W40537   0.725  24.927   3.693
69009W        W40538  15.816   0.952   4.129
69010W        W40539  23.765   6.250  11.546
69011W        W40540  31.903   4.350  14.361
69012W        W40541  44.867   2.436   3.593
69013W        W40542  24.163  19.867  13.482
69014W        W40543  11.491  38.856   0.392
69015W        W40544  28.527  11.188   4.128
69016W        W40545  37.870  10.123  10.883
69017W        W40546   5.230  30.852  13.651
69018W        W40547   6.262   7.032  13.871
69019W        W40548  38.106  43.865  11.124
69020W        W40549  17.265   5.010   5.305
69021W        W40550  41.835  11.323   4.521
69022W        W40551  17.588  17.993   4.110
69023W        W40552  24.601  12.685  12.040
69024W        W40553  26.471   0.082  11.698
69025W        W40554   0.316  21.513   3.769
69026W        W40555  23.307   4.870  12.870
69027W        W40556   4.370  28.177  10.680
69028W        W40557  30.571   2.679   1.216
69029W        W40558  44.948   5.345  14.321
69030W        W40559  24.542  40.428  14.231
69031W        W40560   8.374  17.118   3.738
69032W        W40561  20.975  42.745   3.614
69033W        W40562  29.584  30.558  11.229
69034W        W40563   4.369   4.876   3.806
69035W        W40564  34.426  15.649   2.615
69036W        W40565   5.360  37.877  14.825
69037W        W40566   4.937  24.719   4.590
69038W        W40567  17.158  27.084   4.289
69039W        W40568  10.262  37.400   1.878
69040W        W40569  17.122  18.837  10.663
69041W        W40570  44.604  43.858   0.037
69042W        W40571  34.534  19.000   0.498
69043W        W40572  31.605  21.098  12.392
69044W        W40573  20.753  15.296   4.480
69045W        W40574  31.046   2.375  11.021
69046W        W40575  16.484   2.048  10.959
69047W        W40576  12.794  39.242   0.770
69048W        W40577   5.546  34.518  12.454
69049W        W40578  43.438  10.740   0.836
69050W        W40579  23.222  17.099   3.622
69051W        W40580   4.664  12.590  12.371
69052W        W40581   7.795  42.960  10.765
69053W        W40582  28.196  43.443   2.240
69054W        W40583  12.369   0.805  14.901
69055W        W40584   7.993  43.444  11.039
69056W        W40585  24.754  32.383   3.198
69057W        W40586  18.519  29.498   3.432
69058W        W40587  43.483   1.725  11.419
69059W        W40588  44.796  39.072  10.747
69060W        W40589   4.863   7.413   3.664
69061W        W40590  25.615  35.382   0.073
69062W        W40591  29.261  30.237   0.754
69063W        W40592  17.876  24.002  14.821
69064W        W40593  21.717  31.478   1.682
69065W        W40594   0.680  12.063  10.447
69066W        W40595  34.706  11.854   2.576
69067W        W40596   4.721   4.655  14.921
69068W        W40597  29.564  12.811   4.745
69069W        W40598   2.824  16.961   4.134
69070W        W40599  43.960  10.611   1.013
69071W        W40600  40.096  11.169   2.858
69072W        W40601   9.331  13.318   3.755
69073W        W40602  17.874  35.148   0.874
69074W        W40603  18.117   1.914  13.668
69075W        W40604   0.386   7.658  11.615
69076W        W40605  41.556  36.325  12.393
69077W        W40606   0.043  18.352   2.789
69078W        W40607   6.977  12.225  11.511
69079W        W40608  27.142  31.291   1.925
69080W        W40609   2.476   3.832   1.381
69081W        W40610  39.929   3.813  10.714
69082W        W40611  28.116  44.251  11.601
69083W        W40612  24.575   7.371   3.728
69084W        W40613  11.246  12.832   1.424
69085W        W40614  40.194  43.915   4.946
69086W        W40615  30.674  36.794   0.502
69087W        W40616   8.390   6.199  14.305
69088W        W40617  24.476   1.664  11.309
69089W        W40618  29.425  30.881  12.939
69090W        W40619  26.617   8.801  12.082
69091W        W40620   8.321   7.761  12.503
69092W        W40621  20.639   2.949  12.495
69093W        W40622  35.307  10.537  10.202
69094W        W40623  30.496  44.714  13.600
69095W        W40624  11.655  14.878   2.668
69096W        W40625  25.780   4.135  14.415
69097W        W40626  40.912  32.538   4.598
69098W        W40627  36.673  37.385   9.769
69099W        W40628  19.600   0.577   0.833
69100W        W40629  20.640  23.088  14.343
69101W        W40630   0.881   5.451  14.751
69102W        W40631  40.986  26.078  11.697
69103W        W40632   4.447  36.230  13.401
69104W        W40633   4.916  23.893  11.899
69105W        W40634  44.419  24.595  14.799
69106W        W40635   4.219   8.625  11.635
69107W        W40636  31.681  41.275  14.971
69108W        W40637   8.137  22.529   3.220
69109W        W40638   6.787  18.282   1.434
69110W        W40639  26.352   2.959  14.795
69111W        W40640  12.323  13.765  11.528
69112W        W40641  17.315  16.853   3.399
69113W        W40642  31.429  16.039   3.388
69114W        W40643   2.728  36.378   1.726
69115W        W40644  38.361  24.150   0.326
69116W        W40645  32.852  16.584   1.225
69117W        W40646  22.843  21.540  10.166
69118W        W40647  17.829  23.516   1.114
69119W        W40648  24.711  44.851  13.378
69120W        W40649  14.254   8.641  14.758
69121W        W40650  34.698  40.527   0.908
69122W        W40651   0.232  44.246   4.172
69123W        W40652  10.867  23.960   0.534
69124W        W40653  21.290  35.520   0.594
69125W        W40654  18.793  44.796  14.503
69126W        W40655  37.314  35.325  11.044
69127W        W40656   4.436   7.143   2.669
69128W        W40657  33.890  22.622  14.780
69129W        W40658  33.143  28.859  14.422
69130W        W40659  28.939  22.278   0.194
69131W        W40660  42.086  43.572  14.794
69132W        W40661  28.836  18.080   1.342
69133W        W40662  41.315  39.833   2.681
69134W        W40663   4.753  24.377  12.793
69135W        W40664  41.387  14.280  14.262
69136W        W40665  15.328  21.161  14.723
69137W        W40666  25.160   5.478   2.595
69138W        W40667  22.237  22.316   2.391
69139W        W40668  22.876   6.299   5.065
69140W        W40669  40.881  23.622   0.649
69141W        W40670   9.065   5.193  11.965
69142W        W40671  10.031  19.814  11.594
69143W        W40672   3.442   9.317   2.290
69144W        W40673  19.046  44.248   2.905
69145W        W40674  19.901   0.652   4.567
69146W        W40675  13.753  30.706   2.148
69147W        W40676  14.240  13.404   1.990
69148W        W40677   9.911  38.894   3.848
69149W        W40678  40.288  44.424  12.526
69150W        W40679  14.132  39.453  14.291
69151W        W40680  15.818  33.034   2.715
69152W        W40681  11.829  22.202  14.883
69153W        W40682  23.687   7.563  11.590
69154W        W40683  16.163  10.006   0.748
69155W        W40684  14.103  29.757   4.196
69156W        W40685  42.254  30.817   4.494
69157W        W40686  13.811   4.887   1.724
69158W        W40687  44.205  23.033  13.307
69159W        W40688   1.433  38.746  10.501
69160W        W40689   4.218  11.867   2.293
69161W        W40690  22.213  25.670  14.841
69162W        W40691   0.325  10.669  14.304
69163W        W40692   0.834  11.807  14.993
69164W        W40693  27.494  38.038   0.871
69165W        W40694  22.567   5.679  12.889
69166W        W40695   7.410  32.962   2.849
69167W        W40696   7.071  38.957  14.251
69168W        W40697  12.702   2.280  14.556
69169W        W40698  44.993  37.997  14.773
69170W        W40699  40.391  34.703  11.565
69171W        W40700  18.552  13.054   2.768
69172W        W40701  40.536  16.593   0.026
69173W        W40702   7.145  42.913  10.190
69174W        W40703  25.662  11.209  11.087
69175W        W40704  19.326   3.377   4.622
69176W        W40705   0.563  28.113  14.430
69177W        W40706   2.322  24.847  11.351
69178W        W40707  31.154  25.122   2.726
69179W        W40708  29.136  18.563  11.732
69180W        W40709  36.717   6.341   0.734
69181W        W40710  33.657  28.248  13.446
69182W        W40711  35.926   7.303   3.163
69183W        W40712  43.222   3.433  11.978
69184W        W40713  24.940  27.275   4.673
69185W        W40714   6.109  30.980   2.459
69186W        W40715  23.530  30.784  11.147
69187W        W40716  31.532   2.078  12.503
69188W        W40717  20.048   4.353   2.657
69189W        W40718  25.975  13.150  12.030
69190W        W40719  26.563  35.591   1.229
69191W        W40720  20.752  36.730   4.787
69192W        W40721   2.851  23.719  10.751
69193W        W40722   6.289   7.692   3.413
69194W        W40723  19.214   8.902  13.315
69195W        W40724  43.319   2.963   2.330
69196W        W40725   3.764  15.417   0.317
69197W        W40726   7.696  19.484   3.394
69198W        W40727  29.171   4.830  12.122
69199W        W40728  38.232  31.486   4.579
69200W        W40729   8.770  17.075   4.509
69201W        W40730  36.810  25.032   3.296
69202W        W40731   8.594   1.709  11.936
69203W        W40732  17.088   3.954  12.033
69204W        W40733  16.516  44.546   1.910
69205W        W40734  33.708  39.485  11.409
69206W        W40735  40.704  13.126   4.083
69207W        W40736   3.789   2.799   0.804
69208W        W40737  35.088  25.787  14.910
69209W        W40738  33.206  24.323   0.786
69210W        W40739  17.678  12.268  14.269
69211W        W40740  38.620  44.814  13.970
69212W        W40741  41.587   6.826  12.911
69213W        W40742  13.732   3.208   2.722
69214W        W40743  40.465   0.261   0.702
69215W        W40744   3.241  25.862  11.091
69216W        W40745   0.515  31.129   3.234
69217W        W40746  20.275  42.484   1.347
69218W        W40747  36.340  16.247  11.548
69219W        W40748  16.751  18.678   4.631
69220W        W40749  23.733  20.296  10.712
69221W        W40750  42.182  27.193  11.272
69222W        W40751  33.856  38.488   3.458
69223W        W40752  17.589   5.057  12.925
69224W        W40753  13.667  33.099  12.968
69225W        W40754  18.304  31.917  14.108
69226W        W40755   6.651  33.490   4.215
69227W        W40756   5.399  10.344   2.108
69228W        W40757  23.913   0.101  14.238
69229W        W40758  26.614  31.448  12.514
69230W        W40759  13.608  24.109   4.798
69231W        W40760  37.382  20.754  11.905
69232W        W40761  30.177   2.988  13.806
69233W        W40762  30.109  15.052   1.370
69234W        W40763  32.812  34.051   3.539
69235W        W40764  42.793  26.924  12.847
69236W        W40765  10.889  38.794  11.511
69237W        W40766  30.976  26.499  14.260
69238W        W40767   0.331  30.586   2.700
69239W        W40768  39.365  36.950  14.732
69240W        W40769  16.545  28.435   3.722
69241W        W40770  35.319  19.050  14.952
69242W        W40771  30.454  29.396   3.745
69243W        W40772  11.388  29.087   2.672
69244W        W40773   4.871   1.765  11.992
69245W        W40774  17.582  37.044   2.740
69246W        W40775  39.403  39.436  10.929
69247W        W40776  32.675   3.652  14.760
69248W        W40777  21.450  42.219   1.969
69249W        W40778  20.727   8.695   3.308
69250W        W40779  38.875   0.457  12.183
69251W        W40780  42.395  32.915   3.946
69252W        W40781   0.414  44.559   1.486
69253W        W40782  34.270  26.012   0.964
69254W        W40783   9.409   4.917  14.846
69255W        W40784  42.414  19.762   3.582
69256W        W40785   7.916  40.091   3.503
69257W        W40786  26.991   1.989  13.087
69258W        W40787   2.764  39.041  11.997
69259W        W40788  10.812  16.999   4.577
69260W        W40789  15.510  13.874   1.927
69261W        W40790  40.829   5.128  11.116
69262W        W40791   8.839  10.369  13.689
69263W        W40792  10.098  11.602   0.791
69264W        W40793  36.904   0.279   3.317
69265W        W40794  27.622  30.009   2.614
69266W        W40795  36.815   0.250  13.416
69267W        W40796  39.007  41.456  12.268
69268W        W40797  13.596  17.214   3.764
69269W        W40798   1.865   4.242   4.999
69270W        W40799  34.059  21.177   4.031
69271W        W40800  29.535  29.535   3.834
69272W        W40801  43.243   1.770   4.160
69273W        W40802   3.958  22.963   2.910
69274W        W40803  19.094  31.565  13.373
69275W        W40804   7.969  10.129   2.824
69276W        W40805   3.292  23.805   1.261
69277W        W40806   0.918  17.035   0.689
69278W        W40807  31.533  23.233  11.686
69279W        W40808  22.433  44.961   4.717
69280W        W40809  43.847  18.310  13.440
69281W        W40810  34.158   4.736  14.905
69282W        W40811  15.502  41.545   1.770
69283W        W40812  29.187   1.840  12.848
69284W        W40813   7.687  32.241  14.924
69285W        W40814   7.821   7.199   2.703
69286W        W40815   1.999  17.624  11.697
69287W        W40816  30.157  29.027  12.387
69288W        W40817  26.781  29.403  14.221
69289W        W40818   8.661   3.357   4.756
69290W        W40819  32.126  26.526   1.855
69291W        W40820  14.673  18.651   3.414
69292W        W40821  33.634  20.883   3.824
69293W        W40822  19.325   3.634  13.856
69294W        W40823  30.238  13.888  12.489
69295W        W40824  30.436  30.562  13.772
69296W        W40825  17.673   5.823  10.715
69297W        W40826  42.847  22.142   3.210
69298W        W40827   0.087  42.106  11.642
69299W        W40828  22.517  30.448  11.463
69300W        W40829   6.956  11.795   1.719
69301W        W40830   4.460  21.638   4.156
69302W        W40831   0.539  20.804   0.339
69303W        W40832  32.939  14.747   3.329
69304W        W40833   8.896  29.725  13.473
69305W        W40834   4.306  32.323   4.589
69306W        W40835  40.546  41.036  13.537
69307W        W40836  44.529   9.888   2.322
69308W        W40837  10.642  13.154   3.304
69309W        W40838   4.410   7.904   3.295
69310W        W40839  18.751  34.277   4.973
69311W        W40840  19.155   8.267   1.848
69312W        W40841  20.076  26.957  13.387
69313W        W40842  16.238   4.213   3.366
69314W        W40843  37.932  17.114  10.576
69315W        W40844  20.121  14.984   5.060
69316W        W40845  23.468  28.178  13.005
69317W        W40846   9.970  44.946  13.056
69318W        W40847   5.671  27.453  12.181
69319W        W40848  38.465  37.550   1.269
69320W        W40849   6.977  28.087   1.416
69321W        W40850  29.091  33.173   1.477
69322W        W40851  17.366  13.154   4.719
69323W        W40852  22.630   4.753   2.904
69324W        W40853   0.907  33.732  14.562
69325W        W40854  26.404  38.399  11.605
69326W        W40855  41.282  28.879  14.398
69327W        W40856  24.223  12.837   3.605
69328W        W40857  27.552   4.945  13.917
69329W        W40858  32.172  11.313   0.923
69330W        W40859  42.105  31.708  10.756
69331W        W40860   5.185  12.711  10.673
69332W        W40861  16.168  13.690  14.534
69333W        W40862  30.289   6.874  12.615
69334W        W40863  44.706  31.098  14.613
69335W        W40864  18.572  37.074   0.102
69336W        W40865  33.645  12.723   4.287
69337W        W40866   0.520  35.184  12.119
69338W        W40867  34.093  33.037   2.466
69339W        W40868  18.525  24.689   1.915
69340W        W40869  18.024  11.814  13.401
69341W        W40870   1.558  25.802   2.437
69342W        W40871  32.974  37.827   1.885
69343W        W40872  37.948  19.686   1.415
69344W        W40873  25.470   7.249   0.834
69345W        W40874  23.479  22.717   1.720
69346W        W40875  28.451  22.563  11.590
69347W        W40876  17.991  34.140   4.535
69348W        W40877   5.749   8.349   3.389
69349W        W40878  39.988  14.343   3.226
69350W        W40879  39.524   9.684   1.517
69351W        W40880   9.343  30.480  12.793
69352W        W40881  30.436  30.787   0.879
69353W        W40882  39.206  21.083  11.079
69354W        W40883  37.415  22.388  12.612
69355W        W40884   2.941   7.105  13.048
69356W        W40885  44.796   3.468   1.641
69357W        W40886   1.876  32.952  12.596
69358W        W40887  34.605  32.005   1.821
69359W        W40888   1.218   1.967   1.910
69360W        W40889  13.214  11.892  12.475
69361W        W40890   2.226  21.056   3.011
69362W        W40891  25.179  43.319   2.250
69363W        W40892  29.995  12.812  13.349
69364W        W40893   8.151  20.182  11.325
69365W        W40894  41.363  22.818  10.709
69366W        W40895   3.752  24.307  11.896
69367W        W40896  42.970  14.666  14.799
69368W        W40897  27.688   7.692  12.174
69369W        W40898  39.111  14.605   0.036
69370W        W40899  17.627  41.339   2.157
69371W        W40900  30.627   8.674  13.859
69372W        W40901   3.865  31.196  10.592
69373W        W40902   8.638   9.777   1.205
69374W        W40903   0.891  43.653  14.831
69375W        W40904  26.776  29.493   2.736
69376W        W40905  37.250  11.389  11.070
69377W        W40906  34.386  28.039   3.073
69378W        W40907  10.634   4.253  14.528
69379W        W40908   1.541   1.038  11.656
69380W        W40909  42.084  42.530   1.187
69381W        W40910   5.596  37.592  14.454
69382W        W40911  35.370  27.603  13.686
69383W        W40912  27.245   9.076  11.120
69384W        W40913  24.126  40.990  14.110
69385W        W40914  23.889  40.637   3.727
69386W        W40915   8.873  34.467   1.687
69387W        W40916  24.936   9.669   0.558
69388W        W40917  35.742  12.839  12.012
69389W        W40918  15.264  22.248   0.216
69390W        W40919  18.844  20.152  12.445
69391W        W40920  41.019  22.746  14.516
69392W        W40921  34.257  22.179   3.927
69393W        W40922  38.318   1.389   2.834
69394W        W40923  22.158  19.069   4.103
69395W        W40924  31.700  37.920   1.385
69396W        W40925   1.031  34.992   4.145
69397W        W40926  20.821   0.191  14.440
69398W        W40927  28.396  31.371  12.365
69399W        W40928  25.926  43.827  11.477
69400W        W40929  35.885  29.589  13.609
69401W        W40930  42.274  28.635   3.053
69402W        W40931   3.826  10.749   0.308
69403W        W40932  11.238  15.090   4.717
69404W        W40933  43.010  17.030  11.622
69405W        W40934  24.491  11.088  14.920
69406W        W40935   6.933  43.304  12.539
69407W        W40936  34.879  40.662  11.174
69408W        W40937  11.634  17.178  10.374
69409W        W40938  44.280  44.363  12.049
69410W        W40939  28.880  37.107   4.967
69411W        W40940  26.735  18.285  13.509
69412W        W40941  32.833  43.850   3.270
69413W        W40942  42.442   2.220   0.320
69414W        W40943   8.651  38.121  11.182
69415W        W40944  11.748  11.601  14.855
69416W        W40945  19.116  41.433  14.313
69417W        W40946   4.528  36.844  10.764
69418W        W40947  40.283  21.911   1.261
69419W        W40948   7.778  31.888   9.981
69420W        W40949  37.458  34.532  11.968
69421W        W40950   0.748  32.891   1.786
69422W        W40951  29.361  40.199   2.897
69423W        W40952  22.252   2.761  12.477
69424W        W40953  16.025  20.045   3.148
69425W        W40954   8.261  35.552  11.840
69426W        W40955  19.281  31.645   3.265
69427W        W40956  25.327  20.661   2.807
69428W        W40957  12.074  43.477   4.647
69429W        W40958  22.574   4.510   1.463
69430W        W40959   5.666  42.206   0.834
69431W        W40960  36.515  31.342   0.908
69432W        W40961  11.902  12.797   4.049
69433W        W40962   0.093  35.031  10.691
69434W        W40963  30.132  28.050  11.543
69435W        W40964  44.688  31.793  11.183
69436W        W40965  22.506  22.510   3.121
69437W        W40966  40.986  12.241   2.650
69438W        W40967  20.585  21.929  12.196
69439W        W40968  26.136  43.284  14.199
69440W        W40969  14.684   8.985   0.931
69441W        W40970  32.143   1.189   1.520
69442W        W40971   3.004  35.179   3.674
69443W        W40972  37.399   9.265  11.185
69444W        W40973   0.819  43.034   4.152
69445W        W40974   0.834  26.686   4.158
69446W        W40975  38.282   7.009  11.904
69447W        W40976  35.412  10.369   4.419
69448W        W40977  24.433  22.955   3.112
69449W        W40978  42.298  14.620   2.871
69450W        W40979   1.774  25.724   1.981
69451W        W40980  40.122   2.942   1.807
69452W        W40981  24.617  16.318  13.842
69453W        W40982   7.409  28.323   3.967
69454W        W40983  22.181  33.081   0.795
69455W        W40984  11.343   6.679   2.360
69456W        W40985  32.726  33.493   0.877
69457W        W40986  37.871  28.635   1.157
69458W        W40987  20.736   6.288  12.641
69459W        W40988   9.847   1.777   3.769
69460W        W40989  22.688  35.788   2.802
69461W        W40990   3.984  27.313  11.015
69462W        W40991  30.523  37.035  14.570
69463W        W40992   6.203  21.496   0.832
69464W        W40993  18.901  15.579   3.213
69465W        W40994  23.650  41.352   4.185
69466W        W40995  43.200  39.819   4.330
69467W        W40996  11.686   4.909  11.187
69468W        W40997  28.051  19.445   2.827
69469W        W40998   2.781  22.397  11.159
69470W        W40999  27.262  22.614   3.381
69471W        W41000  33.440  19.312  14.973
69472W        W41001   8.648  40.781   3.650
69473W        W41002  32.901  34.972   4.851
69474W        W41003  41.070  29.271  11.174
69475W        W41004  41.070  18.329  10.747
69476W        W41005  30.705  35.788  11.969
69477W        W41006  34.528  37.153  11.640
69478W        W41007   4.657  25.577  12.539
69479W        W41008  34.336   9.887  13.322
69480W        W41009  37.845   9.673   3.104
69481W        W41010   6.283  35.032  13.571
69482W        W41011  19.740  16.820   0.006
69483W        W41012  17.621   1.010  11.497
69484W        W41013  17.260  41.949   4.643
69485W        W41014  31.621  21.126  14.768
69486W        W41015  40.181  40.141   5.006
69487W        W41016  20.511  39.855  11.619
69488W        W41017  44.335  25.508  11.203
69489W        W41018   6.508  35.270  12.183
69490W        W41019   7.228  37.369  11.565
69491W        W41020   8.983  16.797  11.949
69492W        W41021   5.424  24.609   2.487
69493W        W41022  18.450  15.549   0.105
69494W        W41023  30.917  12.786  12.007
69495W        W41024  36.330  32.466   1.750
69496W        W41025  41.326  31.078  13.545
69497W        W41026  10.823  26.965   1.192
69498W        W41027  42.755  33.596  14.110
69499W        W41028  18.697  20.577   4.051
69500W        W41029  42.000  37.941   1.806
69501W        W41030  31.976   1.921   0.831
69502W        W41031   2.532  43.362   1.390
69503W        W41032  16.043  35.117   2.744
69504W        W41033  19.670  26.753  14.063
69505W        W41034  10.158  19.129   4.711
69506W        W41035  17.877  42.444   0.868
69507W        W41036  40.270  15.830  13.910
69508W        W41037  32.102  36.823  12.370
69509W        W41038   7.272  43.715  10.639
69510W        W41039  13.314  31.950   2.918
69511W        W41040  43.895  37.993  11.716
69512W        W41041  38.326   7.618  11.125
69513W        W41042   9.823  17.146  13.496
69514W        W41043  28.306  32.271   9.772
69515W        W41044  35.953   8.169   0.622
69516W        W41045   6.932  21.632  12.932
69517W        W41046  10.368   8.343   3.223
69518W        W41047   4.330  31.879  13.407
69519W        W41048   4.532  10.296   0.862
69520W        W41049  32.035  17.156   2.313
69521W        W41050  12.585   2.805  12.359
69522W        W41051  22.034  40.875  14.861
69523W        W41052  34.875  29.704  13.367
69524W        W41053   4.481   5.417  13.296
69525W        W41054  15.706  36.923  11.757
69526W        W41055  32.207  21.582  13.876
69527W        W41056  13.908  38.562   2.890
69528W        W41057  26.554  27.719  12.114
69529W        W41058  43.381  36.333   1.839
69530W        W41059   8.416  25.608   4.696
69531W        W41060  15.243   4.391  14.535
69532W        W41061  43.821  39.084   3.821
69533W        W41062  10.705  44.767   4.089
69534W        W41063  22.035  19.620   0.303
69535W        W41064  16.996  12.913   0.454
69536W        W41065  29.859   7.444  11.233
69537W        W41066   4.623  21.698   1.225
69538W        W41067  39.052  27.660   1.734
69539W        W41068  34.578  15.435  12.510
69540W        W41069  11.934  10.772   0.278
69541W        W41070   3.354  40.639  10.851
69542W        W41071  23.922  41.474   2.782
69543W        W41072  14.246   2.077   3.317
69544W        W41073  12.443  22.695  10.947
69545W        W41074  42.324  13.578  12.684
69546W        W41075  37.218   0.379   4.598
69547W        W41076  19.274  11.166  14.516
69548W        W41077  23.930  34.553  12.911
69549W        W41078  20.503   2.348  10.583
69550W        W41079  21.741  15.688   1.262
69551W        W41080  43.733  30.384  12.951
69552W        W41081  13.230  26.799  12.472
69553W        W41082  33.431  20.723   4.308
69554W        W41083  23.995  23.802   5.027
69555W        W41084  19.118  34.121  13.839
69556W        W41085  31.471   6.173   1.427
69557W        W41086  30.102   4.720  14.253
69558W        W41087  31.593  35.005   2.265
69559W        W41088  34.040  38.242   0.364
69560W        W41089  15.169  32.338  12.001
69561W        W41090  14.357  20.524   0.922
69562W        W41091  17.744  36.100   1.298
69563W        W41092  43.287  35.969  12.810
69564W        W41093  23.712  44.697  14.994
69565W        W41094  19.650  23.503   2.795
69566W        W41095  16.402  37.383  12.409
69567W        W41096  18.345  34.485   2.184
69568W        W41097  13.091  12.990  11.169
69569W        W41098  11.198   6.201   4.220
69570W        W41099   6.331  14.349  13.406
69571W        W41100  40.565  44.361  14.369
69572W        W41101  41.856  39.633   0.677
69573W        W41102  15.386  23.543  14.595
69574W        W41103  35.533  32.871   0.727
69575W        W41104   6.648  25.990  14.460
69576W        W41105  24.005  15.274   3.852
69577W        W41106  21.873  19.595   5.272
69578W        W41107  33.545  30.182   3.270
69579W        W41108  11.103   9.273   1.249
69580W        W41109  33.709  41.081   0.316
69581W        W41110  25.973   6.310   3.452
69582W        W41111  27.963  27.680  13.067
69583W        W41112  25.228  18.087  14.326
69584W        W41113   7.762  43.500   0.806
69585W        W41114  12.618  38.528   4.647
69586W        W41115   7.894  14.769  11.171
69587W        W41116   6.757  29.543   4.593
69588W        W41117   7.281  27.207   0.466
69589W        W41118  25.954  29.684   2.290
69590W        W41119  19.190  20.109  12.834
69591W        W41120  12.395  43.179   1.260
69592W        W41121   6.884  37.981  12.447
69593W        W41122  23.773  39.276   4.634
69594W        W41123  37.335  19.668  14.415
69595W        W41124  20.613  37.474  11.850
69596W        W41125  15.626  22.813   1.713
69597W        W41126  44.081  25.797   4.167
69598W        W41127   2.776  30.162   4.125
69599W        W41128  23.716   6.648  10.707
69600W        W41129  35.321  20.357   2.637
69601W        W41130  28.510  17.621  12.780
69602W        W41131   8.448   2.346  10.376
69603W        W41132  13.426  29.910  14.927
69604W        W41133  42.356   4.678   0.931
69605W        W41134  24.240  16.169  12.887
69606W        W41135  32.593   0.591  12.263
69607W        W41136  33.451  22.074   1.210
69608W        W41137  33.012  44.986  12.818
69609W        W41138  11.633  12.743   3.577
69610W        W41139  42.456  22.035   2.402
69611W        W41140  21.195  43.074  11.713
69612W        W41141  31.166  21.588   0.521
69613W        W41142  19.546   6.447  11.638
69614W        W41143   3.148  36.374  13.724
69615W        W41144   3.003   4.948  10.480
69616W        W41145  26.940  22.310   0.469
69617W        W41146  34.937  39.994   3.183
69618W        W41147  35.005  44.586  10.180
69619W        W41148   0.305  15.307   4.063
69620W        W41149  16.619  38.873  13.329
69621W        W41150  34.741   1.898  12.937
69622W        W41151  28.610  21.387   4.665
69623W        W41152  15.844  10.064   4.975
69624W        W41153  44.244  32.659  11.970
69625W        W41154   3.903  10.238  12.902
69626W        W41155  12.077   9.269  12.122
69627W        W41156  17.706   1.754   4.716
69628W        W41157  24.060  10.051  12.908
69629W        W41158  32.833  39.075  14.502
69630W        W41159  30.055  11.650   2.631
69631W        W41160  23.002  37.475   4.007
69632W        W41161  11.615  18.278  13.479
69633W        W41162  38.839  34.110  10.770
69634W        W41163  30.230  41.033   3.963
69635W        W41164   2.199  31.101  11.042
69636W        W41165  40.390  18.076  14.062
69637W        W41166  12.678  20.644   3.313
69638W        W41167   0.783  30.577   4.214
69639W        W41168  12.045  17.304  10.679
69640W        W41169  30.480  24.089  11.081
69641W        W41170  10.106  16.144   1.293
69642W        W41171   2.348  13.124  13.097
69643W        W41172   6.986  21.673   5.625
69644W        W41173  33.922  12.178   2.332
69645W        W41174   6.328  18.975   0.266
69646W        W41175  18.191  10.499  10.609
69647W        W41176   6.829  35.527   0.308
69648W        W41177  39.485  41.232   0.376
69649W        W41178   9.256  44.848   1.725
69650W        W41179   9.073  35.452  14.901
69651W        W41180   7.292  39.357   4.053
69652W        W41181  39.776  24.004   3.380
69653W        W41182  40.268  35.349   3.767
69654W        W41183  23.036  44.537   1.783
69655W        W41184  28.051  22.439   1.408
69656W        W41185  29.098  25.716  13.925
69657W        W41186  22.150  20.763   4.698
69658W        W41187  42.313   1.156  10.699
69659W        W41188  36.122  33.094  10.469
69660W        W41189  26.153  19.808   1.355
69661W        W41190   5.507  27.111   0.890
69662W        W41191  14.553  12.217  10.668
69663W        W41192  22.843  36.333  12.651
69664W        W41193  33.962   6.813  13.090
69665W        W41194  18.743  43.457  13.043
69666W        W41195  36.086  29.988   3.613
69667W        W41196  28.472  37.953   1.483
69668W        W41197  13.268  17.193   0.411
69669W        W41198  43.337  41.255  12.397
69670W        W41199  36.330  17.940  11.004
69671W        W41200   8.819  25.101  13.788
69672W        W41201  31.881  24.655  13.458
69673W        W41202  40.027  39.925  11.195
69674W        W41203  11.872  35.039  14.502
69675W        W41204   2.759  23.101  13.105
69676W        W41205   1.529  27.581  10.661
69677W        W41206  29.568  40.370   0.318
69678W        W41207   9.610  38.541  13.853
69679W        W41208  14.538   9.282  12.911
69680W        W41209   7.607   8.809   3.194
69681W        W41210  23.435  10.319   2.527
69682W        W41211  16.745  15.359  14.679
69683W        W41212   1.138  11.434  12.493
69684W        W41213  25.230   3.761   0.131
69685W        W41214  20.661   2.748   0.186
69686W        W41215  41.471  12.187   2.836
69687W        W41216  34.084  31.849  11.635
69688W        W41217   8.293  15.787  11.885
69689W        W41218  34.659   5.294   3.808
69690W        W41219   0.906   3.291   1.966
69691W        W41220   8.979  32.950   4.125
69692W        W41221  15.222   2.125   2.173
69693W        W41222  44.405  16.297  12.480
69694W        W41223  20.295  24.846  13.098
69695W        W41224   7.618  14.173  12.926
69696W        W41225  14.618  35.279   1.617
69697W        W41226  32.022   8.317  14.861
69698W        W41227   1.462  25.037   4.944
69699W        W41228  26.236  15.877   1.735
69700W        W41229  13.876  19.224   4.803
69701W        W41230  31.841  28.172   0.886
69702W        W41231   6.643  14.059   3.654
69703W        W41232  41.257   1.213  13.490
69704W        W41233  17.045  18.077   2.179
69705W        W41234  22.609  20.759  10.703
69706W        W41235   8.691  27.102   4.507
69707W        W41236  30.591   5.847   3.953
69708W        W41237  32.571  14.690   2.479
69709W        W41238   7.533   9.866  14.852
69710W        W41239  29.300  21.147  10.316
69711W        W41240  19.978  44.867  14.761
69712W        W41241   5.599  11.168  11.859
69713W        W41242   9.326  29.873  11.156
69714W        W41243  15.201  34.380   1.970
69715W        W41244  18.212  17.853   3.290
69716W        W41245  23.179  24.992  11.784
69717W        W41246  11.041   0.529   3.882
69718W        W41247  19.982  35.319  13.564
69719W        W41248  33.993  10.082   3.777
69720W        W41249  17.191   7.187   2.268
69721W        W41250  38.170  10.809   2.673
69722W        W41251  10.196   3.074   3.806
69723W        W41252   8.340  35.072   4.713
69724W        W41253   4.821  44.071  10.711
69725W        W41254   3.404   5.747  12.990
69726W        W41255  44.479  43.057  13.317
69727W        W41256  19.674  33.135   4.678
69728W        W41257  43.718   8.636  12.565
69729W        W41258  40.546  16.075  11.243
69730W        W41259  11.683   8.365  13.006
69731W        W41260  34.969  36.782  10.578
69732W        W41261  40.092  14.914  13.204
69733W        W41262   0.830  10.311   1.036
69734W        W41263  17.961  16.807  13.652
69735W        W41264  11.236  16.383   4.275
69736W        W41265  32.647  42.043  13.027
69737W        W41266  36.835   6.365  11.764
69738W        W41267  37.071  35.419  13.712
69739W        W41268   6.493   6.486   3.536
69740W        W41269  33.589   1.705   3.863
69741W        W41270  40.505   3.416  13.346
69742W        W41271  34.539  16.927   0.438
69743W        W41272  25.714  29.231  14.901
69744W        W41273  30.065  34.421   2.822
69745W        W41274  25.308   4.987   4.968
69746W        W41275  15.325  41.077  11.682
69747W        W41276  19.361  11.644  12.523
69748W        W41277  33.783  23.107  12.497
69749W        W41278  25.495  29.214  13.070
69750W        W41279  41.331  16.096  13.790
69751W        W41280   5.687  40.275   1.009
69752W        W41281  43.541  22.255   0.079
69753W        W41282  24.951  13.751  13.037
69754W        W41283  18.635  34.390  12.969
69755W        W41284  25.261   5.855   3.290
69756W        W41285   0.393  39.983   0.940
69757W        W41286   0.983  15.909   0.076
69758W        W41287  21.387  24.390   2.883
69759W        W41288  20.005  43.570   1.207
69760W        W41289  21.628  40.315  14.337
69761W        W41290  38.396  24.442   3.057
69762W        W41291  19.115   5.111  14.852
69763W        W41292   7.344  31.923   3.876
69764W        W41293  38.784  41.848   3.267
69765W        W41294  22.698   9.761   1.822
69766W        W41295  16.851  13.368  12.361
69767W        W41296  18.008  28.626   3.056
69768W        W41297  44.471  20.022  13.087
69769W        W41298  19.282   9.147   2.658
69770W        W41299  10.074  31.810   0.963
69771W        W41300  15.894  33.586  14.445
69772W        W41301  27.454  29.936  12.121
69773W        W41302   7.821  16.056  13.938
69774W        W41303  39.390  13.056   4.119
69775W        W41304   3.770  22.216  12.493
69776W        W41305  42.711   3.526  10.813
69777W        W41306  13.124   1.633  11.293
69778W        W41307  17.951  37.410   5.110
69779W        W41308  33.049  12.884   0.336
69780W        W41309   3.635  10.852  11.183
69781W        W41310  26.224  21.012   4.307
69782W        W41311   9.431   6.374   3.791
69783W        W41312   7.987   1.923   3.850
69784W        W41313  30.569  21.029  10.689
69785W        W41314  12.826  34.350  12.535
69786W        W41315   8.819   0.359   4.321
69787W        W41316  38.735  33.956  14.547
69788W        W41317  33.338   1.311   4.100
69789W        W41318  41.566  42.162  12.906
69790W        W41319   6.105  36.565  14.252
69791W        W41320  26.074   1.470   4.428
69792W        W41321   5.191  43.386   2.896
69793W        W41322  30.057  38.402  11.952
69794W        W41323  20.576  24.407   4.302
69795W        W41324  11.969   0.620   2.845
69796W        W41325  28.833   0.533   0.002
69797W        W41326  23.408  16.151   4.522
69798W        W41327  16.777  20.121   0.934
69799W        W41328   5.062   2.715  13.297
69800W        W41329   1.696  32.488   4.579
69801W        W41330   8.806  12.804  14.472
69802W        W41331   4.842  43.285   1.741
69803W        W41332  22.479  41.622  12.552
69804W        W41333  33.501  28.106   0.430
69805W        W41334  26.347  16.744   2.175
69806W        W41335  22.340   7.435   2.765
69807W        W41336  22.780  22.079  10.051
69808W        W41337  26.059  11.830   1.035
69809W        W41338  37.880  31.455   1.432
69810W        W41339  10.816   1.917   1.813
69811W        W41340  10.129   4.991  13.706
69812W        W41341  19.379  14.787   4.272
69813W        W41342  11.792  11.910  12.496
69814W        W41343   5.752  20.146  14.487
69815W        W41344  32.557   9.583   2.215
69816W        W41345  33.587  34.102   4.730
69817W        W41346   6.401  14.181   0.694
69818W        W41347  39.851  10.922   2.004
69819W        W41348   8.618  35.873  11.569
69820W        W41349  27.776   2.288   2.342
69821W        W41350  26.937   4.339  12.502
69822W        W41351  31.568   5.473   0.840
69823W        W41352  38.439  23.741   4.547
69824W        W41353  29.506  32.326   0.637
69825W        W41354  37.397  30.342  11.725
69826W        W41355  25.636  35.529   2.105
69827W        W41356  44.774  31.181  14.104
69828W        W41357  21.621   9.470   1.604
69829W        W41358  20.561  32.383   3.799
69830W        W41359  19.630  28.600   1.496
69831W        W41360  39.999   9.205   3.804
69832W        W41361  43.039   1.250   4.323
69833W        W41362  27.776   4.129   2.664
69834W        W41363   9.687  22.618  12.503
69835W        W41364  25.184  18.723   2.433
69836W        W41365  19.536  11.582  13.012
69837W        W41366  30.553  20.630  14.727
69838W        W41367   6.938  11.661   2.224
69839W        W41368   8.442  33.629  12.928
69840W        W41369  21.297  35.988  13.473
69841W        W41370   6.667  36.359  14.908
69842W        W41371  40.953  13.860   0.809
69843W        W41372  22.712  21.065  13.838
69844W        W41373  21.799   2.214   3.341
69845W        W41374  36.054  11.807   1.798
69846W        W41375   2.736  18.311  14.526
69847W        W41376  10.217   3.452  10.991
69848W        W41377  12.697  28.654  12.627
69849W        W41378  35.532  16.601   2.658
69850W        W41379  43.921   3.825  10.653
69851W        W41380  15.637  40.879  12.104
69852W        W41381  21.592  27.699   3.661
69853W        W41382   0.651  33.941   0.510
69854W        W41383  20.371  40.639  11.098
69855W        W41384  31.729  40.394  12.169
69856W        W41385  44.530   7.383   2.174
69857W        W41386   0.461  16.046   4.519
69858W        W41387   8.309  33.865   2.345
69859W        W41388  23.270  42.197  13.922
69860W        W41389   9.198   4.808  11.641
69861W        W41390  20.144  43.781   0.238
69862W        W41391  27.563  36.048   4.549
69863W        W41392  30.102  26.657   1.362
69864W        W41393  26.465  30.005   0.785
69865W        W41394  21.166  22.180   3.080
69866W        W41395  10.596   5.321  11.656
69867W        W41396   6.409  23.065   3.757
69868W        W41397  31.652  41.493  10.672
69869W        W41398  17.713  19.906   9.925
69870W        W41399   5.463  25.237   0.707
69871W        W41400  27.860  10.753   0.539
69872W        W41401  21.145  38.355   5.022
69873W        W41402   6.396  22.021  12.527
69874W        W41403   4.306  13.720   3.675
69875W        W41404  42.848  13.093  13.889
69876W        W41405  32.501  18.207   3.883
69877W        W41406  31.671   0.314  11.183
69878W        W41407  28.691  29.903   4.489
69879W        W41408  37.707  35.743   1.821
69880W        W41409  33.609  28.715   0.733
69881W        W41410  11.322  39.893  11.951
69882W        W41411  20.560   5.499  13.847
69883W        W41412  31.886  19.788  14.931
69884W        W41413  44.773  39.648   3.940
69885W        W41414  36.074   4.504  13.605
69886W        W41415  37.741   4.435  13.295
69887W        W41416  33.059  32.552   1.826
69888W        W41417   2.227  37.026   2.958
69889W        W41418  38.414  22.570   2.764
69890W        W41419  32.856  41.307  13.062
69891W        W41420  29.858  30.585   0.011
69892W        W41421  37.778   8.357  11.293
69893W        W41422  27.555   2.552   0.289
69894W        W41423  21.210  13.368  13.212
69895W        W41424  28.061   7.169  10.572
69896W        W41425  22.296  24.507   2.094
69897W        W41426  21.302  44.839   9.918
69898W        W41427  23.923  15.769  13.020
69899W        W41428   9.894  38.016   0.022
69900W        W41429   9.254   0.107  13.418
69901W        W41430  11.605   9.128   4.539
69902W        W41431  43.469  37.413   3.291
69903W        W41432   5.685  35.420   3.551
69904W        W41433  27.538  19.314  13.347
69905W        W41434   7.148  41.527  10.657
69906W        W41435  11.139  27.997   3.840
69907W        W41436   3.893   3.775  13.553
69908W        W41437  44.681  38.002   2.695
69909W        W41438   0.256   8.317  12.533
69910W        W41439  43.393   0.309   0.709
69911W        W41440  25.874  24.262  10.819
69912W        W41441  18.234  22.659  11.077
69913W        W41442  16.893   4.220   1.230
69914W        W41443  41.938  25.332   3.549
69915W        W41444  17.092  19.505   4.873
69916W        W41445  20.587   2.062   3.484
69917W        W41446  14.833  44.298   2.266
69918W        W41447   0.014  10.419   3.895
69919W        W41448  39.972   2.373  11.607
69920W        W41449  37.299  22.892  12.517
69921W        W41450  36.488  32.771  11.804
69922W        W41451  22.582   9.746  10.400
69923W        W41452  10.833  34.898  13.580
69924W        W41453  14.777   0.637  12.896
69925W        W41454  22.505   1.330  10.170
69926W        W41455  39.351   0.949   3.234
69927W        W41456  22.609  22.702  13.005
69928W        W41457  31.480  37.141  10.699
69929W        W41458  16.491  34.346   2.399
69930W        W41459   0.180  30.877   2.291
69931W        W41460  15.568   8.279  11.494
69932W        W41461  23.466  12.587  14.818
69933W        W41462  19.504  19.765  14.016
69934W        W41463  11.959  28.414   4.934
69935W        W41464  14.610  29.860  13.419
69936W        W41465  44.074  32.943   4.485
69937W        W41466   3.375  31.182   0.316
69938W        W41467   5.293   4.994   2.873
69939W        W41468  37.517   7.307   0.274
69940W        W41469  24.083  27.600   2.431
69941W        W41470   7.169  44.413  11.220
69942W        W41471  31.293  34.842  12.867
69943W        W41472  24.119  25.030  11.576
69944W        W41473  25.599  26.975  10.720
69945W        W41474  41.865  24.784   3.908
69946W        W41475   6.843  26.934  12.589
69947W        W41476  40.564  30.152   0.271
69948W        W41477   3.272   7.190   0.109
69949W        W41478  38.283  20.463  12.343
69950W        W41479   9.614  43.919  11.871
69951W        W41480  21.792   7.382  13.986
69952W        W41481  32.055  30.983   4.178
69953W        W41482  33.749  35.803   0.492
69954W        W41483  11.629   6.382   3.263
69955W        W41484  29.424  11.157  13.411
69956W        W41485   7.098  31.072   4.790
69957W        W41486   4.680  24.048  12.376
69958W        W41487  41.136   2.851  11.988
69959W        W41488  13.071  33.985  11.039
69960W        W41489  23.916   3.015   3.295
69961W        W41490  23.005   0.525  11.193
69962W        W41491  20.095  25.094  10.976
69963W        W41492  33.171  40.162  11.184
69964W        W41493   1.906   8.106   1.858
69965W        W41494  19.922  33.987  11.448
69966W        W41495   2.733  33.557   3.586
69967W        W41496  35.499  21.301  13.013
69968W        W41497  28.209  38.422  13.970
69969W        W41498  42.614  33.102  13.397
69970W        W41499  25.159  14.502   1.631
69971W        W41500  36.129  40.752  12.460
69972W        W41501  17.187  34.632   3.063
69973W        W41502  42.076  25.626  12.502
69974W        W41503  35.101  11.668   3.937
69975W        W41504  38.091   4.265   4.692
69976W        W41505  19.506  38.955  12.153
69977W        W41506  22.944  25.108  14.737
69978W        W41507  14.155   2.111  11.925
69979W        W41508  32.360  22.090  13.767
69980W        W41509  28.013  44.742   0.237
69981W        W41510  14.264   7.438   2.373
69982W        W41511  40.003  23.917  11.576
69983W        W41512   2.052  20.681  11.997
69984W        W41513  14.847  33.461   0.224
69985W        W41514  34.561  33.001   4.801
69986W        W41515  24.053   3.772   1.002
69987W        W41516   6.445  29.609   3.251
69988W        W41517   8.724  25.257   3.448
69989W        W41518  40.098  29.008  13.300
69990W        W41519  24.853   3.739   1.400
69991W        W41520  44.515  42.534  13.428
69992W        W41521  18.713  35.318   2.162
69993W        W41522  40.267   7.160  14.491
69994W        W41523  28.017  22.327  12.775
69995W        W41524  36.408  16.617   2.862
69996W        W41525  18.793   0.786   1.345
69997W        W41526  21.601  29.911   1.772
69998W        W41527  22.369  22.581  13.952
69999W        W41528  18.019   3.005   1.944
70000W        W41529  39.423  30.524   2.359
70001W        W41530   7.627  28.175   3.527
70002W        W41531  39.910  29.600   1.777
70003W        W41532  27.648  36.439  12.106
70004W        W41533  32.384  29.650   4.109
70005W        W41534  36.054  25.704  14.889
70006W        W41535  44.552  11.769  14.510
70007W        W41536  44.569   4.868   0.446
70008W        W41537  36.389  36.919   2.336
70009W        W41538   8.246   3.903   3.113
70010W        W41539   4.838  24.446  11.016
70011W        W41540  43.041   2.294   2.792
70012W        W41541   6.676  22.804  14.291
70013W        W41542  11.651  24.460   4.365
70014W        W41543   2.964  33.309   1.848
70015W        W41544  20.786  23.673   1.804
70016W        W41545   4.221  38.807   0.425
70017W        W41546   4.285  14.206  14.011
70018W        W41547  22.310  27.866   2.645
70019W        W41548  40.207  39.173  12.923
70020W        W41549  41.846  22.482   2.369
70021W        W41550  15.666   9.529   0.436
70022W        W41551   9.931  36.146   4.236
70023W        W41552  27.567  31.963  13.832
70024W        W41553   2.589  28.701  13.604
70025W        W41554  12.319  29.232   4.526
70026W        W41555  13.704   6.624  14.526
70027W        W41556   9.855  40.642   4.233
70028W        W41557  39.857  12.578  12.207
70029W        W41558   0.759  24.742  12.993
70030W        W41559  39.832  30.071   3.058
70031W        W41560  39.047  29.866   2.714
70032W        W41561  12.304  27.565  11.696
70033W        W41562  42.322   3.384   0.920
70034W        W41563   2.339  35.425  11.141
70035W        W41564  41.847  32.934   1.332
70036W        W41565   7.732  44.980   1.131
70037W        W41566  35.277  23.156   1.336
70038W        W41567  43.007  41.319  13.551
70039W        W41568   4.999  20.312  12.910
70040W        W41569  14.799  41.750  12.979
70041W        W41570   8.664  15.715   3.250
70042W        W41571  17.020  19.802   1.680
70043W        W41572   5.661  20.147  11.528
70044W        W41573   0.017  44.094   2.392
70045W        W41574  22.722  17.851  13.579
70046W        W41575  32.615   4.144   2.751
70047W        W41576  23.998  10.808   0.002
70048W        W41577  42.717  13.225   2.416
70049W        W41578  13.643   8.291   3.152
70050W        W41579  21.192  10.414   3.714
70051W        W41580  28.490  44.446   3.858
70052W        W41581  12.733  37.080  10.577
70053W        W41582  41.920  24.040   1.326
70054W        W41583  22.639  10.592   2.756
70055W        W41584  43.741  10.175   1.240
70056W        W41585  29.523  32.680   2.205
70057W        W41586  17.062  16.182   4.367
70058W        W41587  14.109  34.319  11.827
70059W        W41588  12.554  32.998  13.580
70060W        W41589  29.896  11.061   4.113
70061W        W41590  16.830  14.235   1.541
70062W        W41591   8.403   0.882   3.726
70063W        W41592  26.958  38.472  12.822
70064W        W41593   7.391  29.096   2.980
70065W        W41594   1.523   3.799   3.639
70066W        W41595  28.110  37.987  11.567
70067W        W41596  23.167   4.149  13.947
70068W        W41597  30.546  44.971   4.502
70069W        W41598  37.534  33.946  11.582
70070W        W41599  13.688  17.291   0.084
70071W        W41600  15.674  40.941   2.582
70072W        W41601   6.932  13.488   0.366
70073W        W41602  13.053  37.590   5.308
70074W        W41603   1.233   4.985  11.604
70075W        W41604   1.456  18.026   1.412
70076W        W41605   8.737  31.358   1.779
70077W        W41606  38.804  16.558  10.121
70078W        W41607   6.244   8.848  14.460
70079W        W41608   5.145  43.176   0.036
70080W        W41609  32.608  12.905   1.494
70081W        W41610  15.727  28.438   1.439
70082W        W41611  23.081  25.036  13.096
70083W        W41612  35.945  15.859  11.026
70084W        W41613  15.661  10.818   9.985
70085W        W41614   4.299  30.288  12.948
70086W        W41615  41.241   6.790  14.220
70087W        W41616  37.100  22.030   2.761
70088W        W41617  41.447   3.050   2.009
70089W        W41618   1.215  24.213  12.439
70090W        W41619  26.098  26.238   2.803
70091W        W41620  12.754   0.471  12.468
70092W        W41621  26.484  41.590   3.512
70093W        W41622  36.100  12.647   2.370
70094W        W41623  37.974  12.436  12.029
70095W        W41624  21.436  14.427  13.909
70096W        W41625   3.820  31.148  12.675
70097W        W41626  20.455  23.237   2.954
70098W        W41627  20.733   4.315  10.842
70099W        W41628  25.444  19.299  13.326
70100W        W41629   5.957  30.936  11.151
70101W        W41630  13.467  19.974  12.493
70102W        W41631  21.122  30.890   2.843
70103W        W41632  41.058  40.934  10.974
70104W        W41633  24.687  43.050   2.255
70105W        W41634   9.314  24.500   3.885
70106W        W41635  41.292  43.410   2.176
70107W        W41636   8.763  11.326   0.352
70108W        W41637  14.897  24.630  12.404
70109W        W41638  26.762  11.765   0.380
70110W        W41639  14.474  34.947  13.766
70111W        W41640   7.842   3.726  12.536
70112W        W41641   7.114  28.371  14.971
70113W        W41642  17.971  44.444   3.147
70114W        W41643  43.538  22.735   0.337
70115W        W41644  22.089  38.581   4.009
70116W        W41645  18.112  22.681  12.546
70117W        W41646   1.891  26.964  11.372
70118W        W41647  28.498   7.813   1.762
70119W        W41648  44.262   8.007  11.151
70120W        W41649  33.568   9.365  10.840
70121W        W41650   3.625  27.919   0.346
70122W        W41651  27.139  36.604  12.986
70123W        W41652  15.734  15.316   4.594
70124W        W41653  24.199  41.702   4.795
70125W        W41654  18.590  41.224  13.238
70126W        W41655  10.226  29.207  10.767
70127W        W41656  31.040  14.665   1.453
70128W        W41657  31.349  24.415   4.929
70129W        W41658  12.801  28.995  10.823
70130W        W41659   1.306  10.775  13.598
70131W        W41660  10.359  32.837   0.886
70132W        W41661   0.699  25.932  14.089
70133W        W41662   4.995  30.122  12.406
70134W        W41663  15.503  13.123   2.300
70135W        W41664  39.968  39.102  11.714
70136W        W41665  21.719  24.920   5.038
70137W        W41666  44.318   5.846   2.711
70138W        W41667  34.717  38.081  13.109
70139W        W41668  30.249  20.118  12.083
70140W        W41669  26.191  25.534  11.023
70141W        W41670   4.427   0.235  12.148
70142W        W41671  32.880  40.744  13.082
70143W        W41672   9.204  32.183  13.830
70144W        W41673  42.868  30.576   0.204
70145W        W41674  22.019  17.813  14.242
70146W        W41675   5.298  27.587  10.395
70147W        W41676   2.015  24.653  13.408
70148W        W41677   7.591  22.485   1.790
70149W        W41678  42.445  16.550   0.029
70150W        W41679  10.391  34.967   2.836
70151W        W41680   4.245  41.783   2.346
70152W        W41681  23.224   3.509  12.068
70153W        W41682   7.716  14.022   1.325
70154W        W41683  34.454   9.838   3.711
70155W        W41684  16.978  29.489   3.634
70156W        W41685  25.130   5.361   3.128
70157W        W41686  15.268  13.692   1.090
70158W        W41687  30.508   3.368  10.736
70159W        W41688  14.700  25.266  11.705
70160W        W41689  27.241  10.975  11.174
70161W        W41690  36.090  18.307  14.455
70162W        W41691  43.286  14.016  11.160
70163W        W41692   3.415  15.071   3.154
70164W        W41693  21.511  17.620  13.143
70165W        W41694   8.929  41.803  10.773
70166W        W41695  28.959   6.000   3.182
70167W        W41696   6.140  41.637  11.704
70168W        W41697  29.168  10.684  13.371
70169W        W41698  39.778  24.763   2.790
70170W        W41699  26.667  42.327   3.167
70171W        W41700  40.792  36.550  11.993
70172W        W41701  29.284  18.145  11.521
70173W        W41702  19.503  22.226   4.769
70174W        W41703   5.048  40.816  11.460
70175W        W41704  19.429  19.217   2.845
70176W        W41705  33.911  11.683  12.623
70177W        W41706  39.469  12.012   3.125
70178W        W41707  26.543  26.434  14.395
70179W        W41708  11.780  18.654   0.730
70180W        W41709  30.363   3.660   3.284
70181W        W41710  44.233  40.064   4.100
70182W        W41711  22.723  17.243   4.040
70183W        W41712  38.538  43.739   4.616
70184W        W41713  39.583  22.112  12.507
70185W        W41714   6.644   7.930   3.109
70186W        W41715  32.459  44.412   4.554
70187W        W41716  27.577  18.496  10.767
70188W        W41717  21.974  23.239   2.646
70189W        W41718   3.753  39.768  12.628
70190W        W41719  32.423  32.711  14.770
70191W        W41720  31.110   3.962  11.742
70192W        W41721   4.451  16.066   1.738
70193W        W41722  11.590  44.505   4.026
70194W        W41723  21.402  18.915   0.451
70195W        W41724  36.422  18.669  13.627
70196W        W41725   4.376   9.135  14.487
70197W        W41726  21.796  35.292  12.400
70198W        W41727  14.719   4.586  13.325
70199W        W41728   1.859   7.108   4.015
70200W        W41729  39.593   5.887   2.799
70201W        W41730  27.186  41.935   2.682
70202W        W41731  29.558  36.527   0.703
70203W        W41732   6.803  18.418  10.835
70204W        W41733  28.330  13.598  11.935
70205W        W41734  35.283  22.494  12.028
70206W        W41735  41.531  26.082  13.325
70207W        W41736  33.514  44.542   4.620
70208W        W41737  24.076  40.291  14.426
70209W        W41738  25.337  23.340  11.117
70210W        W41739   4.313  38.563   0.913
70211W        W41740  30.858  23.139   2.889
70212W        W41741  29.927  32.709  13.970
70213W        W41742  17.381  35.476  10.729
70214W        W41743  39.630  16.124  11.141
70215W        W41744  36.571   2.631   3.220
70216W        W41745  23.767   9.158   2.240
70217W        W41746  28.893   5.515  11.618
70218W        W41747   5.155  37.085   3.563
70219W        W41748  21.849  26.539  12.825
70220W        W41749  33.928  25.632  12.143
70221W        W41750  38.146  18.603   4.167
70222W        W41751  21.432  16.552   2.350
70223W        W41752   2.249  20.548  12.494
70224W        W41753  13.722  15.715   4.548
70225W        W41754  42.384   3.950  11.708
70226W        W41755  43.075   4.255   2.288
70227W        W41756  40.543  35.897   5.099
70228W        W41757  16.620  38.608  14.357
70229W        W41758   9.917  39.334  14.900
70230W        W41759  14.065   9.261   0.916
70231W        W41760  38.088  32.034   0.334
70232W        W41761   4.430  34.075  10.929
70233W        W41762  32.426   2.778  14.470
70234W        W41763  23.169  40.036   3.242
70235W        W41764  14.903  25.690   4.489
70236W        W41765  31.569   1.156  12.788
70237W        W41766   2.642  35.990   2.654
70238W        W41767   8.717  13.189  13.523
70239W        W41768   3.852  35.279  13.057
70240W        W41769  24.237  12.153  13.128
70241W        W41770  26.659  44.769   2.027
70242W        W41771  44.492   3.039   1.235
70243W        W41772   2.246  18.304   3.347
70244W        W41773  32.967  21.071   3.152
70245W        W41774  10.139  10.827  14.928
70246W        W41775  39.855  32.605  13.989
70247W        W41776  27.536   7.861   3.694
70248W        W41777  10.558  29.490   3.329
70249W        W41778  19.646  34.788  13.380
70250W        W41779   5.926  24.470   2.395
70251W        W41780   2.716   2.778  11.684
70252W        W41781  12.722  11.208   3.163
70253W        W41782  18.703   5.384  11.061
70254W        W41783  24.507  34.274   4.111
70255W        W41784  17.545   5.248  14.324
70256W        W41785  34.216  13.928   0.380
70257W        W41786  40.958   8.900   4.622
70258W        W41787  31.345  11.904  14.670
70259W        W41788  39.049  20.721   3.101
70260W        W41789   0.274  41.726   1.929
70261W        W41790  12.857   1.729   4.805
70262W        W41791   7.443   6.630  11.995
70263W        W41792  12.760  27.686  11.521
70264W        W41793  35.031  34.165  12.481
70265W        W41794  36.118  11.124   0.418
70266W        W41795  36.965  14.745   3.301
70267W        W41796  10.435   4.306   0.087
70268W        W41797   5.118   0.575   1.750
70269W        W41798  18.116  19.688   1.789
70270W        W41799  33.793  30.600   4.594
70271W        W41800  27.713   8.718   2.254
70272W        W41801   1.486  24.220   1.510
70273W        W41802  24.686  24.704   1.822
70274W        W41803   7.460  39.345  10.661
70275W        W41804   6.415  17.405   1.408
70276W        W41805  21.517  32.719  12.536
70277W        W41806   3.688  40.900   0.481
70278W        W41807  15.829  14.273   4.090
70279W        W41808  17.462   7.807   5.050
70280W        W41809   3.499  41.567  10.416
70281W        W41810  11.742  31.091  12.058
70282W        W41811  30.136  20.668   1.886
70283W        W41812  40.593  17.235   2.174
70284W        W41813  38.331  22.075  14.289
70285W        W41814   5.515  32.431   2.152
70286W        W41815  38.833  43.121   4.598
70287W        W41816  21.401  40.702   1.150
70288W        W41817  20.534  14.902   1.235
70289W        W41818  32.679  20.737  13.560
70290W        W41819  44.019  19.498   3.500
70291W        W41820  22.147  12.051  12.978
70292W        W41821  10.182  14.220  12.893
70293W        W41822   9.647  19.109  14.347
70294W        W41823  36.102   7.177   2.203
70295W        W41824  15.465  43.907   0.251
70296W        W41825   1.313  15.460   3.696
70297W        W41826  19.397  38.657  13.926
70298W        W41827  26.916  26.076  14.309
70299W        W41828   9.855  19.028  13.874
70300W        W41829  38.068  43.149  14.983
70301W        W41830  16.251  15.398   1.741
70302W        W41831   2.023  34.240  12.199
70303W        W41832  29.518  15.485  11.011
70304W        W41833  19.561  41.034  14.799
70305W        W41834  26.220  26.056   1.629
70306W        W41835  17.647   3.479   4.223
70307W        W41836  10.333  35.904   3.325
70308W        W41837   7.622   3.206  12.500
70309W        W41838   2.870  43.770  13.432
70310W        W41839  26.565  18.584  11.652
70311W        W41840  22.834  26.531   5.314
70312W        W41841  11.815   2.496  14.113
70313W        W41842  11.643  37.570   3.361
70314W        W41843  13.900   3.906  12.648
70315W        W41844   8.256  23.337  12.316
70316W        W41845  26.129  13.956   2.246
70317W        W41846   4.552   3.030   1.396
70318W        W41847  20.968  34.900  12.899
70319W        W41848   7.266  17.287  13.611
70320W        W41849  27.034  26.922  10.538
70321W        W41850  36.046   4.455   4.544
70322W        W41851  22.852  35.943  10.546
70323W        W41852   2.792  21.918   1.370
70324W        W41853  42.550   2.468   2.722
70325W        W41854  32.955  32.744  14.865
70326W        W41855  21.949  37.949   4.559
70327W        W41856  30.140  19.340  13.440
70328W        W41857  40.781   0.537   1.324
70329W        W41858  14.158   4.367   0.366
70330W        W41859   7.774  11.928   3.292
70331W        W41860  14.590  35.580   4.216
70332W        W41861  14.525  36.447  11.173
70333W        W41862  25.220  38.109  13.333
70334W        W41863  44.282  21.963  11.879
70335W        W41864  18.625   3.275  12.518
70336W        W41865  13.867  19.680   5.033
70337W        W41866   8.743  17.536   0.251
70338W        W41867  26.365  15.479  11.438
70339W        W41868   5.767  40.789   4.611
70340W        W41869  44.042  40.561  14.951
70341W        W41870  15.863  13.034   4.880
70342W        W41871   4.230   7.758   4.094
70343W        W41872   8.925  36.094  14.867
70344W        W41873  40.333  31.427   2.327
70345W        W41874  36.078  44.693  13.403
70346W        W41875  12.148   4.632  14.518
70347W        W41876  18.628  42.402  14.374
70348W        W41877  31.815  29.085   3.265
70349W        W41878  21.692   2.725   3.251
70350W        W41879   0.680   6.737   2.140
70351W        W41880  24.266  21.215  11.595
70352W        W41881  19.691  17.345   1.808
70353W        W41882  21.179  30.734  12.563
70354W        W41883   9.651  28.710  11.962
70355W        W41884   1.787  19.985   3.623
70356W        W41885  36.634  18.892  14.845
70357W        W41886   4.251  19.560  12.965
70358W        W41887   2.439   7.333  13.035
70359W        W41888  44.753  30.749  12.876
70360W        W41889  37.982  17.506  10.909
70361W        W41890  26.271  44.320  13.903
70362W        W41891  14.324   5.673  12.443
70363W        W41892   3.848  42.587   2.650
70364W        W41893  26.939  43.792  10.475
70365W        W41894  13.525  25.017   2.312
70366W        W41895  16.558  12.717  12.875
70367W        W41896  40.292   6.185   4.976
70368W        W41897  28.283  36.437  13.721
70369W        W41898   3.952  26.296   1.201
70370W        W41899  43.909  13.378  11.654
70371W        W41900  42.694  38.595   3.177
70372W        W41901   3.943  35.466   2.845
70373W        W41902  35.448  10.242  13.851
70374W        W41903  28.903  16.567   4.626
70375W        W41904  32.562  37.050   2.819
70376W        W41905  44.782  27.082  14.003
70377W        W41906  39.127  13.628  11.745
70378W        W41907  37.376  10.729  14.523
70379W        W41908  25.701  38.524  14.244
70380W        W41909  44.785  19.237  11.184
70381W        W41910   2.358   4.875   3.365
70382W        W41911   9.284  30.084  13.619
70383W        W41912  31.859  39.448   0.050
70384W        W41913  22.002   7.149   1.835
70385W        W41914   8.803  32.833  14.304
70386W        W41915   4.957  41.082  13.014
70387W        W41916  10.437  36.120  12.433
70388W        W41917  12.863  44.913  14.830
70389W        W41918  14.191  35.309   1.330
70390W        W41919  43.168  15.351   1.186
70391W        W41920   2.778  17.233   3.644
70392W        W41921  27.919   1.922  10.984
70393W        W41922  41.043  19.528  13.551
70394W        W41923  10.894  31.590  11.042
70395W        W41924  25.188  19.154  10.656
70396W        W41925  10.175   6.773  10.700
70397W        W41926   6.618  18.533   0.896
70398W        W41927  21.101   7.986   0.858
70399W        W41928   9.641  15.268   2.673
70400W        W41929  34.162   4.813   0.935
70401W        W41930   4.330  39.770   3.009
70402W        W41931  41.890  14.768  12.661
70403W        W41932  37.435   6.594   4.032
70404W        W41933  31.520  38.897   1.184
70405W        W41934   4.414  29.542   0.822
70406W        W41935  44.737  28.096   1.260
70407W        W41936  32.671  40.316  11.854
70408W        W41937  35.252  30.048  13.291
70409W        W41938   9.145  24.726  14.497
70410W        W41939   5.894  34.452  12.088
70411W        W41940  41.268  17.837  11.994
70412W        W41941  41.763  19.188   1.896
70413W        W41942  26.145  39.467   1.434
70414W        W41943  25.956  10.804   0.676
70415W        W41944   5.388   2.787   4.630
70416W        W41945  24.112   1.509  13.378
70417W        W41946  35.586   3.688   4.946
70418W        W41947  44.102   0.137  14.008
70419W        W41948   2.689  12.998   3.343
70420W        W41949  32.085  24.613   4.313
70421W        W41950  29.359  14.653   3.707
70422W        W41951   3.825  40.484  11.982
70423W        W41952   4.466   0.172   3.996
70424W        W41953  12.585  14.790  12.892
70425W        W41954  16.423   3.892   4.139
70426W        W41955   1.469  11.726  13.107
70427W        W41956  22.278  28.437   0.411
70428W        W41957  14.106  13.544  12.046
70429W        W41958  16.082  27.566  11.222
70430W        W41959  16.117  32.184  11.269
70431W        W41960  39.601  17.196  11.075
70432W        W41961  18.275  19.147   0.275
70433W        W41962  40.601   7.405  14.174
70434W        W41963   8.734   2.451  13.562
70435W        W41964  15.625  39.451   4.879
70436W        W41965  15.312  11.159   3.682
70437W        W41966   0.332   3.761  14.284
70438W        W41967  38.027  25.555   1.701
70439W        W41968  18.128   8.365   1.323
70440W        W41969   3.367  39.864   2.436
70441W        W41970   6.326   0.737  14.887
70442W        W41971   4.470  12.710  14.073
70443W        W41972  32.470  38.288  10.431
70444W        W41973   4.392  18.701   1.962
70445W        W41974  28.844  44.351  14.020
70446W        W41975  24.263  31.437  12.897
70447W        W41976  31.044  19.795   0.908
70448W        W41977  20.677   6.464  13.125
70449W        W41978  34.732  20.572   0.386
70450W        W41979   3.782  21.690   0.163
70451W        W41980  11.270   8.910   0.890
70452W        W41981  38.899  12.414   3.952
70453W        W41982  39.793  11.277  11.084
70454W        W41983  25.929   1.637  12.989
70455W        W41984  41.252  12.134   1.627
70456W        W41985   9.631  22.665   4.565
70457W        W41986  24.536   8.640   0.292
70458W        W41987  26.791  38.383   2.887
70459W        W41988  29.954  21.606  12.147
70460W        W41989  40.765  31.140   2.347
70461W        W41990  31.601  44.606   0.410
70462W        W41991  28.937  10.386  11.537
70463W        W41992  11.634  42.496  12.526
70464W        W41993  16.789  14.745  12.977
70465W        W41994  22.541   3.752   2.323
70466W        W41995  21.628   3.673   1.907
70467W        W41996  33.932  18.287  10.377
70468W        W41997   6.892   3.508  13.385
70469W        W41998  13.277   2.490   2.067
70470W        W41999   1.739   0.148   1.872
70471W        W42000  16.113   0.754  12.754
70472W        W42001  33.886  22.148   2.911
70473W        W42002  29.498  32.315  13.959
70474W        W42003  12.603  28.961  13.116
70475W        W42004  12.191   7.540   2.855
70476W        W42005  33.815   5.416  14.800
70477W        W42006   4.688  26.769  14.888
70478W        W42007   3.793   5.124  12.463
70479W        W42008  17.048  13.263   1.831
70480W        W42009  31.150  10.362   4.013
70481W        W42010  37.076  12.831   2.728
70482W        W42011  40.358   2.909  12.446
70483W        W42012  17.097  37.810   4.128
70484W        W42013   3.406  37.732  11.154
70485W        W42014  19.690  10.616   3.127
70486W        W42015  34.186  10.281  14.996
70487W        W42016  26.486   4.255   3.323
70488W        W42017  44.321  32.458   2.335
70489W        W42018   1.480  16.257   0.760
70490W        W42019  28.011  10.552   4.922
70491W        W42020  39.348  18.362  12.591
70492W        W42021  20.697  44.016   2.979
70493W        W42022  11.476  17.750  12.452
70494W        W42023  32.125  12.662   3.794
70495W        W42024   0.108  24.771  14.078
70496W        W42025  44.482  26.103  12.050
70497W        W42026  23.464  39.032  11.560
70498W        W42027   6.662   9.965   1.440
70499W        W42028  25.754  39.887  13.472
70500W        W42029   8.647  25.534  12.511
70501W        W42030  24.636   9.162  12.907
70502W        W42031  23.181  33.457  13.445
70503W        W42032   9.731  24.195  11.380
70504W        W42033   5.853  19.045  13.575
70505W        W42034  13.884   1.902  14.940
70506W        W42035  21.215  41.529  11.597
70507W        W42036  23.143  35.299   0.645
70508W        W42037  27.683  23.099  11.482
70509W        W42038  10.215  31.156  13.892
70510W        W42039  16.103   1.112  13.109
70511W        W42040   0.406  22.267  11.145
70512W        W42041  43.768  15.909   4.263
70513W        W42042  12.975  23.193  11.632
70514W        W42043  42.865  18.764   2.254
70515W        W42044  36.819  35.383   2.274
70516W        W42045   7.005  26.547  13.377
70517W        W42046  24.295   5.690  12.125
70518W        W42047  10.537  38.476   2.171
70519W        W42048  15.702   4.409   2.724
70520W        W42049  35.823  28.792   4.189
70521W        W42050  17.021   1.502  12.651
70522W        W42051  25.036   0.565   3.712
70523W        W42052   8.639  32.549  11.747
70524W        W42053   7.640   1.940   4.265
70525W        W42054  11.802  44.532  12.394
70526W        W42055  16.728  11.643  13.054
70527W        W42056  43.428  22.210  14.556
70528W        W42057  24.151  36.266   1.003
70529W        W42058  35.497  14.378  11.118
70530W        W42059  32.659  19.590  11.059
70531W        W42060  16.257  16.239  10.566
70532W        W42061   0.439   2.196   2.315
70533W        W42062   6.193  15.695  14.232
70534W        W42063  21.420  40.580   3.681
70535W        W42064  17.586  13.478   0.077
70536W        W42065   5.640   1.012   3.305
70537W        W42066  11.636   1.353   2.750
70538W        W42067  32.949  29.074   4.851
70539W        W42068  44.664   1.402   0.350
70540W        W42069   2.515  44.913   0.457
70541W        W42070  23.012  43.732  13.948
70542W        W42071  23.487  20.375  14.854
70543W        W42072  40.589  21.690  14.389
70544W        W42073  24.868  27.027  14.936
70545W        W42074  40.087  35.048   0.806
70546W        W42075  41.329  12.559   2.424
70547W        W42076  37.429  41.972   1.769
70548W        W42077  14.881  42.416  12.565
70549W        W42078  44.984  36.702   2.364
70550W        W42079  43.904  25.818  10.597
70551W        W42080  13.770  12.687   3.082
70552W        W42081  36.971  19.314  14.341
70553W        W42082   6.093  23.563   4.592
70554W        W42083   3.838   0.232  13.971
70555W        W42084   8.800  31.351   3.726
70556W        W42085  28.891  12.748   0.959
70557W        W42086  13.604  10.260   4.961
70558W        W42087  34.017  20.479  12.958
70559W        W42088  20.642  19.669   4.118
70560W        W42089  15.368  31.581  11.040
70561W        W42090   7.278  14.825   1.308
70562W        W42091  11.619  15.900  13.450
70563W        W42092  43.602  23.268   1.267
70564W        W42093  21.805   8.401   4.865
70565W        W42094   6.111  33.842  10.973
70566W        W42095  35.569  38.744   3.301
70567W        W42096  40.115  34.290  12.526
70568W        W42097  21.069  21.508  14.766
70569W        W42098   7.090  31.791  11.440
70570W        W42099  14.111  36.569   4.485
70571W        W42100  22.791  29.513  13.385
70572W        W42101  25.158  10.972  13.083
70573W        W42102  10.192  26.772   4.564
70574W        W42103   3.769  19.039  13.990
70575W        W42104  26.295  11.350   3.223
70576W        W42105  28.374   6.723  13.051
70577W        W42106  40.406   7.552  11.546
70578W        W42107  39.604   3.875  11.943
70579W        W42108  43.221  11.793   3.578
70580W        W42109  29.544  11.885  13.567
70581W        W42110  38.777   0.589  11.690
70582W        W42111  15.747   6.066  13.423
70583W        W42112  32.111  38.272   1.540
70584W        W42113  22.717   4.736   3.841
70585W        W42114  40.942  37.885  12.859
70586W        W42115  17.109   3.344   0.997
70587W        W42116   3.922  10.851  12.143
70588W        W42117  35.816  18.355   2.265
70589W        W42118  15.428  43.291   1.886
70590W        W42119  16.825  17.116  14.349
70591W        W42120  11.241  40.899   0.425
70592W        W42121  43.839  36.097   1.886
70593W        W42122  32.475   5.243  14.476
70594W        W42123  24.480   7.578   3.261
70595W        W42124  22.229  43.851  12.027
70596W        W42125   7.437  34.365  12.057
70597W        W42126   1.438  14.199  10.666
70598W        W42127   4.218  24.647   4.304
70599W        W42128  15.385  36.578   0.363
70600W        W42129  34.480   0.818   1.010
70601W        W42130  12.861  20.498  13.693
70602W        W42131  26.955  41.520   0.742
70603W        W42132  21.724  36.493  13.786
70604W        W42133  14.097  10.756   1.440
70605W        W42134   1.071  27.202  12.965
70606W        W42135  40.301   9.801  10.744
70607W        W42136  36.667  37.659   1.847
70608W        W42137  42.424  21.995  13.842
70609W        W42138   4.547  38.098   0.782
70610W        W42139  43.022  38.803  12.527
70611W        W42140  15.529  12.146  14.049
70612W        W42141   7.032   0.068  13.077
70613W        W42142  11.128  15.113   1.895
70614W        W42143   9.167   0.283   0.064
70615W        W42144  18.206  36.781   4.030
70616W        W42145   8.671  23.462   4.095
70617W        W42146  43.898  44.292   3.783
70618W        W42147  39.316   5.106   1.789
70619W        W42148  26.132  18.836   4.740
70620W        W42149  21.594   0.397   4.689
70621W        W42150  34.956  30.133  10.706
70622W        W42151  30.551  36.205   0.336
70623W        W42152  31.372   1.452   3.284
70624W        W42153   7.440  10.349   4.816
70625W        W42154  14.480  34.003  14.038
70626W        W42155  24.564   4.808   1.782
70627W        W42156   2.331   1.991   4.620
70628W        W42157  16.619  43.431  10.639
70629W        W42158   5.956  12.852  13.722
70630W        W42159  21.524  37.429  10.270
70631W        W42160  20.727   7.663  14.319
70632W        W42161  23.713  26.651   1.448
70633W        W42162  42.785  44.484   0.308
70634W        W42163   3.243  23.165  11.076
70635W        W42164   2.754  35.428   4.888
70636W        W42165  11.952   1.791  14.813
70637W        W42166  18.389  21.164  11.583
70638W        W42167  23.641  43.835   1.600
70639W        W42168  14.295  19.619   3.205
70640W        W42169   1.381  39.491  14.405
70641W        W42170  19.534  10.632  14.393
70642W        W42171  25.027  17.111  11.959
70643W        W42172  22.466  17.039   0.714
70644W        W42173  11.398  33.522   1.160
70645W        W42174  28.553  19.010   2.190
70646W        W42175   6.338  41.127  13.846
70647W        W42176  24.284  19.765   3.255
70648W        W42177  21.240  21.497  12.862
70649W        W42178  17.270  29.015   3.783
70650W        W42179  23.618  22.582  12.048
70651W        W42180  14.557   5.131  12.050
70652W        W42181  27.347   0.977  11.342
70653W        W42182  28.087  35.028  14.128
70654W        W42183  34.189  41.962  12.442
70655W        W42184  15.350  13.210  12.478
70656W        W42185  30.157  14.260   3.523
70657W        W42186  32.786  28.259   5.072
70658W        W42187  38.816  31.837  10.417
70659W        W42188  33.638  28.013   4.509
70660W        W42189  37.498  26.069  14.354
70661W        W42190   3.913  14.284   3.104
70662W        W42191  31.996   5.134   2.650
70663W        W42192  37.027  25.930   5.078
70664W        W42193  15.325   4.198   2.388
70665W        W42194   8.392  10.176   2.514
70666W        W42195  14.147  32.057  11.504
70667W        W42196   2.225  42.463  14.191
70668W        W42197  28.880  41.846   1.249
70669W        W42198   7.303   7.345  13.906
70670W        W42199  20.543   0.488   4.209
70671W        W42200  20.075  31.035  14.474
70672W        W42201   7.912  31.509   2.230
70673W        W42202  40.516   9.343   4.141
70674W        W42203  24.000  10.904  10.706
70675W        W42204   7.694  28.520  14.097
70676W        W42205  26.169  39.829   0.698
70677W        W42206  14.575   3.092   2.109
70678W        W42207  22.637  10.586  14.421
70679W        W42208  36.525  41.589  12.305
70680W        W42209  26.528  11.289   4.546
70681W        W42210  37.468   9.064   2.358
70682W        W42211  34.814  10.097   5.107
70683W        W42212   8.918  38.201   0.917
70684W        W42213   4.230   5.667   4.254
70685W        W42214  11.148  40.287  12.449
70686W        W42215  24.860  25.292  11.090
70687W        W42216  25.435  18.322  13.002
70688W        W42217   3.778  25.054   1.990
70689W        W42218  30.508  27.330  12.756
70690W        W42219   0.678  37.589  12.177
70691W        W42220   5.335  42.429  12.078
70692W        W42221  12.355  16.003  13.556
70693W        W42222  38.793  28.360   2.798
70694W        W42223  29.214  42.414  14.441
70695W        W42224  40.326  15.062  14.704
70696W        W42225  25.128  18.583   4.226
70697W        W42226  39.421  29.009  12.155
70698W        W42227  33.626   4.256  14.223
70699W        W42228  29.429   6.806  14.047
70700W        W42229  19.706  13.029   4.658
70701W        W42230  31.593  26.291   3.102
70702W        W42231  19.627   4.873   0.506
70703W        W42232  25.563   1.696   2.778
70704W        W42233  19.145  39.652  12.472
70705W        W42234  14.084   0.079   2.225
70706W        W42235  28.177  29.298   4.637
70707W        W42236  38.224  10.525  11.747
70708W        W42237   1.227   7.388   2.729
70709W        W42238  14.295  44.026  12.369
70710W        W42239   3.357  31.217   1.365
70711W        W42240   6.598   7.852  13.015
70712W        W42241  27.360  23.016  11.866
70713W        W42242  40.961  13.211  12.684
70714W        W42243  22.282  41.496   0.495
70715W        W42244  21.644  16.167   4.310
70716W        W42245  26.476  27.959  14.341
70717W        W42246  39.004  21.577  13.111
70718W        W42247  11.748  23.479   3.501
70719W        W42248  17.748  21.093   1.520
70720W        W42249   0.842  32.300   4.474
70721W        W42250   9.361  36.194   9.851
70722W        W42251  37.797  30.847  13.062
70723W        W42252   3.562  44.459  11.929
70724W        W42253  11.301  34.348  14.393
70725W        W42254   3.102  27.550  12.988
70726W        W42255  22.626  44.965   3.198
70727W        W42256  32.568  29.731  10.487
70728W        W42257  37.919  26.059   3.930
70729W        W42258  42.522   6.144   4.242
70730W        W42259  28.435  39.792   2.406
70731W        W42260   7.281  15.266   3.069
70732W        W42261   1.530   0.733   3.061
70733W        W42262   9.713  32.853  14.100
70734W        W42263   3.667  16.116  13.056
70735W        W42264  32.070  19.056   0.476
70736W        W42265  22.187   2.646  13.318
70737W        W42266   6.733  31.477   1.333
70738W        W42267   9.321  31.692  11.111
70739W        W42268  39.431  17.353   2.559
70740W        W42269  10.498  37.479  12.678
70741W        W42270  33.544   6.353   4.466
70742W        W42271  40.476   7.734   1.855
70743W        W42272  16.537  24.945   4.649
70744W        W42273  25.518  20.059  14.278
70745W        W42274  25.326   5.702  11.121
70746W        W42275   5.544  21.559  13.061
70747W        W42276  25.529  33.855   3.587
70748W        W42277   9.953   2.972   3.166
70749W        W42278   3.306   0.240   3.240
70750W        W42279  28.375  12.282   4.235
70751W        W42280  15.660  10.310  12.965
70752W        W42281  33.074  37.044  12.400
70753W        W42282  42.025  28.523   1.036
70754W        W42283   5.369   2.612   4.104
70755W        W42284   5.109  40.086   1.786
70756W        W42285  14.174   9.927   2.725
70757W        W42286  19.225  44.452  14.796
70758W        W42287  33.440  39.955   1.432
70759W        W42288  36.622  33.584  14.108
70760W        W42289   1.136  10.622   4.113
70761W        W42290   1.048  21.149   1.318
70762W        W42291   2.047  43.462   3.113
70763W        W42292  31.025  36.903  10.614
70764W        W42293  16.612  17.049   1.838
70765W        W42294  15.593  20.214  11.993
70766W        W42295  19.205  10.754  13.992
70767W        W42296  38.477  43.495  14.054
70768W        W42297  17.784  34.244  11.915
70769W        W42298  14.099   1.764   0.873
70770W        W42299  38.037   9.669   1.310
70771W        W42300  40.826   6.025   1.384
70772W        W42301  33.409  28.471   3.239
70773W        W42302   1.952  26.148  11.712
70774W        W42303  26.073  16.560  11.079
70775W        W42304   6.394  10.438  12.461
70776W        W42305   8.308  37.796  13.851
70777W        W42306  17.766  19.854   2.260
70778W        W42307  19.032  43.320   1.272
70779W        W42308  38.284  33.948  14.311
70780W        W42309  23.382  34.482   1.226
70781W        W42310  35.450  43.063   1.837
70782W        W42311   5.783   5.871  10.680
70783W        W42312   6.239  31.870   2.718
70784W        W42313   6.980  31.498   0.749
70785W        W42314  22.075  44.793   2.561
70786W        W42315   2.815   4.784  13.974
70787W        W42316  24.053  19.555  13.905
70788W        W42317  24.762  10.308   1.966
70789W        W42318  23.650  42.241  11.509
70790W        W42319  18.127  20.012   5.025
70791W        W42320  30.175  26.721   0.167
70792W        W42321   1.463  41.629   0.497
70793W        W42322  32.859   5.613  10.780
70794W        W42323  32.307   5.422   3.162
70795W        W42324  37.025  17.778   2.851
70796W        W42325   3.956  34.034  11.847
70797W        W42326  12.645   1.702  11.078
70798W        W42327   8.228  28.962   3.665
70799W        W42328  15.160  21.284  13.881
70800W        W42329  18.844   3.399  12.973
70801W        W42330  28.680  41.026  10.746
70802W        W42331  38.024  33.499  12.182
70803W        W42332  30.035   2.289   0.657
70804W        W42333  16.795  33.895   4.328
70805W        W42334  14.191  29.552  14.839
70806W        W42335  33.488  41.741   2.432
70807W        W42336  43.995  16.865   0.920
70808W        W42337  24.261  33.481   3.149
70809W        W42338  27.167  19.152   0.619
70810W        W42339  32.467   2.668  13.948
70811W        W42340   1.622  20.078   2.192
70812W        W42341  14.818  10.387   0.632
70813W        W42342  42.771  18.174   0.888
70814W        W42343  13.746  13.629   1.826
70815W        W42344  27.878   2.829   4.354
70816W        W42345   5.850  40.450   1.464
70817W        W42346  12.218  18.816  12.182
70818W        W42347  36.476   5.452   4.193
70819W        W42348  31.056   5.967   0.741
70820W        W42349  22.160  14.477  11.656
70821W        W42350  32.002  11.115  14.979
70822W        W42351  34.808  24.638  13.400
70823W        W42352  44.241  22.688   4.101
70824W        W42353  19.045  23.207   1.147
70825W        W42354  33.574  26.420  11.372
70826W        W42355  14.604  38.932  12.065
70827W        W42356  26.508  20.641  11.197
70828W        W42357   9.617  34.613  14.829
70829W        W42358   0.859  20.970  12.775
70830W        W42359   5.673  33.621  10.763
70831W        W42360  10.363  29.579  14.553
70832W        W42361  17.655  34.758   3.427
70833W        W42362  30.803   5.747  13.868
70834W        W42363   5.231  19.567   3.573
70835W        W42364  38.450   7.831  12.502
70836W        W42365  25.607   8.740  10.275
70837W        W42366  34.796  32.664  11.915
70838W        W42367  34.524  16.263   4.519
70839W        W42368  37.588   7.401  13.795
70840W        W42369   5.287   1.941   1.971
70841W        W42370  26.221  17.063   1.183
70842W        W42371  25.660  25.206  11.372
70843W        W42372  19.263  21.210   1.264
70844W        W42373  35.130   9.797  12.929
70845W        W42374  11.270  25.662   4.371
70846W        W42375  10.130  21.460  12.995
70847W        W42376   3.491  43.071   1.812
70848W        W42377  21.322  33.185  10.804
70849W        W42378  20.227   5.895   1.831
70850W        W42379   0.310  32.593  13.466
70851W        W42380   1.606  29.953   0.841
70852W        W42381  14.396  41.120   3.680
70853W        W42382  32.966   4.211   3.146
70854W        W42383  28.594  30.125  14.375
70855W        W42384  43.279   8.476   4.100
70856W        W42385  40.877  21.681  13.287
70857W        W42386  16.229  32.487   3.389
70858W        W42387  19.278   7.433   4.085
70859W        W42388  26.441  15.584   4.710
70860W        W42389  12.842   2.355  10.652
70861W        W42390  20.097  17.790  12.414
70862W        W42391  23.288  38.755   4.412
70863W        W42392  44.799  37.020   3.201
70864W        W42393   1.935  37.863   2.681
70865W        W42394   7.808  26.057   0.106
70866W        W42395   3.299  30.129  14.425
70867W        W42396  22.126  29.734  11.992
70868W        W42397  42.535  10.332   3.175
70869W        W42398  44.989  16.131  13.385
70870W        W42399  30.772   3.436  14.535
70871W        W42400  26.520  27.511  13.412
70872W        W42401  14.237   4.435   3.674
70873W        W42402   5.283  26.951   1.346
70874W        W42403  34.987  26.427  10.676
70875W        W42404  35.615  40.771  14.989
70876W        W42405  17.270  12.740   3.115
70877W        W42406   1.893  12.670  11.739
70878W        W42407  18.985  21.047  13.491
70879W        W42408  34.317  38.437  11.992
70880W        W42409  16.370  27.970  11.405
70881W        W42410  17.879  43.817  13.769
70882W        W42411  39.256   7.035  14.075
70883W        W42412  13.331  12.340  12.691
70884W        W42413  40.267   4.174  13.678
70885W        W42414  38.289  20.158   2.549
70886W        W42415  15.790   1.240  10.760
70887W        W42416  41.326  33.833   4.176
70888W        W42417  43.134  15.069  12.900
70889W        W42418  37.015  44.986   2.776
70890W        W42419   4.475   1.546   1.433
70891W        W42420   7.318  16.008  12.192
70892W        W42421  34.899  22.964  14.774
70893W        W42422  20.680   8.646   2.199
70894W        W42423  14.423  34.955  11.171
70895W        W42424  16.074   6.299  12.022
70896W        W42425   8.318  40.976  13.848
70897W        W42426  34.507  28.550   3.136
70898W        W42427  17.826  36.836  13.462
70899W        W42428  11.705  37.257  10.604
70900W        W42429  34.083  27.470   1.932
70901W        W42430  40.552  23.954   4.185
70902W        W42431  14.272   9.231   3.594
70903W        W42432   2.331  44.924  14.460
70904W        W42433  10.773  31.459  12.753
70905W        W42434  40.208  20.513  13.039
70906W        W42435  40.606  14.696   2.490
70907W        W42436  10.093  10.783   2.309
70908W        W42437  14.241  40.856  10.846
70909W        W42438   5.428  11.556  13.287
70910W        W42439  18.352  11.486  13.665
70911W        W42440  42.915  26.310  12.431
70912W        W42441  36.605  28.522  11.174
70913W        W42442  16.662   6.002   2.286
70914W        W42443  24.801  21.210  11.775
70915W        W42444  38.876   5.427  14.886
70916W        W42445  18.786   5.267  11.548
70917W        W42446  43.521  18.979   4.581
70918W        W42447  32.963  23.229   1.389
70919W        W42448  15.194  43.453   4.717
70920W        W42449   0.244  12.330   2.735
70921W        W42450  23.099  32.939  12.802
70922W        W42451  40.774   9.842   3.641
70923W        W42452  40.303   4.393  10.481
70924W        W42453  39.787  10.743   2.839
70925W        W42454  43.412  27.794   3.243
70926W        W42455  35.569  36.842   0.145
70927W        W42456  20.157  31.116  13.817
70928W        W42457  31.405  42.171   4.332
70929W        W42458  18.160  24.715   2.343
70930W        W42459   6.458  44.306  14.739
70931W        W42460  41.890   8.637   1.388
70932W        W42461   8.164   1.381  11.929
70933W        W42462  11.236  30.024  11.689
70934W        W42463  30.992  23.081  10.658
70935W        W42464  33.083  23.744  12.985
70936W        W42465  44.279  21.909  13.881
70937W        W42466  40.520  12.895   4.503
70938W        W42467   9.549  15.211   1.384
70939W        W42468  18.729  30.861  11.353
70940W        W42469  18.107  30.396  12.940
70941W        W42470  22.001   0.422   1.953
70942W        W42471  38.322  26.663  11.528
70943W        W42472   3.065  35.150   4.522
70944W        W42473  41.558  42.002  11.622
70945W        W42474   5.640  14.801   4.189
70946W        W42475  21.129   0.236  10.720
70947W        W42476   6.371   2.074  13.317
70948W        W42477  39.976  19.943   4.447
70949W        W42478  39.610  14.809  13.347
70950W        W42479   5.298  22.560   3.227
70951W        W42480  44.433  13.426   2.590
70952W        W42481  44.022  43.573  11.008
70953W        W42482  24.461  21.204  14.443
70954W        W42483  37.937  44.356   2.882
70955W        W42484  18.945  10.259  12.153
70956W        W42485  31.464  17.161   3.445
70957W        W42486   4.227   9.129   2.814
70958W        W42487  34.523  34.357   3.309
70959W        W42488  12.076  22.552   0.364
70960W        W42489  27.502  28.532   1.404
70961W        W42490  15.532   7.279   2.539
70962W        W42491  14.280  13.168  12.486
70963W        W42492  16.046  35.141   3.780
70964W        W42493  37.411   1.104  12.912
70965W        W42494  10.192  20.068  13.340
70966W        W42495   0.309  24.654   2.247
70967W        W42496  42.029  33.358   9.985
70968W        W42497  28.118  17.284   5.116
70969W        W42498  30.513   6.432  13.308
70970W        W42499  31.968  30.476  13.149
70971W        W42500   8.600  17.719  13.545
70972W        W42501  30.090  27.650  12.575
70973W        W42502  27.128  29.925  10.664
70974W        W42503  43.742  25.160  13.075
70975W        W42504  44.845  43.363   0.620
70976W        W42505  36.282  13.827   0.708
70977W        W42506  34.958  21.314   0.950
70978W        W42507  29.414  15.263  13.612
70979W        W42508  23.068  38.217  13.812
70980W        W42509  30.678  36.295  12.028
70981W        W42510  41.805  12.405   2.502
70982W        W42511  37.680  29.799   2.332
70983W        W42512   2.400  21.717  14.082
70984W        W42513  32.462  29.368   4.565
70985W        W42514  24.459  30.100   3.642
70986W        W42515  17.786   3.939   4.026
70987W        W42516  26.654  27.493  12.561
70988W        W42517  12.175   2.871  10.425
70989W        W42518   2.361  29.674   0.581
70990W        W42519   2.234   0.281  11.394
70991W        W42520  36.915  38.312   3.174
70992W        W42521   4.917  33.950   4.708
70993W        W42522  29.545  44.804  13.490
70994W        W42523  26.279  34.126   0.404
70995W        W42524  12.786  35.900  11.690
70996W        W42525   1.365  19.807  11.705
70997W        W42526  15.070  32.456   2.675
70998W        W42527  26.709   5.207  11.101
70999W        W42528  13.617  37.297  12.042
71000W        W42529   6.320   5.759  12.479
71001W        W42530  25.007  16.069  10.570
71002W        W42531  36.916   4.761  14.439
71003W        W42532  11.279  21.667   1.413
71004W        W42533  34.847   5.433  11.649
71005W        W42534   3.565   8.395   0.821
71006W        W42535  24.860  22.569  11.236
71007W        W42536  24.960  18.117  12.955
71008W        W42537  21.783  36.863  11.594
71009W        W42538  39.811  17.940  14.473
71010W        W42539  36.074  29.961  12.980
71011W        W42540  33.825  32.707   1.147
71012W        W42541   1.396  41.355   0.054
71013W        W42542  24.712  11.416  14.234
71014W        W42543  19.576  38.355   2.096
71015W        W42544  31.122  35.908   2.376
71016W        W42545  12.373   6.404   0.738
71017W        W42546  31.115  20.553  14.759
71018W        W42547  36.966  41.460   2.862
71019W        W42548  23.090  27.970   5.005
71020W        W42549  21.060  44.415  13.195
71021W        W42550   1.024  28.692  14.054
71022W        W42551   2.158   5.682  11.113
71023W        W42552  43.049  11.682  11.077
71024W        W42553  19.802  41.059   4.971
71025W        W42554  34.896   8.002  12.803
71026W        W42555  32.307  20.345   2.241
71027W        W42556  19.322  21.858  12.238
71028W        W42557  11.401  11.799   1.556
71029W        W42558  28.742  38.889  10.614
71030W        W42559   9.542  41.309   2.033
71031W        W42560   8.279  40.015  10.755
71032W        W42561  37.836  38.309   4.383
71033W        W42562  15.783  22.568   4.138
71034W        W42563  28.480   9.281  13.131
71035W        W42564  32.010  43.760   2.181
71036W        W42565  44.243   2.289   1.895
71037W        W42566  14.123   3.845  11.882
71038W        W42567  32.272  31.412  14.046
71039W        W42568  35.020   0.640  10.421
71040W        W42569  13.783  33.620   1.436
71041W        W42570   4.420  28.774  14.086
71042W        W42571  27.567  25.511   4.443
71043W        W42572  19.723  24.270  10.752
71044W        W42573  39.338  31.053  11.226
71045W        W42574   6.326  19.951  13.359
71046W        W42575  25.570  14.162   3.164
71047W        W42576   8.307  22.759  12.468
71048W        W42577  31.763   0.331   1.434
71049W        W42578  42.770  10.384   0.264
71050W        W42579  31.805  15.413   4.969
71051W        W42580   0.034  18.198  11.934
71052W        W42581  35.927  30.230   4.061
71053W        W42582  35.146  24.970  12.585
71054W        W42583  18.151  10.710   1.944
71055W        W42584  37.981  37.734   1.880
71056W        W42585  34.267  25.654   0.311
71057W        W42586  20.653  29.236   3.332
71058W        W42587  32.531   0.002   1.372
71059W        W42588   4.949  21.251   2.633
71060W        W42589  21.058  44.520   2.401
71061W        W42590  24.984  40.475  11.174
71062W        W42591  29.522  38.878  12.411
71063W        W42592  35.642   6.397   0.834
71064W        W42593  31.582  43.831   4.625
71065W        W42594  42.889  40.547   4.650
71066W        W42595  38.877  31.022  11.590
71067W        W42596  38.750   4.248  13.452
71068W        W42597  22.475  29.957   3.780
71069W        W42598  32.367   7.406   1.203
71070W        W42599  42.814  43.692   1.457
71071W        W42600   2.967  32.668   1.311
71072W        W42601   3.589  16.186   2.223
71073W        W42602  18.661  38.598   4.177
71074W        W42603  40.967   0.859   4.894
71075W        W42604  40.704  26.734  11.955
71076W        W42605  18.248  29.972  14.807
71077W        W42606   0.032  17.983   1.519
71078W        W42607   4.847  12.051   4.359
71079W        W42608   2.256  22.957   3.212
71080W        W42609  41.883  41.153   0.016
71081W        W42610  36.744  13.076   0.521
71082W        W42611   5.942  18.078   1.513
71083W        W42612  25.528  23.838   1.779
71084W        W42613  33.548  13.808  14.980
71085W        W42614  23.205  24.755   1.527
71086W        W42615  14.900  20.764  13.846
71087W        W42616  44.210  35.138   0.516
71088W        W42617  19.284  16.725   2.694
71089W        W42618   1.372  18.900   2.990
71090W        W42619  24.056   6.846   2.167
71091W        W42620   8.259   0.406   5.074
71092W        W42621  17.751   4.103   3.310
71093W        W42622   8.794  30.958  12.138
71094W        W42623  20.574  14.303   2.382
71095W        W42624   6.187   4.696  13.542
71096W        W42625  41.948  35.075   3.165
71097W        W42626   6.400  23.466   1.414
71098W        W42627  25.923  30.480   2.812
71099W        W42628   7.147  33.565  13.224
71100W        W42629  10.826  40.910   3.303
71101W        W42630   8.826   2.966   3.860
71102W        W42631  30.297  14.175  13.466
71103W        W42632  32.099   5.985   3.224
71104W        W42633  35.325  18.803   1.409
71105W        W42634  33.906  16.383  13.430
71106W        W42635   6.532  31.134   0.539
71107W        W42636  18.743  26.036   3.798
71108W        W42637   6.473  22.596   1.489
71109W        W42638  12.588  18.305   2.194
71110W        W42639  16.303   3.698  12.438
71111W        W42640  23.767   0.260  13.582
71112W        W42641  42.203  10.893  13.020
71113W        W42642  12.436  26.026  14.837
71114W        W42643  11.605  44.884   3.195
71115W        W42644  44.340  36.247   4.348
71116W        W42645   9.109  16.144  14.035
71117W        W42646  18.357   0.502   2.783
71118W        W42647  30.658  40.434   3.088
71119W        W42648  15.064  15.833  11.174
71120W        W42649  23.313  14.226   1.045
71121W        W42650  17.686  33.821  11.542
71122W        W42651  26.439  20.047   4.182
71123W        W42652   9.868  25.709  12.626
71124W        W42653  22.601  21.268  10.647
71125W        W42654   1.528  12.743  14.471
71126W        W42655  19.805  15.037  12.052
71127W        W42656  37.418  30.348  12.228
71128W        W42657  20.663  13.880   1.281
71129W        W42658  32.009   0.967  14.954
71130W        W42659  25.011  27.028  12.987
71131W        W42660   9.742  26.610   3.771
71132W        W42661  40.836  34.000   2.392
71133W        W42662   4.966  42.397   0.455
71134W        W42663  17.171   9.277   2.197
71135W        W42664  35.263  20.014  12.306
71136W        W42665   2.255  13.236   2.214
71137W        W42666  35.655  18.687  11.136
71138W        W42667  40.840  13.909   2.761
71139W        W42668  41.275  27.969  13.904
71140W        W42669  11.217   3.036  10.228
71141W        W42670  40.915  31.968  14.599
71142W        W42671  11.003  43.342   9.811
71143W        W42672  12.830  13.420  12.682
71144W        W42673  36.722  28.009   3.147
71145W        W42674  26.175  40.225  13.442
71146W        W42675  34.778  35.699  14.532
71147W        W42676  44.670   1.987   1.905
71148W        W42677  40.303  15.314   0.203
71149W        W42678  11.655   3.878   0.816
71150W        W42679  24.041  33.891  12.414
71151W        W42680  14.567  25.267   3.776
71152W        W42681  29.376  38.369   1.830
71153W        W42682   1.325  30.146  10.787
71154W        W42683  14.862  24.177  13.040
71155W        W42684  32.658  39.288   2.917
71156W        W42685  20.701   9.889   2.765
71157W        W42686  12.719  33.753  10.649
71158W        W42687  18.679  19.705   2.951
71159W        W42688  25.030  32.148   1.154
71160W        W42689  11.709   1.778  12.046
71161W        W42690  17.589  40.363   4.622
71162W        W42691  18.540   8.587  13.617
71163W        W42692  11.231  18.178   0.821
71164W        W42693  13.072  12.953  14.672
71165W        W42694   1.320  18.554   4.543
71166W        W42695  30.517  38.853   4.459
71167W        W42696  13.025  36.185   2.594
71168W        W42697  33.730  22.225   3.815
71169W        W42698   8.260  43.455   2.601
71170W        W42699   4.418   7.256  14.856
71171W        W42700  12.165  44.260  11.876
71172W        W42701  19.286  11.482  12.038
71173W        W42702   1.846  35.416  13.149
71174W        W42703  13.678  30.172   2.250
71175W        W42704  29.024  39.952   4.110
71176W        W42705  17.578  35.978   2.702
71177W        W42706  28.457  42.457   3.548
71178W        W42707  37.702   9.405   4.764
71179W        W42708  11.845  16.192  14.377
71180W        W42709  16.501   6.290   1.339
71181W        W42710  43.096  24.571  14.384
71182W        W42711  16.737  43.786  14.160
71183W        W42712  20.836  29.009  10.591
71184W        W42713  24.762  15.143  11.451
71185W        W42714   3.507   7.851   1.009
71186W        W42715   9.072  40.601  10.508
71187W        W42716  29.525   7.805  11.130
71188W        W42717  20.190  32.436  10.676
71189W        W42718  17.139   4.963  14.164
71190W        W42719  24.180   7.848  12.295
71191W        W42720  30.487   2.225   0.892
71192W        W42721  41.391  43.868  13.871
71193W        W42722  12.166  24.950  12.420
71194W        W42723  18.721  22.679   1.824
71195W        W42724  33.443  12.301  11.928
71196W        W42725  44.383  34.945  13.231
71197W        W42726  12.377  20.444   1.651
71198W        W42727  16.093  26.102  14.454
71199W        W42728   0.721  16.729   3.285
71200W        W42729  37.408  14.518   9.935
71201W        W42730  23.038   5.774  14.261
71202W        W42731  33.391   7.735   4.606
71203W        W42732   1.839  25.992  12.702
71204W        W42733  44.811  20.808  11.609
71205W        W42734   0.305  11.587  10.653
71206W        W42735  41.108  40.796   2.845
71207W        W42736   0.924  31.803   4.426
71208W        W42737  29.934  22.118   2.701
71209W        W42738   3.291  29.356   2.690
71210W        W42739  14.525  10.504   1.342
71211W        W42740   5.663  34.887  14.906
71212W        W42741  15.045  28.490   2.897
71213W        W42742  28.609  31.345  14.082
71214W        W42743  28.036   0.304   1.872
71215W        W42744  42.042  15.078  11.882
71216W        W42745   9.959   3.744  10.592
71217W        W42746   1.094   7.113   0.560
71218W        W42747  14.431  28.492   1.883
71219W        W42748  22.973  42.676  12.516
71220W        W42749  37.042  42.784   1.702
71221W        W42750  44.507  38.529  12.086
71222W        W42751  26.970  13.136  14.826
71223W        W42752  41.254  13.222   2.995
71224W        W42753   8.655  28.824  10.724
71225W        W42754  37.510   0.291  10.890
71226W        W42755  24.196   9.552  12.804
71227W        W42756  41.802  23.473   2.322
71228W        W42757  23.472  43.365   2.387
71229W        W42758  39.378  32.610   1.786
71230W        W42759  33.994  36.629  14.283
71231W        W42760  24.143  24.109   3.537
71232W        W42761  34.403  16.155  14.645
71233W        W42762  33.019  32.142  14.061
71234W        W42763  22.969   5.412  11.705
71235W        W42764  31.399  18.486   2.246
71236W        W42765  16.601  30.180  14.694
71237W        W42766   2.863  33.111   4.039
71238W        W42767  39.474   9.272  14.918
71239W        W42768  25.175  24.455  12.852
71240W        W42769  21.122  23.538  13.415
71241W        W42770  11.330   8.759   1.380
71242W        W42771   6.825   1.866  14.528
71243W        W42772  10.755  31.023   1.940
71244W        W42773  26.225  18.251  13.482
71245W        W42774  30.467   9.893   3.648
71246W        W42775  23.166  26.494  13.135
71247W        W42776  15.506   0.000   3.785
71248W        W42777  16.033   9.083   3.098
71249W        W42778   5.329  42.177  14.812
71250W        W42779  13.595  23.574  13.052
71251W        W42780  18.060  36.143  11.877
71252W        W42781  37.355  38.236   0.767
71253W        W42782  38.339  33.065  12.911
71254W        W42783  44.749   8.143   2.311
71255W        W42784  24.105  24.619  11.235
71256W        W42785   3.801   1.522   4.894
71257W        W42786   7.838  40.777  13.932
71258W        W42787  31.593  12.674  11.254
71259W        W42788   4.020  26.125  14.840
71260W        W42789  27.272  15.880  11.780
71261W        W42790  28.192  38.707   5.007
71262W        W42791   9.238  44.419  14.809
71263W        W42792  22.721  11.540   1.391
71264W        W42793  33.936   7.151  10.464
71265W        W42794  34.679  32.795   0.726
71266W        W42795  39.953  21.190   9.907
71267W        W42796  24.012  10.274  11.958
71268W        W42797  21.557  26.181  11.831
71269W        W42798  19.257  44.470  10.705
71270W        W42799  40.466  35.481   4.214
71271W        W42800  26.504  14.078   3.634
71272W        W42801  23.112  14.264   4.970
71273W        W42802  24.646  17.812  11.638
71274W        W42803  12.906  27.945   2.565
71275W        W42804  30.505   5.444  11.714
71276W        W42805  40.628  40.804   2.705
71277W        W42806  27.442   9.299   3.620
71278W        W42807  30.742  36.609  12.432
71279W        W42808  33.532  35.676   2.355
71280W        W42809  13.449  13.843  14.787
71281W        W42810  32.542  32.687   3.702
71282W        W42811  40.491  40.529  14.079
71283W        W42812  30.091   9.816   1.762
71284W        W42813  15.750  42.410  14.746
71285W        W42814   3.253   4.360  12.943
71286W        W42815  42.426  38.550  12.931
71287W        W42816  27.149   1.017   0.709
71288W        W42817  30.371  19.665   3.869
71289W        W42818   7.277   3.806   1.418
71290W        W42819   6.340  33.073  12.961
71291W        W42820  13.238  27.691  10.777
71292W        W42821  30.898   2.515  11.518
71293W        W42822  41.386  30.027   5.057
71294W        W42823  44.416  16.646   1.247
71295W        W42824  16.135  16.851  10.749
71296W        W42825  25.030  44.462  14.872
71297W        W42826  19.444  20.712   1.534
71298W        W42827  22.989  14.772  13.905
71299W        W42828   1.589  34.225  12.526
71300W        W42829  25.595  39.413  14.366
71301W        W42830  34.328  18.520   1.491
71302W        W42831   4.457  15.790  12.885
71303W        W42832  40.450  10.609  10.370
71304W        W42833  20.111   6.274   4.590
71305W        W42834  33.387  16.642   1.168
71306W        W42835   5.415  35.843  11.232
71307W        W42836  25.171  34.584   2.292
71308W        W42837   0.725  36.465   0.008
71309W        W42838  16.660   9.564  12.880
71310W        W42839  31.809   7.216  13.840
71311W        W42840  31.554  34.695  10.432
71312W        W42841  44.055  34.941   4.085
71313W        W42842   4.755  21.020  14.082
71314W        W42843  28.607  14.597  12.408
71315W        W42844  44.776  20.794   0.990
71316W        W42845   0.657  35.192   5.133
71317W        W42846  16.430  37.891  12.350
71318W        W42847  39.371  16.665   1.319
71319W        W42848   4.332  23.397   2.824
71320W        W42849  22.713  24.395  12.507
71321W        W42850  14.805  11.348   2.441
71322W        W42851   7.945  43.093   1.773
71323W        W42852  37.500   6.310  13.042
71324W        W42853  18.337  28.195  12.371
71325W        W42854   2.798  16.502   3.224
71326W        W42855  44.538   8.774   3.199
71327W        W42856  35.839  30.908   2.467
71328W        W42857  37.645  26.781   2.016
71329W        W42858   4.222  31.020  14.897
71330W        W42859  20.102  30.162   1.393
71331W        W42860  32.339   1.854  11.128
71332W        W42861   9.300   7.202   2.195
71333W        W42862  15.857   8.401  11.986
71334W        W42863  26.128  37.059  12.978
71335W        W42864  41.998  39.738   0.182
71336W        W42865  21.244  20.243   0.681
71337W        W42866   7.389   7.848   2.258
71338W        W42867  40.905  23.037  14.944
71339W        W42868  38.036   0.563  10.171
71340W        W42869  38.508   4.523  13.017
71341W        W42870  34.065  38.191  14.481
71342W        W42871  28.597  24.008  12.103
71343W        W42872   3.880  22.958  14.435
71344W        W42873  31.178   3.372  12.123
71345W        W42874  31.226  29.073  10.386
71346W        W42875   9.369  12.686   3.203
71347W        W42876  29.819  29.822  13.451
71348W        W42877  21.147   6.352   2.104
71349W        W42878  38.320  30.369   4.174
71350W        W42879   6.840  24.496  12.222
71351W        W42880   7.869  44.242  12.494
71352W        W42881   4.872  29.711   1.134
71353W        W42882  32.345  26.702   4.533
71354W        W42883  10.113  40.854   4.694
71355W        W42884   5.616  27.557   3.625
71356W        W42885  41.008   0.035  10.993
71357W        W42886  22.464  24.766  10.747
71358W        W42887  32.013  10.347   1.827
71359W        W42888  11.849  19.084  11.567
71360W        W42889   7.945  30.022  11.100
71361W        W42890  10.592  32.273  13.756
71362W        W42891  12.284  41.483   0.991
71363W        W42892  31.503  41.146   4.223
71364W        W42893  29.489  10.747   1.439
71365W        W42894  15.288  39.107  10.932
71366W        W42895  33.739  21.578   4.136
71367W        W42896  41.655  34.959   2.009
71368W        W42897  43.329  20.769  10.617
71369W        W42898  22.284  15.082  14.171
71370W        W42899   8.850  22.395   1.488
71371W        W42900   8.599  29.177  11.525
71372W        W42901  29.929  30.874  10.572
71373W        W42902  14.664  13.653   1.749
71374W        W42903  38.123  35.507  10.616
71375W        W42904  15.587  32.858  14.022
71376W        W42905   7.253  28.667   0.376
71377W        W42906  32.648   2.340  14.321
71378W        W42907  16.122  14.326  13.634
71379W        W42908   3.757  39.518  11.092
71380W        W42909  18.196  35.492  12.557
71381W        W42910  20.742  33.368  14.884
71382W        W42911  21.332   0.703  14.950
71383W        W42912   3.033  39.840   3.170
71384W        W42913  14.705  44.532  13.979
71385W        W42914  17.206  22.333  13.036
71386W        W42915  43.053  10.104   4.865
71387W        W42916  30.817  10.692  13.118
71388W        W42917  22.114  13.197   0.456
71389W        W42918   4.030  16.230   1.456
71390W        W42919  12.194  26.229  13.433
71391W        W42920  16.095   1.865  13.558
71392W        W42921  24.555  37.540   0.166
71393W        W42922  42.847   8.443  10.709
71394W        W42923  13.740  25.490   3.470
71395W        W42924   4.519   7.294   4.078
71396W        W42925  14.925   2.402  10.637
71397W        W42926  10.707  15.185   4.134
71398W        W42927  27.061  30.656   0.749
71399W        W42928   3.022  23.617   1.683
71400W        W42929  25.140  24.067   3.073
71401W        W42930  16.314  42.803   0.805
71402W        W42931  36.850  36.279   2.120
71403W        W42932  25.637  33.344  12.597
71404W        W42933   3.797  26.777  11.942
71405W        W42934  31.134  27.479  13.754
71406W        W42935  23.197  31.373   1.714
71407W        W42936  12.250  38.540  10.549
71408W        W42937   7.165  17.807  12.529
71409W        W42938  10.608  43.218   3.282
71410W        W42939  41.533  27.383  12.797
71411W        W42940  35.518  17.546  13.357
71412W        W42941  21.687  27.396   3.256
71413W        W42942  39.824  14.271   4.544
71414W        W42943  36.357  19.073   0.844
71415W        W42944   3.626   0.919  13.095
71416W        W42945   1.123  43.642   2.880
71417W        W42946  16.267  35.381  11.602
71418W        W42947  14.416   2.464  10.594
71419W        W42948   7.625  40.998  14.343
71420W        W42949  36.398   6.353  11.459
71421W        W42950  28.980   4.310   0.652
71422W        W42951  16.459  18.138   1.248
71423W        W42952  25.569  23.533  13.414
71424W        W42953  24.462  34.030  13.401
71425W        W42954  41.975   7.893  10.700
71426W        W42955  39.530   1.426   1.055
71427W        W42956   6.829   8.256   3.727
71428W        W42957   1.691  29.520   1.514
71429W        W42958  19.040   0.368  12.339
71430W        W42959  24.587  30.860  13.823
71431W        W42960  21.846   0.980  11.668
71432W        W42961  34.014   4.364   1.708
71433W        W42962  37.715   0.682   2.932
71434W        W42963  11.546   8.104  12.568
71435W        W42964  16.392  24.851   4.173
71436W        W42965  26.333  18.639  14.702
71437W        W42966  22.125  37.308  12.031
71438W        W42967  35.516   9.818   3.682
71439W        W42968  34.051  30.839  12.468
71440W        W42969   5.753  21.074  12.995
71441W        W42970  34.655  41.661  11.199
71442W        W42971   8.627   3.333   1.799
71443W        W42972  29.191   3.930   0.999
71444W        W42973   5.192   7.888   2.574
71445W        W42974  36.447  24.919   0.333
71446W        W42975   4.841  44.961  11.542
71447W        W42976  25.698  25.223  10.556
71448W        W42977   7.160  25.941   2.803
71449W        W42978  19.192  24.412   0.343
71450W        W42979   3.459  40.258   2.757
71451W        W42980  39.955  24.981  13.441
71452W        W42981  14.074  43.777   3.796
71453W        W42982  16.154  38.183   0.250
71454W        W42983  26.840  30.004  11.081
71455W        W42984  13.984   5.415  11.163
71456W        W42985  35.630  23.686  11.136
71457W        W42986  12.313   4.016   3.888
71458W        W42987  14.370  40.844   1.903
71459W        W42988  17.322  39.522   2.791
71460W        W42989   9.708  32.625   1.794
71461W        W42990  18.804  33.539  12.305
71462W        W42991  11.418  14.332  12.425
71463W        W42992  11.217  18.677  11.012
71464W        W42993  13.721  21.706  14.740
71465W        W42994  34.143  41.771   4.518
71466W        W42995  19.313  14.626   3.187
71467W        W42996  12.753  11.415   1.204
71468W        W42997  14.744  20.734  14.723
71469W        W42998  40.783  12.789  13.076
71470W        W42999  41.334   1.364  10.719
71471ION    NA+43000  11.018  21.803  11.032
71472ION    NA+43001   7.516  22.550  11.182
71473ION    NA+43002  39.735  15.847   2.117
71474ION    NA+43003  14.807  24.143   1.308
71475ION    NA+43004   5.692  31.802  10.251
71476ION    NA+43005  24.851  36.842   1.493
71477ION    NA+43006  36.520  29.390   1.843
71478ION    NA+43007  21.288  29.838   0.881
71479ION    NA+43008  33.834  37.861   9.748
71480ION    NA+43009  33.326  43.203   2.097
71481ION    NA+43010  33.600  24.107   3.674
71482ION    NA+43011  30.380   9.839  12.636
71483ION    NA+43012   9.283   5.043   4.585
71484ION    NA+43013  19.546  12.377  11.404
71485ION    NA+43014  28.555  31.333  12.848
71486ION    NA+43015  36.283  22.278   3.298
71487ION    NA+43016   4.423  20.265  12.479
71488ION    NA+43017   0.746  43.204   0.764
71489ION    NA+43018  33.498  14.034   1.820
71490ION    NA+43019  41.964  40.686   0.253
71491ION    NA+43020  38.752  11.426   0.947
71492ION    NA+43021  19.142  36.832   2.758
71493ION    NA+43022  38.824  16.889  12.852
71494ION    NA+43023  13.155  42.887   0.651
71495ION    NA+43024   3.267  44.898  12.082
71496ION    NA+43025   1.292  20.851  12.470
71497ION    NA+43026   9.560  17.770   1.994
71498ION    NA+43027   5.796  26.072   1.194
71499ION    NA+43028  12.940  14.690  10.729
71500ION    NA+43029  12.551  15.133   0.066
71501ION    NA+43030   3.042  18.489  11.228
71502ION    NA+43031  31.638   3.606   3.586
71503ION    NA+43032   7.194   2.979  14.041
71504ION    NA+43033  34.888  40.722  13.392
71505ION    NA+43034  40.642  25.021   3.354
71506ION    NA+43035  36.831  29.416   3.551
71507ION    NA+43036  14.740  19.552   0.231
71508ION    NA+43037  28.613  24.629   3.437
71509ION    NA+43038  15.969  19.274   0.697
71510ION    NA+43039  41.582  30.980   0.445
71511ION    NA+43040  15.300   6.011   1.812
71512ION    NA+43041  22.796  34.422   3.994
71513ION    NA+43042  13.373  34.483  10.733
71514ION    NA+43043  15.311  31.250   1.462
71515ION    NA+43044   8.283  32.547  10.945
71516ION    NA+43045  10.351  14.742  14.786
71517ION    NA+43046  43.132  15.665  12.625
71518ION    NA+43047  22.982  36.595   0.196
71519ION    NA+43048  15.247   5.534  12.536
71520ION    NA+43049   2.476  43.807   2.938
71521ION    NA+43050  38.308  32.992  12.024
71522ION    NA+43051   9.828  18.295  13.049
71523ION    NA+43052   3.681  35.391  10.660
71524ION    NA+43053  33.940   3.126  11.948
71525ION    NA+43054  32.127   3.312  11.904
71526ION    NA+43055  38.398   5.176   4.437
71527ION    NA+43056   0.456  28.027   4.599
71528ION    NA+43057   1.930   0.792  12.454
71529ION    NA+43058  36.159   0.483   0.274
71530ION    NA+43059  43.314  34.058  10.934
71531ION    NA+43060  27.863  35.686  10.682
71532ION    NA+43061   5.636  35.639  12.513
71533ION    NA+43062  43.080  19.554   0.291
71534ION    NA+43063  27.512   2.317  14.366
71535ION    NA+43064  36.755  18.117   0.767
71536ION    NA+43065  21.539  21.897  11.502
71537ION    NA+43066  34.857  19.340  10.806
71538ION    NA+43067   1.239   7.657   4.950
71539ION    NA+43068  14.944  28.665  11.271
71540ION    NA+43069   4.287  28.483   1.354
71541ION    NA+43070  19.632  21.500   3.721
71542ION    NA+43071  24.607   0.680   2.798
71543ION    NA+43072   7.341  24.670   1.283
71544ION    NA+43073   0.606  23.244   4.634
71545ION    NA+43074   0.658  17.821   0.908
71546ION    NA+43075   5.709  38.388   0.459
71547ION    NA+43076  37.970  25.090  12.584
71548ION    NA+43077  31.471  33.568  10.144
71549ION    NA+43078  43.634   6.745   3.567
71550ION    NA+43079  17.418  37.944   1.892
71551ION    NA+43080   6.907  12.746  11.591
71552ION    NA+43081   6.519   0.761  11.183
71553ION    NA+43082  12.001  14.562   2.910
71554ION    NA+43083  40.489  42.844   1.609
71555ION    NA+43084   9.690  44.738   0.927
71556ION    NA+43085  38.369  38.774   5.170
71557ION    NA+43086   2.231  22.622  11.046
71558ION    NA+43087   8.667  28.114   3.559
71559ION    NA+43088  35.929  25.141   1.464
71560ION    NA+43089  33.848  20.689  12.493
71561ION    NA+43090   8.144   6.892   0.102
71562ION    NA+43091   0.931  37.938   3.232
71563ION    NA+43092  39.869  42.913   4.790
71564ION    NA+43093  39.343  21.196  12.982
71565ION    NA+43094  18.759  13.615   0.475
71566ION    NA+43095  35.045  15.097  13.987
71567ION    NA+43096   1.714  12.696  11.268
71568ION    NA+43097   3.775   2.070  12.474
71569ION    NA+43098  10.876  42.330  13.647
71570ION    NA+43099  35.372  13.572  11.470
71571ION    NA+43100  32.679  18.065  10.013
71572ION    NA+43101   8.916   5.396  12.418
71573ION    NA+43102  13.565  35.564  11.220
71574ION    NA+43103  21.657  15.610  13.298
71575ION    NA+43104  32.959  42.528  10.648
71576ION    NA+43105   5.277  19.135   3.278
71577ION    NA+43106  32.104   6.917   0.407
71578ION    NA+43107  33.525  25.151   2.454
71579ION    NA+43108  20.229  23.683   1.818
71580ION    NA+43109   0.612  32.761  14.407
71581ION    NA+43110   8.388   4.491  10.796
71582ION    NA+43111   8.167  21.496   4.132
71583ION    NA+43112  43.010   0.200  11.177
71584ION    NA+43113  29.359  32.852   3.665
71585ION    NA+43114   4.995  25.741   9.627
71586ION    NA+43115  42.508  23.631   0.979
71587ION    NA+43116  41.039  31.436  14.740
71588ION    NA+43117  37.383  31.005  10.691
71589ION    NA+43118  31.237  27.021   4.180
71590ION    NA+43119   3.521  25.133  11.963
71591ION    NA+43120   9.762  36.228  14.406
71592ION    NA+43121  31.908  27.627  12.470
71593ION    NA+43122  14.652  16.807  13.633
71594ION    NA+43123  34.940   0.037   0.913
71595ION    NA+43124  44.585   6.994  12.312
71596ION    NA+43125  16.009   7.378   3.735
71597ION    NA+43126  29.112   8.221  11.944
71598ION    NA+43127   9.312  35.897  11.645
71599ION    NA+43128  19.027  13.248  12.515
71600ION    NA+43129   2.147   0.410   1.741
71601ION    NA+43130  32.281  12.227   0.564
71602ION    NA+43131  25.503  10.412   0.383
71603ION    NA+43132   7.796  30.451  12.034
71604ION    NA+43133   7.742   0.958   0.943
71605ION    NA+43134   5.835  16.061  14.006
71606ION    NA+43135  30.466   0.376   1.501
71607ION    NA+43136   5.977  29.867  14.068
71608ION    NA+43137  39.908  17.532  12.301
71609ION    NA+43138  25.998  33.093   1.260
71610ION    NA+43139  24.174  11.114   2.100
71611ION    NA+43140   5.302  12.195   3.995
71612ION    NA+43141  42.593  39.602  13.064
71613ION    NA+43142   0.506  37.229   3.006
71614ION    NA+43143   8.784  42.207   2.532
71615ION    NA+43144  24.981  12.712   1.747
71616ION    NA+43145  36.384   8.609   5.028
71617ION    NA+43146   6.904  44.848  11.316
71618ION    NA+43147  42.932   9.431  10.633
71619ION    NA+43148   3.817  10.706  13.148
71620ION    NA+43149  16.995  17.638   4.719
71621ION    NA+43150  23.263   1.432   4.088
71622ION    NA+43151   1.841   4.923  14.972
71623ION    NA+43152  11.715  11.396  12.514
71624ION    NA+43153   2.675  34.322   1.842
71625ION    NA+43154  44.831  25.725  14.267
71626ION    NA+43155   8.127  24.306   2.872
71627ION    NA+43156  24.233  33.890  14.823
71628ION    NA+43157  43.778  31.100   1.166
71629ION    NA+43158  22.376   8.708  14.536
71630ION    NA+43159  22.527  27.605   3.042
71631ION    NA+43160  25.478  39.406   1.915
71632ION    NA+43161   0.291  18.346  13.768
71633ION    NA+43162  22.935   9.335  13.876
71634ION    NA+43163  36.373  39.304   2.343
71635ION    NA+43164  31.872  32.460  10.856
71636ION    NA+43165  17.354   2.575   0.367
71637ION    NA+43166  44.708  32.911  12.988
71638ION    NA+43167  23.520   8.645   0.514
71639ION    NA+43168  14.053   5.704  10.734
71640ION    NA+43169  23.566  27.666  14.991
71641ION    NA+43170  27.531   3.938   4.327
71642ION    NA+43171  37.468  36.803  12.995
71643ION    NA+43172  38.478  12.631  11.975
71644ION    NA+43173   2.658  10.700  13.785
71645ION    NA+43174  29.041  26.761   1.143
71646ION    NA+43175  38.122  13.310   5.038
71647ION    NA+43176   3.206   1.329   0.007
71648ION    NA+43177   3.207  15.541   3.217
71649ION    NA+43178  31.397  28.488   0.944
71650ION    NA+43179  19.977  29.923   3.672
71651ION    NA+43180  40.151  16.533   0.864
71652ION    NA+43181  24.160  26.667  10.266
71653ION    NA+43182   4.665  16.272  13.026
71654ION    NA+43183   2.291  29.109  13.803
71655ION    NA+43184  34.583  13.635   3.234
71656ION    NA+43185  28.367  30.153  11.250
71657ION    NA+43186   8.831  34.879   3.966
71658ION    NA+43187  23.226   3.542   0.043
71659ION    NA+43188   5.858  21.476  12.661
71660ION    NA+43189  25.576  23.198  12.982
71661ION    NA+43190  26.425   1.672   0.578
71662ION    NA+43191   9.945  25.297   1.823
71663ION    NA+43192   6.133   1.013   4.641
71664ION    NA+43193  11.941  17.607   0.277
71665ION    NA+43194  39.880  19.550   3.065
71666ION    NA+43195   8.127   2.367  12.336
71667ION    NA+43196   2.773  41.072   4.358
71668ION    NA+43197  43.401  39.860   3.819
71669ION    NA+43198  38.951   3.378   1.743
71670ION    NA+43199  42.803  13.773  11.214
71671ION    NA+43200  16.606  26.952   1.108
71672ION    NA+43201  39.125  31.407   2.901
71673ION    NA+43202   5.916   8.685  11.097
71674ION    NA+43203  31.422   2.692   1.310
71675ION    NA+43204  40.623  28.567  11.036
71676ION    NA+43205  28.425  23.448   4.007
71677ION    NA+43206   7.431  34.797   4.292
71678ION    NA+43207   1.387  21.961   2.916
71679ION    NA+43208  27.391  29.847   4.538
71680ION    NA+43209   7.020   5.103   1.614
71681ION    NA+43210  29.733   7.789  10.665
71682ION    NA+43211  44.604   7.650  11.051
71683ION    NA+43212  17.050  38.974   5.498
71684ION    NA+43213   1.445  13.293   0.377
71685ION    NA+43214  27.335   1.705   4.676
71686ION    NA+43215  21.250  40.972  14.345
71687ION    NA+43216  10.588  38.046  11.040
71688ION    NA+43217  24.451  28.252  13.081
71689ION    NA+43218  42.416  14.668   1.441
71690ION    NA+43219   7.871  40.570  11.117
71691ION    NA+43220   6.504  39.369   1.891
71692ION    NA+43221  29.636  12.696  11.215
71693ION    NA+43222  18.547   5.111   2.263
71694ION    NA+43223  38.441  16.285  13.552
71695ION    NA+43224  30.309   7.375  12.779
71696ION    NA+43225  33.688  16.243  11.099
71697ION    NA+43226  38.907  12.562   3.445
71698ION    NA+43227  21.111  42.963   1.574
71699ION    NA+43228  11.352   7.325   0.841
71700ION    NA+43229   9.723   7.370  11.432
71701ION    NA+43230   6.211  11.360  12.508
71702ION    NA+43231  33.535  33.154  11.276
71703ION    NA+43232   6.260   6.441   0.835
71704ION    NA+43233  10.847  38.363  12.430
71705ION    NA+43234  24.681  31.677  13.771
71706ION    NA+43235  37.607  21.811  13.565
71707ION    NA+43236  35.729   1.496  11.129
71708ION    NA+43237   4.217  28.692  14.945
71709ION    NA+43238  40.201  14.933   2.277
71710ION    NA+43239  21.560  36.850  11.140
71711ION    NA+43240  10.340  18.973  13.609
71712ION    NA+43241  25.056  33.436  13.251
71713ION    NA+43242  43.553   2.595  10.642
71714ION    NA+43243  16.285  22.475   2.817
71715ION    NA+43244  39.558  39.045  13.703
71716ION    NA+43245  14.989   0.857   2.848
71717ION    NA+43246  22.177  18.008  14.756
71718ION    NA+43247  41.337  34.290   3.379
71719ION    NA+43248   1.002  11.689  12.023
71720ION    NA+43249  27.909  42.269   0.258
71721ION    NA+43250  42.409   4.387  12.457
71722ION    NA+43251  20.036  29.739   2.256
71723ION    NA+43252   9.923   2.974  13.321
71724ION    NA+43253  41.035  15.512   4.224
71725ION    NA+43254   6.407  33.468   4.766
71726ION    NA+43255   7.676  25.937   1.456
71727ION    NA+43256  34.715  13.059  13.533
71728ION    NA+43257  23.151  25.226   4.487
71729ION    NA+43258  27.662  13.791  14.802
71730ION    NA+43259   1.047  16.609  11.898
71731ION    NA+43260  27.746  33.018  14.304
71732ION    NA+43261  20.425   3.145   2.038
71733ION    NA+43262   2.776  25.553   3.225
71734ION    NA+43263   9.175  16.664   3.265
71735ION    NA+43264   4.261  26.972   2.239
71736ION    NA+43265  15.278  18.894   1.361
71737ION    NA+43266  20.495  10.498   0.708
71738ION    NA+43267   2.824   5.282   4.587
71739ION    NA+43268  37.566  19.759  10.745
71740ION    NA+43269  37.386  14.743  11.933
71741ION    NA+43270  43.048  37.486   0.826
71742ION    NA+43271  44.758   6.732   2.005
71743ION    NA+43272   2.825   9.811   0.408
71744ION    NA+43273  24.108  38.164   1.696
71745ION    NA+43274  18.538  36.313   0.790
71746ION    NA+43275   1.720  34.221   4.104
71747ION    NA+43276  36.280  34.448   2.511
71748ION    NA+43277  18.484  24.315   2.693
71749ION    NA+43278  20.911  10.896   1.869
71750ION    NA+43279  42.381  33.895  13.933
71751ION    NA+43280  15.423   7.803   2.613
71752ION    NA+43281   5.814  32.926   1.195
71753ION    NA+43282  20.733  43.272  11.145
71754ION    NA+43283   8.499  38.473   0.952
71755ION    NA+43284  43.012  37.121   3.235
71756ION    NA+43285  34.306  43.493   4.101
71757ION    NA+43286   9.375   2.838   1.641
71758ION    NA+43287  18.111   9.536  12.257
71759ION    NA+43288  20.241  26.279  10.401
71760ION    NA+43289  43.508  26.136  14.490
71761ION    NA+43290  20.541  11.409  14.886
71762ION    NA+43291  32.724  27.755  11.454
71763ION    NA+43292  25.019   6.354   4.551
71764ION    NA+43293  24.479  38.192  11.337
71765ION    NA+43294  17.406  23.245  12.940
71766ION    NA+43295  11.655   0.238  13.641
71767ION    NA+43296   9.710  22.001   3.115
71768ION    NA+43297  16.534  15.128   3.065
71769ION    NA+43298  24.720  18.483   2.542
71770ION    NA+43299   9.779   0.760   2.059
71771ION    NA+43300   7.037  23.668  14.351
71772ION    NA+43301  22.776  44.783  12.577
71773ION    NA+43302  14.394  12.526  14.368
71774ION    NA+43303  42.773  33.659   2.992
71775ION    NA+43304  10.337  19.317   3.356
71776ION    NA+43305  36.976  18.182  12.189
71777ION    NA+43306  42.998   2.184  14.411
71778ION    NA+43307   8.170  26.843   1.161
71779ION    NA+43308   4.268  29.815  12.733
71780ION    NA+43309  18.762  14.598  13.357
71781ION    NA+43310  34.669   9.217  14.954
71782ION    NA+43311   7.196  10.440   1.970
71783ION    NA+43312   9.157  12.278   1.156
71784ION    NA+43313  41.230  29.166   0.859
71785ION    NA+43314  33.652  40.002  12.713
71786ION    NA+43315  41.933  37.339  14.112
71787ION    NA+43316  10.856  22.646  13.551
71788ION    NA+43317  40.625  36.996   1.035
71789ION    NA+43318  40.982   3.601  13.444
71790ION    NA+43319  40.181   7.629   0.527
71791ION    NA+43320  20.515  34.465   4.580
71792ION    NA+43321  35.905  35.727   4.795
71793ION    NA+43322   9.884  38.496  14.869
71794ION    NA+43323  31.181  10.808   3.695
71795ION    NA+43324  43.695   9.842  11.197
71796ION    NA+43325   9.043   9.148  13.038
71797ION    NA+43326  32.182  24.039   3.730
71798ION    NA+43327  20.957   1.872  11.196
71799ION    NA+43328  41.613   8.677  14.419
71800ION    NA+43329   0.834  34.552  12.497
71801ION    NA+43330   3.178  16.672  14.017
71802ION    NA+43331  26.981  31.220  14.885
71803ION    NA+43332  24.789  38.190  14.566
71804ION    NA+43333  38.483  17.895   2.140
71805ION    NA+43334  36.829  34.359  13.753
71806ION    NA+43335  26.024  35.211   2.225
71807ION    NA+43336  17.175   4.684   4.054
71808ION    NA+43337  42.183  38.302  12.533
71809ION    NA+43338   0.096  34.232  11.738
71810ION    NA+43339  15.256  12.587  13.807
71811ION    NA+43340  33.526   4.482   3.872
71812ION    NA+43341  44.202   1.751   1.830
71813ION    NA+43342  21.905   6.935   0.552
71814ION    NA+43343  38.886  26.014   3.731
71815ION    NA+43344  41.362  35.783   3.011
71816ION    NA+43345  31.019  41.967   0.328
71817ION    NA+43346  26.042  11.105   2.846
71818ION    NA+43347  35.157  19.099  11.729
71819ION    NA+43348  35.895   3.418  11.519
71820ION    NA+43349   8.211  13.309  13.715
71821ION    NA+43350  30.117  22.566  14.042
71822ION    NA+43351  14.073  23.481   1.486
71823ION    NA+43352   3.828  40.598  12.930
71824ION    NA+43353   0.057   9.599   0.259
71825ION    NA+43354  34.002  43.438   0.738
71826ION    NA+43355  17.853   6.484  12.575
71827ION    NA+43356  32.128  37.584   2.885
71828ION    NA+43357  23.509  15.186   4.665
71829ION    NA+43358   1.153  26.152  13.937
71830ION    NA+43359  29.595   8.486  13.850
71831ION    NA+43360  40.066   3.256  13.122
71832ION    NA+43361  10.610   4.772   0.247
71833ION    NA+43362   3.793   3.144  10.802
71834ION    NA+43363  41.841  43.637  11.357
71835ION    NA+43364  23.503  16.997  10.573
71836ION    NA+43365  15.741  39.513   4.331
71837ION    NA+43366   0.914  21.016  10.294
71838ION    NA+43367  34.484  34.197   0.659
71839ION    NA+43368  33.853  15.731   3.673
71840ION    NA+43369  26.997  27.613   3.215
71841ION    NA+43370  24.930  35.522  12.192
71842ION    NA+43371  33.656   8.798  11.181
71843ION    NA+43372  17.953   9.806   0.425
71844ION    NA+43373  25.991   7.569  11.609
71845ION    NA+43374  14.618  38.616  11.354
71846ION    NA+43375  11.811  43.513  12.536
71847ION    NA+43376  23.449  16.241  12.439
71848ION    NA+43377   7.932   6.027   0.273
71849ION    NA+43378  24.553  20.775  11.600
71850ION    NA+43379  14.676  43.532  13.823
71851ION    NA+43380  15.396  10.118   1.251
71852ION    NA+43381  22.636  14.527   2.732
71853ION    NA+43382   8.643  20.930   9.920
71854ION    NA+43383  29.083  32.184   5.207
71855ION    NA+43384   3.514  35.845  13.456
71856ION    NA+43385   3.730  37.031  11.691
71857ION    NA+43386   5.241  20.076   3.722
71858ION    NA+43387  44.846  13.394   2.276
71859ION    NA+43388  37.073  25.764   1.211
71860ION    NA+43389  28.841  32.007   4.005
71861ION    NA+43390   8.871  24.879   3.125
71862ION    NA+43391  31.165   1.920  12.159
71863ION    NA+43392  23.279  37.533   0.399
71864ION    NA+43393   9.839  32.031  14.814
71865ION    NA+43394  22.874  31.256  10.725
71866ION    NA+43395  22.505  42.639  12.274
71867ION    NA+43396   5.530  29.488  14.871
71868ION    NA+43397  15.505   0.932  12.483
71869ION    NA+43398  44.543  38.255  14.725
71870ION    NA+43399   8.048   5.872  11.538
71871ION    NA+43400  12.086  15.088  12.508
71872ION    NA+43401   3.178  13.623  11.242
71873ION    NA+43402  14.562  35.113   0.954
71874ION    NA+43403  37.206  40.081   2.730
71875ION    NA+43404  30.642  12.701  12.525
71876ION    NA+43405  23.301   6.769   3.546
71877ION    NA+43406  32.264  17.031   3.854
71878ION    NA+43407  36.654  11.770  14.346
71879ION    NA+43408  19.181  18.297  11.418
71880ION    NA+43409  34.065  19.350   4.405
71881ION    NA+43410  19.724  15.697   4.598
71882ION    NA+43411  23.075  28.043   1.335
71883ION    NA+43412  10.466  44.098  13.979
71884ION    NA+43413  37.192  14.454  10.474
71885ION    NA+43414   8.604  24.133   3.534
71886ION    NA+43415   2.043  36.087   5.437
71887ION    NA+43416  27.686  14.222   3.176
71888ION    NA+43417  18.678  18.065   1.446
71889ION    NA+43418  41.291  13.147   3.470
71890ION    NA+43419  44.160  31.095   3.094
71891ION    NA+43420   9.078  29.033   4.690
71892ION    NA+43421  23.675   2.794   4.647
71893ION    NA+43422   9.740  21.013  11.948
71894ION    NA+43423   3.276  14.067   3.924
71895ION    NA+43424   5.757  43.857   1.765
71896ION    NA+43425  29.234  28.225   0.904
71897ION    NA+43426  33.193  37.509   3.986
71898ION    NA+43427  40.517   8.176   1.122
71899ION    NA+43428  10.662  31.523  14.558
71900ION    NA+43429  35.615  34.752   0.064
71901ION    NA+43430   4.693  10.719   1.098
71902ION    NA+43431  41.430  33.109  12.984
71903ION    NA+43432  33.808  26.714   5.043
71904ION    NA+43433  32.113  16.902  13.861
71905ION    NA+43434  36.894   1.056   4.121
71906ION    NA+43435   0.782  43.414  11.296
71907ION    NA+43436  19.853  40.669  11.185
71908ION    NA+43437  28.180   7.895  12.154
71909ION    NA+43438  21.488  17.294  14.881
71910ION    NA+43439  40.878  25.841   4.893
71911ION    NA+43440  15.878  21.677   2.683
71912ION    NA+43441  13.252  43.912   2.365
71913ION    NA+43442  27.169   9.236  12.577
71914ION    NA+43443  18.119  18.932   2.250
71915ION    NA+43444  16.535  29.750   1.420
71916ION    NA+43445  44.150  12.612  14.070
71917ION    NA+43446   0.711   3.402  13.443
71918ION    NA+43447  12.426  16.733   0.259
71919ION    NA+43448  14.051  14.858   1.712
71920ION    NA+43449  23.748  41.580   0.919
71921ION    NA+43450  21.796  42.725   3.337
71922ION    NA+43451  11.859   4.635   2.839
71923ION    NA+43452  40.792  27.147   3.980
71924ION    NA+43453  38.136  33.502  13.971
71925ION    NA+43454  43.969  41.286  13.437
71926ION    NA+43455  31.151  31.066  12.065
71927ION    NA+43456  43.968  10.795  14.572
71928ION    NA+43457   1.021  12.736  14.351
71929ION    NA+43458  42.654  25.292  14.425
71930ION    NA+43459  29.819   8.757  10.430
71931ION    NA+43460  26.320  35.859   3.955
71932ION    NA+43461  19.215  31.223  12.999
71933ION    NA+43462  26.112  34.056   5.178
71934ION    NA+43463  41.714  25.058   3.053
71935ION    NA+43464  33.227  11.981  11.470
71936ION    NA+43465  29.745  20.724  12.581
71937ION    NA+43466  13.732  31.509   0.914
71938ION    NA+43467  30.932   6.197   4.073
71939ION    NA+43468   0.777  42.449  11.032
71940ION    NA+43469  23.985  14.885  11.604
71941ION    NA+43470  33.000  18.185   3.282
71942ION    NA+43471  12.221   3.317   0.208
71943ION    NA+43472  34.524  23.020   3.777
71944ION    NA+43473  33.276  39.126  14.092
71945ION    NA+43474  17.657  23.824   0.257
71946ION    NA+43475  35.190  17.757  10.590
71947ION    NA+43476   9.289   1.554  11.045
71948ION    NA+43477  41.339   2.363  14.261
71949ION    NA+43478  35.205  38.641   3.706
71950ION    NA+43479  37.610  29.265  13.945
71951ION    NA+43480  25.768  38.595  14.770
71952ION    NA+43481  42.399  14.094  12.583
71953ION    NA+43482   8.321  41.423  10.853
71954ION    NA+43483  29.219  37.537   2.289
71955ION    NA+43484  23.459   5.655  10.734
71956ION    NA+43485  14.453  28.986   1.708
71957ION    NA+43486  26.866   8.425   2.375
71958ION    NA+43487  13.069  35.097  13.256
71959ION    NA+43488  36.772   6.892  10.683
71960ION    NA+43489  39.096  17.699  11.575
71961ION    NA+43490  21.052   6.986  14.431
71962ION    NA+43491  42.400  20.241  10.707
71963ION    NA+43492  38.114  32.591  11.129
71964ION    NA+43493   7.278  43.814   2.793
71965ION    NA+43494   8.111  20.853  12.938
71966ION    NA+43495  31.213  29.642   0.731
71967ION    NA+43496   4.612  40.845   1.233
71968ION    NA+43497  11.172   4.879   4.210
71969ION    NA+43498  32.943   5.040   2.563
71970ION    NA+43499  32.583   2.590  13.184
71971ION    NA+43500  32.021  33.257   5.299
71972ION    NA+43501  13.312  24.721   1.797
71973ION    NA+43502  22.298   0.396  14.814
71974ION    NA+43503   4.679  17.757  10.154
71975ION    NA+43504  30.907  19.105  12.351
71976ION    NA+43505  30.913  44.607   0.748
71977ION    NA+43506  41.937   5.523   0.089
71978ION    NA+43507  36.917  37.791   4.112
71979ION    NA+43508  32.717  39.937  13.652
71980ION    NA+43509  41.511   9.390  11.339
71981ION    NA+43510  27.179  12.243   3.538
71982ION    NA+43511  38.294  25.791   0.372
71983ION    NA+43512  36.439  36.454  14.989
71984ION    NA+43513  31.867  25.502   0.272
71985ION    NA+43514  27.935   3.781   1.427
71986ION    NA+43515  33.803  24.368  14.587
71987ION    NA+43516   3.088  32.697  13.250
71988ION    NA+43517  32.972  11.687   1.928
71989ION    NA+43518  16.995  13.731  10.615
71990ION    NA+43519  15.512   2.340  11.513
71991ION    NA+43520  36.854  17.545   4.095
71992ION    NA+43521   6.833  20.165  10.573
71993ION    NA+43522  43.693   5.803  13.202
71994ION    NA+43523   2.855  21.727   4.958
71995ION    NA+43524   9.148  33.641  10.470
71996ION    NA+43525  35.880  39.216   3.246
71997ION    NA+43526   7.869  41.010  12.582
71998ION    NA+43527  35.499  26.777  13.635
71999ION    NA+43528  31.906  22.747   4.193
72000ION    NA+43529  16.678  17.011  13.849
72001ION    NA+43530   8.254  35.944  13.423
72002ION    NA+43531  32.572   6.368  10.796
72003ION    NA+43532  10.725   6.249  10.145
72004ION    NA+43533  12.835  19.428   3.458
72005ION    NA+43534  18.736   1.243  13.796
72006ION    NA+43535  24.436  20.062  11.083
72007ION    NA+43536  31.729  31.363   0.771
72008ION    NA+43537  33.839  42.030  12.086
72009ION    NA+43538   7.441   8.655  12.063
72010ION    NA+43539   2.929   0.785  12.396
72011ION    NA+43540  16.339  44.335  14.397
72012ION    NA+43541  13.345  16.968   4.649
72013ION    NA+43542   5.975  24.071  11.827
72014ION    NA+43543  15.105  26.803  11.671
72015ION    NA+43544   9.258  15.815  10.581
72016ION    NA+43545  36.612  23.979   4.247
72017ION    NA+43546  12.765  39.804   2.254
72018ION    NA+43547   4.344   5.148  11.980
72019ION    NA+43548  25.455  16.912  13.839
72020ION    NA+43549  33.500  18.019  13.581
72021ION    NA+43550  19.621  11.501   2.705
72022ION    NA+43551  43.164  27.144   2.736
72023ION    NA+43552  28.065  39.879   0.761
72024ION    NA+43553  34.504  34.591   4.698
72025ION    NA+43554  29.589   1.010  13.921
72026ION    NA+43555   0.712  22.237   3.702
72027ION    NA+43556  20.412   0.737  12.043
72028ION    NA+43557  41.547  42.815   2.778
72029ION    NA+43558  16.286  33.479  12.524
72030ION    NA+43559  18.684  31.004  11.836
72031ION    NA+43560   2.109  16.580   4.822
72032ION    NA+43561  41.307  42.853  14.486
72033ION    NA+43562  35.385  22.777  14.864
72034ION    NA+43563   3.791   2.213   0.306
72035ION    NA+43564  37.823  40.310  10.490
72036ION    NA+43565  39.400  13.566   4.209
72037ION    NA+43566  34.513  32.621   4.440
72038ION    NA+43567  34.052  11.655  11.659
72039ION    NA+43568  31.369  23.069   5.364
72040ION    NA+43569  26.858   4.337  13.348
72041ION    NA+43570  30.150  26.868   0.887
72042ION    NA+43571  10.744   6.146   4.555
72043ION    NA+43572  35.063  18.054   0.440
72044ION    NA+43573  42.538  18.881   2.638
72045ION    NA+43574  36.919  28.899  12.318
72046ION    NA+43575  16.264   7.191  12.419
72047ION    NA+43576   3.218  20.941   4.642
72048ION    NA+43577   7.133   1.833   4.299
72049ION    NA+43578  30.608  18.754  13.844
72050ION    NA+43579  17.519  18.823  14.354
72051ION    NA+43580  20.417  35.502  13.351
72052ION    NA+43581  33.579   7.847  14.962
72053ION    NA+43582  21.126  30.822   0.957
72054ION    NA+43583  38.845   8.217   1.132
72055ION    NA+43584  18.517  40.337   0.646
72056ION    NA+43585   1.152   1.841  12.156
72057ION    NA+43586  23.917   0.614  14.411
72058ION    NA+43587  15.870  18.569   5.318
72059ION    NA+43588  13.221  33.027   2.564
72060ION    NA+43589   8.253  10.340   4.748
72061ION    NA+43590  39.399   1.594   4.937
72062ION    NA+43591  12.630  42.293  14.436
72063ION    NA+43592   0.514   1.464   1.791
72064ION    NA+43593  14.888  25.294   4.158
72065ION    NA+43594  10.727   2.196   4.683
72066ION    NA+43595  38.366  34.577   3.406
72067ION    NA+43596  17.210  14.030   4.279
72068ION    NA+43597  39.395  29.384  14.777
72069ION    NA+43598  15.151  30.489   3.124
72070ION    NA+43599  13.916  27.857   0.620
72071ION    NA+43600  35.008  33.000   2.886
72072ION    NA+43601   0.677  41.653  12.276
72073ION    NA+43602  42.997  12.250  10.218
72074ION    NA+43603  41.414  11.144  12.044
72075ION    NA+43604  30.682  39.450  14.840
72076ION    NA+43605  17.033  21.171  11.129
72077ION    NA+43606  17.076   4.556  12.685
72078ION    NA+43607  17.460  32.929   4.646
72079ION    NA+43608  37.414  16.858   0.835
72080ION    NA+43609  25.770  29.466   0.372
72081ION    NA+43610   4.947  31.457  11.299
72082ION    NA+43611   0.929  29.051  14.425
72083ION    NA+43612  42.889  35.414  14.013
72084ION    NA+43613   6.131  33.180  10.733
72085ION    NA+43614  12.343   0.851   1.763
72086ION    NA+43615  42.101   4.932   4.032
72087ION    NA+43616   0.335  43.928  10.700
72088ION    NA+43617  28.659  34.942   2.142
72089ION    NA+43618   3.944  38.459   1.965
72090ION    NA+43619  39.836  15.751   3.769
72091ION    NA+43620  44.657  30.235   0.563
72092ION    NA+43621   4.940   3.392   2.168
72093ION    NA+43622  35.977  13.538  12.740
72094ION    NA+43623  23.060  34.925   0.272
72095ION    NA+43624   2.854  29.648   4.265
72096ION    NA+43625  35.095  29.403  11.067
72097ION    NA+43626  16.847  38.652  12.642
72098ION    NA+43627   9.447  27.862  12.157
72099ION    NA+43628  22.043   5.745  11.111
72100ION    NA+43629  13.989  23.241  14.796
72101ION    NA+43630   0.260   7.314  12.795
72102ION    NA+43631  39.979  23.260  10.994
72103ION    NA+43632  36.465   1.312  13.037
72104ION    NA+43633   1.164  32.784  11.247
72105ION    NA+43634  39.119   8.834   3.260
72106ION    NA+43635   2.349  11.563   2.220
72107ION    NA+43636   8.390   4.637  12.034
72108ION    NA+43637   3.681  30.914   1.663
72109ION    NA+43638  32.705  36.666   0.855
72110ION    NA+43639  43.989   4.079   0.918
72111ION    NA+43640  43.780   6.105  11.847
72112ION    NA+43641  21.035  15.405  10.084
72113ION    NA+43642  28.241   1.265  12.838
72114ION    NA+43643  19.349   8.771   1.745
72115ION    NA+43644  41.764  38.787   0.327
72116ION    NA+43645  44.140  30.068  12.858
72117ION    NA+43646  15.828  26.256  12.093
72118ION    NA+43647  40.799  43.965   2.879
72119ION    NA+43648  38.431  14.795   2.008
72120ION    NA+43649  16.815  34.607   2.703
72121ION    NA+43650  21.398  18.977  14.228
72122ION    NA+43651  42.408  20.444   2.910
72123ION    NA+43652   3.733  38.465  11.131
72124ION    NA+43653  41.825  16.322  11.547
72125ION    NA+43654  27.979   1.708  11.519
72126ION    NA+43655  19.967  26.434  13.445
72127ION    NA+43656  28.885  37.891  11.075
72128ION    NA+43657  27.637   8.745  13.321
72129ION    NA+43658  11.169  21.143  11.790
72130ION    NA+43659   2.796  33.434  12.641
72131ION    NA+43660   7.960  42.513  11.051
72132ION    NA+43661   2.678  19.316  11.295
72133ION    NA+43662  34.087  29.137  11.935
72134ION    NA+43663  26.887   5.205   0.823
72135ION    NA+43664  30.311   2.876   2.930
72136ION    NA+43665  24.915  21.491  12.916
72137ION    NA+43666   8.276  26.782  11.540
72138ION    NA+43667  16.710  39.131   4.167
72139ION    NA+43668  29.933   8.193   4.321
72140ION    NA+43669  13.442  32.122  11.940
72141ION    NA+43670   2.603  21.349   3.967
72142ION    NA+43671  35.540  36.689  10.865
72143ION    NA+43672  38.010  19.107  14.744
72144ION    NA+43673   0.587   6.890   4.029
72145ION    NA+43674  12.289  24.540   3.735
72146ION    NA+43675  28.901  31.558   2.038
72147ION    NA+43676  27.648  39.628  12.371
72148ION    NA+43677  28.436   6.275  12.801
72149ION    NA+43678  42.697   6.346   3.760
72150ION    NA+43679  19.733  23.057   1.216
72151ION    NA+43680  10.401  40.274  14.850
72152ION    NA+43681  39.383  28.313  14.306
72153ION    NA+43682  24.975  20.095   4.464
72154ION    NA+43683  20.403  14.710   4.720
72155ION    NA+43684  36.136  20.715  13.287
72156ION    NA+43685  29.673  24.877  13.010
72157ION    NA+43686  40.968  28.069   1.927
72158ION    NA+43687   7.573   7.124   3.193
72159ION    NA+43688  18.451  17.144   0.590
72160ION    NA+43689  11.487   1.102  14.602
72161ION    NA+43690  35.009  16.869  10.574
72162ION    NA+43691  22.949   1.843  11.548
72163ION    NA+43692  16.221  11.675   2.743
72164ION    NA+43693  25.130  34.620  14.793
72165ION    NA+43694  10.209  37.110   4.263
72166ION    NA+43695  16.373  37.007   3.371
72167ION    NA+43696   0.317  20.675   4.012
72168ION    NA+43697  21.063  19.711  11.143
72169ION    NA+43698  18.359  42.081  12.375
72170ION    NA+43699  32.356  24.130   5.113
72171ION    NA+43700  42.525  40.768   3.403
72172ION    NA+43701  43.051  31.492  14.111
72173ION    NA+43702  12.548  38.712  11.296
72174ION    NA+43703  44.266  36.600   4.714
72175ION    NA+43704  20.071  23.258  10.895
72176ION    NA+43705  10.157  26.188  14.368
72177ION    NA+43706  38.965  10.065   1.200
72178ION    NA+43707   2.029  39.276   0.212
72179ION    NA+43708  40.437  42.995   9.843
72180ION    NA+43709   5.321   5.185   2.393
72181ION    NA+43710  32.728   1.205   1.681
72182ION    NA+43711  18.834   9.126   3.836
72183ION    NA+43712   3.146  26.850  11.242
72184ION    NA+43713  36.481  14.835   3.045
72185ION    NA+43714  39.292  29.653  10.869
72186ION    NA+43715  26.881   2.344  12.162
72187ION    NA+43716  21.458  22.906  11.608
72188ION    NA+43717  23.408  28.625   0.230
72189ION    NA+43718  41.542  33.370  11.982
72190ION    NA+43719  17.857  27.453  13.473
72191ION    NA+43720  17.825  14.112   2.485
72192ION    NA+43721   0.808  22.266   4.697
72193ION    NA+43722   3.498  42.482   3.876
72194ION    NA+43723  15.266   1.490   1.505
72195ION    NA+43724  35.908   5.883   2.693
72196ION    NA+43725  42.821  26.166  11.295
72197ION    NA+43726  30.234   4.871   4.682
72198ION    NA+43727  44.754  38.882  13.415
72199ION    NA+43728  41.972  23.609   5.385
72200ION    NA+43729  27.803   4.130  13.605
72201ION    NA+43730  35.972  33.317  12.803
72202ION    NA+43731   5.682  39.822  11.103
72203ION    NA+43732   3.868  43.895  12.221
72204ION    NA+43733   0.100  37.971  12.407
72205ION    NA+43734  13.682  28.932   2.344
72206ION    NA+43735  12.653  16.207   4.090
72207ION    NA+43736  35.422   6.876  14.026
72208ION    NA+43737  16.166  30.645   3.095
72209ION    NA+43738  44.265   8.023   1.728
72210ION    NA+43739  26.985  39.033  14.954
72211ION    NA+43740   2.327   9.507  12.372
72212ION    NA+43741  30.173   1.841   2.285
72213ION    NA+43742  35.629  39.248   4.386
72214ION    NA+43743  43.769  11.286   1.259
72215ION    NA+43744   4.500  44.356   3.553
72216ION    NA+43745  14.303  12.978   3.870
72217ION    NA+43746  16.739  28.163   2.898
72218ION    NA+43747  18.639   5.430   0.981
72219ION    NA+43748  26.807  23.386   1.233
72220ION    NA+43749  32.257  25.399  11.635
72221ION    NA+43750  34.560  17.118   2.858
72222ION    NA+43751  17.493  27.552  11.522
72223ION    NA+43752  40.930  14.204  13.009
72224ION    NA+43753  19.899  37.066  10.211
72225ION    NA+43754  33.949   6.826  12.571
72226ION    NA+43755   4.306   3.283   4.607
72227ION    NA+43756  18.843  31.380  14.637
72228ION    NA+43757  11.807  12.324   0.219
72229ION    NA+43758   8.623  41.728   5.165
72230ION    NA+43759  11.718   9.869   2.738
72231ION    NA+43760  25.367  33.568  13.996
72232ION    NA+43761  43.904  32.662   0.387
72233ION    NA+43762  13.951   6.516   1.268
72234ION    NA+43763  17.269  23.396   4.703
72235ION    NA+43764  24.152  13.926  11.176
72236ION    NA+43765  21.758  27.037   1.850
72237ION    NA+43766  13.684  25.105  10.729
72238ION    NA+43767  18.186  17.805  14.555
72239ION    NA+43768   9.752  20.812   0.729
72240ION    NA+43769  32.674  17.380   1.019
72241ION    NA+43770  19.559  43.397  11.041
72242ION    NA+43771  21.939  14.722  13.445
72243ION    NA+43772   6.692  31.875  11.688
72244ION    NA+43773  21.065   5.354  13.921
72245ION    NA+43774  29.727   8.290  14.822
72246ION    NA+43775   5.497  29.533   3.575
72247ION    NA+43776  37.213   4.209  11.137
72248ION    NA+43777  12.943  31.115   4.873
72249ION    NA+43778  37.405  41.709   2.708
72250ION    NA+43779   4.318  26.044  12.168
72251ION    NA+43780  15.307   8.467  11.078
72252ION    NA+43781  41.228  38.702   1.053
72253ION    NA+43782  43.046  29.300  11.035
72254ION    NA+43783  18.687  16.185   1.386
72255ION    NA+43784  16.172  31.545   3.556
72256ION    NA+43785   9.945  35.245  14.376
72257ION    NA+43786  10.503   0.625   1.529
72258ION    NA+43787  34.039   7.721  13.849
72259ION    NA+43788  29.348  13.581   0.623
72260ION    NA+43789  12.934   5.061  11.329
72261ION    NA+43790  20.724   0.801   1.342
72262ION    NA+43791   8.243   8.416   2.031
72263ION    NA+43792  15.704  33.509   1.730
72264ION    NA+43793  31.155  38.542   1.315
72265ION    NA+43794   1.599  10.649   2.349
72266ION    NA+43795   9.822  25.965  11.603
72267ION    NA+43796  19.128  20.300   1.484
72268ION    NA+43797  25.715  30.541   3.626
72269ION    NA+43798  14.826  12.003   1.412
72270ION    NA+43799  18.050   3.748  13.933
72271ION    NA+43800  35.621  18.081   1.835
72272ION    NA+43801  14.310  41.576   0.129
72273ION    NA+43802   1.375  17.675  14.365
72274ION    NA+43803  22.954  10.839  12.245
72275ION    NA+43804  23.736   6.792  11.198
72276ION    NA+43805  43.688  22.285   4.942
72277ION    NA+43806  35.820  41.158  13.359
72278ION    NA+43807   6.345  18.155   3.053
72279ION    NA+43808  14.480  15.398  14.339
72280ION    NA+43809  17.864  30.493  12.467
72281ION    NA+43810  36.444  22.262  11.101
72282ION    NA+43811   0.347  21.974   2.570
72283ION    NA+43812   4.835   3.924  14.459
72284ION    NA+43813   8.686  29.876   1.242
72285ION    NA+43814  43.019  24.729  13.171
72286ION    NA+43815  17.088  16.422   3.280
72287ION    NA+43816  44.892   4.726  11.768
72288ION    NA+43817   7.830   9.944   1.568
72289ION    NA+43818  40.230  37.716   0.316
72290ION    NA+43819  26.136  35.494  12.336
72291ION    NA+43820   4.004  41.530  12.162
72292ION    NA+43821  21.807  18.561   0.502
72293ION    NA+43822  44.876   5.509   0.825
72294ION    NA+43823  15.776  28.121  13.188
72295ION    NA+43824   2.338   6.305  11.774
72296ION    NA+43825   0.571  11.797  14.310
72297ION    NA+43826  20.775   5.700  12.033
72298ION    NA+43827   8.015  30.705   4.090
72299ION    NA+43828  42.561  30.450   4.688
72300ION    NA+43829  43.039  40.464  14.800
72301ION    NA+43830  12.059  39.558  11.695
72302ION    NA+43831  35.929  37.520  13.894
72303ION    NA+43832  40.514   7.304  13.683
72304ION    NA+43833  37.921  36.737   1.493
72305ION    NA+43834  30.434  21.992  13.025
72306ION    NA+43835  11.532  11.309   0.785
72307ION    NA+43836   4.058  37.523   9.960
72308ION    NA+43837  15.556  17.291  11.821
72309ION    NA+43838  25.480  38.343  11.200
72310ION    NA+43839   8.166   3.410   1.556
72311ION    NA+43840  10.853  33.276   3.876
72312ION    NA+43841  21.123   2.743  13.091
72313ION    NA+43842  33.585  32.125   1.981
72314ION    NA+43843  19.709  24.204   3.195
72315ION    NA+43844  15.639   0.401   2.240
72316ION    NA+43845  39.720  42.317   3.716
72317ION    NA+43846  36.907  11.270  10.686
72318ION    NA+43847   9.391  40.909   4.138
72319ION    NA+43848  43.182   5.088  12.947
72320ION    NA+43849  42.940   8.682  11.660
72321ION    NA+43850  18.312  19.394   3.116
72322ION    NA+43851  22.782   1.936   2.683
72323ION    NA+43852  18.530  12.927  13.362
72324ION    NA+43853  32.217  32.871   4.106
72325ION    NA+43854  13.404  15.943  14.858
72326ION    NA+43855   2.812  39.480  13.152
72327ION    NA+43856  35.736  36.854  13.469
72328ION    NA+43857  25.460   2.806   2.153
72329ION    NA+43858  14.268  33.429   1.419
72330ION    NA+43859   6.264  43.232   0.392
72331ION    NA+43860  13.667  22.498   0.200
72332ION    NA+43861  30.884  32.196   0.852
72333ION    NA+43862   8.879  33.277  12.874
72334ION    NA+43863   7.915  36.698  13.057
72335ION    NA+43864   8.130   2.347   2.131
72336ION    NA+43865  29.868  39.480  11.750
72337ION    NA+43866  31.654  23.452  14.398
72338ION    NA+43867  24.758  44.490   1.587
72339ION    NA+43868  10.172  17.579   2.617
72340ION    NA+43869  24.481  13.344  12.836
72341ION    NA+43870  41.439  33.694  14.332
72342ION    NA+43871  38.039  11.162   1.417
72343ION    NA+43872   1.331  31.427  10.732
72344ION    NA+43873  23.966  41.442  13.888
72345ION    NA+43874   7.852  11.952   2.304
72346ION    NA+43875  30.928  32.405  11.519
72347ION    NA+43876  29.726  40.108   9.704
72348ION    NA+43877  26.134  41.886  14.924
72349ION    NA+43878  30.474  42.016  14.616
72350ION    NA+43879  12.054  42.033   2.309
72351ION    NA+43880  20.907  20.077  13.094
72352ION    NA+43881   9.125  41.177   1.719
72353ION    NA+43882  41.103  35.618   4.805
72354ION    NA+43883  42.748  29.095  11.968
72355ION    NA+43884  38.087   4.043   2.333
72356ION    NA+43885  44.461  35.213  12.202
72357ION    NA+43886   5.332  43.557  14.719
72358ION    NA+43887  11.351  12.187   4.626
72359ION    NA+43888  32.352  41.450  12.553
72360ION    NA+43889  20.350  37.587  14.501
72361ION    NA+43890  20.954  33.990  13.637
72362ION    NA+43891  41.738  38.215  10.863
72363ION    NA+43892   7.547   2.798   2.807
72364ION    NA+43893  43.539  11.739  12.165
72365ION    NA+43894  23.855  30.797  14.604
72366ION    NA+43895   8.953  35.340   0.395
72367ION    NA+43896  25.682  15.076   4.181
72368ION    NA+43897  42.759  19.235  13.628
72369ION    NA+43898  19.237  19.973   2.423
72370ION    NA+43899  43.376  15.671   4.999
72371ION    NA+43900   9.124  27.771  11.024
72372ION    NA+43901  13.326  12.322  12.182
72373ION    NA+43902   7.815  38.086  12.375
72374ION    NA+43903  16.078   4.988   0.194
72375ION    NA+43904  10.074  37.000  11.528
72376ION    NA+43905  35.824  30.087   2.778
72377ION    NA+43906  37.881  36.179   3.697
72378ION    NA+43907  22.740   5.717  12.040
72379ION    NA+43908   5.435   8.480   0.842
72380ION    NA+43909  12.243  15.407  10.742
72381ION    NA+43910  23.240  26.633   3.552
72382ION    NA+43911  11.108  44.073  12.097
72383ION    NA+43912  28.615  11.141   3.146
72384ION    NA+43913  23.298  42.653  11.386
72385ION    NA+43914   1.443  34.361  14.594
72386ION    NA+43915  31.081  21.082  10.651
72387ION    NA+43916  11.189  13.835   0.056
72388ION    NA+43917  21.403  44.723   4.135
72389ION    NA+43918  27.012  42.326   4.295
72390ION    NA+43919  30.020   4.778  13.334
72391ION    NA+43920  11.355  26.771  11.852
72392ION    NA+43921  40.908  35.721   0.565
72393ION    NA+43922  37.130  32.501   1.344
72394ION    NA+43923  18.795  21.770  12.607
72395ION    NA+43924  26.560  13.557   0.963
72396ION    NA+43925   3.840   7.124   3.362
72397ION    NA+43926   2.140   9.299  14.888
72398ION    NA+43927  17.758  40.295   2.931
72399ION    NA+43928  27.177  16.688  13.292
72400ION    NA+43929   8.497  14.360   1.702
72401ION    NA+43930  31.666  21.100   1.013
72402ION    NA+43931  43.761  17.237   3.693
72403ION    NA+43932  22.699  41.270  14.248
72404ION    NA+43933  19.595  35.805  13.150
72405ION    NA+43934  37.127  24.668   3.719
72406ION    NA+43935  10.779  23.530  10.586
72407ION    NA+43936  17.552  10.358  11.977
72408ION    NA+43937  42.652  26.416  13.997
72409ION    NA+43938  20.200   2.642  13.960
72410ION    NA+43939   3.939   4.036  10.788
72411ION    NA+43940  38.284  19.289   2.842
72412ION    NA+43941  42.839  27.337   1.810
72413ION    NA+43942  14.591   9.235   2.256
72414ION    NA+43943   8.194  14.106   0.784
72415ION    NA+43944   9.947  16.638  13.616
72416ION    NA+43945  16.824  21.420  13.852
72417ION    NA+43946  10.982  17.924  12.567
72418ION    NA+43947  26.191  41.234   1.747
72419ION    NA+43948  31.277  25.596  11.588
72420ION    NA+43949  29.117   3.322  14.708
72421ION    NA+43950   5.725   3.426   0.814
72422ION    NA+43951   3.394  14.686   0.012
72423ION    NA+43952  10.658   2.727  14.291
72424ION    NA+43953  40.563  17.739   1.998
72425ION    NA+43954  15.550  37.592   2.234
72426ION    NA+43955  23.525  27.940  10.746
72427ION    NA+43956  10.534   6.900  11.905
72428ION    NA+43957   5.584   1.350  12.145
72429ION    NA+43958  23.746   2.448  11.538
72430ION    NA+43959  26.215   1.206  13.041
72431ION    NA+43960  28.431  30.006  13.411
72432ION    NA+43961   3.328  29.653   0.396
72433ION    NA+43962  38.904  24.423  11.219
72434ION    NA+43963   7.987  17.994   1.383
72435ION    NA+43964   0.752  35.910  10.753
72436ION    NA+43965  16.071  16.573   3.409
72437ION    NA+43966  24.723  26.316   1.332
72438ION    NA+43967  24.706  17.302   3.964
72439ION    NA+43968   0.703  30.465   0.355
72440ION    NA+43969   1.404  35.113  10.766
72441ION    NA+43970  29.477  41.463  14.024
72442ION    NA+43971  22.342  22.138  12.486
72443ION    NA+43972   9.402  24.783   2.487
72444ION    NA+43973  10.593  41.564   1.601
72445ION    NA+43974  19.217   3.170   0.414
72446ION    NA+43975  12.249  25.500   4.020
72447ION    NA+43976  11.940  19.317  11.122
72448ION    NA+43977  24.028  44.227   0.738
72449ION    NA+43978  43.306  43.626  12.543
72450ION    NA+43979  18.409  32.927  12.953
72451ION    NA+43980  43.981   1.828  10.556
72452ION    NA+43981  12.076  32.915   0.300
72453ION    NA+43982  19.590  23.833   5.145
72454ION    NA+43983  20.017  14.742   3.574
72455ION    NA+43984  27.480  21.954  11.903
72456ION    NA+43985  14.543  30.803  13.988
72457ION    NA+43986  15.198  21.460  11.919
72458ION    NA+43987  24.606  14.387   2.333
72459ION    NA+43988  19.662  25.629  10.551
72460ION    NA+43989  33.524  31.369   4.103
72461ION    NA+43990  28.270  38.582  14.990
72462ION    NA+43991  38.769  14.363  13.744
72463ION    NA+43992  22.666   1.310  10.681
72464ION    NA+43993  43.924  15.725   2.895
72465ION    NA+43994   8.937  15.565  11.577
72466ION    NA+43995   9.818  34.649   1.697
72467ION    NA+43996  11.786  33.668  12.869
72468ION    NA+43997  10.189  21.164   3.829
72469ION    NA+43998  23.870  18.815   0.344
72470ION    NA+43999  23.804  14.802  14.397
72471ION    NA+44000  38.564   6.285   2.148
72472ION    NA+44001   2.231  33.458   2.511
72473ION    NA+44002  15.892  26.754  12.957
72474ION    NA+44003  30.500  29.009   1.030
72475ION    NA+44004  34.329  39.777   1.190
72476ION    NA+44005  18.758  30.691   0.242
72477ION    NA+44006   0.513   0.752   3.179
72478ION    NA+44007  30.017  25.430  13.636
72479ION    NA+44008   9.146  25.168   1.294
72480ION    NA+44009  18.093   9.069  14.769
72481ION    NA+44010  22.278  33.028   4.119
72482ION    NA+44011   7.337  43.939  11.084
72483ION    NA+44012  40.699  41.955   4.140
72484ION    NA+44013  12.952  27.410   1.757
72485ION    NA+44014  18.238   6.455  13.785
72486ION    NA+44015  18.061  17.227  13.304
72487ION    NA+44016  25.948  36.996  13.470
72488ION    NA+44017  40.617  14.314   1.761
72489ION    NA+44018  43.483  23.352   3.384
72490ION    NA+44019  25.178  27.490   3.635
72491ION    NA+44020  12.186  18.199   1.881
72492ION    NA+44021  43.705  42.714   0.435
72493ION    NA+44022   9.190   6.120  11.207
72494ION    NA+44023  20.040  11.896  10.803
72495ION    NA+44024  15.394  42.549  12.430
72496ION    NA+44025   1.408  13.173  10.597
72497ION    NA+44026   2.572  33.967   1.021
72498ION    NA+44027  27.344  22.442   4.094
72499ION    NA+44028   2.178   2.361  14.065
72500ION    NA+44029  11.092   9.860  11.605
72501ION    NA+44030  40.015  26.589   3.013
72502ION    NA+44031  28.985  35.473  13.855
72503ION    NA+44032  35.208   5.700   3.511
72504ION    NA+44033  13.038  26.112   2.072
72505ION    NA+44034  31.054   3.513   2.724
72506ION    NA+44035  35.004  31.121   3.265
72507ION    NA+44036  17.636  20.065   4.145
72508ION    NA+44037   9.953  14.038  10.680
72509ION    NA+44038  12.490  14.241   3.596
72510ION    NA+44039  39.924  35.041   4.092
72511ION    NA+44040  44.771   5.929   2.987
72512ION    NA+44041  39.085  38.749   1.475
72513ION    NA+44042  37.052  20.337  13.844
72514ION    NA+44043  12.216  19.768  11.857
72515ION    NA+44044   1.829  25.821   2.863
72516ION    NA+44045  17.540  13.696   3.349
72517ION    NA+44046  16.164  30.870  14.324
72518ION    NA+44047  31.521  20.054   2.423
72519ION    NA+44048  31.541  40.129   4.025
72520ION    NA+44049   7.253  44.417   4.563
72521ION    NA+44050  33.575  23.774  13.155
72522ION    NA+44051  17.890   3.260  13.206
72523ION    NA+44052  38.940  16.719   0.969
72524ION    NA+44053   9.674  12.216   3.167
72525ION    NA+44054  18.444  20.203  14.662
72526ION    NA+44055   2.861  20.888   1.121
72527ION    NA+44056  37.127  33.578  14.162
72528ION    NA+44057  20.624  17.186  11.155
72529ION    NA+44058  12.137  11.659  14.534
72530ION    NA+44059  13.084  10.969  12.167
72531ION    NA+44060  18.505   9.548  14.563
72532ION    NA+44061  16.104   0.716   9.860
72533ION    NA+44062  25.090  24.818  11.097
72534ION    NA+44063  25.538   5.863  13.617
72535ION    NA+44064  22.443  28.669   0.848
72536ION    NA+44065  20.389   7.084  11.796
72537ION    NA+44066   3.443  21.222   2.575
72538ION    NA+44067  17.788  16.192  14.845
72539ION    NA+44068  15.731  26.457  14.368
72540ION    NA+44069  40.734  10.469   1.877
72541ION    NA+44070  26.957  30.626   4.085
72542ION    NA+44071  38.837  37.863   4.211
72543ION    NA+44072  14.547  40.537  12.642
72544ION    NA+44073  43.373   8.166   3.227
72545ION    NA+44074  18.823   9.433  12.750
72546ION    NA+44075  29.970   1.838  12.198
72547ION    NA+44076  18.722   5.155   4.319
72548ION    NA+44077  43.208   2.071   3.633
72549ION    NA+44078  20.252  19.739  11.772
72550ION    NA+44079  42.042  40.381   4.814
72551ION    NA+44080   3.448   5.027   3.481
72552ION    NA+44081   1.302   3.568  11.437
72553ION    NA+44082  23.649  38.528   2.810
72554ION    NA+44083  38.777  28.650   3.719
72555ION    NA+44084   0.029  15.056   2.914
72556ION    NA+44085  31.777  15.193  12.491
72557ION    NA+44086  16.379  12.970   4.870
72558ION    NA+44087  27.800  22.235  14.023
72559ION    NA+44088   4.434  31.571   1.621
72560ION    NA+44089   2.019   1.016  11.133
72561ION    NA+44090  10.309  27.439   2.637
72562ION    NA+44091  31.851  25.047  10.982
72563ION    NA+44092  29.343  37.945   3.772
72564ION    NA+44093  20.784  27.191   0.361
72565ION    NA+44094  14.273  30.552   3.018
72566ION    NA+44095  30.273  17.274  10.379
72567ION    NA+44096  21.226   2.471  10.358
72568ION    NA+44097  33.120   7.157  13.525
72569ION    NA+44098  25.606   4.965   4.418
72570ION    NA+44099  22.069  18.366  12.130
72571ION    NA+44100  32.891  40.451   0.967
72572ION    NA+44101  37.037  29.689  11.109
72573ION    NA+44102   3.825  15.292  14.343
72574ION    NA+44103   8.315  19.585  14.410
72575ION    NA+44104  25.981  41.806   3.530
72576ION    NA+44105  27.912   5.549  12.356
72577ION    NA+44106   4.121  40.708   5.003
72578ION    NA+44107  33.223   1.397   3.599
72579ION    NA+44108  16.781  15.657  14.256
72580ION    NA+44109  18.838   1.588  11.132
72581ION    NA+44110  41.450  19.771  10.731
72582ION    NA+44111   7.260  31.581   1.682
72583ION    NA+44112  24.114  33.394  11.415
72584ION    NA+44113  21.544  35.947  14.643
72585ION    NA+44114  16.111  30.451  11.814
72586ION    NA+44115  28.709   2.042  12.749
72587ION    NA+44116  31.261  11.325   2.540
72588ION    NA+44117  13.025  19.294  12.227
72589ION    NA+44118  30.809  38.065   4.970
72590ION    NA+44119  42.624   2.495   1.379
72591ION    NA+44120  42.575   1.332  12.060
72592ION    NA+44121  12.097   5.132  13.010
72593ION    NA+44122  37.498  40.232  11.352
72594ION    NA+44123  14.158  21.156   3.334
72595ION    NA+44124  23.114  22.738  11.866
72596ION    NA+44125  32.218  12.300  14.649
72597ION    NA+44126  43.769  13.527   3.179
72598ION    NA+44127   9.916  16.590  11.140
72599ION    NA+44128  15.938   4.101   4.329
72600ION    NA+44129  42.002  39.179  10.855
72601ION    NA+44130  24.722  16.703  12.491
72602ION    NA+44131  16.436  25.263   2.121
72603ION    NA+44132   1.941  24.273   2.329
72604ION    NA+44133  38.837   0.823  13.519
72605ION    NA+44134  19.670  32.474   0.825
72606ION    NA+44135  20.652   6.452   1.398
72607ION    NA+44136  34.934  33.552  14.903
72608ION    NA+44137  25.153  37.191   2.405
72609ION    NA+44138  44.318  20.707  11.503
72610ION    NA+44139  26.136  36.428  11.979
72611ION    NA+44140  30.986  39.267   4.636
72612ION    NA+44141  25.226  22.766   1.187
72613ION    NA+44142  10.424  33.984   2.133
72614ION    NA+44143   9.878  12.408   1.839
72615ION    NA+44144  17.845  14.386  10.595
72616ION    NA+44145  30.126  23.593  12.087
72617ION    NA+44146   0.433  36.729  14.184
72618ION    NA+44147  30.594  22.001   3.947
72619ION    NA+44148  15.485   1.794  12.993
72620ION    NA+44149  21.231  25.540   0.814
72621ION    NA+44150  24.480  16.664   4.700
72622ION    NA+44151  14.713  21.051   1.826
72623ION    NA+44152  25.621  10.822  12.475
72624ION    NA+44153  14.145  15.406   0.881
72625ION    NA+44154  19.559  33.851   1.305
72626ION    NA+44155   3.444  36.720   1.915
72627ION    NA+44156   0.768  18.368  12.527
72628ION    NA+44157  24.677   0.991  12.741
72629ION    NA+44158  15.810   6.343   4.587
72630ION    NA+44159  30.857  39.455  11.250
72631ION    NA+44160  20.843  34.842  14.746
72632ION    NA+44161  12.445  40.253   3.908
72633ION    NA+44162  44.475  43.395  12.901
72634ION    NA+44163  19.205  37.449  12.711
72635ION    NA+44164  32.704  41.379   1.289
72636ION    NA+44165   7.154  40.918  13.457
72637ION    NA+44166  31.078  33.190   0.686
72638ION    NA+44167  39.777  44.515   0.386
72639ION    NA+44168  25.981  35.276  11.373
72640ION    NA+44169  36.092  25.935   2.922
72641ION    NA+44170  12.841   5.750  12.622
72642ION    NA+44171  12.355  32.932   3.665
72643ION    NA+44172  28.118   3.357  14.711
72644ION    NA+44173  25.570   6.320   1.507
72645ION    NA+44174  36.844  20.747  14.763
72646ION    NA+44175  11.436  20.492  12.508
72647ION    NA+44176  31.018  10.860   0.917
72648ION    NA+44177  19.227  29.184   2.449
72649ION    NA+44178  24.555  14.360  12.249
72650ION    NA+44179  11.001   6.411  12.642
72651ION    NA+44180  16.343   0.914  12.167
72652ION    NA+44181   4.083  39.327   1.305
72653ION    NA+44182  19.539  12.457  12.178
72654ION    NA+44183  31.178   8.966   3.497
72655ION    NA+44184  20.648   5.941  12.995
72656ION    NA+44185  33.883  24.018   0.373
72657ION    NA+44186  14.206  27.639   3.195
72658ION    NA+44187  11.285  34.151   4.246
72659ION    NA+44188  14.039   6.491   3.225
72660ION    NA+44189  19.782  38.511   4.264
72661ION    NA+44190   0.770  44.090   1.323
72662ION    NA+44191  29.793  28.525  14.250
72663ION    NA+44192  29.284  13.342   1.499
72664ION    NA+44193  12.148  13.757   4.636
72665ION    NA+44194  23.979  43.944   4.588
72666ION    NA+44195  32.034  24.256   9.756
72667ION    NA+44196  10.669  24.299  11.216
72668ION    NA+44197  22.639  38.297   1.179
72669ION    NA+44198   9.234   4.895   2.627
72670ION    NA+44199  25.280  28.463   2.760
72671ION    NA+44200   4.296  12.849   4.085
72672ION    NA+44201  37.577  34.382  13.774
72673ION    NA+44202  27.417   3.016   0.494
72674ION    NA+44203  44.075  26.485   4.622
72675ION    NA+44204  42.690  14.616   3.253
72676ION    NA+44205   2.786  18.028  12.427
72677ION    NA+44206   6.515  39.137   4.059
72678ION    NA+44207  39.388   6.804  12.597
72679ION    NA+44208   7.164  37.373  13.555
72680ION    NA+44209  35.942  12.327   1.648
72681ION    NA+44210  14.415  39.938   1.790
72682ION    NA+44211  33.111  36.798  10.823
72683ION    NA+44212  34.766  23.829  13.022
72684ION    NA+44213   2.670  37.565   4.586
72685ION    NA+44214   1.014  37.245   3.660
72686ION    NA+44215  43.314  21.568  14.066
72687ION    NA+44216   6.844   6.606   1.794
72688ION    NA+44217  12.828  43.294   4.233
72689ION    NA+44218  25.893  28.552  12.877
72690ION    NA+44219  36.852   4.010  13.421
72691ION    NA+44220  27.086   9.666  13.599
72692ION    NA+44221  12.790  33.007  11.079
72693ION    NA+44222  20.677  10.601  13.835
72694ION    NA+44223   5.860   7.270   2.799
72695ION    NA+44224   8.667  42.435   1.519
72696ION    NA+44225  19.195  27.985  11.958
72697ION    NA+44226   4.239  18.520  10.629
72698ION    NA+44227   6.410   5.737   1.553
72699ION    NA+44228   6.284  27.847  14.801
72700ION    NA+44229  16.078  18.583   1.656
72701ION    NA+44230  25.172  28.985  12.739
72702ION    NA+44231  30.953  12.546   1.707
72703ION    NA+44232  31.409  17.814  11.785
72704ION    NA+44233  15.775   7.176  10.236
72705ION    NA+44234  11.910  44.838  11.432
72706ION    NA+44235  34.400  36.003  12.169
72707ION    NA+44236  42.182   2.974  13.656
72708ION    NA+44237   5.480  33.491   0.164
72709ION    NA+44238   6.044  40.450   0.687
72710ION    NA+44239  26.005  19.582  13.838
72711ION    NA+44240  29.821  24.290  11.146
72712ION    NA+44241   7.211   3.364   1.980
72713ION    NA+44242  17.332  32.851   2.219
72714ION    NA+44243  41.911  32.205   3.602
72715ION    NA+44244  11.604   4.291  12.626
72716ION    NA+44245  29.902  24.747   1.805
72717ION    NA+44246  40.073  23.480  11.869
72718ION    NA+44247  13.814  14.274  11.628
72719ION    NA+44248  37.625  32.331   3.763
72720ION    NA+44249   2.379  16.653   1.496
72721ION    NA+44250  22.649  42.896  10.030
72722ION    NA+44251  18.636   8.177  12.624
72723ION    NA+44252  26.900  30.360   1.911
72724ION    NA+44253  39.358  20.779   0.712
72725ION    NA+44254   4.472  38.108  10.561
72726ION    NA+44255  14.309   5.530   3.173
72727ION    NA+44256   0.400  41.166  13.413
72728ION    NA+44257   2.374  39.538   4.176
72729ION    NA+44258  13.558  12.870  14.795
72730ION    NA+44259  29.723  31.769   4.528
72731ION    NA+44260  36.295  37.804   0.724
72732ION    NA+44261  17.825  34.099   4.039
72733ION    NA+44262   7.424  26.723   4.767
72734ION    NA+44263   2.205   9.040  10.896
72735ION    NA+44264  39.864  17.031  14.868
72736ION    NA+44265  34.474   1.448   0.230
72737ION    NA+44266  42.931  23.461  12.342
72738ION    NA+44267  24.429  44.420   9.911
72739ION    NA+44268  11.091  25.081   0.474
72740ION    NA+44269   6.208   2.146  12.646
72741ION    NA+44270  16.727  36.737   0.032
72742ION    NA+44271  38.289  14.602  13.010
72743ION    NA+44272   4.025  26.995  14.147
72744ION    NA+44273   7.506   0.509   3.288
72745ION    NA+44274  13.733  41.397   3.003
72746ION    NA+44275  33.461  40.741   3.362
72747ION    NA+44276  32.687  33.269  11.548
72748ION    NA+44277  32.132  37.892   4.829
72749ION    NA+44278  26.917  23.015   3.331
72750ION    NA+44279   8.775  35.272   2.662
72751ION    NA+44280  17.974  30.139  10.846
72752ION    NA+44281  21.687   1.751  14.029
72753ION    NA+44282  17.758   9.848  10.392
72754ION    NA+44283  10.492   1.734   5.329
72755ION    NA+44284  21.859  41.234  13.351
72756ION    NA+44285  36.018  35.893  11.985
72757ION    NA+44286  38.958   1.270   4.100
72758ION    NA+44287  40.943  13.480  11.894
72759ION    NA+44288  37.155   6.226   4.324
72760ION    NA+44289  29.892   9.888  13.976
72761ION    NA+44290  18.909   9.187  11.797
72762ION    NA+44291  24.612   9.989  14.487
72763ION    NA+44292  41.830   9.317   0.239
72764ION    NA+44293  41.192  37.325   4.159
72765ION    NA+44294   5.990   0.169   1.131
72766ION    NA+44295  24.031   8.646  12.480
72767ION    NA+44296  21.878  36.509   0.400
72768ION    NA+44297  26.202  31.914   0.820
72769ION    NA+44298  26.326   4.271   0.049
72770ION    NA+44299  29.602  40.747  14.890
72771ION    NA+44300  17.745   7.860  12.950
72772ION    NA+44301  29.030  44.428  14.916
72773ION    NA+44302  36.178  34.420   3.412
72774ION    NA+44303   2.256  23.546   1.718
72775ION    NA+44304  15.080  19.583   4.205
72776ION    NA+44305   7.422  22.400   5.212
72777ION    NA+44306   8.242  29.423  14.934
72778ION    NA+44307  40.392  10.649  13.948
72779ION    NA+44308   2.926  23.298  12.192
72780ION    NA+44309  27.101   1.498   3.726
72781ION    NA+44310  19.526  12.367   1.299
72782ION    NA+44311  21.234  21.825  13.262
72783ION    NA+44312  29.869  26.028   3.619
72784ION    NA+44313  33.887   1.409   3.004
72785ION    NA+44314  14.543  43.308   0.358
72786ION    NA+44315  24.862  25.328   1.405
72787ION    NA+44316  23.692  32.386  13.990
72788ION    NA+44317  10.354  18.304   2.284
72789ION    NA+44318  20.710   8.265   0.216
72790ION    NA+44319  44.380  32.849   4.059
72791ION    NA+44320   0.976  28.491   1.590
72792ION    NA+44321  41.386  36.338   4.127
72793ION    NA+44322   1.222  16.390  12.748
72794ION    NA+44323  32.680  35.083   2.195
72795ION    NA+44324  24.451  29.612  13.770
72796ION    NA+44325  22.145  17.651  11.434
72797ION    NA+44326  31.916  13.804  12.867
72798ION    NA+44327  10.604   9.840   1.893
72799ION    NA+44328  12.215  25.915   1.525
72800ION    NA+44329  32.639  27.571   0.820
72801ION    NA+44330   9.357   5.199  13.296
72802ION    NA+44331   1.651   0.501   0.485
72803ION    NA+44332  21.751  16.799  13.432
72804ION    NA+44333   7.459   7.366  11.654
72805ION    NA+44334  42.165   6.838  11.606
72806ION    NA+44335  40.496  36.953  11.836
72807ION    NA+44336  33.439  38.402  13.422
72808ION    NA+44337  15.855  14.859   0.533
72809ION    NA+44338  37.323  12.441   2.946
72810ION    NA+44339  25.381   1.901   3.232
72811ION    NA+44340  40.802  12.937   0.738
72812ION    NA+44341  11.189   1.294   1.242
72813ION    NA+44342  24.548  19.158   4.671
72814ION    NA+44343  14.213  31.574   3.117
72815ION    NA+44344  41.428   9.398  13.063
72816ION    NA+44345   5.306  28.428   0.811
72817ION    NA+44346   7.704  29.717   3.804
72818ION    NA+44347   3.308   9.249  12.471
72819ION    NA+44348  35.243  25.852   4.379
72820ION    NA+44349  12.356  12.601  12.594
72821ION    NA+44350  38.315   4.467   0.646
72822ION    NA+44351   8.634   6.591   4.004
72823ION    NA+44352   8.789  44.647  12.629
72824ION    NA+44353  34.541  13.770   0.009
72825ION    NA+44354  20.352  44.406   4.868
72826ION    NA+44355  16.865  39.869  14.702
72827ION    NA+44356  11.169  41.293   4.615
72828ION    NA+44357   9.701  24.523   1.239
72829ION    NA+44358  22.460  34.843  14.110
72830ION    NA+44359  23.822   1.168   3.221
72831ION    NA+44360  29.217   8.347   2.359
72832ION    NA+44361  26.332  32.439   2.323
72833ION    NA+44362  22.625  16.347  13.619
72834ION    NA+44363  14.844  28.154  12.040
72835ION    NA+44364   5.033   5.248   0.337
72836ION    NA+44365  42.208  30.065  11.550
72837ION    NA+44366  19.636   3.154   3.653
72838ION    NA+44367  27.840  26.667   4.861
72839ION    NA+44368  34.780  33.405  11.598
72840ION    NA+44369  25.123  37.207   5.162
72841ION    NA+44370  18.249  24.731   3.785
72842ION    NA+44371  19.555  19.161   3.854
72843ION    NA+44372  19.270  17.416   0.850
72844ION    NA+44373  22.010  19.201   1.855
72845ION    NA+44374  31.569  37.654  14.798
72846ION    NA+44375  38.719  36.298   0.776
72847ION    NA+44376  21.995  39.375  11.573
72848ION    NA+44377  30.069  37.290  13.921
72849ION    NA+44378  26.188  35.181   0.459
72850ION    NA+44379   2.294   7.421   1.480
72851ION    NA+44380   6.392   5.743  10.643
72852ION    NA+44381  32.270   3.577   0.067
72853ION    NA+44382  36.268  23.507  13.041
72854ION    NA+44383  18.800  39.455  14.517
72855ION    NA+44384  42.281  27.645  11.014
72856ION    NA+44385  42.301  16.252  14.575
72857ION    NA+44386  23.856  10.692  12.229
72858ION    NA+44387  22.116   5.651   0.791
72859ION    NA+44388  41.961   5.452  13.082
72860ION    NA+44389  24.683   0.996   0.221
72861ION    NA+44390  11.502  42.847   1.346
72862ION    NA+44391  20.730  37.264   4.826
72863ION    NA+44392   1.533  40.659  14.427
72864ION    NA+44393  16.125  39.738   0.225
72865ION    NA+44394  22.008   2.397   0.699
72866ION    NA+44395  38.385  34.903   4.371
72867ION    NA+44396   3.667   6.867  13.776
72868ION    NA+44397   3.373  40.730  12.048
72869ION    NA+44398  19.754  38.778  10.363
72870ION    NA+44399   3.915  37.582   2.104
72871ION    NA+44400   8.712  35.267  13.061
72872ION    NA+44401   4.042  21.517   4.676
72873ION    NA+44402   5.004  36.517   0.902
72874ION    NA+44403  20.266  42.969   3.217
72875ION    NA+44404  27.086  29.416   0.496
72876ION    NA+44405  39.057  33.801   0.113
72877ION    NA+44406  24.911  24.242   0.728
72878ION    NA+44407  38.484   2.065  10.998
72879ION    NA+44408   9.850  19.911   0.739
72880ION    NA+44409  33.068  43.121  13.215
72881ION    NA+44410  27.751  28.991   3.754
72882ION    NA+44411  39.720  44.245  13.470
72883ION    NA+44412  15.214   3.900  14.274
72884ION    NA+44413  35.736  29.315  12.804
72885ION    NA+44414  43.196  28.400   2.898
72886ION    NA+44415  17.742   7.204   2.366
72887ION    NA+44416   5.485  20.942   5.607
72888ION    NA+44417  41.540  16.755   0.104
72889ION    NA+44418  22.480  37.368  10.920
72890ION    NA+44419  18.236  35.343  10.756
72891ION    NA+44420   3.965  11.569  14.893
72892ION    NA+44421  11.626  35.343  13.066
72893ION    NA+44422  34.381  30.241  10.704
72894ION    NA+44423  17.101   2.509  13.489
72895ION    NA+44424  22.763  21.418  12.078
72896ION    NA+44425   0.794  16.859  13.521
72897ION    NA+44426  15.620  12.275   1.957
72898ION    NA+44427  38.503  25.144  13.444
72899ION    NA+44428  32.693  15.041   5.087
72900ION    NA+44429  27.669  25.834  14.209
72901ION    NA+44430   2.873  37.670   0.926
72902ION    NA+44431  24.702  31.452   2.289
72903ION    NA+44432   4.389  40.180  11.167
72904ION    NA+44433   5.731  39.621  12.393
72905ION    NA+44434  29.975  10.366  14.851
72906ION    NA+44435  35.791  26.573  12.258
72907ION    NA+44436  11.521  37.925   4.340
72908ION    NA+44437  17.141  22.632  10.886
72909ION    NA+44438  43.421  22.250   2.157
72910ION    NA+44439  13.611   1.152   0.020
72911ION    NA+44440  14.220  21.480  12.130
72912ION    NA+44441  11.297  36.023  12.410
72913ION    NA+44442   1.535  31.825   2.969
72914ION    NA+44443  32.610   3.236   2.386
72915ION    NA+44444  13.618  11.918   0.093
72916ION    NA+44445  42.982  32.940  14.679
72917ION    NA+44446   2.257   8.169  10.677
72918ION    NA+44447   1.515  17.140   1.371
72919ION    NA+44448  22.710  39.911  13.390
72920ION    NA+44449  44.908  29.296   3.704
72921ION    NA+44450  41.050  40.306   3.779
72922ION    NA+44451  19.666  36.026   4.930
72923ION    NA+44452  22.832  11.619   2.735
72924ION    NA+44453  40.276   8.628   2.655
72925ION    NA+44454  35.273  35.276  12.237
72926ION    NA+44455  25.042   3.778   3.730
72927ION    NA+44456  33.545  42.578   0.509
72928ION    NA+44457  31.493  19.002  13.450
72929ION    NA+44458  34.570  17.113  12.027
72930ION    NA+44459  25.786  34.243   0.465
72931ION    NA+44460  36.183   2.112  12.029
72932ION    NA+44461  40.115  43.781  10.966
72933ION    NA+44462  31.569  13.624   4.436
72934ION    NA+44463  16.360  27.469  13.201
72935ION    NA+44464  42.615  11.407   4.232
72936ION    NA+44465  29.968  40.058   0.515
72937ION    NA+44466  38.605  27.429   3.210
72938ION    NA+44467  28.140  15.869   2.673
72939ION    NA+44468   5.590  41.183   0.950
72940ION    NA+44469  17.414  27.736  14.919
72941ION    NA+44470  12.721  22.960  13.555
72942ION    NA+44471  40.920  37.663   2.895
72943ION    NA+44472   1.037  24.244   1.902
72944ION    NA+44473  15.026  33.508   0.721
72945ION    NA+44474  19.702  30.974   1.725
72946ION    NA+44475  29.042  14.391   4.137
72947ION    NA+44476  43.747  23.849  10.446
72948ION    NA+44477  32.567  31.804  13.159
72949ION    NA+44478  26.446  23.459   4.113
72950ION    NA+44479  31.036  31.848  13.495
72951ION    NA+44480  13.175  38.101  14.964
72952ION    NA+44481  42.563  32.537  12.695
72953ION    NA+44482  37.281  31.861  11.582
72954ION    NA+44483  35.162  40.311  11.517
72955ION    NA+44484  34.795   6.614  12.904
72956ION    NA+44485  44.630  35.481   1.908
72957ION    NA+44486  38.575  22.506  10.986
72958ION    NA+44487  44.110  43.601  14.862
72959ION    NA+44488  43.337  25.528   4.762
72960ION    NA+44489  23.685  29.709  11.159
72961ION    NA+44490   8.937   7.220   0.353
72962ION    NA+44491  27.424  25.621   1.302
72963ION    NA+44492   8.753  43.672  12.406
72964ION    NA+44493  10.159  21.186   2.688
72965ION    NA+44494   4.861  38.952  12.155
72966ION    NA+44495   0.927  36.344  12.546
72967ION    NA+44496   6.239   1.749   0.002
72968ION    NA+44497  17.938   5.601  11.162
72969ION    NA+44498  34.441  42.842  14.272
72970ION    NA+44499  28.339  31.296  11.136
72971ION    NA+44500  12.862   6.410  11.871
72972ION    NA+44501  33.086  15.091   3.706
72973ION    NA+44502   4.683  29.654   4.143
72974ION    NA+44503  23.007  22.717   4.733
72975ION    NA+44504  20.882  18.924   0.389
72976ION    NA+44505  23.718  24.662   1.496
72977ION    NA+44506   7.037  25.479   0.781
72978ION    NA+44507  36.145  12.990  11.725
72979ION    NA+44508  15.631  17.359   1.998
72980ION    NA+44509  36.995  20.965   1.060
72981ION    NA+44510  25.741  12.076  11.137
72982ION    NA+44511  12.240  34.589   2.447
72983ION    NA+44512  30.209  29.037   0.002
72984ION    NA+44513  19.033  40.099  11.129
72985ION    NA+44514   3.277   2.975  14.912
72986ION    NA+44515  20.670  22.760   3.660
72987ION    NA+44516  43.060   0.367   9.874
72988ION    NA+44517  20.955   3.657   1.503
72989ION    NA+44518  42.380   2.849  12.638
72990ION    NA+44519  33.382  21.573  12.448
72991ION    NA+44520  26.444  37.478   2.348
72992ION    NA+44521  38.794  14.619   3.868
72993ION    NA+44522  37.294  30.063   4.156
72994ION    NA+44523  29.773  25.629  11.316
72995ION    NA+44524  44.878   0.958   2.374
72996ION    NA+44525  36.560   7.411   2.094
72997ION    NA+44526  31.115   0.164   2.102
72998ION    NA+44527   0.847   0.460   0.932
72999ION    NA+44528  32.528  11.592   3.304
73000ION    NA+44529   0.501   5.221   3.030
73001ION    NA+44530  10.233  38.897  14.235
73002ION    NA+44531   7.146  16.626   2.231
73003ION    NA+44532  43.189  31.679   0.479
73004ION    NA+44533  21.960   6.075   1.576
73005ION    NA+44534   8.312   4.274  14.413
73006ION    NA+44535  24.157  15.105   3.381
73007ION    NA+44536  27.276   7.167  14.963
73008ION    NA+44537   1.843  19.411   0.931
73009ION    NA+44538   9.539  22.788  14.433
73010ION    NA+44539  29.392  39.262   0.325
73011ION    NA+44540   6.225  33.740   0.784
73012ION    NA+44541  42.881   9.950   2.761
73013ION    NA+44542   2.527  15.540  13.460
73014ION    NA+44543  44.742  15.668  13.377
73015ION    NA+44544  25.609  11.836   0.070
73016ION    NA+44545  38.409  37.198   2.555
73017ION    NA+44546  33.862  10.254   3.164
73018ION    NA+44547   3.058  24.517   5.005
73019ION    NA+44548  31.451  36.969  12.001
73020ION    NA+44549  20.959  22.736  12.458
73021ION    NA+44550   6.152  27.752   1.177
73022ION    NA+44551  10.323  23.115   2.483
73023ION    NA+44552   6.332   2.322   3.307
73024ION    NA+44553   4.534  17.206  14.905
73025ION    NA+44554   7.094  29.692  12.237
73026ION    NA+44555  42.539  23.854  13.233
73027ION    NA+44556   1.006  26.188  12.134
73028ION    NA+44557  10.360  16.993  14.338
73029ION    NA+44558  20.970   8.670   2.644
73030ION    NA+44559  32.503  16.808   3.013
73031ION    NA+44560  43.130  32.095   1.180
73032ION    NA+44561  12.908  25.685  12.049
73033ION    NA+44562  16.311  28.861  10.757
73034ION    NA+44563  39.864  44.025   4.090
73035ION    NA+44564  24.068  39.459  13.421
73036ION    NA+44565  28.143  41.053  12.696
73037ION    NA+44566   1.792  26.639   2.095
73038ION    NA+44567  24.049  25.389  10.772
73039ION    NA+44568  26.435  23.537   9.462
73040ION    NA+44569  30.387   2.618  11.378
73041ION    NA+44570  30.974  12.249  13.682
73042ION    NA+44571  21.497  29.248   2.268
73043ION    NA+44572  44.203   4.321  13.420
73044ION    NA+44573  40.372  35.184  12.478
73045ION    NA+44574   0.984  41.433  14.745
73046ION    NA+44575  23.772  38.639  11.824
73047ION    NA+44576  27.264  12.052  14.939
73048ION    NA+44577  30.483  39.407   3.231
73049ION    NA+44578  27.519  21.558  13.343
73050ION    NA+44579  44.022  21.432  10.666
73051ION    NA+44580   8.453  22.631  14.580
73052ION    NA+44581  41.716  31.370   3.311
73053ION    NA+44582  20.207  11.839   0.725
73054ION    NA+44583  20.539  17.200  12.518
73055ION    NA+44584  33.971   1.173   4.336
73056ION    NA+44585  32.806   0.224   1.855
73057ION    NA+44586   9.635  31.873  13.801
73058ION    NA+44587  10.739   7.886   0.259
73059ION    NA+44588  16.491   0.323  14.436
73060ION    NA+44589  14.779  15.865   1.339
73061ION    NA+44590  32.417  26.482   2.354
73062ION    NA+44591  26.622  12.691  10.862
73063ION    NA+44592  36.294  32.705  14.009
73064ION    NA+44593  36.114  38.251   3.561
73065ION    NA+44594   3.479   4.224   3.032
73066ION    NA+44595  11.449  31.221  14.020
73067ION    NA+44596  42.091  34.386   2.573
73068ION    NA+44597  14.293  37.735   3.042
73069ION    NA+44598   9.906   1.235   3.684
73070ION    NA+44599  29.036   5.271   4.169
73071ION    NA+44600  31.702  38.489   2.839
73072ION    NA+44601  20.662  15.598   4.954
73073ION    NA+44602  42.412  32.507  11.330
73074ION    NA+44603   7.083  25.098  14.404
73075ION    NA+44604  17.488  19.209   3.650
73076ION    NA+44605   2.465   3.236   3.911
73077ION    NA+44606   3.362   4.440   4.630
73078ION    NA+44607  21.771   4.699   1.857
73079ION    NA+44608  37.447   3.719   1.378
73080ION    NA+44609  29.244  19.551   2.153
73081ION    NA+44610  25.741  21.843  13.055
73082ION    NA+44611  11.299  13.071  11.532
73083ION    NA+44612  20.094   3.158  12.616
73084ION    NA+44613  11.745  41.163   5.297
73085ION    NA+44614  40.992  25.635  12.580
73086ION    NA+44615  28.478   0.550  13.602
73087ION    NA+44616  42.597  20.099  12.993
73088ION    NA+44617   2.974   7.082  11.853
73089ION    NA+44618   9.418  20.087  14.605
73090ION    NA+44619   5.618  28.698  12.040
73091ION    NA+44620  20.626  17.862  14.846
73092ION    NA+44621   0.598  32.049   2.086
73093ION    NA+44622  24.205   1.280  10.239
73094ION    NA+44623   5.418   3.828   4.544
73095ION    NA+44624  27.661   9.533   1.226
73096ION    NA+44625  23.110  40.602   4.177
73097ION    NA+44626  13.517   3.476  11.507
73098ION    NA+44627  21.238  14.472   3.211
73099ION    NA+44628  19.321  14.391  14.248
73100ION    NA+44629  18.537  43.253   0.523
73101ION    NA+44630  26.097   0.460   4.626
73102ION    NA+44631  16.808  29.803   3.242
73103ION    NA+44632  24.446   7.704  13.617
73104ION    NA+44633  13.332  31.433  12.657
73105ION    NA+44634  11.446  24.821   1.728
73106ION    NA+44635   4.703  29.894   1.617
73107ION    NA+44636   3.384  13.034   0.315
73108ION    NA+44637  10.647  26.191  12.805
73109ION    NA+44638   8.865  19.066  13.447
73110ION    NA+44639   3.623  20.986  11.354
73111ION    NA+44640  32.109  35.440  10.343
73112ION    NA+44641  42.862  29.763   2.424
73113ION    NA+44642  25.693   9.004   4.295
73114ION    NA+44643  15.279  34.474  12.549
73115ION    NA+44644  11.576   2.583  10.654
73116ION    NA+44645  24.665  27.894  14.728
73117ION    NA+44646  13.619   0.075  12.937
73118ION    NA+44647   7.409  15.680   2.749
73119ION    NA+44648   0.559  34.139  14.619
73120ION    NA+44649  27.067   8.062  11.124
73121ION    NA+44650  34.546  31.630  14.914
73122ION    NA+44651  24.244  22.305  13.093
73123ION    NA+44652  22.760  28.708   4.752
73124ION    NA+44653  16.519  41.525   4.919
73125ION    NA+44654  15.792   3.921  11.080
73126ION    NA+44655  39.503  13.777   2.248
73127ION    NA+44656  12.048  17.189   4.079
73128ION    NA+44657   4.273   3.409  13.509
73129ION    NA+44658  29.351  18.248   3.169
73130ION    NA+44659  13.729  40.041  10.820
73131ION    NA+44660  13.932  16.640   0.112
73132ION    NA+44661   3.147  17.917  13.353
73133ION    NA+44662   9.511  39.178  14.624
73134ION    NA+44663   8.417  25.794   2.997
73135ION    NA+44664   3.854  14.416   9.600
73136ION    NA+44665  22.919  36.347   2.649
73137ION    NA+44666   9.179  40.251  12.762
73138ION    NA+44667  33.754  41.332   2.603
73139ION    NA+44668  16.455  43.683   1.997
73140ION    NA+44669  21.551  39.439   0.296
73141ION    NA+44670  36.309  37.385  13.165
73142ION    NA+44671   1.572  31.543   0.568
73143ION    NA+44672  10.867  28.000  10.606
73144ION    NA+44673  28.654  22.735  13.882
73145ION    NA+44674   2.021  23.833   4.376
73146ION    NA+44675   0.825  17.582  10.798
73147ION    NA+44676  25.011  35.440  10.778
73148ION    NA+44677   1.140  42.659  12.166
73149ION    NA+44678  18.079   8.769  10.967
73150ION    NA+44679  40.095  44.956  13.864
73151ION    NA+44680  29.125  38.164  13.312
73152ION    NA+44681   2.699  14.194   3.230
73153ION    NA+44682  18.503  41.149   1.055
73154ION    NA+44683  17.688   2.149  11.204
73155ION    NA+44684   8.873  24.669   4.531
73156ION    NA+44685  19.359  31.724  10.396
73157ION    NA+44686   5.415   5.928   1.731
73158ION    NA+44687   4.071  26.760   1.398
73159ION    NA+44688  33.007  26.211   3.670
73160ION    NA+44689  32.613   0.191  10.880
73161ION    NA+44690  39.768  11.781   2.157
73162ION    NA+44691  44.374   6.716  11.322
73163ION    NA+44692   1.761  30.774   0.985
73164ION    NA+44693  31.100  39.005  10.391
73165ION    NA+44694   1.655  30.871   0.200
73166ION    NA+44695  28.485   0.387   3.362
73167ION    NA+44696  30.062   3.091   0.039
73168ION    NA+44697  38.906   5.813  12.299
73169ION    NA+44698  18.207  43.317   4.544
73170ION    NA+44699  29.775  19.218  11.887
73171ION    NA+44700  17.118  24.427   4.724
73172ION    NA+44701   6.877  21.150   3.462
73173ION    NA+44702  22.788  22.961   3.181
73174ION    NA+44703  24.030  24.921   4.120
73175ION    NA+44704   5.293  37.277  10.969
73176ION    NA+44705  31.152  22.622  14.153
73177ION    NA+44706   7.438  21.924   0.522
73178ION    NA+44707   9.764  23.351   1.331
73179ION    NA+44708  20.000  33.874   3.221
73180ION    NA+44709  36.293  12.775   3.232
73181ION    NA+44710  24.628  44.896  11.791
73182ION    NA+44711  29.140  37.491  12.761
73183ION    NA+44712   3.981   9.962   3.798
73184ION    NA+44713  15.455  22.477   2.258
73185ION    NA+44714  32.094  26.063  14.134
73186ION    NA+44715  22.516   5.358  13.616
73187ION    NA+44716  27.820  19.010   1.860
73188ION    NA+44717  38.458  12.029   1.148
73189ION    NA+44718  40.652  37.821   1.899
73190ION    NA+44719   1.425   5.097  12.842
73191ION    NA+44720  34.322  28.162  14.400
73192ION    NA+44721  11.483   6.584  11.914
73193ION    NA+44722  30.053  17.930  13.955
73194ION    NA+44723  27.893   6.971  11.878
73195ION    NA+44724   7.390  18.843   3.525
73196ION    NA+44725   8.392  36.053  12.005
73197ION    NA+44726   9.644  27.972   0.278
73198ION    NA+44727  42.969   2.375   0.448
73199ION    NA+44728  24.695   0.235   0.719
73200ION    NA+44729   3.550  43.287  11.493
73201ION    NA+44730  12.688   8.204   2.302
73202ION    NA+44731  38.363  24.880   2.736
73203ION    NA+44732  11.950  37.671   0.902
73204ION    NA+44733   7.880  27.347   4.113
73205ION    NA+44734  38.755  27.649   2.163
73206ION    NA+44735  36.199  23.542  14.879
73207ION    NA+44736  27.622  15.336   4.881
73208ION    NA+44737  44.862  23.492  12.781
73209ION    NA+44738  22.794  15.495  12.571
73210ION    NA+44739  23.168  15.044   3.247
73211ION    NA+44740  25.293   0.992  14.428
73212ION    NA+44741  36.620  17.138  11.006
73213ION    NA+44742  44.811  34.965   5.055
73214ION    NA+44743  30.180   7.080   1.822
73215ION    NA+44744  42.058  13.214  13.564
73216ION    NA+44745  28.956  29.531  10.734
73217ION    NA+44746  18.294  37.483   0.616
73218ION    NA+44747  21.496  30.337  11.878
73219ION    NA+44748   8.879  10.364   2.347
73220ION    NA+44749  44.940  31.613   1.011
73221ION    NA+44750  41.903  18.997  12.184
73222ION    NA+44751  24.901   4.696  14.778
73223ION    NA+44752  10.328  24.633  14.008
73224ION    NA+44753  33.826  38.929   0.780
73225ION    NA+44754  32.345  40.297  14.997
73226ION    NA+44755  36.483  26.932  14.927
73227ION    NA+44756   3.373   9.238  10.294
73228ION    NA+44757  12.770   8.714  14.148
73229ION    NA+44758  37.676   2.413  11.209
73230ION    NA+44759   7.335  11.756  11.493
73231ION    NA+44760  32.801  14.019  14.461
73232ION    NA+44761  20.023  41.914   0.065
73233ION    NA+44762  44.075   6.056   2.281
73234ION    NA+44763  30.529   2.058  14.002
73235ION    NA+44764  21.479  13.145  10.886
73236ION    NA+44765  17.208  24.642  13.744
73237ION    NA+44766  25.304  14.431  10.387
73238ION    NA+44767   2.413  22.173  14.325
73239ION    NA+44768  40.354  37.985  11.061
73240ION    NA+44769  40.137  20.185  12.607
73241ION    NA+44770  21.983   6.573  13.378
73242ION    NA+44771  26.761  23.742  12.825
73243ION    NA+44772  18.860  12.694  11.693
73244ION    NA+44773  32.790  28.544  12.917
73245ION    NA+44774   3.519   4.027  13.284
73246ION    NA+44775  25.203  43.245   0.207
73247ION    NA+44776  16.984  15.810  11.585
73248ION    NA+44777  42.528  15.513   0.031
73249ION    NA+44778  16.344   4.962   2.843
73250ION    NA+44779  43.224  32.826   2.122
73251ION    NA+44780  40.843  22.236   0.384
73252ION    NA+44781  34.373  44.023   1.459
73253ION    NA+44782  31.229  44.671   4.532
73254ION    NA+44783  26.772  10.919  12.718
73255ION    NA+44784  44.290  31.374  14.848
73256ION    NA+44785  15.886  27.769  12.469
73257ION    NA+44786  15.672   2.302   2.389
73258ION    NA+44787  33.493  16.608   0.654
73259ION    NA+44788   0.726   5.318  13.340
73260ION    NA+44789  11.661  40.329   3.128
73261ION    NA+44790  17.151  26.886  14.463
73262ION    NA+44791  30.586  29.877   3.562
73263ION    NA+44792  16.742  22.718   3.789
73264ION    NA+44793  36.022  42.857   4.216
73265ION    NA+44794   4.664  30.826   1.151
73266ION    NA+44795  15.109  13.419   0.378
73267ION    NA+44796  12.185  42.746   3.698
73268ION    NA+44797  37.860  21.140   3.591
73269ION    NA+44798   7.139  44.807  14.933
73270ION    NA+44799  25.512  44.862  11.783
73271ION    NA+44800  17.000  33.470   4.101
73272ION    NA+44801  24.078  13.137   3.191
73273ION    NA+44802  38.006  35.356  14.228
73274ION    NA+44803   0.187  27.879  11.108
73275ION    NA+44804  13.546  39.430  11.870
73276ION    NA+44805  27.032  30.700  12.170
73277ION    NA+44806  18.520  15.204   1.487
73278ION    NA+44807  28.135   0.569   1.047
73279ION    NA+44808  14.985   8.358   0.436
73280ION    NA+44809  33.041  31.484  14.969
73281ION    NA+44810  17.276  39.446   3.372
73282ION    NA+44811  37.537  41.943  10.625
73283ION    NA+44812  12.256  42.344   0.554
73284ION    NA+44813  18.371  16.815  11.946
73285ION    NA+44814  12.390  20.419  13.882
73286ION    NA+44815  24.096  40.971   2.571
73287ION    NA+44816  10.909  25.551  14.534
73288ION    NA+44817  32.202  17.248  12.234
73289ION    NA+44818  37.349  25.162  14.846
73290ION    NA+44819  40.611  33.476   1.210
73291ION    CL-44820  35.033  34.746   2.262
73292ION    CL-44821   0.914  37.320   4.096
73293ION    CL-44822   5.522  30.952  14.506
73294ION    CL-44823  39.759   8.948   5.063
73295ION    CL-44824  19.719  43.632  10.701
73296ION    CL-44825  41.026  35.318   0.720
73297ION    CL-44826  32.201   2.786   5.069
73298ION    CL-44827  34.240  42.485  14.472
73299ION    CL-44828  13.736   9.059   1.268
73300ION    CL-44829  16.427  43.736   1.547
73301ION    CL-44830  28.659  16.208  12.619
73302ION    CL-44831  15.022   1.850  10.410
73303ION    CL-44832  33.941  18.597  14.797
73304ION    CL-44833  16.471  35.628   1.820
73305ION    CL-44834  18.758   4.313  14.953
73306ION    CL-44835  44.399  20.130   4.852
73307ION    CL-44836   4.811  32.706   0.990
73308ION    CL-44837   9.373  11.766  12.180
73309ION    CL-44838  40.061  23.430  11.406
73310ION    CL-44839  40.846  37.570   4.301
73311ION    CL-44840  19.831  44.620   1.880
73312ION    CL-44841  21.698  38.990  13.842
73313ION    CL-44842  16.588  31.668  11.977
73314ION    CL-44843  12.940  19.071  12.604
73315ION    CL-44844   7.693   6.735   3.377
73316ION    CL-44845  39.666  12.872   4.913
73317ION    CL-44846  36.912  41.914  12.257
73318ION    CL-44847  38.938  36.030   1.088
73319ION    CL-44848  35.511  36.537   3.196
73320ION    CL-44849   8.914   1.846   0.941
73321ION    CL-44850   7.857  22.378  11.417
73322ION    CL-44851   5.361  22.426  14.694
73323ION    CL-44852  17.400  23.817  14.894
73324ION    CL-44853  41.146   9.045  13.018
73325ION    CL-44854  32.237  12.290   0.102
73326ION    CL-44855   4.010  24.398  14.873
73327ION    CL-44856  10.098  13.836  10.297
73328ION    CL-44857   4.094  26.763   1.867
73329ION    CL-44858   2.711  27.785   3.788
73330ION    CL-44859  40.236   7.952   0.843
73331ION    CL-44860  19.696  35.926  10.572
73332ION    CL-44861   6.356  25.982   4.976
73333ION    CL-44862  14.352  27.845   0.515
73334ION    CL-44863  40.919   0.719  11.705
73335ION    CL-44864   4.206  27.125  13.759
73336ION    CL-44865  31.140   8.946   3.052
73337ION    CL-44866   9.826  17.568   2.310
73338ION    CL-44867  28.669   2.453   0.250
73339ION    CL-44868  11.022  17.484  12.493
73340ION    CL-44869  38.754  14.252  14.186
73341ION    CL-44870  13.139  22.679  11.720
73342ION    CL-44871  22.084   7.308  10.580
73343ION    CL-44872  38.236  35.245   4.627
73344ION    CL-44873  29.551  23.245   2.163
73345ION    CL-44874  39.135  40.196  12.040
73346ION    CL-44875   7.471  24.248  13.310
73347ION    CL-44876  24.324  28.124  13.489
73348ION    CL-44877  21.635  41.623  13.338
73349ION    CL-44878  15.059  15.251  10.657
73350ION    CL-44879   6.350  44.127  12.485
73351ION    CL-44880  12.343  27.054  11.556
73352ION    CL-44881   7.984  20.079   0.781
73353ION    CL-44882  29.678  11.839   2.155
73354ION    CL-44883  33.416  16.524  14.365
73355ION    CL-44884  18.722  21.332  12.720
73356ION    CL-44885  12.503  25.740  12.230
73357ION    CL-44886  17.750  18.006   0.908
73358ION    CL-44887  39.883  16.881   4.607
73359ION    CL-44888   3.383  32.141  11.879
73360ION    CL-44889   0.314  31.288  12.454
73361ION    CL-44890  28.899  18.087  14.480
73362ION    CL-44891  12.724   1.950   2.240
73363ION    CL-44892  32.395  17.000   3.408
73364ION    CL-44893   1.252  32.216  13.412
73365ION    CL-44894  28.165   2.747  12.057
73366ION    CL-44895  40.952  40.819  11.465
73367ION    CL-44896  14.440  12.557   3.959
73368ION    CL-44897   5.836  26.248   0.437
73369ION    CL-44898   0.683   0.865   4.937
73370ION    CL-44899  33.295  14.432   1.717
73371ION    CL-44900   9.686   9.435   1.757
73372ION    CL-44901  25.637  30.880   0.339
73373ION    CL-44902  32.781  13.862  11.378
73374ION    CL-44903  17.296  38.010   2.557
73375ION    CL-44904  11.028  24.169  11.446
73376ION    CL-44905  36.910   8.687   0.834
73377ION    CL-44906   2.558  34.150   1.438
73378ION    CL-44907  42.680   3.862   4.016
73379ION    CL-44908  43.992  20.494   3.275
73380ION    CL-44909   0.731  41.219  13.721
73381ION    CL-44910  30.148  43.325   1.811
73382ION    CL-44911  12.851  20.629   1.737
73383ION    CL-44912  22.484  25.991  13.133
73384ION    CL-44913  38.471  37.521  12.380
73385ION    CL-44914   2.231  16.605   4.386
73386ION    CL-44915  29.869  25.130   2.034
73387ION    CL-44916  29.104  37.051  14.373
73388ION    CL-44917  41.804  12.904  13.764
73389ION    CL-44918   5.220   2.284  11.056
73390ION    CL-44919  19.790  10.228   3.716
73391ION    CL-44920  13.812   5.192  14.021
73392ION    CL-44921   5.815  40.772   0.914
73393ION    CL-44922   3.831  29.827  12.861
73394ION    CL-44923  10.548  42.071  13.807
73395ION    CL-44924   7.131  40.489  14.854
73396ION    CL-44925   9.408  34.468   1.706
73397ION    CL-44926  34.572   9.923  10.712
73398ION    CL-44927  39.893  34.523   0.887
73399ION    CL-44928  30.815  23.751   2.253
73400ION    CL-44929  31.089  17.319   1.018
73401ION    CL-44930  34.359  21.981   2.991
73402ION    CL-44931  12.182  22.690  11.428
73403ION    CL-44932   8.762  36.533   5.128
73404ION    CL-44933   6.871   9.254  11.966
73405ION    CL-44934  28.512  38.760   0.321
73406ION    CL-44935  20.695   3.346   1.709
73407ION    CL-44936  20.286   1.988   2.256
73408ION    CL-44937  27.710  18.704   1.553
73409ION    CL-44938   7.556  33.623  10.505
73410ION    CL-44939  34.743  26.325  14.772
73411ION    CL-44940  18.903   8.705   1.707
73412ION    CL-44941   9.266  24.902   2.899
73413ION    CL-44942  10.596  15.317  13.949
73414ION    CL-44943  32.085  41.379  13.967
73415ION    CL-44944  11.954  37.825   4.232
73416ION    CL-44945  41.850  24.172  11.235
73417ION    CL-44946  33.342  36.989   3.461
73418ION    CL-44947  19.603  41.796   0.164
73419ION    CL-44948   7.421  30.047  11.121
73420ION    CL-44949  12.427  18.148  12.223
73421ION    CL-44950  42.766  16.309   0.862
73422ION    CL-44951   9.380  17.054   0.858
73423ION    CL-44952   2.912  33.147  13.204
73424ION    CL-44953  19.280  25.538  10.305
73425ION    CL-44954  40.825  39.053  13.368
73426ION    CL-44955  18.183  27.316  13.750
73427ION    CL-44956  25.721   5.157   4.032
73428ION    CL-44957  18.946   2.402  13.560
73429ION    CL-44958   5.956   4.290  13.942
73430ION    CL-44959  24.484  19.607   2.782
73431ION    CL-44960   9.042   6.457   4.127
73432ION    CL-44961  25.375  33.615  13.536
73433ION    CL-44962   6.540  34.720   3.367
73434ION    CL-44963  20.643  41.988  13.560
73435ION    CL-44964  17.430   2.494  11.345
73436ION    CL-44965   9.162  35.284  12.994
73437ION    CL-44966   0.474  34.935   0.884
73438ION    CL-44967   0.303  20.995   3.683
73439ION    CL-44968  16.038  36.986  12.778
73440ION    CL-44969  25.073  44.988  11.742
73441ION    CL-44970  26.064  25.196  11.691
73442ION    CL-44971   3.627  21.602   2.400
73443ION    CL-44972  41.372  22.209   3.854
73444ION    CL-44973  14.895  28.930   1.737
73445ION    CL-44974  34.510  43.190  13.988
73446ION    CL-44975  14.430  37.244  14.413
73447ION    CL-44976  32.275  40.007  13.678
73448ION    CL-44977  36.706  12.674   3.075
73449ION    CL-44978   5.230  31.721   0.326
73450ION    CL-44979  13.793  22.860  14.953
73451ION    CL-44980  17.293  33.578  13.982
73452ION    CL-44981  19.642  13.162  14.609
73453ION    CL-44982  40.415  14.654   1.992
73454ION    CL-44983  29.122  36.447   3.682
73455ION    CL-44984  25.180  41.184  12.631
73456ION    CL-44985  19.402  10.225   2.794
73457ION    CL-44986  16.340  13.314  12.362
73458ION    CL-44987  42.813  33.219   3.072
73459ION    CL-44988  30.954  24.801   3.242
73460ION    CL-44989  27.993  15.589   4.786
73461ION    CL-44990   4.790  21.130   9.706
73462ION    CL-44991   9.643  18.114  10.689
73463ION    CL-44992  11.993  10.922   5.028
73464ION    CL-44993   4.930  37.181  10.727
73465ION    CL-44994   6.162  29.767  14.463
73466ION    CL-44995  43.957   0.858  13.664
73467ION    CL-44996   5.362  28.124   2.799
73468ION    CL-44997  25.945  32.517  14.970
73469ION    CL-44998   7.430  29.376   1.262
73470ION    CL-44999   4.323   9.622  14.698
73471ION    CL-45000  15.458  14.829   0.760
73472ION    CL-45001  22.804  15.310   0.759
73473ION    CL-45002  19.922  20.148  14.054
73474ION    CL-45003  20.456  24.045   1.683
73475ION    CL-45004  43.503  18.173  12.039
73476ION    CL-45005  31.982  43.751  13.967
73477ION    CL-45006  18.028  27.263   1.276
73478ION    CL-45007  21.938  42.449   3.658
73479ION    CL-45008   6.889  44.780  11.756
73480ION    CL-45009  29.310  24.751  12.764
73481ION    CL-45010  37.521  13.402   0.039
73482ION    CL-45011  25.212  34.226   3.767
73483ION    CL-45012   7.716  13.388   4.010
73484ION    CL-45013  44.624  16.990   0.309
73485ION    CL-45014  40.480  16.264   1.005
73486ION    CL-45015   2.263  27.860   0.747
73487ION    CL-45016  11.289  42.549   1.089
73488ION    CL-45017  41.407  26.889   0.432
73489ION    CL-45018   1.954  38.357  12.523
73490ION    CL-45019   1.321  34.264   4.309
73491ION    CL-45020  32.323  12.176   1.015
73492ION    CL-45021  31.363  38.558  13.685
73493ION    CL-45022  23.183  26.761  13.568
73494ION    CL-45023   4.827  38.721  13.407
73495ION    CL-45024  23.211  43.872  12.349
73496ION    CL-45025  19.313  12.564  11.777
73497ION    CL-45026  23.204  31.190  11.020
73498ION    CL-45027  20.599   2.132  11.240
73499ION    CL-45028  20.155  16.819   5.014
73500ION    CL-45029  23.795   8.501   0.839
73501ION    CL-45030  27.693  21.126   3.700
73502ION    CL-45031  10.367  41.773   0.008
73503ION    CL-45032  29.975  27.777   1.868
73504ION    CL-45033  21.220  23.018   0.889
73505ION    CL-45034  43.664  41.578  11.186
73506ION    CL-45035  42.552  41.332   1.162
73507ION    CL-45036   3.001  29.777   3.862
73508ION    CL-45037  20.726  19.601   4.614
73509ION    CL-45038  39.179  21.511   4.425
73510ION    CL-45039   6.752   5.445   1.484
73511ION    CL-45040  37.970  32.234  10.902
73512ION    CL-45041  39.861   9.747  13.848
73513ION    CL-45042  41.747   1.387  13.380
73514ION    CL-45043  42.962   4.933  10.848
73515ION    CL-45044   3.140   4.072  13.517
73516ION    CL-45045  43.806  20.327  14.436
73517ION    CL-45046  17.692   9.522   0.658
73518ION    CL-45047  27.317  21.651  11.614
73519ION    CL-45048  22.137  29.665  12.895
73520ION    CL-45049  39.358  42.039   3.685
73521ION    CL-45050  21.229  16.089  12.003
73522ION    CL-45051  40.555   4.864  10.722
73523ION    CL-45052  36.078  12.723  11.373
73524ION    CL-45053   2.596  40.712   2.933
73525ION    CL-45054  22.425   0.849   5.106
73526ION    CL-45055  24.021  38.678   3.005
73527ION    CL-45056   4.178  37.887  10.287
73528ION    CL-45057  21.679  37.295   4.322
73529ION    CL-45058  17.916  30.409   0.984
73530ION    CL-45059  31.933  16.917   4.145
73531ION    CL-45060   1.649  31.077   0.624
73532ION    CL-45061  44.169   8.762  12.848
73533ION    CL-45062   3.485   4.615   3.289
73534ION    CL-45063  20.067  15.018  13.128
73535ION    CL-45064  11.201  40.247   4.651
73536ION    CL-45065   3.941  38.046   2.155
73537ION    CL-45066  25.309   6.283   4.903
73538ION    CL-45067  33.937  32.309   2.184
73539ION    CL-45068  39.301  19.970   0.023
73540ION    CL-45069  24.160  39.104   1.131
73541ION    CL-45070   8.210  18.179  11.828
73542ION    CL-45071  26.019   0.892   2.787
73543ION    CL-45072  17.321  33.208   4.294
73544ION    CL-45073  43.836  29.944   3.669
73545ION    CL-45074  16.770  14.094  11.823
73546ION    CL-45075  16.779  21.117  14.998
73547ION    CL-45076  24.506   3.459   1.711
73548ION    CL-45077  30.116  22.032   1.313
73549ION    CL-45078  40.400  29.259   3.286
73550ION    CL-45079  21.196  32.310  10.758
73551ION    CL-45080  12.669   6.810  14.557
73552ION    CL-45081  42.855  18.148  14.314
73553ION    CL-45082  11.651  26.874  14.038
73554ION    CL-45083  12.250  16.026   2.317
73555ION    CL-45084   1.548  10.967   5.214
73556ION    CL-45085  34.683  44.379   4.982
73557ION    CL-45086  28.416  12.887  11.041
73558ION    CL-45087  14.168   3.922   0.853
73559ION    CL-45088  26.253  26.752  13.462
73560ION    CL-45089  41.673   8.407  14.068
73561ION    CL-45090  35.572  26.693  14.069
73562ION    CL-45091  39.623  15.117  11.476
73563ION    CL-45092   4.332  10.806   1.350
73564ION    CL-45093  32.547   0.504   2.089
73565ION    CL-45094  26.544  22.232  14.286
73566ION    CL-45095  43.319  23.988  10.361
73567ION    CL-45096  34.574  12.650  13.420
73568ION    CL-45097  20.000  38.753  12.058
73569ION    CL-45098   6.613  16.235   9.817
73570ION    CL-45099  33.676  39.012  14.258
73571ION    CL-45100   4.194   5.814  13.543
73572ION    CL-45101   4.369  18.106  10.742
73573ION    CL-45102  43.173   8.661   1.353
73574ION    CL-45103   5.691  19.893   4.904
73575ION    CL-45104  10.299  26.715   1.919
73576ION    CL-45105  39.890   5.187   3.264
73577ION    CL-45106  37.091  27.121  13.520
73578ION    CL-45107  31.836   3.627   3.988
73579ION    CL-45108  15.737   8.584  11.095
73580ION    CL-45109  14.576  18.079   0.293
73581ION    CL-45110  44.301   1.684  10.852
73582ION    CL-45111  43.211  26.342  11.144
73583ION    CL-45112   1.521   3.309  14.553
73584ION    CL-45113  21.216  14.555   1.329
73585ION    CL-45114  41.187  44.547  11.462
73586ION    CL-45115  36.437  22.306  13.331
73587ION    CL-45116  13.101   4.795   5.028
73588ION    CL-45117  18.138  15.919  14.796
73589ION    CL-45118  44.851   3.411   3.243
73590ION    CL-45119  33.051   6.373   1.726
73591ION    CL-45120  38.055   2.186  11.094
73592ION    CL-45121   2.054  39.446  11.578
73593ION    CL-45122  28.538  20.130   1.413
73594ION    CL-45123   7.825  18.187   1.753
73595ION    CL-45124  29.622  38.604   4.935
73596ION    CL-45125  29.506  43.930   3.316
73597ION    CL-45126   0.967  26.410   9.744
73598ION    CL-45127  39.041  15.788   0.302
73599ION    CL-45128   1.223   0.469   0.675
73600ION    CL-45129  35.204  36.967  10.994
73601ION    CL-45130  16.336  35.260   4.219
73602ION    CL-45131  35.270  26.420   9.850
73603ION    CL-45132  34.678  23.388  12.943
73604ION    CL-45133   6.978  13.635  12.482
73605ION    CL-45134  25.013   6.507  12.364
73606ION    CL-45135   0.489  31.638   1.942
73607ION    CL-45136  36.464  10.257   0.727
73608ION    CL-45137  33.725  37.353  12.323
73609ION    CL-45138  10.627  38.307  10.683
73610ION    CL-45139  19.753  44.080   0.993
73611ION    CL-45140  43.823  19.460  13.882
73612ION    CL-45141   0.754   1.965   3.743
73613ION    CL-45142   7.597  31.722   4.985
73614ION    CL-45143   9.995  18.479   2.059
73615ION    CL-45144  24.920  41.920  11.882
73616ION    CL-45145  26.319  41.928   5.383
73617ION    CL-45146  21.673  19.304   4.069
73618ION    CL-45147  35.457  43.270  10.955
73619ION    CL-45148  26.233  27.168  11.593
73620ION    CL-45149  22.172   3.850  11.748
73621ION    CL-45150  15.772  19.730   3.485
73622ION    CL-45151  20.946  41.335   9.802
73623ION    CL-45152  22.123  20.509  10.796
73624ION    CL-45153   1.447  19.532  12.180
73625ION    CL-45154  33.252   7.698   4.094
73626ION    CL-45155   8.777  12.106  13.529
73627ION    CL-45156  42.206  28.308  14.773
73628ION    CL-45157   8.869  41.753  13.822
73629ION    CL-45158   4.948  43.685  14.909
73630ION    CL-45159  28.404  35.213   2.391
73631ION    CL-45160  15.306   1.259  11.165
73632ION    CL-45161  41.300   3.420   0.056
73633ION    CL-45162  32.084  40.164  14.658
73634ION    CL-45163  10.617   6.246   3.194
73635ION    CL-45164  21.096  33.003   1.449
73636ION    CL-45165  35.604  26.272  11.974
73637ION    CL-45166  34.328  13.874  14.621
73638ION    CL-45167  44.448  35.402   1.499
73639ION    CL-45168  13.531   6.594   0.071
73640ION    CL-45169  29.529  36.383   4.822
73641ION    CL-45170  34.038  22.193   0.023
73642ION    CL-45171  34.707  43.951   2.879
73643ION    CL-45172  25.182   1.750   1.295
73644ION    CL-45173   3.618  25.999  13.071
73645ION    CL-45174   0.830   2.789   2.678
73646ION    CL-45175  13.594  24.130  13.475
73647ION    CL-45176  42.606  32.104  11.421
73648ION    CL-45177  22.882  42.537   2.240
73649ION    CL-45178  11.618  40.887  11.898
73650ION    CL-45179  42.933  44.199   1.398
73651ION    CL-45180  29.585  40.973  12.516
73652ION    CL-45181  37.439   0.240  13.082
73653ION    CL-45182  36.449  33.108   4.091
73654ION    CL-45183  33.453  23.087   1.174
73655ION    CL-45184  40.107   0.768  14.548
73656ION    CL-45185  30.466   2.935  11.072
73657ION    CL-45186  38.637  36.735   0.635
73658ION    CL-45187  17.823   8.184   5.033
73659ION    CL-45188  12.304  15.952   3.987
73660ION    CL-45189   0.639  18.182   5.045
73661ION    CL-45190   3.174   3.155   0.308
73662ION    CL-45191  43.595  21.736  14.371
73663ION    CL-45192   8.911   9.426  11.489
73664ION    CL-45193  38.714  38.829   1.714
73665ION    CL-45194  22.712  17.130   0.265
73666ION    CL-45195   2.328  32.434  14.238
73667ION    CL-45196   6.959  31.524  11.821
73668ION    CL-45197  22.624  43.062  12.364
73669ION    CL-45198  20.068  32.521   0.614
73670ION    CL-45199  10.463   3.970  10.533
73671ION    CL-45200  25.391  22.454   4.950
73672ION    CL-45201  18.026  24.898  10.400
73673ION    CL-45202  17.931  32.405  11.133
73674ION    CL-45203   3.500  36.353   2.209
73675ION    CL-45204  19.343   3.054   3.333
73676ION    CL-45205  24.770  18.208  11.169
73677ION    CL-45206  16.367  26.826   0.754
73678ION    CL-45207  26.368  23.327   1.306
73679ION    CL-45208   1.764   0.643   1.779
73680ION    CL-45209   9.596  42.437  13.769
73681ION    CL-45210  36.305  35.980  11.655
73682ION    CL-45211   0.513  38.112  12.322
73683ION    CL-45212  23.694  24.222  11.172
73684ION    CL-45213  39.319   9.886   2.841
73685ION    CL-45214  14.409  29.365  13.466
73686ION    CL-45215  37.674  40.257  10.924
73687ION    CL-45216  21.929  20.601   3.632
73688ION    CL-45217  38.896  29.540   0.937
73689ION    CL-45218  42.079  32.701  11.084
73690ION    CL-45219  42.508  14.207   3.242
73691ION    CL-45220   0.344  42.944   4.441
73692ION    CL-45221  27.001  30.774   1.774
73693ION    CL-45222   3.034  15.748   2.860
73694ION    CL-45223  21.300  14.036   3.145
73695ION    CL-45224  23.310  40.663   4.583
73696ION    CL-45225   6.183  24.245   0.236
73697ION    CL-45226  22.554  28.578   2.602
73698ION    CL-45227   2.210   6.369   2.207
73699ION    CL-45228  20.924   9.059   2.427
73700ION    CL-45229  30.955  32.850  11.541
73701ION    CL-45230  22.250  18.249  13.346
73702ION    CL-45231   0.569  43.639  10.962
73703ION    CL-45232  43.477  11.922   2.796
73704ION    CL-45233  11.457  34.368   4.606
73705ION    CL-45234  23.780  33.163  11.231
73706ION    CL-45235  39.910   6.996   2.334
73707ION    CL-45236  40.830  26.740   3.804
73708ION    CL-45237  38.614   8.215  11.943
73709ION    CL-45238  35.994  31.597  13.629
73710ION    CL-45239   3.724  34.760  14.282
73711ION    CL-45240  37.118  14.169   0.934
73712ION    CL-45241   2.643  24.162  14.976
73713ION    CL-45242  16.567  43.684   2.439
73714ION    CL-45243  22.896   4.773  11.123
73715ION    CL-45244   7.741  12.945   1.370
73716ION    CL-45245  10.164  20.469  11.108
73717ION    CL-45246  25.081  39.577  12.329
73718ION    CL-45247  22.706  15.368  12.986
73719ION    CL-45248   3.511   2.138  12.107
73720ION    CL-45249  34.316   9.244   4.142
73721ION    CL-45250  18.632   1.506   3.788
73722ION    CL-45251   7.814   7.635  11.682
73723ION    CL-45252   1.030  35.199   0.096
73724ION    CL-45253   8.467  17.829  12.729
73725ION    CL-45254  32.637  28.411   4.231
73726ION    CL-45255  20.490  20.160  13.232
73727ION    CL-45256   3.879   7.015   1.690
73728ION    CL-45257  39.950  13.671   2.260
73729ION    CL-45258  21.090  38.392   2.050
73730ION    CL-45259  15.132  37.434   3.903
73731ION    CL-45260  24.913  26.655  12.112
73732ION    CL-45261  44.915  39.905  12.195
73733ION    CL-45262  37.876   7.893  11.141
73734ION    CL-45263  12.183  15.172  14.043
73735ION    CL-45264  30.108  30.903  14.035
73736ION    CL-45265  25.334  21.654  12.988
73737ION    CL-45266  32.529  43.476   3.484
73738ION    CL-45267  14.111  13.374   3.767
73739ION    CL-45268  35.587   7.139  11.952
73740ION    CL-45269  38.947  20.634  14.129
73741ION    CL-45270  20.235  33.523  14.879
73742ION    CL-45271  32.427  38.571   0.843
73743ION    CL-45272  26.508  41.353  10.661
73744ION    CL-45273  38.740  17.744  11.306
73745ION    CL-45274  38.316  11.935  13.696
73746ION    CL-45275  17.741  22.024   0.960
73747ION    CL-45276  28.129   0.665   0.608
73748ION    CL-45277  40.967  41.823   4.487
73749ION    CL-45278  42.895  30.184   2.574
73750ION    CL-45279  23.076  36.436  13.488
73751ION    CL-45280  16.683   7.603   0.914
73752ION    CL-45281   3.496  18.783  14.878
73753ION    CL-45282  12.001   0.502  13.539
73754ION    CL-45283  42.499  25.846  11.269
73755ION    CL-45284  22.743   7.991   5.001
73756ION    CL-45285  38.160  22.885   1.393
73757ION    CL-45286  22.215  14.381  13.575
73758ION    CL-45287  15.630  15.225   3.590
73759ION    CL-45288  27.200  14.535  11.860
73760ION    CL-45289   7.244  10.680   3.114
73761ION    CL-45290   9.449  28.422  13.304
73762ION    CL-45291   0.666   9.646  10.294
73763ION    CL-45292  44.982   0.452  11.606
73764ION    CL-45293  39.527  27.411  11.139
73765ION    CL-45294  10.112  16.813  14.003
73766ION    CL-45295  19.857  40.106   1.673
73767ION    CL-45296  26.978  34.039  13.078
73768ION    CL-45297  33.747  39.556  12.715
73769ION    CL-45298  32.445   8.726  12.111
73770ION    CL-45299  28.075   8.462   0.914
73771ION    CL-45300  36.398  43.494  10.481
73772ION    CL-45301  21.834  10.184  12.533
73773ION    CL-45302  22.956  21.023  11.951
73774ION    CL-45303   8.274  10.238  11.688
73775ION    CL-45304   2.446  17.456   0.805
73776ION    CL-45305  31.808   8.194   0.335
73777ION    CL-45306  20.208  39.871   3.681
73778ION    CL-45307  42.615  35.768  14.013
73779ION    CL-45308  44.880   7.128  12.630
73780ION    CL-45309  20.638  12.712  14.933
73781ION    CL-45310  16.699  32.007  10.648
73782ION    CL-45311  36.541   9.975  13.454
73783ION    CL-45312  23.556  42.291   3.207
73784ION    CL-45313  22.120  35.299  12.823
73785ION    CL-45314  42.294  21.345   4.983
73786ION    CL-45315  33.490   0.535  14.461
73787ION    CL-45316  25.117   4.762   0.174
73788ION    CL-45317  12.165  14.340   3.281
73789ION    CL-45318   0.740  39.126  13.155
73790ION    CL-45319  15.275  42.548  14.448
73791ION    CL-45320   3.696  33.873   0.832
73792ION    CL-45321   3.660  22.784   0.308
73793ION    CL-45322  40.439  30.250  11.628
73794ION    CL-45323  16.992  22.348   3.795
73795ION    CL-45324   1.427  30.882   4.984
73796ION    CL-45325  20.203   8.007   3.759
73797ION    CL-45326  22.422  19.591  14.048
73798ION    CL-45327  32.613  14.423  14.414
73799ION    CL-45328   3.676  35.223   1.767
73800ION    CL-45329  38.687  34.408  12.877
73801ION    CL-45330  34.907   1.427  13.061
73802ION    CL-45331   0.050  38.879   2.194
73803ION    CL-45332  14.391  11.994   1.509
73804ION    CL-45333  40.866  13.393   2.744
73805ION    CL-45334  27.033  29.156  11.987
73806ION    CL-45335  31.578  20.684  12.720
73807ION    CL-45336  41.815  31.771   3.506
73808ION    CL-45337  30.946  30.096   3.708
73809ION    CL-45338  43.032  31.747   1.454
73810ION    CL-45339  37.233  12.585  13.868
73811ION    CL-45340  43.236   7.864   0.683
73812ION    CL-45341  30.276  35.904   4.905
73813ION    CL-45342  15.621   3.446   1.410
73814ION    CL-45343  22.830  25.727  12.232
73815ION    CL-45344  13.150  41.136  11.713
73816ION    CL-45345  27.447  16.526  12.975
73817ION    CL-45346  35.471   1.911   3.120
73818ION    CL-45347   8.756   5.304   3.713
73819ION    CL-45348   8.894  14.474   1.526
73820ION    CL-45349  36.788  24.211   1.333
73821ION    CL-45350   9.369  30.959  13.022
73822ION    CL-45351  21.112  33.017   4.981
73823ION    CL-45352  27.678  37.696   4.208
73824ION    CL-45353  42.723  44.447   4.971
73825ION    CL-45354  28.666  28.459  12.005
73826ION    CL-45355  23.201  25.009   0.186
73827ION    CL-45356   1.647  24.357  11.709
73828ION    CL-45357   4.551  33.910  13.640
73829ION    CL-45358   2.480  37.559   0.740
73830ION    CL-45359  35.695  40.842   2.794
73831ION    CL-45360  42.828  16.758  12.970
73832ION    CL-45361   3.576  40.758   2.740
73833ION    CL-45362  29.115  23.092  14.956
73834ION    CL-45363   6.374  35.706   3.040
73835ION    CL-45364  25.186  28.669  11.462
73836ION    CL-45365  37.762  44.733   0.419
73837ION    CL-45366  24.342  22.666  11.267
73838ION    CL-45367  41.514  38.722   0.702
73839ION    CL-45368   7.950   6.478   0.214
73840ION    CL-45369  12.870  23.155   0.901
73841ION    CL-45370  32.199  40.771   4.563
73842ION    CL-45371  36.386  19.852   9.923
73843ION    CL-45372  34.556  25.133  10.408
73844ION    CL-45373  44.193  32.813  10.100
73845ION    CL-45374  13.612  33.810  13.921
73846ION    CL-45375  11.218  38.214   4.531
73847ION    CL-45376  21.569  26.560   9.934
73848ION    CL-45377  40.221  31.220  11.529
73849ION    CL-45378  28.967   9.905  12.894
73850ION    CL-45379  39.970  15.026  12.410
73851ION    CL-45380   8.559  29.680  12.828
73852ION    CL-45381  10.166  43.044   4.610
73853ION    CL-45382  34.937  16.423  10.439
73854ION    CL-45383  32.709  44.588  13.994
73855ION    CL-45384  34.326  35.831   0.424
73856ION    CL-45385  37.507  12.173   3.279
73857ION    CL-45386  38.047  41.759  12.507
73858ION    CL-45387  30.272  30.932   2.258
73859ION    CL-45388  22.361  39.669  13.527
73860ION    CL-45389  41.531   5.629   0.267
73861ION    CL-45390  23.600   5.247   3.704
73862ION    CL-45391  19.359  11.214   2.943
73863ION    CL-45392   0.291  28.298  10.990
73864ION    CL-45393  18.160  26.415   4.331
73865ION    CL-45394  33.422  24.200   1.259
73866ION    CL-45395   3.781  39.281  12.728
73867ION    CL-45396   7.042  20.560  10.477
73868ION    CL-45397  18.197  22.175  14.885
73869ION    CL-45398  43.944  17.645  12.824
73870ION    CL-45399  38.829  11.881   0.933
73871ION    CL-45400  32.287  36.574   0.994
73872ION    CL-45401  17.991  34.512   1.805
73873ION    CL-45402  15.399  41.895   4.941
73874ION    CL-45403   3.328  12.653  14.244
73875ION    CL-45404   3.457   3.796   2.870
73876ION    CL-45405  17.023  36.110  11.241
73877ION    CL-45406  39.835  44.649  13.647
73878ION    CL-45407   2.701  26.329  12.848
73879ION    CL-45408  25.504  39.106   4.220
73880ION    CL-45409  18.794   0.997  14.163
73881ION    CL-45410  21.173  13.273   4.247
73882ION    CL-45411   3.958  31.803   4.023
73883ION    CL-45412  21.542  38.458  10.307
73884ION    CL-45413  35.591  25.903   0.093
73885ION    CL-45414   4.141  26.783   0.946
73886ION    CL-45415  17.864  22.114  12.119
73887ION    CL-45416  34.149  11.215  12.830
73888ION    CL-45417   2.183   4.877  14.690
73889ION    CL-45418  14.934  28.389  11.648
73890ION    CL-45419   5.671  43.490  11.991
73891ION    CL-45420  35.065  19.685  12.927
73892ION    CL-45421  30.362   7.431  13.226
73893ION    CL-45422   0.028  41.183  13.153
73894ION    CL-45423  13.136  27.311   1.361
73895ION    CL-45424  10.759  22.597   0.231
73896ION    CL-45425   8.588   8.151   1.896
73897ION    CL-45426   3.206  20.869   2.742
73898ION    CL-45427  32.517   0.029  11.287
73899ION    CL-45428  12.881  14.161   3.812
73900ION    CL-45429  40.307  11.251  11.152
73901ION    CL-45430  27.128   5.194   4.044
73902ION    CL-45431  28.679  10.453  14.451
73903ION    CL-45432  29.889  21.713  14.978
73904ION    CL-45433   9.722  12.824   1.787
73905ION    CL-45434  24.349   1.989   0.683
73906ION    CL-45435  26.021  41.467   3.241
73907ION    CL-45436  32.326   4.013  14.987
73908ION    CL-45437  43.638  19.578   1.552
73909ION    CL-45438  23.091   6.694  14.277
73910ION    CL-45439  20.021  18.076   5.048
73911ION    CL-45440  37.103  40.369  13.451
73912ION    CL-45441  18.365  41.576   0.981
73913ION    CL-45442  19.969  12.184  13.608
73914ION    CL-45443  26.263  10.471   9.998
73915ION    CL-45444  19.893  34.132   1.203
73916ION    CL-45445  41.325  25.903   0.292
73917ION    CL-45446  28.080  26.105  11.936
73918ION    CL-45447   7.422  26.428  14.376
73919ION    CL-45448   4.362  28.676   4.748
73920ION    CL-45449  14.659  23.988  11.645
73921ION    CL-45450  23.982  12.322   1.098
73922ION    CL-45451   5.251   0.445  14.315
73923ION    CL-45452  33.631  20.861   1.723
73924ION    CL-45453  23.973   2.565  14.502
73925ION    CL-45454   6.799  21.283   1.551
73926ION    CL-45455   1.917  36.136   4.138
73927ION    CL-45456   7.421  25.440   0.556
73928ION    CL-45457  42.177  14.815   4.990
73929ION    CL-45458  42.554  25.029  10.695
73930ION    CL-45459  37.333  13.556   2.533
73931ION    CL-45460  33.064  30.146   0.291
73932ION    CL-45461  32.878  36.508  12.121
73933ION    CL-45462  38.781  42.527  14.336
73934ION    CL-45463  35.202  17.304  10.457
73935ION    CL-45464   5.622  41.636   0.905
73936ION    CL-45465   4.538  37.140   3.808
73937ION    CL-45466  13.241  33.298   2.210
73938ION    CL-45467  16.206  32.731   4.956
73939ION    CL-45468   5.755  25.032  14.677
73940ION    CL-45469  31.001  38.808   0.992
73941ION    CL-45470   6.697  39.076   2.167
73942ION    CL-45471  43.909   3.453   3.639
73943ION    CL-45472   8.519   9.365   2.957
73944ION    CL-45473  24.148  43.479  12.541
73945ION    CL-45474  24.749  31.278  13.584
73946ION    CL-45475  41.615   9.431  11.773
73947ION    CL-45476  17.198  22.864  13.048
73948ION    CL-45477  41.693  42.676  14.628
73949ION    CL-45478  17.592   1.479   0.321
73950ION    CL-45479  10.501   4.769  12.756
73951ION    CL-45480  19.523   7.375  10.788
73952ION    CL-45481   0.277  12.680   0.291
73953ION    CL-45482  21.993  28.418   3.414
73954ION    CL-45483  33.390  38.089  11.539
73955ION    CL-45484  23.457  28.370  14.858
73956ION    CL-45485   7.251  37.148  11.098
73957ION    CL-45486  33.113  33.102  11.436
73958ION    CL-45487  42.210  26.375  13.939
73959ION    CL-45488   8.909  40.379  13.127
73960ION    CL-45489  17.002  21.914  12.594
73961ION    CL-45490  37.671   6.204   0.987
73962ION    CL-45491   9.334   9.057   4.514
73963ION    CL-45492  35.884  22.088   3.252
73964ION    CL-45493  19.858  11.882   2.637
73965ION    CL-45494  21.558  12.002   3.269
73966ION    CL-45495  17.098  22.754  12.060
73967ION    CL-45496  35.556  35.524   4.599
73968ION    CL-45497   4.812  31.952  14.369
73969ION    CL-45498   1.106   5.113  13.166
73970ION    CL-45499  23.889  33.931  14.541
73971ION    CL-45500   3.696  40.543   0.875
73972ION    CL-45501  18.485  33.999  10.330
73973ION    CL-45502  33.325  10.353  13.006
73974ION    CL-45503   3.665   5.855  11.210
73975ION    CL-45504   5.078  20.821   1.429
73976ION    CL-45505   5.996  31.435   0.901
73977ION    CL-45506  37.648   8.626  14.391
73978ION    CL-45507  13.771   6.801   3.402
73979ION    CL-45508  44.926   7.965  13.809
73980ION    CL-45509  44.010  16.363   0.790
73981ION    CL-45510  26.216   3.942  14.769
73982ION    CL-45511  20.843  21.772  13.048
73983ION    CL-45512  40.065  35.164   2.651
73984ION    CL-45513  22.572   9.331   0.731
73985ION    CL-45514  32.467  39.093   3.811
73986ION    CL-45515  23.890  33.051   2.335
73987ION    CL-45516  14.830  21.524  14.299
73988ION    CL-45517  12.145   2.017  11.897
73989ION    CL-45518  34.304  22.888   3.409
73990ION    CL-45519  27.710  37.603   3.138
73991ION    CL-45520  10.125  41.114  14.009
73992ION    CL-45521  17.703   7.139  14.903
73993ION    CL-45522   0.703   6.231   2.204
73994ION    CL-45523  17.878  25.217  12.857
73995ION    CL-45524  12.067  33.333  12.724
73996ION    CL-45525  38.635  16.391   0.989
73997ION    CL-45526  32.275  21.121   1.849
73998ION    CL-45527  18.770   6.253   3.526
73999ION    CL-45528   7.441  19.220   3.760
74000ION    CL-45529  22.337   1.914   2.676
74001ION    CL-45530   9.142  33.957  10.128
74002ION    CL-45531  12.870  29.499  12.101
74003ION    CL-45532  21.131  18.856   3.358
74004ION    CL-45533  19.325  36.095  13.382
74005ION    CL-45534  20.539  17.778   1.788
74006ION    CL-45535  12.901  18.509   0.792
74007ION    CL-45536  41.548  35.552  14.411
74008ION    CL-45537  43.645  17.540  14.494
74009ION    CL-45538  23.475  18.609   0.389
74010ION    CL-45539   0.368  28.082   2.927
74011ION    CL-45540   9.146  24.205  12.979
74012ION    CL-45541   2.861   1.578  14.863
74013ION    CL-45542  22.209  25.728   2.428
74014ION    CL-45543  36.969  20.524   1.115
74015ION    CL-45544  39.605  12.757   1.217
74016ION    CL-45545  11.348   2.473  10.286
74017ION    CL-45546   8.383  35.391   2.456
74018ION    CL-45547   8.322  10.655  14.762
74019ION    CL-45548  21.909  21.650   3.348
74020ION    CL-45549   5.393   5.007   0.448
74021ION    CL-45550  16.156  27.880  13.303
74022ION    CL-45551  19.827  26.010  13.434
74023ION    CL-45552   2.673  30.550   3.239
74024ION    CL-45553  34.358   6.705  12.744
74025ION    CL-45554   8.563  10.799  13.802
74026ION    CL-45555   2.361  12.312   0.951
74027ION    CL-45556  41.546  43.973   0.237
74028ION    CL-45557   7.386   1.519   4.105
74029ION    CL-45558   5.794  17.546  12.417
74030ION    CL-45559  43.408   5.471  13.068
74031ION    CL-45560  43.504   6.478   0.720
74032ION    CL-45561  28.243  22.056  10.632
74033ION    CL-45562  33.862  24.336   0.039
74034ION    CL-45563   7.053  44.148   4.878
74035ION    CL-45564  18.730  28.538  13.648
74036ION    CL-45565   5.528  35.210  12.444
74037ION    CL-45566  42.295   3.268   0.396
74038ION    CL-45567  20.256  34.838   4.655
74039ION    CL-45568   5.336   8.984  12.426
74040ION    CL-45569  12.739  38.812   1.524
74041ION    CL-45570  27.058  21.118   4.472
74042ION    CL-45571  12.186  13.440  11.167
74043ION    CL-45572  16.734   1.476  10.438
74044ION    CL-45573  22.458  41.305   2.209
74045ION    CL-45574  14.867  13.801   3.269
74046ION    CL-45575  20.018  35.605  13.148
74047ION    CL-45576  14.665  28.841  10.961
74048ION    CL-45577  24.375  39.588  13.123
74049ION    CL-45578  27.605  18.793  13.416
74050ION    CL-45579  43.965   2.067   4.918
74051ION    CL-45580   7.562  10.194   1.841
74052ION    CL-45581  38.247  18.262   2.002
74053ION    CL-45582  35.328  15.620   3.565
74054ION    CL-45583  21.089   6.557  14.559
74055ION    CL-45584  29.426  31.078   0.782
74056ION    CL-45585  32.289  38.319  13.979
74057ION    CL-45586  18.361  31.692   5.401
74058ION    CL-45587  27.616  35.313  10.636
74059ION    CL-45588   4.280   8.435  10.856
74060ION    CL-45589  32.201   8.725  13.226
74061ION    CL-45590  14.780   0.193  13.141
74062ION    CL-45591  16.497   6.817  12.481
74063ION    CL-45592  30.088  22.485  11.228
74064ION    CL-45593  36.070  25.159  12.483
74065ION    CL-45594  28.716  43.743   2.732
74066ION    CL-45595  21.355  41.381  10.754
74067ION    CL-45596  43.674   5.784  11.553
74068ION    CL-45597   1.822  29.085   0.241
74069ION    CL-45598  37.782   7.081  11.728
74070ION    CL-45599  16.214  25.445   1.781
74071ION    CL-45600  19.481  32.383   1.229
74072ION    CL-45601  10.601  35.417   2.680
74073ION    CL-45602  30.396  10.514  14.879
74074ION    CL-45603  10.356   1.507  12.001
74075ION    CL-45604  18.509   5.424   0.554
74076ION    CL-45605  11.642   5.487   0.039
74077ION    CL-45606  13.757  20.662  11.191
74078ION    CL-45607  23.425   2.698  13.677
74079ION    CL-45608  19.779  12.122  11.100
74080ION    CL-45609  32.163   0.813  14.464
74081ION    CL-45610  30.590  18.827  12.176
74082ION    CL-45611  21.300  31.883   3.776
74083ION    CL-45612   9.617  40.083  12.824
74084ION    CL-45613  42.456  15.855  14.739
74085ION    CL-45614  31.968  38.817   2.989
74086ION    CL-45615  33.120  25.049  13.278
74087ION    CL-45616   1.853  39.072  10.020
74088ION    CL-45617  20.482  10.238  11.138
74089ION    CL-45618  19.009  26.791   1.158
74090ION    CL-45619  11.082  40.257   1.824
74091ION    CL-45620   8.212  12.068   2.545
74092ION    CL-45621  20.169   3.020   2.392
74093ION    CL-45622  43.721   2.225  10.429
74094ION    CL-45623  32.952  27.907  11.804
74095ION    CL-45624  37.913  28.017   0.981
74096ION    CL-45625  39.051   3.840  14.530
74097ION    CL-45626  32.390  41.958   4.145
74098ION    CL-45627  23.276  11.650   2.716
74099ION    CL-45628   4.721  29.826  12.715
74100ION    CL-45629  24.660  10.406   3.724
74101ION    CL-45630  18.533  40.701   0.918
74102ION    CL-45631  10.136  16.341  11.437
74103ION    CL-45632  10.951   7.914   5.183
74104ION    CL-45633  19.077  15.891  11.124
74105ION    CL-45634  31.899  25.304  11.362
74106ION    CL-45635  43.554  41.287   1.778
74107ION    CL-45636  38.680  12.191   3.558
74108ION    CL-45637  31.272  22.420  14.533
74109ION    CL-45638  12.685  34.183  13.913
74110ION    CL-45639  33.768  37.993  14.924
74111ION    CL-45640   3.000  14.106   3.561
74112ION    CL-45641   0.629  21.515  11.685
74113ION    CL-45642  14.788  16.327   3.644
74114ION    CL-45643  23.720  31.213  14.711
74115ION    CL-45644  27.144  13.287  11.566
74116ION    CL-45645   0.093  20.521   4.402
74117ION    CL-45646  44.201  12.751  11.148
74118ION    CL-45647  24.422  38.203  11.799
74119ION    CL-45648  27.771  29.893   4.808
74120ION    CL-45649  44.034  37.566  13.015
74121ION    CL-45650  21.421  18.542  14.124
74122ION    CL-45651  27.772  25.400  14.167
74123ION    CL-45652  38.668   6.110  12.068
74124ION    CL-45653  13.962  39.071   2.845
74125ION    CL-45654  35.239   6.529  12.988
74126ION    CL-45655  35.256  19.698   4.534
74127ION    CL-45656   5.684  33.101   1.584
74128ION    CL-45657  29.870  19.062  11.479
74129ION    CL-45658  16.134  10.599  14.923
74130ION    CL-45659  21.590   2.296   2.007
74131ION    CL-45660  39.425  33.649   0.758
74132ION    CL-45661  18.362  14.625  13.156
74133ION    CL-45662  33.538  25.141  12.053
74134ION    CL-45663  32.930   5.846   4.590
74135ION    CL-45664  29.581  23.911  11.190
74136ION    CL-45665  22.925  17.069   2.628
74137ION    CL-45666  20.557   4.689  14.852
74138ION    CL-45667  12.252  30.407  12.860
74139ION    CL-45668   6.898  22.643  12.767
74140ION    CL-45669  29.950  13.318  13.482
74141ION    CL-45670   1.246  23.517  12.075
74142ION    CL-45671  40.276  24.388   4.123
74143ION    CL-45672  32.034   8.918   1.231
74144ION    CL-45673   1.671   0.351   2.731
74145ION    CL-45674   1.555  29.629  11.986
74146ION    CL-45675  14.159   2.580   4.152
74147ION    CL-45676  13.677  16.293  14.960
74148ION    CL-45677  11.748  37.971   2.905
74149ION    CL-45678  43.322  38.780  12.095
74150ION    CL-45679  43.956   0.432   3.619
74151ION    CL-45680  27.531  44.420  11.553
74152ION    CL-45681  18.199  25.652  11.128
74153ION    CL-45682  30.805   0.245   1.778
74154ION    CL-45683  17.346  12.178   0.013
74155ION    CL-45684  32.186   2.475  13.355
74156ION    CL-45685  22.975  30.479  11.685
74157ION    CL-45686  17.995  35.912   4.185
74158ION    CL-45687  28.808   8.627   3.958
74159ION    CL-45688   0.850  32.875  14.048
74160ION    CL-45689  44.690  37.504   4.236
74161ION    CL-45690  23.717  21.415   0.485
74162ION    CL-45691  21.821  32.026   1.780
74163ION    CL-45692  18.734  31.700  14.329
74164ION    CL-45693  24.875  13.572   4.163
74165ION    CL-45694  22.065  15.506   4.899
74166ION    CL-45695   1.037   6.296  11.144
74167ION    CL-45696  32.792   1.342   3.742
74168ION    CL-45697   4.166  31.827  10.343
74169ION    CL-45698  42.665  24.855  14.527
74170ION    CL-45699  43.511  13.804   1.438
74171ION    CL-45700  35.895  31.529  11.207
74172ION    CL-45701  16.028  22.095   2.781
74173ION    CL-45702  18.173   9.301  14.371
74174ION    CL-45703  27.670   1.992   4.580
74175ION    CL-45704   4.847  38.546  12.342
74176ION    CL-45705   5.384   9.378   5.050
74177ION    CL-45706   3.495  21.408  11.429
74178ION    CL-45707  28.480   1.651  12.794
74179ION    CL-45708  15.232  17.600  11.830
74180ION    CL-45709  43.381  31.035  11.739
74181ION    CL-45710   4.449  43.085   4.962
74182ION    CL-45711  28.440  16.104  13.664
74183ION    CL-45712  34.053  43.993  14.539
74184ION    CL-45713  32.301  35.313   2.253
74185ION    CL-45714   9.879  38.881  14.599
74186ION    CL-45715  24.045   7.764   2.346
74187ION    CL-45716  21.029  37.250  12.448
74188ION    CL-45717  42.382   4.984   1.890
74189ION    CL-45718   5.987  27.333   2.750
74190ION    CL-45719  39.515   6.252   4.312
74191ION    CL-45720   3.857  37.154   1.945
74192ION    CL-45721  15.686  17.509   2.416
74193ION    CL-45722  31.617  15.945   4.222
74194ION    CL-45723  13.417   0.806  14.815
74195ION    CL-45724  22.776  34.274  11.450
74196ION    CL-45725  43.292   1.518   4.974
74197ION    CL-45726  33.147  12.264   4.311
74198ION    CL-45727  33.662   3.340  11.671
74199ION    CL-45728   6.371  27.408   0.990
74200ION    CL-45729  16.470  39.774  14.909
74201ION    CL-45730  15.441  35.371   3.155
74202ION    CL-45731  15.852   7.917   2.562
74203ION    CL-45732  21.842   4.218  12.672
74204ION    CL-45733  41.338   9.874  14.072
74205ION    CL-45734  12.729   7.901   4.515
74206ION    CL-45735  21.801  18.476   4.920
74207ION    CL-45736  42.178  40.851  12.574
74208ION    CL-45737  22.199  30.572   1.834
74209ION    CL-45738   8.759  28.726   4.839
74210ION    CL-45739  37.860  21.092   2.201
74211ION    CL-45740   7.742  21.063  10.636
74212ION    CL-45741  26.058  29.808   0.358
74213ION    CL-45742  24.391  20.429  11.349
74214ION    CL-45743   2.711  20.466   1.104
74215ION    CL-45744  38.345  11.397   1.172
74216ION    CL-45745  19.394  22.645   5.051
74217ION    CL-45746   9.127  21.000   1.875
74218ION    CL-45747   0.924  26.186  12.573
74219ION    CL-45748  27.236   3.723   4.595
74220ION    CL-45749   1.080  18.005   0.911
74221ION    CL-45750   9.005  34.602   4.277
74222ION    CL-45751   9.650  18.815   1.182
74223ION    CL-45752   7.841  37.781  14.901
74224ION    CL-45753  26.229   5.863  14.435
74225ION    CL-45754  31.789  20.109  11.928
74226ION    CL-45755  21.544  13.323  12.418
74227ION    CL-45756   7.368  28.698   2.647
74228ION    CL-45757  30.091  19.656   4.740
74229ION    CL-45758   1.066  16.443  12.322
74230ION    CL-45759   2.189   8.586  10.849
74231ION    CL-45760  25.820  11.166   3.239
74232ION    CL-45761  37.615  13.104   1.686
74233ION    CL-45762  23.879  16.853  10.764
74234ION    CL-45763  27.107  28.144  11.626
74235ION    CL-45764  35.980  20.053   3.371
74236ION    CL-45765   1.590  13.033  10.987
74237ION    CL-45766   3.982   2.080  12.879
74238ION    CL-45767  33.731  13.644   1.847
74239ION    CL-45768  38.013  36.341   1.309
74240ION    CL-45769  24.017   8.751   2.018
74241ION    CL-45770  40.627  32.163   3.675
74242ION    CL-45771  38.470  37.605   2.729
74243ION    CL-45772  16.085  34.302  11.480
74244ION    CL-45773  39.208  28.398  11.275
74245ION    CL-45774  22.331  43.591   4.175
74246ION    CL-45775  34.892  20.705  14.902
74247ION    CL-45776  15.625  28.000  12.767
74248ION    CL-45777  27.589  34.218   2.625
74249ION    CL-45778  37.767   3.938   5.090
74250ION    CL-45779   0.529  20.023  13.880
74251ION    CL-45780  22.928   6.192   2.166
74252ION    CL-45781  19.752  21.575  12.086
74253ION    CL-45782  42.620  42.944   3.584
74254ION    CL-45783  37.009  28.433   0.755
74255ION    CL-45784  19.712   8.005  12.360
74256ION    CL-45785  19.224  15.863  14.390
74257ION    CL-45786   6.957  11.524  11.493
74258ION    CL-45787  15.247   3.900  14.718
74259ION    CL-45788   0.733  20.102   3.790
74260ION    CL-45789   4.474  30.066   1.961
74261ION    CL-45790  28.838  19.403   2.031
74262ION    CL-45791  12.333  18.212  14.507
74263ION    CL-45792  11.138   6.519  12.213
74264ION    CL-45793   4.350   9.675  10.905
74265ION    CL-45794   8.271  42.776  10.870
74266ION    CL-45795  44.538  27.915  12.178
74267ION    CL-45796   2.091   0.535   0.380
74268ION    CL-45797   8.692  41.477  11.102
74269ION    CL-45798  15.918  44.391   4.501
74270ION    CL-45799  34.632  22.528  13.937
74271ION    CL-45800  18.749  14.170   3.690
74272ION    CL-45801   0.837  37.466   3.240
74273ION    CL-45802  37.279   4.080  13.529
74274ION    CL-45803  26.083  38.524   0.965
74275ION    CL-45804  33.470  29.677  13.627
74276ION    CL-45805  36.113  30.156   3.111
74277ION    CL-45806  38.181   0.083  10.127
74278ION    CL-45807  23.658   3.535   0.159
74279ION    CL-45808  39.075  33.675  10.615
74280ION    CL-45809  17.088   3.322   1.514
74281ION    CL-45810  16.641  26.605   2.285
74282ION    CL-45811  31.676   9.895  13.630
74283ION    CL-45812   8.872  44.808   4.965
74284ION    CL-45813  27.872   7.130  11.127
74285ION    CL-45814  22.435  34.584   2.248
74286ION    CL-45815  16.568  11.590   4.991
74287ION    CL-45816  37.073   9.438   2.697
74288ION    CL-45817  24.069  37.570   3.118
74289ION    CL-45818  18.827   4.929  12.994
74290ION    CL-45819  22.480   5.502   0.561
74291ION    CL-45820   8.108  36.380  13.323
74292ION    CL-45821  10.855   9.743  11.245
74293ION    CL-45822  29.062  13.624  12.552
74294ION    CL-45823  41.977  40.658   0.700
74295ION    CL-45824   5.511  28.920  11.668
74296ION    CL-45825  44.094   4.452   2.380
74297ION    CL-45826  26.320  10.330   4.924
74298ION    CL-45827  23.667  38.547  11.400
74299ION    CL-45828   8.246  23.004  14.437
74300ION    CL-45829  44.020  15.882   2.489
74301ION    CL-45830  25.129  38.600  11.302
74302ION    CL-45831   0.899   5.601  10.439
74303ION    CL-45832  28.271  36.972   3.673
74304ION    CL-45833  24.282  11.879  13.866
74305ION    CL-45834  43.345  19.306   0.030
74306ION    CL-45835  22.715  36.718   2.794
74307ION    CL-45836  32.405  33.594  11.704
74308ION    CL-45837  30.515  23.715  14.148
74309ION    CL-45838  23.377  13.185  11.920
74310ION    CL-45839  16.235   1.348   0.718
74311ION    CL-45840  24.137  14.232   0.445
74312ION    CL-45841  24.237  43.833   2.775
74313ION    CL-45842  11.047   3.852   3.576
74314ION    CL-45843  44.419   6.919  14.787
74315ION    CL-45844   6.180  21.429  12.967
74316ION    CL-45845  38.280  43.016   3.775
74317ION    CL-45846  10.422  18.842  11.597
74318ION    CL-45847  25.933  36.300  11.602
74319ION    CL-45848  27.759  15.276   1.293
74320ION    CL-45849  25.208  39.155   2.164
74321ION    CL-45850  38.840   2.871  14.355
74322ION    CL-45851  32.838   4.684   2.831
74323ION    CL-45852  28.001  18.932   3.082
74324ION    CL-45853  36.574  44.366  11.997
74325ION    CL-45854  40.011  23.490  12.320
74326ION    CL-45855  14.987  40.475  12.576
74327ION    CL-45856  38.249  43.413  11.947
74328ION    CL-45857  38.716  17.527   2.285
74329ION    CL-45858  21.785  25.844   4.691
74330ION    CL-45859  21.951  43.383  14.481
74331ION    CL-45860  31.920   2.443   4.096
74332ION    CL-45861  42.908  43.701   0.058
74333ION    CL-45862  38.362  11.324  14.487
74334ION    CL-45863  18.037   3.440  13.597
74335ION    CL-45864  38.834  30.710  10.544
74336ION    CL-45865   0.943  37.780   0.304
74337ION    CL-45866  14.599  19.360  14.854
74338ION    CL-45867  35.944  22.569   1.966
74339ION    CL-45868   9.978  19.184   3.113
74340ION    CL-45869  10.651  12.092   0.452
74341ION    CL-45870  19.286  44.305  13.882
74342ION    CL-45871   2.317  20.174  13.391
74343ION    CL-45872  13.548  43.638   2.168
74344ION    CL-45873  21.676  33.531   2.481
74345ION    CL-45874   5.803  18.714  13.125
74346ION    CL-45875   5.116  24.951   0.441
74347ION    CL-45876  25.477  12.055   2.730
74348ION    CL-45877  21.230  24.877  12.616
74349ION    CL-45878  35.764  40.410  12.518
74350ION    CL-45879  30.077   5.648  11.044
74351ION    CL-45880  37.168  40.435   2.460
74352ION    CL-45881  19.699  31.631  10.675
74353ION    CL-45882   7.513  29.492  10.294
74354ION    CL-45883  25.438  28.627  12.822
74355ION    CL-45884   2.230  17.126   2.847
74356ION    CL-45885   7.752  33.626  14.160
74357ION    CL-45886  15.821  31.667   2.246
74358ION    CL-45887  30.465  41.838  12.341
74359ION    CL-45888  39.789  36.892   3.137
74360ION    CL-45889  30.897  18.590   2.945
74361ION    CL-45890  35.815  19.169  14.988
74362ION    CL-45891  33.172  33.813  13.123
74363ION    CL-45892  43.452  21.944   0.874
74364ION    CL-45893  20.716   0.547   3.191
74365ION    CL-45894  17.550  13.116   1.768
74366ION    CL-45895  11.826  11.394  14.356
74367ION    CL-45896   2.775  18.850   0.871
74368ION    CL-45897  33.126  21.339   4.909
74369ION    CL-45898  21.218  39.629   3.638
74370ION    CL-45899   5.538  12.455   3.717
74371ION    CL-45900  36.108  26.748  12.542
74372ION    CL-45901  36.332  37.998   0.320
74373ION    CL-45902   3.688   5.934   9.757
74374ION    CL-45903   4.975  18.704  14.719
74375ION    CL-45904  18.640   4.821   4.036
74376ION    CL-45905  11.532  39.738  14.334
74377ION    CL-45906  24.725   0.634   0.495
74378ION    CL-45907  19.070  13.158   4.058
74379ION    CL-45908   3.631  40.766  13.294
74380ION    CL-45909  13.594  12.327  10.901
74381ION    CL-45910  10.126   0.680   1.775
74382ION    CL-45911  41.840  25.465   4.764
74383ION    CL-45912  42.765  37.403  11.135
74384ION    CL-45913  42.799  20.111  12.595
74385ION    CL-45914  39.165  20.950   0.347
74386ION    CL-45915   8.803  42.164   2.975
74387ION    CL-45916   7.947  12.384  13.023
74388ION    CL-45917   8.905  22.937   2.313
74389ION    CL-45918   0.525  31.666  11.553
74390ION    CL-45919   3.009  27.267  11.318
74391ION    CL-45920  29.166  22.033   4.222
74392ION    CL-45921  31.043  29.576   5.047
74393ION    CL-45922  29.929  19.240   0.758
74394ION    CL-45923   2.320  41.730   1.493
74395ION    CL-45924  14.950   1.247   1.703
74396ION    CL-45925  22.130   9.978   3.931
74397ION    CL-45926  17.825  13.692  14.250
74398ION    CL-45927   8.067  30.419   3.751
74399ION    CL-45928  29.794   4.671  14.990
74400ION    CL-45929   5.188   1.418  14.545
74401ION    CL-45930   9.013  19.244   3.368
74402ION    CL-45931   2.302  43.080  13.837
74403ION    CL-45932  18.913   1.153  11.061
74404ION    CL-45933  14.005  42.716  12.501
74405ION    CL-45934  19.226  39.744  11.318
74406ION    CL-45935   0.675   9.796   4.228
74407ION    CL-45936  25.921   1.783   1.990
74408ION    CL-45937  32.050  24.381   1.838
74409ION    CL-45938  31.926  42.718   3.233
74410ION    CL-45939   4.589  22.419   2.623
74411ION    CL-45940  40.519  37.667   3.091
74412ION    CL-45941  26.330  28.668  12.917
74413ION    CL-45942  26.869   3.170   1.326
74414ION    CL-45943  24.307  41.726  13.833
74415ION    CL-45944  10.425  22.570   1.190
74416ION    CL-45945  13.517  12.125   2.539
74417ION    CL-45946  19.203  36.022   4.854
74418ION    CL-45947  11.598  29.570   2.727
74419ION    CL-45948   0.889   4.020  14.864
74420ION    CL-45949  19.960  25.978  10.614
74421ION    CL-45950  15.689   9.226  12.231
74422ION    CL-45951  22.951  29.526   3.273
74423ION    CL-45952   8.527   7.157   0.168
74424ION    CL-45953  34.862  42.203   5.071
74425ION    CL-45954  32.119   0.977  11.465
74426ION    CL-45955  23.666   1.783  13.352
74427ION    CL-45956  30.020   5.594  14.679
74428ION    CL-45957  16.152  27.128  12.955
74429ION    CL-45958   8.307  31.383  11.457
74430ION    CL-45959  29.996  41.004  11.109
74431ION    CL-45960   0.947  11.420  11.331
74432ION    CL-45961  26.763  42.023   4.519
74433ION    CL-45962  17.244   2.983   0.220
74434ION    CL-45963  40.817  43.844  12.070
74435ION    CL-45964  19.625   0.622   1.937
74436ION    CL-45965  38.972  36.382   4.934
74437ION    CL-45966   2.132  23.433   4.208
74438ION    CL-45967  32.887  34.163   3.002
74439ION    CL-45968  40.504   8.402  13.436
74440ION    CL-45969  43.629  25.830   4.963
74441ION    CL-45970  34.537   8.949  12.919
74442ION    CL-45971  38.619  22.743  13.568
74443ION    CL-45972   5.949   0.172   1.574
74444ION    CL-45973   1.032  33.141  11.478
74445ION    CL-45974  29.293   7.868  10.663
74446ION    CL-45975   1.363  40.820  10.852
74447ION    CL-45976  10.727  14.366   5.217
74448ION    CL-45977  35.653  29.652  13.088
74449ION    CL-45978  21.235  15.349  10.502
74450ION    CL-45979  30.596   7.413   0.907
74451ION    CL-45980  32.123  35.894  12.869
74452ION    CL-45981  15.150  16.722   0.784
74453ION    CL-45982  37.261  41.874  13.228
74454ION    CL-45983  41.628  20.594   4.159
74455ION    CL-45984  13.739   3.605  11.113
74456ION    CL-45985  17.547   1.709   3.295
74457ION    CL-45986  32.294  41.196   1.269
74458ION    CL-45987  15.315  28.220   2.368
74459ION    CL-45988  20.522  37.041   2.223
74460ION    CL-45989  17.077  11.294  11.073
74461ION    CL-45990  15.916  33.898   1.669
74462ION    CL-45991  19.261   3.796  13.348
74463ION    CL-45992  35.196  33.360  11.439
74464ION    CL-45993  24.675   4.685  14.381
74465ION    CL-45994  29.770   1.994   2.157
74466ION    CL-45995  16.252  14.900   0.307
74467ION    CL-45996   3.286  14.075  13.485
74468ION    CL-45997  34.892  38.993   2.611
74469ION    CL-45998  37.484  15.075   0.721
74470ION    CL-45999  22.006  35.790   3.085
74471ION    CL-46000  36.988  42.258   1.741
74472ION    CL-46001  10.295  33.224   3.306
74473ION    CL-46002  28.536  15.863   3.606
74474ION    CL-46003   0.244  17.633   0.860
74475ION    CL-46004  42.229   4.796   3.628
74476ION    CL-46005  35.311  44.017  13.487
74477ION    CL-46006  26.171  35.771   3.542
74478ION    CL-46007   5.386  21.581  13.555
74479ION    CL-46008  44.714  24.174   3.841
74480ION    CL-46009  37.636  25.468   3.200
74481ION    CL-46010  22.693   7.686  13.025
74482ION    CL-46011  19.771   8.935   1.765
74483ION    CL-46012  43.644  16.876   3.456
74484ION    CL-46013  44.456  12.727  14.373
74485ION    CL-46014   9.547  24.946   1.344
74486ION    CL-46015   4.535  32.512  12.885
74487ION    CL-46016   1.955  30.427   3.924
74488ION    CL-46017  41.345   0.182   4.510
74489ION    CL-46018  11.844  13.423   4.603
74490ION    CL-46019  15.858   3.957  12.412
74491ION    CL-46020  27.162  15.343  12.447
74492ION    CL-46021  33.633  33.073  13.863
74493ION    CL-46022  33.246  10.496   4.911
74494ION    CL-46023  25.505  23.493   3.379
74495ION    CL-46024  35.878  34.455   0.271
74496ION    CL-46025  43.591   1.938   3.826
74497ION    CL-46026   2.629  41.771  13.933
74498ION    CL-46027  42.350   5.469  14.903
74499ION    CL-46028  41.042  16.642   4.158
74500ION    CL-46029  34.962  24.226  13.120
74501ION    CL-46030   0.477   2.084  13.525
74502ION    CL-46031  44.510  31.475  13.023
74503ION    CL-46032   1.204  13.144  14.379
74504ION    CL-46033  18.737  41.906  12.531
74505ION    CL-46034  11.270  13.615   2.778
74506ION    CL-46035   8.051  21.301  12.899
74507ION    CL-46036  23.870  38.473   1.941
74508ION    CL-46037  28.040   9.178   4.364
74509ION    CL-46038  29.076  18.521   2.944
74510ION    CL-46039  13.163  34.525   1.992
74511ION    CL-46040  13.110   3.686  11.626
74512ION    CL-46041  28.440  21.623   0.980
74513ION    CL-46042  43.521  17.100   5.017
74514ION    CL-46043   7.945  36.062  12.012
74515ION    CL-46044  29.798  25.660  11.761
74516ION    CL-46045  29.093  30.653   4.868
74517ION    CL-46046  16.244  19.783   2.605
74518ION    CL-46047  37.974  22.948  12.140
74519ION    CL-46048  40.326  39.115   2.525
74520ION    CL-46049  40.967   3.901   4.335
74521ION    CL-46050  26.311  23.857   2.769
74522ION    CL-46051  32.098   6.193  12.836
74523ION    CL-46052   5.333  23.274   2.680
74524ION    CL-46053  16.871  22.915  11.099
74525ION    CL-46054  12.226  25.818   1.090
74526ION    CL-46055   7.992  40.466   1.695
74527ION    CL-46056  37.632  14.384  10.411
74528ION    CL-46057  33.079  43.229   2.480
74529ION    CL-46058  18.887  17.239   0.684
74530ION    CL-46059   4.754   8.167  11.703
74531ION    CL-46060  29.938  25.114  13.315
74532ION    CL-46061   9.965   8.751   2.432
74533ION    CL-46062  18.515  38.944   1.746
74534ION    CL-46063  43.271  37.523  13.853
74535ION    CL-46064  18.119  12.127   1.479
74536ION    CL-46065   3.648   8.110  11.716
74537ION    CL-46066   0.777   9.957  13.536
74538ION    CL-46067  18.846  18.534  11.240
74539ION    CL-46068   0.956  10.968   0.276
74540ION    CL-46069  27.650  29.173   2.145
74541ION    CL-46070  23.292  27.777  11.089
74542ION    CL-46071  37.555   4.844  12.946
74543ION    CL-46072  42.629  25.354   3.472
74544ION    CL-46073   8.802  17.160   5.020
74545ION    CL-46074  10.199  11.079   1.839
74546ION    CL-46075   3.051  36.850   1.700
74547ION    CL-46076  33.491  42.787   0.115
74548ION    CL-46077  29.351  17.139  12.629
74549ION    CL-46078   7.320  20.212  13.378
74550ION    CL-46079  25.185  33.204  14.189
74551ION    CL-46080  38.506  14.420  13.363
74552ION    CL-46081  24.749  29.833  14.014
74553ION    CL-46082   8.755  22.708  11.080
74554ION    CL-46083  14.142  14.023  14.486
74555ION    CL-46084  14.644  15.243  14.727
74556ION    CL-46085  13.186  13.786   2.449
74557ION    CL-46086  26.461  23.871   3.938
74558ION    CL-46087   0.382  43.057   0.550
74559ION    CL-46088  26.343  10.927   2.552
74560ION    CL-46089  40.502   5.277  14.321
74561ION    CL-46090  17.770  28.725  13.927
74562ION    CL-46091  27.353  29.236   0.804
74563ION    CL-46092   2.928  25.302  12.873
74564ION    CL-46093   9.132  20.073  11.489
74565ION    CL-46094   6.625  17.876   2.843
74566ION    CL-46095  25.988  31.837  13.173
74567ION    CL-46096  31.116  37.153   4.854
74568ION    CL-46097  37.188   5.857   4.592
74569ION    CL-46098   1.653  16.455  11.394
74570ION    CL-46099  13.062  11.101   2.758
74571ION    CL-46100   4.992  36.153   3.639
74572ION    CL-46101  41.494  10.797   2.855
74573ION    CL-46102  34.503  21.684  13.416
74574ION    CL-46103  44.958  35.659   2.169
74575ION    CL-46104   8.450  24.404   3.190
74576ION    CL-46105  29.494  24.419   0.881
74577ION    CL-46106   4.596  31.230   1.357
74578ION    CL-46107  15.180  12.630  10.320
74579ION    CL-46108   8.928  31.413   2.322
74580ION    CL-46109  24.334  10.883   1.750
74581ION    CL-46110  27.557   9.888   0.973
74582ION    CL-46111  32.808  20.233   2.302
74583ION    CL-46112   9.328   6.772   1.266
74584ION    CL-46113   4.772  23.778   0.845
74585ION    CL-46114  28.755  25.389  12.114
74586ION    CL-46115  15.332  32.391  12.502
74587ION    CL-46116  14.319  41.044   9.652
74588ION    CL-46117  21.145  25.542   0.373
74589ION    CL-46118   8.934   1.460  10.792
74590ION    CL-46119   0.944  10.318  11.154
74591ION    CL-46120  37.077  17.717   3.748
74592ION    CL-46121  17.895  27.017  10.231
74593ION    CL-46122  30.641  20.115  11.115
74594ION    CL-46123   6.850  27.997  11.796
74595ION    CL-46124  20.007  25.774   3.644
74596ION    CL-46125   2.962   2.810   2.158
74597ION    CL-46126  10.397  11.112   2.819
74598ION    CL-46127  21.116   6.325   3.559
74599ION    CL-46128  20.296  31.515  14.661
74600ION    CL-46129  29.459  38.618   2.267
74601ION    CL-46130  14.966  30.948  14.000
74602ION    CL-46131  29.302  13.487   1.067
74603ION    CL-46132  26.616  11.709   0.900
74604ION    CL-46133  31.669  21.421   0.689
74605ION    CL-46134  23.889  10.921   4.099
74606ION    CL-46135  36.786  35.348  11.047
74607ION    CL-46136  30.580  44.347   0.889
74608ION    CL-46137   5.107  16.556  11.082
74609ION    CL-46138  22.169  10.748   0.263
74610ION    CL-46139  31.033  41.386   4.315
74611ION    CL-46140  36.782   9.772  11.489
74612ION    CL-46141  24.949  20.284   4.061
74613ION    CL-46142  41.501  27.162   2.748
74614ION    CL-46143  36.433  19.533  11.841
74615ION    CL-46144  23.404  10.760  12.259
74616ION    CL-46145  12.550  19.619   3.156
74617ION    CL-46146  12.865   4.988  11.774
74618ION    CL-46147  18.559   9.436  12.341
74619ION    CL-46148  39.659  15.646   1.086
74620ION    CL-46149  16.293  10.951   1.695
74621ION    CL-46150  22.362  36.160   3.944
74622ION    CL-46151  44.478  15.740  11.597
74623ION    CL-46152  36.395  15.745   5.007
74624ION    CL-46153  29.153  27.106   0.880
74625ION    CL-46154  16.179  35.931   4.972
74626ION    CL-46155   2.528  19.113  14.273
74627ION    CL-46156  37.313  28.808  12.123
74628ION    CL-46157  31.441  20.890   1.348
74629ION    CL-46158   6.139  22.281  10.634
74630ION    CL-46159  22.484  12.989   3.964
74631ION    CL-46160  29.363  16.051   1.779
74632ION    CL-46161  11.622   1.397  14.908
74633ION    CL-46162   6.299  15.650  12.908
74634ION    CL-46163  12.408  39.517  14.855
74635ION    CL-46164  15.576  36.123   1.774
74636ION    CL-46165  12.072  19.548  11.489
74637ION    CL-46166   0.421   5.610  13.511
74638ION    CL-46167  20.231  35.102   1.411
74639ION    CL-46168  22.572  21.798  12.289
74640ION    CL-46169  31.438  28.127   1.209
74641ION    CL-46170  25.652  27.246   2.496
74642ION    CL-46171  24.587  37.993  14.221
74643ION    CL-46172  18.435  37.571   9.817
74644ION    CL-46173   8.938  35.239  10.844
74645ION    CL-46174  21.268  20.106  11.123
74646ION    CL-46175  38.878  35.916   0.115
74647ION    CL-46176  11.594  41.495  14.877
74648ION    CL-46177   4.922  42.956  12.960
74649ION    CL-46178   6.167   8.650   2.331
74650ION    CL-46179  18.532  28.999  14.513
74651ION    CL-46180   9.901  23.004   2.382
74652ION    CL-46181  20.040  38.247   4.012
74653ION    CL-46182  11.524  18.586   3.694
74654ION    CL-46183   3.387  11.194   1.717
74655ION    CL-46184  17.158   8.097   4.108
74656ION    CL-46185  24.288  31.522  12.037
74657ION    CL-46186  30.182   7.410  12.345
74658ION    CL-46187  37.209  34.540  13.559
74659ION    CL-46188   9.967  31.392   2.317
74660ION    CL-46189  28.556  19.683  13.567
74661ION    CL-46190  22.953  12.646  11.193
74662ION    CL-46191  17.494   5.653  11.170
74663ION    CL-46192  36.042  33.130  12.404
74664ION    CL-46193  14.222  12.851  11.503
74665ION    CL-46194  15.232   0.369  11.615
74666ION    CL-46195  35.657  44.601   4.187
74667ION    CL-46196  13.636  26.560  14.445
74668ION    CL-46197  35.723  36.365  10.596
74669ION    CL-46198  15.639  32.576  14.498
74670ION    CL-46199  11.582  30.367  12.065
74671ION    CL-46200  42.110  22.284   5.029
74672ION    CL-46201  18.160   3.765  11.199
74673ION    CL-46202  33.664  43.107   1.808
74674ION    CL-46203  10.746   1.197   2.904
74675ION    CL-46204  16.610  20.687   2.879
74676ION    CL-46205  24.435  23.597  12.589
74677ION    CL-46206  10.407   1.043  13.932
74678ION    CL-46207  18.987   9.542   3.897
74679ION    CL-46208  24.393  25.315  12.305
74680ION    CL-46209  43.367  29.144  10.770
74681ION    CL-46210  29.899   8.597   0.931
74682ION    CL-46211  37.224  21.665  13.381
74683ION    CL-46212   3.414  18.314   3.876
74684ION    CL-46213   5.486  25.947   3.875
74685ION    CL-46214  21.587  34.638   0.900
74686ION    CL-46215  34.609  36.766  14.974
74687ION    CL-46216  44.272   2.947  12.902
74688ION    CL-46217  20.100  15.316   0.541
74689ION    CL-46218   3.547  32.603  13.159
74690ION    CL-46219  28.002  28.974  14.192
74691ION    CL-46220  12.891  23.711  11.579
74692ION    CL-46221   9.057  24.649   4.949
74693ION    CL-46222  30.615  19.303   1.845
74694ION    CL-46223  33.637   1.438   3.385
74695ION    CL-46224   4.509  36.519  12.441
74696ION    CL-46225  28.736  39.374   2.221
74697ION    CL-46226  14.718  30.444   2.983
74698ION    CL-46227   0.925  44.725   3.670
74699ION    CL-46228   5.250  31.614  12.553
74700ION    CL-46229  27.458  11.080  13.571
74701ION    CL-46230  39.533  31.293   3.040
74702ION    CL-46231  11.475  33.944  12.682
74703ION    CL-46232   8.765  30.487   5.048
74704ION    CL-46233  29.549  28.622  13.889
74705ION    CL-46234  43.143  32.061   0.719
74706ION    CL-46235  43.788  11.897  12.503
74707ION    CL-46236  12.065  14.616   2.464
74708ION    CL-46237  21.781  15.154  13.302
74709ION    CL-46238   5.145  41.909  13.835
74710ION    CL-46239   4.541  35.079  12.351
74711ION    CL-46240  30.169  26.428   0.809
74712ION    CL-46241  37.554  10.404  13.206
74713ION    CL-46242  31.212  42.071  13.018
74714ION    CL-46243   3.065  30.476  11.315
74715ION    CL-46244  28.880   7.155  11.231
74716ION    CL-46245  44.835  11.287   4.403
74717ION    CL-46246  41.994  37.904  12.616
74718ION    CL-46247  36.246  34.462   2.964
74719ION    CL-46248   9.717  20.176   2.646
74720ION    CL-46249   7.564  17.448  12.484
74721ION    CL-46250   8.196  20.405  12.938
74722ION    CL-46251  15.876  23.276   3.777
74723ION    CL-46252  13.862  13.129   1.716
74724ION    CL-46253  41.689  39.402  11.080
74725ION    CL-46254   3.001   7.006  12.294
74726ION    CL-46255  14.540   9.487   0.856
74727ION    CL-46256  28.201  39.520   0.990
74728ION    CL-46257   5.430   0.933   1.964
74729ION    CL-46258  14.303  18.161  14.335
74730ION    CL-46259   1.751   7.132  13.352
74731ION    CL-46260  37.761  22.026   1.714
74732ION    CL-46261  31.873  36.676  13.481
74733ION    CL-46262  30.884   6.299  12.080
74734ION    CL-46263  44.095  11.125  14.842
74735ION    CL-46264  36.025  37.229  13.511
74736ION    CL-46265   3.799  36.060  13.726
74737ION    CL-46266  21.408   9.667  11.073
74738ION    CL-46267   1.943  38.509  11.155
74739ION    CL-46268  12.651  20.635  14.175
74740ION    CL-46269  37.963  10.634  11.006
74741ION    CL-46270   4.186  25.986   0.343
74742ION    CL-46271   4.368  20.183   5.250
74743ION    CL-46272  32.972  21.717  12.350
74744ION    CL-46273   8.671  31.429  12.387
74745ION    CL-46274   1.945  27.189   4.068
74746ION    CL-46275  40.060  42.898   1.490
74747ION    CL-46276  31.675  30.748   3.917
74748ION    CL-46277  19.567  28.305   0.060
74749ION    CL-46278   2.557   6.398  10.357
74750ION    CL-46279  34.895  16.486   1.724
74751ION    CL-46280  14.707  27.895  12.383
74752ION    CL-46281  27.881  34.564  13.980
74753ION    CL-46282  24.687   7.374  13.791
74754ION    CL-46283   9.400  21.061  11.658
74755ION    CL-46284   8.599  15.629   5.043
74756ION    CL-46285  40.052  42.502   3.464
74757ION    CL-46286   4.702  13.083  11.507
74758ION    CL-46287  42.491  27.307   3.644
74759ION    CL-46288  11.349   9.953   0.758
74760ION    CL-46289  30.553  43.965  14.957
74761ION    CL-46290  30.677   1.072  12.911
74762ION    CL-46291  25.964  26.471   4.165
74763ION    CL-46292  15.544  26.186   0.909
74764ION    CL-46293  24.933  10.288  14.411
74765ION    CL-46294  25.132  20.114  12.992
74766ION    CL-46295  18.335  20.062  14.251
74767ION    CL-46296   6.412  11.753   3.097
74768ION    CL-46297  22.739   5.446  13.990
74769ION    CL-46298  13.281  23.722  12.547
74770ION    CL-46299  43.511  29.936   0.009
74771ION    CL-46300  18.324  15.112   1.094
74772ION    CL-46301  23.935  12.500  11.048
74773ION    CL-46302  11.598  25.205  12.885
74774ION    CL-46303  32.067  14.373   2.698
74775ION    CL-46304  16.059  23.537  10.463
74776ION    CL-46305  31.152  19.483  12.409
74777ION    CL-46306  22.976   6.575   3.308
74778ION    CL-46307  36.843  44.404   3.851
74779ION    CL-46308  42.480   6.655   2.447
74780ION    CL-46309   0.254  14.742   2.694
74781ION    CL-46310  13.162   5.063  10.941
74782ION    CL-46311  22.945  14.746   2.983
74783ION    CL-46312  21.956   5.826   1.197
74784ION    CL-46313  20.364   1.439   4.090
74785ION    CL-46314  40.429  19.153   1.001
74786ION    CL-46315  24.549   5.549  10.796
74787ION    CL-46316  13.141  23.086  13.476
74788ION    CL-46317  28.115  27.616   1.435
74789ION    CL-46318  16.164  30.425  12.258
74790ION    CL-46319  23.236  42.943   5.054
74791ION    CL-46320   8.149  17.122   2.378
74792ION    CL-46321  10.462  17.943   2.560
74793ION    CL-46322  29.093   9.650   0.866
74794ION    CL-46323   6.894  17.045  10.890
74795ION    CL-46324  40.351  23.139  14.334
74796ION    CL-46325  19.223  18.636  12.899
74797ION    CL-46326  26.269  35.531  14.299
74798ION    CL-46327  23.534  43.026  11.313
74799ION    CL-46328  25.496  17.631   1.253
74800ION    CL-46329  16.316  19.144   0.443
74801ION    CL-46330   8.240  33.383  14.999
74802ION    CL-46331   5.844  33.178   3.765
74803ION    CL-46332   7.597   9.354   3.347
74804ION    CL-46333  21.776  24.441   2.093
74805ION    CL-46334   8.878  29.052  13.867
74806ION    CL-46335   8.787  18.749  13.140
74807ION    CL-46336   9.189  35.179   2.831
74808ION    CL-46337  12.416   9.800  13.471
74809ION    CL-46338   2.434   3.017   3.523
74810ION    CL-46339  31.527   5.980   0.949
74811ION    CL-46340   7.355  19.072  11.368
74812ION    CL-46341  19.577  41.888   1.314
74813ION    CL-46342  11.674  24.973   1.375
74814ION    CL-46343  28.353  15.381  10.229
74815ION    CL-46344  10.673  19.344   3.660
74816ION    CL-46345  44.619   4.474  13.483
74817ION    CL-46346  23.677  39.796   3.096
74818ION    CL-46347   3.092  28.202   1.879
74819ION    CL-46348   2.936  11.623  14.949
74820ION    CL-46349  15.413   6.319   4.802
74821ION    CL-46350  10.495  38.819  13.870
74822ION    CL-46351   4.275   3.340   1.062
74823ION    CL-46352  26.231  20.073  12.955
74824ION    CL-46353   2.725   3.366   1.361
74825ION    CL-46354  41.130  40.925  12.577
74826ION    CL-46355  22.642  40.990  12.092
74827ION    CL-46356  37.523  17.294   0.837
74828ION    CL-46357  17.153  15.432  14.148
74829ION    CL-46358  38.729   3.679  13.598
74830ION    CL-46359  10.804  30.167   3.230
74831ION    CL-46360  22.533  20.379   0.391
74832ION    CL-46361  18.709  21.579   0.946
74833ION    CL-46362  22.708   0.229  14.738
74834ION    CL-46363  26.382  25.040   1.637
74835ION    CL-46364  44.177   8.455   1.655
74836ION    CL-46365  41.893  25.248   2.689
74837ION    CL-46366  21.547  34.873  13.563
74838ION    CL-46367  17.489  35.754   9.855
74839ION    CL-46368  44.008  24.165   3.082
74840ION    CL-46369  18.396   9.358  14.968
74841ION    CL-46370  15.907  13.280  11.461
74842ION    CL-46371   8.590  26.039   2.663
74843ION    CL-46372   2.699  21.722  11.963
74844ION    CL-46373  13.329  28.270  13.367
74845ION    CL-46374  36.429  20.579  14.787
74846ION    CL-46375  37.509  44.868  10.628
74847ION    CL-46376   5.027  17.491  10.309
74848ION    CL-46377  15.909   0.865  12.292
74849ION    CL-46378  15.677  18.705   1.476
74850ION    CL-46379  16.161  20.069  11.124
74851ION    CL-46380  36.965  33.971  13.982
74852ION    CL-46381  33.819   2.614   4.232
74853ION    CL-46382  17.397  18.989  14.751
74854ION    CL-46383  32.844  32.152  13.227
74855ION    CL-46384  24.387  38.064  10.902
74856ION    CL-46385  29.142  37.725  13.152
74857ION    CL-46386  31.592  22.554  11.130
74858ION    CL-46387  28.109   1.948   1.368
74859ION    CL-46388  44.697  35.511  11.965
74860ION    CL-46389  33.695  24.534   3.771
74861ION    CL-46390  37.572  30.581   2.817
74862ION    CL-46391  25.384  27.690  11.504
74863ION    CL-46392  17.493  30.672   0.117
74864ION    CL-46393  28.096  41.321  10.538
74865ION    CL-46394  30.474  10.840  11.609
74866ION    CL-46395  33.738  20.255  12.506
74867ION    CL-46396   5.918  11.258  12.830
74868ION    CL-46397   1.991  27.047   0.232
74869ION    CL-46398  14.905  38.873  14.160
74870ION    CL-46399  39.423  34.870  14.146
74871ION    CL-46400  35.288  18.161  10.358
74872ION    CL-46401  19.127  12.523   1.431
74873ION    CL-46402  15.925  39.680   0.630
74874ION    CL-46403  16.076  28.483  10.738
74875ION    CL-46404  19.012  22.165  12.549
74876ION    CL-46405   0.459  26.480   2.823
74877ION    CL-46406   1.126  33.140  13.049
74878ION    CL-46407  15.599  39.773  13.478
74879ION    CL-46408   9.004  40.337  12.344
74880ION    CL-46409  22.898  11.047   4.047
74881ION    CL-46410  36.423  36.547   3.911
74882ION    CL-46411  41.294  32.858   0.450
74883ION    CL-46412   8.732   9.547  10.391
74884ION    CL-46413  33.348  37.912   3.846
74885ION    CL-46414  31.789  15.552  12.220
74886ION    CL-46415  10.270   8.032  12.529
74887ION    CL-46416  16.894  12.817  11.663
74888ION    CL-46417   0.416  21.626   2.843
74889ION    CL-46418  41.973  12.888  14.750
74890ION    CL-46419  25.053  18.356   2.813
74891ION    CL-46420   0.005  34.113  11.318
74892ION    CL-46421   5.764  40.628  13.309
74893ION    CL-46422  35.722  37.870  14.092
74894ION    CL-46423  33.928  18.215   1.359
74895ION    CL-46424  39.649   3.999  11.107
74896ION    CL-46425  15.618  10.356  13.925
74897ION    CL-46426   8.203  25.997  10.795
74898ION    CL-46427  29.948  41.094   1.290
74899ION    CL-46428  11.858   9.652  12.654
74900ION    CL-46429  17.011  34.185  11.974
74901ION    CL-46430  20.429  10.056   0.723
74902ION    CL-46431  11.877  27.071   4.131
74903ION    CL-46432   6.849  29.526  11.903
74904ION    CL-46433  10.122  37.142   2.343
74905ION    CL-46434  29.271  16.641  13.517
74906ION    CL-46435  12.113  37.605   1.312
74907ION    CL-46436  43.104  22.416   1.890
74908ION    CL-46437  34.653   0.040   2.286
74909ION    CL-46438  42.698  29.617  14.345
74910ION    CL-46439   7.282  35.679  10.332
74911ION    CL-46440   3.167  30.722  13.403
74912ION    CL-46441  36.288  43.392   0.447
74913ION    CL-46442  24.259  15.597  13.486
74914ION    CL-46443  42.655  31.061   3.646
74915ION    CL-46444  29.111  17.126   2.619
74916ION    CL-46445  30.736  41.901  14.972
74917ION    CL-46446   9.037  28.006  10.643
74918ION    CL-46447  32.447  32.224   1.174
74919ION    CL-46448  16.025  36.130  11.191
74920ION    CL-46449   9.806  43.946   3.631
74921ION    CL-46450  13.716   3.082  11.687
74922ION    CL-46451  41.263  39.084  12.018
74923ION    CL-46452   7.873  17.539  13.967
74924ION    CL-46453  13.184  30.099   0.825
74925ION    CL-46454  21.946   4.043  14.961
74926ION    CL-46455  30.394   1.886  12.351
74927ION    CL-46456  25.057  43.515  14.881
74928ION    CL-46457  27.456  13.655   2.096
74929ION    CL-46458  35.591  10.301   0.224
74930ION    CL-46459  39.842   2.846   3.273
74931ION    CL-46460  29.646   3.912   4.171
74932ION    CL-46461  40.509  14.061  13.054
74933ION    CL-46462  22.849   8.222   2.798
74934ION    CL-46463  40.801   5.299   2.862
74935ION    CL-46464   6.824   8.297   0.355
74936ION    CL-46465  17.972  30.071  11.287
74937ION    CL-46466  26.389  12.344  13.902
74938ION    CL-46467  32.369  17.553  12.512
74939ION    CL-46468  43.502  15.600   4.556
74940ION    CL-46469  42.523   0.953  14.496
74941ION    CL-46470  41.093  12.994   0.402
74942ION    CL-46471  27.882   0.958  10.596
74943ION    CL-46472  13.173  19.252   3.710
74944ION    CL-46473  25.887  30.220   2.175
74945ION    CL-46474  36.608  14.710  14.765
74946ION    CL-46475  10.255   5.483  10.972
74947ION    CL-46476  10.346  41.840   1.852
74948ION    CL-46477  34.229  34.537   0.522
74949ION    CL-46478  43.117   0.143   4.972
74950ION    CL-46479   7.176  22.074   4.917
74951ION    CL-46480  42.029  13.828   5.049
74952ION    CL-46481  22.144  32.049  13.242
74953ION    CL-46482   7.751  22.519  13.318
74954ION    CL-46483  24.703  25.411   3.267
74955ION    CL-46484  39.072  34.404   2.221
74956ION    CL-46485   0.766  16.072   1.227
74957ION    CL-46486  25.851  20.683   1.251
74958ION    CL-46487   2.220  25.054   0.382
74959ION    CL-46488  38.359   5.158   3.240
74960ION    CL-46489  16.273  19.263  13.980
74961ION    CL-46490   9.062  33.582   0.533
74962ION    CL-46491  22.701  14.144   0.474
74963ION    CL-46492  15.631  11.440   9.644
74964ION    CL-46493  31.583   8.240  10.646
74965ION    CL-46494   5.973  24.046  11.381
74966ION    CL-46495  39.103  13.688   2.049
74967ION    CL-46496  35.451  28.955   0.877
74968ION    CL-46497  24.340  37.820   1.508
74969ION    CL-46498  20.911  38.970   4.590
74970ION    CL-46499  28.568  31.757  12.707
74971ION    CL-46500  42.694   6.302   1.505
74972ION    CL-46501  26.418   2.041   0.832
74973ION    CL-46502  27.904  27.105  12.113
74974ION    CL-46503  26.420  25.942  14.300
74975ION    CL-46504   4.538  31.563  11.447
74976ION    CL-46505   0.414  17.981  13.545
74977ION    CL-46506  20.069  22.812  10.853
74978ION    CL-46507  34.809   2.845  10.994
74979ION    CL-46508  43.196   1.494   3.021
74980ION    CL-46509  34.764  13.690   0.396
74981ION    CL-46510   7.936   8.718   2.183
74982ION    CL-46511  27.490  12.817  12.759
74983ION    CL-46512  41.886  26.453   5.093
74984ION    CL-46513  27.524  24.210  13.829
74985ION    CL-46514  31.519  17.833   2.666
74986ION    CL-46515  26.538  10.576   1.181
74987ION    CL-46516  20.595  26.532  10.175
74988ION    CL-46517  25.544  40.314   0.926
74989ION    CL-46518   5.879   4.378   3.206
74990ION    CL-46519   1.256  38.003  14.381
74991ION    CL-46520  15.044  44.058   3.719
74992ION    CL-46521  38.078  17.864  12.995
74993ION    CL-46522  11.502  34.972  12.134
74994ION    CL-46523  18.981   9.357  13.169
74995ION    CL-46524  34.954  15.526  14.073
74996ION    CL-46525  44.102  37.532  11.700
74997ION    CL-46526  34.677  39.863  12.915
74998ION    CL-46527  22.613  43.875   1.454
74999ION    CL-46528   5.239  27.407   0.253
75000ION    CL-46529  27.081  32.382  11.114
75001ION    CL-46530  37.469  12.529   2.519
75002ION    CL-46531  11.914  17.669  11.510
75003ION    CL-46532   6.228  26.981   4.046
75004ION    CL-46533  38.977  41.837   2.782
75005ION    CL-46534  26.485  35.379  12.592
75006ION    CL-46535   2.394   5.999  12.096
75007ION    CL-46536  29.896  13.153  10.120
75008ION    CL-46537  14.479  15.653   1.069
75009ION    CL-46538  37.815  37.081  12.994
75010ION    CL-46539  24.955  19.656   0.491
75011ION    CL-46540  33.213  34.862   3.894
75012ION    CL-46541  24.116  42.851   4.430
75013ION    CL-46542  17.670  23.530  11.541
75014ION    CL-46543  33.633  11.800  11.565
75015ION    CL-46544   2.205  14.389  11.856
75016ION    CL-46545  42.182  44.903  13.561
75017ION    CL-46546   5.140   1.306  12.115
75018ION    CL-46547  42.080  18.790  14.768
75019ION    CL-46548   9.812  20.362   0.718
75020ION    CL-46549  11.462  32.533  13.812
75021ION    CL-46550  22.167  27.661  14.943
75022ION    CL-46551   2.830  32.325  13.380
75023ION    CL-46552  28.902  31.511   2.480
75024ION    CL-46553   0.011  35.418  14.246
75025ION    CL-46554  29.466  44.469  11.370
75026ION    CL-46555  26.752  12.123   3.480
75027ION    CL-46556  40.968   6.057  11.234
75028ION    CL-46557   8.319  42.327   1.262
75029ION    CL-46558   8.531   4.642  14.543
75030ION    CL-46559   4.627  44.422   3.127
75031ION    CL-46560  17.747   7.971   5.548
75032ION    CL-46561  21.123  33.406  11.228
75033ION    CL-46562  16.977  42.259  13.510
75034ION    CL-46563  35.337   8.724  13.475
75035ION    CL-46564  36.548  12.535  13.096
75036ION    CL-46565  17.793  43.382   4.393
75037ION    CL-46566  26.633  27.457  14.314
75038ION    CL-46567  36.636  44.035   2.191
75039ION    CL-46568  28.906   4.875   1.306
75040ION    CL-46569   3.891   3.586  10.808
75041ION    CL-46570  44.509  23.401  12.522
75042ION    CL-46571  42.374  24.941  11.676
75043ION    CL-46572  36.560  44.774  13.203
75044ION    CL-46573   0.857  25.513   1.381
75045ION    CL-46574   0.123  39.545   5.058
75046ION    CL-46575  19.760  33.913   4.979
75047ION    CL-46576  37.559  30.204   1.466
75048ION    CL-46577  43.735  23.167  13.536
75049ION    CL-46578  34.382  20.234  13.728
75050ION    CL-46579  40.596  35.568  12.429
75051ION    CL-46580   6.061   2.631   3.129
75052ION    CL-46581  41.602   9.816  13.076
75053ION    CL-46582  28.761  18.593  13.051
75054ION    CL-46583   0.036  36.857  14.020
75055ION    CL-46584  16.089  38.817  13.369
75056ION    CL-46585   0.651   3.061   0.018
75057ION    CL-46586  10.991  27.489   0.003
75058ION    CL-46587  23.136   8.185  11.070
75059ION    CL-46588  13.622  43.522  11.199
75060ION    CL-46589  29.059  38.597  13.434
75061ION    CL-46590  14.312   9.731  13.088
75062ION    CL-46591  42.551  43.348   1.759
75063ION    CL-46592  20.050  13.749   2.404
75064ION    CL-46593   4.810  15.764   1.282
75065ION    CL-46594   3.752  24.799  12.144
75066ION    CL-46595  24.067  26.162  11.885
75067ION    CL-46596   1.004  34.239  14.624
75068ION    CL-46597  36.370  25.162   4.955
75069ION    CL-46598   8.027   3.368   1.135
75070ION    CL-46599  35.967  12.891   3.527
75071ION    CL-46600  18.833  30.997  14.913
75072ION    CL-46601  42.510  17.205  12.071
75073ION    CL-46602  36.352  11.764  11.432
75074ION    CL-46603   8.600  13.579   5.182
75075ION    CL-46604  17.207  12.232   4.251
75076ION    CL-46605   4.869   8.105  13.235
75077ION    CL-46606  25.430  21.298  11.133
75078ION    CL-46607   9.050   3.392  10.100
75079ION    CL-46608  37.461  25.767   0.985
75080ION    CL-46609   4.085  16.780   2.814
75081ION    CL-46610  11.440  28.510   3.381
75082ION    CL-46611  19.088  44.196   2.402
75083ION    CL-46612  41.982  28.258  12.532
75084ION    CL-46613  11.545  31.096  13.599
75085ION    CL-46614  13.311   2.359   2.941
75086ION    CL-46615  34.364   7.950   1.289
75087ION    CL-46616  13.877  15.156   1.996
75088ION    CL-46617  37.990   0.555   0.940
75089ION    CL-46618  31.154  11.527   2.925
75090ION    CL-46619  24.736  33.301  12.959
75091ION    CL-46620  42.060  26.241   2.845
75092ION    CL-46621   2.891  18.912  11.277
75093ION    CL-46622   8.749  34.480  11.467
75094ION    CL-46623   7.916  11.495  10.389
75095ION    CL-46624  41.257  28.838  12.904
75096ION    CL-46625  32.884   5.308   2.198
75097ION    CL-46626  17.186  21.397  13.587
75098ION    CL-46627  30.462  21.621  13.271
75099ION    CL-46628  14.450  27.336  14.660
75100ION    CL-46629  39.649  22.547   0.500
75101ION    CL-46630  34.275  40.150   0.946
75102ION    CL-46631  36.180  21.756   0.309
75103ION    CL-46632  20.884  24.512   2.897
75104ION    CL-46633  42.406   7.003  11.269
75105ION    CL-46634  27.649  21.786   2.950
75106ION    CL-46635  32.311  34.919  12.982
75107ION    CL-46636  22.258   4.264   0.902
75108ION    CL-46637  36.838   2.316   0.677
75109ION    CL-46638   8.392  35.507  13.308
75110ION    CL-46639  27.500  40.932  11.514
  45.00000  45.00000  15.00000
